/*--------------------------------*- C++ -*----------------------------------*\
  =========                 |
  \\      /  F ield         | OpenFOAM: The Open Source CFD Toolbox
   \\    /   O peration     | Website:  https://openfoam.org
    \\  /    A nd           | Version:  10
     \\/     M anipulation  |
\*---------------------------------------------------------------------------*/
FoamFile
{
    format      ascii;
    class       volVectorField;
    location    "0.002";
    object      U;
}
// * * * * * * * * * * * * * * * * * * * * * * * * * * * * * * * * * * * * * //

dimensions      [0 1 -1 0 0 0 0];

internalField   nonuniform List<vector> 
8911
(
(1.12582 0.131584 5.41438e-17)
(0.64857 0.292795 0)
(-0.146417 0.452704 3.59635e-15)
(-1.26009 0.589031 0)
(-2.56405 0.733563 2.76335e-15)
(-3.78681 0.874938 -1.89764e-17)
(-4.85085 0.996625 -6.41822e-21)
(-5.76361 1.10225 -2.0888e-15)
(-6.55485 1.1968 -9.89731e-16)
(-7.24473 1.28201 -9.47303e-16)
(-7.84907 1.35921 8.99812e-16)
(-8.38538 1.43029 2.78116e-17)
(-8.8719 1.49768 -1.35434e-17)
(-9.32181 1.56242 1.6929e-15)
(-9.73956 1.62441 -1.29452e-17)
(-10.1263 1.68309 -8.12767e-16)
(-10.4828 1.73822 -7.88327e-16)
(-10.8116 1.79111 6.06766e-22)
(-11.1168 1.84165 -7.79166e-16)
(-11.4013 1.8896 7.76209e-16)
(-11.669 1.93547 -4.48728e-23)
(-11.9238 1.97944 -7.61346e-16)
(-12.1637 2.02008 1.5077e-15)
(-12.3831 2.05515 7.46083e-16)
(-12.5749 2.08282 7.42603e-16)
(-12.7244 2.10288 -5.79229e-18)
(-12.8341 2.11827 5.8067e-18)
(-12.9467 2.13956 -2.91278e-18)
(-13.1168 2.17833 -7.49451e-16)
(-13.3836 2.24098 0)
(-13.7274 2.31329 -2.87304e-18)
(-14.1119 2.38721 7.27609e-16)
(-14.4854 2.40647 3.58527e-16)
(-14.5777 2.32923 -3.57333e-16)
(-13.5753 2.06146 0)
(-11.3081 1.51419 3.62378e-16)
(-1.49624 0.406495 0)
(-3.44139 0.76127 -2.4514e-17)
(-5.41119 1.10922 2.15093e-17)
(-7.34077 1.42492 0)
(-9.14834 1.68967 1.73082e-17)
(-10.7103 1.90134 -1.61157e-17)
(-12.0197 2.07577 9.86045e-16)
(-13.1249 2.22585 9.42909e-16)
(-14.0698 2.35754 9.22299e-16)
(-14.8869 2.47499 4.49771e-16)
(-15.6025 2.58145 -4.33967e-16)
(-16.2369 2.67937 -4.34942e-16)
(-16.8082 2.77089 -4.21798e-16)
(-17.3304 2.85704 -1.32052e-17)
(-17.8106 2.93813 -4.17157e-16)
(-18.2543 3.01454 6.44086e-18)
(-18.6651 3.08707 -8.13109e-22)
(-19.0479 3.15655 7.20551e-22)
(-19.4078 3.22348 -4.02565e-16)
(-19.7481 3.28803 -4.00056e-16)
(-20.0717 3.35073 0)
(-20.3808 3.41184 3.09704e-18)
(-20.6741 3.46973 -3.95962e-16)
(-20.9542 3.5238 -3.08596e-18)
(-21.2265 3.57519 -7.88384e-16)
(-21.4932 3.62676 0)
(-21.752 3.68012 -3.94849e-16)
(-21.9945 3.73459 -3.96591e-16)
(-22.2091 3.7892 0)
(-22.3626 3.83701 0)
(-22.4003 3.86085 0)
(-22.2951 3.84646 0)
(-22.0719 3.76483 -4.08339e-16)
(-21.5849 3.60235 -2.02697e-16)
(-20.4022 3.16975 0)
(-18.817 2.36034 -1.81064e-16)
(-3.5964 0.868732 -1.71705e-21)
(-6.06775 1.29811 -1.87249e-21)
(-8.42758 1.69716 -1.02721e-17)
(-10.5324 2.04014 -6.15428e-16)
(-12.3349 2.30682 -1.21025e-15)
(-13.8601 2.50768 0)
(-15.1387 2.66856 -5.78366e-16)
(-16.2191 2.80593 8.92461e-18)
(-17.1461 2.9274 -2.82555e-16)
(-17.952 3.03711 2.71093e-16)
(-18.6615 3.13802 2.77897e-16)
(-19.2922 3.232 2.77504e-16)
(-19.8597 3.3204 2.80474e-16)
(-20.3774 3.40399 -5.4952e-16)
(-20.8533 3.48295 2.68984e-16)
(-21.2939 3.55774 -6.5155e-22)
(-21.7036 3.62914 2.71347e-16)
(-22.0866 3.698 5.32654e-22)
(-22.4475 3.76451 5.44352e-16)
(-22.7887 3.82875 -5.06945e-23)
(-23.112 3.89097 -4.21431e-18)
(-23.4185 3.95147 -4.21761e-18)
(-23.7064 4.0091 -2.66787e-16)
(-23.9779 4.06238 0)
(-24.2362 4.11097 2.74329e-16)
(-24.4797 4.15489 2.68553e-16)
(-24.7011 4.19663 5.51687e-16)
(-24.8868 4.23566 2.70608e-16)
(-25.0218 4.26897 -2.7664e-16)
(-25.0776 4.29043 2.17855e-18)
(-25.0197 4.2819 0)
(-24.8485 4.22107 2.83628e-16)
(-24.5977 4.09483 1.38498e-16)
(-24.1653 3.91628 1.3696e-16)
(-23.242 3.56266 1.31979e-16)
(-22.1296 2.77621 0)
(-5.0528 1.35002 0)
(-7.74018 1.82594 0)
(-10.2163 2.22847 -8.93459e-16)
(-12.3448 2.54405 8.70416e-16)
(-14.1235 2.77464 4.28775e-16)
(-15.6098 2.94302 0)
(-16.8527 3.0761 8.52074e-16)
(-17.903 3.19076 6.63986e-18)
(-18.8057 3.29429 -6.62231e-18)
(-19.5922 3.38993 6.59738e-18)
(-20.2854 3.47963 -4.27922e-16)
(-20.9011 3.56453 0)
(-21.4538 3.64536 -2.1125e-16)
(-21.9566 3.72255 4.21845e-16)
(-22.4182 3.79611 0)
(-22.8451 3.86627 2.12826e-16)
(-23.2414 3.93315 2.02955e-16)
(-23.6113 3.99764 -2.0267e-16)
(-23.9585 4.06055 -4.21074e-16)
(-24.2851 4.12131 -2.08793e-16)
(-24.5922 4.17971 0)
(-24.8801 4.23579 -2.05827e-16)
(-25.1462 4.28868 -3.28234e-18)
(-25.3916 4.33612 3.29053e-18)
(-25.6172 4.37795 -3.2978e-18)
(-25.8206 4.41374 -4.22883e-16)
(-25.9961 4.44523 -4.58963e-23)
(-26.1361 4.47112 0)
(-26.2324 4.49054 2.12595e-16)
(-26.2682 4.49918 2.11824e-16)
(-26.2208 4.47652 1.67449e-18)
(-26.0949 4.39658 -1.85638e-21)
(-25.9203 4.25509 0)
(-25.6192 4.06547 4.07369e-19)
(-24.9504 3.73014 -1.02595e-16)
(-24.1885 2.99015 1.91654e-19)
(-6.30365 1.86 3.8975e-16)
(-9.101 2.35484 0)
(-11.5923 2.73085 3.65741e-16)
(-13.6794 2.99908 -3.54329e-16)
(-15.3987 3.18104 3.46226e-16)
(-16.8237 3.30784 -3.50754e-16)
(-18.0126 3.407 -6.9899e-16)
(-19.0165 3.49433 3.41087e-16)
(-19.8789 3.57594 -1.70319e-16)
(-20.63 3.6539 -3.55426e-16)
(-21.2915 3.72896 1.79763e-16)
(-21.8779 3.80146 5.4573e-18)
(-22.4027 3.87159 -1.08917e-17)
(-22.8779 3.9393 -1.68339e-16)
(-23.3118 4.00433 0)
(-23.7111 4.06685 0)
(-24.0803 4.12676 -1.71919e-16)
(-24.4231 4.18412 5.35613e-18)
(-24.743 4.24025 -8.00823e-18)
(-25.0421 4.29453 3.43465e-16)
(-25.3217 4.34637 0)
(-25.5824 4.3957 3.42418e-16)
(-25.8197 4.44169 1.67626e-16)
(-26.0361 4.48159 -1.70321e-16)
(-26.2319 4.51556 2.66145e-18)
(-26.4058 4.54324 -2.6618e-18)
(-26.5579 4.56679 -1.70379e-16)
(-26.683 4.58458 1.33164e-18)
(-26.7765 4.59559 -2.66814e-18)
(-26.8274 4.59544 -1.70039e-16)
(-26.8188 4.5696 -1.73374e-16)
(-26.7563 4.48678 -1.69736e-16)
(-26.6679 4.34125 8.44379e-17)
(-26.4889 4.14757 0)
(-26.0115 3.82012 0)
(-25.5034 3.11414 8.22583e-17)
(-7.45196 2.39006 -3.17633e-16)
(-10.2758 2.8746 -9.82974e-18)
(-12.7127 3.2012 -9.64089e-18)
(-14.7131 3.40994 9.53224e-18)
(-16.343 3.53791 -3.13094e-16)
(-17.6858 3.61949 6.20035e-16)
(-18.8035 3.68188 2.989e-16)
(-19.7463 3.73932 -6.09233e-16)
(-20.5541 3.79623 1.5504e-16)
(-21.2551 3.85352 1.48975e-16)
(-21.8712 3.91121 0)
(-22.4163 3.96893 0)
(-22.903 4.02626 1.50921e-16)
(-23.3429 4.08272 -4.5457e-18)
(-23.7434 4.13781 1.44564e-16)
(-24.111 4.19139 0)
(-24.4495 4.24324 -4.47896e-18)
(-24.7626 4.29319 4.4614e-18)
(-25.0536 4.34183 1.46591e-16)
(-25.3243 4.38895 -4.42585e-18)
(-25.5762 4.43367 4.41281e-18)
(-25.8097 4.47565 -1.45273e-16)
(-26.023 4.51467 -2.20403e-18)
(-26.2181 4.54808 1.43119e-16)
(-26.3969 4.57637 0)
(-26.559 4.5997 1.40705e-16)
(-26.7036 4.61873 -1.42897e-16)
(-26.8284 4.63216 2.19955e-18)
(-26.9297 4.63894 1.41092e-16)
(-26.996 4.63628 0)
(-27.0159 4.60395 1.43468e-16)
(-27.0012 4.51905 1.41192e-16)
(-26.9774 4.36977 -7.12567e-17)
(-26.9072 4.17019 -6.98567e-17)
(-26.5614 3.84905 -2.74607e-19)
(-26.2514 3.18399 -6.96671e-17)
(-8.50996 2.93997 -8.96184e-18)
(-11.2863 3.39094 2.85305e-16)
(-13.6145 3.65059 -1.70255e-17)
(-15.4945 3.78892 -2.6134e-16)
(-17.0135 3.85614 0)
(-18.2586 3.88863 -2.57914e-16)
(-19.2913 3.91104 -8.28027e-18)
(-20.1607 3.93587 2.61543e-16)
(-20.9057 3.96619 -8.07368e-18)
(-21.5523 4.00182 7.97043e-18)
(-22.1207 4.04154 3.93893e-18)
(-22.6235 4.08404 1.21444e-16)
(-23.0725 4.12832 -1.20368e-16)
(-23.4783 4.17345 -1.83327e-22)
(-23.8476 4.21863 -1.26242e-16)
(-24.1859 4.26339 3.80125e-18)
(-24.4969 4.30721 -1.25144e-16)
(-24.7839 4.34983 1.17098e-16)
(-25.05 4.39127 6.49682e-23)
(-25.2969 4.43169 -1.16159e-16)
(-25.5265 4.47011 0)
(-25.7396 4.50612 3.72618e-18)
(-25.9357 4.53975 1.15672e-16)
(-26.1164 4.56835 1.19276e-16)
(-26.2842 4.59237 1.86176e-18)
(-26.4387 4.6121 -3.72161e-18)
(-26.5795 4.62769 1.20958e-16)
(-26.7052 4.63755 0)
(-26.8126 4.64063 -1.19481e-16)
(-26.8922 4.63046 -1.19104e-16)
(-26.9348 4.59303 -9.42322e-19)
(-26.9486 4.50759 -1.51308e-21)
(-26.9565 4.3591 6.05807e-17)
(-26.9552 4.15479 1.19398e-16)
(-26.7211 3.84011 0)
(-26.5618 3.22372 6.00979e-17)
(-9.46619 3.50515 0)
(-12.1313 3.89911 -4.95888e-16)
(-14.3093 4.07707 0)
(-16.0453 4.13661 4.91299e-16)
(-17.4386 4.13814 -1.23745e-21)
(-18.575 4.11787 -2.41702e-16)
(-19.5175 4.09892 0)
(-20.3142 4.09138 7.09324e-18)
(-21.0002 4.09601 -1.18641e-16)
(-21.5976 4.11083 -1.10058e-16)
(-22.1239 4.13343 0)
(-22.5903 4.16157 -1.08062e-16)
(-23.0068 4.19357 -3.33155e-22)
(-23.3828 4.22797 0)
(-23.7247 4.26367 0)
(-24.0374 4.29994 0)
(-24.3243 4.33607 1.0459e-16)
(-24.5884 4.37163 -1.04207e-16)
(-24.8329 4.40637 3.24297e-18)
(-25.0599 4.44034 -3.23157e-18)
(-25.2712 4.47304 0)
(-25.4679 4.50377 1.06069e-16)
(-25.65 4.53253 -3.21928e-18)
(-25.819 4.55699 -1.02919e-16)
(-25.9773 4.57735 0)
(-26.1246 4.59403 0)
(-26.2606 4.60611 1.60603e-18)
(-26.3845 4.6124 -3.21436e-18)
(-26.4932 4.61109 -1.0313e-16)
(-26.5788 4.59814 1.0524e-16)
(-26.6363 4.55648 0)
(-26.6702 4.46876 -1.03572e-16)
(-26.7019 4.31726 -1.04837e-16)
(-26.709 4.102 -1.03797e-16)
(-26.5906 3.79292 -5.19304e-17)
(-26.5469 3.22474 -5.2361e-17)
(-10.3047 4.06812 -2.31857e-16)
(-12.8061 4.38158 2.38726e-16)
(-14.8044 4.46793 -6.92393e-18)
(-16.3813 4.44698 -2.17441e-16)
(-17.6405 4.38264 6.62596e-18)
(-18.671 4.31096 1.9992e-16)
(-19.5325 4.2535 0)
(-20.2659 4.21624 6.20566e-18)
(-20.9014 4.19685 9.14972e-17)
(-21.4566 4.19208 9.01695e-17)
(-21.9465 4.19835 5.93898e-18)
(-22.3808 4.21263 5.90483e-18)
(-22.7687 4.23262 1.87238e-16)
(-23.1188 4.25652 -5.80555e-18)
(-23.4367 4.28298 0)
(-23.727 4.31097 0)
(-23.9928 4.33961 5.7225e-18)
(-24.2371 4.36833 -8.55491e-18)
(-24.4629 4.39682 -9.08943e-17)
(-24.6725 4.42475 2.83093e-18)
(-24.8677 4.45199 -2.82287e-18)
(-25.0499 4.47783 -8.44858e-17)
(-25.2191 4.50197 -2.82116e-18)
(-25.3769 4.52246 0)
(-25.5252 4.53924 0)
(-25.6639 4.55269 0)
(-25.7929 4.56144 0)
(-25.9115 4.56396 -9.0153e-17)
(-26.0167 4.55848 1.8078e-16)
(-26.1033 4.53897 9.22329e-17)
(-26.1664 4.49203 -1.4251e-18)
(-26.2098 4.40076 9.15874e-17)
(-26.2532 4.24781 1.36995e-16)
(-26.2808 4.03265 1.12079e-21)
(-26.2323 3.7312 9.1075e-17)
(-26.2794 3.21575 1.8056e-19)
(-11.01 4.61336 1.32204e-17)
(-13.3067 4.82917 -2.04975e-16)
(-15.1073 4.81855 -1.25703e-17)
(-16.5199 4.71734 1.21789e-17)
(-17.6531 4.59274 0)
(-18.591 4.47658 1.82681e-16)
(-19.3837 4.38362 1.79182e-16)
(-20.0629 4.31847 -5.48688e-18)
(-20.654 4.27655 5.39477e-18)
(-21.1726 4.2529 0)
(-21.6311 4.2433 8.41067e-17)
(-22.0377 4.24402 0)
(-22.4008 4.25231 -8.81201e-17)
(-22.7281 4.266 8.74575e-17)
(-23.0249 4.28339 5.11102e-18)
(-23.2953 4.30324 -8.63974e-17)
(-23.5423 4.32453 0)
(-23.7687 4.34657 0)
(-23.9778 4.36895 7.55985e-17)
(-24.1716 4.39119 5.02354e-18)
(-24.3519 4.41293 -8.01519e-17)
(-24.5201 4.43394 7.99573e-17)
(-24.6765 4.4535 -7.76032e-17)
(-24.8225 4.46992 -2.50112e-18)
(-24.9597 4.48311 0)
(-25.0881 4.49285 7.74319e-17)
(-25.2077 4.49779 8.24346e-17)
(-25.3177 4.49618 7.999e-17)
(-25.416 4.48549 -8.01965e-17)
(-25.4986 4.45985 -8.05633e-17)
(-25.5616 4.40794 0)
(-25.6091 4.31336 -8.13222e-17)
(-25.6601 4.15988 -6.35544e-19)
(-25.7038 3.94698 6.34164e-19)
(-25.7044 3.65468 -1.92347e-21)
(-25.8167 3.1893 0)
(-11.5666 5.137 2.06097e-16)
(-13.6327 5.24389 1.87659e-16)
(-15.2322 5.13549 1.13746e-17)
(-16.4892 4.95602 -1.90848e-21)
(-17.5127 4.77528 -1.05062e-17)
(-18.3724 4.61952 -1.62978e-16)
(-19.1049 4.49594 -1.49909e-16)
(-19.7373 4.40416 1.46998e-16)
(-20.2904 4.34039 0)
(-20.7773 4.29862 0)
(-21.2084 4.27361 -7.99338e-17)
(-21.5908 4.26108 4.67991e-18)
(-21.932 4.25785 4.64026e-18)
(-22.2391 4.26135 -4.60671e-18)
(-22.5169 4.26968 -7.32473e-17)
(-22.7693 4.28139 7.73996e-17)
(-22.9993 4.29534 -9.09498e-18)
(-23.2095 4.3107 4.53377e-18)
(-23.4029 4.32696 -7.22736e-17)
(-23.5818 4.34357 0)
(-23.7478 4.35991 7.18479e-17)
(-23.9022 4.37578 -7.16724e-17)
(-24.0455 4.39061 -7.18083e-17)
(-24.1789 4.40275 0)
(-24.3037 4.41218 -6.94388e-17)
(-24.4201 4.41779 -7.61252e-17)
(-24.5282 4.41848 -7.16523e-17)
(-24.6275 4.4121 2.24056e-18)
(-24.7162 4.3958 -2.24636e-18)
(-24.7915 4.36435 3.38465e-18)
(-24.851 4.3075 -2.26502e-18)
(-24.8995 4.21028 7.40493e-17)
(-24.9545 4.05802 -1.45641e-16)
(-25.0087 3.85027 3.5819e-17)
(-25.0435 3.56994 -3.5864e-17)
(-25.1991 3.15141 3.72836e-17)
(-11.9658 5.63282 -1.11573e-17)
(-13.794 5.62639 -1.60979e-16)
(-15.1999 5.42172 -1.64352e-16)
(-16.32 5.17102 1.6666e-16)
(-17.2503 4.93907 -9.43504e-18)
(-18.0411 4.74612 -1.46439e-16)
(-18.7223 4.59399 0)
(-19.3145 4.47789 -1.41102e-16)
(-19.8346 4.3932 -8.68088e-18)
(-20.2939 4.33374 -6.85498e-17)
(-20.7009 4.29348 1.69564e-17)
(-21.0619 4.26774 -6.75359e-17)
(-21.3835 4.25293 -4.1874e-18)
(-21.6725 4.24617 -7.06886e-17)
(-21.933 4.24533 -1.56987e-22)
(-22.169 4.24878 0)
(-22.3831 4.25526 0)
(-22.578 4.26383 -6.55404e-17)
(-22.7567 4.27382 6.93959e-17)
(-22.9211 4.28461 6.10507e-17)
(-23.0729 4.29555 0)
(-23.2135 4.30612 6.48159e-17)
(-23.3431 4.3159 1.29894e-16)
(-23.463 4.32336 0)
(-23.5744 4.32849 6.48465e-17)
(-23.6776 4.32952 0)
(-23.7728 4.3254 2.02641e-18)
(-23.8594 4.31386 -4.0563e-18)
(-23.9366 4.29209 2.03384e-18)
(-24.0026 4.25498 0)
(-24.0563 4.19354 -1.02585e-18)
(-24.103 4.09441 -6.60609e-17)
(-24.1585 3.94471 1.34292e-16)
(-24.218 3.74431 -3.35814e-17)
(-24.2754 3.47916 3.26113e-17)
(-24.4558 3.10297 -3.40857e-17)
(-12.2102 6.09571 0)
(-13.8049 5.97513 1.56599e-16)
(-15.0359 5.68148 9.28836e-18)
(-16.0398 5.36784 -1.76993e-17)
(-16.8882 5.09054 1.35361e-21)
(-17.62 4.86199 2.7294e-16)
(-18.257 4.68211 1.30058e-16)
(-18.8144 4.54384 0)
(-19.3059 4.4388 0)
(-19.7407 4.36172 5.43902e-17)
(-20.1262 4.30618 7.69304e-18)
(-20.468 4.2671 1.22627e-16)
(-20.7719 4.24053 -7.60632e-18)
(-21.0441 4.22327 7.55801e-18)
(-21.2888 4.21302 5.26137e-17)
(-21.5094 4.20796 1.49605e-17)
(-21.7085 4.20671 -1.1214e-17)
(-21.8888 4.20821 6.33912e-17)
(-22.053 4.21165 -5.94806e-17)
(-22.203 4.21633 -5.93302e-17)
(-22.3405 4.22159 -3.70051e-18)
(-22.4667 4.2267 3.69434e-18)
(-22.5821 4.23067 -1.18503e-16)
(-22.6876 4.23303 -5.92307e-17)
(-22.7846 4.23321 -3.70088e-18)
(-22.8734 4.22916 3.70183e-18)
(-22.9541 4.21981 0)
(-23.0266 4.20295 0)
(-23.0904 4.1756 1.86202e-18)
(-23.145 4.133 5.02812e-23)
(-23.1905 4.06734 -6.39634e-17)
(-23.2324 3.96693 9.4718e-19)
(-23.2846 3.82073 -5.98785e-17)
(-23.344 3.629 3.0938e-17)
(-23.4144 3.38011 -3.10329e-17)
(-23.605 3.03831 0)
(-12.3071 6.52189 0)
(-13.6842 6.29104 0)
(-14.7653 5.91963 1.34788e-16)
(-15.6688 5.55189 -1.20382e-16)
(-16.447 5.23297 -7.73406e-18)
(-17.128 4.97145 -2.33091e-16)
(-17.7263 4.76465 -2.51571e-16)
(-18.2531 4.60449 1.23691e-16)
(-18.7192 4.48036 -5.74048e-17)
(-19.1319 4.38551 -7.09395e-18)
(-19.4979 4.31439 -5.6233e-17)
(-19.8219 4.26161 -4.9055e-17)
(-20.1094 4.2229 5.56783e-17)
(-20.366 4.19476 -5.53581e-17)
(-20.5956 4.17468 0)
(-20.8014 4.1607 -5.48572e-17)
(-20.986 4.15133 5.48562e-17)
(-21.1518 4.14535 0)
(-21.3015 4.14185 -5.18957e-23)
(-21.437 4.14003 -3.4073e-18)
(-21.5597 4.13894 -4.76362e-17)
(-21.6711 4.13772 -5.77859e-17)
(-21.7714 4.13547 3.05634e-23)
(-21.8614 4.1322 5.79847e-17)
(-21.9427 4.1269 -3.41267e-18)
(-22.0157 4.11726 5.4666e-17)
(-22.0804 4.10225 5.47667e-17)
(-22.1371 4.07967 0)
(-22.1858 4.04656 0)
(-22.227 3.99856 -5.55285e-17)
(-22.2615 3.92897 1.11719e-16)
(-22.2952 3.82769 -5.63118e-17)
(-22.3401 3.68555 5.57637e-17)
(-22.3941 3.50318 8.87877e-19)
(-22.4693 3.27161 0)
(-22.6593 2.96421 0)
(-12.2677 6.90996 0)
(-13.4527 6.57897 -1.46451e-16)
(-14.408 6.14133 1.53595e-17)
(-15.225 5.72628 -1.17234e-16)
(-15.943 5.36988 -1.13221e-16)
(-16.5794 5.07769 1.24068e-16)
(-17.1432 4.84476 -1.3585e-17)
(-17.6421 4.66212 -1.06986e-16)
(-18.0849 4.51914 5.2807e-17)
(-18.4774 4.40709 0)
(-18.8252 4.32006 5.18132e-17)
(-19.1325 4.25302 0)
(-19.4043 4.20159 -5.77912e-17)
(-19.6458 4.16201 5.7499e-17)
(-19.8607 4.13154 0)
(-20.052 4.10808 4.43766e-17)
(-20.2222 4.09005 -3.80597e-17)
(-20.3734 4.07608 -1.51298e-22)
(-20.5084 4.06498 -1.38734e-22)
(-20.6289 4.05574 -6.31756e-18)
(-20.7365 4.04744 5.05095e-17)
(-20.8323 4.03921 3.15621e-18)
(-20.9165 4.03062 4.75257e-17)
(-20.9897 4.02098 0)
(-21.0541 4.00953 0)
(-21.1101 3.99369 -1.01895e-16)
(-21.1575 3.97243 -5.10982e-17)
(-21.1969 3.94367 4.80844e-17)
(-21.229 3.90458 3.22424e-18)
(-21.2547 3.85123 5.19892e-17)
(-21.2759 3.77789 -5.23588e-17)
(-21.2984 3.67608 5.28374e-17)
(-21.3325 3.53838 -5.24466e-17)
(-21.3764 3.36557 -8.36328e-19)
(-21.4492 3.15095 -4.20549e-19)
(-21.6302 2.87674 4.40715e-19)
(-13.1305 6.84363 1.34313e-16)
(-13.9789 6.35095 9.88068e-17)
(-14.7224 5.89443 1.08097e-16)
(-15.3874 5.50432 1.30847e-17)
(-15.9836 5.18314 0)
(-16.5157 4.92469 1.00737e-16)
(-16.9887 4.71927 8.68481e-17)
(-17.4095 4.55621 1.22573e-17)
(-17.7829 4.42684 -1.21354e-17)
(-18.1135 4.32388 1.20413e-17)
(-18.4047 4.24232 0)
(-18.6613 4.17759 0)
(-18.8882 4.12585 -5.35396e-17)
(-19.0886 4.08431 -4.14936e-17)
(-19.2655 4.05066 4.72838e-17)
(-19.4211 4.02307 -4.73399e-17)
(-19.5577 4.00015 0)
(-19.6778 3.98053 4.1358e-17)
(-19.783 3.96309 -4.13426e-17)
(-19.8748 3.947 0)
(-19.9541 3.93138 -5.31998e-17)
(-20.0213 3.91581 5.34476e-17)
(-20.0771 3.89902 0)
(-20.1236 3.88052 2.98325e-18)
(-20.1616 3.85798 4.48947e-17)
(-20.1906 3.82986 3.00514e-18)
(-20.2118 3.79449 -5.13367e-17)
(-20.2261 3.7492 -4.865e-17)
(-20.235 3.69049 4.90784e-17)
(-20.2409 3.61356 0)
(-20.2497 3.51145 4.9975e-17)
(-20.2699 3.37836 0)
(-20.3001 3.21513 5.1588e-17)
(-20.364 3.01701 -7.99103e-19)
(-20.5283 2.77354 0)
(-12.7325 7.0903 1.38022e-17)
(-13.4901 6.55177 -2.01542e-21)
(-14.1698 6.05942 -1.00744e-16)
(-14.7871 5.63836 1.09963e-16)
(-15.3464 5.2894 -1.19363e-17)
(-15.8488 5.0058 9.42579e-17)
(-16.2972 4.77745 -1.04534e-16)
(-16.6971 4.59354 5.73981e-17)
(-17.0521 4.44546 4.5485e-17)
(-17.3659 4.3259 0)
(-17.6417 4.22925 5.63458e-17)
(-17.8835 4.15062 -6.33336e-22)
(-18.096 4.08603 3.34993e-17)
(-18.2821 4.03259 3.89646e-17)
(-18.4447 3.98786 5.55334e-18)
(-18.5858 3.94988 8.90017e-17)
(-18.7077 3.91716 0)
(-18.8126 3.88831 5.56087e-18)
(-18.9021 3.86219 3.89401e-17)
(-18.9776 3.83772 4.4546e-17)
(-19.0401 3.81407 5.01856e-17)
(-19.09 3.7906 -9.53054e-17)
(-19.1279 3.76594 -5.62307e-18)
(-19.156 3.73946 -8.8219e-24)
(-19.1755 3.70964 -3.96626e-17)
(-19.186 3.67425 0)
(-19.1886 3.63186 -4.58241e-17)
(-19.1847 3.58014 9.23662e-17)
(-19.1759 3.51604 -5.32835e-22)
(-19.1653 3.43561 0)
(-19.1585 3.33329 -4.90475e-17)
(-19.1625 3.20479 4.812e-17)
(-19.1758 3.05097 -4.69503e-17)
(-19.2251 2.86863 0)
(-19.366 2.65248 -2.59698e-17)
(-12.269 7.3236 1.28949e-17)
(-12.95 6.74677 -1.9687e-16)
(-13.573 6.22305 9.47946e-17)
(-14.1467 5.77329 -1.03621e-16)
(-14.6713 5.39751 1.01306e-16)
(-15.1455 5.08895 -8.89271e-17)
(-15.5704 4.83747 -1.09604e-17)
(-15.9501 4.63217 -3.25069e-17)
(-16.2872 4.46446 -7.51528e-17)
(-16.5849 4.32701 -1.06588e-17)
(-16.8456 4.21411 -4.25747e-17)
(-17.073 4.12068 4.23665e-17)
(-17.2714 4.04243 0)
(-17.4435 3.97624 0)
(-17.592 3.91959 -4.20235e-17)
(-17.7188 3.87056 -8.42208e-17)
(-17.8259 3.82744 1.05327e-17)
(-17.9156 3.7887 -5.26771e-17)
(-17.9895 3.75307 5.27278e-18)
(-18.0488 3.71942 -8.97837e-17)
(-18.0945 3.687 5.29243e-18)
(-18.1272 3.65476 7.98609e-17)
(-18.1475 3.62153 0)
(-18.1575 3.58639 5.36629e-18)
(-18.1587 3.54856 3.77518e-17)
(-18.1511 3.50556 5.42458e-18)
(-18.1355 3.45584 3.54947e-17)
(-18.1134 3.39746 -4.1306e-17)
(-18.087 3.32789 -2.78278e-18)
(-18.0592 3.24396 -4.0925e-23)
(-18.0357 3.14142 4.26255e-18)
(-18.0221 3.01729 -4.89173e-17)
(-18.0164 2.87247 -4.5686e-17)
(-18.0465 2.70455 2.41402e-17)
(-18.1588 2.51167 5.01864e-17)
(-11.7486 7.5467 -3.76082e-21)
(-12.3636 6.93804 6.98824e-17)
(-12.9356 6.38651 0)
(-13.4688 5.90994 6.55928e-17)
(-13.9607 5.50818 -6.41571e-17)
(-14.4078 5.17482 0)
(-14.81 4.89993 0)
(-15.1701 4.6727 0)
(-15.49 4.4846 5.10133e-17)
(-15.7719 4.32834 -1.013e-17)
(-16.018 4.19817 4.04622e-17)
(-16.2315 4.08888 -4.02709e-17)
(-16.4163 3.99595 0)
(-16.5748 3.91611 4.00423e-17)
(-16.7096 3.84671 -3.99777e-17)
(-16.8224 3.78572 7.01229e-17)
(-16.9153 3.73131 2.0052e-17)
(-16.9903 3.68179 3.00982e-17)
(-17.049 3.63581 0)
(-17.0927 3.59216 4.02759e-17)
(-17.1222 3.5501 -4.03812e-17)
(-17.1387 3.50842 -4.06394e-17)
(-17.1424 3.46601 0)
(-17.1353 3.42179 0)
(-17.1192 3.37525 0)
(-17.0945 3.32415 0)
(-17.0617 3.26686 0)
(-17.0225 3.20167 -2.63649e-18)
(-16.9791 3.12654 -3.9978e-17)
(-16.9346 3.03904 0)
(-16.8943 2.93611 0)
(-16.8624 2.81588 0)
(-16.8369 2.67923 4.4547e-17)
(-16.8451 2.52388 -6.15152e-22)
(-16.9252 2.35053 -2.43105e-17)
(-11.177 7.76239 0)
(-11.7343 7.12707 0)
(-12.26 6.55067 0)
(-12.7554 6.04897 -8.35595e-17)
(-13.2161 5.622 0)
(-13.6372 5.26397 0)
(-14.0175 4.96538 5.9719e-17)
(-14.3586 4.71566 3.93602e-17)
(-14.6617 4.50643 9.7505e-18)
(-14.9285 4.33047 -2.90357e-17)
(-15.1606 4.18207 -7.73104e-17)
(-15.3608 4.0559 -9.61808e-18)
(-15.5326 3.94728 4.65429e-22)
(-15.6783 3.8528 -2.86982e-17)
(-15.8002 3.76966 2.86571e-17)
(-15.8999 3.69575 -6.70264e-17)
(-15.9794 3.62913 -9.58502e-18)
(-16.0408 3.56796 9.5944e-18)
(-16.0855 3.51081 -3.84458e-17)
(-16.1147 3.45646 -9.63559e-18)
(-16.1296 3.40397 4.83215e-17)
(-16.1313 3.35227 0)
(-16.1202 3.30019 0)
(-16.0977 3.24651 0)
(-16.066 3.19062 0)
(-16.0258 3.13102 0)
(-15.9776 3.06588 4.01025e-17)
(-15.9231 2.99377 0)
(-15.8643 2.91305 2.55868e-18)
(-15.8044 2.82186 -2.58611e-18)
(-15.7481 2.71825 -2.61774e-18)
(-15.6988 2.60116 2.64983e-18)
(-15.6538 2.47145 0)
(-15.6395 2.32672 -2.16162e-17)
(-15.6859 2.16956 0)
(-10.5573 7.97299 -2.21357e-17)
(-11.0637 7.31506 4.2598e-17)
(-11.5474 6.71631 -2.06044e-17)
(-12.0075 6.19097 1.80583e-16)
(-12.4385 5.73952 7.85354e-17)
(-12.8347 5.35698 -1.93884e-17)
(-13.1939 5.03444 -7.64573e-17)
(-13.5168 4.76168 -3.77861e-17)
(-13.8039 4.53057 1.87154e-17)
(-14.0563 4.33404 1.85764e-17)
(-14.2752 4.16645 3.70855e-17)
(-14.4631 4.02242 0)
(-14.6229 3.89709 0)
(-14.7569 3.78696 0)
(-14.867 3.68912 -4.58163e-17)
(-14.955 3.60136 5.5108e-17)
(-15.0227 3.52163 -2.35215e-22)
(-15.0719 3.448 -9.20459e-18)
(-15.1044 3.37895 7.37803e-17)
(-15.1211 3.31325 9.24746e-18)
(-15.1235 3.24973 -5.56594e-17)
(-15.1127 3.18749 1.86763e-17)
(-15.089 3.12536 -1.87646e-17)
(-15.0537 3.06185 -2.35811e-17)
(-15.0088 2.99626 1.96613e-24)
(-14.9555 2.92784 1.22306e-23)
(-14.8944 2.85462 -7.70575e-17)
(-14.827 2.77545 2.89713e-23)
(-14.7554 2.68912 3.44262e-17)
(-14.6823 2.59419 -3.97728e-17)
(-14.612 2.48942 -2.51644e-18)
(-14.5471 2.37453 2.54447e-18)
(-14.4847 2.25035 -4.11133e-17)
(-14.449 2.11419 -6.49194e-19)
(-14.4626 1.97032 2.35994e-17)
(-9.89115 8.18035 -8.52223e-17)
(-10.3529 7.50313 0)
(-10.7983 6.88416 -1.98689e-17)
(-11.2256 6.33654 -1.35488e-16)
(-11.6287 5.86134 -5.68184e-17)
(-12.0012 5.45451 -1.86942e-17)
(-12.3402 5.10783 5.5272e-17)
(-12.6459 4.81155 5.46152e-17)
(-12.9179 4.55788 -3.60575e-17)
(-13.1571 4.33993 -3.57775e-17)
(-13.3639 4.15225 0)
(-13.5406 3.98938 0)
(-13.6899 3.84638 0)
(-13.8137 3.71965 0)
(-13.9138 3.60617 3.52554e-17)
(-13.9919 3.50369 -8.83224e-18)
(-14.0497 3.41007 -1.76818e-17)
(-14.0891 3.32326 1.77011e-17)
(-14.1117 3.24168 1.7736e-17)
(-14.1185 3.16405 -1.24408e-22)
(-14.111 3.08906 2.67602e-17)
(-14.0904 3.01585 0)
(-14.0571 2.94333 0)
(-14.012 2.86974 3.00786e-22)
(-13.9571 2.79442 3.64934e-17)
(-13.8938 2.71681 0)
(-13.8231 2.6355 4.63011e-18)
(-13.7461 2.54923 -4.20692e-17)
(-13.6649 2.45721 -3.78156e-17)
(-13.5818 2.35846 3.82252e-17)
(-13.5005 2.25203 -2.41744e-18)
(-13.4231 2.13834 -3.66152e-17)
(-13.3468 2.01817 3.94504e-17)
(-13.2925 1.88877 3.98775e-17)
(-13.2767 1.7556 -2.21849e-17)
(-9.17925 8.38608 8.24182e-17)
(-9.60176 7.6924 9.93461e-17)
(-10.0127 7.05506 -5.77129e-17)
(-10.4099 6.48642 9.36969e-17)
(-10.787 5.9882 5.49909e-17)
(-11.1374 5.55735 -1.80818e-17)
(-11.4577 5.18645 -5.34402e-17)
(-11.7473 4.86628 -3.51877e-17)
(-12.0056 4.58945 6.9663e-17)
(-12.2328 4.34935 -1.72713e-17)
(-12.4291 4.14073 1.72224e-17)
(-12.5963 3.95816 -3.42551e-17)
(-12.7369 3.79658 -3.41255e-17)
(-12.8525 3.65237 -3.40368e-17)
(-12.9448 3.52244 -1.69871e-17)
(-13.0153 3.40447 3.4033e-17)
(-13.0657 3.29628 8.51412e-17)
(-13.098 3.19568 -3.40879e-17)
(-13.1135 3.10103 -3.41497e-17)
(-13.1135 3.01102 3.42371e-17)
(-13.0993 2.9242 2.57531e-17)
(-13.0721 2.83973 -2.59099e-17)
(-13.0325 2.75653 3.46999e-17)
(-12.9814 2.67279 6.97572e-17)
(-12.9202 2.5878 -4.38565e-17)
(-12.8507 2.50092 5.29804e-17)
(-12.7741 2.41154 2.66951e-17)
(-12.6915 2.31829 3.59261e-17)
(-12.6046 2.22061 4.53952e-18)
(-12.5154 2.11788 -4.58735e-18)
(-12.4272 2.00945 3.47511e-17)
(-12.3413 1.89604 4.2077e-17)
(-12.2554 1.77841 -2.36101e-18)
(-12.1873 1.65441 -7.57773e-17)
(-12.1486 1.52961 -4.35972e-17)
(-8.42143 8.59172 -4.00209e-17)
(-8.80965 7.88414 -3.8606e-17)
(-9.18989 7.23009 1.12151e-16)
(-9.56006 6.6416 3.64005e-17)
(-9.91349 6.12111 -1.42369e-16)
(-10.2437 5.66661 7.01612e-17)
(-10.5469 5.27152 -3.45393e-17)
(-10.8222 4.9272 3.409e-17)
(-11.0684 4.62675 -1.68631e-17)
(-11.2854 4.36388 -1.67127e-17)
(-11.4731 4.1336 3.33008e-17)
(-11.6329 3.93055 3.31e-17)
(-11.7669 3.74963 6.59167e-17)
(-11.8767 3.58718 6.57149e-17)
(-11.9638 3.44008 0)
(-12.0296 3.30598 -3.28187e-17)
(-12.0757 3.18264 -6.56523e-17)
(-12.1039 3.06777 3.28443e-17)
(-12.1156 2.95965 -3.28923e-17)
(-12.1122 2.85689 -4.94479e-17)
(-12.0949 2.758 -9.96354e-23)
(-12.0648 2.66209 4.98472e-17)
(-12.0228 2.56811 -2.85735e-22)
(-11.9695 2.47428 -6.70468e-17)
(-11.9063 2.37976 3.37072e-17)
(-11.8348 2.28389 -4.23985e-17)
(-11.7565 2.18638 8.54157e-18)
(-11.6725 2.0864 0)
(-11.5843 1.98321 0)
(-11.4935 1.87647 0)
(-11.4028 1.76577 -5.44168e-22)
(-11.3131 1.65193 0)
(-11.2226 1.53571 2.25457e-18)
(-11.1456 1.41565 3.41778e-17)
(-11.0908 1.2967 8.28204e-17)
(-7.61662 8.79892 1.91834e-21)
(-7.97527 8.0798 -3.76561e-17)
(-8.3287 7.41059 -7.28792e-17)
(-8.67503 6.80339 -3.54643e-17)
(-9.00758 6.26143 1.38586e-16)
(-9.32002 5.78373 -3.41171e-17)
(-9.60834 5.3646 3.35605e-17)
(-9.87133 4.99603 -3.76836e-22)
(-10.1076 4.67164 -3.2716e-17)
(-10.3166 4.38553 1.19428e-21)
(-10.4979 4.13302 -3.22446e-17)
(-10.6527 3.90886 3.20283e-17)
(-10.7829 3.70795 -3.18687e-17)
(-10.8896 3.52665 -4.76251e-17)
(-10.9745 3.3618 4.74854e-17)
(-11.0387 3.21106 1.58329e-17)
(-11.0837 3.07213 7.18277e-23)
(-11.1114 2.94262 -4.74773e-17)
(-11.123 2.82072 3.16805e-17)
(-11.1198 2.70497 0)
(-11.1032 2.59388 0)
(-11.0742 2.48649 -2.60518e-22)
(-11.0337 2.38173 -3.2053e-17)
(-10.9826 2.27805 2.41395e-17)
(-10.9217 2.17424 -2.42566e-17)
(-10.8527 2.06981 4.06535e-17)
(-10.7771 1.96441 -4.91062e-17)
(-10.6961 1.8579 8.24998e-18)
(-10.6112 1.74944 4.16315e-17)
(-10.5234 1.63874 -8.38101e-18)
(-10.4349 1.5256 -3.37555e-17)
(-10.3465 1.41083 3.40243e-17)
(-10.2564 1.29513 0)
(-10.176 1.1775 3.46758e-17)
(-10.1123 1.06211 -3.98013e-17)
(-7.09638 8.28121 3.68923e-17)
(-7.42715 7.59834 3.56463e-17)
(-7.75318 6.97356 3.46501e-17)
(-8.06802 6.41096 -1.01443e-16)
(-8.3655 5.91061 -9.97728e-17)
(-8.64159 5.46772 3.26776e-17)
(-8.89483 5.07494 -9.65848e-17)
(-9.12361 4.72646 3.17941e-17)
(-9.32715 4.4168 0)
(-9.5048 4.14165 0)
(-9.65739 3.89593 3.10223e-17)
(-9.7866 3.67455 -6.16834e-17)
(-9.89351 3.47392 3.07005e-17)
(-9.97939 3.29088 -6.11671e-17)
(-10.0454 3.12311 1.52803e-17)
(-10.093 2.96826 1.52597e-17)
(-10.1237 2.82385 6.0991e-17)
(-10.1389 2.68797 0)
(-10.1399 2.55908 -4.579e-17)
(-10.128 2.4358 1.52809e-17)
(-10.104 2.31702 -3.06754e-17)
(-10.0693 2.20166 3.07521e-17)
(-10.0244 2.08831 -1.54273e-17)
(-9.9703 1.97566 1.54891e-17)
(-9.90825 1.86313 -3.11234e-17)
(-9.8397 1.7504 7.04195e-17)
(-9.76619 1.63749 -7.8785e-18)
(-9.68893 1.52406 -2.37984e-17)
(-9.60873 1.40955 -7.96856e-18)
(-9.52717 1.29387 4.00811e-18)
(-9.44493 1.1778 -6.86177e-17)
(-9.36032 1.06195 2.03452e-18)
(-9.28216 0.945453 -3.49027e-17)
(-9.21653 0.831854 0)
(-6.16942 8.49074 0)
(-6.48216 7.79565 0)
(-6.79192 7.15442 0)
(-7.09263 6.57203 0)
(-7.37841 6.04969 3.25e-17)
(-7.64531 5.58345 -3.18845e-17)
(-7.89178 5.16665 3.13781e-17)
(-8.11601 4.79409 3.13185e-22)
(-8.31703 4.46076 0)
(-8.49397 4.16273 0)
(-8.64745 3.89513 3.00777e-17)
(-8.7789 3.65295 5.52456e-22)
(-8.88923 3.43266 2.97002e-17)
(-8.97959 3.23112 2.95533e-17)
(-9.05097 3.04605 0)
(-9.10469 2.87507 -2.94215e-17)
(-9.14227 2.71559 -1.46842e-17)
(-9.16493 2.56564 -4.40139e-17)
(-9.17394 2.42361 4.4009e-17)
(-9.17054 2.28817 2.93422e-17)
(-9.15577 2.15817 -1.47077e-17)
(-9.13064 2.03247 -2.94574e-17)
(-9.0961 1.90971 -4.42876e-17)
(-9.05289 1.7887 5.92241e-17)
(-9.00204 1.66857 -2.97174e-17)
(-8.94488 1.54908 -7.46157e-18)
(-8.88288 1.43016 -1.50028e-17)
(-8.81731 1.31199 7.5289e-18)
(-8.74893 1.19385 0)
(-8.67869 1.07562 -3.79475e-18)
(-8.6071 0.957968 7.63398e-18)
(-8.5328 0.841437 2.69008e-17)
(-8.46228 0.725238 3.00185e-17)
(-8.40112 0.612154 3.74293e-17)
(-5.18922 8.71139 1.44038e-16)
(-5.48899 8.00565 -6.92148e-17)
(-5.78716 7.34902 0)
(-6.07793 6.74772 -6.50238e-17)
(-6.35575 6.20405 3.18501e-17)
(-6.61693 5.71496 6.2374e-17)
(-6.85991 5.2745 -3.06371e-17)
(-7.08286 4.87803 6.03406e-17)
(-7.28461 4.52103 -2.9762e-17)
(-7.4641 4.20004 0)
(-7.62172 3.91042 -8.34253e-22)
(-7.75875 3.64724 -5.78875e-17)
(-7.87594 3.40707 2.87418e-17)
(-7.97426 3.18684 0)
(-8.05455 2.9843 2.84615e-17)
(-8.11801 2.79705 -2.83533e-17)
(-8.1661 2.62243 2.82655e-17)
(-8.19996 2.45841 -3.56424e-22)
(-8.22072 2.30331 -5.63381e-17)
(-8.22967 2.15573 0)
(-8.22781 2.01474 -1.40823e-17)
(-8.21612 1.87901 1.40843e-17)
(-8.19558 1.74714 5.63971e-17)
(-8.167 1.61813 -1.41233e-17)
(-8.13119 1.49096 -1.41548e-17)
(-8.0892 1.36521 2.83884e-17)
(-8.04238 1.24086 -7.11774e-18)
(-7.99215 1.11808 7.12694e-18)
(-7.93922 0.996524 7.13946e-18)
(-7.88412 0.875755 1.6237e-23)
(-7.82713 0.756341 -1.07893e-17)
(-7.76726 0.638743 -5.42353e-17)
(-7.70907 0.522312 -2.91094e-17)
(-7.65802 0.40888 -3.4426e-17)
(-4.14906 8.94704 -7.17977e-17)
(-4.44102 8.23236 6.8781e-17)
(-4.73271 7.56144 -4.23937e-21)
(-5.01842 6.94201 -6.42047e-17)
(-5.2927 6.37762 -6.26674e-17)
(-5.55213 5.86625 5.37883e-21)
(-5.79535 5.4025 2.9991e-17)