VARIABLES = "X", "Y", "Z"
Zone T="interpolated" I=1528 J=4
DATAPACKING=POINT
                   5 0.003174999999999999                    0 
    4.99967162853391 0.003242752396489876                    0 
   4.999343262345973 0.003310530383106383                    0 
   4.999014898876924  0.00337832150380757                    0 
   4.998686535567495 0.003446113302551486                    0 
   4.998358169858425 0.003513893323296182                    0 
   4.998029799190443 0.003581649109999707                    0 
   4.997701033936959 0.003649448001086892                    0 
   4.997372258579242 0.003717197615406232                    0 
   4.997043470548964 0.003784885452817742                    0 
   4.997043083451779 0.003784965101736524                    0 
   4.997042696354571 0.003785044750552332                    0 
   4.997042309257342 0.003785124399265143                    0 
    4.99703714638343 0.003786186696420916                    0 
    4.99703198350575  0.00378724897520328                    0 
   4.997026820624289 0.003788311235563839                    0 
     4.9970220448374 0.003789293834265694                    0 
   4.997017269047261 0.003790276417124896                    0 
   4.997012493253861 0.003791258984103137                    0 
    4.99700681023279 0.003792428181577932                    0 
   4.997001127207079 0.003793597356446315                    0 
   4.996995444176716 0.003794766508643738                    0 
   4.996994536950704 0.003794953147243532                    0 
   4.996993629724575 0.003795139785263668                    0 
   4.996992722498326 0.003795326422703884                    0 
   4.996012759702265 0.003996946314946617                    0 
   4.995032797494521  0.00419856969499749                    0 
   4.994052824424577  0.00440014038748482                    0 
   4.993073736308233 0.004601415773974923                    0 
   4.992094614500558 0.004802526473829323                    0 
   4.991115447582219 0.005003416464713808                    0 
   4.990134699463868 0.005204341827899507                    0 
   4.989153883166612 0.005404933312969568                    0 
   4.988172987217702 0.005605134635507128                    0 
   4.988171462299841 0.005605445525116775                    0 
   4.988169937381757 0.005605756413647316                    0 
   4.988168412463454 0.005606067301098541                    0 
     4.9881478542225   0.0056102584316008                    0 
   4.988127295941391 0.005614449365379409                    0 
   4.988106737620023 0.005618640101916262                    0 
    4.98808770418854 0.005622519811758434                    0 
   4.988068670722373 0.005626399351679428                    0 
   4.988049637221439 0.005630278721268093                    0 
   4.988026988622288 0.005634894681092411                    0 
   4.988004339973649 0.005639510398462163                    0 
   4.987981691275382 0.005644125872684614                    0 
   4.987978076194906 0.005644862549849088                    0 
    4.98797446111316  0.00564559922079843                    0 
   4.987970846030146 0.005646335885529826                    0 
   4.986352468786398 0.005975868260526426                    0 
   4.984733995397046 0.006304929059229549                    0 
   4.983115426396531 0.006633519896753984                    0 
    4.98150037825584 0.006960909918896082                    0 
    4.97988523598653 0.007287835254777233                    0 
   4.978270000115945 0.007614297491434826                    0 
   4.976651337958329 0.007940970419349174                    0 
   4.975032582872894 0.008267181525398614                    0 
   4.973413735390247 0.008592932406465029                    0 
   4.973410401796236 0.008593602712583949                    0 
   4.973407068201833 0.008594273016758195                    0 
   4.973403734607043 0.008594943318987787                    0 
   4.973358045521798 0.008604130043243704                    0 
   4.973312356363395 0.008613316402244752                    0 
   4.973266667131846  0.00862250239602684                    0 
   4.973224311443303 0.008631017828986053                    0 
   4.973181955691918 0.008639532948136193                    0 
     4.9731395998777  0.00864804775350585                    0 
     4.9730891849784 0.008658182254364596                    0 
   4.973038769990112  0.00866831631076655                    0 
   4.972988354912855 0.008678449922759946                    0 
   4.972980295859875 0.008680069778563979                    0 
   4.972972236804622 0.008681689623013354                    0 
   4.972964177747096 0.008683309456108269                    0 
   4.970720554728298 0.009133962819079761                    0 
   4.968476812843289 0.009584026049210603                    0 
   4.966232947969972  0.01003347692457096                    0 
   4.963997016810005  0.01048068218404605                    0 
   4.961760955366266  0.01092723539831477                    0 
   4.959524759557394  0.01137311456614106                    0 
   4.957282733648931  0.01181942977107893                    0 
   4.955040564475775  0.01226502321130238                    0 
    4.95279824792532  0.01270987271716797                    0 
   4.952792555523034  0.01271100102014911                    0 
   4.952786863119773  0.01271212931819298                    0 
   4.952781170715535   0.0127132576112992                    0 
   4.952700872648261  0.01272917296774624                    0 
   4.952620574386503  0.01274508734059241                    0 
   4.952540275930073  0.01276100072881974                    0 
   4.952465669738222  0.01277578511749633                    0 
   4.952391063378008  0.01279056865451188                    0 
   4.952316456849278  0.01280535133904991                    0 
   4.952227668481834   0.0128229428854111                    0 
   4.952138879875251  0.01284053322187289                    0 
   4.952050091029275  0.01285812234705913                    0 
   4.952035909276645  0.01286093164433427                    0 
     4.9520217275179  0.01286374091066684                    0 
    4.95200754575304  0.01286655014605123                    0 
   4.949152804600242  0.01343155105665833                    0 
   4.946297881685484   0.0139956350830885                    0 
   4.943442779671527    0.014558813629048                    0 
   4.940601686543575  0.01511830684889083                    0 
   4.937760421337215  0.01567692601632808                    0 
   4.934918986668761   0.0162346823302224                    0 
   4.932068954412344  0.01679323796470882                    0 
   4.929218756958357  0.01735094818245408                    0 
   4.926368396946473  0.01790782428229163                    0 
   4.926359965241157  0.01790947031556428                    0 
   4.926351533534444  0.01791111634163758                    0 
   4.926343101826332  0.01791276236051182                    0 
   4.926219047843077  0.01793697903337022                    0 
    4.92609499355719  0.01796119414887307                    0 
   4.925970938968884  0.01798540770795176                    0 
   4.925855315868714  0.01800797411582109                    0 
   4.925739692506205  0.01803053917321378                    0 
   4.925624068881533  0.01805310288088391                    0 
   4.925486534522339  0.01807994059926707                    0 
   4.925348999792757  0.01810677641025792                    0 
    4.92521146469308   0.0181336103151256                    0 
   4.925189554093235  0.01813788501910621                    0 
   4.925167643484007  0.01814215967474803                    0 
   4.925145732865396  0.01814643428205621                    0 
   4.921695906863069  0.01881898816923324                    0 
   4.918245897297563  0.01949060357773078                    0 
   4.914795696829345  0.02016123977732447                    0 
   4.911367213584634  0.02082660629250495                    0 
   4.907938527387254  0.02149092571735776                    0 
   4.904509631026625   0.0221541580394616                    0 
   4.901069186881237  0.02281844897796359                    0 
   4.897628516640919  0.02348156493050362                    0 
    4.89418761302338  0.02414346548673661                    0 
   4.894176281072809  0.02414564320005665                    0 
   4.894164949119628  0.02414782089975587                    0 
   4.894153617163837  0.02414999858583285                    0 
    4.89397684421358   0.0241839675903597                    0 
   4.893800070627023  0.02421793327416617                    0 
   4.893623296403179   0.0242518956317736                    0 
   4.893457853660259  0.02428367782448134                    0 
   4.893292410357462  0.02431545709448143                    0 
   4.893126966493982  0.02434723343728273                    0 
   4.892930341300413  0.02438499473827725                    0 
   4.892733715312403  0.02442275189086071                    0 
   4.892537088528595  0.02446050488749406                    0 
    4.89250590748759  0.02446649135476909                    0 
   4.892474726426531  0.02447247771731294                    0 
   4.892443545345416  0.02447846397509556                    0 
   4.888416439365256  0.02525091110370033                    0 
   4.884389081780776   0.0260220496480269                    0 
   4.880361470652404  0.02679186565899526                    0 
   4.876364792969131  0.02755439986251676                    0 
   4.872367861803571  0.02831560433242379                    0 
   4.868370675238409  0.02907546532143319                    0 
   4.864359109036749  0.02983664624370082                    0 
   4.860347281759191  0.03059644643793293                    0 
   4.856335191468026  0.03135485201063504                    0 
   4.856321067293422  0.03135751933585628                    0 
   4.856306943115535  0.03136018664362202                    0 
   4.856292818934365  0.03136285393393163                    0 
    4.85605499226702  0.03140776375249143                    0 
   4.855817164668276  0.03145266861872397                    0 
   4.855579336137728  0.03149756852973565                    0 
   4.855355631077493  0.03153979736943888                    0 
   4.855131925192152  0.03158202182004398                    0 
   4.854908218481368  0.03162424187914289                    0 
   4.854642612320658  0.03167436369315806                    0 
   4.854377004995319  0.03172447930921236                    0 
   4.854111396504789   0.0317745887232755                    0 
   4.854069497484036  0.03178249276108543                    0 
   4.854027598434271  0.03179039664444839                    0 
   4.853985699355496  0.03179830037334856                    0 
   4.849398697456505  0.03266280086028938                    0 
   4.844811414024647  0.03352581230013314                    0 
   4.840223843605338  0.03438730081458731                    0 
   4.835677890301922  0.03523938440293872                    0 
   4.831131644515666   0.0360899062500584                    0 
    4.82658510091392  0.03693883325284922                    0 
    4.82202175943045  0.03778920297286432                    0 
   4.817458107204549  0.03863789944826122                    0 
   4.812894138845317  0.03948488921437916                    0 
   4.812877641822282  0.03948794751894598                    0 
   4.812861144795047  0.03949100580077658                    0 
   4.812844647763612  0.03949406405986937                    0 
   4.812538226924883  0.03955086480979652                    0 
   4.812231804635048  0.03960765770444411                    0 
   4.811925380892474  0.03966444273368556                    0 
   4.811635453039808   0.0397181633220724                    0 
   4.811345523883777   0.0397718768515268                    0 
   4.811055593422997  0.03982558331347123                    0 
   4.810711685258012    0.039889279068422                    0 
   4.810367775253002   0.0399529648530275                    0 
   4.810023863405658  0.04001664065297247                    0 
   4.809969886383893  0.04002663364193352                    0 
   4.809915909316681  0.04003662638453243                    0 
    4.80986193220401  0.04004661888071386                    0 
   4.804732797282806  0.04099513322060254                    0 
   4.799603308928817  0.04194174070980985                    0 
   4.794473472087277  0.04288646284434786                    0 
   4.789397283481256   0.0438194079613789                    0 
   4.784320763265554  0.04475054877821943                    0 
   4.779243916205579   0.0456799059750607                    0 
   4.774148611620537  0.04661081032249021                    0 
   4.769052987468341   0.0475399600162982                    0 
   4.763957048565646  0.04846737595906781                    0 
    4.76393891087498  0.04847067368619413                    0 
   4.763920773180389  0.04847397139162398                    0 
   4.763902635481871  0.04847726907535829                    0 
   4.763521457384705  0.04854656732801117                    0 
   4.763140277555851  0.04861585600775222                    0 
   4.762759095997321  0.04868513512332863                    0 
   4.762396050738874  0.04875110882017394                    0 
   4.762033003915016  0.04881707385688167                    0 
   4.761669955527485  0.04888303024100884                    0 
   4.761239595224193  0.04896120387266002                    0 
   4.760809232729012  0.04903936536910303                    0 
   4.760378868044841  0.04911751474292549                    0 
   4.760311556952728  0.04912973654686544                    0 
   4.760244245807148  0.04914195805461417                    0 
   4.760176934608117  0.04915417926621986                    0 
   4.754523417287823  0.05017967304790707                    0 
   4.748869559474109   0.0512032965088218                    0 
    4.74321535536358  0.05222501104950567                    0 
    4.73762812683696   0.0532326477257169                    0 
   4.732040548894089  0.05423834542855755                    0 
   4.726452615910526  0.05524206676362651                    0 
   4.720845560622202  0.05624713383662764                    0 
   4.715238136561744  0.05725013583126132                    0 
   4.709630338047869  0.05825103497523897                    0 
   4.709611573898235  0.05825438037965931                    0 
   4.709592809744345  0.05825772576011286                    0 
     4.7095740455862  0.05826107111659828                    0 
   4.709113473038436  0.05834317625610803                    0 
    4.70865289792315  0.05842526693373325                    0 
   4.708192320237194  0.05850734312855009                    0 
   4.707750504554485  0.05858606182325953                    0 
   4.707308686500626  0.05866476715348845                    0 
   4.706866866072844  0.05874345910076759                    0 
   4.706343223702135  0.05883670632317047                    0 
   4.705819577988328  0.05892993469031688                    0 
   4.705295928926801  0.05902314417145942                    0 
   4.705214108232679  0.05903770648502306                    0 
   4.705132287456695  0.05905226833663211                    0 
    4.70505046659883  0.05906682972616929                    0 
   4.698889519615827  0.06016212870376924                    0 
   4.692728185320266  0.06125525654230963                    0 
   4.686566458496195   0.0623461760095262                    0 
   4.680486175621779  0.06342040570172384                    0 
   4.674405500360217  0.06449241252496342                    0 
   4.668324427637788  0.06556216033904577                    0 
   4.662224794786006  0.06663279654146692                    0 
   4.656124751873113    0.067701087404306                    0 
   4.650024293779806  0.06876699646269349                    0 
   4.650006133709601   0.0687701657992837                    0 
   4.649987973635671  0.06877333511444476                    0 
   4.649969813558016  0.06877650440817573                    0 
    4.64942736006036  0.06887116311725287                    0 
   4.648884903235775  0.06896580267882908                    0 
   4.648342443080663  0.06906042306726987                    0 
   4.647818140115065   0.0691518575306477                    0 
   4.647293834031593  0.06924327403605728                    0 
   4.646769524826998  0.06933467256035335                    0 
   4.646147816751858  0.06944302579182453                    0 
   4.645526104278361  0.06955135367030789                    0 
   4.644904387401089  0.06965965615721564                    0 
   4.644806990167072   0.0696766202899177                    0 
   4.644709592824824  0.06969358379837232                    0 
   4.644612195374324  0.06971054668243119                    0 
    4.63796097895673  0.07086759334054311                    0 
   4.631309321059643  0.07202210974068578                    0 
   4.624657221490737  0.07317408510099856                    0 
   4.618102103365782  0.07430669451033846                    0 
    4.61154655592041  0.07543681523952493                    0 
   4.604990578911617  0.07656443660908878                    0 
   4.598418042725954  0.07769231262333189                    0 
   4.591845074371809  0.07881765547536199                    0 
   4.585271673604386  0.07994045440670104                    0 
    4.58525554210907  0.07994320658971545                    0 
   4.585239410611147  0.07994595875734542                    0 
   4.585223279110619  0.07994871090959081                    0 
   4.584598876934074  0.08005522633245085                    0 
   4.583974470853736  0.08016171869631494                    0 
   4.583350060869393   0.0802681879919632                    0 
   4.582741778884809  0.08037188444180547                    0 
   4.582133493194942  0.08047555898270529                    0 
   4.581525203799602   0.0805792116061391                    0 
   4.580802991404727  0.08070224743897106                    0 
   4.580080773785924   0.0808252523501143                    0 
   4.579358550942868  0.08094822632530362                    0 
   4.579244629870911  0.08096762093155241                    0 
   4.579130708668964  0.08098701476768307                    0 
   4.579016787337024  0.08100640783363966                    0 
   4.571888987549528  0.08221672041949526                    0 
    4.56476026250383  0.08342155529738163                    0 
   4.557630806610069  0.08462206373165639                    0 
   4.550614782589654  0.08580028202643541                    0 
   4.543598425717431  0.08697653068894791                    0 
   4.536581921893326  0.08815191058357534                    0 
   4.529552042366172  0.08932977115785125                    0 
   4.522522388904365  0.09050897190766687                    0 
   4.515493148476138  0.09169062002372472                    0 
     4.5154797354029  0.09169287795618927                    0 
   4.515466322331849  0.09169513590160527                    0 
   4.515452909262984  0.09169739385998033                    0 
   4.514748793499829  0.09181594374640153                    0 
   4.514044683956259  0.09193453047867249                    0 
   4.513340580820217  0.09205315516976852                    0 
   4.512649896860415  0.09216955808272054                    0 
   4.511959219424606  0.09228599964363435                    0 
     4.5112685486902  0.09240248090308451                    0 
   4.510447148871658  0.09254106420283945                    0 
   4.509625759081031  0.09267970690593694                    0 
   4.508804379616741  0.09281841077960165                    0 
   4.508673647202538  0.09284049309263166                    0 
   4.508542915058696  0.09286257700718563                    0 
   4.508412183186415  0.09288466253038913                    0 
   4.500823874867745  0.09416902399093321                    0 
   4.493236205817651  0.09545716969099041                    0 
   4.485648985463961  0.09674797197266792                    0 
   4.478192724111408  0.09801803414322026                    0 
   4.470736531440889  0.09928850422447758                    0 
   4.463280226692686   0.1005583126266487                    0 
   4.455809086559868   0.1018288604238755                    0 
   4.448337470626977   0.1030965943329971                    0 
    4.44086519707466   0.1043604384941449                    0 
   4.440850651964915   0.1043628940009999                    0 
   4.440836106851988   0.1043653494890341                    0 
    4.44082156173588   0.1043678049582396                    0 
   4.440021533639356   0.1045028335843947                    0 
   4.439221495686052   0.1046378039034152                    0 
   4.438421447652854   0.1047727145951108                    0 
   4.437635935165661   0.1049051132055196                    0 
   4.436850412535529   0.1050374518149405                    0 
     4.4360648795513   0.1051697291738887                    0 
   4.435147871316694   0.1053240644886681                    0 
   4.434230848348743   0.1054783126461929                    0 
   4.433313810311536   0.1056324716588201                    0 
   4.433182340996001    0.105654564722539                    0 
   4.433050871362861   0.1056766559073949                    0 
   4.432919401411125   0.1056987452075313                    0 
   4.424907122917808   0.1070435703080825                    0 
   4.416894464894459    0.108386156790091                    0 
   4.408881393954158   0.1097262914097702                    0 
     4.4009993735146    0.111041831064444                    0 
   4.393116887553407   0.1123545777115303                    0 
   4.385233903321431   0.1136643226169457                    0 
   4.377334739816182   0.1149734470084047                    0 
   4.369435010236369    0.116279138187269                    0 
   4.361534681637455   0.1175811861740603                    0 
   4.361519031008524   0.1175837616877315                    0 
   4.361503380377113   0.1175863371862809                    0 
   4.361487729743221   0.1175889126697068                    0 
   4.360595864452695   0.1177356531677718                    0 
   4.359703991059209   0.1178823442471387                    0 
   4.358812109515371   0.1180289856057556                    0 
   4.357935870979752   0.1181730049480143                    0 
    4.35705962448664   0.1183169757212681                    0 
   4.356183369991098   0.1184608976390892                    0 
   4.355176605567139   0.1186261930687175                    0 
   4.354169830452186   0.1187914231947882                    0 
   4.353163044578082    0.118956587582896                    0 
   4.353032539726957    0.118977992089508                    0 
   4.352902034693759   0.1189993954833128                    0 
   4.352771529478336   0.1190207977633644                    0 
   4.344345442243816   0.1204007270087554                    0 
   4.335918767718391   0.1217770826816437                    0 
   4.327491503239528   0.1231498330333039                    0 
   4.319194187866578   0.1244977671180907                    0 
   4.310896295184854   0.1258421433187638                    0 
   4.302597822471204   0.1271829301915958                    0 
    4.29428200470006   0.1285227932996472                    0 
    4.28596559907778   0.1298589893608858                    0 
   4.277648602864679    0.131191486740677                    0 
   4.277631838179022   0.1311941688220024                    0 
   4.277615073490956   0.1311968508881719                    0 
   4.277598308800478   0.1311995329391854                    0 
   4.276624061000316   0.1313553684808286                    0 
   4.275649805054716    0.131511152787088                    0 
    4.27467554095927   0.1316668858071218                    0 
   4.273718033961021   0.1318198889691585                    0 
   4.272760519082569   0.1319728424974713                    0 
    4.27180299631973   0.1321257463437981                    0 
   4.270715982445781   0.1322992664233271                    0 
   4.269628958399431   0.1324727223430349                    0 
   4.268541924174565   0.1326461140323141                    0 
   4.268412438382714   0.1326667637824221                    0 
    4.26828295244634   0.1326874126200402                    0 
   4.268153466365436   0.1327080605450492                    0 
   4.259325426462713   0.1341138370433065                    0 
   4.250496787976759   0.1355158737532742                    0 
   4.241667541423918   0.1369140917708717                    0 
   4.232967199056322   0.1382879881599123                    0 
   4.224266247895173   0.1396580238872026                    0 
   4.215564678791464   0.1410241229317444                    0 
   4.206844548449965   0.1423890120654956                    0 
   4.198123779223931   0.1437497954477333                    0 
   4.189402361907677   0.1451063965864979                    0 
   4.189384425093034   0.1451091821596742                    0 
    4.18936648827561   0.1451119677148377                    0 
   4.189348551455407   0.1451147532519878                    0 
   4.188303538248104   0.1452770089652276                    0 
   4.187258515588032   0.1454392034018454                    0 
   4.186213483459354   0.1456013364302688                    0 
   4.185186379316519   0.1457606265978084                    0 
   4.184159265997005   0.1459198571951101                    0 
    4.18313214348578   0.1460790280972609                    0 
   4.181976602931172   0.1462580264423168                    0 
   4.180821050702537   0.1464369488975506                    0 
   4.179665486778465   0.1466157952851002                    0 
   4.179537075198121   0.1466356647028575                    0 
   4.179408663473061   0.1466555331788497                    0 
   4.179280251603258   0.1466754007128327                    0 
   4.170060703851236   0.1480997238536486                    0 
    4.16084052683051   0.1495199984631732                    0 
   4.151619703368302   0.1509360884184666                    0 
     4.1425266641453   0.1523282229737069                    0 
   4.133432962974487   0.1537160241726598                    0 
     4.1243385832784    0.155099360710799                    0 
   4.115224346389392   0.1564810010461067                    0 
   4.106109394783239   0.1578578938941096                    0 
    4.09699371177748   0.1592299071186413                    0 
   4.096974546608747   0.1592327863421971                    0 
   4.096955381436706   0.1592356655436002                    0 
   4.096936216261359   0.1592385447228495                    0 
   4.095833971152528   0.1594040965615887                    0 
   4.094731715075949   0.1595695748842581                    0 
   4.093629448002136   0.1597349794572815                    0 
   4.092546335841783   0.1598974359969765                    0 
   4.091463213006848   0.1600598208822442                    0 
   4.090380079469352   0.1602221338914819                    0 
   4.089169649906723    0.160403435633231                    0 
   4.087959206904349   0.1605846470274863                    0 
   4.086748750423187   0.1607657677649803                    0 
   4.086621462144777   0.1607848085263357                    0 
   4.086494173716842   0.1608038482814372                    0 
   4.086366885139338   0.1608228870299252                    0 
   4.076764379458208   0.1622566717530995                    0 
   4.067161158426371   0.1636856948102448                    0 
   4.057557209615069    0.165109841758201                    0 
   4.048079847732993   0.1665102177298401                    0 
   4.038601752968644   0.1679056229714655                    0 
   4.029122913267889   0.1692959467061861                    0 
   4.019622872458052   0.1706840595815272                    0 
   4.010122059256889   0.1720668462588834                    0 
   4.000620461532118    0.173444195243127                    0 
   4.000600014033478   0.1734471532394407                    0 
   4.000579566531149   0.1734501112100564                    0 
    4.00055911902513    0.173453069154973                    0 
   3.999415085152862   0.1736185237539982                    0 
   3.998271039710089   0.1737838977078515                    0 
   3.997126982675633   0.1739491908219426                    0 
   3.996003362363054   0.1741114507361199                    0 
   3.994879730828969    0.174273632302412                    0 
    3.99375608805332   0.1744357353364772                    0 
   3.992506318117888   0.1746159398034934                    0 
   3.991256534223435   0.1747960466389321                    0 
   3.990006736342363    0.174976055589155                    0 
   3.989880617478972   0.1749942149865626                    0 
   3.989754498472848   0.1750123733843631                    0 
   3.989628379323962   0.1750305307822956                    0 
   3.979652006317756   0.1764640934209685                    0 
   3.969674866321767   0.1778923569782317                    0 
   3.959696944396892   0.1793151779030111                    0 
   3.949844384266942   0.1807145302529864                    0 
   3.939991032713228   0.1821082970582772                    0 
   3.930136875258122   0.1834963393799531                    0 
   3.920260120514946   0.1848815658069952                    0 
   3.910382527189446    0.186260763008731                    0 
   3.900504080707807   0.1876337911231769                    0 
   3.900482300032581   0.1876368114182386                    0 