# Forces      
# CofR        : (-1.050000e-01 0.000000e+00 0.000000e+00)
# Time        forces(pressure viscous)	moments(pressure viscous)
2400          	((8.053445e-01 5.064747e+01 -4.133262e-18) (3.359351e-01 1.992478e-02 1.541192e-18)) ((1.376616e-20 -2.889725e-19 -1.255067e+00) (4.831724e-22 3.602485e-21 2.288643e-03))
