/*--------------------------------*- C++ -*----------------------------------*\
  =========                 |
  \\      /  F ield         | OpenFOAM: The Open Source CFD Toolbox
   \\    /   O peration     | Website:  https://openfoam.org
    \\  /    A nd           | Version:  9
     \\/     M anipulation  |
\*---------------------------------------------------------------------------*/
FoamFile
{
    format      ascii;
    class       surfaceScalarField;
    location    "0.02";
    object      phi;
}
// * * * * * * * * * * * * * * * * * * * * * * * * * * * * * * * * * * * * * //

dimensions      [1 0 -1 0 0 0 0];

internalField   nonuniform List<scalar> 
72705
(
0.000359191
7.47728e-06
0.000345738
1.34537e-05
0.000331325
1.44122e-05
0.000316854
1.44716e-05
0.00030271
1.41439e-05
0.000289301
1.34091e-05
0.000277776
1.15252e-05
0.000268484
9.29268e-06
0.000260376
8.1081e-06
0.000252213
8.16381e-06
0.000243037
9.17742e-06
0.000231372
1.16669e-05
0.000212873
1.84995e-05
0.000177091
3.57817e-05
6.54646e-05
0.000111625
0.000366309
7.83532e-06
0.000365062
1.47009e-05
0.00036328
1.61942e-05
0.00036131
1.64416e-05
0.000359154
1.63002e-05
0.000356869
1.5694e-05
0.000353725
1.46697e-05
0.000349765
1.32532e-05
0.000345768
1.21052e-05
0.00034207
1.18625e-05
0.000338472
1.27768e-05
0.000334544
1.55974e-05
0.000330868
2.21765e-05
0.000324519
4.21311e-05
7.78438e-05
0.000312139
0.000367627
6.87489e-06
0.000369239
1.3089e-05
0.000370638
1.47952e-05
0.000371874
1.52057e-05
0.000372955
1.52194e-05
0.000373719
1.49301e-05
0.000373919
1.44691e-05
0.000373448
1.37242e-05
0.000372658
1.28949e-05
0.000371983
1.25381e-05
0.000371706
1.30538e-05
0.000371867
1.54369e-05
0.000373796
2.02479e-05
0.000380069
3.58584e-05
7.01838e-05
0.000387729
0.000368065
5.47609e-06
0.000370625
1.0529e-05
0.000373256
1.21645e-05
0.000375781
1.26803e-05
0.000378174
1.28267e-05
0.000380397
1.27072e-05
0.000382347
1.25194e-05
0.000384013
1.20585e-05
0.000385393
1.15152e-05
0.000386706
1.12256e-05
0.000388249
1.15119e-05
0.000390265
1.3422e-05
0.00039329
1.72232e-05
0.000401238
2.79105e-05
5.47772e-05
0.000416644
0.00036818
3.96192e-06
0.000371038
7.6717e-06
0.000374155
9.04676e-06
0.000377248
9.58757e-06
0.000380254
9.82096e-06
0.000383141
9.81971e-06
0.000385936
9.72528e-06
0.000388599
9.39501e-06
0.000391086
9.02769e-06
0.000393474
8.83824e-06
0.000395962
9.02428e-06
0.000398895
1.04893e-05
0.000402638
1.34795e-05
0.000410156
2.03924e-05
3.90399e-05
0.000425894
0.000368152
2.47555e-06
0.000371033
4.79105e-06
0.0003743
5.77983e-06
0.000377616
6.27178e-06
0.000380885
6.55234e-06
0.000384059
6.64483e-06
0.000387187
6.59772e-06
0.000390239
6.34358e-06
0.000393174
6.0932e-06
0.000396021
5.99149e-06
0.00039892
6.1256e-06
0.000402231
7.17937e-06
0.000406299
9.412e-06
0.00041271
1.39806e-05
2.55024e-05
0.000426248
0.000368066
1.07607e-06
0.000370836
2.02077e-06
0.00037407
2.54533e-06
0.000377434
2.90848e-06
0.00038079
3.196e-06
0.000384052
3.38231e-06
0.000387267
3.38287e-06
0.000390404
3.20725e-06
0.00039345
3.04667e-06
0.000396442
2.99998e-06
0.000399467
3.1003e-06
0.000402813
3.83322e-06
0.000406804
5.42132e-06
0.000412407
8.37772e-06
1.51557e-05
0.000422754
0.000367957
-2.15173e-07
0.000370545
-5.66544e-07
0.00037364
-5.49799e-07
0.000376926
-3.78319e-07
0.000380265
-1.42756e-07
0.000383533
1.14774e-07
0.000386766
1.49622e-07
0.000389914
5.98606e-08
0.000392983
-2.19866e-08
0.000396002
-1.85722e-08
0.000399026
7.66915e-08
0.000402267
5.92174e-07
0.000406006
1.68323e-06
0.000410903
3.48053e-06
7.28711e-06
0.000418772
0.000367839
-1.38842e-06
0.000370211
-2.93863e-06
0.000373072
-3.4109e-06
0.000376155
-3.46048e-06
0.000379344
-3.33253e-06
0.000382522
-3.06314e-06
0.000385664
-2.99171e-06
0.000388742
-3.01859e-06
0.000391763
-3.04294e-06
0.00039475
-3.00596e-06
0.00039774
-2.91306e-06
0.000400869
-2.5369e-06
0.000404337
-1.78464e-06
0.000408533
-7.1515e-07
1.08609e-06
0.000414734
0.000367717
-2.43906e-06
0.000369841
-5.06274e-06
0.000372392
-5.96183e-06
0.00037514
-6.20902e-06
0.000377998
-6.18981e-06
0.000380895
-5.96054e-06
0.000383779
-5.87581e-06
0.000386628
-5.86684e-06
0.000389443
-5.85845e-06
0.000392247
-5.80893e-06
0.000395062
-5.72843e-06
0.000397969
-5.4433e-06
0.00040109
-4.9056e-06
0.000404627
-4.25256e-06
-3.79969e-06
0.000409514
0.000367579
-3.35194e-06
0.000369401
-6.8844e-06
0.000371543
-8.10409e-06
0.000373837
-8.50281e-06
0.000376233
-8.58564e-06
0.000378716
-8.44373e-06
0.000381225
-8.38501e-06
0.000383735
-8.37679e-06
0.000386238
-8.36166e-06
0.000388752
-8.3229e-06
0.00039131
-8.28612e-06
0.000393957
-8.09027e-06
0.000396756
-7.70449e-06
0.000399707
-7.20357e-06
-7.39136e-06
0.000403299
0.000367391
-4.07622e-06
0.000368798
-8.29212e-06
0.000370368
-9.67349e-06
0.000372003
-1.01376e-05
0.000373719
-1.03023e-05
0.00037557
-1.02944e-05
0.0003775
-1.03149e-05
0.000379486
-1.03628e-05
0.000381494
-1.03695e-05
0.000383545
-1.03738e-05
0.000385695
-1.04359e-05
0.000387964
-1.03596e-05
0.000390346
-1.00865e-05
0.000392763
-9.62013e-06
-1.00533e-05
0.000395425
0.00036706
-4.46919e-06
0.000367757
-8.98982e-06
0.000368379
-1.02956e-05
0.000368987
-1.07454e-05
0.000369615
-1.09301e-05
0.000370385
-1.10642e-05
0.000371259
-1.11888e-05
0.000372174
-1.1278e-05
0.000373104
-1.12993e-05
0.000374138
-1.14084e-05
0.000375371
-1.16684e-05
0.000376802
-1.17907e-05
0.000378419
-1.17039e-05
0.000380066
-1.12673e-05
-1.15825e-05
0.000381596
0.000366253
-4.05552e-06
0.000365278
-8.0139e-06
0.000363946
-8.96443e-06
0.000362523
-9.32169e-06
0.000361069
-9.47656e-06
0.000359708
-9.70319e-06
0.000358312
-9.79182e-06
0.000356699
-9.66534e-06
0.000354927
-9.52695e-06
0.000353189
-9.67083e-06
0.000351547
-1.00271e-05
0.000350022
-1.02657e-05
0.000348523
-1.02051e-05
0.000346636
-9.38028e-06
-8.94762e-06
0.000344002
0.000362613
0.000354599
0.000345635
0.000336313
0.000326836
0.000317133
0.000307341
0.000297676
0.000288149
0.000278478
0.000268451
0.000258185
0.00024798
0.0002386
0.000229653
9.95214e-05
1.21027e-05
0.000123881
-2.436e-05
0.000166312
-4.24323e-05
0.000213565
-4.72541e-05
0.000257721
-4.41563e-05
0.000293231
-3.5511e-05
0.000322205
-2.89742e-05
0.000340801
-1.85963e-05
0.00034816
-7.35891e-06
0.000344723
3.43674e-06
0.000333076
1.16468e-05
0.000314604
1.84718e-05
0.000290585
2.40186e-05
0.00026443
2.61556e-05
2.66967e-05
0.000237733
0.000310937
1.33048e-05
0.000323805
-3.72283e-05
0.000342401
-6.10287e-05
0.000363548
-6.84019e-05
0.00038383
-6.44382e-05
0.000400821
-5.25031e-05
0.000411483
-3.9636e-05
0.000416944
-2.40577e-05
0.000417107
-7.52162e-06
0.000411627
8.91618e-06
0.000398341
2.49327e-05
0.000378219
3.85935e-05
0.000351882
5.03562e-05
0.000320735
5.73021e-05
6.53257e-05
0.000282106
0.000386499
1.45343e-05
0.000391522
-4.22518e-05
0.000401451
-7.09578e-05
0.000413311
-8.02619e-05
0.000424442
-7.55695e-05
0.000435087
-6.31488e-05
0.000441134
-4.56831e-05
0.000443117
-2.60405e-05
0.00044104
-5.44392e-06
0.000434222
1.5734e-05
0.000422512
3.6642e-05
0.000404376
5.67297e-05
0.000379835
7.48977e-05
0.000349531
8.76061e-05
0.000100039
0.000314818
0.000420648
1.05302e-05
0.00042346
-4.50634e-05
0.000427203
-7.47019e-05
0.000432122
-8.51808e-05
0.000438159
-8.16066e-05
0.00044393
-6.89204e-05
0.000447397
-4.91502e-05
0.000448473
-2.71162e-05
0.000446956
-3.9265e-06
0.000441751
2.09385e-05
0.000432317
4.60763e-05
0.000418231
7.08159e-05
0.000397674
9.54545e-05
0.000370106
0.000115174
0.000131981
0.000338164
0.000433193
3.23079e-06
0.000435607
-4.74771e-05
0.000436474
-7.55693e-05
0.000437836
-8.65431e-05
0.00043999
-8.37602e-05
0.00044161
-7.05407e-05
0.000443407
-5.09468e-05
0.000444207
-2.79163e-05
0.000443624
-3.34349e-06
0.000440483
2.40805e-05
0.000434135
5.24239e-05
0.000424004
8.09474e-05
0.000409279
0.000110179
0.00038737
0.000137082
0.000161092
0.00035826
0.000433753
-4.27477e-06
0.000436567
-5.02915e-05
0.00043647
-7.54721e-05
0.000435192
-8.52663e-05
0.000433943
-8.25108e-05
0.000433525
-7.01228e-05
0.0004339
-5.1322e-05
0.0004344
-2.84155e-05
0.0004346
-3.54373e-06
0.00043327
2.54111e-05
0.000429877
5.5817e-05
0.000423828
8.69967e-05
0.000414198
0.000119808
0.000399538
0.000151742
0.000184636
0.000375994
0.000429741
-1.12618e-05
0.000431754
-5.23042e-05
0.000430469
-7.41881e-05
0.000427614
-8.24109e-05
0.000424618
-7.9515e-05
0.000422422
-6.79266e-05
0.00042142
-5.03199e-05
0.000421091
-2.80865e-05
0.000421077
-3.53007e-06
0.000421079
2.54098e-05
0.000420589
5.63069e-05
0.000418513
8.90727e-05
0.000414148
0.000124173
0.000406272
0.000159618
0.000199953
0.000390955
0.000424218
-1.67081e-05
0.000424877
-5.2964e-05
0.000422272
-7.15832e-05
0.000418035
-7.81741e-05
0.00041339
-7.487e-05
0.000409283
-6.38197e-05
0.000406111
-4.71477e-05
0.00040442
-2.63955e-05
0.000404206
-3.31566e-06
0.000405274
2.43422e-05
0.000407127
5.44541e-05
0.000409034
8.71662e-05
0.0004101
0.000123106
0.000408441
0.000161278
0.000205711
0.000402683
0.000418322
-2.02952e-05
0.000417253
-5.1895e-05
0.000413104
-6.74342e-05
0.000407251
-7.23213e-05
0.000400789
-6.84089e-05
0.000394815
-5.78453e-05
0.000390221
-4.25538e-05
0.000387582
-2.37569e-05
0.000386988
-2.72107e-06
0.000388445
2.28852e-05
0.000391808
5.10914e-05
0.000396698
8.22762e-05
0.000402347
0.000117457
0.000407554
0.00015607
0.000202782
0.000410484
0.000412385
-2.3167e-05
0.000409459
-4.89681e-05
0.000403733
-6.17084e-05
0.000396314
-6.49022e-05
0.000388302
-6.03966e-05
0.000380798
-5.03413e-05
0.00037469
-3.64454e-05
0.000370659
-1.97261e-05
0.000369113
-1.17497e-06
0.000370447
2.15517e-05
0.00037481
4.67275e-05
0.000382032
7.50542e-05
0.000391823
0.000107666
0.000403247
0.000144646
0.000191279
0.00041475
0.000405293
-2.51605e-05
0.000400973
-4.46486e-05
0.000393143
-5.38779e-05
0.000384003
-5.57623e-05
0.000374262
-5.06555e-05
0.000365074
-4.11539e-05
0.0003574
-2.87716e-05
0.000352121
-1.4447e-05
0.000349766
1.18063e-06
0.00035105
2.02674e-05
0.000356254
4.15232e-05
0.000365413
6.58958e-05
0.000378861
9.42164e-05
0.000395805
0.000127703
0.000171091
0.000415993
0.000396329
-2.60642e-05
0.000390584
-3.89023e-05
0.000380788
-4.4083e-05
0.00036878
-4.3752e-05
0.000356664
-3.85422e-05
0.000345424
-2.99109e-05
0.000336017
-1.93669e-05
0.00032943
-7.85914e-06
0.000326262
4.34731e-06
0.000327627
1.89025e-05
0.000333887
3.52636e-05
0.000345104
5.46771e-05
0.000362263
7.70584e-05
0.000384758
0.000105207
0.000141442
0.000414407
0.000380273
-2.47396e-05
0.000371487
-3.01161e-05
0.00035864
-3.1236e-05
0.000343703
-2.8815e-05
0.000328717
-2.35574e-05
0.000315487
-1.66819e-05
0.000305142
-9.02277e-06
0.000298514
-1.23158e-06
0.000296077
6.78387e-06
0.000298826
1.61529e-05
0.000307258
2.68319e-05
0.000321165
4.07691e-05
0.000342484
5.574e-05
0.000370157
7.75345e-05
0.000103078
0.00040852
0.000337296
-1.80324e-05
0.000323171
-1.59909e-05
0.000306212
-1.42766e-05
0.000288949
-1.15525e-05
0.000273559
-8.16994e-06
0.000261238
-4.3612e-06
0.000252686
-4.72788e-07
0.000248276
3.17755e-06
0.000248117
6.94197e-06
0.000252885
1.13842e-05
0.000263113
1.66039e-05
0.000281344
2.25378e-05
0.000309305
2.77796e-05
0.000344373
4.24662e-05
5.10438e-05
0.000396408
0.00021162
0.000195629
0.000181353
0.0001698
0.00016163
0.000157268
0.000156795
0.000159973
0.000166915
0.000178299
0.000194903
0.000217441
0.00024522
0.000287686
0.00033873
0.000255397
-1.76637e-05
0.000266709
-1.13119e-05
0.000275489
-8.77999e-06
0.000280231
-4.74235e-06
0.0002828
-2.56887e-06
0.000284155
-1.35467e-06
0.000284374
-2.19133e-07
0.000283497
8.77378e-07
0.00028138
2.11641e-06
0.000276882
4.49874e-06
0.000271623
5.26042e-06
0.000260242
1.13918e-05
0.000249454
1.07762e-05
0.000207106
4.23473e-05
-0.000131218
0.000338323
0.000295075
-3.06326e-05
0.00030416
-2.03968e-05
0.000313009
-1.76291e-05
0.000320656
-1.23887e-05
0.000326852
-8.76512e-06
0.000332174
-6.67666e-06
0.000336895
-4.93969e-06
0.000341335
-3.56303e-06
0.000345779
-2.3272e-06
0.000349969
3.08361e-07
0.000355288
-5.76682e-08
0.000358299
8.39121e-06
0.000364296
4.76842e-06
0.000353307
5.33359e-05
-0.000189956
0.000412045
0.000324529
-4.0344e-05
0.00033233
-2.81978e-05
0.000338644
-2.39434e-05
0.000344077
-1.7821e-05
0.000348142
-1.28303e-05
0.000351423
-9.95789e-06
0.000354429
-7.94533e-06
0.000357387
-6.5213e-06
0.00036088
-5.82017e-06
0.000364679
-3.4901e-06
0.000370338
-5.71459e-06
0.00037482
3.91817e-06
0.000386112
-6.53258e-06
0.000383533
5.59125e-05
-0.000231894
0.000425471
0.000342678
-4.48584e-05
0.000346415
-3.19341e-05
0.000348996
-2.65243e-05
0.00035156
-2.03849e-05
0.000353753
-1.50233e-05
0.00035576
-1.19649e-05
0.000357943
-1.01286e-05
0.000360382
-8.96055e-06
0.000363442
-8.87936e-06
0.000367231
-7.27908e-06
0.000372465
-1.09483e-05
0.000377417
-1.0232e-06
0.000387863
-1.69901e-05
0.000390513
5.32628e-05
-0.000269645
0.000428264
0.000359843
-4.64415e-05
0.000361203
-3.32943e-05
0.000361909
-2.72306e-05
0.000362832
-2.13071e-05
0.000363693
-1.58847e-05
0.000364428
-1.27002e-05
0.000365355
-1.10548e-05
0.000366613
-1.02193e-05
0.000368462
-1.07277e-05
0.000371187
-1.00038e-05
0.000374961
-1.47204e-05
0.000379761
-5.81539e-06
0.00038703
-2.42677e-05
0.000396538
4.37534e-05
-0.000303334
0.000430227
0.000374876
-4.5324e-05
0.000373886
-3.23042e-05
0.000372541
-2.58854e-05
0.000371623
-2.03893e-05
0.000371028
-1.52893e-05
0.000370604
-1.2276e-05
0.000370557
-1.10084e-05
0.000371011
-1.06726e-05
0.000372081
-1.17979e-05
0.000374118
-1.20409e-05
0.000376918
-1.75199e-05
0.000381492
-1.03798e-05
0.000386447
-2.92327e-05
0.000399672
3.05289e-05
-0.000333023
0.00042936
0.000387123
-4.14915e-05
0.0003843
-2.94819e-05
0.000381545
-2.313e-05
0.000379382
-1.82267e-05
0.000377823
-1.37301e-05
0.000376628
-1.10812e-05
0.000375845
-1.02253e-05
0.000375595
-1.04226e-05
0.000375929
-1.21315e-05
0.000377232
-1.33435e-05
0.000379116
-1.94022e-05
0.000383086
-1.43422e-05
0.000386791
-3.29457e-05
0.000399943
1.73754e-05
-0.000358241
0.000425161
0.00039669
-3.54986e-05
0.00039255
-2.53421e-05
0.000388834
-1.94136e-05
0.000385768
-1.51604e-05
0.000383465
-1.1427e-05
0.000381686
-9.30258e-06
0.00038036
-8.89973e-06
0.000379592
-9.654e-06
0.000379367
-1.19063e-05
0.000380075
-1.4051e-05
0.000381219
-2.05474e-05
0.000384556
-1.76689e-05
0.000387333
-3.57327e-05
0.000400052
4.65702e-06
-0.000376653
0.000418463
0.000403512
-2.85273e-05
0.000398499
-2.03285e-05
0.000394218
-1.51331e-05
0.000390695
-1.1637e-05
0.000388014
-8.7464e-06
0.000385901
-7.18971e-06
0.00038423
-7.22818e-06
0.000383142
-8.56642e-06
0.000382525
-1.12886e-05
0.000382757
-1.42828e-05
0.000383278
-2.10656e-05
0.000386003
-2.0387e-05
0.000387853
-3.75906e-05
0.000400219
-7.71225e-06
-0.000384244
0.000407811
0.000407554
-2.13317e-05
0.000402121
-1.4895e-05
0.000397634
-1.06466e-05
0.000393943
-7.94584e-06
0.000391244
-6.04709e-06
0.000389192
-5.13775e-06
0.000387403
-5.43932e-06
0.000386159
-7.32192e-06
0.000385315
-1.04452e-05
0.000385198
-1.41651e-05
0.000385215
-2.10826e-05
0.00038739
-2.25524e-05
0.000388253
-3.84638e-05
0.000400399
-1.98582e-05
-0.000374657
0.000390812
0.000408962
-1.43008e-05
0.000403548
-9.48097e-06
0.000399076
-6.17422e-06
0.000395524
-4.39349e-06
0.000392996
-3.51945e-06
0.000391153
-3.29454e-06
0.00038969
-3.97596e-06
0.000388478
-6.11016e-06
0.000387615
-9.58183e-06
0.000387321
-1.38711e-05
0.000386981
-2.07377e-05
0.000388698
-2.42625e-05
0.000388622
-3.83958e-05
0.000400562
-3.18019e-05
-0.000342919
0.000368824
0.00040786
-7.75369e-06
0.000402943
-4.56376e-06
0.000398872
-2.1032e-06
0.000395762
-1.28356e-06
0.000393678
-1.43506e-06
0.00039227
-1.88678e-06
0.00039134
-3.04618e-06
0.000390437
-5.2067e-06
0.000389684
-8.82832e-06
0.000389354
-1.35408e-05
0.000388779
-2.01652e-05
0.00039008
-2.5552e-05
0.000389363
-3.76905e-05
0.000399816
-4.22518e-05
-0.000282594
0.00033949
0.000403129
-2.36176e-06
0.000399333
-7.6842e-07
0.00039643
7.99845e-07
0.000394228
9.18904e-07
0.000392783
1.01551e-08
0.000392028
-1.132e-06
0.000391713
-2.73132e-06
0.000391467
-4.96012e-06
0.000391131
-8.49244e-06
0.000391015
-1.34242e-05
0.000390289
-1.94402e-05
0.000390956
-2.62031e-05
0.000388485
-3.5235e-05
0.000395684
-4.94506e-05
-0.00018801
0.0003011
0.000393133
9.1323e-07
0.000390545
1.81937e-06
0.000389327
2.01826e-06
0.000388962
1.28398e-06
0.000388896
7.60201e-08
0.000389053
-1.28839e-06
0.000389395
-3.07409e-06
0.00038951
-5.07479e-06
0.000388452
-7.43457e-06
0.000386551
-1.15221e-05
0.000382805
-1.56945e-05
0.000378527
-2.19097e-05
0.000368417
-2.5141e-05
0.000363431
-4.44646e-05
-6.9241e-05
0.000244662
0.000339644
0.000341463
0.000343481
0.000344765
0.000344841
0.000343553
0.000340479
0.000335404
0.000327969
0.000316447
0.000300753
0.000278843
0.000253702
0.000209238
0.000139997
0.313394
-0.000659654
-0.313773
0.313025
-0.000662583
0.312666
-0.000665082
0.312316
-0.000667523
0.311976
-0.000670007
0.311644
-0.000672491
0.311322
-0.000674964
0.311008
-0.00067743
0.310703
-0.000679893
0.310406
-0.000682354
0.310116
-0.000684813
0.309834
-0.00068727
0.30956
-0.000689725
0.309292
-0.000692176
0.309032
-0.000694625
0.308778
-0.000697075
0.308531
-0.000699531
0.30829
-0.000702003
0.308056
-0.000704489
0.307827
-0.000706977
0.307604
-0.000709465
0.307387
-0.000711952
0.307175
-0.000714437
0.306969
-0.000716923
0.306768
-0.000719408
0.306571
-0.000721894
0.30638
-0.000724379
0.306194
-0.000726864
0.306011
-0.00072935
0.305834
-0.000731835
0.305661
-0.000734322
0.305491
-0.000736808
0.305326
-0.000739295
0.305165
-0.000741782
0.305008
-0.000744269
0.304854
-0.000746757
0.304704
-0.000749245
0.304558
-0.000751733
0.304415
-0.000754222
0.304275
-0.000756711
0.304138
-0.0007592
0.304005
-0.000761688
0.303874
-0.000764177
0.303747
-0.000766665
0.303622
-0.000769153
0.3035
-0.00077164
0.303381
-0.000774126
0.303264
-0.000776612
0.30315
-0.000779096
0.303038
-0.000781578
0.302929
-0.000784058
0.302822
-0.000786536
0.302717
-0.000789012
0.302615
-0.000791488
0.302514
-0.000794014
0.302416
-0.000796551
0.302319
-0.000799091
0.302225
-0.000801631
0.302133
-0.000804172
0.302042
-0.000806714
0.301954
-0.000809256
0.301867
-0.000811799
0.301782
-0.000814342
0.301698
-0.000816886
0.301617
-0.000819429
0.301537
-0.000821973
0.301458
-0.000824517
0.301381
-0.000827061
0.301305
-0.000829604
0.301231
-0.000832148
0.301159
-0.000834692
0.301087
-0.000837235
0.301017
-0.000839778
0.300948
-0.000842321
0.300881
-0.000844863
0.300815
-0.000847404
0.30075
-0.000849945
0.300686
-0.000852485
0.300623
-0.000855025
0.300562
-0.000857563
0.300501
-0.0008601
0.300442
-0.000862637
0.300384
-0.000865172
0.300326
-0.000867706
0.30027
-0.000870239
0.300214
-0.00087277
0.30016
-0.0008753
0.300106
-0.000877828
0.300054
-0.000880355
0.300002
-0.00088288
0.299951
-0.000885403
0.299901
-0.000887924
0.299852
-0.000890444
0.299803
-0.000892961
0.299756
-0.000895476
0.299709
-0.000897989
0.299662
-0.0009005
0.299617
-0.000903009
0.299572
-0.000905515
0.299528
-0.000908018
0.299485
-0.000910519
0.299442
-0.000913017
0.2994
-0.000915513
0.299358
-0.000918005
0.299317
-0.000920495
0.299277
-0.000922987
0.299237
-0.00092548
0.299198
-0.000927972
0.29916
-0.00093046
0.299122
-0.000932944
0.299084
-0.000935425
0.299048
-0.000937901
0.299011
-0.000940373
0.298976
-0.00094284
0.29894
-0.000945304
0.298905
-0.000947763
0.298871
-0.000950217
0.298837
-0.000952668
0.298804
-0.000955113
0.298771
-0.000957555
0.298738
-0.000959991
0.298706
-0.000962423
0.298675
-0.000964851
0.298644
-0.000967273
0.298613
-0.000969691
0.298582
-0.000972104
0.298552
-0.000974512
0.298523
-0.000976914
0.298493
-0.000979306
-0.000981648
0.298465
0.274152
-0.000531584
-0.27428
0.274029
-0.000539443
0.273911
-0.000546791
0.273797
-0.000553869
0.273688
-0.000560766
0.273583
-0.000567505
0.273482
-0.000574095
0.273385
-0.00058054
0.273292
-0.000586844
0.273203
-0.000593015
0.273117
-0.000599068
0.273035
-0.000605006
0.272956
-0.000610804
0.27288
-0.000616468
0.272808
-0.000622023
0.272738
-0.000627459
0.272671
-0.000632783
0.272607
-0.000638037
0.272546
-0.000643221
0.272487
-0.000648307
0.272431
-0.0006533
0.272377
-0.000658204
0.272326
-0.000663023
0.272277
-0.000667758
0.27223
-0.000672414
0.272185
-0.000676992
0.272142
-0.000681494
0.272101
-0.000685925
0.272062
-0.000690286
0.272025
-0.00069458
0.271989
-0.000698809
0.271955
-0.000702976
0.271923
-0.000707082
0.271893
-0.00071113
0.271863
-0.000715122
0.271836
-0.000719059
0.271809
-0.000722943
0.271784
-0.000726777
0.271761
-0.000730561
0.271738
-0.000734297
0.271717
-0.000737987
0.271697
-0.000741631
0.271678
-0.000745232
0.27166
-0.00074879
0.271643
-0.000752307
0.271628
-0.000755783
0.271613
-0.000759219
0.271599
-0.000762617
0.271586
-0.000765976
0.271573
-0.000769297
0.271562
-0.000772582
0.271551
-0.000775829
0.271541
-0.000779042
0.271532
-0.000782261
0.271523
-0.000785504
0.271516
-0.000788731
0.271508
-0.000791936
0.271502
-0.000795116
0.271496
-0.000798273
0.271491
-0.000801407
0.271486
-0.000804519
0.271482
-0.000807609
0.271478
-0.000810679
0.271475
-0.00081373
0.271472
-0.00081676
0.27147
-0.000819773
0.271468
-0.000822767
0.271467
-0.000825743
0.271466
-0.000828703
0.271466
-0.000831646
0.271465
-0.000834573
0.271466
-0.000837485
0.271466
-0.000840382
0.271467
-0.000843265
0.271469
-0.000846133
0.27147
-0.000848988
0.271472
-0.000851829
0.271474
-0.000854657
0.271477
-0.000857473
0.271479
-0.000860276
0.271482
-0.000863067
0.271486
-0.000865847
0.271489
-0.000868615
0.271493
-0.000871373
0.271497
-0.000874119
0.271501
-0.000876855
0.271505
-0.000879581
0.271509
-0.000882296
0.271514
-0.000885002
0.271519
-0.000887698
0.271524
-0.000890384
0.271529
-0.000893061
0.271534
-0.000895729
0.27154
-0.000898388
0.271545
-0.000901038
0.271551
-0.000903679
0.271557
-0.000906312
0.271563
-0.000908936
0.271569
-0.000911553
0.271575
-0.00091416
0.271581
-0.00091676
0.271587
-0.000919352
0.271594
-0.000921936
0.2716
-0.000924513
0.271607
-0.000927081
0.271614
-0.000929648
0.27162
-0.000932211
0.271627
-0.000934767
0.271634
-0.000937316
0.271641
-0.000939857
0.271648
-0.00094239
0.271655
-0.000944916
0.271662
-0.000947433
0.271669
-0.000949943
0.271676
-0.000952445
0.271683
-0.000954939
0.271691
-0.000957426
0.271698
-0.000959906
0.271705
-0.000962378
0.271712
-0.000964843
0.27172
-0.000967301
0.271727
-0.000969751
0.271734
-0.000972194
0.271742
-0.00097463
0.271749
-0.000977059
0.271756
-0.000979481
0.271764
-0.000981896
0.271771
-0.000984304
0.271779
-0.000986704
-0.000989224
0.271786
0.254107
-0.000626603
-0.254012
0.254198
-0.000630173
0.254284
-0.000633163
0.254367
-0.000636137
0.254445
-0.000639112
0.25452
-0.000642091
0.254591
-0.000645073
0.254658
-0.000648057
0.254722
-0.000651044
0.254783
-0.000654036
0.254841
-0.000657055
0.254896
-0.000660109
0.254949
-0.000663165
0.254999
-0.000666208
0.255046
-0.000669243
0.255091
-0.000672265
0.255133
-0.000675271
0.255173
-0.000678281
0.255211
-0.000681301
0.255247
-0.000684322
0.255281
-0.00068734
0.255314
-0.000690353
0.255344
-0.000693355
0.255372
-0.000696341
0.255399
-0.000699317
0.255425
-0.000702289
0.255448
-0.000705258
0.255471
-0.000708225
0.255492
-0.000711189
0.255511
-0.00071415
0.255529
-0.000717107
0.255547
-0.000720062
0.255563
-0.000723014
0.255577
-0.000725962
0.255591
-0.000728907
0.255604
-0.000731849
0.255616
-0.000734787
0.255627
-0.000737722
0.255637
-0.000740653
0.255646
-0.00074358
0.255655
-0.000746504
0.255662
-0.000749423
0.255669
-0.000752338
0.255676
-0.000755248
0.255682
-0.000758154
0.255687
-0.000761055
0.255692
-0.00076395
0.255696
-0.00076684
0.2557
-0.000769725
0.255703
-0.000772603
0.255706
-0.000775475
0.255708
-0.000778339
0.255711
-0.000781199
0.255712
-0.000784085
0.255714
-0.000786975
0.255715
-0.000789862
0.255716
-0.000792745
0.255716
-0.000795625
0.255717
-0.000798501
0.255717
-0.000801373
0.255716
-0.000804242
0.255716
-0.000807107
0.255715
-0.000809968
0.255714
-0.000812825
0.255713
-0.000815678
0.255712
-0.000818527
0.25571
-0.000821372
0.255709
-0.000824213
0.255707
-0.00082705
0.255706
-0.000829883
0.255704
-0.000832711
0.255702
-0.000835536
0.2557
-0.000838356
0.255698
-0.000841171
0.255695
-0.000843982
0.255693
-0.000846789
0.255691
-0.00084959
0.255689
-0.000852388
0.255686
-0.00085518
0.255684
-0.000857967
0.255682
-0.000860749
0.255679
-0.000863526
0.255677
-0.000866298
0.255675
-0.000869064
0.255673
-0.000871824
0.25567
-0.000874579
0.255668
-0.000877328
0.255666
-0.00088007
0.255664
-0.000882806
0.255661
-0.000885535
0.255659
-0.000888274
0.255657
-0.000891024
0.255655
-0.000893772
0.255653
-0.000896517
0.255652
-0.000899256
0.25565
-0.000901991
0.255648
-0.00090472
0.255647
-0.000907445
0.255646
-0.000910165
0.255644
-0.000912879
0.255643
-0.000915589
0.255642
-0.000918293
0.255641
-0.000920992
0.25564
-0.000923685
0.25564
-0.000926374
0.255639
-0.000929056
0.255638
-0.000931734
0.255638
-0.000934406
0.255638
-0.000937072
0.255638
-0.000939732
0.255638
-0.000942385
0.255638
-0.000945031
0.255638
-0.000947671
0.255638
-0.000950305
0.255639
-0.000952933
0.25564
-0.000955556
0.25564
-0.000958172
0.255641
-0.000960783
0.255642
-0.000963388
0.255643
-0.000965987
0.255645
-0.00096858
0.255646
-0.000971166
0.255648
-0.000973747
0.255649
-0.000976321
0.255651
-0.000978889
0.255653
-0.000981451
0.255655
-0.000984007
0.255657
-0.000986556
0.25566
-0.000989099
-0.000991809
0.255662
0.238876
-0.000579237
-0.238924
0.238828
-0.000582357
0.238781
-0.000585821
0.238734
-0.000589288
0.238688
-0.000592776
0.238642
-0.000596276
0.238597
-0.000599787
0.238552
-0.000603307
0.238508
-0.000606835
0.238464
-0.000610377
0.238421
-0.000613948
0.238379
-0.000617548
0.238337
-0.000621158
0.238295
-0.000624774
0.238254
-0.000628391
0.238214
-0.00063201
0.238174
-0.000635628
0.238135
-0.000639245
0.238097
-0.000642859
0.238059
-0.00064647
0.238022
-0.000650078
0.237985
-0.000653683
0.237949
-0.000657277
0.237914
-0.000660857
0.237879
-0.000664428
0.237844
-0.000667995
0.237811
-0.000671559
0.237778
-0.000675118
0.237745
-0.000678672
0.237713
-0.000682221
0.237682
-0.000685765
0.237651
-0.000689302
0.237621
-0.000692834
0.237591
-0.000696358
0.237562
-0.000699868
0.237534
-0.000703365
0.237506
-0.000706855
0.237478
-0.000710337
0.237452
-0.000713813
0.237425
-0.000717281
0.237399
-0.000720741
0.237374
-0.000724194
0.23735
-0.00072764
0.237325
-0.000731077
0.237302
-0.000734507
0.237279
-0.000737928
0.237256
-0.000741342
0.237234
-0.000744748
0.237212
-0.000748145
0.237191
-0.000751535
0.237171
-0.000754916
0.237151
-0.000758288
0.237131
-0.000761653
0.237112
-0.000765009
0.237093
-0.000768358
0.237075
-0.000771698
0.237058
-0.000775029
0.23704
-0.000778352
0.237023
-0.000781667
0.237007
-0.000784973
0.236991
-0.000788271
0.236976
-0.00079156
0.23696
-0.000794841
0.236946
-0.000798113
0.236931
-0.000801376
0.236917
-0.000804631
0.236904
-0.000807876
0.236891
-0.000811113
0.236878
-0.000814342
0.236866
-0.000817563
0.236854
-0.000820776
0.236842
-0.00082398
0.236831
-0.000827174
0.23682
-0.00083036
0.23681
-0.000833537
0.2368
-0.000836704
0.23679
-0.000839863
0.236781
-0.000843012
0.236772
-0.000846152
0.236763
-0.000849283
0.236755
-0.000852404
0.236747
-0.000855516
0.236739
-0.000858619
0.236732
-0.000861711
0.236725
-0.000864794
0.236718
-0.000867867
0.236712
-0.00087093
0.236705
-0.000873982
0.2367
-0.000877024
0.236694
-0.000880056
0.236689
-0.000883091
0.236684
-0.000886132
0.236679
-0.000889167
0.236675
-0.000892194
0.236671
-0.000895212
0.236667
-0.000898222
0.236664
-0.000901222
0.236661
-0.000904214
0.236658
-0.000907197
0.236655
-0.000910172
0.236652
-0.000913137
0.23665
-0.000916094
0.236648
-0.000919042
0.236647
-0.000921981
0.236645
-0.000924911
0.236644
-0.000927832
0.236643
-0.000930744
0.236642
-0.000933647
0.236642
-0.000936541
0.236641
-0.000939426
0.236641
-0.000942301
0.236641
-0.000945165
0.236642
-0.00094802
0.236642
-0.000950865
0.236643
-0.000953702
0.236644
-0.000956529
0.236645
-0.000959348
0.236647
-0.000962157
0.236648
-0.000964957
0.23665
-0.000967749
0.236652
-0.000970531
0.236654
-0.000973305
0.236656
-0.000976069
0.236659
-0.000978824
0.236662
-0.00098157
0.236664
-0.000984307
0.236667
-0.000987035
0.236671
-0.000989753
0.236674
-0.00099246
-0.00099516
0.236677
0.219602
-0.000596623
-0.219585
0.21962
-0.000600665
0.219638
-0.000604021
0.219656
-0.000607314
0.219674
-0.000610594
0.219692
-0.000613874
0.219709
-0.000617157
0.219726
-0.000620441
0.219743
-0.000623728
0.21976
-0.000627024
0.219776
-0.000630339
0.219792
-0.000633668
0.219808
-0.000636999
0.219824
-0.000640331
0.219839
-0.000643663
0.219854
-0.000646995
0.219869
-0.000650328
0.219883
-0.000653661
0.219897
-0.000656995
0.219911
-0.000660328
0.219925
-0.000663662
0.219938
-0.000666995
0.219951
-0.000670329
0.219964
-0.000673663
0.219976
-0.000676996
0.219989
-0.00068033
0.220001
-0.000683663
0.220013
-0.000686997
0.220024
-0.000690329
0.220036
-0.000693661
0.220047
-0.000696992
0.220058
-0.000700322
0.220069
-0.000703651
0.22008
-0.000706973
0.22009
-0.000710281
0.2201
-0.000713579
0.22011
-0.000716875
0.22012
-0.000720168
0.22013
-0.00072346
0.220139
-0.000726751
0.220148
-0.00073004
0.220158
-0.000733327
0.220167
-0.000736612
0.220175
-0.000739895
0.220184
-0.000743176
0.220193
-0.000746455
0.220201
-0.000749732
0.220209
-0.000753006
0.220217
-0.000756277
0.220225
-0.000759546
0.220233
-0.000762812
0.220241
-0.000766075
0.220249
-0.000769335
0.220256
-0.000772592
0.220264
-0.000775846
0.220271
-0.000779096
0.220279
-0.000782342
0.220286
-0.000785584
0.220293
-0.000788822
0.2203
-0.000792056
0.220307
-0.000795286
0.220314
-0.000798511
0.220321
-0.00080173
0.220328
-0.000804944
0.220334
-0.000808152
0.220341
-0.000811354
0.220348
-0.00081455
0.220354
-0.00081774
0.220361
-0.000820957
0.220368
-0.000824176
0.220374
-0.000827393
0.220381
-0.000830606
0.220388
-0.000833815
0.220394
-0.00083702
0.220401
-0.000840221
0.220408
-0.000843417
0.220414
-0.000846609
0.220421
-0.000849796
0.220428
-0.000852979
0.220435
-0.000856156
0.220442
-0.000859329
0.220449
-0.000862497
0.220456
-0.00086566
0.220463
-0.000868818
0.22047
-0.00087197
0.220477
-0.000875118
0.220485
-0.000878259
0.220492
-0.000881396
0.2205
-0.000884526
0.220507
-0.000887652
0.220515
-0.00089077
0.220523
-0.000893883
0.22053
-0.000896989
0.220538
-0.000900088