/*--------------------------------*- C++ -*----------------------------------*\
  =========                 |
  \\      /  F ield         | OpenFOAM: The Open Source CFD Toolbox
   \\    /   O peration     | Website:  https://openfoam.org
    \\  /    A nd           | Version:  9
     \\/     M anipulation  |
\*---------------------------------------------------------------------------*/
FoamFile
{
    format      ascii;
    class       surfaceScalarField;
    location    "0.0025";
    object      phi;
}
// * * * * * * * * * * * * * * * * * * * * * * * * * * * * * * * * * * * * * //

dimensions      [1 0 -1 0 0 0 0];

internalField   nonuniform List<scalar> 
14152
(
-9.23503e-05
-0.262425
-7.43042e-05
-0.27838
-0.29128
-0.291273
3.09276e-05
-0.291267
3.10287e-05
-0.29126
3.1133e-05
-0.291254
3.124e-05
-0.291247
3.13496e-05
-0.291241
3.14599e-05
-0.291235
3.15725e-05
-0.291229
3.16861e-05
-0.291223
3.17999e-05
-0.291217
3.19144e-05
-0.291211
3.20296e-05
-0.291205
3.21446e-05
-0.2912
3.22601e-05
-0.291194
3.23751e-05
-0.291189
3.24905e-05
-0.291183
3.26052e-05
-0.291178
3.27201e-05
-0.291173
3.28347e-05
-0.291168
3.29489e-05
-0.291163
3.30623e-05
-0.291158
3.31758e-05
-0.291153
3.32883e-05
-0.291148
3.34013e-05
-0.291143
3.35129e-05
-0.291139
3.3625e-05
-0.291134
3.37355e-05
-0.29113
3.38461e-05
-0.291125
3.39562e-05
-0.291121
3.40657e-05
-0.291117
3.41748e-05
-0.291113
3.42832e-05
-0.291109
3.43912e-05
-0.291105
3.44986e-05
-0.291101
3.46055e-05
-0.291098
3.47119e-05
-0.291094
3.48181e-05
-0.29109
3.4923e-05
-0.291087
3.50282e-05
-0.291084
3.51324e-05
-0.29108
3.52361e-05
-0.291077
3.53398e-05
-0.291074
3.54424e-05
-0.291071
3.5544e-05
-0.291068
3.56466e-05
-0.291065
3.57472e-05
-0.291062
3.58482e-05
-0.29106
3.59487e-05
-0.291057
3.60478e-05
-0.291055
3.61473e-05
-0.291052
3.62462e-05
-0.29105
3.63443e-05
-0.291048
3.64418e-05
-0.291046
3.65392e-05
-0.291043
3.66358e-05
-0.291042
3.67323e-05
-0.29104
3.68278e-05
-0.291038
3.69233e-05
-0.291036
3.70178e-05
-0.291035
3.71124e-05
-0.291033
3.72065e-05
-0.291032
3.72996e-05
-0.29103
3.73922e-05
-0.291029
3.74854e-05
-0.291028
3.75766e-05
-0.291027
3.76688e-05
-0.291026
3.77596e-05
-0.291025
3.78504e-05
-0.291024
3.79403e-05
-0.291023
3.80302e-05
-0.291023
3.81196e-05
-0.291022
3.82087e-05
-0.291022
3.82968e-05
-0.291021
3.83849e-05
-0.291021
3.84722e-05
-0.291021
3.856e-05
-0.291021
3.86464e-05
-0.291021
3.87323e-05
-0.291021
3.88189e-05
-0.291021
3.8904e-05
-0.291021
3.89892e-05
-0.291021
3.9074e-05
-0.291022
3.91584e-05
-0.291022
3.9242e-05
-0.291023
3.93256e-05
-0.291024
3.94088e-05
-0.291024
3.94917e-05
-0.291025
3.95737e-05
-0.291026
3.96562e-05
-0.291027
3.97375e-05
3.98187e-05
-0.291028
-0.278375
2.58575e-05
-0.27837
2.60425e-05
-0.278365
2.62298e-05
-0.27836
2.64199e-05
-0.278356
2.6613e-05
-0.278351
2.6807e-05
-0.278346
2.70027e-05
-0.278342
2.71994e-05
-0.278338
2.73968e-05
-0.278333
2.75949e-05
-0.278329
2.77936e-05
-0.278325
2.79916e-05
-0.278321
2.81907e-05
-0.278317
2.83892e-05
-0.278313
2.8588e-05
-0.278309
2.87862e-05
-0.278305
2.89842e-05
-0.278302
2.91823e-05
-0.278298
2.938e-05
-0.278295
2.95769e-05
-0.278291
2.9774e-05
-0.278288
2.99706e-05
-0.278285
3.01662e-05
-0.278282
3.03624e-05
-0.278278
3.05572e-05
-0.278275
3.07524e-05
-0.278273
3.09463e-05
-0.27827
3.114e-05
-0.278267
3.13339e-05
-0.278264
3.15267e-05
-0.278262
3.1719e-05
-0.278259
3.19108e-05
-0.278257
3.21027e-05
-0.278255
3.22935e-05
-0.278252
3.24843e-05
-0.27825
3.26737e-05
-0.278248
3.2864e-05
-0.278246
3.30529e-05
-0.278244
3.32412e-05
-0.278243
3.34296e-05
-0.278241
3.36174e-05
-0.278239
3.38047e-05
-0.278238
3.39911e-05
-0.278236
3.41774e-05
-0.278235
3.43633e-05
-0.278233
3.45487e-05
-0.278232
3.47331e-05
-0.278231
3.4918e-05
-0.27823
3.51015e-05
-0.278229
3.52853e-05
-0.278228
3.54679e-05
-0.278227
3.56508e-05
-0.278227
3.58324e-05
-0.278226
3.60143e-05
-0.278226
3.61954e-05
-0.278225
3.6376e-05
-0.278225
3.65561e-05
-0.278224
3.67363e-05
-0.278224
3.69154e-05
-0.278224
3.70942e-05
-0.278224
3.72725e-05
-0.278224
3.74508e-05
-0.278224
3.76282e-05
-0.278225
3.78051e-05
-0.278225
3.7982e-05
-0.278225
3.81581e-05
-0.278226
3.83341e-05
-0.278226
3.85093e-05
-0.278227
3.86844e-05
-0.278228
3.88587e-05
-0.278229
3.9033e-05
-0.278229
3.92069e-05
-0.27823
3.93799e-05
-0.278232
3.95524e-05
-0.278233
3.97251e-05
-0.278234
3.98972e-05
-0.278235
4.00686e-05
-0.278237
4.02399e-05
-0.278238
4.04109e-05
-0.27824
4.0581e-05
-0.278241
4.07511e-05
-0.278243
4.09209e-05
-0.278245
4.10897e-05
-0.278247
4.12587e-05
-0.278249
4.14273e-05
-0.278251
4.1595e-05
-0.278253
4.17633e-05
-0.278256
4.19298e-05
-0.278258
4.20972e-05
4.22641e-05
-0.27826
-0.26242
2.11267e-05
-0.262416
2.13877e-05
-0.262411
2.16522e-05
-0.262407
2.19199e-05
-0.262402
2.21889e-05
-0.262398
2.24597e-05
-0.262393
2.27311e-05
-0.262389
2.30032e-05
-0.262385
2.32763e-05
-0.262381
2.35497e-05
-0.262377
2.38232e-05
-0.262373
2.40964e-05
-0.262369
2.43704e-05
-0.262366
2.46434e-05
-0.262362
2.49171e-05
-0.262358
2.519e-05
-0.262355
2.54626e-05
-0.262351
2.57354e-05
-0.262348
2.60078e-05
-0.262345
2.62788e-05
-0.262342
2.65508e-05
-0.262338
2.68214e-05
-0.262335
2.70921e-05
-0.262332
2.73622e-05
-0.262329
2.76319e-05
-0.262327
2.79012e-05
-0.262324
2.81699e-05
-0.262321
2.84381e-05
-0.262318
2.87064e-05
-0.262316
2.89736e-05
-0.262313
2.92404e-05
-0.262311
2.95071e-05
-0.262309
2.97729e-05
-0.262306
3.00386e-05
-0.262304
3.03034e-05
-0.262302
3.05682e-05
-0.2623
3.08324e-05
-0.262298
3.10962e-05
-0.262296
3.13594e-05
-0.262294
3.16217e-05
-0.262293
3.18845e-05
-0.262291
3.21463e-05
-0.26229
3.24075e-05
-0.262288
3.26684e-05
-0.262287
3.29287e-05
-0.262285
3.3189e-05
-0.262284
3.34484e-05
-0.262283
3.37072e-05
-0.262282
3.39661e-05
-0.262281
3.4224e-05
-0.26228
3.44819e-05
-0.262279
3.47393e-05
-0.262278
3.49959e-05
-0.262277
3.52524e-05
-0.262276
3.55079e-05
-0.262276
3.57635e-05
-0.262275
3.60191e-05
-0.262275
3.62732e-05
-0.262274
3.6527e-05
-0.262274
3.67811e-05
-0.262274
3.70344e-05
-0.262274
3.72872e-05
-0.262274
3.75396e-05
-0.262274
3.77915e-05
-0.262274
3.8043e-05
-0.262274
3.82941e-05
-0.262274
3.85447e-05
-0.262274
3.87953e-05
-0.262275
3.90446e-05
-0.262275
3.92944e-05
-0.262276
3.95437e-05
-0.262276
3.97917e-05
-0.262277
4.00402e-05
-0.262277
4.02877e-05
-0.262278
4.05354e-05
-0.262279
4.07822e-05
-0.26228
4.1029e-05
-0.262281
4.1275e-05
-0.262282
4.15205e-05
-0.262283
4.17661e-05
-0.262285
4.20109e-05
-0.262286
4.22557e-05
-0.262287
4.25001e-05
-0.262289
4.27436e-05
-0.262291
4.29868e-05
-0.262292
4.32301e-05
-0.262294
4.3473e-05
-0.262296
4.3715e-05
-0.262298
4.39571e-05
4.41982e-05
-0.262299
-0.24727
1.65398e-05
-0.247266
1.68733e-05
-0.247261
1.72101e-05
-0.247257
1.75496e-05
-0.247253
1.789e-05
-0.247248
1.82317e-05
-0.247244
1.85743e-05
-0.24724
1.89168e-05
-0.247236
1.92605e-05
-0.247232
1.96035e-05
-0.247228
1.99473e-05
-0.247225
2.02907e-05
-0.247221
2.06338e-05
-0.247217
2.09772e-05
-0.247214
2.13203e-05
-0.24721
2.16627e-05
-0.247207
2.2005e-05
-0.247203
2.23471e-05
-0.2472
2.26887e-05
-0.247197
2.30299e-05
-0.247193
2.33711e-05
-0.24719
2.37114e-05
-0.247187
2.40512e-05
-0.247184
2.4391e-05
-0.247181
2.47303e-05
-0.247179
2.50687e-05
-0.247176
2.54071e-05
-0.247173
2.57455e-05
-0.24717
2.60824e-05
-0.247168
2.64193e-05
-0.247165
2.67561e-05
-0.247163
2.70916e-05
-0.247161
2.7428e-05
-0.247158
2.77624e-05
-0.247156
2.80978e-05
-0.247154
2.84318e-05
-0.247152
2.87653e-05
-0.24715
2.90992e-05
-0.247148
2.94317e-05
-0.247146
2.97642e-05
-0.247144
3.00967e-05
-0.247143
3.04278e-05
-0.247141
3.07593e-05
-0.247139
3.10894e-05
-0.247138
3.14204e-05
-0.247137
3.17496e-05
-0.247135
3.20792e-05
-0.247134
3.24084e-05
-0.247133
3.27366e-05
-0.247131
3.30644e-05
-0.24713
3.33926e-05
-0.247129
3.37195e-05
-0.247128
3.40463e-05
-0.247128
3.43727e-05
-0.247127
3.46986e-05
-0.247126
3.50241e-05
-0.247125
3.53492e-05
-0.247125
3.56737e-05
-0.247124
3.59979e-05
-0.247124
3.63215e-05
-0.247123
3.66453e-05
-0.247123
3.69681e-05
-0.247123
3.72905e-05
-0.247123
3.76129e-05
-0.247122
3.79344e-05
-0.247122
3.82559e-05
-0.247122
3.85767e-05
-0.247123
3.88969e-05
-0.247123
3.92176e-05
-0.247123
3.95366e-05
-0.247123
3.98565e-05
-0.247124
4.0175e-05
-0.247124
4.04937e-05
-0.247125
4.08119e-05
-0.247125
4.11293e-05
-0.247126
4.14471e-05
-0.247127
4.17637e-05
-0.247127
4.20804e-05
-0.247128
4.23966e-05
-0.247129
4.27125e-05
-0.24713
4.30274e-05
-0.247131
4.3343e-05
-0.247133
4.36577e-05
-0.247134
4.39715e-05
-0.247135
4.4286e-05
-0.247136
4.45996e-05
-0.247138
4.49123e-05
-0.247139
4.52256e-05
-0.247141
4.55381e-05
4.58503e-05
-0.247143
-0.232639
1.27328e-05
-0.232635
1.31333e-05
-0.232632
1.35382e-05
-0.232628
1.39445e-05
-0.232624
1.4352e-05
-0.232621
1.47603e-05
-0.232618
1.51695e-05
-0.232614
1.55787e-05
-0.232611
1.59879e-05
-0.232608
1.63982e-05
-0.232605
1.68075e-05
-0.232602
1.7217e-05
-0.232599
1.76263e-05
-0.232596
1.80359e-05
-0.232593
1.84446e-05
-0.23259
1.88535e-05
-0.232587
1.92614e-05
-0.232584
1.96699e-05
-0.232582
2.00771e-05
-0.232579
2.04843e-05
-0.232577
2.08914e-05
-0.232574
2.12977e-05
-0.232572
2.17035e-05
-0.23257
2.21093e-05
-0.232568
2.25146e-05
-0.232565
2.29189e-05
-0.232563
2.33233e-05
-0.232561
2.37276e-05
-0.232559
2.41305e-05
-0.232557
2.45338e-05
-0.232556
2.49362e-05
-0.232554
2.53386e-05
-0.232552
2.57401e-05
-0.232551
2.61415e-05
-0.232549
2.65419e-05
-0.232548
2.69428e-05
-0.232546
2.73423e-05
-0.232545
2.77423e-05
-0.232543
2.81413e-05
-0.232542
2.85399e-05
-0.232541
2.89379e-05
-0.23254
2.9336e-05
-0.232539
2.97331e-05
-0.232538
3.01303e-05
-0.232537
3.05269e-05
-0.232536
3.09227e-05
-0.232536
3.13184e-05
-0.232535
3.17141e-05
-0.232534
3.21085e-05
-0.232534
3.25028e-05
-0.232533
3.28972e-05
-0.232533
3.32902e-05
-0.232532
3.36841e-05
-0.232532
3.40762e-05
-0.232532
3.44689e-05
-0.232532
3.48605e-05
-0.232532
3.52522e-05
-0.232532
3.56434e-05
-0.232532
3.60338e-05
-0.232532
3.64247e-05
-0.232532
3.68142e-05
-0.232532
3.72032e-05
-0.232532
3.75928e-05
-0.232533
3.79815e-05
-0.232533
3.83697e-05
-0.232534
3.87576e-05
-0.232534
3.9145e-05
-0.232535
3.9532e-05
-0.232536
3.99191e-05
-0.232536
4.03053e-05
-0.232537
4.0691e-05
-0.232538
4.10764e-05
-0.232539
4.14619e-05
-0.23254
4.1847e-05
-0.232541
4.22307e-05
-0.232542
4.26154e-05
-0.232544
4.29988e-05
-0.232545
4.33819e-05
-0.232546
4.3765e-05
-0.232548
4.41477e-05
-0.232549
4.45296e-05
-0.232551
4.49116e-05
-0.232552
4.52932e-05
-0.232554
4.5674e-05
-0.232556
4.60554e-05
-0.232558
4.64354e-05
-0.23256
4.68151e-05
-0.232562
4.71954e-05
-0.232564
4.75744e-05
4.79533e-05
-0.232566
-0.219053
-0.219049
9.58364e-06
-0.219046
1.00527e-05
-0.219042
1.05233e-05
-0.219039
1.09944e-05
-0.219036
1.14668e-05
-0.219033
1.19384e-05
-0.219029
1.2411e-05
-0.219026
1.28825e-05
-0.219023
1.33549e-05
-0.21902
1.3827e-05
-0.219017
1.42983e-05
-0.219015
1.47703e-05
-0.219012
1.52409e-05
-0.219009
1.57121e-05
-0.219006
1.61824e-05
-0.219004
1.66523e-05
-0.219001
1.71222e-05
-0.218999
1.75917e-05
-0.218996
1.80606e-05
-0.218994
1.85292e-05
-0.218992
1.89976e-05
-0.218989
1.94652e-05
-0.218987
1.99323e-05
-0.218985
2.03994e-05
-0.218983
2.0866e-05
-0.218981
2.13322e-05
-0.218979
2.17973e-05
-0.218977
2.2263e-05
-0.218975
2.27281e-05
-0.218974
2.31924e-05
-0.218972
2.36561e-05
-0.21897
2.41198e-05
-0.218969
2.45831e-05
-0.218967
2.50459e-05
-0.218966
2.55082e-05
-0.218965
2.59701e-05
-0.218963
2.64314e-05
-0.218962
2.68928e-05
-0.218961
2.73533e-05
-0.21896
2.78137e-05
-0.218959
2.82737e-05
-0.218958
2.87328e-05
-0.218957
2.91919e-05
-0.218956
2.9651e-05
-0.218955
3.01087e-05
-0.218954
3.05669e-05
-0.218954
3.10242e-05
-0.218953
3.1481e-05
-0.218952
3.19379e-05
-0.218952
3.23939e-05
-0.218951
3.28499e-05
-0.218951
3.33054e-05
-0.218951
3.37601e-05
-0.21895
3.42147e-05
-0.21895
3.46695e-05
-0.21895
3.51229e-05
-0.21895
3.55767e-05
-0.21895
3.60292e-05
-0.21895
3.64823e-05
-0.21895
3.69349e-05
-0.21895
3.73862e-05
-0.218951
3.7838e-05
-0.218951
3.82893e-05
-0.218951
3.87398e-05
-0.218952
3.91904e-05
-0.218952
3.96405e-05
-0.218953
4.00899e-05
-0.218953
4.05392e-05
-0.218954
4.09882e-05
-0.218955
4.14368e-05
-0.218956
4.1885e-05
-0.218957
4.23328e-05
-0.218957
4.27798e-05
-0.218958
4.32273e-05
-0.21896
4.3674e-05
-0.218961
4.41208e-05
-0.218962
4.45662e-05
-0.218963
4.50123e-05
-0.218964
4.5457e-05
-0.218966
4.59023e-05
-0.218967
4.63472e-05
-0.218969
4.67914e-05
-0.21897
4.72351e-05
-0.218972
4.76786e-05
-0.218974
4.81221e-05
-0.218975
4.85653e-05
-0.218977
4.90072e-05
-0.218979
4.94502e-05
4.98916e-05
-0.218981
-0.206199
6.72879e-06
-0.206196
7.2573e-06
-0.206193
7.78884e-06
-0.206191
8.32045e-06
-0.206188
8.85189e-06
-0.206185
9.3827e-06
-0.206183
9.91421e-06
-0.206181
1.04454e-05
-0.206178
1.09757e-05
-0.206176
1.15062e-05
-0.206174
1.20357e-05
-0.206171
1.25658e-05
-0.206169
1.30955e-05
-0.206167
1.36242e-05
-0.206165
1.41529e-05
-0.206163
1.46807e-05
-0.206161
1.52089e-05
-0.206159
1.57363e-05
-0.206158
1.62631e-05
-0.206156
1.67899e-05
-0.206154
1.73163e-05
-0.206153
1.78417e-05
-0.206151
1.83675e-05
-0.206149
1.88919e-05
-0.206148
1.94168e-05
-0.206147
1.99413e-05
-0.206145
2.04647e-05
-0.206144
2.09883e-05
-0.206143
2.15113e-05
-0.206142
2.20338e-05
-0.206141
2.25559e-05
-0.206139
2.3078e-05
-0.206139
2.35991e-05
-0.206138
2.41198e-05
-0.206137
2.4641e-05
-0.206136
2.51608e-05
-0.206135
2.56805e-05
-0.206134
2.62003e-05
-0.206134
2.67192e-05
-0.206133
2.72377e-05
-0.206133
2.77556e-05
-0.206132
2.82737e-05
-0.206132
2.87912e-05
-0.206132
2.93084e-05
-0.206131
2.98246e-05
-0.206131
3.03413e-05
-0.206131
3.08571e-05
-0.206131
3.13725e-05
-0.206131
3.18879e-05
-0.206131
3.2402e-05
-0.206131
3.2917e-05
-0.206131
3.34307e-05
-0.206131
3.39445e-05
-0.206131
3.44573e-05
-0.206132
3.49707e-05
-0.206132
3.54832e-05
-0.206132
3.59949e-05
-0.206133
3.6507e-05
-0.206133
3.70183e-05
-0.206134
3.75296e-05
-0.206135
3.80396e-05
-0.206135
3.85506e-05
-0.206136
3.90599e-05
-0.206137
3.95701e-05
-0.206138
4.0079e-05
-0.206139
4.0588e-05
-0.20614
4.10961e-05
-0.206141
4.16048e-05
-0.206142
4.21122e-05
-0.206143
4.26197e-05
-0.206144
4.31272e-05
-0.206146
4.36335e-05
-0.206147
4.41403e-05
-0.206149
4.46463e-05
-0.20615
4.5152e-05
-0.206152
4.56572e-05
-0.206153
4.61622e-05
-0.206155
4.66672e-05
-0.206157
4.71714e-05
-0.206158
4.76758e-05
-0.20616
4.81793e-05
-0.206162
4.8683e-05
-0.206164
4.91858e-05
-0.206166
4.96884e-05
-0.206168
5.0191e-05
-0.20617
5.06934e-05
-0.206172
5.11949e-05
-0.206175
5.16966e-05
5.21973e-05
-0.206177
-0.194084
4.04889e-06
-0.194082
4.63395e-06
-0.194079
5.22029e-06
-0.194077
5.80692e-06
-0.194074
6.39331e-06
-0.194072
6.97934e-06
-0.19407
7.56555e-06
-0.194067
8.15132e-06
-0.194065
8.73623e-06
-0.194063
9.32165e-06
-0.194061
9.90617e-06
-0.194059
1.04907e-05
-0.194057
1.10742e-05
-0.194055
1.16583e-05
-0.194053
1.2241e-05
-0.194051
1.28241e-05
-0.194049
1.34067e-05
-0.194047
1.39885e-05
-0.194046
1.45702e-05
-0.194044
1.51514e-05
-0.194042
1.57326e-05
-0.194041
1.63124e-05
-0.194039
1.68932e-05
-0.194038
1.74726e-05
-0.194037
1.80519e-05
-0.194035
1.86312e-05
-0.194034
1.92092e-05
-0.194033
1.97876e-05
-0.194032
2.03656e-05
-0.194031
2.09431e-05
-0.19403
2.15197e-05
-0.194029
2.20963e-05
-0.194028
2.26729e-05
-0.194027
2.32486e-05
-0.194026
2.38243e-05
-0.194025
2.43991e-05
-0.194025
2.4974e-05
-0.194024
2.55484e-05
-0.194023
2.61223e-05
-0.194023
2.66958e-05
-0.194022
2.7269e-05
-0.194022
2.7842e-05
-0.194021
2.84148e-05
-0.194021
2.89866e-05
-0.194021
2.95584e-05
-0.194021
3.01298e-05
-0.19402
3.07009e-05
-0.19402
3.1272e-05
-0.19402
3.18416e-05
-0.19402
3.24119e-05
-0.19402
3.29817e-05
-0.194021
3.35507e-05
-0.194021
3.41192e-05
-0.194021
3.46883e-05
-0.194021
3.52565e-05
-0.194022
3.58239e-05
-0.194022
3.63918e-05
-0.194022
3.69588e-05
-0.194023
3.75254e-05
-0.194023
3.80917e-05
-0.194024
3.86581e-05
-0.194025
3.92236e-05
-0.194026
3.97892e-05
-0.194026
4.03544e-05
-0.194027
4.09193e-05
-0.194028
4.14833e-05
-0.194029
4.20474e-05
-0.19403
4.26111e-05
-0.194031
4.31745e-05
-0.194032
4.3738e-05
-0.194033
4.43002e-05
-0.194035
4.4863e-05
-0.194036
4.54245e-05
-0.194037
4.59866e-05
-0.194039
4.65483e-05
-0.19404
4.71093e-05
-0.194042
4.76698e-05
-0.194043
4.82306e-05
-0.194045
4.87905e-05
-0.194046
4.93506e-05
-0.194048
4.99103e-05
-0.19405
5.04693e-05
-0.194052
5.10279e-05
-0.194054
5.15871e-05
-0.194056
5.21451e-05
-0.194058
5.27033e-05
-0.19406
5.32611e-05
-0.194062
5.38181e-05
5.43753e-05
-0.194064
-0.182669
1.96403e-06
-0.182667
2.60019e-06
-0.182665
3.23969e-06
-0.182663
3.87791e-06
-0.182661
4.51614e-06
-0.182659
5.15393e-06
-0.182657
5.79179e-06
-0.182656
6.42871e-06
-0.182654
7.06567e-06
-0.182652
7.70207e-06
-0.182651
8.33855e-06
-0.182649
8.97404e-06
-0.182648
9.60956e-06
-0.182646
1.02446e-05
-0.182645
1.08791e-05
-0.182644
1.15132e-05
-0.182642
1.21473e-05
-0.182641
1.27809e-05
-0.18264
1.34141e-05
-0.182639
1.40467e-05
-0.182638
1.4679e-05
-0.182637
1.53111e-05
-0.182636
1.59429e-05
-0.182635
1.65742e-05
-0.182634
1.7205e-05
-0.182633
1.78354e-05
-0.182633
1.84658e-05
-0.182632
1.90952e-05
-0.182631
1.97248e-05
-0.182631
2.03543e-05
-0.18263
2.09824e-05
-0.18263
2.1611e-05
-0.182629
2.22387e-05
-0.182629
2.28665e-05
-0.182629
2.34938e-05
-0.182628
2.41207e-05
-0.182628
2.47471e-05
-0.182628
2.53732e-05
-0.182628
2.59993e-05
-0.182628
2.66244e-05
-0.182628
2.72501e-05
-0.182628
2.78745e-05
-0.182628
2.84989e-05
-0.182628
2.91229e-05
-0.182628
2.97464e-05
-0.182628
3.03701e-05
-0.182629
3.09933e-05
-0.182629
3.16156e-05
-0.182629
3.22381e-05
-0.18263
3.28597e-05
-0.18263
3.34818e-05
-0.182631
3.4103e-05
-0.182632
3.47239e-05
-0.182632
3.53448e-05
-0.182633
3.59649e-05
-0.182634
3.65846e-05
-0.182635
3.72049e-05
-0.182635
3.78239e-05
-0.182636
3.84429e-05
-0.182637
3.90616e-05
-0.182638
3.96794e-05
-0.182639
4.02978e-05
-0.18264
4.0916e-05
-0.182642
4.15327e-05
-0.182643
4.215e-05
-0.182644
4.2767e-05
-0.182646
4.33827e-05
-0.182647
4.39995e-05
-0.182648
4.46149e-05
-0.18265
4.52306e-05
-0.182651
4.58458e-05
-0.182653
4.64607e-05
-0.182655
4.70749e-05
-0.182656
4.76896e-05
-0.182658
4.83031e-05
-0.18266
4.89171e-05
-0.182662
4.95304e-05
-0.182664
5.01434e-05
-0.182666
5.0756e-05
-0.182668
5.13683e-05
-0.18267
5.19809e-05
-0.182672
5.25925e-05
-0.182674
5.32044e-05
-0.182676
5.38155e-05
-0.182679
5.44263e-05
-0.182681
5.50373e-05
-0.182683
5.56475e-05
-0.182686
5.62579e-05
5.68671e-05
-0.182688
-0.171939
-0.171937
8.45316e-07
-0.171935
1.53333e-06
-0.171933
2.22119e-06
-0.171932
2.9088e-06
-0.17193
3.59578e-06
-0.171929
4.28209e-06
-0.171927
4.96834e-06
-0.171926
5.65397e-06
-0.171925
6.33911e-06
-0.171923
7.02367e-06
-0.171922
7.70824e-06
-0.171921
8.39231e-06
-0.17192
9.07583e-06
-0.171918
9.75887e-06
-0.171917
1.0442e-05
-0.171916
1.11241e-05
-0.171915
1.18061e-05
-0.171914
1.24883e-05
-0.171914
1.31695e-05
-0.171913
1.38502e-05
-0.171912
1.45309e-05
-0.171911
1.52112e-05
-0.171911
1.58915e-05
-0.17191
1.65709e-05
-0.171909
1.72498e-05
-0.171909
1.79288e-05
-0.171908
1.86072e-05
-0.171908
1.92853e-05
-0.171907
1.99635e-05
-0.171907
2.06406e-05
-0.171907
2.13179e-05
-0.171907
2.19947e-05
-0.171906
2.26711e-05
-0.171906
2.33471e-05
-0.171906
2.40226e-05
-0.171906
2.46982e-05
-0.171906
2.53734e-05
-0.171906
2.60477e-05
-0.171906
2.67225e-05
-0.171906
2.73965e-05
-0.171907
2.807e-05
-0.171907
2.87437e-05
-0.171907
2.94164e-05
-0.171907
3.00892e-05
-0.171908
3.07616e-05
-0.171908
3.14337e-05
-0.171909
3.21058e-05
-0.171909
3.27766e-05
-0.17191
3.3448e-05
-0.171911
3.41189e-05
-0.171911
3.47891e-05
-0.171912
3.54593e-05
-0.171913
3.61291e-05
-0.171914
3.67991e-05
-0.171914
3.74677e-05
-0.171915
3.81369e-05
-0.171916
3.88053e-05
-0.171917
3.94733e-05
-0.171919
4.01414e-05
-0.17192
4.08093e-05
-0.171921
4.14761e-05
-0.171922
4.21438e-05
-0.171923
4.281e-05
-0.171925
4.34764e-05
-0.171926
4.4143e-05
-0.171927
4.48087e-05
-0.171929
4.5474e-05
-0.17193
4.61391e-05
-0.171932
4.68043e-05
-0.171934
4.74687e-05
-0.171935
4.81333e-05
-0.171937
4.87971e-05
-0.171939
4.94614e-05
-0.171941
5.01246e-05
-0.171943
5.07874e-05
-0.171944
5.14508e-05
-0.171946
5.21131e-05
-0.171948
5.27759e-05
-0.17195
5.34375e-05
-0.171953
5.40998e-05
-0.171955
5.47613e-05
-0.171957
5.5422e-05
-0.171959
5.60833e-05
-0.171962
5.6744e-05
-0.171964
5.74043e-05
-0.171966
5.80648e-05
-0.171969
5.87246e-05
5.93839e-05
-0.171971
-0.16186
-4.0868e-07
-0.161859
3.24827e-07
-0.161858
1.05978e-06
-0.161856
1.79423e-06
-0.161855
2.52728e-06
-0.161854
3.26052e-06
-0.161853
3.99212e-06
-0.161852
4.724e-06
-0.161852
5.4548e-06
-0.161851
6.18547e-06
-0.16185
6.91568e-06
-0.161849
7.64577e-06
-0.161849
8.3754e-06
-0.161848
9.104e-06
-0.161847
9.83261e-06
-0.161847
1.05613e-05
-0.161846
1.12894e-05
-0.161846
1.20166e-05
-0.161845
1.27439e-05
-0.161845
1.34711e-05
-0.161845
1.41974e-05
-0.161844
1.49238e-05
-0.161844
1.56492e-05
-0.161844
1.63752e-05
-0.161844
1.71002e-05
-0.161844
1.78252e-05
-0.161844
1.85499e-05
-0.161844
1.92736e-05
-0.161844
1.99979e-05
-0.161844
2.07213e-05
-0.161844
2.14447e-05
-0.161844
2.21672e-05
-0.161844
2.28898e-05
-0.161844
2.36124e-05
-0.161845
2.43337e-05
-0.161845
2.50556e-05
-0.161845
2.5777e-05
-0.161846
2.6498e-05
-0.161846
2.72181e-05
-0.161847
2.79389e-05
-0.161848
2.86587e-05
-0.161848
2.93786e-05
-0.161849
3.00977e-05
-0.16185
3.08164e-05
-0.16185
3.15356e-05
-0.161851
3.2254e-05
-0.161852
3.2972e-05
-0.161853
3.36897e-05
-0.161854
3.44074e-05
-0.161855
3.51248e-05
-0.161856
3.58414e-05
-0.161857
3.6558e-05
-0.161858
3.72743e-05
-0.161859
3.79908e-05
-0.161861
3.87058e-05
-0.161862
3.94216e-05
-0.161863
4.01365e-05
-0.161865
4.08515e-05
-0.161866
4.15662e-05
-0.161868
4.22801e-05
-0.161869
4.29945e-05
-0.161871
4.37078e-05
-0.161872
4.44211e-05
-0.161874
4.51346e-05
-0.161876
4.58472e-05
-0.161877
4.65596e-05
-0.161879
4.72722e-05
-0.161881
4.79839e-05
-0.161883
4.86958e-05
-0.161885
4.94068e-05
-0.161887
5.01182e-05
-0.161889
5.08291e-05
-0.161891
5.15398e-05
-0.161893
5.22501e-05
-0.161895
5.29603e-05
-0.161897
5.367e-05
-0.1619
5.43795e-05
-0.161902
5.50887e-05
-0.161904
5.57976e-05
-0.161907
5.65067e-05
-0.161909
5.72151e-05
-0.161912
5.79231e-05
-0.161914
5.86309e-05
-0.161917
5.93389e-05
-0.16192
6.00466e-05
-0.161922
6.07537e-05
-0.161925
6.14603e-05
6.2167e-05
-0.161928
-0.152386
-1.32334e-06
-0.152385
-5.45986e-07
-0.152384
2.32069e-07
-0.152384
1.00958e-06
-0.152383
1.78618e-06
-0.152382
2.56194e-06
-0.152382
3.33752e-06
-0.152381
4.11236e-06
-0.15238
4.88668e-06
-0.15238
5.66032e-06
-0.152379
6.43403e-06
-0.152379
7.20711e-06
-0.152379
7.97973e-06
-0.152378
8.75183e-06
-0.152378
9.52399e-06
-0.152378
1.02956e-05
-0.152377
1.10669e-05
-0.152377
1.18381e-05
-0.152377
1.26083e-05
-0.152377
1.33787e-05
-0.152377
1.41491e-05
-0.152377
1.4918e-05
-0.152377
1.5688e-05
-0.152377
1.64566e-05
-0.152377
1.72252e-05
-0.152377
1.79934e-05
-0.152378
1.87617e-05
-0.152378
1.95295e-05
-0.152378
2.02965e-05
-0.152378
2.1064e-05
-0.152379
2.18306e-05
-0.152379
2.25968e-05
-0.15238
2.33631e-05
-0.15238
2.4129e-05
-0.152381
2.48945e-05
-0.152381
2.56601e-05
-0.152382
2.64247e-05
-0.152383
2.71891e-05
-0.152384
2.79534e-05
-0.152384
2.8718e-05
-0.152385
2.94811e-05
-0.152386
3.02448e-05
-0.152387
3.10077e-05
-0.152388
3.17707e-05
-0.152389
3.25333e-05
-0.15239
3.32956e-05
-0.152391
3.40574e-05
-0.152392
3.4819e-05
-0.152393
3.55802e-05
-0.152395
3.63419e-05
-0.152396
3.71019e-05
-0.152397
3.7863e-05
-0.152398
3.86233e-05
-0.1524
3.93831e-05
-0.152401
4.01423e-05
-0.152403
4.09024e-05
-0.152404
4.16613e-05
-0.152406
4.24199e-05
-0.152407
4.31786e-05
-0.152409
4.3937e-05
-0.152411
4.46951e-05
-0.152413
4.54528e-05
-0.152414
4.62102e-05
-0.152416
4.69673e-05
-0.152418
4.77241e-05
-0.15242
4.84811e-05
-0.152422
4.92377e-05
-0.152424
4.99936e-05
-0.152426
5.07492e-05
-0.152428
5.15054e-05
-0.15243
5.22604e-05
-0.152432
5.30156e-05
-0.152435
5.37705e-05
-0.152437
5.45251e-05
-0.152439
5.52794e-05
-0.152442
5.60334e-05
-0.152444
5.67877e-05
-0.152446
5.75411e-05
-0.152449
5.82943e-05
-0.152452
5.90473e-05
-0.152454
5.98004e-05
-0.152457
6.05528e-05
-0.152459
6.13055e-05
-0.152462
6.20573e-05
-0.152465
6.2809e-05
-0.152468
6.35613e-05
-0.152471
6.43124e-05
6.50631e-05
-0.152473
-0.143484
-1.78306e-06
-0.143484
-9.65187e-07
-0.143484
-1.45568e-07
-0.143483
6.72357e-07
-0.143483
1.48934e-06
-0.143483
2.3065e-06
-0.143482
3.12245e-06
-0.143482
3.9382e-06
-0.143482
4.75282e-06
-0.143482
5.56791e-06
-0.143482
6.38194e-06
-0.143482
7.19597e-06
-0.143482
8.00952e-06
-0.143482
8.82251e-06
-0.143482
9.63558e-06
-0.143482
1.04477e-05
-0.143483
1.12603e-05
-0.143483
1.20721e-05
-0.143483
1.28837e-05
-0.143483
1.36946e-05
-0.143484
1.45055e-05
-0.143484
1.53164e-05
-0.143485
1.61269e-05
-0.143485
1.69365e-05
-0.143486
1.77462e-05
-0.143486
1.8556e-05
-0.143487
1.93648e-05
-0.143487
2.01737e-05
-0.143488
2.09818e-05
-0.143489
2.17904e-05
-0.14349
2.25981e-05
-0.14349
2.34059e-05
-0.143491
2.42133e-05
-0.143492
2.50204e-05
-0.143493
2.58265e-05
-0.143494
2.66337e-05
-0.143495
2.74396e-05
-0.143496
2.82452e-05
-0.143497
2.90512e-05
-0.143498
2.9856e-05
-0.1435
3.06614e-05
-0.143501
3.14663e-05
-0.143502
3.22705e-05
-0.143503
3.30748e-05
-0.143505
3.38787e-05
-0.143506
3.46827e-05
-0.143507
3.54854e-05
-0.143509
3.62888e-05
-0.14351
3.70918e-05
-0.143512
3.78945e-05
-0.143514
3.86963e-05
-0.143515
3.94987e-05
-0.143517
4.03004e-05
-0.143519
4.11017e-05
-0.14352
4.19027e-05
-0.143522
4.27043e-05
-0.143524
4.35047e-05
-0.143526
4.43051e-05
-0.143528
4.51054e-05
-0.14353
4.59052e-05
-0.143532
4.67048e-05
-0.143534
4.75045e-05
-0.143536
4.83035e-05
-0.143538
4.91022e-05
-0.14354
4.99015e-05
-0.143543
5.0699e-05
-0.143545
5.14978e-05
-0.143547
5.22957e-05
-0.143549
5.30934e-05
-0.143552
5.38908e-05
-0.143554
5.46879e-05
-0.143557
5.54847e-05
-0.143559
5.62813e-05
-0.143562
5.70781e-05
-0.143564
5.78745e-05
-0.143567
5.86703e-05
-0.14357
5.94658e-05
-0.143572
6.02614e-05
-0.143575
6.10569e-05
-0.143578
6.18521e-05
-0.143581
6.26465e-05
-0.143584
6.34412e-05
-0.143587
6.42356e-05
-0.14359
6.50298e-05
-0.143593
6.58237e-05
-0.143596
6.66174e-05
-0.143599
6.74104e-05
6.82038e-05
-0.143602
-0.135112
-1.87014e-06
-0.135112
-1.01235e-06
-0.135112
-1.5552e-07
-0.135112
7.01659e-07
-0.135112
1.5573e-06
-0.135112
2.41223e-06
-0.135112
3.26679e-06
-0.135113
4.12077e-06
-0.135113
4.97416e-06
-0.135113
5.82742e-06
-0.135113
6.68017e-06
-0.135114
7.53249e-06
-0.135114
8.3847e-06
-0.135115
9.23655e-06
-0.135115
1.00879e-05
-0.135115
1.09388e-05
-0.135116
1.17897e-05
-0.135117
1.26402e-05
-0.135117
1.34898e-05
-0.135118
1.43405e-05
-0.135119
1.51897e-05
-0.135119
1.6039e-05
-0.13512
1.68884e-05
-0.135121
1.77364e-05
-0.135122
1.85855e-05
-0.135123
1.94332e-05
-0.135123
2.02814e-05
-0.135124
2.11288e-05
-0.135125
2.19763e-05
-0.135126
2.28234e-05
-0.135127
2.36697e-05
-0.135129
2.45169e-05
-0.13513
2.53624e-05
-0.135131
2.62089e-05
-0.135132
2.70541e-05
-0.135133
2.79e-05
-0.135135
2.87448e-05
-0.135136
2.95895e-05
-0.135137
3.04341e-05
-0.135139
3.1279e-05
-0.13514
3.21225e-05
-0.135142
3.29666e-05
-0.135143
3.38099e-05
-0.135145
3.46533e-05
-0.135147
3.54964e-05
-0.135148
3.63392e-05
-0.13515
3.71816e-05
-0.135152
3.80241e-05
-0.135153
3.88659e-05
-0.135155
3.97077e-05
-0.135157
4.05488e-05
-0.135159
4.13906e-05
-0.135161
4.22315e-05
-0.135163
4.30721e-05
-0.135165
4.39124e-05
-0.135167
4.47529e-05
-0.135169
4.5593e-05
-0.135171
4.64324e-05
-0.135173
4.72724e-05
-0.135176
4.81112e-05
-0.135178
4.89506e-05
-0.13518
4.97893e-05
-0.135182
5.06281e-05
-0.135185
5.14662e-05
-0.135187
5.2304e-05
-0.13519
5.31425e-05
-0.135192
5.39797e-05
-0.135195
5.48171e-05
-0.135197
5.56543e-05
-0.1352
5.64912e-05
-0.135202
5.73283e-05
-0.135205
5.81642e-05
-0.135208
5.90008e-05
-0.135211
5.98371e-05
-0.135213
6.06722e-05
-0.135216
6.15085e-05
-0.135219
6.23435e-05
-0.135222
6.31784e-05
-0.135225
6.40139e-05
-0.135228
6.48482e-05
-0.135231
6.56828e-05
-0.135234
6.65171e-05
-0.135237
6.73508e-05
-0.13524
6.81851e-05
-0.135244
6.90182e-05
-0.135247
6.98521e-05
-0.13525
7.06853e-05
7.15175e-05
-0.135253
-0.12724
-1.52142e-06
-0.12724
-6.28507e-07
-0.127241
2.65251e-07
-0.127241
1.15776e-06
-0.127242
2.04982e-06
-0.127242
2.94108e-06
-0.127243
3.83164e-06
-0.127243
4.72148e-06
-0.127244
5.61175e-06
-0.127245
6.50096e-06
-0.127245
7.38968e-06
-0.127246
8.27844e-06
-0.127247
9.16671e-06
-0.127248
1.0055e-05
-0.127249
1.09423e-05
-0.127249
1.18298e-05
-0.12725
1.27173e-05
-0.127251
1.36038e-05
-0.127252
1.44905e-05
-0.127253
1.53767e-05
-0.127254
1.62626e-05
-0.127256
1.71485e-05
-0.127257
1.80341e-05
-0.127258
1.89192e-05
-0.127259
1.9804e-05
-0.12726
2.06888e-05
-0.127262
2.15734e-05
-0.127263
2.24574e-05
-0.127264
2.33416e-05
-0.127266
2.4225e-05
-0.127267
2.51085e-05
-0.127269
2.59916e-05
-0.12727
2.68748e-05
-0.127272
2.77571e-05
-0.127273
2.86391e-05
-0.127275
2.95218e-05
-0.127277
3.04036e-05
-0.127278
3.1285e-05
-0.12728
3.21666e-05
-0.127282
3.30478e-05
-0.127284
3.39287e-05
-0.127285
3.48088e-05
-0.127287
3.569e-05
-0.127289
3.65694e-05
-0.127291
3.745e-05
-0.127293
3.83292e-05
-0.127295
3.92091e-05
-0.127297
4.00882e-05
-0.127299
4.0967e-05
-0.127302
4.18459e-05
-0.127304
4.2724e-05
-0.127306
4.36029e-05
-0.127308
4.44804e-05
-0.12731
4.53586e-05
-0.127313
4.6236e-05
-0.127315
4.71136e-05
-0.127318
4.79904e-05
-0.12732
4.88674e-05
-0.127322
4.97441e-05
-0.127325
5.06206e-05
-0.127328
5.14967e-05
-0.12733
5.23726e-05
-0.127333
5.32487e-05
-0.127335
5.4124e-05
-0.127338
5.49995e-05
-0.127341
5.58748e-05
-0.127344
5.67494e-05
-0.127346
5.76241e-05
-0.127349
5.8499e-05
-0.127352
5.93728e-05
-0.127355
6.02472e-05
-0.127358
6.11205e-05
-0.127361
6.19949e-05
-0.127364
6.28676e-05
-0.127367
6.37411e-05
-0.12737
6.46143e-05
-0.127373
6.54868e-05
-0.127377
6.63595e-05
-0.12738
6.72321e-05
-0.127383
6.81038e-05
-0.127386
6.89764e-05
-0.12739
6.98477e-05
-0.127393
7.07193e-05
-0.127396
7.15907e-05
-0.1274
7.24619e-05
-0.127403
7.33328e-05
-0.127407
7.4204e-05
7.50738e-05
-0.12741
-0.119833
-7.75247e-07
-0.119834
1.51179e-07
-0.119835
1.07934e-06
-0.119836
2.00537e-06
-0.119837
2.93143e-06
-0.119838
3.85664e-06
-0.119839
4.78069e-06
-0.11984
5.70554e-06