/*--------------------------------*- C++ -*----------------------------------*\
  =========                 |
  \\      /  F ield         | OpenFOAM: The Open Source CFD Toolbox
   \\    /   O peration     | Website:  https://openfoam.org
    \\  /    A nd           | Version:  9
     \\/     M anipulation  |
\*---------------------------------------------------------------------------*/
FoamFile
{
    format      ascii;
    class       volVectorField;
    location    "0.0025";
    object      U;
}
// * * * * * * * * * * * * * * * * * * * * * * * * * * * * * * * * * * * * * //

dimensions      [0 1 -1 0 0 0 0];

internalField   nonuniform List<vector> 
7168
(
(25.3447 -1.94591 1.74074e-21)
(25.1593 -1.81393 8.06895e-22)
(24.6365 -1.8841 -7.51239e-22)
(24.6364 -1.88482 0)
(24.6364 -1.8856 1.39546e-22)
(24.6363 -1.88653 1.39551e-22)
(24.6363 -1.88757 -1.39555e-22)
(24.6362 -1.88872 0)
(24.6361 -1.88994 -2.28666e-18)
(24.6361 -1.89122 4.57361e-18)
(24.636 -1.89254 -2.28681e-18)
(24.6359 -1.8939 0)
(24.6359 -1.89528 -1.39582e-22)
(24.6358 -1.89668 -4.57402e-18)
(24.6357 -1.89809 4.57401e-18)
(24.6357 -1.89949 0)
(24.6356 -1.9009 4.57441e-18)
(24.6355 -1.90229 -4.57467e-18)
(24.6355 -1.90368 1.39605e-22)
(24.6354 -1.90505 0)
(24.6354 -1.90641 4.57489e-18)
(24.6353 -1.90775 -4.57501e-18)
(24.6352 -1.90906 0)
(24.6352 -1.91036 1.39623e-22)
(24.6351 -1.91163 0)
(24.635 -1.91288 -9.1509e-18)
(24.635 -1.9141 9.15111e-18)
(24.6349 -1.9153 -9.15132e-18)
(24.6349 -1.91647 1.38791e-24)
(24.6348 -1.91762 1.83034e-17)
(24.6347 -1.91874 -9.15205e-18)
(24.6347 -1.91983 0)
(24.6346 -1.92089 9.15229e-18)
(24.6345 -1.92193 -1.83051e-17)
(24.6345 -1.92294 9.15264e-18)
(24.6344 -1.92392 0)
(24.6344 -1.92487 -9.15298e-18)
(24.6343 -1.9258 1.83062e-17)
(24.6342 -1.9267 -1.38506e-24)
(24.6342 -1.92757 1.38284e-22)
(24.6341 -1.92842 -1.41055e-22)
(24.6341 -1.92923 -1.41057e-22)
(24.634 -1.93002 -1.38425e-24)
(24.634 -1.93079 -9.15411e-18)
(24.6339 -1.93152 1.83083e-17)
(24.6338 -1.93223 -1.83086e-17)
(24.6338 -1.93291 -6.98417e-23)
(24.6337 -1.93357 -1.83091e-17)
(24.6337 -1.9342 3.66187e-17)
(24.6336 -1.9348 -2.76641e-24)
(24.6336 -1.93537 -1.83098e-17)
(24.6335 -1.93592 1.831e-17)
(24.6335 -1.93645 -1.83103e-17)
(24.6334 -1.93695 0)
(24.6333 -1.93742 -6.98483e-23)
(24.6333 -1.93787 1.83108e-17)
(24.6332 -1.93829 -3.66219e-17)
(24.6332 -1.93868 1.83111e-17)
(24.6331 -1.93906 -1.83113e-17)
(24.6331 -1.9394 1.83114e-17)
(24.633 -1.93973 -1.83116e-17)
(24.633 -1.94003 7.2618e-23)
(24.6329 -1.9403 1.83118e-17)
(24.6329 -1.94055 -1.83119e-17)
(24.6328 -1.94078 1.8312e-17)
(24.6328 -1.94098 1.83121e-17)
(24.6327 -1.94116 -3.66244e-17)
(24.6327 -1.94132 1.83123e-17)
(24.6327 -1.94145 0)
(24.6326 -1.94157 0)
(24.6326 -1.94166 0)
(24.6325 -1.94172 1.83126e-17)
(24.6325 -1.94177 -3.66252e-17)
(24.6324 -1.94179 -3.21612e-23)
(24.6324 -1.94179 1.83127e-17)
(24.6324 -1.94177 0)
(24.6323 -1.94173 0)
(24.6323 -1.94167 1.83127e-17)
(24.6322 -1.94158 3.21614e-23)
(24.6322 -1.94148 -1.83127e-17)
(24.6322 -1.94135 0)
(24.6321 -1.94121 0)
(24.6321 -1.94104 0)
(24.632 -1.94086 0)
(24.632 -1.94065 -3.66249e-17)
(24.632 -1.94043 5.54193e-24)
(24.6319 -1.94019 3.66247e-17)
(24.6319 -1.93993 -1.74637e-23)
(24.6319 -1.93965 0)
(24.6318 -1.93935 0)
(24.6318 -1.93903 0)
(24.6318 -1.9387 0)
(24.6317 -1.93835 0)
(25.1596 -1.81469 0)
(25.1596 -1.81556 -1.55149e-22)
(25.1597 -1.81659 1.27088e-18)
(25.1597 -1.81775 4.65371e-22)
(25.1598 -1.81903 -1.27087e-18)
(25.1599 -1.82038 -3.10352e-22)
(25.1599 -1.8218 -1.55192e-22)
(25.16 -1.82328 0)
(25.16 -1.82479 2.5429e-18)
(25.1601 -1.82633 -2.54288e-18)
(25.1602 -1.82789 0)
(25.1602 -1.82947 -5.08644e-18)
(25.1603 -1.83104 5.08685e-18)
(25.1603 -1.83262 0)
(25.1604 -1.8342 1.55256e-22)
(25.1605 -1.83576 -1.55264e-22)
(25.1605 -1.83732 -3.10526e-22)
(25.1606 -1.83887 -5.08777e-18)
(25.1606 -1.8404 5.08831e-18)
(25.1607 -1.84192 0)
(25.1608 -1.84341 -1.55299e-22)
(25.1608 -1.84489 0)
(25.1609 -1.84636 0)
(25.161 -1.8478 -1.01791e-17)
(25.161 -1.84922 2.03582e-17)
(25.1611 -1.85062 -1.01796e-17)
(25.1611 -1.852 0)
(25.1612 -1.85335 1.01806e-17)
(25.1613 -1.85469 -1.01808e-17)
(25.1613 -1.856 3.10694e-22)
(25.1614 -1.85729 -1.55345e-22)
(25.1615 -1.85856 0)
(25.1615 -1.85981 1.01826e-17)
(25.1616 -1.86103 -1.01829e-17)
(25.1617 -1.86224 1.55381e-22)
(25.1617 -1.86342 1.01829e-17)
(25.1618 -1.86457 -1.01837e-17)
(25.1619 -1.86571 1.0184e-17)
(25.1619 -1.86682 -2.03684e-17)
(25.162 -1.86791 1.01847e-17)
(25.162 -1.86898 3.88506e-22)
(25.1621 -1.87002 1.55405e-22)
(25.1622 -1.87104 1.55409e-22)
(25.1623 -1.87204 -7.77025e-23)
(25.1623 -1.87302 0)
(25.1624 -1.87398 0)
(25.1625 -1.87491 -2.03725e-17)
(25.1625 -1.87583 4.07455e-17)
(25.1626 -1.87672 -4.07466e-17)
(25.1627 -1.87759 4.07474e-17)
(25.1627 -1.87844 -2.0374e-17)
(25.1628 -1.87926 -7.77156e-23)
(25.1629 -1.88007 1.55442e-22)
(25.163 -1.88085 2.03749e-17)
(25.163 -1.88161 -2.03754e-17)
(25.1631 -1.88236 0)
(25.1632 -1.88308 -1.55451e-22)
(25.1632 -1.88378 1.55454e-22)
(25.1633 -1.88446 2.03765e-17)
(25.1634 -1.88511 -2.0377e-17)
(25.1635 -1.88575 -2.03771e-17)
(25.1635 -1.88637 4.07546e-17)
(25.1636 -1.88697 -2.03773e-17)
(25.1637 -1.88754 -7.77359e-23)
(25.1638 -1.8881 -2.03779e-17)
(25.1639 -1.88864 4.07561e-17)
(25.1639 -1.88915 -2.03782e-17)
(25.164 -1.88965 0)
(25.1641 -1.89013 -7.7735e-23)
(25.1642 -1.89059 2.03785e-17)
(25.1643 -1.89103 -2.03786e-17)
(25.1643 -1.89145 -7.77361e-23)
(25.1644 -1.89185 0)
(25.1645 -1.89223 0)
(25.1646 -1.8926 3.88703e-23)
(25.1647 -1.89294 -3.88704e-23)
(25.1647 -1.89327 2.0379e-17)
(25.1648 -1.89357 -2.03789e-17)
(25.1649 -1.89386 0)
(25.165 -1.89414 0)
(25.1651 -1.89439 2.03789e-17)
(25.1652 -1.89463 -2.0379e-17)
(25.1653 -1.89485 0)
(25.1654 -1.89505 -3.88683e-23)
(25.1654 -1.89523 1.9435e-23)
(25.1655 -1.8954 3.8868e-23)
(25.1656 -1.89555 0)
(25.1657 -1.89568 0)
(25.1658 -1.8958 1.94337e-23)
(25.1659 -1.8959 0)
(25.345 -1.94674 0)
(25.345 -1.94767 0)
(25.345 -1.94875 -7.07302e-19)
(25.3451 -1.94993 2.11964e-18)
(25.3451 -1.95121 -2.82719e-18)
(25.3452 -1.95257 1.41386e-18)
(25.3452 -1.95397 -2.82723e-18)
(25.3453 -1.95542 2.82742e-18)
(25.3453 -1.9569 0)
(25.3454 -1.9584 0)
(25.3454 -1.95991 -6.90411e-22)
(25.3455 -1.96142 2.82815e-18)
(25.3455 -1.96294 -5.65666e-18)
(25.3456 -1.96446 2.82919e-18)
(25.3456 -1.96597 0)
(25.3457 -1.96747 6.90625e-22)
(25.3457 -1.96896 3.45351e-22)
(25.3458 -1.97043 3.45336e-22)
(25.3458 -1.97189 5.65869e-18)
(25.3459 -1.97333 -5.65902e-18)
(25.3459 -1.97476 5.65933e-18)
(25.346 -1.97617 -5.65965e-18)
(25.346 -1.97755 0)
(25.3461 -1.97892 3.45487e-22)
(25.3461 -1.98027 3.45505e-22)
(25.3462 -1.9816 -5.66086e-18)
(25.3462 -1.98291 5.66115e-18)
(25.3462 -1.98419 -1.13225e-17)
(25.3463 -1.98546 1.13238e-17)
(25.3463 -1.9867 -3.45592e-22)
(25.3464 -1.98792 1.72303e-26)
(25.3464 -1.98912 -1.13251e-17)
(25.3465 -1.9903 1.13256e-17)
(25.3465 -1.99146 3.45657e-22)
(25.3466 -1.9926 0)
(25.3466 -1.99372 -1.13268e-17)
(25.3466 -1.99481 1.13276e-17)
(25.3467 -1.99588 0)
(25.3467 -1.99693 3.45731e-22)
(25.3468 -1.99796 -3.45745e-22)
(25.3468 -1.99897 -1.71136e-26)
(25.3469 -1.99996 -1.72886e-22)
(25.3469 -2.00093 1.72876e-22)
(25.347 -2.00187 -1.13306e-17)
(25.347 -2.0028 1.13312e-17)
(25.347 -2.0037 0)
(25.3471 -2.00458 1.72918e-22)
(25.3471 -2.00544 1.72924e-22)
(25.3472 -2.00628 1.72929e-22)
(25.3472 -2.00711 3.45853e-22)
(25.3473 -2.00791 0)
(25.3473 -2.00869 1.72946e-22)
(25.3473 -2.00944 -5.18835e-22)
(25.3474 -2.01018 1.72956e-22)
(25.3474 -2.0109 0)
(25.3475 -2.0116 0)
(25.3475 -2.01228 -2.26702e-17)
(25.3476 -2.01294 4.53429e-17)
(25.3476 -2.01358 -9.57659e-25)
(25.3476 -2.0142 -4.53446e-17)
(25.3477 -2.0148 2.26732e-17)
(25.3477 -2.01538 0)
(25.3478 -2.01594 -1.72994e-22)
(25.3478 -2.01648 0)
(25.3479 -2.017 0)
(25.3479 -2.01751 0)
(25.3479 -2.01799 0)
(25.348 -2.01846 -2.26762e-17)
(25.348 -2.0189 8.74635e-23)
(25.3481 -2.01933 2.2677e-17)
(25.3481 -2.01974 -2.26771e-17)
(25.3482 -2.02014 2.26778e-17)
(25.3482 -2.02051 -2.26777e-17)
(25.3482 -2.02087 4.53563e-17)
(25.3483 -2.0212 -9.57365e-25)
(25.3483 -2.02152 -9.57558e-25)
(25.3484 -2.02183 -9.57813e-25)
(25.3484 -2.02211 -4.53583e-17)
(25.3485 -2.02238 2.26793e-17)
(25.3485 -2.02263 0)
(25.3485 -2.02286 2.26798e-17)
(25.3486 -2.02308 -2.26798e-17)
(25.3486 -2.02328 0)
(25.3487 -2.02346 2.268e-17)
(25.3487 -2.02362 -2.26802e-17)
(25.3488 -2.02377 4.32563e-23)
(25.3488 -2.02391 -2.26803e-17)
(25.3489 -2.02402 4.43952e-23)
(25.3489 -2.02413 4.53606e-17)
(25.349 -2.02421 -3.96221e-17)
(25.5194 -1.8836 0)
(25.5194 -1.88445 -7.63725e-22)
(25.5195 -1.8855 -7.80618e-19)
(25.5195 -1.88663 7.81447e-19)
(25.5196 -1.88783 -1.56455e-18)
(25.5196 -1.88908 1.56468e-18)
(25.5196 -1.89037 7.64042e-22)
(25.5197 -1.89169 -7.64103e-22)
(25.5197 -1.89302 0)
(25.5198 -1.89436 -3.13112e-18)
(25.5198 -1.8957 3.13136e-18)
(25.5199 -1.89705 -7.6434e-22)
(25.5199 -1.89839 3.13031e-18)
(25.5199 -1.89972 -7.64554e-22)
(25.52 -1.90104 -3.13153e-18)
(25.52 -1.90235 -7.64602e-22)
(25.5201 -1.90365 0)
(25.5201 -1.90493 -7.6471e-22)
(25.5201 -1.9062 -6.26561e-18)
(25.5202 -1.90745 6.26527e-18)
(25.5202 -1.90868 -6.26492e-18)
(25.5203 -1.90989 6.26611e-18)
(25.5203 -1.91109 0)
(25.5203 -1.91226 6.26692e-18)
(25.5204 -1.91342 -6.26731e-18)
(25.5204 -1.91455 0)
(25.5204 -1.91567 -7.65123e-22)
(25.5205 -1.91677 -3.82603e-22)
(25.5205 -1.91785 -1.14784e-21)
(25.5206 -1.9189 0)
(25.5206 -1.91994 -1.25387e-17)
(25.5206 -1.92096 1.25398e-17)
(25.5207 -1.92196 -3.82712e-22)
(25.5207 -1.92293 0)
(25.5207 -1.92389 0)
(25.5208 -1.92483 0)
(25.5208 -1.92575 7.65548e-22)
(25.5208 -1.92665 7.65586e-22)
(25.5209 -1.92752 7.65624e-22)
(25.5209 -1.92838 -1.2545e-17)
(25.521 -1.92922 1.25452e-17)
(25.521 -1.93004 1.25454e-17)
(25.521 -1.93084 -2.54875e-25)
(25.5211 -1.93162 -1.25469e-17)
(25.5211 -1.93238 -1.25482e-17)
(25.5211 -1.93313 3.83167e-22)
(25.5212 -1.93385 1.25488e-17)
(25.5212 -1.93455 3.82963e-22)
(25.5212 -1.93524 -3.82978e-22)
(25.5213 -1.93591 -3.8301e-22)
(25.5213 -1.93655 1.25507e-17)
(25.5213 -1.93718 -2.5102e-17)
(25.5214 -1.93779 1.2552e-17)
(25.5214 -1.93838 0)
(25.5214 -1.93896 -3.83059e-22)
(25.5215 -1.93951 0)
(25.5215 -1.94005 -3.83101e-22)
(25.5215 -1.94057 -1.80767e-26)
(25.5216 -1.94107 0)
(25.5216 -1.94155 -1.25549e-17)
(25.5216 -1.94201 -1.25553e-17)
(25.5217 -1.94246 2.511e-17)
(25.5217 -1.94289 2.51106e-17)
(25.5217 -1.9433 -5.02225e-17)
(25.5218 -1.9437 5.02237e-17)
(25.5218 -1.94407 -5.02244e-17)
(25.5218 -1.94443 5.02262e-17)
(25.5219 -1.94478 3.82728e-22)
(25.5219 -1.9451 -2.51139e-17)
(25.5219 -1.94541 1.91601e-22)
(25.522 -1.9457 2.51146e-17)
(25.522 -1.94598 -2.51154e-17)
(25.522 -1.94624 -1.9162e-22)
(25.5221 -1.94648 2.5116e-17)
(25.5221 -1.94671 -2.51163e-17)
(25.5221 -1.94692 -2.51169e-17)
(25.5222 -1.94711 2.5117e-17)
(25.5222 -1.94729 2.51174e-17)
(25.5222 -1.94745 -2.51175e-17)
(25.5223 -1.9476 2.51177e-17)
(25.5223 -1.94773 -2.51179e-17)
(25.5223 -1.94785 -2.51183e-17)
(25.5224 -1.94795 2.51184e-17)
(25.5224 -1.94803 -2.51184e-17)
(25.5224 -1.9481 2.51187e-17)
(25.5225 -1.94816 -1.91638e-22)
(25.5225 -1.9482 -9.58172e-23)
(25.5225 -1.94823 2.51188e-17)
(25.5226 -1.94824 -2.51187e-17)
(25.5226 -1.94823 4.36553e-17)
(25.6566 -1.99029 2.27962e-19)
(25.6566 -1.99115 -6.46748e-19)
(25.6567 -1.99218 4.30926e-19)
(25.6568 -1.99327 8.64464e-19)
(25.6569 -1.99441 -8.63702e-19)
(25.657 -1.99559 -1.72925e-18)
(25.6571 -1.99679 1.72519e-18)
(25.6572 -1.99801 -1.72704e-18)
(25.6573 -1.99923 5.18412e-18)
(25.6574 -2.00047 -3.45723e-18)
(25.6575 -2.0017 -3.45669e-18)
(25.6576 -2.00292 3.45783e-18)
(25.6576 -2.00414 1.68814e-21)
(25.6577 -2.00535 3.45674e-18)
(25.6578 -2.00655 -3.45787e-18)
(25.6579 -2.00773 0)
(25.658 -2.0089 0)
(25.6581 -2.01006 0)
(25.6582 -2.0112 8.44505e-22)
(25.6583 -2.01232 0)
(25.6583 -2.01342 -6.9199e-18)
(25.6584 -2.01451 1.38392e-17)
(25.6585 -2.01558 -1.86505e-25)
(25.6586 -2.01663 -1.38421e-17)
(25.6587 -2.01766 6.92111e-18)
(25.6588 -2.01868 -6.92245e-18)
(25.6589 -2.01967 1.3845e-17)
(25.6589 -2.02065 -6.92342e-18)
(25.659 -2.0216 8.45124e-22)
(25.6591 -2.02254 -6.92351e-18)
(25.6592 -2.02346 6.92396e-18)
(25.6593 -2.02436 -6.92441e-18)
(25.6594 -2.02524 6.92486e-18)
(25.6595 -2.02611 -8.45357e-22)
(25.6595 -2.02695 0)
(25.6596 -2.02778 0)
(25.6597 -2.02859 -1.69106e-21)
(25.6598 -2.02938 -8.456e-22)
(25.6599 -2.03015 -4.08041e-26)
(25.66 -2.0309 1.38555e-17)
(25.6601 -2.03163 -1.38562e-17)
(25.6601 -2.03235 1.69153e-21)
(25.6602 -2.03305 4.22875e-22)
(25.6603 -2.03373 4.22897e-22)
(25.6604 -2.03439 -4.22919e-22)
(25.6605 -2.03503 -4.2298e-22)
(25.6606 -2.03566 -8.45961e-22)
(25.6607 -2.03626 -4.23021e-22)
(25.6607 -2.03685 4.2304e-22)
(25.6608 -2.03743 -8.46078e-22)
(25.6609 -2.03798 1.3863e-17)
(25.661 -2.03852 -4.23462e-22)
(25.6611 -2.03904 -1.3865e-17)
(25.6612 -2.03955 0)
(25.6612 -2.04003 4.23147e-22)
(25.6613 -2.0405 0)
(25.6614 -2.04095 -1.38663e-17)
(25.6615 -2.04139 1.38668e-17)
(25.6616 -2.04181 0)
(25.6617 -2.04221 4.23224e-22)
(25.6618 -2.0426 4.23238e-22)
(25.6618 -2.04297 4.23231e-22)
(25.6619 -2.04332 1.38691e-17)
(25.662 -2.04366 -4.23623e-22)
(25.6621 -2.04398 -1.38703e-17)
(25.6622 -2.04428 -1.38707e-17)
(25.6623 -2.04457 1.38702e-17)
(25.6623 -2.04485 -4.23323e-22)
(25.6624 -2.04511 1.38714e-17)
(25.6625 -2.04535 -1.38715e-17)
(25.6626 -2.04557 -2.7744e-17)
(25.6627 -2.04579 7.35138e-25)
(25.6628 -2.04598 5.54902e-17)
(25.6629 -2.04616 -7.35823e-25)
(25.6629 -2.04633 -2.77461e-17)
(25.663 -2.04648 2.11696e-22)
(25.6631 -2.04662 2.7747e-17)
(25.6632 -2.04674 -5.5495e-17)
(25.6633 -2.04685 7.38334e-25)
(25.6634 -2.04695 5.5496e-17)
(25.6635 -2.04703 -5.54969e-17)
(25.6636 -2.04709 5.54976e-17)
(25.6636 -2.04714 -2.77491e-17)
(25.6637 -2.04718 -1.05848e-22)
(25.6638 -2.04721 -2.77495e-17)
(25.6639 -2.04722 1.06576e-22)
(25.664 -2.04721 2.77498e-17)
(25.6641 -2.0472 -1.0586e-22)
(25.6642 -2.04717 -5.29303e-23)
(25.6643 -2.04713 1.8308e-22)
(25.815 -1.97487 -1.94318e-21)
(25.815 -1.97562 -4.74609e-19)
(25.8151 -1.97654 4.7466e-19)
(25.8152 -1.97751 0)
(25.8153 -1.97852 1.89904e-18)
(25.8154 -1.97957 -1.89738e-18)
(25.8155 -1.98063 1.90129e-18)
(25.8156 -1.98171 -1.90148e-18)
(25.8157 -1.9828 1.89981e-18)
(25.8158 -1.98389 -1.89815e-18)
(25.8158 -1.98498 -1.8556e-21)
(25.8159 -1.98606 0)
(25.816 -1.98713 -9.2802e-22)
(25.8161 -1.9882 9.28108e-22)
(25.8162 -1.98925 0)
(25.8163 -1.99028 0)
(25.8164 -1.99131 0)
(25.8165 -1.99232 0)
(25.8166 -1.99331 -1.85697e-21)
(25.8166 -1.99428 0)
(25.8167 -1.99524 0)
(25.8168 -1.99619 -7.60834e-18)
(25.8169 -1.99711 7.60897e-18)
(25.817 -1.99802 -9.28834e-22)
(25.8171 -1.99891 0)
(25.8172 -1.99978 9.29072e-22)
(25.8172 -2.00064 0)
(25.8173 -2.00148 9.29217e-22)
(25.8174 -2.0023 0)
(25.8175 -2.0031 0)
(25.8176 -2.00388 7.61373e-18)
(25.8177 -2.00465 -7.61428e-18)
(25.8177 -2.0054 9.29516e-22)
(25.8178 -2.00613 9.29625e-22)
(25.8179 -2.00684 7.61496e-18)
(25.818 -2.00754 -1.52328e-17)
(25.8181 -2.00822 7.61784e-18)
(25.8182 -2.00888 -7.61741e-18)
(25.8183 -2.00952 -9.29852e-22)
(25.8183 -2.01015 7.61838e-18)
(25.8184 -2.01076 0)
(25.8185 -2.01135 1.52377e-17)
(25.8186 -2.01193 -1.52395e-17)
(25.8187 -2.01248 -9.30217e-22)
(25.8188 -2.01303 9.3027e-22)
(25.8188 -2.01355 -9.30278e-22)
(25.8189 -2.01406 9.30373e-22)
(25.819 -2.01455 -9.30378e-22)
(25.8191 -2.01503 -9.30427e-22)
(25.8192 -2.01549 1.52463e-17)
(25.8193 -2.01593 -1.52461e-17)
(25.8193 -2.01636 9.30566e-22)
(25.8194 -2.01677 9.30654e-22)
(25.8195 -2.01716 0)
(25.8196 -2.01754 9.30695e-22)
(25.8197 -2.0179 0)
(25.8198 -2.01825 1.52493e-17)
(25.8198 -2.01858 -1.52514e-17)
(25.8199 -2.01889 0)
(25.82 -2.01919 0)
(25.8201 -2.01948 4.65461e-22)
(25.8202 -2.01975 -2.18885e-26)
(25.8203 -2.02 0)
(25.8203 -2.02024 -1.52538e-17)
(25.8204 -2.02046 1.52548e-17)
(25.8205 -2.02067 0)
(25.8206 -2.02087 4.65555e-22)
(25.8207 -2.02105 0)
(25.8208 -2.02121 1.52566e-17)
(25.8208 -2.02136 -3.05145e-17)
(25.8209 -2.0215 1.52574e-17)
(25.821 -2.02162 0)
(25.8211 -2.02173 1.52582e-17)
(25.8212 -2.02183 -1.52585e-17)
(25.8213 -2.02191 -1.52588e-17)
(25.8214 -2.02197 1.52591e-17)
(25.8214 -2.02203 0)
(25.8215 -2.02207 1.52597e-17)
(25.8216 -2.02209 -3.05201e-17)
(25.8217 -2.02211 1.52601e-17)
(25.8218 -2.02211 2.32847e-22)
(25.8219 -2.02209 0)
(25.822 -2.02207 0)
(25.822 -2.02203 3.05217e-17)
(25.8221 -2.02198 2.32493e-22)
(25.8222 -2.02191 -3.05222e-17)
(25.8223 -2.02184 -3.05224e-17)
(25.8224 -2.02175 3.05226e-17)
(25.8225 -2.02165 0)
(25.8226 -2.02153 5.25517e-17)
(25.9676 -2.06847 5.21993e-19)
(25.9678 -2.06936 -5.20025e-19)
(25.9679 -2.07035 0)
(25.9681 -2.07135 2.0318e-21)
(25.9682 -2.07235 0)
(25.9684 -2.07334 0)
(25.9685 -2.07432 2.03263e-21)
(25.9686 -2.0753 0)
(25.9688 -2.07626 2.08184e-18)
(25.9689 -2.07721 -2.08208e-18)
(25.9691 -2.07815 4.16464e-18)
(25.9692 -2.07907 -4.16511e-18)
(25.9694 -2.07998 0)
(25.9695 -2.08087 -2.03415e-21)
(25.9696 -2.08175 -4.16649e-18)
(25.9698 -2.08261 4.16694e-18)
(25.9699 -2.08345 0)
(25.9701 -2.08427 1.01559e-25)
(25.9702 -2.08508 0)
(25.9704 -2.08587 4.16867e-18)
(25.9705 -2.08665 -4.16909e-18)
(25.9706 -2.08741 0)
(25.9708 -2.08815 1.01592e-25)
(25.9709 -2.08887 0)
(25.9711 -2.08958 2.03644e-21)
(25.9712 -2.09027 8.34221e-18)
(25.9713 -2.09094 -8.34297e-18)
(25.9715 -2.0916 -8.34169e-18)
(25.9716 -2.09224 8.34651e-18)
(25.9718 -2.09286 0)
(25.9719 -2.09347 0)
(25.972 -2.09406 -3.05661e-21)
(25.9722 -2.09463 0)
(25.9723 -2.09519 1.01907e-21)
(25.9724 -2.09573 0)
(25.9726 -2.09626 0)
(25.9727 -2.09677 0)
(25.9729 -2.09726 0)
(25.973 -2.09774 0)
(25.9731 -2.0982 1.01949e-21)
(25.9733 -2.09865 0)
(25.9734 -2.09908 -1.01969e-21)
(25.9736 -2.09949 0)
(25.9737 -2.09989 1.01977e-21)
(25.9738 -2.10028 -1.67084e-17)
(25.974 -2.10065 1.67105e-17)
(25.9741 -2.101 -1.67105e-17)
(25.9742 -2.10134 1.67146e-17)
(25.9744 -2.10166 -1.02009e-21)
(25.9745 -2.10197 -1.67145e-17)
(25.9747 -2.10226 -1.02e-21)
(25.9748 -2.10254 1.67174e-17)
(25.9749 -2.10281 0)
(25.9751 -2.10305 -1.02043e-21)
(25.9752 -2.10329 0)
(25.9754 -2.10351 1.02053e-21)
(25.9755 -2.10372 1.67217e-17)
(25.9756 -2.10391 -1.67225e-17)
(25.9758 -2.10409 0)
(25.9759 -2.10425 -1.53102e-21)
(25.976 -2.1044 -5.10379e-22)
(25.9762 -2.10454 0)
(25.9763 -2.10466 1.02079e-21)
(25.9765 -2.10477 -1.67251e-17)
(25.9766 -2.10487 1.67267e-17)
(25.9767 -2.10495 -5.10475e-22)
(25.9769 -2.10502 0)
(25.977 -2.10508 -1.67284e-17)
(25.9772 -2.10512 1.67284e-17)
(25.9773 -2.10515 -5.10514e-22)
(25.9774 -2.10517 -5.10528e-22)
(25.9776 -2.10518 -1.67298e-17)
(25.9777 -2.10517 1.67302e-17)
(25.9779 -2.10515 1.67306e-17)
(25.978 -2.10512 -3.34614e-17)
(25.9781 -2.10508 2.75028e-25)
(25.9783 -2.10502 2.76008e-25)
(25.9784 -2.10495 2.55593e-22)
(25.9786 -2.10487 2.55598e-22)
(25.9787 -2.10478 1.67322e-17)
(25.9788 -2.10468 -1.67324e-17)
(25.979 -2.10456 1.67329e-17)
(25.9791 -2.10443 2.55334e-22)
(25.9793 -2.1043 -2.55336e-22)
(25.9794 -2.10415 0)
(25.9795 -2.10399 -1.67335e-17)
(25.9797 -2.10382 1.67334e-17)
(25.9798 -2.10363 1.67336e-17)
(25.98 -2.10344 -2.86896e-17)
(26.1184 -2.09043 -2.86651e-19)
(26.1185 -2.09118 5.68931e-19)
(26.1187 -2.09203 5.69004e-19)
(26.1188 -2.09287 -1.13815e-18)
(26.1189 -2.09372 -1.14052e-18)
(26.1191 -2.09455 -1.13844e-18)
(26.1192 -2.09538 4.55432e-18)
(26.1194 -2.0962 -2.27967e-18)
(26.1195 -2.097 -2.22427e-21)
(26.1197 -2.09779 -2.27577e-18)
(26.1198 -2.09857 4.55653e-18)
(26.1199 -2.09934 -2.27853e-18)
(26.1201 -2.10008 -4.55759e-18)
(26.1202 -2.10082 2.22572e-21)
(26.1204 -2.10153 4.56086e-18)
(26.1205 -2.10223 0)
(26.1206 -2.10292 0)
(26.1208 -2.10359 4.45325e-21)
(26.1209 -2.10424 -4.55841e-18)
(26.1211 -2.10488 4.56112e-18)
(26.1212 -2.1055 -2.22728e-21)
(26.1214 -2.1061 -2.22751e-21)
(26.1215 -2.10669 2.22784e-21)
(26.1216 -2.10726 2.22795e-21)
(26.1218 -2.10782 -4.45645e-21)
(26.1219 -2.10836 0)
(26.1221 -2.10888 0)
(26.1222 -2.10939 -2.22892e-21)
(26.1223 -2.10989 9.12807e-18)
(26.1225 -2.11036 -9.13113e-18)
(26.1226 -2.11083 0)
(26.1228 -2.11127 1.08612e-25)
(26.1229 -2.1117 0)
(26.123 -2.11212 0)
(26.1232 -2.11252 0)
(26.1233 -2.1129 -9.13803e-18)
(26.1234 -2.11327 9.13876e-18)
(26.1236 -2.11363 0)
(26.1237 -2.11397 0)
(26.1239 -2.11429 -1.11558e-21)
(26.124 -2.1146 -1.11561e-21)
(26.1241 -2.1149 0)
(26.1243 -2.11518 0)
(26.1244 -2.11545 -1.1159e-21)
(26.1246 -2.1157 0)
(26.1247 -2.11594 -9.14358e-18)
(26.1248 -2.11616 9.14305e-18)
(26.125 -2.11637 -2.23232e-21)
(26.1251 -2.11657 9.14531e-18)
(26.1253 -2.11675 -1.82895e-17)
(26.1254 -2.11692 9.14528e-18)
(26.1255 -2.11708 -1.82927e-17)
(26.1257 -2.11722 3.65841e-17)
(26.1258 -2.11735 -1.82925e-17)
(26.1259 -2.11746 1.11658e-21)
(26.1261 -2.11756 0)
(26.1262 -2.11765 -5.44457e-26)
(26.1264 -2.11772 1.1168e-21)
(26.1265 -2.11779 -1.82993e-17)
(26.1266 -2.11784 1.83001e-17)
(26.1268 -2.11787 0)
(26.1269 -2.1179 -1.83005e-17)
(26.1271 -2.11791 1.83002e-17)
(26.1272 -2.1179 0)
(26.1273 -2.11789 1.83021e-17)
(26.1275 -2.11786 -1.83034e-17)
(26.1276 -2.11783 1.11716e-21)
(26.1278 -2.11778 1.83052e-17)
(26.1279 -2.11771 -1.83052e-17)
(26.128 -2.11764 1.11729e-21)
(26.1282 -2.11755 5.58675e-22)
(26.1283 -2.11746 1.83063e-17)
(26.1285 -2.11735 -1.83073e-17)
(26.1286 -2.11723 1.83078e-17)
(26.1288 -2.11709 -1.83093e-17)
(26.1289 -2.11695 -1.83086e-17)
(26.129 -2.1168 1.8309e-17)
(26.1292 -2.11663 0)
(26.1293 -2.11646 0)
(26.1295 -2.11627 0)
(26.1296 -2.11607 -1.83105e-17)
(26.1298 -2.11586 1.83107e-17)
(26.1299 -2.11564 0)
(26.13 -2.11541 1.83109e-17)
(26.1302 -2.11518 -3.66218e-17)
(26.1303 -2.11493 1.43978e-25)
(26.1305 -2.11467 1.83114e-17)
(26.1306 -2.1144 1.39701e-22)
(26.1308 -2.11411 -3.12696e-17)
(26.2684 -2.17192 -2.42541e-21)
(26.2686 -2.17256 0)
(26.2688 -2.17328 -1.24218e-18)
(26.269 -2.17399 -2.4265e-21)
(26.2692 -2.17469 2.42686e-21)
(26.2694 -2.17537 -2.42702e-21)
(26.2696 -2.17604 1.24284e-18)
(26.2698 -2.17669 2.42779e-21)
(26.27 -2.17733 2.42811e-21)
(26.2702 -2.17796 0)
(26.2704 -2.17857 2.4286e-21)
(26.2706 -2.17916 0)
(26.2708 -2.17974 0)
(26.271 -2.1803 4.97572e-18)
(26.2712 -2.18085 -4.97874e-18)
(26.2714 -2.18138 0)
(26.2716 -2.1819 -2.43035e-21)
(26.2718 -2.1824 -1.23564e-25)
(26.272 -2.18289 -2.43103e-21)
(26.2722 -2.18336 0)
(26.2724 -2.18381 -4.9773e-18)
(26.2726 -2.18425 9.96298e-18)
(26.2728 -2.18468 -4.98081e-18)
(26.273 -2.18509 -2.43236e-21)
(26.2732 -2.18548 4.8651e-21)
(26.2734 -2.18586 4.98236e-18)
(26.2736 -2.18623 -4.9853e-18)
(26.2738 -2.18658 -4.98579e-18)
(26.274 -2.18691 4.98385e-18)
(26.2742 -2.18723 0)
(26.2744 -2.18754 9.9696e-18)
(26.2746 -2.18783 -1.9941e-17)
(26.2748 -2.18811 1.99404e-17)
(26.275 -2.18837 -9.96989e-18)
(26.2752 -2.18862 0)
(26.2754 -2.18886 2.43514e-21)
(26.2755 -2.18908 -1.24034e-25)
(26.2757 -2.18929 2.43543e-21)
(26.2759 -2.18948 0)
(26.2761 -2.18967 0)
(26.2763 -2.18983 3.65408e-21)
(26.2765 -2.18999 0)
(26.2767 -2.19013 -9.97966e-18)
(26.2769 -2.19026 9.97796e-18)
(26.2771 -2.19037 0)
(26.2773 -2.19047 -1.21839e-21)
(26.2775 -2.19056 -1.21854e-21)
(26.2777 -2.19063 1.21868e-21)
(26.2779 -2.1907 9.98261e-18)
(26.2781 -2.19075 -9.98447e-18)
(26.2783 -2.19078 1.21885e-21)
(26.2785 -2.19081 0)
(26.2787 -2.19082 6.21922e-26)
(26.2789 -2.19082 9.98443e-18)
(26.2791 -2.19081 -1.99761e-17)
(26.2793 -2.19079 9.98797e-18)
(26.2795 -2.19075 -1.21933e-21)
(26.2797 -2.1907 1.9978e-17)
(26.2799 -2.19064 -1.99778e-17)
(26.2801 -2.19057 0)
(26.2803 -2.19049 -1.21951e-21)
(26.2805 -2.1904 1.99806e-17)
(26.2807 -2.19029 -1.99839e-17)
(26.2809 -2.19017 -1.99835e-17)
(26.2811 -2.19005 3.85296e-25)
(26.2813 -2.18991 1.99851e-17)
(26.2815 -2.18976 -1.21987e-21)
(26.2817 -2.1896 0)
(26.2819 -2.18942 0)
(26.2821 -2.18924 6.09936e-22)
(26.2823 -2.18905 0)
(26.2825 -2.18885 6.10035e-22)
(26.2827 -2.18863 -1.99896e-17)
(26.2829 -2.18841 1.99896e-17)
(26.2831 -2.18818 6.10083e-22)
(26.2833 -2.18793 1.99911e-17)
(26.2835 -2.18768 -1.99915e-17)
(26.2837 -2.18742 -1.99925e-17)
(26.2839 -2.18714 1.99917e-17)
(26.2841 -2.18686 -1.9992e-17)
(26.2843 -2.18657 1.99935e-17)
(26.2845 -2.18627 -3.0508e-22)
(26.2847 -2.18596 -3.05068e-22)
(26.2849 -2.18564 -3.05071e-22)
(26.2851 -2.18531 -3.05089e-22)
(26.2853 -2.18497 1.99939e-17)
(26.2855 -2.18463 -1.9994e-17)
(26.2857 -2.18427 -4.57625e-22)
(26.286 -2.1839 3.40145e-17)
(26.4212 -2.22194 -5.10096e-19)
(26.4214 -2.22244 3.3835e-19)
(26.4217 -2.223 -6.71508e-19)
(26.4219 -2.22355 2.03067e-18)
(26.4221 -2.22408 -5.28881e-21)
(26.4223 -2.2246 -1.3568e-18)
(26.4225 -2.22511 1.35434e-18)
(26.4228 -2.2256 -1.35452e-18)
(26.423 -2.22608 2.70676e-18)
(26.4232 -2.22654 -2.70976e-18)
(26.4234 -2.22699 -2.71541e-18)
(26.4237 -2.22742 5.41828e-18)
(26.4239 -2.22783 -5.42161e-18)
(26.4241 -2.22823 2.71115e-18)
(26.4243 -2.22862 -2.64786e-21)
(26.4245 -2.22899 -5.42098e-18)
(26.4248 -2.22935 5.42429e-18)
(26.425 -2.22969 -2.64895e-21)
(26.4252 -2.23002 0)
(26.4254 -2.23033 0)
(26.4257 -2.23063 0)
(26.4259 -2.23091 5.42743e-18)
(26.4261 -2.23118 -5.43068e-18)
(26.4263 -2.23144 -5.42862e-18)
(26.4265 -2.23168 5.42656e-18)
(26.4268 -2.2319 0)
(26.427 -2.23211 1.34976e-25)
(26.4272 -2.23231 2.65187e-21)
(26.4274 -2.2325 0)
(26.4276 -2.23267 5.43199e-18)
(26.4279 -2.23282 -5.43517e-18)
(26.4281 -2.23297 2.65291e-21)
(26.4283 -2.2331 2.65316e-21)
(26.4285 -2.23322 -2.65341e-21)
(26.4288 -2.23332 0)
(26.429 -2.23341 0)
(26.4292 -2.23349 1.08684e-17)
(26.4294 -2.23355 -1.08746e-17)
(26.4296 -2.2336 1.08729e-17)
(26.4299 -2.23364 -1.08738e-17)
(26.4301 -2.23367 -1.08773e-17)
(26.4303 -2.23368 1.08728e-17)
(26.4305 -2.23368 0)
(26.4308 -2.23367 2.65562e-21)
(26.431 -2.23364 0)
(26.4312 -2.23361 2.65601e-21)
(26.4314 -2.23356 3.98416e-21)
(26.4316 -2.2335 -1.08803e-17)
(26.4319 -2.23343 1.08823e-17)
(26.4321 -2.23334 1.08817e-17)
(26.4323 -2.23325 -1.08838e-17)
(26.4325 -2.23314 0)
(26.4328 -2.23302 1.32862e-21)
(26.433 -2.23289 1.3287e-21)
(26.4332 -2.23275 0)
(26.4334 -2.2326 -1.0887e-17)
(26.4336 -2.23243 1.08849e-17)
(26.4339 -2.23226 -1.08868e-17)
(26.4341 -2.23207 1.08887e-17)
(26.4343 -2.23188 0)
(26.4345 -2.23167 1.32919e-21)
(26.4348 -2.23145 -1.08876e-17)
(26.435 -2.23122 1.08908e-17)
(26.4352 -2.23098 1.32929e-21)
(26.4354 -2.23073 1.32935e-21)
(26.4357 -2.23048 1.3294e-21)
(26.4359 -2.23021 0)
(26.4361 -2.22993 0)
(26.4363 -2.22964 0)
(26.4366 -2.22934 -1.32966e-21)
(26.4368 -2.22903 0)
(26.437 -2.22871 2.17873e-17)
(26.4372 -2.22838 -4.63836e-25)
(26.4375 -2.22805 -2.17858e-17)
(26.4377 -2.2277 -6.64887e-22)
(26.4379 -2.22734 0)
(26.4381 -2.22698 0)
(26.4384 -2.22661 1.32989e-21)
(26.4386 -2.22622 6.64975e-22)
(26.4388 -2.22583 -2.17904e-17)
(26.4391 -2.22543 -6.64518e-22)
(26.4393 -2.22502 2.17897e-17)
(26.4395 -2.22461 -2.17903e-17)
(26.4397 -2.22418 2.17911e-17)
(26.44 -2.22375 0)
(26.4402 -2.22331 0)
(26.4404 -2.22286 -3.32498e-22)
(26.4407 -2.2224 3.32516e-22)
(26.4409 -2.22192 0)
(26.5791 -2.30482 -3.62345e-19)
(26.5794 -2.30523 -5.7525e-21)
(26.5796 -2.30568 1.47281e-18)
(26.5799 -2.3061 -1.46727e-18)
(26.5802 -2.30649 3.03425e-25)
(26.5805 -2.30685 -5.75548e-21)
(26.5808 -2.30719 0)
(26.5811 -2.30751 2.87869e-21)
(26.5813 -2.3078 0)
(26.5816 -2.30809 2.87946e-21)
(26.5819 -2.30835 2.87985e-21)
(26.5822 -2.3086 0)
(26.5825 -2.30883 2.94965e-18)
(26.5828 -2.30905 2.88087e-21)
(26.583 -2.30925 -5.90368e-18)
(26.5833 -2.30944 2.88177e-21)
(26.5836 -2.30961 2.94825e-18)
(26.5839 -2.30977 2.88223e-21)
(26.5842 -2.30991 -5.90655e-18)
(26.5845 -2.31004 5.90436e-18)
(26.5847 -2.31016 -5.90216e-18)
(26.585 -2.31026 5.9086e-18)
(26.5853 -2.31035 -5.90349e-18)
(26.5856 -2.31043 5.90703e-18)
(26.5859 -2.31049 5.90767e-18)
(26.5862 -2.31054 -5.90541e-18)
(26.5864 -2.31058 0)
(26.5867 -2.3106 0)
(26.587 -2.31061 -5.91013e-18)
(26.5873 -2.31061 5.77238e-21)
(26.5876 -2.3106 1.18226e-17)
(26.5879 -2.31057 -5.91187e-18)
(26.5881 -2.31053 2.88685e-21)
(26.5884 -2.31048 0)
(26.5887 -2.31042 5.91352e-18)
(26.589 -2.31034 -5.91405e-18)
(26.5893 -2.31025 2.8879e-21)
(26.5896 -2.31015 -2.88814e-21)
(26.5898 -2.31004 0)
(26.5901 -2.30992 0)
(26.5904 -2.30978 1.18389e-17)
(26.5907 -2.30964 -3.8596e-25)
(26.591 -2.30948 -1.18349e-17)
(26.5913 -2.30931 0)
(26.5916 -2.30913 0)
(26.5918 -2.30894 -1.18405e-17)
(26.5921 -2.30874 1.18384e-17)
(26.5924 -2.30852 -1.18392e-17)
(26.5927 -2.3083 1.184e-17)
(26.593 -2.30806 0)
(26.5933 -2.30782 1.18416e-17)
(26.5936 -2.30756 -1.18423e-17)
(26.5938 -2.3073 0)
(26.5941 -2.30702 0)
(26.5944 -2.30673 1.44589e-21)
(26.5947 -2.30644 -1.18436e-17)
(26.595 -2.30613 1.18457e-17)
(26.5953 -2.30581 -1.44612e-21)
(26.5956 -2.30548 -1.44611e-21)
(26.5958 -2.30515 -1.18475e-17)
(26.5961 -2.3048 1.18495e-17)
(26.5964 -2.30445 1.44632e-21)
(26.5967 -2.30408 1.18462e-17)
(26.597 -2.30371 -2.3702e-17)
(26.5973 -2.30332 1.18486e-17)
(26.5976 -2.30293 -1.44655e-21)
(26.5979 -2.30253 1.18495e-17)
(26.5982 -2.30212 -1.18513e-17)
(26.5984 -2.3017 0)
(26.5987 -2.30127 -1.44675e-21)
(26.599 -2.30083 -7.73709e-26)
(26.5993 -2.30039 1.44683e-21)
(26.5996 -2.29994 -7.23474e-22)
(26.5999 -2.29947 -1.18526e-17)
(26.6002 -2.299 -1.18536e-17)
(26.6005 -2.29852 2.37078e-17)
(26.6008 -2.29804 -7.23537e-22)
(26.6011 -2.29754 0)
(26.6014 -2.29704 2.3709e-17)
(26.6017 -2.29653 -2.37086e-17)
(26.6019 -2.29601 3.87803e-26)
(26.6022 -2.29549 0)
(26.6025 -2.29496 7.23555e-22)
(26.6028 -2.29442 -2.37106e-17)
(26.6031 -2.29387 4.74208e-17)
(26.6034 -2.29332 -4.74206e-17)
(26.6037 -2.29275 3.63524e-22)
(26.604 -2.29218 8.01135e-17)
(26.7398 -2.37587 -6.24803e-21)
(26.7401 -2.37611 6.24864e-21)
(26.7404 -2.37639 7.99968e-19)
(26.7407 -2.37664 -7.93836e-19)
(26.7411 -2.37686 6.25174e-21)
(26.7414 -2.37705 1.2505e-20)
(26.7417 -2.37722 -1.59461e-18)
(26.742 -2.37737 6.26944e-26)
(26.7424 -2.37751 3.20263e-18)
(26.7427 -2.37762 -1.60154e-18)
(26.743 -2.37772 -3.20977e-18)
(26.7434 -2.3778 3.20394e-18)
(26.7437 -2.37787 -6.25834e-21)
(26.744 -2.37792 -3.20478e-18)
(26.7443 -2.37796 3.2052e-18)
(26.7447 -2.37799 3.19934e-18)
(26.745 -2.378 -6.40889e-18)
(26.7453 -2.378 3.20954e-18)
(26.7456 -2.37798 3.20993e-18)
(26.746 -2.37795 -3.20718e-18)
(26.7463 -2.37791 -6.41826e-18)
(26.7466 -2.37785 6.41587e-18)
(26.7469 -2.37779 -6.26621e-21)
(26.7473 -2.3777 -3.13337e-21)