/*--------------------------------*- C++ -*----------------------------------*\
  =========                 |
  \\      /  F ield         | OpenFOAM: The Open Source CFD Toolbox
   \\    /   O peration     | Website:  https://openfoam.org
    \\  /    A nd           | Version:  8
     \\/     M anipulation  |
\*---------------------------------------------------------------------------*/
FoamFile
{
    version     2.0;
    format      ascii;
    class       volScalarField;
    location    "4.5";
    object      p;
}
// * * * * * * * * * * * * * * * * * * * * * * * * * * * * * * * * * * * * * //

dimensions      [0 2 -2 0 0 0 0];

internalField   nonuniform List<scalar> 
262620
(
-1.36418
-1.36439
-1.36507
-1.36608
-1.36742
-1.36906
-1.37099
-1.37319
-1.37565
-1.37835
-1.38127
-1.38439
-1.3877
-1.3912
-1.39485
-1.39865
-1.40259
-1.40666
-1.41084
-1.41512
-1.41949
-1.42395
-1.42847
-1.43306
-1.4377
-1.44239
-1.44712
-1.45188
-1.45667
-1.46147
-1.46628
-1.4711
-1.47592
-1.48074
-1.48555
-1.49034
-1.49512
-1.49988
-1.50461
-1.50932
-1.514
-1.51864
-1.52324
-1.52781
-1.53234
-1.53682
-1.54126
-1.54566
-1.55
-1.5543
-1.55855
-1.56275
-1.5669
-1.57099
-1.57504
-1.57902
-1.58296
-1.58684
-1.59066
-1.59444
-1.59815
-1.60181
-1.60542
-1.60897
-1.61247
-1.61591
-1.6193
-1.62263
-1.62591
-1.62914
-1.63231
-1.63543
-1.6385
-1.64152
-1.64449
-1.6474
-1.65027
-1.65309
-1.65586
-1.65858
-1.66125
-1.66388
-1.66645
-1.66899
-1.67148
-1.67392
-1.67632
-1.67868
-1.68099
-1.68327
-1.6855
-1.68769
-1.68984
-1.69195
-1.69403
-1.69606
-1.69806
-1.70002
-1.70194
-1.70383
-1.70569
-1.70751
-1.7093
-1.71105
-1.71277
-1.71446
-1.71612
-1.71775
-1.71934
-1.72091
-1.72245
-1.72396
-1.72544
-1.7269
-1.72832
-1.72973
-1.7311
-1.73245
-1.73377
-1.73507
-1.36405
-1.36426
-1.36493
-1.36595
-1.36728
-1.36892
-1.37085
-1.37305
-1.37551
-1.3782
-1.38112
-1.38424
-1.38756
-1.39105
-1.39471
-1.39851
-1.40245
-1.40652
-1.4107
-1.41498
-1.41935
-1.42381
-1.42834
-1.43293
-1.43757
-1.44226
-1.44699
-1.45175
-1.45654
-1.46134
-1.46616
-1.47098
-1.4758
-1.48062
-1.48543
-1.49023
-1.49501
-1.49977
-1.50451
-1.50922
-1.5139
-1.51854
-1.52315
-1.52772
-1.53225
-1.53674
-1.54118
-1.54558
-1.54993
-1.55423
-1.55848
-1.56268
-1.56683
-1.57093
-1.57498
-1.57897
-1.58291
-1.58679
-1.59062
-1.59439
-1.59811
-1.60177
-1.60538
-1.60894
-1.61244
-1.61588
-1.61927
-1.62261
-1.62589
-1.62912
-1.6323
-1.63542
-1.6385
-1.64152
-1.64449
-1.64741
-1.65028
-1.6531
-1.65587
-1.65859
-1.66127
-1.66389
-1.66648
-1.66901
-1.6715
-1.67395
-1.67635
-1.67871
-1.68103
-1.68331
-1.68554
-1.68773
-1.68989
-1.692
-1.69408
-1.69611
-1.69811
-1.70008
-1.70201
-1.7039
-1.70575
-1.70758
-1.70937
-1.71112
-1.71285
-1.71454
-1.7162
-1.71783
-1.71943
-1.72099
-1.72253
-1.72405
-1.72553
-1.72699
-1.72842
-1.72982
-1.73119
-1.73254
-1.73387
-1.73517
-1.36381
-1.36402
-1.36469
-1.3657
-1.36703
-1.36867
-1.3706
-1.3728
-1.37526
-1.37795
-1.38087
-1.38399
-1.38731
-1.3908
-1.39445
-1.39826
-1.4022
-1.40627
-1.41045
-1.41473
-1.41911
-1.42357
-1.4281
-1.43269
-1.43734
-1.44203
-1.44676
-1.45153
-1.45632
-1.46113
-1.46594
-1.47077
-1.4756
-1.48042
-1.48524
-1.49004
-1.49483
-1.49959
-1.50433
-1.50905
-1.51373
-1.51838
-1.52299
-1.52757
-1.5321
-1.53659
-1.54104
-1.54544
-1.5498
-1.55411
-1.55836
-1.56257
-1.56673
-1.57083
-1.57488
-1.57888
-1.58282
-1.58671
-1.59054
-1.59432
-1.59804
-1.60171
-1.60533
-1.60888
-1.61239
-1.61584
-1.61923
-1.62258
-1.62586
-1.6291
-1.63228
-1.63541
-1.63849
-1.64151
-1.64449
-1.64741
-1.65028
-1.65311
-1.65588
-1.65861
-1.66129
-1.66392
-1.66651
-1.66905
-1.67154
-1.67399
-1.6764
-1.67876
-1.68108
-1.68336
-1.6856
-1.6878
-1.68995
-1.69207
-1.69415
-1.69619
-1.69819
-1.70016
-1.70209
-1.70399
-1.70585
-1.70767
-1.70946
-1.71122
-1.71295
-1.71464
-1.71631
-1.71794
-1.71954
-1.72111
-1.72265
-1.72417
-1.72566
-1.72711
-1.72855
-1.72995
-1.73133
-1.73268
-1.73401
-1.73532
-1.36346
-1.36367
-1.36433
-1.36534
-1.36667
-1.3683
-1.37023
-1.37243
-1.37488
-1.37757
-1.38049
-1.38361
-1.38693
-1.39042
-1.39408
-1.39788
-1.40183
-1.40589
-1.41008
-1.41436
-1.41874
-1.4232
-1.42774
-1.43233
-1.43698
-1.44168
-1.44642
-1.45119
-1.45599
-1.4608
-1.46562
-1.47046
-1.47529
-1.48012
-1.48494
-1.48975
-1.49454
-1.49931
-1.50406
-1.50878
-1.51347
-1.51813
-1.52275
-1.52733
-1.53187
-1.53637
-1.54083
-1.54524
-1.5496
-1.55392
-1.55818
-1.5624
-1.56656
-1.57067
-1.57473
-1.57873
-1.58268
-1.58658
-1.59042
-1.59421
-1.59794
-1.60161
-1.60524
-1.6088
-1.61231
-1.61577
-1.61917
-1.62252
-1.62582
-1.62906
-1.63225
-1.63539
-1.63847
-1.6415
-1.64448
-1.64741
-1.65029
-1.65313
-1.65591
-1.65864
-1.66133
-1.66397
-1.66656
-1.6691
-1.67161
-1.67406
-1.67648
-1.67885
-1.68117
-1.68346
-1.6857
-1.6879
-1.69007
-1.69219
-1.69427
-1.69632
-1.69833
-1.7003
-1.70224
-1.70414
-1.706
-1.70783
-1.70963
-1.71139
-1.71312
-1.71482
-1.71649
-1.71813
-1.71973
-1.72131
-1.72286
-1.72438
-1.72587
-1.72733
-1.72876
-1.73017
-1.73156
-1.73291
-1.73425
-1.73555
-1.36301
-1.36321
-1.36386
-1.36487
-1.36618
-1.36781
-1.36974
-1.37193
-1.37438
-1.37707
-1.37999
-1.38311
-1.38643
-1.38992
-1.39358
-1.39738
-1.40133
-1.4054
-1.40959
-1.41388
-1.41826
-1.42272
-1.42726
-1.43186
-1.43652
-1.44123
-1.44597
-1.45075
-1.45555
-1.46037
-1.4652
-1.47004
-1.47488
-1.47972
-1.48455
-1.48937
-1.49417
-1.49895
-1.50371
-1.50844
-1.51313
-1.5178
-1.52243
-1.52702
-1.53158
-1.53609
-1.54055
-1.54497
-1.54935
-1.55367
-1.55795
-1.56217
-1.56634
-1.57046
-1.57453
-1.57855
-1.58251
-1.58641
-1.59026
-1.59406
-1.5978
-1.60149
-1.60512
-1.6087
-1.61222
-1.61568
-1.6191
-1.62246
-1.62576
-1.62901
-1.63221
-1.63536
-1.63845
-1.64149
-1.64448
-1.64742
-1.65031
-1.65315
-1.65594
-1.65868
-1.66138
-1.66402
-1.66662
-1.66918
-1.67169
-1.67415
-1.67657
-1.67895
-1.68128
-1.68358
-1.68583
-1.68804
-1.69021
-1.69234
-1.69443
-1.69648
-1.6985
-1.70048
-1.70242
-1.70432
-1.7062
-1.70803
-1.70984
-1.71161
-1.71334
-1.71505
-1.71672
-1.71836
-1.71998
-1.72156
-1.72311
-1.72463
-1.72613
-1.7276
-1.72904
-1.73045
-1.73184
-1.7332
-1.73454
-1.73585
-1.36244
-1.36263
-1.36328
-1.36427
-1.36559
-1.36721
-1.36913
-1.37132
-1.37377
-1.37646
-1.37937
-1.38249
-1.38581
-1.3893
-1.39296
-1.39677
-1.40071
-1.40479
-1.40898
-1.41327
-1.41766
-1.42213
-1.42667
-1.43128
-1.43595
-1.44066
-1.44541
-1.45019
-1.455
-1.45983
-1.46467
-1.46952
-1.47438
-1.47922
-1.48406
-1.48889
-1.49371
-1.4985
-1.50327
-1.50801
-1.51272
-1.51739
-1.52204
-1.52664
-1.53121
-1.53573
-1.54021
-1.54464
-1.54902
-1.55336
-1.55765
-1.56189
-1.56607
-1.57021
-1.57429
-1.57831
-1.58229
-1.58621
-1.59007
-1.59388
-1.59763
-1.60133
-1.60497
-1.60856
-1.6121
-1.61558
-1.619
-1.62237
-1.62569
-1.62895
-1.63216
-1.63532
-1.63842
-1.64147
-1.64448
-1.64743
-1.65033
-1.65318
-1.65598
-1.65873
-1.66144
-1.66409
-1.66671
-1.66927
-1.67179
-1.67426
-1.67669
-1.67908
-1.68143
-1.68373
-1.68599
-1.68821
-1.69039
-1.69252
-1.69462
-1.69669
-1.69871
-1.7007
-1.70265
-1.70456
-1.70644
-1.70829
-1.7101
-1.71188
-1.71362
-1.71533
-1.71701
-1.71866
-1.72028
-1.72187
-1.72343
-1.72496
-1.72647
-1.72794
-1.72939
-1.73081
-1.7322
-1.73357
-1.73492
-1.73623
-1.36176
-1.36194
-1.36258
-1.36357
-1.36488
-1.36649
-1.36841
-1.37059
-1.37304
-1.37572
-1.37863
-1.38175
-1.38507
-1.38856
-1.39222
-1.39603
-1.39998
-1.40406
-1.40826
-1.41256
-1.41695
-1.42143
-1.42598
-1.43059
-1.43526
-1.43998
-1.44474
-1.44954
-1.45436
-1.4592
-1.46405
-1.46891
-1.47377
-1.47864
-1.48349
-1.48833
-1.49315
-1.49796
-1.50274
-1.5075
-1.51222
-1.51691
-1.52157
-1.52619
-1.53077
-1.5353
-1.5398
-1.54424
-1.54864
-1.553
-1.5573
-1.56155
-1.56575
-1.5699
-1.574
-1.57804
-1.58203
-1.58596
-1.58984
-1.59366
-1.59743
-1.60114
-1.6048
-1.60841
-1.61195
-1.61545
-1.61889
-1.62227
-1.6256
-1.62888
-1.6321
-1.63527
-1.63839
-1.64146
-1.64447
-1.64744
-1.65035
-1.65321
-1.65603
-1.65879
-1.66151
-1.66418
-1.6668
-1.66938
-1.67191
-1.6744
-1.67684
-1.67924
-1.68159
-1.6839
-1.68618
-1.68841
-1.6906
-1.69275
-1.69486
-1.69693
-1.69896
-1.70096
-1.70292
-1.70484
-1.70673
-1.70859
-1.71041
-1.7122
-1.71395
-1.71567
-1.71736
-1.71902
-1.72065
-1.72224
-1.72381
-1.72535
-1.72686
-1.72834
-1.7298
-1.73123
-1.73263
-1.73401
-1.73536
-1.73668
-1.36098
-1.36115
-1.36178
-1.36276
-1.36405
-1.36566
-1.36757
-1.36975
-1.37219
-1.37488
-1.37778
-1.3809
-1.38422
-1.38771
-1.39137
-1.39519
-1.39914
-1.40322
-1.40742
-1.41173
-1.41613
-1.42061
-1.42517
-1.42979
-1.43447
-1.4392
-1.44398
-1.44878
-1.45361
-1.45846
-1.46333
-1.4682
-1.47308
-1.47795
-1.48282
-1.48768
-1.49252
-1.49734
-1.50213
-1.50691
-1.51165
-1.51635
-1.52103
-1.52566
-1.53026
-1.53481
-1.53932
-1.54379
-1.5482
-1.55257
-1.55689
-1.56116
-1.56538
-1.56955
-1.57366
-1.57772
-1.58172
-1.58568
-1.58957
-1.59341
-1.5972
-1.60093
-1.6046
-1.60822
-1.61179
-1.6153
-1.61875
-1.62215
-1.6255
-1.62879
-1.63203
-1.63522
-1.63835
-1.64144
-1.64447
-1.64744
-1.65037
-1.65325
-1.65608
-1.65886
-1.66159
-1.66428
-1.66691
-1.6695
-1.67205
-1.67455
-1.67701
-1.67942
-1.68179
-1.68411
-1.68639
-1.68864
-1.69084
-1.693
-1.69512
-1.69721
-1.69925
-1.70126
-1.70324
-1.70517
-1.70707
-1.70894
-1.71077
-1.71257
-1.71433
-1.71606
-1.71776
-1.71943
-1.72107
-1.72267
-1.72425
-1.7258
-1.72732
-1.72881
-1.73028
-1.73171
-1.73312
-1.73451
-1.73587
-1.7372
-1.3601
-1.36025
-1.36087
-1.36184
-1.36312
-1.36473
-1.36662
-1.3688
-1.37124
-1.37392
-1.37682
-1.37994
-1.38325
-1.38675
-1.39041
-1.39423
-1.39818
-1.40227
-1.40648
-1.41079
-1.41519
-1.41969
-1.42425
-1.42889
-1.43358
-1.43832
-1.4431
-1.44792
-1.45277
-1.45763
-1.46251
-1.4674
-1.47229
-1.47718
-1.48207
-1.48694
-1.4918
-1.49663
-1.50145
-1.50624
-1.511
-1.51572
-1.52041
-1.52507
-1.52968
-1.53425
-1.53878
-1.54327
-1.54771
-1.55209
-1.55643
-1.56072
-1.56496
-1.56915
-1.57328
-1.57736
-1.58138
-1.58535
-1.58927
-1.59313
-1.59693
-1.60068
-1.60438
-1.60802
-1.6116
-1.61513
-1.6186
-1.62202
-1.62539
-1.6287
-1.63196
-1.63516
-1.63831
-1.64141
-1.64446
-1.64746
-1.6504
-1.6533
-1.65614
-1.65894
-1.66169
-1.66439
-1.66704
-1.66965
-1.67221
-1.67472
-1.67719
-1.67962
-1.682
-1.68434
-1.68664
-1.6889
-1.69112
-1.69329
-1.69543
-1.69753
-1.69959
-1.70161
-1.70359
-1.70554
-1.70745
-1.70933
-1.71117
-1.71298
-1.71476
-1.7165
-1.71821
-1.71989
-1.72154
-1.72316
-1.72475
-1.72631
-1.72784
-1.72934
-1.73082
-1.73226
-1.73368
-1.73508
-1.73645
-1.73778
-1.35912
-1.35925
-1.35986
-1.36081
-1.36209
-1.36368
-1.36557
-1.36774
-1.37017
-1.37284
-1.37575
-1.37886
-1.38218
-1.38567
-1.38934
-1.39316
-1.39712
-1.40121
-1.40542
-1.40974
-1.41416
-1.41866
-1.42323
-1.42788
-1.43258
-1.43734
-1.44213
-1.44697
-1.45182
-1.45671
-1.4616
-1.46651
-1.47142
-1.47632
-1.48122
-1.48612
-1.49099
-1.49585
-1.50068
-1.50549
-1.51027
-1.51502
-1.51973
-1.5244
-1.52904
-1.53363
-1.53818
-1.54269
-1.54715
-1.55156
-1.55592
-1.56023
-1.56449
-1.5687
-1.57285
-1.57695
-1.581
-1.58499
-1.58893
-1.59281
-1.59664
-1.60041
-1.60413
-1.60779
-1.61139
-1.61494
-1.61844
-1.62188
-1.62526
-1.62859
-1.63187
-1.6351
-1.63827
-1.64139
-1.64445
-1.64747
-1.65043
-1.65335
-1.65621
-1.65903
-1.66179
-1.66451
-1.66718
-1.66981
-1.67239
-1.67492
-1.67741
-1.67985
-1.68225
-1.68461
-1.68692
-1.68919
-1.69142
-1.69362
-1.69577
-1.69788
-1.69995
-1.70199
-1.70399
-1.70595
-1.70788
-1.70977
-1.71163
-1.71345
-1.71524
-1.717
-1.71872
-1.72041
-1.72208
-1.72371
-1.72531
-1.72688
-1.72842
-1.72993
-1.73142
-1.73288
-1.73431
-1.73572
-1.73709
-1.73844
-1.35803
-1.35815
-1.35874
-1.35968
-1.36095
-1.36253
-1.36441
-1.36657
-1.369
-1.37167
-1.37457
-1.37768
-1.38099
-1.38449
-1.38816
-1.39198
-1.39595
-1.40004
-1.40426
-1.40859
-1.41301
-1.41752
-1.42211
-1.42677
-1.43149
-1.43625
-1.44106
-1.44591
-1.45079
-1.45568
-1.4606
-1.46552
-1.47045
-1.47538
-1.4803
-1.48521
-1.4901
-1.49498
-1.49984
-1.50467
-1.50947
-1.51424
-1.51897
-1.52367
-1.52833
-1.53295
-1.53752
-1.54205
-1.54654
-1.55097
-1.55536
-1.55969
-1.56398
-1.56821
-1.57239
-1.57651
-1.58058
-1.5846
-1.58856
-1.59246
-1.59631
-1.60011
-1.60385
-1.60753
-1.61116
-1.61473
-1.61825
-1.62171
-1.62512
-1.62848
-1.63178
-1.63502
-1.63822
-1.64136
-1.64445
-1.64748
-1.65047
-1.6534
-1.65629
-1.65912
-1.66191
-1.66465
-1.66734
-1.66998
-1.67258
-1.67513
-1.67764
-1.6801
-1.68252
-1.68489
-1.68723
-1.68952
-1.69176
-1.69397
-1.69614
-1.69827
-1.70036
-1.70241
-1.70443
-1.70641
-1.70835
-1.71026
-1.71213
-1.71397
-1.71577
-1.71754
-1.71928
-1.72099
-1.72266
-1.72431
-1.72592
-1.7275
-1.72906
-1.73059
-1.73208
-1.73356
-1.735
-1.73642
-1.73781
-1.73916
-1.35685
-1.35696
-1.35753
-1.35845
-1.35971
-1.36127
-1.36315
-1.3653
-1.36772
-1.37038
-1.37328
-1.37639
-1.3797
-1.3832
-1.38687
-1.39069
-1.39467
-1.39877
-1.403
-1.40733
-1.41177
-1.41629
-1.42089
-1.42556
-1.43029
-1.43507
-1.4399
-1.44476
-1.44965
-1.45457
-1.4595
-1.46445
-1.46939
-1.47434
-1.47928
-1.48422
-1.48914
-1.49404
-1.49892
-1.50377
-1.5086
-1.51339
-1.51815
-1.52287
-1.52756
-1.5322
-1.5368
-1.54136
-1.54587
-1.55033
-1.55474
-1.5591
-1.56341
-1.56767
-1.57187
-1.57603
-1.58012
-1.58416
-1.58815
-1.59208
-1.59596
-1.59978
-1.60355
-1.60726
-1.61091
-1.61451
-1.61805
-1.62154
-1.62497
-1.62835
-1.63167
-1.63494
-1.63816
-1.64133
-1.64444
-1.6475
-1.65051
-1.65346
-1.65637
-1.65923
-1.66204
-1.6648
-1.66751
-1.67017
-1.67279
-1.67537
-1.67789
-1.68037
-1.68281
-1.68521
-1.68756
-1.68987
-1.69214
-1.69436
-1.69655
-1.6987
-1.70081
-1.70288
-1.70491
-1.70691
-1.70886
-1.71079
-1.71268
-1.71453
-1.71635
-1.71814
-1.71989
-1.72161
-1.7233
-1.72496
-1.72659
-1.72819
-1.72976
-1.7313
-1.73281
-1.7343
-1.73575
-1.73718
-1.73858
-1.73995
-1.35558
-1.35566
-1.35621
-1.35713
-1.35836
-1.35992
-1.36178
-1.36392
-1.36633
-1.36899
-1.37189
-1.375
-1.37831
-1.3818
-1.38548
-1.38931
-1.39328
-1.39739
-1.40163
-1.40597
-1.41042
-1.41495
-1.41956
-1.42425
-1.42899
-1.43379
-1.43864
-1.44352
-1.44843
-1.45337
-1.45832
-1.46328
-1.46825
-1.47322
-1.47819
-1.48315
-1.48809
-1.49302
-1.49792
-1.5028
-1.50765
-1.51247
-1.51726
-1.52201
-1.52672
-1.53139
-1.53602
-1.54061
-1.54514
-1.54963
-1.55407
-1.55846
-1.5628
-1.56709
-1.57132
-1.5755
-1.57963
-1.5837
-1.58771
-1.59167
-1.59558
-1.59943
-1.60322
-1.60696
-1.61064
-1.61426
-1.61783
-1.62135
-1.62481
-1.62821
-1.63156
-1.63486
-1.6381
-1.64129
-1.64443
-1.64751
-1.65055
-1.65353
-1.65646
-1.65934
-1.66218
-1.66496
-1.66769
-1.67038
-1.67302
-1.67562
-1.67817
-1.68067
-1.68313
-1.68555
-1.68792
-1.69025
-1.69254
-1.69479
-1.69699
-1.69916
-1.70129
-1.70338
-1.70543
-1.70744
-1.70942
-1.71136
-1.71327
-1.71514
-1.71698
-1.71878
-1.72055
-1.72229
-1.724
-1.72567
-1.72732
-1.72893
-1.73051
-1.73207
-1.7336
-1.7351
-1.73657
-1.73801
-1.73943
-1.74081
-1.35421
-1.35427
-1.3548
-1.3557
-1.35692
-1.35846
-1.36031
-1.36245
-1.36485
-1.3675
-1.37039
-1.3735
-1.37681
-1.38031
-1.38398
-1.38781
-1.3918
-1.39592
-1.40016
-1.40451
-1.40897
-1.41351
-1.41814
-1.42284
-1.4276
-1.43242
-1.43728
-1.44218
-1.44711
-1.45207
-1.45705
-1.46203
-1.46703
-1.47202
-1.47701
-1.482
-1.48697
-1.49192
-1.49685
-1.50176
-1.50664
-1.51149
-1.5163
-1.52108
-1.52582
-1.53053
-1.53518
-1.5398
-1.54436
-1.54888
-1.55335
-1.55777
-1.56214
-1.56646
-1.57073
-1.57494
-1.57909
-1.58319
-1.58724
-1.59123
-1.59516
-1.59904
-1.60287
-1.60663
-1.61034
-1.614
-1.6176
-1.62114
-1.62463
-1.62806
-1.63144
-1.63477
-1.63804
-1.64125
-1.64442
-1.64753
-1.65059
-1.6536
-1.65656
-1.65947
-1.66232
-1.66513
-1.66789
-1.67061
-1.67327
-1.67589
-1.67846
-1.68099
-1.68347
-1.68591
-1.68831
-1.69066
-1.69297
-1.69524
-1.69747
-1.69966
-1.70181
-1.70392
-1.70599
-1.70802
-1.71002
-1.71198
-1.71391
-1.7158
-1.71765
-1.71947
-1.72126
-1.72302
-1.72474
-1.72644
-1.7281
-1.72973
-1.73133
-1.7329
-1.73444
-1.73596
-1.73745
-1.73891
-1.74034
-1.74173
-1.35275
-1.35278
-1.3533
-1.35417
-1.35538
-1.35691
-1.35875
-1.36087
-1.36326
-1.36591
-1.36879
-1.3719
-1.37521
-1.37871
-1.38238
-1.38622
-1.39021
-1.39434
-1.39859
-1.40295
-1.40742
-1.41198
-1.41662
-1.42134
-1.42612
-1.43095
-1.43583
-1.44075
-1.44571
-1.45069
-1.45569
-1.4607
-1.46572
-1.47074
-1.47575
-1.48077
-1.48576
-1.49074
-1.49571
-1.50064
-1.50555
-1.51043
-1.51528
-1.52009
-1.52486
-1.5296
-1.53429
-1.53893
-1.54353
-1.54808
-1.55259
-1.55704
-1.56144
-1.56579
-1.57009
-1.57433
-1.57852
-1.58265
-1.58673
-1.59076
-1.59472
-1.59863
-1.60249
-1.60629
-1.61003
-1.61372
-1.61735
-1.62092
-1.62444
-1.6279
-1.63131
-1.63467
-1.63797
-1.64122
-1.64441
-1.64755
-1.65064
-1.65368
-1.65666
-1.6596
-1.66248
-1.66532
-1.66811
-1.67085
-1.67354
-1.67618
-1.67878
-1.68133
-1.68384
-1.6863
-1.68872
-1.6911
-1.69343
-1.69573
-1.69798
-1.70019
-1.70236
-1.70449
-1.70659
-1.70864
-1.71066
-1.71264
-1.71459
-1.7165
-1.71837
-1.72022
-1.72202
-1.7238
-1.72554
-1.72725
-1.72893
-1.73058
-1.7322
-1.73379
-1.73535
-1.73688
-1.73838
-1.73986
-1.74131
-1.74271
-1.35119
-1.35121
-1.3517
-1.35256
-1.35374
-1.35526
-1.35708
-1.35919
-1.36158
-1.36422
-1.3671
-1.3702
-1.37351
-1.37701
-1.38069
-1.38453
-1.38852
-1.39266
-1.39692
-1.4013
-1.40578
-1.41035
-1.41501
-1.41974
-1.42454
-1.42939
-1.43429
-1.43924
-1.44421
-1.44922
-1.45424
-1.45928
-1.46432
-1.46937
-1.47442
-1.47946
-1.48448
-1.4895
-1.49449
-1.49946
-1.5044
-1.50931
-1.51419
-1.51904
-1.52384
-1.52861
-1.53333
-1.53801
-1.54265
-1.54723
-1.55177
-1.55626
-1.5607
-1.56508
-1.56941
-1.57369
-1.57791
-1.58208
-1.58619
-1.59025
-1.59425
-1.5982
-1.60209
-1.60592
-1.6097
-1.61342
-1.61708
-1.62069
-1.62424
-1.62774
-1.63118
-1.63456
-1.6379
-1.64117
-1.6444
-1.64757
-1.65069
-1.65376
-1.65677
-1.65974
-1.66265
-1.66552
-1.66833
-1.6711
-1.67382
-1.67649
-1.67912
-1.6817
-1.68423
-1.68672
-1.68917
-1.69157
-1.69393
-1.69625
-1.69852
-1.70076
-1.70295
-1.70511
-1.70722
-1.7093
-1.71134
-1.71335
-1.71531
-1.71725
-1.71914
-1.72101
-1.72283
-1.72463
-1.72639
-1.72812
-1.72982
-1.73149
-1.73313
-1.73474
-1.73631
-1.73786
-1.73938
-1.74088
-1.74234
-1.74376
-1.34955
-1.34954
-1.35001
-1.35084
-1.35201
-1.35351
-1.35532
-1.35742
-1.3598
-1.36243
-1.3653
-1.3684
-1.37171
-1.37521
-1.37889
-1.38274
-1.38674
-1.39088
-1.39515
-1.39954
-1.40403
-1.40862
-1.4133
-1.41805
-1.42286
-1.42774
-1.43266
-1.43763
-1.44263
-1.44766
-1.45271
-1.45777
-1.46285
-1.46793
-1.473
-1.47807
-1.48313
-1.48817
-1.4932
-1.4982
-1.50318
-1.50812
-1.51304
-1.51792
-1.52276
-1.52756
-1.53232
-1.53704
-1.54171
-1.54633
-1.55091
-1.55543
-1.5599
-1.56433
-1.56869
-1.57301
-1.57727
-1.58147
-1.58562
-1.58972
-1.59376
-1.59774
-1.60166
-1.60553
-1.60934
-1.6131
-1.6168
-1.62044
-1.62402
-1.62756
-1.63103
-1.63445
-1.63782
-1.64113
-1.64439
-1.64759
-1.65074
-1.65384
-1.65689
-1.65989
-1.66283
-1.66573
-1.66857
-1.67137
-1.67412
-1.67682
-1.67947
-1.68208
-1.68465
-1.68716
-1.68964
-1.69206
-1.69445
-1.69679
-1.6991
-1.70136
-1.70358
-1.70576
-1.7079
-1.71
-1.71207
-1.71409
-1.71608
-1.71804
-1.71996
-1.72184
-1.72369
-1.72551
-1.72729
-1.72905
-1.73077
-1.73245
-1.73411
-1.73574
-1.73734
-1.7389
-1.74045
-1.74196
-1.74344
-1.74487
-1.34782
-1.34778
-1.34823
-1.34904
-1.35019
-1.35167
-1.35347
-1.35556
-1.35792
-1.36055
-1.36341
-1.36651
-1.36981
-1.37332
-1.377
-1.38085
-1.38486
-1.38901
-1.39329
-1.39769
-1.4022
-1.4068
-1.4115
-1.41626
-1.4211
-1.426
-1.43095
-1.43594
-1.44096
-1.44602
-1.45109
-1.45619
-1.46129
-1.4664
-1.47151
-1.47661
-1.4817
-1.48678
-1.49184
-1.49688
-1.50189
-1.50687
-1.51182
-1.51674
-1.52162
-1.52646
-1.53125
-1.53601
-1.54072
-1.54538
-1.54999
-1.55456
-1.55907
-1.56353
-1.56794
-1.57229
-1.57659
-1.58083
-1.58502
-1.58915
-1.59323
-1.59725
-1.60121
-1.60512
-1.60897
-1.61276
-1.6165
-1.62018
-1.6238
-1.62737
-1.63088
-1.63433
-1.63774
-1.64108
-1.64438
-1.64761
-1.6508
-1.65393
-1.65701
-1.66004
-1.66302
-1.66595
-1.66883
-1.67166
-1.67444
-1.67717
-1.67985
-1.68249
-1.68508
-1.68763
-1.69013
-1.69259
-1.695
-1.69737
-1.6997
-1.70199
-1.70424
-1.70644
-1.70861
-1.71074
-1.71283
-1.71488
-1.7169
-1.71888
-1.72082
-1.72273
-1.7246
-1.72644
-1.72825
-1.73002
-1.73176
-1.73347
-1.73515
-1.7368
-1.73842
-1.74
-1.74157
-1.7431
-1.7446
-1.74605
-1.34601
-1.34594
-1.34636
-1.34715
-1.34828
-1.34974
-1.35152
-1.3536
-1.35595
-1.35857
-1.36143
-1.36452
-1.36782
-1.37133
-1.37501
-1.37887
-1.38289
-1.38705
-1.39134
-1.39575
-1.40027
-1.40489
-1.4096
-1.41439
-1.41925
-1.42417
-1.42914
-1.43416
-1.43921
-1.44429
-1.4494
-1.45452
-1.45966
-1.4648
-1.46994
-1.47507
-1.4802
-1.48531
-1.49041
-1.49548
-1.50053
-1.50555
-1.51054
-1.5155
-1.52042
-1.52529
-1.53013
-1.53493
-1.53968
-1.54438
-1.54903
-1.55364
-1.55819
-1.56269
-1.56714
-1.57153
-1.57587
-1.58016
-1.58439
-1.58856
-1.59268
-1.59674
-1.60074
-1.60469
-1.60857
-1.61241
-1.61618
-1.6199
-1.62356
-1.62717
-1.63072
-1.63421
-1.63765
-1.64103
-1.64436
-1.64764
-1.65086
-1.65403
-1.65714
-1.66021
-1.66322
-1.66618
-1.66909
-1.67196
-1.67477
-1.67753
-1.68025
-1.68292
-1.68554
-1.68812
-1.69065
-1.69314
-1.69558
-1.69798
-1.70034
-1.70266
-1.70493
-1.70717
-1.70936
-1.71152
-1.71363
-1.71571
-1.71775
-1.71976
-1.72173
-1.72366
-1.72556
-1.72742
-1.72925
-1.73105
-1.73281
-1.73454
-1.73624
-1.73791
-1.73955
-1.74116
-1.74274
-1.7443
-1.74582
-1.74728
-1.34411
-1.34401
-1.3444
-1.34517
-1.34627
-1.34772
-1.34948
-1.35154
-1.35389
-1.35649
-1.35935
-1.36244
-1.36574
-1.36924
-1.37293
-1.3768
-1.38082
-1.38499
-1.38929
-1.39372
-1.39825
-1.40289
-1.40762
-1.41243
-1.41731
-1.42225
-1.42725
-1.43229
-1.43737
-1.44248
-1.44762
-1.45278
-1.45794
-1.46312
-1.46829
-1.47346
-1.47863
-1.48378
-1.48891
-1.49402
-1.49911
-1.50417
-1.5092
-1.5142
-1.51916
-1.52408
-1.52896
-1.53379
-1.53858
-1.54333
-1.54803
-1.55267
-1.55727
-1.56181
-1.5663
-1.57074
-1.57512
-1.57945
-1.58372
-1.58794
-1.5921
-1.5962
-1.60024
-1.60423
-1.60816
-1.61204
-1.61585
-1.61961
-1.62331
-1.62696
-1.63055
-1.63408
-1.63756
-1.64098
-1.64435
-1.64766
-1.65092
-1.65413
-1.65728
-1.66038
-1.66343
-1.66643
-1.66937
-1.67227
-1.67512
-1.67792
-1.68067
-1.68337
-1.68603
-1.68864
-1.6912
-1.69372
-1.69619
-1.69863
-1.70101
-1.70336
-1.70566
-1.70793
-1.71015
-1.71233
-1.71448
-1.71658
-1.71865
-1.72068
-1.72268
-1.72464
-1.72656
-1.72845
-1.7303
-1.73212
-1.73391
-1.73567
-1.73739
-1.73909
-1.74075
-1.74238
-1.74398
-1.74556
-1.7471
-1.74858
-1.34213
-1.34199
-1.34236
-1.3431
-1.34418
-1.34561
-1.34735
-1.3494
-1.35173
-1.35433
-1.35718
-1.36026
-1.36356
-1.36707
-1.37076
-1.37463
-1.37866
-1.38284
-1.38715
-1.39159
-1.39614
-1.4008
-1.40555
-1.41038
-1.41528
-1.42025
-1.42527
-1.43034
-1.43545
-1.44059
-1.44576
-1.45095
-1.45615
-1.46136
-1.46657
-1.47178
-1.47698
-1.48217
-1.48734
-1.49249
-1.49762
-1.50273
-1.5078
-1.51284
-1.51784
-1.5228
-1.52772
-1.5326
-1.53744
-1.54223
-1.54697
-1.55166
-1.5563
-1.56089
-1.56543
-1.56991
-1.57434
-1.57871
-1.58303
-1.58729
-1.59149
-1.59564
-1.59972
-1.60376
-1.60773
-1.61165
-1.61551
-1.61931
-1.62305
-1.62674
-1.63037
-1.63395
-1.63746
-1.64093
-1.64433
-1.64769
-1.65099
-1.65423
-1.65742
-1.66056
-1.66365
-1.66668
-1.66967
-1.6726
-1.67548
-1.67832
-1.6811
-1.68384
-1.68653
-1.68918
-1.69177
-1.69433
-1.69683
-1.6993
-1.70172
-1.70409
-1.70643
-1.70872
-1.71098
-1.71319
-1.71536
-1.7175
-1.71959
-1.72165
-1.72368
-1.72566
-1.72761
-1.72953
-1.73141
-1.73325
-1.73507
-1.73685
-1.7386
-1.74031
-1.742
-1.74365
-1.74528
-1.74688
-1.74844
-1.74994
-1.34006
-1.33989
-1.34023
-1.34095
-1.34201
-1.34341
-1.34514
-1.34717
-1.34949
-1.35208
-1.35492
-1.358
-1.3613
-1.3648
-1.3685
-1.37237
-1.37641
-1.3806
-1.38492
-1.38938
-1.39395
-1.39862
-1.40339
-1.40824
-1.41317
-1.41816
-1.42321
-1.42831
-1.43345
-1.43862
-1.44382
-1.44904
-1.45428
-1.45953
-1.46478
-1.47002
-1.47526
-1.48049
-1.48571
-1.4909
-1.49607
-1.50122
-1.50633
-1.51141
-1.51646
-1.52147
-1.52644
-1.53137
-1.53625
-1.54108
-1.54587
-1.55061
-1.5553
-1.55993
-1.56451
-1.56904
-1.57352
-1.57794
-1.5823
-1.58661
-1.59085
-1.59505
-1.59918
-1.60326
-1.60728
-1.61124
-1.61514
-1.61899
-1.62278
-1.62651
-1.63019
-1.6338
-1.63736
-1.64087
-1.64432
-1.64771
-1.65105
-1.65434
-1.65757
-1.66075
-1.66388
-1.66695
-1.66997
-1.67294
-1.67587
-1.67874
-1.68156
-1.68433
-1.68706
-1.68974
-1.69237
-1.69496
-1.6975
-1.7
-1.70245
-1.70486
-1.70723
-1.70955
-1.71184
-1.71408
-1.71629
-1.71845
-1.72058
-1.72267
-1.72472
-1.72673
-1.72871
-1.73065
-1.73256
-1.73443
-1.73627
-1.73808
-1.73985
-1.74159
-1.7433
-1.74498
-1.74663
-1.74826
-1.74984
-1.75136
-1.33792
-1.33771
-1.33802
-1.33871
-1.33974
-1.34113
-1.34283
-1.34485
-1.34716
-1.34973
-1.35257
-1.35564
-1.35894
-1.36244
-1.36614
-1.37002
-1.37407
-1.37827
-1.3826
-1.38707
-1.39166
-1.39635
-1.40114
-1.40601
-1.41097
-1.41598
-1.42106
-1.42619
-1.43136
-1.43657
-1.4418
-1.44706
-1.45234
-1.45762
-1.46291
-1.46819
-1.47347
-1.47875
-1.484
-1.48924
-1.49446
-1.49965
-1.50481
-1.50994
-1.51503
-1.52008
-1.5251
-1.53007
-1.535
-1.53989
-1.54472
-1.54951
-1.55425
-1.55893
-1.56356
-1.56814
-1.57266
-1.57713
-1.58154
-1.5859
-1.59019
-1.59443
-1.59862
-1.60274
-1.60681
-1.61082
-1.61477
-1.61866
-1.62249
-1.62627
-1.62999
-1.63365
-1.63726
-1.64081
-1.6443
-1.64774
-1.65112
-1.65445
-1.65773
-1.66095
-1.66411
-1.66723
-1.67029
-1.6733
-1.67626
-1.67917
-1.68203
-1.68485
-1.68761
-1.69033
-1.693
-1.69562
-1.6982
-1.70073
-1.70322
-1.70566
-1.70806
-1.71042
-1.71274
-1.71501
-1.71725
-1.71945
-1.7216
-1.72372
-1.7258
-1.72785
-1.72985
-1.73182
-1.73376
-1.73566
-1.73753
-1.73936
-1.74116
-1.74293
-1.74467
-1.74637
-1.74805
-1.74969
-1.7513
-1.75284
-1.33569
-1.33545
-1.33573
-1.33639
-1.3374
-1.33876
-1.34045
-1.34245
-1.34474
-1.3473
-1.35013
-1.3532
-1.35649
-1.36
-1.3637
-1.36758
-1.37164
-1.37585
-1.3802
-1.38468
-1.38929
-1.394
-1.39881
-1.4037
-1.40868
-1.41373
-1.41883
-1.42399
-1.4292
-1.43444
-1.43971
-1.445
-1.45031
-1.45564
-1.46096
-1.46629
-1.47162
-1.47693
-1.48223
-1.48752
-1.49278
-1.49801
-1.50322
-1.5084
-1.51354
-1.51864
-1.52371
-1.52873
-1.53371
-1.53864
-1.54353
-1.54837
-1.55315
-1.55789
-1.56257
-1.5672
-1.57177
-1.57629
-1.58075
-1.58516
-1.5895
-1.59379
-1.59803
-1.6022
-1.60632
-1.61037
-1.61437
-1.61831
-1.6222
-1.62602
-1.62979
-1.6335
-1.63715
-1.64075
-1.64429
-1.64777
-1.6512
-1.65457
-1.65789
-1.66115
-1.66436
-1.66752
-1.67062
-1.67368
-1.67668
-1.67963
-1.68253
-1.68538
-1.68818
-1.69094
-1.69364
-1.6963
-1.69892
-1.70149
-1.70401
-1.70649
-1.70893
-1.71132
-1.71367
-1.71598
-1.71825
-1.72048
-1.72267
-1.72482
-1.72693
-1.72901
-1.73104
-1.73304
-1.73501
-1.73694
-1.73884
-1.7407
-1.74253
-1.74432
-1.74608
-1.74782
-1.74952
-1.75119
-1.75282
-1.75439
-1.33339
-1.33311
-1.33336
-1.33399
-1.33497
-1.3363
-1.33797
-1.33995
-1.34223
-1.34479
-1.3476
-1.35067
-1.35396
-1.35746
-1.36117
-1.36506
-1.36912
-1.37334
-1.37771
-1.3822
-1.38683
-1.39156
-1.39639
-1.40131
-1.40631
-1.41139
-1.41652
-1.42172
-1.42695
-1.43223
-1.43753
-1.44287
-1.44822
-1.45358
-1.45895
-1.46432
-1.46969
-1.47505
-1.4804
-1.48573
-1.49103
-1.49632
-1.50158
-1.5068
-1.51199
-1.51715
-1.52226
-1.52734
-1.53237
-1.53735
-1.54229
-1.54718
-1.55202
-1.55681
-1.56154
-1.56622
-1.57085
-1.57542
-1.57993
-1.58439
-1.58879
-1.59313
-1.59742
-1.60164
-1.60581
-1.60992
-1.61397
-1.61796
-1.62189
-1.62576
-1.62958
-1.63334
-1.63704
-1.64068
-1.64427
-1.6478
-1.65127
-1.65469
-1.65805
-1.66136
-1.66462
-1.66782
-1.67097
-1.67406
-1.67711
-1.6801
-1.68304
-1.68593
-1.68878
-1.69157
-1.69432
-1.69702
-1.69967
-1.70228
-1.70484
-1.70735
-1.70983
-1.71226
-1.71464
-1.71699
-1.71929
-1.72155
-1.72378
-1.72596
-1.7281
-1.73021
-1.73228
-1.73431
-1.73631
-1.73827
-1.74019
-1.74209
-1.74394
-1.74577
-1.74756
-1.74932
-1.75105
-1.75274
-1.7544
-1.75599
-1.33101
-1.3307
-1.33091
-1.3315
-1.33246
-1.33377
-1.33542
-1.33738
-1.33964
-1.34219
-1.34499
-1.34805
-1.35134
-1.35485
-1.35855
-1.36245
-1.36652
-1.37075
-1.37513
-1.37964
-1.38428
-1.38903
-1.39389
-1.39883
-1.40386
-1.40897
-1.41413
-1.41936
-1.42463
-1.42994
-1.43529
-1.44066
-1.44605
-1.45145
-1.45686
-1.46228
-1.46769
-1.4731
-1.47849
-1.48387
-1.48923
-1.49456
-1.49987
-1.50515
-1.51039
-1.5156
-1.52077
-1.52589
-1.53098
-1.53602
-1.54101
-1.54595
-1.55085
-1.55569
-1.56048
-1.56521
-1.56989
-1.57452
-1.57908
-1.58359
-1.58805
-1.59244
-1.59678
-1.60106
-1.60528
-1.60944
-1.61354
-1.61758
-1.62157
-1.62549
-1.62936
-1.63317
-1.63692
-1.64061
-1.64425
-1.64783
-1.65135
-1.65482
-1.65823
-1.66158
-1.66488
-1.66813
-1.67132
-1.67446
-1.67755
-1.68059
-1.68357
-1.68651
-1.68939
-1.69223
-1.69502
-1.69776
-1.70045
-1.70309
-1.70569
-1.70825
-1.71076
-1.71323
-1.71565
-1.71803
-1.72037
-1.72267
-1.72493
-1.72714
-1.72932
-1.73146
-1.73356
-1.73563
-1.73766
-1.73965
-1.7416
-1.74352
-1.74541
-1.74726
-1.74909
-1.75087
-1.75263
-1.75436
-1.75604
-1.75765
-1.32855
-1.3282
-1.32838
-1.32894
-1.32987
-1.33115
-1.33278
-1.33472
-1.33697
-1.3395
-1.3423
-1.34535
-1.34864
-1.35214
-1.35585
-1.35975
-1.36383
-1.36807
-1.37246
-1.37699
-1.38165
-1.38642
-1.3913
-1.39628
-1.40133
-1.40647
-1.41166
-1.41692
-1.42223
-1.42758
-1.43296
-1.43837
-1.4438
-1.44925
-1.45471
-1.46017
-1.46563
-1.47108
-1.47653
-1.48195
-1.48736
-1.49275
-1.49811
-1.50344
-1.50873
-1.51399
-1.51922
-1.5244
-1.52954
-1.53463
-1.53968
-1.54468
-1.54963
-1.55453
-1.55937
-1.56416
-1.5689
-1.57358
-1.5782
-1.58277
-1.58728
-1.59173
-1.59612
-1.60046
-1.60473
-1.60895
-1.6131
-1.6172
-1.62124
-1.62522
-1.62913
-1.633
-1.6368
-1.64054
-1.64423
-1.64786
-1.65143
-1.65494
-1.6584
-1.66181
-1.66516
-1.66845
-1.67169
-1.67488
-1.67801
-1.68109
-1.68412
-1.6871
-1.69003
-1.69291
-1.69574
-1.69852
-1.70125
-1.70394
-1.70658
-1.70918
-1.71173
-1.71423
-1.71669
-1.71911
-1.72149
-1.72382
-1.72612
-1.72837
-1.73058
-1.73276
-1.73489
-1.73699
-1.73905
-1.74107
-1.74306
-1.74502
-1.74693
-1.74882
-1.75067
-1.75249
-1.75427
-1.75603
-1.75774
-1.75937
-1.32602
-1.32563
-1.32577
-1.3263
-1.3272
-1.32846
-1.33006
-1.33198
-1.33421
-1.33673
-1.33952
-1.34257
-1.34585
-1.34935
-1.35307
-1.35697
-1.36106
-1.36531
-1.36972
-1.37426
-1.37894
-1.38373
-1.38864
-1.39364
-1.39872
-1.40388
-1.40911
-1.41441
-1.41975
-1.42514
-1.43056
-1.43601
-1.44149
-1.44698
-1.45248
-1.45799
-1.4635
-1.469
-1.47449
-1.47997
-1.48543
-1.49087
-1.49628
-1.50167
-1.50702
-1.51234
-1.51762
-1.52285
-1.52805
-1.5332
-1.53831
-1.54336
-1.54837
-1.55333
-1.55823
-1.56308
-1.56787
-1.57261