/*--------------------------------*- C++ -*----------------------------------*\
  =========                 |
  \\      /  F ield         | OpenFOAM: The Open Source CFD Toolbox
   \\    /   O peration     | Website:  https://openfoam.org
    \\  /    A nd           | Version:  8
     \\/     M anipulation  |
\*---------------------------------------------------------------------------*/
FoamFile
{
    version     2.0;
    format      ascii;
    class       surfaceScalarField;
    location    "0.00874";
    object      phi;
}
// * * * * * * * * * * * * * * * * * * * * * * * * * * * * * * * * * * * * * //

dimensions      [0 3 -1 0 0 0 0];

internalField   nonuniform List<scalar> 
214691
(
-0.00359989
0.0263999
-0.00840007
0.0708002
-0.0119999
0.1152
-0.0167996
0.1596
-0.0215994
0.204
-0.0251991
0.2484
-0.028799
0.2916
-0.0323988
0.336
-0.0359985
0.3792
-0.0395983
0.4248
-0.0419981
0.4668
-0.0455979
0.5112
-0.0491976
0.5556
-0.0527974
0.5976
-0.0539972
0.6408
-0.0575969
0.6852
-0.0611967
0.7272
-0.0635964
0.7704
-0.0659962
0.8124
-0.067196
0.8544
-0.0707957
0.8976
-0.0719954
0.9384
-0.0743952
0.9804
-0.0755949
1.0224
-0.0779947
1.0632
-0.0791944
1.104
-0.0815942
1.146
-0.0827939
1.1844
-0.0839937
1.2252
-0.0863934
1.266
-0.0875931
1.3044
-0.0887929
1.344
-0.0899926
1.3824
-0.0899923
1.4208
-0.0911921
1.4592
-0.0911918
1.4964
-0.0923916
1.5348
-0.0935913
1.572
-0.0935911
1.608
-0.0947908
1.644
-0.0947905
1.68
-0.0947903
1.716
-0.09479
1.7496
-0.0947898
1.7856
-0.0947896
1.8192
-0.0947893
1.8528
-0.094789
1.8864
-0.0935888
1.9188
-0.0935886
1.9512
-0.0935883
1.9836
-0.0923881
2.0136
-0.0923879
2.046
-0.0911876
2.0748
-0.0905874
2.10564
-0.0897472
2.13468
-0.088787
2.16336
-0.0878267
2.19168
-0.0868665
2.2194
-0.0856663
2.24652
-0.0844661
2.27304
-0.0832659
2.2992
-0.0819457
2.32464
-0.0805055
2.34948
-0.0790653
2.37384
-0.0776251
2.3976
-0.0760649
2.42076
-0.0743847
2.4432
-0.0728245
2.46528
-0.0711444
2.48664
-0.0693442
2.50728
-0.067544
2.52744
-0.0656239
2.54688
-0.0637037
2.56572
-0.0616635
2.58396
-0.0596234
2.6016
-0.0577032
2.61864
-0.0555431
2.63484
-0.0533829
2.65044
-0.0512228
2.66556
-0.0489427
2.67984
-0.0467825
2.69364
-0.0446224
2.7066
-0.0422223
2.71884
-0.0399422
2.73072
-0.0375421
2.74164
-0.035142
2.75196
-0.0327418
2.76168
-0.0303417
2.77068
-0.0279417
2.77896
-0.0254216
2.78652
-0.0229015
2.79348
-0.0203814
2.79972
-0.0178613
2.80536
-0.0152212
2.81004
-0.0128212
2.81436
-0.0102411
2.8178
-0.00768506
2.82058
-0.005117
2.82266
-0.00254897
2.82404
1.90891e-05
2.82475
0.00258711
2.82475
0.00515516
2.82404
0.00772318
2.82266
0.0102792
2.82058
0.0128592
2.8178
0.0152592
2.81436
0.0178993
2.81004
0.0204193
2.80536
0.0229393
2.79972
0.0254592
2.79348
0.0279792
2.78652
0.0303792
2.77896
0.0327792
2.77068
0.0351792
2.76168
0.0375791
2.75196
0.0399791
2.74164
0.0422591
2.73072
0.044659
2.71884
0.0468189
2.7066
0.0489789
2.69364
0.0512588
2.67984
0.0534188
2.66556
0.0555787
2.65044
0.0577386
2.63484
0.0596585
2.61864
0.0616984
2.6016
0.0637383
2.58396
0.0656582
2.56572
0.0675781
2.54688
0.069378
2.52744
0.0711779
2.50728
0.0728578
2.48664
0.0744176
2.46528
0.0760975
2.4432
0.0776574
2.42076
0.0790972
2.3976
0.0805371
2.37384
0.0819769
2.34948
0.0832967
2.32464
0.0844966
2.2992
0.0856964
2.27304
0.0868962
2.24652
0.0878561
2.2194
0.0888159
2.19168
0.0897757
2.16336
0.0906155
2.13468
0.0912153
2.10564
0.0924151
2.0748
0.0924149
2.046
0.0936146
2.0136
0.0936144
1.9836
0.0936142
1.9512
0.094814
1.9188
0.0948137
1.8864
0.0948135
1.8528
0.0948132
1.8192
0.094813
1.7856
0.0948127
1.7496
0.0948125
1.716
0.0948122
1.68
0.0936119
1.644
0.0936117
1.608
0.0924114
1.572
0.0912111
1.5348
0.0912108
1.4964
0.0900105
1.4592
0.0900103
1.4208
0.08881
1.3824
0.0876097
1.344
0.0864094
1.3044
0.084009
1.266
0.0828087
1.2252
0.0816084
1.1844
0.0792081
1.146
0.0780078
1.104
0.0756075
1.0632
0.0744071
1.0224
0.0720068
0.9804
0.0708065
0.9384
0.0672062
0.8976
0.0660058
0.8544
0.0636055
0.8124
0.0612052
0.7704
0.0576048
0.7272
0.0540045
0.6852
0.0528042
0.6408
0.0492038
0.5976
0.0456035
0.5556
0.0420031
0.5112
0.0396028
0.4668
0.0360024
0.4248
0.0324021
0.3792
0.0288018
0.336
0.0252015
0.2916
0.0216011
0.2484
0.0168006
0.204
0.0120002
0.1596
0.00839985
0.1152
0.00360019
0.0707997
0.0264002
-0.00479939
0.0311993
-0.00959951
0.0756003
-0.0131996
0.1188
-0.0179993
0.164399
-0.0215986
0.207599
-0.0239979
0.250799
-0.0287972
0.296399
-0.0323966
0.339599
-0.035996
0.382799
-0.0395954
0.428399
-0.0431947
0.470399
-0.046794
0.514799
-0.0479933
0.556799
-0.0515926
0.601199
-0.0551919
0.644399
-0.0575912
0.687599
-0.0599904
0.729599
-0.0623897
0.772799
-0.064789
0.814799
-0.0683882
0.857999
-0.0695874
0.898799
-0.0731866
0.941999
-0.0743859
0.981599
-0.0767851
1.0248
-0.0779843
1.0644
-0.0803835
1.1064
-0.0815827
1.1472
-0.0839819
1.1868
-0.0851812
1.2264
-0.0851804
1.266
-0.0863796
1.3056
-0.0875788
1.3452
-0.088778
1.3836
-0.0899772
1.422
-0.0911764
1.4604
-0.0923756
1.4976
-0.0923748
1.5348
-0.0923741
1.572
-0.0935733
1.6092
-0.0935725
1.644
-0.0947717
1.6812
-0.093571
1.7148
-0.0947702
1.7508
-0.0947694
1.7856
-0.0947687
1.8192
-0.0947679
1.8528
-0.0947672
1.8864
-0.0935665
1.9176
-0.0935657
1.9512
-0.092365
1.9824
-0.0935643
2.0148
-0.0911636
2.0436
-0.0911629
2.0748
-0.0905622
2.10504
-0.0897215
2.13384
-0.0888808
2.16252
-0.0878002
2.1906
-0.0867195
2.21832
-0.0856389
2.24544
-0.0845582
2.27196
-0.0832376
2.29788
-0.081917
2.32332
-0.0804764
2.34804
-0.0791558
2.37252
-0.0775952
2.39604
-0.0760346
2.4192
-0.074474
2.44164
-0.0727935
2.4636
-0.070993
2.48484
-0.0691924
2.50548
-0.0673919
2.52564
-0.0654714
2.54496
-0.0636709
2.56392
-0.0617504
2.58204
-0.0597099
2.59956
-0.0575495
2.61648
-0.055509
2.6328
-0.0534686
2.6484
-0.0511882
2.66328
-0.0490277
2.67768
-0.0467473
2.69136
-0.044467
2.70432
-0.0421866
2.71656
-0.0397863
2.72832
-0.0375059
2.73936
-0.0351056
2.74956
-0.0327053
2.75928
-0.0301849
2.76816
-0.0277847
2.77656
-0.0253844
2.78412
-0.0228641
2.79096
-0.0203439
2.7972
-0.0178237
2.80284
-0.0153034
2.80752
-0.0127832
2.81184
-0.010191
2.81521
-0.00763484
2.81802
-0.00506668
2.8201
-0.00251056
2.82149
5.75829e-05
2.82218
0.00262569
2.82218
0.00518181
2.82149
0.0077499
2.8201
0.010306
2.81802
0.012898
2.81521
0.015418
2.81184
0.0179381
2.80752
0.0204581
2.80284
0.0229781
2.7972
0.0254981
2.79096
0.027898
2.78412
0.030298
2.77656
0.0328179
2.76816
0.0352178
2.75928
0.0376177
2.74956
0.0398976
2.73936
0.0422975
2.72832
0.0445773
2.71656
0.0468572
2.70432
0.049137
2.69136
0.0512968
2.67768
0.0535766
2.66328
0.0556164
2.6484
0.0576561
2.6328
0.0598158
2.61648
0.0618556
2.59956
0.0637753
2.58204
0.065575
2.56392
0.0674946
2.54496
0.0692943
2.52564
0.0710939
2.50548
0.0728936
2.48484
0.0745732
2.4636
0.0761328
2.44164
0.0776923
2.4192
0.0792519
2.39604
0.0805715
2.37252
0.082011
2.34804
0.0833305
2.32332
0.08465
2.29788
0.0857295
2.27196
0.0868089
2.24544
0.0878884
2.21832
0.0889678
2.1906
0.0898072
2.16252
0.0906466
2.13384
0.091246
2.10504
0.0912454
2.0748
0.0936448
2.0436
0.0924441
2.0148
0.0936434
1.9824
0.0936427
1.9512
0.094842
1.9176
0.0948413
1.8864
0.0948406
1.8528
0.0948398
1.8192
0.0948391
1.7856
0.0936383
1.7508
0.0948375
1.7148
0.0936367
1.6812
0.0936358
1.644
0.092435
1.6092
0.0924342
1.572
0.0924333
1.5348
0.0912324
1.4976
0.0900316
1.4604
0.0888307
1.422
0.0876297
1.3836
0.0864288
1.3452
0.0852279
1.3056
0.085227
1.266
0.0840261
1.2264
0.0816251
1.1868
0.0804241
1.1472
0.0780231
1.1064
0.0768222
1.0644
0.0744212
1.0248
0.0732202
0.981601
0.0696192
0.942001
0.0684182
0.898801
0.0648172
0.858001
0.0624161
0.814801
0.0600151
0.772801
0.0576141
0.729601
0.0552131
0.687601
0.051612
0.644401
0.048011
0.601201
0.04681
0.556801
0.0432089
0.514801
0.0396079
0.470401
0.0360068
0.428401
0.0324059
0.382801
0.0288049
0.339601
0.0240038
0.296401
0.0216025
0.250802
0.0180013
0.207602
0.0132006
0.164401
0.00960092
0.1188
0.00480117
0.0755994
0.0312014
-0.00479909
0.0359984
-0.00839862
0.0791998
-0.0131989
0.1236
-0.0167988
0.167999
-0.0203981
0.211198
-0.0251969
0.255598
-0.0287957
0.299998
-0.0323947
0.343198
-0.0359936
0.386398
-0.0383926
0.430798
-0.0431915
0.475198
-0.0455903
0.517198
-0.0491892
0.560398
-0.052788
0.604798
-0.0551868
0.646798
-0.0575856
0.689998
-0.0611844
0.733198
-0.0635832
0.775198
-0.0659819
0.817198
-0.0671807
0.859198
-0.0707794
0.902398
-0.0719781
0.943198
-0.0755768
0.985198
-0.0767755
1.026
-0.0791742
1.0668
-0.0803729
1.1076
-0.0815716
1.1484
-0.0827703
1.188
-0.0839689
1.2276
-0.0863676
1.2684
-0.0875663
1.3068
-0.0887649
1.3464
-0.0899636
1.3848
-0.0911623
1.4232
-0.091161
1.4604
-0.0923596
1.4988
-0.0923583
1.5348
-0.093557
1.5732
-0.0935557
1.6092
-0.0947544
1.6452
-0.0935531
1.68
-0.0947518
1.716
-0.0947505
1.7508
-0.0947492
1.7856
-0.094748
1.8192
-0.0947467
1.8528
-0.0935455
1.8852
-0.0947442
1.9188
-0.093543
1.95
-0.0935417
1.9824
-0.0923405
2.0136
-0.0923393
2.0436
-0.0923381
2.0748
-0.090537
2.10324
-0.0896958
2.133
-0.0887347
2.16156
-0.0877736
2.18964
-0.0868124
2.21736
-0.0856114
2.24424
-0.0844103
2.27076
-0.0830892
2.29656
-0.0817682
2.322
-0.0805672
2.34684
-0.0790061
2.37096
-0.0775651
2.3946
-0.0760042
2.41764
-0.0743232
2.43996
-0.0726423
2.46192
-0.0709614
2.48316
-0.0692805
2.5038
-0.0673596
2.52372
-0.0655587
2.54316
-0.0635178
2.56188
-0.061597
2.58012
-0.0596763
2.59764
-0.0576354
2.61444
-0.0554747
2.63064
-0.053314
2.64624
-0.0511532
2.66112
-0.0489926
2.67552
-0.0467119
2.68908
-0.0444312
2.70204
-0.0421506
2.71428
-0.03987
2.72604
-0.0374694
2.73696
-0.0350688
2.74716
-0.0326683
2.75688
-0.0302678
2.76576
-0.0277473
2.77404
-0.0252268
2.7816
-0.0228264
2.78856
-0.0203059
2.79468
-0.0177855
2.80032
-0.0152651
2.805
-0.0127448
2.80932
-0.0101645
2.81263
-0.00760825
2.81546
-0.00503999
2.81753
-0.0024717
2.81892
9.65275e-05
2.81962
0.00266472
2.81962
0.00523285
2.81892
0.00780101
2.81753
0.0103572
2.81546
0.0129373
2.81263
0.0154574
2.80932
0.0179774
2.805
0.0204974
2.80032
0.0230174
2.79468
0.0254173
2.78856
0.0279373
2.7816
0.0304572
2.77404
0.0328571
2.76576
0.0352569
2.75688
0.0376567
2.74716
0.0400565
2.73696
0.0423364
2.72604
0.0446161
2.71428
0.0468958
2.70204
0.0491755
2.68908
0.0513352
2.67552
0.0534948
2.66112
0.0556544
2.64624
0.057814
2.63064
0.0598535
2.61444
0.0617731
2.59764
0.0636926
2.58012
0.065732
2.56188
0.0675315
2.54316
0.0694509
2.52372
0.0711303
2.5038
0.0728097
2.48316
0.074489
2.46192
0.0761683
2.43996
0.0777276
2.41764
0.0791669
2.3946
0.0807261
2.37096
0.0819253
2.34684
0.0832445
2.322
0.0845636
2.29656
0.0857627
2.27076
0.0869618
2.24424
0.0879208
2.21736
0.0888799
2.18964
0.089839
2.16156
0.0906779
2.133
0.0924769
2.10324
0.0924758
2.0748
0.0924747
2.0436
0.0936736
2.0136
0.0936724
1.9824
0.0948713
1.95
0.09367
1.9188
0.0948689
1.8852
0.0948676
1.8528
0.0948664
1.8192
0.094865
1.7856
0.0948637
1.7508
0.0936624
1.716
0.094861
1.68
0.0936597
1.6452
0.0936583
1.6092
0.0924568
1.5732
0.0924554
1.5348
0.0912539
1.4988
0.0912524
1.4604
0.090051
1.4232
0.0888494
1.3848
0.0876479
1.3464
0.0864463
1.3068
0.0840447
1.2684
0.0828431
1.2276
0.0816416
1.188
0.0804399
1.1484
0.0792383
1.1076
0.0768367
1.0668
0.075635
1.026
0.0720333
0.985203
0.0708317
0.943203
0.0672299
0.902403
0.0660283
0.859203
0.0636266
0.817203
0.0612249
0.775203
0.0576231
0.733203
0.0552214
0.690003
0.0528197
0.646803
0.049218
0.604803
0.0456162
0.560403
0.0432145
0.517203
0.0384127
0.475203
0.0360111
0.430803
0.0324094
0.386403
0.0288076
0.343203
0.0252056
0.300003
0.0204035
0.255604
0.0168021
0.211203
0.0132021
0.168001
0.00840265
0.123599
0.00480177
0.0792003
0.0360031
-0.00359908
0.0395975
-0.00839787
0.0839986
-0.0131978
0.1284
-0.0167981
0.1716
-0.0215976
0.215998
-0.0251962
0.259197
-0.0287946
0.303596
-0.032393
0.346797
-0.0359915
0.389997
-0.03959
0.434397
-0.0419885
0.477596
-0.0455869
0.520796
-0.0491853
0.563996
-0.0515837
0.607196
-0.055182
0.650396
-0.0575803
0.692396
-0.0599786
0.735596
-0.0623769
0.777596
-0.0659751
0.820796
-0.0683733
0.861596
-0.0695716
0.903596
-0.0719698
0.945596
-0.074368
0.987596
-0.0755662
1.0272
-0.0779643
1.0692
-0.0791625
1.1088
-0.0815606
1.1508
-0.0827588
1.1892
-0.0851569
1.23
-0.086355
1.2696
-0.0875532
1.308
-0.0875513
1.3464
-0.0887495
1.386
-0.0899476
1.4244
-0.0911457
1.4616
-0.0911438
1.4988
-0.0935419
1.5372
-0.0935401
1.5732
-0.0935382
1.6092
-0.0935364
1.6452
-0.0947345
1.6812
-0.0947327
1.716
-0.0947309
1.7508
-0.0947291
1.7856
-0.0947273
1.8192
-0.0947255
1.8528
-0.0947237
1.8852
-0.093522
1.9176
-0.0935202
1.95
-0.0935185
1.9824
-0.0923168
2.0124
-0.0923151
2.0436
-0.0911134
2.0736
-0.0905117
2.10264
-0.0896701
2.13216
-0.0887085
2.1606
-0.0878669
2.1888
-0.0866654
2.21616
-0.0855838
2.24316
-0.0843823
2.26956
-0.0831807
2.29536
-0.0818592
2.32068
-0.0804178
2.3454
-0.0789764
2.36952
-0.0775349
2.39316
-0.0758535
2.41596
-0.0744122
2.43852
-0.0727309
2.46024
-0.0709295
2.48136
-0.0691282
2.502
-0.067327
2.52192
-0.0655258
2.54136
-0.0636045
2.55996
-0.0615634
2.57808
-0.0595222
2.5956
-0.0574812
2.6124
-0.05544
2.6286
-0.053279
2.64408
-0.051238
2.65908
-0.048957
2.67324
-0.046676
2.6868
-0.0443951
2.69976
-0.0422342
2.71212
-0.0398334
2.72364
-0.0374325
2.73456
-0.0350317
2.74476
-0.0326309
2.75448
-0.0302302
2.76336
-0.0277095
2.77152
-0.0253089
2.7792
-0.0227882
2.78604
-0.0202676
2.79216
-0.017747
2.7978
-0.0152265
2.80248
-0.012586
2.80668
-0.0101256
2.81017
-0.00755709
2.8129
-0.00500072
2.81497
-0.00243238
2.81635
0.00013594
2.81705
0.00270422
2.81705
0.00527247
2.81635
0.00782871
2.81497
0.0103968
2.8129
0.012857
2.81017
0.0154971
2.80668
0.0180172
2.80248
0.0205372
2.7978
0.0230571
2.79216
0.0255771
2.78604
0.027977
2.7792
0.0304968
2.77152
0.0328967
2.76336
0.0352965
2.75448
0.0376963
2.74476
0.0400959
2.73456
0.0424956
2.72364
0.0446553
2.71212
0.0469349
2.69976
0.0492145
2.6868
0.0514939
2.67324
0.0535335
2.65908
0.0556929
2.64408
0.0577322
2.6286
0.0597717
2.6124
0.061811
2.5956
0.0638503
2.57808
0.0657695
2.55996
0.0675688
2.54136
0.069368
2.52192
0.0711671
2.502
0.0729661
2.48136
0.0746452
2.46024
0.0760842
2.43852
0.0777632
2.41596
0.0792021
2.39316
0.080641
2.36952
0.0820799
2.3454
0.0833987
2.32068
0.0845974
2.29536
0.0857962
2.26956
0.0868749
2.24316
0.0880736
2.21616
0.0889122
2.1888
0.0898708
2.1606
0.0907094
2.13216
0.0913079
2.10264
0.0925063
2.0736
0.0925047
2.0436
0.0937033
2.0124
0.0937015
1.9824
0.0936999
1.95
0.0948983
1.9176
0.0948965
1.8852
0.0948947
1.8528
0.0948929
1.8192
0.094891
1.7856
0.0948892
1.7508
0.0948874
1.716
0.0936854
1.6812
0.0936834
1.6452
0.0936814
1.6092
0.0936795
1.5732
0.0912773
1.5372
0.0912753
1.4988
0.0900731
1.4616
0.088871
1.4244
0.0876688
1.386
0.0876667
1.3464
0.0864645
1.308
0.0852623
1.26961
0.08286
1.23001
0.0816578
1.18921
0.0792554
1.15081
0.0780532
1.10881
0.0756509
1.06921
0.0744486
1.02721
0.0720462
0.987605
0.0696438
0.945605
0.0684415
0.903605
0.0660391
0.861605
0.0624366
0.820806
0.0600342
0.777605
0.0576319
0.735605
0.0552295
0.692405
0.051627
0.650406
0.0492246
0.607206
0.0456221
0.564006
0.0420197
0.520806
0.0396173
0.477606
0.0360149
0.434405
0.0324125
0.390005
0.0288098
0.346806
0.0252068
0.303606
0.0216044
0.259206
0.0168036
0.216004
0.0132042
0.171601
0.00840413
0.1284
0.00360181
0.0840026
0.0396049
-0.004799
0.0443965
-0.00959733
0.088797
-0.0131966
0.131999
-0.0167969
0.1752
-0.0203969
0.219598
-0.0251957
0.263995
-0.0287937
0.307194
-0.0323916
0.350394
-0.0359896
0.393595
-0.0395877
0.437995
-0.0431857
0.481195
-0.0467837
0.524394
-0.0491817
0.566394
-0.0527795
0.610794
-0.0551774
0.652794
-0.0587752
0.695994
-0.0611731
0.737994
-0.0635709
0.779994
-0.0647687
0.821994
-0.0683663
0.865194
-0.070764
0.905994
-0.0731617
0.947994
-0.0743594
0.988794
-0.076757
1.02959
-0.0779547
1.07039
-0.0803523
1.11119
-0.0815499
1.15199
-0.0827476
1.19039
-0.0839452
1.23119
-0.0851427
1.27079
-0.0863403
1.30919
-0.0887379
1.34879
-0.0899354
1.38719
-0.089933
1.42439
-0.0911306
1.46279
-0.0923282
1.49999
-0.0923258
1.53719
-0.0923234
1.57319
-0.093521
1.61039
-0.0935186
1.64519
-0.0935162
1.68119
-0.0947138
1.71719
-0.0947114
1.75079
-0.0947091
1.78559
-0.0947067
1.81919
-0.0935045
1.85159
-0.0935022
1.88519
-0.0946998
1.91879
-0.0934976
1.94879
-0.0922954
1.98119
-0.0922931
2.01239
-0.0910909
2.04239
-0.0910887
2.07359
-0.0904866
2.10203
-0.0896444
2.13131
-0.0888023
2.15975
-0.0877202
2.18771
-0.0866382
2.21507
-0.0855561
2.24207
-0.0843542
2.26835
-0.0831521
2.29415
-0.0818302
2.31935
-0.0803883
2.34395
-0.0790664
2.36819
-0.0775046
2.39159
-0.0759427
2.4144
-0.074261
2.43684
-0.0725792
2.45856
-0.0708976
2.47968
-0.0692158
2.50032
-0.0674142
2.52012
-0.0653726
2.53932
-0.0635711
2.55816
-0.0616494
2.57616
-0.059608
2.59356
-0.0575665
2.61036
-0.0554052
2.62644
-0.0532437
2.64192
-0.0510824
2.65692
-0.0489211
2.67108
-0.0466399
2.68452
-0.0443586
2.69748
-0.0420774
2.70984
-0.0396762
2.72124
-0.0373952
2.73228
-0.0349942
2.74236
-0.0325931
2.75208
-0.0300721
2.76084
-0.0277912
2.76924
-0.0251503
2.77656
-0.0227495
2.78364
-0.0202288
2.78964
-0.017708
2.79528
-0.0151874
2.79996
-0.0126667
2.80416
-0.0100741
2.80758
-0.00752961
2.81035
-0.00496103
2.8124
-0.00239258
2.81378
0.000175834
2.81448
0.0027442
2.81448
0.00531254
2.81378
0.00788073
2.8124
0.010425
2.81035
0.0130172
2.80758
0.0155373
2.80416
0.0180574
2.79996
0.0205774
2.79528
0.0230975
2.78964
0.0254974
2.78364
0.0281373
2.77656
0.0304171
2.76924
0.0329369
2.76084
0.0353365
2.75208
0.0377362
2.74236
0.0400159
2.73228
0.0424154
2.72124
0.0446949
2.70984
0.0469744
2.69748
0.0492539
2.68452
0.0514132
2.67108
0.0535725
2.65692
0.0557317
2.64192
0.0578911
2.62644
0.0599301
2.61036
0.0619694
2.59356
0.0638883
2.57616
0.0656873
2.55816
0.0677264
2.53932
0.0695252
2.52012
0.0712041
2.50032
0.0728829
2.47968
0.0745617
2.45856
0.0762404
2.43684
0.0777991
2.4144
0.0793577
2.3916
0.0806762
2.3682
0.0821147
2.34396
0.0834332
2.31936
0.0846315
2.29416
0.0858299
2.26836
0.0869082
2.24208
0.0879865
2.21508
0.0890647
2.18772
0.0899028
2.15977
0.0907409
2.13133
0.091339
2.10205
0.091337
2.07361
0.092535
2.04241
0.0925328
2.01241
0.0937307
1.98121
0.0949286
1.94881
0.0937263
1.91881
0.093724
1.88521
0.0949218
1.85161
0.0949195
1.81921
0.0949171
1.78561
0.0949146
1.75081
0.0937121
1.71721
0.0937096
1.68121
0.093707
1.64521
0.0925044
1.61041
0.0925018
1.57321
0.0924992
1.53721
0.0912965
1.50001
0.0900937
1.46281
0.0900911
1.42441
0.0888882
1.38721
0.0864853
1.34881
0.0852825
1.30921
0.0840796
1.27081
0.0828766
1.23121
0.0816738
1.19041
0.0804708
1.15201
0.0780678
1.11121
0.0768649
1.07041
0.0744618
1.02961
0.0732589
0.988808
0.0708558
0.948008
0.0684527
0.906008
0.0648495
0.865209
0.0636465
0.822008
0.0612434
0.780009
0.0588404
0.738009
0.0552372
0.696009
0.0528341
0.652809
0.0492309
0.610809
0.0468278
0.566409
0.0432246
0.524409
0.0396215
0.481209
0.0360184
0.438009
0.0324151
0.393609
0.0288114
0.350409
0.0252079
0.30721
0.0204058
0.264008
0.0168059
0.219604
0.0132065
0.1752
0.00960522
0.132001
0.00480198
0.0888058
0.0444069
-0.00479896
0.0491954
-0.00839715
0.0923951
-0.0131956
0.136798
-0.0179954
0.18
-0.0215957
0.223198
-0.025195
0.267595
-0.0287931
0.310792
-0.0323905
0.353992
-0.0371879
0.398392
-0.0395856
0.440392
-0.0431832
0.484792
-0.0455808
0.526792
-0.0491783
0.569992
-0.0515758
0.613192
-0.0551731
0.656391
-0.0575705
0.698391
-0.0599679
0.740391
-0.0635651
0.783591
-0.0659624
0.824391
-0.0671597
0.866391
-0.0695569
0.908391
-0.071954
0.950391
-0.0743511
0.991191
-0.0767482
1.03199
-0.0779454
1.07159
-0.0803424
1.11359
-0.0815395
1.15319
-0.0839365
1.19279
-0.0851336
1.23239
-0.0863306
1.27199
-0.0875277
1.31039
-0.0887247
1.34999
-0.0887218
1.38719
-0.0899188
1.42559
-0.0911157
1.46399
-0.0923127
1.50119
-0.0923098
1.53719
-0.0935068
1.57439
-0.0935038
1.61039
-0.0947008
1.64639
-0.0946979
1.68119
-0.094695
1.71719
-0.0946921
1.75079
-0.0946892
1.78559
-0.0946863
1.81919
-0.0946834
1.85159
-0.0946806
1.88519
-0.0934778
1.91759
-0.093475
1.94879
-0.0934722
1.98119
-0.0922695
2.01119
-0.0922667
2.04239
-0.0910639
2.07239
-0.0904613
2.10143
-0.0896187
2.13047
-0.088656
2.15879
-0.0876935
2.18675
-0.0867309
2.21411
-0.0855284
2.24087
-0.0843259
2.26715
-0.0831235
2.29295
-0.0818011
2.31803
-0.0804787
2.34263
-0.0789163
2.36663
-0.0773541
2.39003
-0.0759119
2.41295
-0.0743496
2.43527
-0.0726674
2.45687
-0.0709852
2.47799
-0.0690632
2.49839
-0.0672612
2.51831
-0.0654591
2.53751
-0.0635372
2.55623
-0.0614953
2.57411
-0.0594534
2.59151
-0.0574116
2.60831
-0.0553698
2.62439
-0.0533281
2.63987
-0.0510465
2.65463
-0.0487649
2.66879
-0.0466032
2.68235
-0.0444417
2.69532
-0.0420403
2.70744
-0.0397589
2.71896
-0.0372376
2.72976
-0.0349562
2.74008
-0.032555
2.74968
-0.0301538
2.75844
-0.0276327
2.76672
-0.0252316
2.77416
-0.0225905
2.781
-0.0201895
2.78724
-0.0176687
2.79276
-0.0151477
2.79744
-0.012627
2.80164
-0.0100461
2.805
-0.00747746
2.80778
-0.00492085
2.80985
-0.0023523
2.81121
0.000216219
2.81191
0.00278467
2.81191
0.00535309
2.81121
0.00790946
2.80985
0.0104778
2.80778
0.0130578
2.805
0.0155781
2.80164
0.0180981
2.79744
0.0206182
2.79276
0.0230181
2.78724
0.025658
2.781
0.0280579
2.77416
0.0305776
2.76672
0.0329774
2.75844
0.0353771
2.74968
0.0376566
2.74008
0.0401762
2.72976
0.0424557
2.71896
0.0448552
2.70744
0.0470145
2.69532
0.0491736
2.68236
0.0514529
2.6688
0.0537321
2.65464
0.0557712
2.63988
0.0578102
2.6244
0.0598492
2.60832
0.061888
2.59152
0.0639269
2.57412
0.0658457
2.55624
0.0676442
2.53752
0.069443
2.51832
0.0713616
2.4984
0.0730401
2.478
0.0747185
2.45688
0.0762768
2.43529
0.0777151
2.41297
0.0792735
2.39005
0.0808316
2.36665
0.0821498
2.34265
0.0834678
2.31805
0.084666
2.29297
0.0858639
2.26717
0.0870618
2.24089
0.0880195
2.21413
0.0889773
2.18677
0.089935
2.15881
0.0907727
2.13049
0.0913703
2.10145
0.0925678
2.07241
0.0925652
2.04241
0.0937627
2.01121
0.09376
1.98121
0.0937573
1.94881
0.0949546
1.91761
0.0949518
1.88521
0.0949489
1.85161
0.094946
1.81921
0.094943
1.78561
0.0949401
1.75081
0.094937
1.71721
0.094934
1.68121
0.0937307
1.64641
0.0937275
1.61041
0.0925242
1.57441
0.092521
1.53721
0.0913176
1.50121
0.0901142
1.46401
0.0889107
1.42561
0.0889074
1.38721
0.0877038
1.35001
0.0865003
1.31041
0.0852968
1.27201
0.0840933
1.23241
0.0816896
1.19281
0.080486
1.15321
0.0780822
1.11361
0.0768786
1.07161
0.0744748
1.03201
0.0720711
0.991212
0.0696672
0.950412
0.0672635
0.908412
0.0660598
0.866412
0.063656
0.824412
0.0600521
0.783612
0.0576483
0.740412
0.0552445
0.698412
0.0516406
0.656413
0.0492368
0.613213
0.045633
0.570013
0.0432292
0.526812
0.0396254
0.484812
0.0372215
0.440412
0.0324171
0.398413
0.0288126
0.354014
0.0252093
0.310813
0.0216082
0.267609
0.0180089
0.223203
0.0132085
0.18
0.00840561
0.136804
0.00480208
0.0924094
0.049209
-0.00359903
0.0527944
-0.00839709
0.0971932
-0.011995
0.140396
-0.016794
0.184799
-0.0215941
0.227998
-0.025194
0.271195
-0.0287924
0.314391
-0.0323898
0.357589
-0.0359867
0.401989
-0.0395838
0.443989
-0.041981
0.487189
-0.0455781
0.530389
-0.0491752
0.573589
-0.0527721
0.616789
-0.0551691
0.658788
-0.057566
0.700788
-0.0611628
0.743988
-0.0623597
0.784788
-0.0659564
0.827988
-0.0683531
0.868788
-0.0707498
0.910788
-0.0719465
0.951587
-0.0743431
0.993587
-0.0755398
1.03319
-0.0791362
1.07519
-0.0791329
1.11359
-0.0815294
1.15559
-0.0827259
1.19399
-0.0839224
1.23359
-0.0851189
1.27319
-0.0875152
1.31279
-0.0875118
1.34999
-0.0899081
1.38959
-0.0911046
1.42679
-0.0911011
1.46399
-0.0910976
1.50119
-0.092294
1.53839
-0.0934904
1.57559
-0.0934869
1.61039
-0.0934835
1.64639
-0.0946799
1.68239
-0.0934765
1.71599
-0.0946729
1.75199
-0.0946694
1.78559
-0.093466
1.81799
-0.0946625
1.85279
-0.0946591
1.88519
-0.0934558
1.91639
-0.0934524
1.94879
-0.0934491
1.98119
-0.0934457
2.01119
-0.0922425
2.04119
-0.0910393
2.07119
-0.0904361
2.10083
-0.0894729
2.12951
-0.0886298
2.15795
-0.0876666
2.18579
-0.0865836
2.21303
-0.0855007
2.23979
-0.0842977
2.26595
-0.0830947
2.29175
-0.0817718
2.31671
-0.0803289
2.34119
-0.0788862
2.36519
-0.0774434
2.38859
-0.0758806
2.41139
-0.0741981
2.43359
-0.0726355
2.45531
-0.0708329
2.47619
-0.0691503
2.49671
-0.0672278
2.51639
-0.0654255
2.53571
-0.0633831
2.55419
-0.0614608
2.57219
-0.0595386
2.58959
-0.0573765
2.60615
-0.0553343
2.62235
-0.0531722
2.63771
-0.0510102
2.65247
-0.0488482
2.66663
-0.0466864
2.68019
-0.0442846
2.69291
-0.0420029
2.70515
-0.0396011
2.71655
-0.0373194
2.72747
-0.0349179
2.73767
-0.0325164
2.74727
-0.030115
2.75603
-0.0275935
2.76419
-0.0251923
2.77176
-0.022671
2.77848
-0.0201498
2.78472
-0.0176287
2.79024
-0.0151077
2.79492
-0.0124667
2.799
-0.0100058
2.80254
-0.0074489
2.80522
-0.00488017
2.80728
-0.00231151
2.80865
0.000257108
2.80934
0.00282566
2.80934
0.00539416
2.80865
0.0079626
2.80728
0.0105188
2.80523
0.0129791
2.80254
0.0156193
2.799
0.0181395
2.79492
0.0206594
2.79024
0.0231794
2.78472
0.0256992
2.77848
0.0280992
2.77176
0.0306188
2.7642
0.0330185
2.75604
0.0354181
2.74728
0.0378177
2.73768
0.040097
2.72748
0.0424963
2.71656
0.0447757
2.70516
0.0471748
2.69292
0.0493341
2.6802
0.0514931
2.66664
0.0536521
2.65248
0.055811
2.63772
0.0578497
2.62236
0.0600084
2.60616
0.0619271
2.5896
0.0638458
2.57221
0.0658842
2.55421
0.0676827
2.53573
0.0696011
2.51641
0.0712793
2.49673
0.0730775
2.47621
0.0746356
2.45533
0.0763138
2.43361
0.0778718
2.41141
0.0793095
2.38861
0.0807475
2.36521
0.0821852
2.34121
0.0835029
2.31673
0.0847004
2.29177
0.0858979
2.26597
0.0869754
2.23981
0.0880529
2.21305
0.0890102
2.18581
0.0898474
2.15797
0.0908046
2.12953
0.0914016
2.10085
0.0925987
2.07121
0.0937957
2.04121
0.0937926
2.01121
0.0937894
1.98121
0.0937862
1.94881
0.094983
1.91641
0.0949795
1.88521
0.093776
1.85281
0.0949726
1.81801
0.0949691
1.78561
0.0937653
1.75201
0.0949618
1.71601
0.0937579
1.68241
0.0937542
1.64641
0.0937504
1.61041
0.0925465
1.57561
0.0913425
1.53841
0.0913386
1.50121
0.0913346
1.46401
0.0901305
1.42682
0.0877262
1.38962
0.0877222
1.35002
0.0853178
1.31282
0.0841136
1.27322
0.0829094
1.23362
0.0817051
1.19402
0.0793006
1.15562
0.0792965
1.11362
0.0756919
1.07522
0.0744876
1.03322
0.0720831
0.993617
0.0708787
0.951617
0.0684742
0.910817
0.0660697
0.868817
0.0624651
0.828017
0.0612607
0.784817
0.0576561
0.744017
0.0552516
0.700817
0.0528471
0.658817
0.0492425
0.616817
0.0456379
0.573617
0.0420333
0.530417
0.0396288
0.487217
0.0360239
0.444017
0.0324187
0.402018
0.028814
0.357619
0.0252114
0.314416
0.0216113
0.271209
0.0168117
0.228003
0.0120099
0.184802
0.0084058
0.140408
0.00360196
0.0972132
0.052811
-0.00479885
0.0575933
-0.00959696
0.101991
-0.0131945
0.143993
-0.0167928
0.188397
-0.0203925
0.231598
-0.0239926
0.274795
-0.0287915
0.31919
-0.032389
0.361187
-0.0359857
0.405586
-0.0395823
0.447586
-0.0431789
0.490786
-0.0467756
0.533986
-0.0491723
0.575986
-0.0515689
0.619185
-0.0551653
0.662385
-0.0575618
0.703185
-0.0599582
0.746384
-0.0635544
0.788384
-0.0647508
0.829184
-0.0683469
0.872384
-0.0695432
0.911984
-0.0731392
0.955183
-0.0743354
0.994783
-0.0767314
1.03558
-0.0779275
1.07638
-0.0803235
1.11598
-0.0815195
1.15678
-0.0827155
1.19518
-0.0851113
1.23598
-0.0863072
1.27438
-0.0863033
1.31278
-0.0886991
1.35238
-0.088695
1.38958
-0.0898908
1.42798
-0.0910867
1.46518
-0.0922826
1.50238
-0.0922785
1.53838
-0.0922744
1.57558
-0.0934703
1.61158
-0.094666
1.64758
-0.0934621
1.68118
-0.0946579
1.71718
-0.0946539
1.75198
-0.0946498
1.78558
-0.0946458
1.81798
-0.0946418
1.85278
-0.0934379
1.88398
-0.0946338
1.91758
-0.09343
1.94758
-0.0922262
1.97998
-0.0922223
2.01118
-0.0922183
2.04118
-0.0910147
2.06998
-0.0904108
2.10022
-0.0895672
2.12866
-0.0887235
2.1571
-0.0876398
2.18471
-0.0866763
2.21207
-0.0854727
2.23859
-0.0843892
2.26487
-0.0829458
2.29031
-0.0816224
2.31539
-0.0802991
2.33987
-0.0789757
2.36387
-0.0774125
2.38703
-0.0758493
2.40983
-0.0742862
2.43203
-0.0724831
2.45351
-0.0708002
2.47451
-0.0689973
2.49491
-0.0671943
2.51459
-0.0652716
2.53379
-0.0634687
2.55239
-0.0615461
2.57027
-0.0593834
2.58743
-0.0574608
2.60423
-0.0552984
2.62019
-0.0531359
2.63555
-0.0509737
2.65031
-0.0488113
2.66447
-0.0465292
2.67791
-0.044247
2.69063
-0.0419648
2.70287
-0.0396829
2.71427
-0.0372809
2.72507
-0.0348791
2.73527
-0.0324774
2.74487
-0.0299555
2.75351
-0.0275541
2.76179
-0.0250324
2.76923
-0.0226309
2.77607
-0.0201096
2.78219
-0.0175883
2.78771
-0.0150672
2.7924
-0.0125459
2.79648
-0.00995294
2.79994
-0.00739602
2.80267
-0.00483899
2.80472
-0.00227021
2.80608
0.000298512
2.80677
0.00286716
2.80677
0.00543575
2.80608
0.00799209
2.80472
0.0105485
2.80267
0.0131409
2.79995
0.015661
2.79648
0.0181813
2.7924
0.0207012
2.78772
0.0232213
2.7822
0.0256212
2.77608
0.0281408
2.76924
0.0305406
2.7618
0.0330601
2.75352
0.0354596
2.74488
0.0378591
2.73528
0.0402584
2.72508
0.0425377
2.71428
0.0448168
2.70288
0.0470958
2.69064
0.0493749
2.67792
0.0515336
2.66448
0.0536925
2.65032
0.0558512
2.63557
0.0580099
2.62021
0.0599284
2.60425
0.0620867
2.58745
0.0640051
2.57029
0.0658033
2.55241
0.0677215
2.53381
0.0695195
2.51461
0.0713175
2.49493
0.0729955
2.47453
0.0747933
2.45353
0.076351
2.43205
0.0779086
2.40985
0.0794661
2.38705
0.0807835
2.36389
0.0821009
2.33989
0.0834182
2.31541
0.0848554
2.29033
0.0859324
2.26489
0.0871294
2.23861
0.0880864
2.21209
0.0891632
2.18473
0.09
2.15713
0.0908368
2.12869
0.0914332
2.10025
0.0926299
2.07001
0.0926261
2.04121
0.0926224
2.01122
0.0938188
1.98002
0.0950152
1.94762
0.093811
1.91762
0.0950073
1.88402
0.0950032
1.85282
0.0949991
1.81802
0.0949949
1.78562
0.0949908
1.75202
0.0937863
1.71722
0.0949822
1.68122
0.0937776
1.64762
0.0925731
1.61162
0.0925686
1.57562
0.092564
1.53842
0.0913594
1.50242
0.0901546
1.46522
0.0889498
1.42802
0.0889451
1.38962
0.08654
1.35242
0.0865353
1.31282
0.0853304
1.27442
0.0829253
1.23602
0.0817203
1.19522
0.0805154
1.15682
0.0781102
1.11602
0.0769052
1.07642
0.0745
1.03562
0.073295
0.994822
0.0696895
0.955222
0.0684845
0.912022
0.0648791
0.872422
0.0636741
0.829222
0.0600687
0.788422
0.0576635
0.746422
0.0552583
0.703222
0.0516529
0.662422
0.0492478
0.619222
0.0468426
0.576022
0.0432373
0.534022
0.0396318
0.490822
0.036026
0.447623
0.0324202
0.405624
0.0288158
0.361223
0.0240142
0.319218
0.0204146
0.274809
0.0168142
0.231603
0.0132109
0.188405
0.00960612
0.144013