/*--------------------------------*- C++ -*----------------------------------*\
  =========                 |
  \\      /  F ield         | OpenFOAM: The Open Source CFD Toolbox
   \\    /   O peration     | Website:  https://openfoam.org
    \\  /    A nd           | Version:  10
     \\/     M anipulation  |
\*---------------------------------------------------------------------------*/
FoamFile
{
    format      ascii;
    class       volScalarField;
    location    "622";
    object      nut;
}
// * * * * * * * * * * * * * * * * * * * * * * * * * * * * * * * * * * * * * //

dimensions      [0 2 -1 0 0 0 0];

internalField   nonuniform List<scalar> 
6150
(
2.25589e-06
5.1937e-06
6.42892e-06
5.61077e-06
6.90913e-06
1.11936e-05
2.22639e-05
4.9985e-05
9.93848e-05
0.000144067
0.000166115
0.000169469
0.000163035
0.000153173
0.000142202
0.000131104
0.000121744
0.000112665
0.00010692
0.000105498
0.000102399
9.82521e-05
9.63363e-05
9.5911e-05
9.65178e-05
9.77343e-05
9.914e-05
0.000100503
0.000101796
0.000103169
0.000104727
0.000106426
0.000108256
0.000110278
0.000112638
0.000115446
0.000119029
0.000123451
0.00013008
0.000142939
2.50908e-06
2.71002e-06
2.64884e-06
2.7267e-06
2.97527e-06
3.4483e-06
4.36309e-06
6.57924e-06
1.04971e-05
1.36794e-05
1.82043e-05
2.27358e-05
2.61151e-05
3.48539e-05
4.72991e-05
6.02832e-05
8.54189e-05
0.000125596
0.0001696
0.000206889
0.000235486
0.000255082
0.000269674
0.000281098
0.000290892
0.000299607
0.000307379
0.000314239
0.000320284
0.000325496
0.000330048
0.000334028
0.000337488
0.000340448
0.000342925
0.000344765
0.000345956
0.000346369
0.00034546
0.000344693
2.80013e-06
2.75079e-06
2.73213e-06
2.70848e-06
2.6763e-06
2.74563e-06
2.84347e-06
2.98841e-06
3.24982e-06
3.62694e-06
4.09687e-06
4.52252e-06
4.90294e-06
6.21649e-06
8.24572e-06
1.28375e-05
2.23238e-05
4.30846e-05
8.2212e-05
0.000136706
0.000190259
0.000232953
0.000266588
0.000293
0.000314336
0.000332387
0.000347714
0.000360859
0.000372251
0.000382112
0.000390741
0.000398278
0.000404901
0.000410685
0.000415676
0.000419882
0.000423264
0.000425796
0.000427008
0.000427433
2.87948e-06
2.8246e-06
2.83865e-06
2.85737e-06
2.85473e-06
2.85824e-06
2.87423e-06
2.91046e-06
2.96929e-06
3.05232e-06
3.16584e-06
3.31253e-06
3.49168e-06
3.62294e-06
3.73212e-06
4.17729e-06
5.14749e-06
7.2893e-06
1.2527e-05
2.66419e-05
5.49022e-05
9.12862e-05
0.000128658
0.000161697
0.000191403
0.000219787
0.000244851
0.000267042
0.000286605
0.000304078
0.000319822
0.000334077
0.000347019
0.000358796
0.000369444
0.00037913
0.00038797
0.000396084
0.000403473
0.000409964
2.89084e-06
2.84509e-06
2.84156e-06
2.84408e-06
2.84042e-06
2.81495e-06
2.79179e-06
2.79243e-06
2.80208e-06
2.82004e-06
2.84732e-06
2.8845e-06
2.92932e-06
3.00043e-06
3.05995e-06
3.04544e-06
3.1627e-06
3.35025e-06
3.67674e-06
4.21889e-06
5.55357e-06
7.9603e-06
1.19843e-05
1.83228e-05
2.76319e-05
4.04754e-05
5.64142e-05
7.43976e-05
9.32175e-05
0.000112382
0.000131319
0.000149723
0.000167405
0.000184363
0.000200645
0.000216363
0.000231632
0.000246567
0.000261356
0.000275431
2.88627e-06
2.85221e-06
2.84265e-06
2.84476e-06
2.84993e-06
2.8521e-06
2.84963e-06
2.84449e-06
2.84173e-06
2.84348e-06
2.85055e-06
2.86383e-06
2.88407e-06
2.91215e-06
2.94601e-06
2.98063e-06
3.02489e-06
3.07721e-06
3.14127e-06
3.22126e-06
3.32645e-06
3.44883e-06
3.60489e-06
3.82464e-06
4.14785e-06
4.63218e-06
5.34361e-06
6.37139e-06
7.78073e-06
9.77511e-06
1.2506e-05
1.61572e-05
2.09022e-05
2.69181e-05
3.43388e-05
4.32298e-05
5.35548e-05
6.53012e-05
7.84618e-05
9.21729e-05
2.8801e-06
2.8548e-06
2.84148e-06
2.8409e-06
2.84268e-06
2.84407e-06
2.84153e-06
2.82846e-06
2.81559e-06
2.80256e-06
2.78913e-06
2.77564e-06
2.77517e-06
2.77474e-06
2.79173e-06
2.79271e-06
2.80682e-06
2.82154e-06
2.83721e-06
2.85325e-06
2.86872e-06
2.88293e-06
2.89656e-06
2.91014e-06
2.92628e-06
2.95088e-06
2.98854e-06
3.04561e-06
3.12519e-06
3.23812e-06
3.40308e-06
3.63593e-06
3.95484e-06
4.38479e-06
4.97039e-06
5.76081e-06
6.80866e-06
8.19043e-06
1.00153e-05
1.22982e-05
2.87391e-06
2.85539e-06
2.84336e-06
2.83953e-06
2.8395e-06
2.84122e-06
2.8421e-06
2.84082e-06
2.83774e-06
2.83263e-06
2.82839e-06
2.82583e-06
2.82492e-06
2.82589e-06
2.82938e-06
2.84481e-06
2.86381e-06
2.87357e-06
2.88555e-06
2.8989e-06
2.91201e-06
2.92323e-06
2.93288e-06
2.94183e-06
2.95084e-06
2.96e-06
2.9681e-06
2.97644e-06
2.98453e-06
2.99627e-06
3.01199e-06
3.03337e-06
3.0626e-06
3.10375e-06
3.16201e-06
3.24311e-06
3.35286e-06
3.49828e-06
3.6875e-06
3.92177e-06
2.86806e-06
2.85382e-06
2.84332e-06
2.83725e-06
2.8365e-06
2.83686e-06
2.83766e-06
2.83722e-06
2.83473e-06
2.82718e-06
2.81991e-06
2.81241e-06
2.8045e-06
2.79618e-06
2.78758e-06
2.77947e-06
2.77137e-06
2.76424e-06
2.75716e-06
2.75002e-06
2.74371e-06
2.73872e-06
2.73462e-06
2.73099e-06
2.72752e-06
2.72422e-06
2.72239e-06
2.72199e-06
2.72286e-06
2.72577e-06
2.73411e-06
2.7438e-06
2.75458e-06
2.76648e-06
2.77946e-06
2.79506e-06
2.81411e-06
2.83757e-06
2.86649e-06
2.90062e-06
2.86262e-06
2.85042e-06
2.8422e-06
2.83724e-06
2.83514e-06
2.83454e-06
2.83482e-06
2.83514e-06
2.83442e-06
2.83232e-06
2.82694e-06
2.82123e-06
2.81568e-06
2.80996e-06
2.80403e-06
2.80021e-06
2.79965e-06
2.80041e-06
2.80231e-06
2.8054e-06
2.80902e-06
2.81248e-06
2.81545e-06
2.81805e-06
2.82046e-06
2.82293e-06
2.82477e-06
2.82627e-06
2.82621e-06
2.82685e-06
2.82764e-06
2.82818e-06
2.8281e-06
2.82728e-06
2.82647e-06
2.82596e-06
2.82595e-06
2.82657e-06
2.82803e-06
2.83028e-06
2.85761e-06
2.84709e-06
2.84083e-06
2.83674e-06
2.83367e-06
2.83267e-06
2.83234e-06
2.83253e-06
2.8323e-06
2.83116e-06
2.82864e-06
2.82392e-06
2.81945e-06
2.81516e-06
2.8107e-06
2.80612e-06
2.80139e-06
2.79651e-06
2.79168e-06
2.78708e-06
2.78356e-06
2.7809e-06
2.77859e-06
2.77653e-06
2.77462e-06
2.7728e-06
2.77117e-06
2.77006e-06
2.77122e-06
2.77339e-06
2.77642e-06
2.77987e-06
2.78321e-06
2.78641e-06
2.78904e-06
2.79139e-06
2.79295e-06
2.7943e-06
2.7956e-06
2.79674e-06
2.85306e-06
2.844e-06
2.83947e-06
2.83585e-06
2.83327e-06
2.83154e-06
2.83096e-06
2.83079e-06
2.83079e-06
2.83033e-06
2.82912e-06
2.82684e-06
2.823e-06
2.81944e-06
2.81607e-06
2.81273e-06
2.80935e-06
2.80596e-06
2.80253e-06
2.79928e-06
2.80003e-06
2.8014e-06
2.80264e-06
2.80369e-06
2.80464e-06
2.8054e-06
2.80653e-06
2.80537e-06
2.80525e-06
2.80576e-06
2.80669e-06
2.80801e-06
2.80932e-06
2.8103e-06
2.8108e-06
2.81075e-06
2.81045e-06
2.80978e-06
2.80919e-06
2.80866e-06
2.84897e-06
2.84121e-06
2.83778e-06
2.83466e-06
2.83257e-06
2.8309e-06
2.83004e-06
2.82958e-06
2.82937e-06
2.82912e-06
2.82844e-06
2.82713e-06
2.82399e-06
2.82108e-06
2.81838e-06
2.81583e-06
2.81345e-06
2.8111e-06
2.80874e-06
2.80635e-06
2.80447e-06
2.80442e-06
2.80439e-06
2.8039e-06
2.80331e-06
2.80273e-06
2.8024e-06
2.8019e-06
2.80193e-06
2.8023e-06
2.80274e-06
2.80323e-06
2.80372e-06
2.8042e-06
2.80465e-06
2.80505e-06
2.80541e-06
2.80571e-06
2.80599e-06
2.80609e-06
2.84532e-06
2.83875e-06
2.83594e-06
2.83339e-06
2.83173e-06
2.83042e-06
2.82926e-06
2.82873e-06
2.82839e-06
2.8282e-06
2.8278e-06
2.82706e-06
2.8258e-06
2.82323e-06
2.82096e-06
2.81887e-06
2.81694e-06
2.81524e-06
2.81366e-06
2.81206e-06
2.81084e-06
2.81157e-06
2.81239e-06
2.8131e-06
2.81371e-06
2.81426e-06
2.81473e-06
2.81515e-06
2.81547e-06
2.81568e-06
2.81576e-06
2.81571e-06
2.81543e-06
2.81514e-06
2.81486e-06
2.81459e-06
2.81433e-06
2.81409e-06
2.81386e-06
2.81365e-06
2.84212e-06
2.83659e-06
2.83426e-06
2.8322e-06
2.83088e-06
2.82987e-06
2.82898e-06
2.82816e-06
2.82784e-06
2.82757e-06
2.82732e-06
2.82684e-06
2.82606e-06
2.82482e-06
2.82276e-06
2.821e-06
2.81941e-06
2.81824e-06
2.81793e-06
2.81684e-06
2.81591e-06
2.81644e-06
2.81712e-06
2.81772e-06
2.81823e-06
2.81867e-06
2.81905e-06
2.81941e-06
2.81972e-06
2.81999e-06
2.82022e-06
2.82042e-06
2.82058e-06
2.82071e-06
2.82081e-06
2.82088e-06
2.82092e-06
2.82094e-06
2.82096e-06
2.82082e-06
2.83933e-06
2.83471e-06
2.83278e-06
2.83113e-06
2.83009e-06
2.82931e-06
2.82862e-06
2.82796e-06
2.82755e-06
2.82722e-06
2.82695e-06
2.82661e-06
2.82609e-06
2.82533e-06
2.82419e-06
2.82253e-06
2.82113e-06
2.81992e-06
2.81966e-06
2.81916e-06
2.81849e-06
2.81898e-06
2.81962e-06
2.82025e-06
2.8208e-06
2.82127e-06
2.82169e-06
2.82207e-06
2.82241e-06
2.8227e-06
2.82293e-06
2.82311e-06
2.82322e-06
2.82324e-06
2.82322e-06
2.8232e-06
2.82317e-06
2.82313e-06
2.8231e-06
2.82307e-06
2.83694e-06
2.8331e-06
2.83152e-06
2.8302e-06
2.82937e-06
2.82876e-06
2.82824e-06
2.82775e-06
2.82721e-06
2.82692e-06
2.82665e-06
2.82639e-06
2.82602e-06
2.8255e-06
2.82477e-06
2.82337e-06
2.82214e-06
2.82112e-06
2.82087e-06
2.82083e-06
2.82028e-06
2.82052e-06
2.82098e-06
2.82152e-06
2.82201e-06
2.82242e-06
2.82279e-06
2.82312e-06
2.82342e-06
2.82368e-06
2.8239e-06
2.8241e-06
2.82427e-06
2.82441e-06
2.82454e-06
2.82464e-06
2.82473e-06
2.8248e-06
2.82487e-06
2.82485e-06
2.8349e-06
2.83175e-06
2.83044e-06
2.82939e-06
2.82875e-06
2.82828e-06
2.82788e-06
2.8275e-06
2.82711e-06
2.82676e-06
2.82652e-06
2.82628e-06
2.82601e-06
2.82564e-06
2.82514e-06
2.82448e-06
2.82337e-06
2.82244e-06
2.822e-06
2.82183e-06
2.82138e-06
2.82146e-06
2.82179e-06
2.82223e-06
2.82268e-06
2.82307e-06
2.8234e-06
2.8237e-06
2.82397e-06
2.82421e-06
2.82442e-06
2.8246e-06
2.82475e-06
2.82487e-06
2.82496e-06
2.82499e-06
2.82502e-06
2.82505e-06
2.82507e-06
2.82508e-06
2.83318e-06
2.83062e-06
2.82954e-06
2.82871e-06
2.82821e-06
2.82786e-06
2.82756e-06
2.82728e-06
2.82698e-06
2.82666e-06
2.82644e-06
2.82623e-06
2.82601e-06
2.82573e-06
2.82537e-06
2.82492e-06
2.82433e-06
2.82347e-06
2.8228e-06
2.82246e-06
2.82209e-06
2.82209e-06
2.8223e-06
2.82261e-06
2.82298e-06
2.82333e-06
2.82363e-06
2.82389e-06
2.82412e-06
2.82433e-06
2.82451e-06
2.82467e-06
2.82481e-06
2.82494e-06
2.82504e-06
2.82514e-06
2.82522e-06
2.82529e-06
2.82536e-06
2.82538e-06
2.83177e-06
2.82969e-06
2.8288e-06
2.82816e-06
2.82778e-06
2.82751e-06
2.82729e-06
2.82707e-06
2.82686e-06
2.82662e-06
2.82635e-06
2.82619e-06
2.82601e-06
2.82581e-06
2.82555e-06
2.82522e-06
2.82482e-06
2.82432e-06
2.82368e-06
2.82319e-06
2.82286e-06
2.8228e-06
2.82291e-06
2.82311e-06
2.82338e-06
2.82366e-06
2.82392e-06
2.82414e-06
2.82433e-06
2.82451e-06
2.82466e-06
2.8248e-06
2.82491e-06
2.82502e-06
2.8251e-06
2.82518e-06
2.82525e-06
2.8253e-06
2.82533e-06
2.82538e-06
2.83062e-06
2.82893e-06
2.8282e-06
2.82772e-06
2.82744e-06
2.82723e-06
2.82707e-06
2.82691e-06
2.82674e-06
2.82657e-06
2.82637e-06
2.82621e-06
2.82607e-06
2.8259e-06
2.82571e-06
2.82547e-06
2.82518e-06
2.82484e-06
2.82432e-06
2.82388e-06
2.82358e-06
2.82348e-06
2.82354e-06
2.82366e-06
2.82384e-06
2.82405e-06
2.82425e-06
2.82443e-06
2.82459e-06
2.82473e-06
2.82486e-06
2.82497e-06
2.82507e-06
2.82515e-06
2.82523e-06
2.8253e-06
2.82536e-06
2.82541e-06
2.82545e-06
2.82551e-06
2.82969e-06
2.82833e-06
2.82771e-06
2.82738e-06
2.82717e-06
2.82702e-06
2.8269e-06
2.82677e-06
2.82665e-06
2.82652e-06
2.82637e-06
2.8262e-06
2.82609e-06
2.82596e-06
2.82581e-06
2.82564e-06
2.82543e-06
2.82519e-06
2.82492e-06
2.82453e-06
2.82426e-06
2.82412e-06
2.82415e-06
2.82421e-06
2.82431e-06
2.82445e-06
2.8246e-06
2.82473e-06
2.82485e-06
2.82496e-06
2.82505e-06
2.82514e-06
2.82522e-06
2.82528e-06
2.82534e-06
2.8254e-06
2.82544e-06
2.82549e-06
2.82551e-06
2.82556e-06
2.82895e-06
2.82785e-06
2.82736e-06
2.82712e-06
2.82698e-06
2.82686e-06
2.82677e-06
2.82667e-06
2.82658e-06
2.82647e-06
2.82636e-06
2.82624e-06
2.82613e-06
2.82603e-06
2.82592e-06
2.82579e-06
2.82564e-06
2.82546e-06
2.82527e-06
2.82502e-06
2.82477e-06
2.82464e-06
2.82464e-06
2.82467e-06
2.82472e-06
2.8248e-06
2.8249e-06
2.82499e-06
2.82507e-06
2.82515e-06
2.82522e-06
2.82528e-06
2.82534e-06
2.82539e-06
2.82544e-06
2.82548e-06
2.82551e-06
2.82555e-06
2.82557e-06
2.82562e-06
2.82835e-06
2.82748e-06
2.82712e-06
2.82694e-06
2.82683e-06
2.82674e-06
2.82667e-06
2.8266e-06
2.82652e-06
2.82644e-06
2.82636e-06
2.82626e-06
2.82616e-06
2.82608e-06
2.82599e-06
2.8259e-06
2.82579e-06
2.82566e-06
2.82552e-06
2.82535e-06
2.82515e-06
2.82503e-06
2.825e-06
2.82502e-06
2.82504e-06
2.82508e-06
2.82514e-06
2.8252e-06
2.82525e-06
2.82531e-06
2.82535e-06
2.8254e-06
2.82544e-06
2.82547e-06
2.82551e-06
2.82554e-06
2.82556e-06
2.82559e-06
2.82561e-06
2.82565e-06
2.82788e-06
2.82719e-06
2.82693e-06
2.82681e-06
2.82672e-06
2.82666e-06
2.8266e-06
2.82654e-06
2.82648e-06
2.82642e-06
2.82635e-06
2.82628e-06
2.8262e-06
2.82613e-06
2.82606e-06
2.82599e-06
2.82591e-06
2.82582e-06
2.82572e-06
2.8256e-06
2.82545e-06
2.82534e-06
2.82528e-06
2.82529e-06
2.8253e-06
2.82532e-06
2.82535e-06
2.82539e-06
2.82542e-06
2.82546e-06
2.82549e-06
2.82552e-06
2.82555e-06
2.82557e-06
2.82559e-06
2.82561e-06
2.82563e-06
2.82564e-06
2.82566e-06
2.8257e-06
2.82752e-06
2.82697e-06
2.8268e-06
2.82671e-06
2.82665e-06
2.82659e-06
2.82654e-06
2.8265e-06
2.82645e-06
2.8264e-06
2.82635e-06
2.8263e-06
2.82624e-06
2.82617e-06
2.82612e-06
2.82607e-06
2.82601e-06
2.82594e-06
2.82587e-06
2.82577e-06
2.82566e-06
2.82558e-06
2.82553e-06
2.82552e-06
2.82553e-06
2.82554e-06
2.82555e-06
2.82557e-06
2.82559e-06
2.82561e-06
2.82563e-06
2.82565e-06
2.82567e-06
2.82568e-06
2.8257e-06
2.82571e-06
2.82572e-06
2.82573e-06
2.82574e-06
2.82578e-06
2.82724e-06
2.82682e-06
2.82671e-06
2.82664e-06
2.82659e-06
2.82655e-06
2.82651e-06
2.82647e-06
2.82643e-06
2.82639e-06
2.82635e-06
2.82631e-06
2.82627e-06
2.82622e-06
2.82617e-06
2.82613e-06
2.82608e-06
2.82604e-06
2.82599e-06
2.8259e-06
2.82583e-06
2.82577e-06
2.82573e-06
2.82571e-06
2.82571e-06
2.82571e-06
2.82572e-06
2.82573e-06
2.82574e-06
2.82575e-06
2.82577e-06
2.82578e-06
2.82579e-06
2.82579e-06
2.8258e-06
2.8258e-06
2.82581e-06
2.82581e-06
2.82582e-06
2.82585e-06
2.82702e-06
2.82673e-06
2.82665e-06
2.82659e-06
2.82655e-06
2.82651e-06
2.82648e-06
2.82644e-06
2.82642e-06
2.82639e-06
2.82636e-06
2.82632e-06
2.82629e-06
2.82626e-06
2.82622e-06
2.82618e-06
2.82615e-06
2.82611e-06
2.82607e-06
2.82601e-06
2.82596e-06
2.82591e-06
2.82588e-06
2.82586e-06
2.82586e-06
2.82586e-06
2.82586e-06
2.82586e-06
2.82587e-06
2.82587e-06
2.82588e-06
2.82588e-06
2.82589e-06
2.82589e-06
2.82589e-06
2.82589e-06
2.82589e-06
2.8259e-06
2.8259e-06
2.82592e-06
2.82686e-06
2.82666e-06
2.82662e-06
2.82656e-06
2.82651e-06
2.82648e-06
2.82645e-06
2.82643e-06
2.82641e-06
2.82638e-06
2.82636e-06
2.82634e-06
2.82631e-06
2.82629e-06
2.82626e-06
2.82623e-06
2.8262e-06
2.82616e-06
2.82613e-06
2.82609e-06
2.82606e-06
2.82603e-06
2.82601e-06
2.82599e-06
2.82598e-06
2.82597e-06
2.82597e-06
2.82597e-06
2.82597e-06
2.82597e-06
2.82596e-06
2.82596e-06
2.82596e-06
2.82596e-06
2.82596e-06
2.82596e-06
2.82596e-06
2.82596e-06
2.82597e-06
2.82598e-06
2.82674e-06
2.82662e-06
2.82658e-06
2.82652e-06
2.82648e-06
2.82646e-06
2.82644e-06
2.82642e-06
2.8264e-06
2.82639e-06
2.82637e-06
2.82635e-06
2.82634e-06
2.82632e-06
2.8263e-06
2.82627e-06
2.82625e-06
2.82623e-06
2.8262e-06
2.82618e-06
2.82615e-06
2.82613e-06
2.82612e-06
2.82611e-06
2.8261e-06
2.82609e-06
2.82609e-06
2.82609e-06
2.82608e-06
2.82608e-06
2.82608e-06
2.82608e-06
2.82608e-06
2.82608e-06
2.82607e-06
2.82607e-06
2.82607e-06
2.82607e-06
2.82608e-06
2.82608e-06
2.82665e-06
2.82657e-06
2.82654e-06
2.82649e-06
2.82646e-06
2.82644e-06
2.82643e-06
2.82642e-06
2.82641e-06
2.82639e-06
2.82638e-06
2.82637e-06
2.82636e-06
2.82634e-06
2.82633e-06
2.82631e-06
2.8263e-06
2.82628e-06
2.82626e-06
2.82624e-06
2.82623e-06
2.82622e-06
2.82621e-06
2.8262e-06
2.82619e-06
2.82619e-06
2.82618e-06
2.82618e-06
2.82618e-06
2.82618e-06
2.82617e-06
2.82617e-06
2.82617e-06
2.82617e-06
2.82617e-06
2.82617e-06
2.82617e-06
2.82617e-06
2.82617e-06
2.82617e-06
2.82659e-06
2.82653e-06
2.8265e-06
2.82647e-06
2.82645e-06
2.82644e-06
2.82643e-06
2.82642e-06
2.82641e-06
2.8264e-06
2.8264e-06
2.82639e-06
2.82638e-06
2.82637e-06
2.82636e-06
2.82635e-06
2.82633e-06
2.82632e-06
2.82631e-06
2.8263e-06
2.82629e-06
2.82628e-06
2.82628e-06
2.82627e-06
2.82626e-06
2.82626e-06
2.82626e-06
2.82626e-06
2.82625e-06
2.82625e-06
2.82625e-06
2.82625e-06
2.82625e-06
2.82625e-06
2.82624e-06
2.82624e-06
2.82624e-06
2.82624e-06
2.82624e-06
2.82625e-06
2.82654e-06
2.8265e-06
2.82647e-06
2.82645e-06
2.82644e-06
2.82643e-06
2.82643e-06
2.82642e-06
2.82642e-06
2.82642e-06
2.82641e-06
2.82641e-06
2.8264e-06
2.82639e-06
2.82638e-06
2.82637e-06
2.82637e-06
2.82636e-06
2.82635e-06
2.82634e-06
2.82633e-06
2.82633e-06
2.82633e-06
2.82632e-06
2.82632e-06
2.82632e-06
2.82632e-06
2.82631e-06
2.82631e-06
2.82631e-06
2.82631e-06
2.82631e-06
2.82631e-06
2.82631e-06
2.82631e-06
2.82631e-06
2.82631e-06
2.82631e-06
2.82631e-06
2.82631e-06
2.8265e-06
2.82647e-06
2.82644e-06
2.82645e-06
2.82644e-06
2.82644e-06
2.82643e-06
2.82644e-06
2.82643e-06
2.82643e-06
2.82643e-06
2.82642e-06
2.82641e-06
2.82641e-06
2.8264e-06
2.82639e-06
2.82639e-06
2.82638e-06
2.82638e-06
2.82638e-06
2.82638e-06
2.82637e-06
2.82637e-06
2.82638e-06
2.82638e-06
2.82638e-06
2.82638e-06
2.82639e-06
2.82639e-06
2.82639e-06
2.82639e-06
2.82639e-06
2.82639e-06
2.82639e-06
2.8264e-06
2.8264e-06
2.8264e-06
2.8264e-06
2.8264e-06
2.8264e-06
2.82647e-06
2.82645e-06
2.82644e-06
2.82644e-06
2.82644e-06
2.82644e-06
2.82644e-06
2.82644e-06
2.82643e-06
2.82643e-06
2.82642e-06
2.82642e-06
2.82641e-06
2.82641e-06
2.82641e-06
2.82641e-06
2.82641e-06
2.82642e-06
2.82642e-06
2.82643e-06
2.82643e-06
2.82643e-06
2.82644e-06
2.82644e-06
2.82645e-06
2.82645e-06
2.82645e-06
2.82645e-06
2.82646e-06
2.82646e-06
2.82646e-06
2.82646e-06
2.82647e-06
2.82647e-06
2.82647e-06
2.82647e-06
2.82647e-06
2.82647e-06
2.82647e-06
2.82647e-06
2.82645e-06
2.82643e-06
2.82644e-06
2.82644e-06
2.82644e-06
2.82644e-06
2.82644e-06
2.82643e-06
2.82642e-06
2.82642e-06
2.82642e-06
2.82642e-06
2.82643e-06
2.82643e-06
2.82644e-06
2.82644e-06
2.82645e-06
2.82645e-06
2.82646e-06
2.82647e-06
2.82647e-06
2.82648e-06
2.82648e-06
2.82648e-06
2.82649e-06
2.82649e-06
2.82649e-06
2.82649e-06
2.8265e-06
2.8265e-06
2.8265e-06
2.8265e-06
2.8265e-06
2.82651e-06
2.82651e-06
2.82651e-06
2.82651e-06
2.82651e-06
2.82651e-06
2.82651e-06
2.82643e-06
2.82641e-06
2.82643e-06
2.82644e-06
2.82644e-06
2.82643e-06
2.82642e-06
2.82642e-06
2.82642e-06
2.82642e-06
2.82643e-06
2.82644e-06
2.82644e-06
2.82645e-06
2.82646e-06
2.82647e-06
2.82647e-06
2.82648e-06
2.82648e-06
2.82649e-06
2.82649e-06
2.82649e-06
2.82649e-06
2.8265e-06
2.8265e-06
2.8265e-06
2.8265e-06
2.8265e-06
2.8265e-06
2.8265e-06
2.8265e-06
2.82651e-06
2.82651e-06
2.82651e-06
2.82651e-06
2.82651e-06
2.82651e-06
2.82651e-06
2.82651e-06
2.82651e-06
2.82641e-06
2.82641e-06
2.82643e-06
2.82644e-06
2.82643e-06
2.82642e-06
2.82642e-06
2.82642e-06
2.82642e-06
2.82643e-06
2.82643e-06
2.82644e-06
2.82645e-06
2.82646e-06
2.82646e-06
2.82647e-06
2.82647e-06
2.82648e-06
2.82648e-06
2.82648e-06
2.82648e-06
2.82649e-06
2.82649e-06
2.82649e-06
2.82649e-06
2.82649e-06
2.82649e-06
2.82649e-06
2.82649e-06
2.82649e-06
2.82649e-06
2.82649e-06
2.82649e-06
2.82649e-06
2.82649e-06
2.82649e-06
2.82649e-06
2.82649e-06
2.8265e-06
2.8265e-06
2.82641e-06
2.82641e-06
2.82644e-06
2.82643e-06
2.82643e-06
2.82642e-06
2.82641e-06
2.82641e-06
2.82642e-06
2.82642e-06
2.82643e-06
2.82643e-06
2.82644e-06
2.82646e-06
2.82647e-06
2.82648e-06
2.82648e-06
2.82649e-06
2.82649e-06
2.8265e-06
2.8265e-06
2.8265e-06
2.8265e-06
2.8265e-06
2.8265e-06
2.8265e-06
2.8265e-06
2.8265e-06
2.8265e-06
2.8265e-06
2.8265e-06
2.8265e-06
2.82651e-06
2.82651e-06
2.82651e-06
2.82651e-06
2.82652e-06
2.82652e-06
2.82652e-06
2.82652e-06
2.82639e-06
2.82639e-06
2.82639e-06
2.82639e-06
2.82639e-06
2.82639e-06
2.82639e-06
2.8264e-06
2.82641e-06
2.82643e-06
2.82644e-06
2.82646e-06
2.82648e-06
2.8265e-06
2.82651e-06
2.82651e-06
2.82651e-06
2.82651e-06
2.8265e-06
2.8265e-06
2.82649e-06
2.82649e-06
2.82649e-06
2.82648e-06
2.82648e-06
2.82648e-06
2.82647e-06
2.82647e-06
2.82647e-06
2.82647e-06
2.82647e-06
2.82647e-06
2.82647e-06
2.82647e-06
2.82647e-06
2.82647e-06
2.82647e-06
2.82647e-06
2.82647e-06
2.82647e-06
0.000164532
0.000151214
0.000133701
0.000122269
0.000113814
0.000106393
9.98421e-05
9.39453e-05
8.89143e-05
7.04613e-05
0.000361016
0.000368269
0.000371569
0.000373028
0.000373392
0.00037304
0.000372277
0.000371315
0.000370464
0.000368512
0.000430601
0.000433494
0.000435896
0.000437839
0.00043943
0.000440653
0.000441447
0.000441725
0.000441386
0.0004399
0.000402945
0.000398766
0.000396186
0.00039449
0.000393381
0.000392589
0.0003918
0.000390691
0.000388927
0.00038598
0.000267555
0.000261881
0.000257689
0.000254433
0.000251823
0.000249618
0.000247552
0.000245348
0.00024275
0.00023946
8.81791e-05
8.49754e-05
8.2349e-05
8.0127e-05
7.81928e-05
7.64484e-05
7.47989e-05
7.31555e-05
7.14528e-05
6.95549e-05
1.18257e-05
1.14292e-05
1.10929e-05
1.08023e-05
1.05462e-05
1.0315e-05
1.01007e-05
9.89621e-06
9.69573e-06
9.49339e-06
3.87511e-06
3.83377e-06
3.79703e-06
3.76405e-06
3.73407e-06
3.70648e-06
3.68067e-06
3.65632e-06
3.63281e-06
3.60991e-06
2.89882e-06
2.89701e-06
2.89527e-06
2.89363e-06
2.89206e-06
2.89059e-06
2.88904e-06
2.88793e-06
2.88722e-06
2.88593e-06
2.82949e-06
2.82871e-06
2.82798e-06
2.8273e-06
2.82668e-06
2.82611e-06
2.82558e-06
2.82509e-06
2.82464e-06
2.82418e-06
2.79737e-06
2.79788e-06
2.79832e-06
2.79873e-06
2.79909e-06
2.79943e-06
2.79974e-06
2.80002e-06
2.8003e-06
2.80053e-06
2.80868e-06
2.80851e-06
2.80824e-06
2.80799e-06
2.80774e-06
2.80755e-06
2.80742e-06
2.80733e-06
2.80731e-06
2.80708e-06
2.80639e-06
2.8067e-06
2.80712e-06
2.80764e-06
2.8082e-06
2.80858e-06
2.809e-06
2.80923e-06
2.80956e-06
2.80972e-06
2.81381e-06
2.81401e-06
2.81432e-06
2.81478e-06
2.81533e-06
2.81587e-06
2.81637e-06
2.81681e-06
2.81718e-06
2.81751e-06
2.82097e-06
2.82105e-06
2.82111e-06
2.82115e-06
2.82117e-06
2.82118e-06
2.82116e-06
2.82113e-06
2.82115e-06
2.82111e-06
2.82319e-06
2.82325e-06
2.82327e-06
2.82327e-06
2.82326e-06
2.82325e-06
2.82324e-06
2.82323e-06
2.82327e-06
2.82325e-06
2.82497e-06
2.82502e-06
2.82504e-06
2.82504e-06
2.82504e-06
2.82504e-06
2.82504e-06
2.82504e-06
2.82504e-06
2.82503e-06
2.82519e-06
2.82524e-06
2.82527e-06
2.8253e-06
2.82532e-06
2.82535e-06
2.82537e-06
2.82538e-06
2.82541e-06
2.82542e-06
2.82548e-06
2.82552e-06
2.82555e-06
2.82558e-06
2.82559e-06
2.8256e-06
2.82562e-06
2.82563e-06
2.82566e-06
2.82569e-06
2.82546e-06
2.8255e-06
2.82553e-06
2.82556e-06
2.82559e-06
2.82561e-06
2.82564e-06
2.82566e-06
2.82569e-06
2.82572e-06
2.82559e-06
2.82561e-06
2.82564e-06
2.82566e-06
2.82568e-06
2.8257e-06
2.82573e-06
2.82574e-06
2.82577e-06
2.8258e-06
2.82563e-06
2.82565e-06
2.82567e-06
2.82569e-06
2.82571e-06
2.82573e-06
2.82574e-06
2.82576e-06
2.82578e-06
2.8258e-06
2.82567e-06
2.82569e-06
2.82571e-06
2.82572e-06
2.82573e-06
2.82575e-06
2.82576e-06
2.82577e-06
2.82579e-06
2.82581e-06
2.82569e-06
2.82571e-06
2.82572e-06
2.82573e-06
2.82574e-06
2.82575e-06
2.82576e-06
2.82577e-06
2.82578e-06
2.82579e-06
2.82573e-06
2.82574e-06
2.82575e-06
2.82576e-06
2.82576e-06
2.82577e-06
2.82577e-06
2.82578e-06
2.82579e-06
2.82579e-06
2.8258e-06
2.82581e-06
2.82581e-06
2.82581e-06
2.82582e-06
2.82582e-06
2.82582e-06
2.82583e-06
2.82583e-06
2.82584e-06
2.82586e-06
2.82587e-06
2.82587e-06
2.82587e-06
2.82587e-06
2.82588e-06
2.82588e-06
2.82588e-06
2.82588e-06
2.82588e-06
2.82593e-06
2.82593e-06
2.82594e-06
2.82594e-06
2.82594e-06
2.82594e-06
2.82594e-06
2.82594e-06
2.82594e-06
2.82594e-06
2.82598e-06
2.82599e-06
2.82599e-06
2.82599e-06
2.82599e-06
2.82599e-06
2.82599e-06
2.82599e-06
2.82599e-06
2.82599e-06
2.82609e-06
2.82609e-06
2.82609e-06
2.82609e-06
2.82609e-06
2.82609e-06
2.82609e-06
2.82609e-06
2.82609e-06
2.82609e-06
2.82617e-06
2.82617e-06
2.82617e-06
2.82617e-06
2.82617e-06
2.82617e-06
2.82617e-06
2.82617e-06
2.82617e-06
2.82617e-06
2.82625e-06
2.82625e-06
2.82625e-06
2.82625e-06
2.82625e-06
2.82625e-06
2.82625e-06
2.82625e-06
2.82625e-06
2.82625e-06
2.82631e-06
2.82631e-06
2.82631e-06
2.82631e-06
2.82631e-06
2.82631e-06
2.82631e-06
2.82631e-06
2.82631e-06
2.82631e-06
2.8264e-06
2.8264e-06
2.8264e-06
2.8264e-06
2.8264e-06
2.8264e-06
2.8264e-06
2.8264e-06
2.8264e-06
2.8264e-06
2.82647e-06
2.82647e-06
2.82647e-06
2.82647e-06
2.82647e-06
2.82647e-06
2.82647e-06
2.82647e-06
2.82647e-06
2.82647e-06
2.82651e-06
2.82651e-06
2.82652e-06
2.82652e-06
2.82652e-06
2.82652e-06
2.82652e-06
2.82652e-06
2.82652e-06
2.82652e-06
2.82651e-06
2.82651e-06
2.82651e-06
2.82651e-06
2.82651e-06
2.82651e-06
2.82651e-06
2.82651e-06
2.82651e-06
2.82651e-06
2.8265e-06
2.8265e-06
2.8265e-06
2.8265e-06
2.8265e-06
2.8265e-06
2.8265e-06
2.8265e-06
2.8265e-06
2.8265e-06
2.82652e-06
2.82652e-06
2.82652e-06
2.82653e-06
2.82653e-06
2.82653e-06
2.82653e-06
2.82653e-06
2.82653e-06
2.82653e-06
2.82647e-06
2.82647e-06
2.82647e-06
2.82647e-06
2.82647e-06
2.82647e-06
2.82647e-06
2.82647e-06
2.82647e-06
2.82647e-06
7.409e-05
7.80618e-05
8.21399e-05
8.60528e-05
8.95213e-05
9.37478e-05
0.000100017
0.000110291
0.000125601
0.000147144
0.000177833
0.000216037
0.00024561
0.000249585
0.000240584
0.000244195
0.000260731
0.000277954
0.000296478
0.000327747
0.000352453
0.000372016
0.000383441
0.000386164
0.000386192
0.000386184
0.000386155
0.000383445
0.000372039
0.000352474
0.000327722
0.00029646
0.000277859
0.000260612
0.000244049
0.000240436
0.000249498
0.000245584
0.000216079
0.000177909
0.000147218
0.000125666
0.000110348
0.000100063
9.37868e-05
8.9554e-05
8.60785e-05
8.21556e-05
7.80654e-05
7.40827e-05
0.000369115
0.000366766
0.000361178
0.000352744
0.000341913
0.000329368
0.000315947
0.000302711
0.000291152
0.000283134
0.000280745
0.000285717
0.000297798
0.000315929
0.000343155
0.000388517
0.000458473
0.000543954
0.0006255
0.000684145
0.000725067
0.000747912
0.000747868
0.00072264
0.000709051
0.000709007
0.000722544
0.00074779
0.000747896
0.000725096
0.000684193
0.000625562
0.000544064
0.000458586
0.000388598
0.000343206
0.000315969
0.000297837
0.000285754
0.000280774
0.000283154
0.000291163
0.000302715
0.000315948
0.000329368
0.000341912
0.000352744
0.000361178
0.000366767
0.000369116
0.000439544
0.000439293
0.000437773
0.000434804
0.000430171
0.00042366
0.000415186
0.000404827
0.000392995
0.000380659
0.000369314
0.000360804
0.000357027
0.000359858
0.000372077
0.000399323
0.000451373
0.000538322
0.000656675
0.000781241
0.000883248
0.000948583
0.000979649
0.000979204
0.000948919
0.000948801
0.000979096
0.00097964
0.000948687
0.000883467
0.000781556
0.000656999
0.000538572
0.000451524
0.000399405
0.000372123
0.000359886
0.000357044
0.000360813
0.000369317
0.000380657
0.000392992
0.000404824
0.000415185
0.00042366
0.000430173
0.000434808
0.000437777
0.000439298
0.00043955
0.000385048
0.000386492
0.000388739
0.000391569
0.000394667
0.000397637
0.000400022
0.000401347
0.000401184
0.000399285
0.000395774
0.000391316
0.000387209
0.000385427
0.000388781
0.000401645
0.000431397
0.000489589
0.000588792
0.000729297
0.000884328
0.00101302
0.0010898
0.00111746
0.00110413
0.00110345
0.00111717
0.0010898
0.00101328
0.000884765
0.00072974
0.000589114
0.000489775
0.000431492
0.000401692
0.000388804
0.000385437
0.000387214
0.000391318
0.000395775
0.000399287
0.000401189
0.000401354
0.000400031
0.000397647
0.000394678
0.00039158
0.00038875
0.000386504
0.000385059
0.00023829
0.000240407
0.000245181
0.000252434
0.000261888
0.00027317
0.000285811
0.000299255
0.000312869
0.000325988
0.000337935
0.000348253
0.000356916
0.000364454
0.000372377
0.000383718
0.000403888
0.000442119
0.000512437
0.000629876
0.000794635
0.000973225
0.00111343
0.0011844
0.00119951
0.00119945
0.00118451
0.00111379
0.000973755
0.000795147
0.000630239
0.000512644
0.000442223
0.000403937
0.000383742
0.000372389
0.000364462
0.000356923
0.000348261
0.000337944
0.000325999
0.000312881
0.000299268
0.000285825
0.000273184
0.000261902
0.000252447
0.000245193
0.000240419
0.0002383
6.88255e-05
7.04082e-05
7.53541e-05
8.37466e-05
9.56127e-05
0.000110825
0.00012905
0.000149779
0.000172397
0.000196268
0.000220623
0.000244762
0.000268076
0.000290125
0.000310876
0.000331367
0.000354533
0.000386611
0.000438996
0.000529034
0.000673557
0.000866233
0.00105633
0.00117878
0.00121463
0.00121463
0.00117902
0.0010568
0.000866728
0.000673919
0.000529243
0.000439101
0.00038666
0.000354557
0.00033138
0.000310887
0.000290136
0.000268088
0.000244775
0.000220636
0.000196281
0.00017241
0.000149792
0.000129062
0.000110835
9.56217e-05
8.37541e-05
7.53601e-05
7.04129e-05
6.88291e-05
9.40661e-06
9.64313e-06
1.05579e-05
1.23568e-05
1.54261e-05
2.03844e-05
2.80994e-05
3.9579e-05
5.56455e-05
7.65148e-05
0.000101574
0.00012965
0.000159548
0.000190252
0.000220989
0.000251575
0.000282863
0.000317934
0.000364281
0.000436504
0.000556541
0.000739938
0.000958926
0.00112989
0.00119109
0.00119112
0.00113018
0.000959342
0.000740274
0.000556742
0.000436606
0.000364329
0.000317957
0.000282876
0.000251585
0.000220998
0.000190261
0.000159558
0.00012966
0.000101584
7.65232e-05
5.56524e-05
3.95842e-05
2.8103e-05
2.03867e-05
1.54276e-05
1.23577e-05
1.05584e-05
9.64341e-06
9.40673e-06
3.59845e-06
3.62553e-06
3.74399e-06
3.98767e-06
4.42299e-06
5.16938e-06
6.44143e-06
8.61806e-06
1.23597e-05
1.87382e-05
2.92427e-05
4.53997e-05
6.79732e-05
9.63457e-05
0.000128866
0.000163925
0.0002008
0.000240353
0.000286572
0.000349703
0.000450199
0.000615233
0.000845339
0.00106178
0.00115497
0.00115503
0.00106204
0.000845614
0.000615407
0.000450288
0.000349744
0.000286591
0.000240363
0.000200806
0.000163931
0.000128871
9.63513e-05
6.79783e-05
4.54039e-05
2.92457e-05
1.87402e-05
1.23609e-05
8.61879e-06
6.44186e-06
5.16962e-06
4.42312e-06
3.98774e-06
3.74403e-06
3.62554e-06
3.59845e-06
2.88507e-06
2.889e-06
2.90843e-06
2.95076e-06
3.03032e-06
3.17278e-06
3.42374e-06
3.86365e-06
4.6385e-06
6.01902e-06
8.5163e-06
1.30736e-05
2.12635e-05
3.52121e-05
5.67605e-05
8.61847e-05
0.000122076
0.00016302
0.000209878
0.000268659
0.000355544
0.000500976
0.000729077
0.000982952
0.0011135
0.00111356
0.000983124
0.000729197
0.000501033
0.000355568
0.000268669
0.000209882
0.000163022
0.000122077
8.61859e-05
5.67618e-05
3.52134e-05
2.12645e-05
1.30743e-05
8.51678e-06
6.01932e-06
4.63868e-06
3.86377e-06
3.42381e-06
3.17283e-06
3.03035e-06
2.95077e-06
2.90844e-06
2.88901e-06
2.88507e-06
2.82379e-06
2.82453e-06
2.82718e-06
2.83304e-06
2.84529e-06
2.87066e-06
2.92167e-06
3.02133e-06
3.21028e-06
3.56157e-06
4.21046e-06
5.41804e-06
7.70538e-06
1.20995e-05
2.04611e-05
3.55607e-05
6.00489e-05
9.47583e-05
0.000139014