/*--------------------------------*- C++ -*----------------------------------*\
  =========                 |
  \\      /  F ield         | OpenFOAM: The Open Source CFD Toolbox
   \\    /   O peration     | Website:  https://openfoam.org
    \\  /    A nd           | Version:  10
     \\/     M anipulation  |
\*---------------------------------------------------------------------------*/
FoamFile
{
    format      ascii;
    class       volVectorField;
    location    "622";
    object      U;
}
// * * * * * * * * * * * * * * * * * * * * * * * * * * * * * * * * * * * * * //

dimensions      [0 1 -1 0 0 0 0];

internalField   nonuniform List<vector> 
6150
(
(2.90052 3.62308 0)
(4.62245 10.1724 1.12972e-16)
(8.59426 16.1376 -8.75122e-17)
(13.4446 17.5673 0)
(16.648 17.1638 -4.7183e-15)
(18.9193 16.0728 -4.45739e-15)
(20.5244 14.768 -1.43078e-16)
(21.6147 13.2908 4.25592e-15)
(22.3623 11.7581 -4.24434e-15)
(22.9387 10.1967 -4.53398e-15)
(23.382 8.65919 0)
(23.6699 7.20225 2.89463e-19)
(23.776 5.85477 0)
(23.7016 4.61776 0)
(23.4872 3.49235 9.19102e-15)
(23.1224 2.4406 2.98318e-16)
(22.6501 1.42937 0)
(22.1512 0.509896 4.40408e-16)
(21.6306 -0.310309 2.84741e-16)
(21.0377 -1.00221 -2.74043e-16)
(20.404 -1.60661 1.37055e-16)
(19.8126 -1.86883 0)
(19.2957 -2.03014 1.86893e-14)
(18.8427 -2.1569 -1.94129e-14)
(18.4217 -2.26053 1.01396e-14)
(18.0076 -2.34346 0)
(17.5971 -2.40591 1.05519e-14)
(17.1903 -2.45015 -1.07625e-14)
(16.7906 -2.47878 5.48948e-15)
(16.3884 -2.49089 8.96127e-17)
(15.9726 -2.49099 8.10351e-21)
(15.5438 -2.47832 -3.13646e-15)
(15.1041 -2.45285 0)
(14.651 -2.41455 -6.48224e-15)
(14.1778 -2.36311 -1.72917e-15)
(13.6728 -2.29567 8.15229e-17)
(13.1271 -2.2099 -3.64899e-15)
(12.5031 -2.09554 0)
(11.8324 -1.93287 9.90041e-16)
(10.6553 -1.68049 -1.06112e-15)
(5.46787 2.88233 -1.09393e-16)
(7.4574 8.305 8.05728e-17)
(12.3031 11.4864 -1.45772e-16)
(17.3903 12.8161 2.72195e-16)
(21.7019 12.48 -4.56061e-15)
(24.9307 11.3638 2.53863e-16)
(27.3499 9.95284 2.50533e-16)
(29.0604 8.46026 -4.38277e-15)
(30.4869 7.15316 2.358e-16)
(31.2447 5.99671 7.2987e-15)
(31.4604 4.95927 -2.22884e-16)
(31.4007 4.00822 -6.81717e-15)
(31.1633 3.12222 2.18183e-16)
(30.7698 2.29693 -7.13429e-15)
(30.24 1.50845 -6.86806e-15)
(29.579 0.77386 -2.12848e-16)
(28.8256 0.114301 3.55354e-15)
(27.9447 -0.474349 0)
(26.9211 -0.996768 0)
(25.8147 -1.46961 0)
(24.7692 -1.85896 1.13422e-14)
(23.8905 -2.13756 -1.17085e-14)
(23.1847 -2.32554 -1.20852e-14)
(22.5984 -2.47418 0)
(22.0805 -2.59741 -6.42029e-15)
(21.5935 -2.69718 6.61042e-15)
(21.1241 -2.77307 -6.70232e-15)
(20.668 -2.82706 -1.09529e-16)
(20.2272 -2.86476 -1.12788e-16)
(19.7956 -2.88264 3.8286e-15)
(19.362 -2.88404 5.96686e-17)
(18.9242 -2.86961 1.90298e-15)
(18.4836 -2.84101 6.31653e-17)
(18.0391 -2.79726 2.01447e-15)
(17.5875 -2.73758 1.06955e-15)
(17.12 -2.6572 1.06579e-15)
(16.6383 -2.55058 3.53905e-17)
(16.1044 -2.40726 -5.82519e-16)
(15.6047 -2.20951 -5.97725e-16)
(14.8247 -1.94576 0)
(7.94656 2.22724 0)
(9.26003 6.67804 0)
(11.7514 10.4862 0)
(15.5092 12.606 0)
(19.2351 13.4657 3.32254e-15)
(22.1263 13.2811 -3.23826e-15)
(24.3177 12.7061 0)
(25.9929 11.7957 -3.9072e-16)
(27.252 10.7642 9.30417e-20)
(28.2093 9.64063 -2.66487e-15)
(28.9425 8.4777 -3.75652e-16)
(29.4936 7.29311 6.31711e-15)
(29.8789 6.11424 0)
(30.1119 4.95775 5.48569e-15)
(30.2302 3.8186 3.63294e-16)
(30.1967 2.71655 0)
(30.0309 1.65718 -3.20261e-15)
(29.7045 0.649229 3.47593e-16)
(29.1819 -0.266464 2.66967e-15)
(28.4367 -1.09009 0)
(27.5374 -1.73529 -9.76646e-15)
(26.6556 -2.16918 9.8463e-15)
(25.8875 -2.4501 9.97688e-15)
(25.2257 -2.64944 0)
(24.6389 -2.80284 5e-15)
(24.0979 -2.92481 -1.03532e-14)
(23.5866 -3.01933 0)
(23.0978 -3.08185 0)
(22.6316 -3.1239 -2.16001e-21)
(22.1805 -3.14399 -5.72573e-15)
(21.7335 -3.14599 0)
(21.2879 -3.12873 1.49587e-15)
(20.8449 -3.09544 1.52999e-15)
(20.4038 -3.04476 4.88995e-17)
(19.9626 -2.97532 7.49915e-16)
(19.5145 -2.8838 0)
(19.0636 -2.76512 8.61365e-16)
(18.5769 -2.60942 3.99794e-16)
(18.1413 -2.39667 -4.33682e-16)
(17.5431 -2.1118 -4.42121e-16)
(10.1895 1.67138 2.22468e-16)
(11.0599 5.34478 0)
(12.7687 8.55152 -1.25945e-15)
(15.7404 10.6655 -1.7759e-16)
(19.2581 11.5642 0)
(22.3618 11.5729 2.39791e-15)
(24.8413 10.8922 3.39828e-16)
(26.7635 9.84352 0)
(28.2427 8.62466 0)
(29.3557 7.3693 0)
(30.1747 6.16355 -4.96021e-15)
(30.7617 5.02359 -5.56041e-15)
(31.1302 3.95247 3.22517e-16)
(31.4122 2.96901 -5.10885e-21)
(31.4486 2.0389 -3.13664e-16)
(31.3808 1.15571 4.97297e-15)
(31.2326 0.324315 -2.46432e-15)
(30.988 -0.445751 -3.04813e-16)
(30.6099 -1.12298 -1.79526e-15)
(30.0945 -1.73188 4.35629e-15)
(29.4495 -2.22362 0)
(28.7608 -2.5667 0)
(28.1063 -2.7983 -1.81308e-14)
(27.4698 -2.9689 2.78934e-16)
(26.8927 -3.1058 0)
(26.3751 -3.21868 4.49293e-15)
(25.8565 -3.30704 -4.38314e-15)
(25.3535 -3.3657 -2.85401e-16)
(24.8731 -3.4107 -4.47517e-15)
(24.4105 -3.42316 4.74525e-15)
(23.9571 -3.4184 -7.39259e-17)
(23.5107 -3.39482 -1.19911e-15)
(23.0729 -3.35103 -1.2166e-15)
(22.6428 -3.28861 -7.71672e-17)
(22.2181 -3.20398 -5.48207e-16)
(21.7924 -3.09059 0)
(21.3707 -2.95187 0)
(20.9318 -2.7823 0)
(20.5538 -2.5599 6.60836e-16)
(20.0682 -2.29483 3.34761e-16)
(12.212 1.26704 -2.66325e-16)
(12.744 4.27717 7.74871e-17)
(13.9056 6.99207 1.18219e-15)
(15.7262 9.30124 2.90152e-16)
(18.4356 10.723 -2.87172e-16)
(21.3261 11.1625 -2.83022e-16)
(23.7877 10.9387 2.81084e-16)
(25.7148 10.3664 -2.22317e-15)
(27.2041 9.56468 4.39638e-15)
(28.3361 8.63797 4.90192e-15)
(29.1862 7.65615 3.2449e-15)
(29.8089 6.65018 5.37458e-16)
(30.2432 5.63597 3.73124e-15)
(30.5168 4.63431 4.74901e-15)
(30.6631 3.64076 0)
(30.6959 2.64608 -4.14824e-15)
(30.6314 1.67702 -5.74583e-20)
(30.4508 0.755344 0)
(30.1592 -0.094618 2.57859e-16)
(29.7655 -0.863279 -8.72676e-15)
(29.2951 -1.51727 8.39676e-15)
(28.8099 -2.00605 -2.53243e-16)
(28.3611 -2.35616 1.63361e-14)
(27.9523 -2.62139 -2.49347e-16)
(27.57 -2.83573 -3.4657e-15)
(27.2002 -3.01159 3.44362e-15)
(26.8371 -3.15071 2.44926e-16)
(26.4767 -3.25876 0)
(26.1231 -3.32987 2.6114e-22)
(25.7729 -3.37643 -1.95953e-15)
(25.4215 -3.40337 -1.96574e-15)
(25.0706 -3.40015 -9.87445e-16)
(24.7222 -3.37262 0)
(24.376 -3.3209 -9.37662e-16)
(24.0326 -3.24488 4.6231e-21)
(23.6877 -3.14325 -6.34312e-17)
(23.3497 -3.00993 0)
(23.0076 -2.84428 0)
(22.7203 -2.63453 -2.58849e-16)
(22.3696 -2.41066 0)
(14.0109 0.964259 -1.46399e-16)
(14.3637 3.38425 0)
(15.1718 5.64564 2.46867e-16)
(16.3702 7.68857 -1.69569e-15)
(18.3125 9.21776 -1.9252e-15)
(20.8275 9.99598 -4.7616e-16)
(23.2741 10.0882 -1.88484e-15)
(25.3164 9.68506 1.86569e-15)
(26.9376 8.94123 7.70381e-19)
(28.1993 7.99422 -3.67704e-15)
(29.1708 6.93386 3.66245e-15)
(29.8974 5.82663 3.64996e-15)
(30.4185 4.72259 -7.27886e-15)
(30.7357 3.65309 -7.24344e-15)
(30.9823 2.64695 -3.579e-15)
(30.9781 1.67322 -3.54565e-15)
(30.91 0.743182 2.20622e-15)
(30.7246 -0.12617 -4.40319e-16)
(30.4272 -0.910855 0)
(30.0281 -1.60902 3.07368e-15)
(29.5528 -2.19017 -6.92813e-21)
(29.069 -2.60757 4.33368e-16)
(28.6262 -2.89034 -7.31852e-15)
(28.2303 -3.09489 4.27998e-16)
(27.8694 -3.25493 3.4009e-15)
(27.5279 -3.38039 -3.37143e-15)
(27.2004 -3.4769 6.69659e-15)
(26.8865 -3.54519 0)
(26.5875 -3.59613 1.66082e-15)
(26.2986 -3.59492 0)
(26.0171 -3.57788 1.65367e-15)
(25.7425 -3.54813 1.65384e-15)
(25.4738 -3.50046 -1.03514e-16)
(25.213 -3.43197 1.76348e-15)
(24.9577 -3.34265 0)
(24.7044 -3.23217 5.21455e-17)
(24.4661 -3.09439 -5.22916e-17)
(24.2583 -2.93338 2.09655e-16)
(24.0912 -2.74148 0)
(23.9221 -2.55077 0)
(15.6104 0.733609 1.23142e-16)
(15.8623 2.6807 -2.17659e-16)
(16.3737 4.54708 2.08281e-16)
(17.2157 6.29395 2.04137e-15)
(18.4536 7.87821 1.20636e-15)
(20.3295 8.96782 -1.59357e-15)
(22.5231 9.39881 -4.4806e-19)
(24.5718 9.28003 0)
(26.2697 8.78944 -3.09267e-15)
(27.6026 8.08389 0)
(28.6351 7.23089 -7.61862e-16)
(29.4194 6.29266 -1.51605e-15)
(29.9885 5.32406 2.2633e-15)
(30.3672 4.35734 6.01619e-15)
(30.5827 3.41918 2.24569e-15)
(30.6701 2.49152 7.40432e-16)
(30.641 1.57331 1.47327e-15)
(30.4932 0.695931 -7.35401e-16)
(30.2281 -0.109298 1.10334e-15)
(29.8539 -0.842678 -3.67099e-16)
(29.4005 -1.45476 6.60788e-20)
(28.9329 -1.90953 -6.13453e-15)
(28.4994 -2.23407 -5.3838e-15)
(28.1074 -2.47935 -3.22441e-15)
(27.7482 -2.6756 3.57885e-16)
(27.4095 -2.83578 0)
(27.0862 -2.96641 8.81523e-21)
(26.7796 -3.07197 0)
(26.4903 -3.15189 1.40358e-15)
(26.2154 -3.20712 1.74935e-16)
(25.9514 -3.23586 -1.74685e-16)
(25.6985 -3.23128 -6.98509e-16)
(25.4598 -3.20791 0)
(25.2381 -3.16362 -1.39924e-15)
(25.0335 -3.09316 -3.50144e-16)
(24.846 -3.0005 0)
(24.678 -2.88704 3.50991e-16)
(24.5319 -2.7576 -7.32147e-21)
(24.4184 -2.60952 0)
(24.3334 -2.45998 0)
(17.0296 0.557006 -2.09494e-16)
(17.2188 2.1439 -1.85917e-16)
(17.5442 3.64353 5.34913e-20)
(18.1292 5.11142 3.46609e-16)
(18.968 6.50208 1.35985e-15)
(20.2495 7.66172 3.35732e-15)
(22.0199 8.37485 1.3272e-15)
(23.9434 8.55529 -3.49155e-19)
(25.6862 8.30554 -3.24679e-15)
(27.1128 7.75854 -2.57605e-15)
(28.232 7.00776 -3.19826e-15)
(29.1001 6.11472 -1.90943e-15)
(29.7512 5.14007 3.16943e-15)
(30.2057 4.13648 -3.16079e-15)
(30.4795 3.14575 -6.32101e-16)
(30.622 2.1841 3.14761e-15)
(30.6091 1.2357 -1.2495e-15)
(30.4967 0.329614 6.23204e-16)
(30.2578 -0.504461 6.3643e-20)
(29.9051 -1.24276 -6.17193e-16)
(29.4674 -1.85758 -4.87944e-15)
(29.0086 -2.31319 4.83313e-15)
(28.5792 -2.63401 -3.37786e-20)
(28.1888 -2.87039 -1.35899e-20)
(27.8319 -3.05328 0)
(27.496 -3.19491 -2.39321e-15)
(27.1756 -3.29499 -2.37591e-15)
(26.8712 -3.35802 2.953e-16)
(26.5842 -3.41065 -1.17717e-15)
(26.313 -3.41052 1.02631e-15)
(26.0546 -3.39161 1.02417e-15)
(25.8089 -3.35443 0)
(25.5798 -3.30151 -5.84884e-16)
(25.3676 -3.22913 4.39e-16)
(25.1726 -3.13995 5.12656e-16)
(24.9988 -3.03462 -2.93245e-16)
(24.8498 -2.9153 -3.67059e-16)
(24.7272 -2.78589 -1.8375e-16)
(24.6336 -2.64898 -1.10349e-16)
(24.5674 -2.51356 0)
(18.2839 0.423514 1.79475e-16)
(18.4297 1.7217 -1.59882e-16)
(18.6585 2.91025 6.06202e-16)
(19.0388 4.12268 -5.90667e-16)
(19.6373 5.31904 -1.15523e-15)
(20.4804 6.43582 -5.67181e-16)
(21.7357 7.29726 -5.59833e-16)
(23.346 7.75715 -1.10449e-15)
(25.0191 7.77387 1.09043e-15)
(26.5 7.43293 2.16227e-15)
(27.6951 6.86339 0)
(28.6308 6.12474 4.26469e-15)
(29.3494 5.26883 -5.30305e-15)
(29.8704 4.3525 1.09386e-19)
(30.2076 3.42607 -1.05415e-15)
(30.3842 2.52129 0)
(30.4277 1.62271 1.04863e-15)
(30.3471 0.747933 -1.04435e-15)
(30.1422 -0.0644984 6.49698e-16)
(29.8183 -0.792923 -2.56423e-15)
(29.4042 -1.40445 0)
(28.9649 -1.86203 4.01421e-15)
(28.5487 -2.18713 7.48826e-15)
(28.1674 -2.42637 2.9905e-15)
(27.8175 -2.60817 -9.98113e-16)
(27.4907 -2.74704 2.50079e-15)
(27.1809 -2.84618 0)
(26.8877 -2.92296 -2.47174e-16)
(26.6126 -2.9762 2.46237e-16)
(26.3536 -3.00437 -1.96286e-15)
(26.109 -3.00799 -7.34365e-16)
(25.8776 -2.99079 -4.89103e-16)
(25.66 -2.95468 7.33786e-16)
(25.4604 -2.90374 0)
(25.2834 -2.84036 0)
(25.1301 -2.75938 2.45244e-16)
(25.001 -2.66746 3.06955e-16)
(24.8961 -2.56902 -3.07332e-17)
(24.8154 -2.46784 2.3079e-16)
(24.7564 -2.36945 -1.54176e-17)
(19.3888 0.323412 3.18265e-16)
(19.5058 1.38754 -2.75735e-16)
(19.6751 2.34102 -1.04212e-15)
(19.9262 3.31862 1.65278e-19)
(20.3378 4.31138 -9.84833e-16)
(20.9314 5.27172 1.92794e-15)
(21.7769 6.14548 0)
(22.9803 6.77552 1.86557e-15)
(24.4336 7.04284 -1.84097e-15)
(25.8916 6.93627 -1.82021e-15)
(27.1501 6.54164 1.80435e-15)
(28.1532 5.94947 -2.68572e-15)
(28.9366 5.20247 1.7797e-15)
(29.5276 4.34837 -1.13514e-19)
(29.9356 3.44353 8.82922e-16)
(30.1724 2.53429 1.76413e-15)
(30.2626 1.63284 1.76256e-15)
(30.224 0.740159 0)
(30.058 -0.102145 -1.08769e-16)
(29.7677 -0.86355 8.58764e-16)
(29.38 -1.49007 8.46226e-16)
(28.957 -1.96158 -2.5178e-15)
(28.5498 -2.29955 -3.34062e-15)
(28.1731 -2.54885 0)
(27.8266 -2.73741 1.25242e-15)
(27.5034 -2.88012 -4.04645e-20)
(27.1957 -2.98492 -1.67148e-15)
(26.9045 -3.0508 -4.15307e-16)
(26.6328 -3.10365 -8.26997e-16)
(26.3779 -3.10881 8.23804e-16)
(26.1416 -3.09423 -2.054e-16)
(25.9268 -3.06321 4.10105e-16)
(25.7332 -3.01611 -2.04909e-16)
(25.5587 -2.95392 0)
(25.403 -2.87524 -2.04997e-16)
(25.2678 -2.78746 0)
(25.155 -2.69461 -2.05372e-16)
(25.0641 -2.60026 -1.02796e-16)
(24.9939 -2.50751 -1.02921e-16)
(24.9407 -2.42012 0)
(20.3602 0.247692 -8.30437e-18)
(20.4583 1.12294 0)
(20.586 1.88504 -8.9685e-16)
(20.7683 2.66196 -1.73005e-15)
(21.0455 3.47746 2.52277e-15)
(21.4659 4.30183 -1.64084e-15)
(22.044 5.08473 -1.60718e-15)
(22.8703 5.75948 -1.57829e-15)
(23.9928 6.20992 1.28769e-19)
(25.288 6.33548 3.06996e-15)
(26.5511 6.13937 -3.03714e-15)
(27.6164 5.71096 3.01108e-15)
(28.4575 5.11079 -2.98955e-15)
(29.1081 4.37321 0)
(29.583 3.54782 2.95791e-15)
(29.8858 2.68722 -4.42321e-15)
(30.0301 1.83077 7.05467e-20)
(30.0381 0.973301 -1.46432e-15)
(29.9181 0.149498 0)
(29.6703 -0.601325 -5.4222e-20)
(29.3168 -1.22649 7.04703e-16)
(28.9185 -1.69391 0)
(28.5283 -2.029 6.95863e-16)
(28.1639 -2.27435 6.94897e-16)
(27.8279 -2.45573 6.95868e-16)
(27.5166 -2.58836 6.50297e-20)
(27.2243 -2.6796 6.99201e-16)
(26.9515 -2.74214 1.38934e-15)
(26.6972 -2.77396 1.38235e-15)
(26.4601 -2.78153 -3.44149e-16)
(26.242 -2.76865 -3.4311e-16)
(26.042 -2.73846 0)
(25.8598 -2.69661 0)
(25.6959 -2.64391 -5.13352e-16)
(25.5523 -2.58569 -1.78696e-21)
(25.4304 -2.51978 2.56953e-16)
(25.3294 -2.4546 -2.57237e-16)
(25.2471 -2.38564 3.63215e-21)
(25.1814 -2.31813 0)
(25.1292 -2.25581 0)
(21.2124 0.190276 -3.43059e-16)
(21.2974 0.912679 4.10527e-16)
(21.3971 1.522 9.98259e-20)
(21.534 2.147 1.48345e-15)
(21.7266 2.80036 -2.87205e-15)
(22.0176 3.47131 0)
(22.4363 4.13901 8.91316e-20)
(23.0021 4.77177 1.33848e-15)
(23.7976 5.28481 0)
(24.8261 5.59027 1.29709e-15)
(25.9706 5.60944 0)
(27.0561 5.35359 1.26781e-15)
(27.9521 4.90393 1.25647e-15)
(28.6536 4.29728 0)
(29.1868 3.56852 3.68813e-20)
(29.5564 2.76538 1.23442e-15)
(29.7622 1.93824 -1.23005e-15)
(29.8217 1.1058 0)
(29.7515 0.283392 6.06709e-16)
(29.5518 -0.481981 0)
(29.2391 -1.12631 -1.17761e-15)
(28.869 -1.60371 -1.1681e-15)
(28.4955 -1.94951 -5.52436e-20)
(28.142 -2.20459 -1.7426e-15)
(27.815 -2.39322 -5.81583e-16)
(27.5119 -2.53131 -5.83225e-16)
(27.2267 -2.62788 1.17076e-15)
(26.9579 -2.70038 -5.82866e-16)
(26.7054 -2.73471 -1.15968e-15)
(26.4724 -2.74405 1.15499e-15)
(26.2647 -2.73335 -2.87829e-16)
(26.0827 -2.70477 1.13691e-20)
(25.9218 -2.66448 2.55353e-21)
(25.7795 -2.61553 5.73186e-16)
(25.6551 -2.55948 4.29859e-16)
(25.5486 -2.49981 -1.43331e-16)
(25.4593 -2.43629 2.15175e-16)
(25.3853 -2.37332 2.18889e-21)
(25.325 -2.31312 0)
(25.276 -2.25778 0)
(21.9583 0.146112 -9.83222e-17)
(22.0337 0.744174 0)
(22.113 1.23189 0)
(22.2186 1.73069 -1.27114e-15)
(22.3634 2.25095 1.22739e-15)
(22.5658 2.79513 0)
(22.8608 3.35019 1.16332e-15)
(23.2656 3.89139 2.27403e-15)
(23.8133 4.39405 -2.23023e-15)
(24.5651 4.77835 -1.09716e-15)
(25.4935 4.96745 2.16414e-15)
(26.4954 4.90209 -4.74961e-19)
(27.4194 4.60394 -2.11738e-15)
(28.1661 4.14071 0)
(28.7448 3.53779 2.08291e-15)
(29.1715 2.82843 0)
(29.4416 2.05935 0)
(29.5587 1.2779 0)
(29.5416 0.486602 2.53402e-15)
(29.3966 -0.266881 -2.062e-15)
(29.1345 -0.914463 4.91834e-16)
(28.8017 -1.38896 -9.74677e-16)
(28.4514 -1.73362 0)
(28.115 -1.98698 9.69622e-16)
(27.8032 -2.17204 -9.70585e-16)
(27.5143 -2.3041 9.72941e-16)
(27.248 -2.39449 -4.87962e-16)
(27.0018 -2.44797 -9.75179e-16)
(26.7723 -2.47527 9.69366e-16)
(26.5623 -2.47897 -1.56276e-20)
(26.3733 -2.46348 9.61689e-16)
(26.2042 -2.43572 5.0552e-21)
(26.0543 -2.39934 -2.39477e-16)
(25.9232 -2.35654 -6.90465e-21)
(25.8099 -2.30959 -2.39223e-16)
(25.7126 -2.26061 1.19639e-16)
(25.6298 -2.21175 -2.39438e-16)
(25.5599 -2.16449 5.99139e-17)
(25.5015 -2.11951 -5.9978e-17)
(25.4524 -2.07878 0)
(22.6086 0.111996 -6.74962e-16)
(22.6759 0.609476 1.51964e-15)
(22.7403 1.00091 -8.48087e-20)
(22.8241 1.39783 3.26514e-15)
(22.9358 1.81504 -1.04792e-15)
(23.0825 2.2457 -2.03155e-15)
(23.2912 2.69134 3.95918e-15)
(23.5838 3.14834 -1.93211e-15)
(23.9704 3.58603 1.89221e-15)
(24.493 3.97422 1.98265e-19)
(25.1897 4.24981 3.37033e-19)
(26.0173 4.34395 3.61094e-15)
(26.8859 4.21288 1.78449e-15)
(27.6636 3.8918 -3.53354e-15)
(28.2794 3.42141 4.27841e-20)
(28.7486 2.82558 -3.473e-15)
(29.0764 2.1391 1.72373e-15)
(29.2531 1.4107 3.42182e-15)
(29.2904 0.663787 -2.54157e-15)
(29.2022 -0.0728188 5.22164e-17)
(28.9987 -0.721147 4.11225e-16)
(28.7113 -1.20555 -2.03606e-15)
(28.388 -1.55508 1.62245e-15)
(28.0707 -1.81237 1.62049e-15)
(27.7749 -2.00102 -1.62155e-15)
(27.5014 -2.13622 -1.21874e-15)
(27.248 -2.22882 1.22195e-15)
(27.0101 -2.29063 -1.22471e-15)
(26.7891 -2.32488 -2.42872e-20)
(26.5905 -2.33615 4.04373e-16)
(26.4145 -2.33001 -1.20862e-15)
(26.2602 -2.31074 8.03558e-16)
(26.1256 -2.28199 4.0103e-16)
(26.008 -2.24688 -8.01117e-16)
(25.9053 -2.20797 3.00266e-16)
(25.8167 -2.16724 -3.00248e-16)
(25.7413 -2.12628 2.0025e-16)
(25.6773 -2.08636 1.02695e-21)
(25.6233 -2.04823 -5.01384e-17)
(25.5772 -2.01315 0)
(23.1726 0.0859011 2.8902e-16)
(23.2322 0.500833 2.60701e-16)
(23.2867 0.815128 -1.95174e-15)
(23.3545 1.12941 1.86052e-15)
(23.4426 1.46136 -3.57584e-15)
(23.5553 1.80242 1.73002e-15)
(23.7052 2.15858 -5.04924e-15)
(23.9152 2.52723 4.92385e-15)
(24.1982 2.89552 -1.60525e-15)
(24.5654 3.24415 -6.29621e-15)
(25.0566 3.53349 3.09706e-15)
(25.6886 3.7168 -1.52588e-15)
(26.4174 3.73827 -1.50586e-15)
(27.1586 3.55965 1.48855e-15)
(27.8005 3.2225 0)
(28.3007 2.75197 1.45872e-15)
(28.6707 2.1722 0)
(28.9037 1.51737 2.86394e-15)
(28.9973 0.835203 -2.83438e-15)
(28.9656 0.13739 -1.39649e-15)
(28.8236 -0.492373 1.28918e-15)
(28.5908 -0.98429 -8.50804e-16)
(28.3057 -1.33074 1.35556e-15)
(28.0134 -1.58538 -3.3843e-16)
(27.7384 -1.77236 -1.35418e-15)
(27.485 -1.90572 3.05143e-15)
(27.2517 -1.99643 -3.39661e-16)
(27.0388 -2.05338 -1.02148e-15)
(26.8449 -2.08179 3.39804e-16)
(26.668 -2.08961 -6.76123e-16)
(26.5093 -2.08273 -1.68377e-16)
(26.3684 -2.06529 5.03518e-16)
(26.2444 -2.04081 1.67493e-16)
(26.1368 -2.01173 -1.67267e-16)
(26.044 -1.97988 2.50698e-16)
(25.9643 -1.94684 -8.3545e-17)
(25.8956 -1.91393 -8.35606e-17)
(25.8362 -1.88212 8.36034e-17)
(25.785 -1.85177 -4.18304e-17)
(25.7404 -1.82418 4.18828e-17)
(23.6589 0.0664141 -2.47019e-16)
(23.7114 0.411804 0)
(23.7591 0.66465 -8.3404e-16)
(23.8143 0.913689 0)
(23.8851 1.17723 7.23576e-20)
(23.9736 1.4482 2.94298e-15)
(24.0851 1.72672 0)
(24.2378 2.01771 -1.39319e-15)
(24.4433 2.31841 1.36154e-15)
(24.7106 2.6084 2.66822e-15)
(25.0569 2.87646 -3.93036e-15)
(25.5132 3.0865 3.86947e-15)
(26.0771 3.19345 -1.27161e-15)
(26.7103 3.15247 -1.25531e-15)
(27.3311 2.94094 1.24053e-15)
(27.85 2.59481 -1.22626e-15)
(28.2465 2.13309 -2.42614e-15)
(28.5228 1.57658 1.19989e-15)
(28.6682 0.966021 0)
(28.6894 0.328191 1.16755e-15)
(28.6062 -0.269918 7.18773e-17)
(28.4355 -0.754465 -1.06744e-16)
(28.1991 -1.10039 -1.41667e-16)
(27.9361 -1.35408 2.82843e-16)
(27.6843 -1.54098 8.48503e-16)
(27.4528 -1.67562 -1.13239e-15)
(27.2398 -1.76876 2.83545e-16)
(27.043 -1.82998 0)
(26.8617 -1.86745 2.84344e-16)
(26.6976 -1.8852 0)
(26.5523 -1.88786 0)
(26.4252 -1.87978 5.62086e-16)
(26.3147 -1.86407 -7.00891e-16)
(26.2185 -1.84338 -4.19842e-16)
(26.1345 -1.81984 6.29087e-16)
(26.0613 -1.795 -6.98618e-17)
(25.998 -1.76985 -6.98619e-17)
(25.9433 -1.74515 -2.22414e-21)
(25.896 -1.72127 1.74791e-16)
(25.8549 -1.69907 0)
(24.0756 0.0516976 -4.21206e-16)
(24.1216 0.337891 0)
(24.1639 0.542347 2.84481e-15)
(24.2097 0.739828 -6.75746e-15)
(24.2672 0.947827 1.29509e-15)
(24.3377 1.16162 0)
(24.4242 1.37893 4.85222e-15)
(24.5371 1.60782 -8.2681e-15)
(24.688 1.84646 2.30763e-15)
(24.8835 2.08416 -1.12975e-15)
(25.1322 2.30919 -3.32568e-15)
(25.4543 2.50722 4.36042e-15)
(25.8691 2.64823 -3.22076e-15)
(26.363 2.69178 3.17654e-15)
(26.9023 2.60023 1.04473e-15)
(27.4118 2.3712 -4.12719e-15)
(27.8222 2.02463 -2.03796e-15)
(28.1235 1.57737 -6.03625e-15)
(28.3107 1.05256 3.96883e-15)
(28.3808 0.492602 -9.76691e-16)
(28.3496 -0.0555642 1.44324e-15)
(28.2391 -0.512483 -1.93582e-15)
(28.059 -0.856766 1.18494e-16)
(27.8357 -1.10626 1.89184e-15)
(27.6116 -1.28944 -1.65434e-15)
(27.405 -1.42277 1.18221e-16)
(27.2165 -1.51644 -1.18329e-16)
(27.0444 -1.57879 -9.47755e-16)
(26.8891 -1.61642 5.9298e-16)
(26.749 -1.63509 0)
(26.6224 -1.64036 1.17917e-16)
(26.5096 -1.63629 0)
(26.4104 -1.62579 3.5151e-16)
(26.3238 -1.61111 -1.16929e-16)
(26.2485 -1.59383 -4.08741e-16)
(26.1833 -1.57507 -1.7504e-16)
(26.1266 -1.55577 2.33321e-16)
(26.077 -1.53668 0)
(26.0336 -1.51808 2.91763e-17)
(25.9954 -1.50082 0)
(24.4299 0.0405227 1.79205e-15)
(24.4701 0.276375 -3.89217e-15)
(24.5073 0.442129 2.42093e-15)
(24.5465 0.599083 1.14865e-15)
(24.5935 0.762744 0)
(24.6502 0.930156 4.24064e-15)
(24.7187 1.10004 -4.11228e-15)
(24.8044 1.27787 -1.0004e-15)
(24.9165 1.4633 -1.95329e-15)
(25.0604 1.65147 5.73543e-15)
(25.2435 1.83457 1.87491e-15)
(25.4739 2.00451 -3.68399e-15)
(25.7693 2.14268 0)
(26.1372 2.22485 3.57156e-15)
(26.5624 2.21883 -1.76058e-15)
(27.0102 2.0919 3.47389e-15)
(27.4145 1.85002 -3.42519e-15)
(27.7272 1.51042 1.68858e-15)
(27.9413 1.08614 4.98809e-15)
(28.0499 0.608572 0)
(28.0623 0.128158 4.02601e-16)
(28.0026 -0.286603 -2.79306e-15)
(27.8803 -0.615214 2.97536e-15)
(27.7074 -0.857382 9.89122e-17)
(27.5164 -1.03568 1.58708e-15)
(27.3357 -1.16664 -1.67932e-15)
(27.1716 -1.26098 9.88198e-17)
(27.0215 -1.32666 1.58224e-15)
(26.8839 -1.37051 -1.38552e-15)
(26.7586 -1.39804 9.90478e-17)
(26.6463 -1.41266 -7.90393e-16)
(26.547 -1.41737 1.57441e-15)
(26.46 -1.41513 -6.86678e-16)
(26.384 -1.40828 8.31944e-16)
(26.3175 -1.39848 -8.79446e-16)
(26.2593 -1.38692 0)
(26.2083 -1.37446 4.87815e-17)
(26.1637 -1.36166 0)
(26.1245 -1.34887 -1.2195e-16)
(26.0902 -1.33657 1.22014e-16)
(24.7289 0.0320675 1.21739e-15)
(24.7634 0.225121 -1.10266e-15)
(24.796 0.359126 1.02797e-15)
(24.83 0.484285 0)
(24.8693 0.61315 1.8638e-15)
(24.9151 0.743367 1.79572e-15)
(24.9697 0.875697 0)
(25.0363 1.01297 0)
(25.121 1.15601 0)
(25.2281 1.30208 4.84764e-15)
(25.3626 1.44648 1.5839e-15)
(25.5303 1.58252 -6.22216e-15)
(25.7413 1.70394 0)
(26.0071 1.79357 -7.52701e-15)
(26.3258 1.82684 4.44918e-15)
(26.6831 1.77902 0)
(27.0446 1.63032 1.43954e-15)
(27.3537 1.38629 -1.4173e-15)
(27.5785 1.061 1.60581e-19)
(27.7133 0.671562 0)
(27.76 0.270195 2.69721e-15)
(27.7385 -0.0917406 -3.00834e-15)
(27.6663 -0.387094 1.66154e-16)
(27.5467 -0.616265 -2.484e-16)
(27.3965 -0.787518 -5.16598e-18)
(27.2451 -0.913955 4.12994e-17)
(27.1062 -1.00632 2.64516e-15)
(26.9806 -1.07249 -1.32136e-15)
(26.8666 -1.11835 -1.44569e-15)
(26.764 -1.14837 -1.23954e-16)
(26.6723 -1.16629 -1.40451e-15)
(26.5899 -1.17543 1.31819e-15)
(26.5159 -1.17838 -6.1575e-16)
(26.4498 -1.17698 6.55064e-16)
(26.3917 -1.17261 4.08642e-17)
(26.3407 -1.1663 -3.26481e-16)
(26.296 -1.15877 2.85447e-16)
(26.2566 -1.1506 0)
(26.2219 -1.14215 4.07595e-17)
(26.1912 -1.13382 -2.0387e-17)
(24.9788 0.0254743 2.06367e-15)
(25.0082 0.182526 2.1043e-15)
(25.0364 0.290527 -4.35687e-15)
(25.0657 0.390016 -1.65014e-15)
(25.0991 0.491469 -7.8858e-15)
(25.1369 0.593177 3.03727e-15)
(25.1807 0.695698 1.47082e-15)
(25.2332 0.800922 0)
(25.2979 0.90991 0)
(25.3786 1.0212 0)
(25.4784 1.13249 0)
(25.6024 1.24021 7.87326e-15)
(25.7546 1.3387 -1.03147e-14)
(25.9436 1.41801 5.07364e-15)
(26.1754 1.46526 -1.24847e-15)
(26.4448 1.46081 -4.91593e-15)
(26.7358 1.38314 4.83951e-15)
(27.0148 1.22131 -3.56866e-15)
(27.2395 0.984387 3.50569e-15)
(27.3881 0.684424 5.72824e-15)
(27.4568 0.360066 -5.64645e-15)
(27.4628 0.0589235 1.12051e-15)
(27.4273 -0.193718 0)
(27.3534 -0.399863 1.38708e-16)
(27.2479 -0.558374 0)
(27.1307 -0.677691 -3.45556e-17)
(27.0181 -0.766469 -2.2122e-15)
(26.9145 -0.831889 -1.73284e-17)
(26.8199 -0.87941 2.24368e-15)
(26.734 -0.913277 2.24385e-15)
(26.6563 -0.936903 -1.10485e-15)
(26.5867 -0.9527 3.45308e-17)
(26.5248 -0.96241 -1.17007e-15)
(26.4699 -0.967474 -3.43102e-17)
(26.4211 -0.969177 0)
(26.3779 -0.96854 0)
(26.3398 -0.966321 0)
(26.3061 -0.963072 0)
(26.2762 -0.959219 -3.41103e-17)
(26.2497 -0.954908 0)
(25.186 0.0202548 -1.74608e-15)
(25.2108 0.147262 1.38563e-15)
(25.2349 0.233901 -5.89802e-15)
(25.2599 0.312752 6.9751e-15)
(25.2881 0.392465 -1.3324e-15)
(25.3196 0.471583 1.28236e-15)
(25.3552 0.5505 -1.11727e-14)
(25.397 0.630753 7.23909e-15)
(25.4471 0.713052 2.35322e-15)
(25.5084 0.797115 -2.30102e-15)
(25.5833 0.88148 1.12715e-14)
(25.6747 0.963582 -1.99065e-14)
(25.7859 1.03938 1.08623e-14)
(25.9218 1.10495 -1.06773e-14)
(26.088 1.1514 1.68037e-14)
(26.2843 1.16517 -8.2653e-15)
(26.505 1.13139 6.09604e-15)
(26.7328 1.03575 -9.98362e-15)
(26.9373 0.872121 -7.83574e-15)
(27.0883 0.651332 6.71588e-15)
(27.1698 0.400039 9.45699e-16)
(27.1939 0.161334 3.75677e-15)
(27.182 -0.0460131 -3.73555e-15)
(27.143 -0.219687 4.65064e-16)
(27.0773 -0.358994 0)
(26.9941 -0.467477 2.31489e-16)
(26.909 -0.550259 -3.69941e-15)
(26.8293 -0.612618 5.55942e-15)
(26.7558 -0.659153 -1.87638e-15)
(26.6883 -0.693517 -1.84709e-15)
(26.6272 -0.718501 1.84697e-15)
(26.5724 -0.73629 1.80384e-15)
(26.5235 -0.748624 -1.81674e-15)
(26.4798 -0.756898 0)
(26.4405 -0.762143 -9.1795e-16)
(26.4053 -0.765151 9.16155e-16)
(26.3736 -0.766523 2.85921e-17)
(26.3453 -0.766714 -2.85669e-17)
(26.32 -0.766138 -1.14214e-16)
(26.2974 -0.764797 1.14203e-16)
(25.3561 0.01612 1.47494e-15)
(25.3768 0.118137 5.35319e-15)
(25.3972 0.187266 -4.98177e-15)
(25.4184 0.249507 0)
(25.4421 0.311908 3.37182e-15)
(25.4682 0.373265 1.08118e-14)
(25.4974 0.433839 -6.27779e-15)
(25.5308 0.494812 -4.06633e-15)
(25.5701 0.556727 -1.98233e-15)
(25.617 0.619656 1.74417e-14)
(25.6735 0.682633 -7.593e-15)
(25.7415 0.744084 -7.44763e-15)
(25.8233 0.801789 5.48449e-15)
(25.9215 0.852657 1.79615e-15)
(26.04 0.891223 1.76564e-15)
(26.1807 0.909895 -8.67831e-15)
(26.3419 0.898578 8.52845e-15)
(26.5152 0.844489 1.67472e-15)
(26.6842 0.739901 -4.92522e-15)
(26.8249 0.584455 8.03267e-15)
(26.9114 0.399224 -6.33554e-15)
(26.9452 0.216589 -7.8702e-16)
(26.9475 0.0539045 6.26349e-15)
(26.9307 -0.0851167 5.06843e-15)
(26.8945 -0.201271 -6.21952e-15)
(26.8416 -0.294592 1.93967e-16)
(26.7818 -0.367956 3.09861e-15)
(26.7234 -0.424968 -3.19211e-15)
(26.6685 -0.469001 1.20832e-16)
(26.6175 -0.502784 -3.09191e-15)
(26.5704 -0.528593 3.09125e-15)
(26.5274 -0.548251 -1.52749e-15)
(26.4885 -0.563165 3.0855e-15)
(26.4536 -0.574421 -1.55653e-15)
(26.4224 -0.582848 7.70282e-16)
(26.3944 -0.589081 -7.68536e-16)
(26.3693 -0.593616 -2.3978e-17)
(26.3469 -0.596831 2.39507e-17)
(26.3267 -0.599137 -1.91472e-16)
(26.3086 -0.60037 1.67485e-16)
(25.4945 0.012831 -1.24408e-15)
(25.5115 0.0941783 -4.65771e-15)
(25.5286 0.148997 1.26029e-14)
(25.5464 0.197885 -7.93735e-15)
(25.5662 0.246502 -1.89335e-15)
(25.5878 0.293865 -5.84709e-20)
(25.6116 0.340146 -5.28358e-15)
(25.6384 0.386238 1.71079e-15)
(25.6694 0.432569 1.33422e-14)
(25.7056 0.479222 -1.57279e-19)
(25.7485 0.525636 -1.59661e-15)
(25.7993 0.570842 -1.25244e-14)
(25.8596 0.613483 1.22936e-14)
(25.931 0.65119 -2.85995e-19)
(26.0158 0.681049 -1.18634e-14)
(26.1159 0.69854 -1.01981e-14)
(26.231 0.696829 8.58457e-15)
(26.3579 0.667643 0)
(26.4874 0.603729 -1.37521e-15)
(26.6056 0.500087 9.41269e-15)
(26.6891 0.368299 -1.06072e-14)
(26.7277 0.233512 1.31884e-15)
(26.7379 0.111343 0)
(26.7334 0.00448022 6.53656e-16)
(26.7167 -0.0869048 -5.21366e-15)
(26.6873 -0.162741 4.87666e-15)
(26.6492 -0.22431 0)
(26.6094 -0.273488 8.1037e-17)
(26.5712 -0.312486 -8.09665e-17)
(26.5352 -0.343307 2.67033e-15)
(26.5015 -0.367625 2.5802e-20)
(26.4702 -0.386789 -2.61347e-15)
(26.4417 -0.401875 1.51659e-17)
(26.4157 -0.41375 -1.28429e-15)
(26.3921 -0.423116 1.28314e-15)
(26.3708 -0.430522 0)
(26.3515 -0.436396 -6.43779e-16)
(26.334 -0.441043 6.42895e-16)
(26.3183 -0.44484 0)
(26.3041 -0.447524 2.00621e-17)
(25.606 0.0102095 4.1911e-15)
(25.6199 0.0745777 -3.56693e-15)
(25.634 0.117764 1.7685e-15)
(25.6488 0.155957 -1.66964e-15)
(25.6651 0.193638 -3.18462e-15)
(25.6828 0.230021 -1.5306e-15)
(25.7022 0.265219 -8.88121e-15)
(25.7237 0.299897 8.62579e-15)
(25.7482 0.334383 -1.40121e-14)
(25.7763 0.368733 1.36935e-14)
(25.809 0.402639 0)
(25.8471 0.435501 2.6294e-15)
(25.8917 0.466406 0)
(25.9438 0.493831 0)
(26.0047 0.515988 0)
(26.0758 0.530002 -9.77435e-15)
(26.1572 0.531666 2.15856e-14)
(26.2476 0.515904 -2.6795e-19)
(26.3425 0.476849 -9.21102e-15)
(26.4331 0.410124 0)
(26.5051 0.319825 -2.219e-15)
(26.5454 0.224195 -2.20879e-15)
(26.5597 0.135252 -1.09969e-15)
(26.5611 0.0560021 0)
(26.5551 -0.0127973 4.37003e-15)
(26.5406 -0.0716642 -8.72016e-15)
(26.5186 -0.120829 4.3524e-15)
(26.4932 -0.161183 2.71676e-16)
(26.4679 -0.194057 0)
(26.4434 -0.220781 4.27202e-15)
(26.4202 -0.242516 -4.33817e-15)
(26.3984 -0.260213 1.6943e-17)
(26.3781 -0.274645 -8.47169e-18)
(26.3595 -0.286449 -2.17764e-15)
(26.3424 -0.296141 2.17859e-15)
(26.3269 -0.304132 -8.46424e-18)
(26.3127 -0.31075 1.08111e-15)
(26.2998 -0.316235 -1.09625e-15)
(26.2881 -0.320922 0)
(26.2775 -0.324491 0)
(25.695 0.00811975 3.52496e-15)
(25.7062 0.0586502 -3.40021e-15)
(25.7178 0.0924406 -3.36104e-20)
(25.7298 0.122112 1.26251e-14)
(25.7432 0.151156 -2.13957e-14)
(25.7576 0.178957 1.02795e-14)
(25.7733 0.205591 0)
(25.7905 0.23155 0)
(25.8097 0.257083 2.11612e-14)
(25.8315 0.282215 -2.06776e-14)
(25.8565 0.306801 1.79953e-14)
(25.8852 0.330444 -1.98477e-14)
(25.9182 0.352479 0)
(25.9563 0.371965 -1.69946e-14)
(26.0002 0.387698 1.87717e-14)
(26.0506 0.397916 2.04746e-15)
(26.1079 0.4001 1.80783e-14)
(26.1715 0.391061 -1.77194e-14)
(26.239 0.366966 1.5414e-14)
(26.3054 0.324269 1.88169e-15)
(26.3614 0.264962 -2.04168e-14)
(26.398 0.199144 8.31937e-15)
(26.4149 0.136283 -6.44626e-15)
(26.4196 0.0794552 7.34306e-15)
(26.4185 0.0293001 9.15428e-16)
(26.4127 -0.0143867 7.30754e-15)
(26.4016 -0.051666 -1.41343e-14)
(26.3871 -0.0830346 7.05818e-15)
(26.3714 -0.109177 0)
(26.3559 -0.130885 -3.63722e-15)
(26.3409 -0.148923 3.63587e-15)
(26.3266 -0.16394 3.63533e-15)
(26.313 -0.176471 -3.63542e-15)
(26.3003 -0.186961 -2.13058e-17)
(26.2886 -0.195782 6.88226e-18)
(26.2778 -0.203235 7.10481e-18)
(26.2678 -0.209567 -7.09331e-18)
(26.2587 -0.214953 -1.93929e-22)
(26.2503 -0.219671 -1.41434e-17)
(26.2426 -0.22339 0)