/*--------------------------------*- C++ -*----------------------------------*\
  =========                 |
  \\      /  F ield         | OpenFOAM: The Open Source CFD Toolbox
   \\    /   O peration     | Website:  https://openfoam.org
    \\  /    A nd           | Version:  8
     \\/     M anipulation  |
\*---------------------------------------------------------------------------*/
FoamFile
{
    version     2.0;
    format      ascii;
    class       surfaceScalarField;
    location    "0.2";
    object      phi;
}
// * * * * * * * * * * * * * * * * * * * * * * * * * * * * * * * * * * * * * //

dimensions      [0 3 -1 0 0 0 0];

internalField   nonuniform List<scalar> 
225053
(
-0.00359954
0.0263995
-0.00840024
0.0708007
-0.0119997
0.115199
-0.016799
0.159599
-0.0215983
0.203999
-0.0251978
0.248399
-0.0287973
0.291599
-0.0323966
0.335999
-0.0359959
0.379199
-0.0395951
0.424799
-0.0419943
0.466799
-0.0455934
0.511199
-0.0491925
0.555599
-0.0527915
0.597599
-0.0539905
0.640799
-0.0575895
0.685199
-0.0611884
0.727199
-0.0635874
0.770399
-0.0659863
0.812399
-0.0671853
0.854399
-0.0707841
0.897599
-0.0719831
0.938399
-0.074382
0.980399
-0.0755808
1.0224
-0.0779797
1.0632
-0.0791786
1.104
-0.0815775
1.146
-0.0827764
1.1844
-0.0839752
1.2252
-0.0863741
1.266
-0.087573
1.3044
-0.0887718
1.344
-0.0899707
1.3824
-0.0899697
1.4208
-0.0911686
1.4592
-0.0911675
1.4964
-0.0923664
1.5348
-0.0935653
1.572
-0.0935642
1.608
-0.0947632
1.644
-0.0947621
1.68
-0.0947611
1.716
-0.0947601
1.7496
-0.0947591
1.7856
-0.0947581
1.8192
-0.0947571
1.8528
-0.094756
1.8864
-0.0935551
1.9188
-0.0935541
1.9512
-0.0935532
1.9836
-0.0923523
2.0136
-0.0923513
2.046
-0.0911504
2.0748
-0.0905495
2.10564
-0.0897087
2.13468
-0.0887478
2.16336
-0.0877869
2.19168
-0.0868261
2.2194
-0.0856253
2.24652
-0.0844244
2.27304
-0.0832237
2.2992
-0.0819029
2.32464
-0.0804622
2.34948
-0.0790214
2.37384
-0.0775807
2.3976
-0.07602
2.42076
-0.0743393
2.4432
-0.0727786
2.46528
-0.0710979
2.48664
-0.0692973
2.50728
-0.0674967
2.52744
-0.0655761
2.54688
-0.0636555
2.56572
-0.0616149
2.58396
-0.0595743
2.6016
-0.0576538
2.61864
-0.0554933
2.63484
-0.0533328
2.65044
-0.0511723
2.66556
-0.0488919
2.67984
-0.0467314
2.69364
-0.044571
2.7066
-0.0421706
2.71884
-0.0398902
2.73072
-0.0374898
2.74164
-0.0350895
2.75196
-0.0326891
2.76168
-0.0302888
2.77068
-0.0278885
2.77896
-0.0253683
2.78652
-0.022848
2.79348
-0.0203277
2.79972
-0.0178075
2.80536
-0.0151673
2.81004
-0.0127672
2.81436
-0.010187
2.8178
-0.00763089
2.82058
-0.00506273
2.82266
-0.0024947
2.82404
7.34392e-05
2.82475
0.00264144
2.82475
0.00520955
2.82404
0.00777754
2.82266
0.0103336
2.82058
0.0129135
2.8178
0.0153135
2.81436
0.0179535
2.81004
0.0204734
2.80536
0.0229933
2.79972
0.0255131
2.79348
0.028033
2.78652
0.0304328
2.77896
0.0328327
2.77068
0.0352325
2.76168
0.0376322
2.75196
0.040032
2.74164
0.0423118
2.73072
0.0447115
2.71884
0.0468712
2.7066
0.0490308
2.69364
0.0513105
2.67984
0.0534702
2.66556
0.0556298
2.65044
0.0577894
2.63484
0.059709
2.61864
0.0617485
2.6016
0.063788
2.58396
0.0657076
2.56572
0.0676271
2.54688
0.0694266
2.52744
0.0712261
2.50728
0.0729055
2.48664
0.0744649
2.46528
0.0761442
2.4432
0.0777037
2.42076
0.079143
2.3976
0.0805823
2.37384
0.0820217
2.34948
0.083341
2.32464
0.0845403
2.2992
0.0857395
2.27304
0.0869388
2.24652
0.087898
2.2194
0.0888572
2.19168
0.0898164
2.16336
0.0906556
2.13468
0.0912548
2.10564
0.0924539
2.0748
0.092453
2.046
0.0936521
2.0136
0.0936512
1.9836
0.0936502
1.9512
0.0948493
1.9188
0.0948483
1.8864
0.0948473
1.8528
0.0948463
1.8192
0.0948452
1.7856
0.0948443
1.7496
0.0948432
1.716
0.0948422
1.68
0.093641
1.644
0.0936399
1.608
0.0924388
1.572
0.0912376
1.5348
0.0912365
1.4964
0.0900354
1.4592
0.0900342
1.4208
0.0888331
1.3824
0.0876318
1.344
0.0864307
1.3044
0.0840294
1.266
0.0828282
1.2252
0.081627
1.1844
0.0792257
1.146
0.0780245
1.104
0.0756232
1.0632
0.0744219
1.0224
0.0720207
0.980401
0.0708195
0.938401
0.0672182
0.897601
0.0660169
0.854401
0.0636157
0.812401
0.0612144
0.770401
0.0576132
0.727201
0.0540119
0.685201
0.0528108
0.640801
0.0492096
0.597601
0.0456084
0.555601
0.0420073
0.511201
0.0396063
0.466801
0.0360053
0.424801
0.0324044
0.379201
0.0288036
0.336001
0.0252029
0.291601
0.0216021
0.248401
0.0168013
0.204001
0.0120003
0.159601
0.00839959
0.115201
0.00360063
0.070799
0.0264006
-0.00479677
0.0311963
-0.00959714
0.0756011
-0.0131974
0.1188
-0.0179955
0.164397
-0.0215927
0.207597
-0.0239902
0.250797
-0.0287879
0.296397
-0.0323856
0.339597
-0.0359833
0.382797
-0.0395807
0.428397
-0.0431782
0.470397
-0.0467755
0.514796
-0.0479729
0.556796
-0.05157
0.601196
-0.055167
0.644396
-0.0575641
0.687596
-0.059961
0.729596
-0.0623579
0.772796
-0.0647548
0.814796
-0.0683515
0.857996
-0.0695484
0.898796
-0.073145
0.941996
-0.0743418
0.981596
-0.0767385
1.0248
-0.0779353
1.0644
-0.0803319
1.1064
-0.0815286
1.1472
-0.0839252
1.1868
-0.0851219
1.2264
-0.0851187
1.266
-0.0863154
1.3056
-0.0875121
1.3452
-0.0887087
1.3836
-0.0899055
1.422
-0.0911022
1.4604
-0.0922989
1.4976
-0.0922958
1.5348
-0.0922926
1.572
-0.0934894
1.6092
-0.0934862
1.644
-0.094683
1.6812
-0.09348
1.7148
-0.0946768
1.7508
-0.0946738
1.7856
-0.0946708
1.8192
-0.0946678
1.8528
-0.0946648
1.8864
-0.0934621
1.9176
-0.0934591
1.9512
-0.0922563
1.9824
-0.0934533
2.0148
-0.0910508
2.0436
-0.091048
2.0748
-0.0904453
2.10504
-0.0896027
2.13384
-0.0887601
2.16252
-0.0876775
2.1906
-0.0865951
2.21832
-0.0855125
2.24544
-0.0844302
2.27196
-0.0831078
2.29788
-0.0817855
2.32332
-0.0803431
2.34804
-0.0790209
2.37252
-0.0774589
2.39604
-0.0758966
2.4192
-0.0743345
2.44164
-0.0726526
2.4636
-0.0708506
2.48484
-0.0690486
2.50548
-0.0672468
2.52564
-0.0653248
2.54496
-0.0635231
2.56392
-0.0616015
2.58204
-0.0595598
2.59956
-0.0573981
2.61648
-0.0553566
2.6328
-0.053315
2.6484
-0.0510336
2.66328
-0.0488722
2.67768
-0.0465908
2.69136
-0.0443096
2.70432
-0.0420283
2.71656
-0.0396272
2.72832
-0.037346
2.73936
-0.034945
2.74956
-0.032544
2.75928
-0.030023
2.76816
-0.0276223
2.77656
-0.0252213
2.78412
-0.0227006
2.79096
-0.0201799
2.7972
-0.0176593
2.80284
-0.0151387
2.80752
-0.012618
2.81184
-0.0100255
2.81521
-0.0074691
2.81802
-0.00490075
2.8201
-0.00234452
2.82149
0.00022376
2.82218
0.00279192
2.82218
0.00534812
2.82149
0.0079162
2.8201
0.0104723
2.81802
0.0130641
2.81521
0.0155839
2.81184
0.0181037
2.80752
0.0206236
2.80284
0.0231433
2.7972
0.0256631
2.79096
0.0280625
2.78412
0.0304622
2.77656
0.0329815
2.76816
0.0353809
2.75928
0.0377803
2.74956
0.0400596
2.73936
0.0424589
2.72832
0.044738
2.71656
0.0470172
2.70432
0.0492962
2.69136
0.0514552
2.67768
0.0537341
2.66328
0.055773
2.6484
0.0578118
2.6328
0.0599704
2.61648
0.0620091
2.59956
0.0639278
2.58204
0.0657264
2.56392
0.0676448
2.54496
0.0694433
2.52564
0.0712417
2.50548
0.07304
2.48484
0.0747183
2.4636
0.0762765
2.44164
0.0778346
2.4192
0.0793928
2.39604
0.0807108
2.37252
0.0821487
2.34804
0.0834667
2.32332
0.0847845
2.29788
0.0858624
2.27196
0.0869401
2.24544
0.0880179
2.21832
0.0890955
2.1906
0.089933
2.16252
0.0907706
2.13384
0.091368
2.10504
0.0913653
2.0748
0.093763
2.0436
0.0925601
2.0148
0.0937574
1.9824
0.0937545
1.9512
0.0949518
1.9176
0.0949489
1.8864
0.094946
1.8528
0.094943
1.8192
0.09494
1.7856
0.0937368
1.7508
0.0949338
1.7148
0.0937305
1.6812
0.0937273
1.644
0.092524
1.6092
0.0925207
1.572
0.0925175
1.5348
0.091314
1.4976
0.0901106
1.4604
0.0889072
1.422
0.0877036
1.3836
0.0865001
1.3452
0.0852966
1.3056
0.0852931
1.266
0.0840895
1.2264
0.0816859
1.1868
0.0804823
1.1472
0.0780785
1.1064
0.0768749
1.0644
0.0744712
1.0248
0.0732676
0.981605
0.0696638
0.942005
0.0684602
0.898805
0.0648565
0.858005
0.0624529
0.814805
0.0600492
0.772805
0.0576457
0.729605
0.0552421
0.687605
0.0516386
0.644405
0.0480351
0.601205
0.0468319
0.556804
0.0432287
0.514804
0.0396255
0.470404
0.0360223
0.428404
0.0324193
0.382804
0.0288164
0.339604
0.0240133
0.296404
0.0216099
0.250804
0.0180061
0.207605
0.0132035
0.164404
0.009604
0.1188
0.00480463
0.0755983
0.0312053
-0.0047962
0.0359925
-0.00839341
0.0791983
-0.0131939
0.1236
-0.0167928
0.167996
-0.020389
0.211193
-0.0251841
0.255592
-0.0287797
0.299993
-0.0323756
0.343193
-0.0359714
0.386393
-0.0383671
0.430792
-0.0431625
0.475192
-0.045558
0.517192
-0.0491533
0.560392
-0.0527485
0.604791
-0.0551436
0.646791
-0.0575387
0.689991
-0.0611335
0.733191
-0.0635283
0.775191
-0.065923
0.817191
-0.0671179
0.859191
-0.0707124
0.90239
-0.0719071
0.94319
-0.0755015
0.98519
-0.0766961
1.02599
-0.0790905
1.06679
-0.0802851
1.10759
-0.0814796
1.14839
-0.0826742
1.18799
-0.0838687
1.22759
-0.0862631
1.26839
-0.0874575
1.30679
-0.088652
1.34639
-0.0898465
1.38479
-0.0910411
1.42319
-0.0910357
1.46039
-0.0922302
1.49879
-0.0922249
1.53479
-0.0934195
1.57319
-0.0934142
1.60919
-0.0946089
1.64519
-0.0934038
1.67999
-0.0945986
1.71599
-0.0945934
1.75079
-0.0945881
1.78559
-0.0945832
1.81919
-0.0945781
1.85279
-0.0933734
1.88519
-0.0945682
1.91879
-0.0933635
1.94999
-0.0933587
1.98239
-0.0921541
2.01359
-0.0921493
2.04359
-0.0921447
2.07479
-0.0903403
2.10323
-0.0894957
2.13299
-0.0885315
2.16155
-0.0875673
2.18963
-0.0866028
2.21735
-0.0853988
2.24423
-0.0841946
2.27075
-0.0828707
2.29655
-0.0815469
2.32199
-0.080343
2.34683
-0.0787791
2.37095
-0.0773355
2.39459
-0.0757719
2.41763
-0.0740885
2.43995
-0.0724049
2.46191
-0.0707217
2.48315
-0.0690384
2.50379
-0.0671151
2.52371
-0.0653121
2.54315
-0.063269
2.56187
-0.0613462
2.58011
-0.0594234
2.59763
-0.0573805
2.61443
-0.0552179
2.63064
-0.0530556
2.64624
-0.0508929
2.66112
-0.0487307
2.67552
-0.0464484
2.68908
-0.0441662
2.70204
-0.041884
2.71428
-0.0396021
2.72604
-0.0372003
2.73696
-0.0347984
2.74716
-0.0323967
2.75688
-0.0299951
2.76576
-0.0274735
2.77404
-0.0249522
2.7816
-0.0225509
2.78856
-0.0200296
2.79468
-0.0175085
2.80032
-0.0149873
2.805
-0.0124665
2.80932
-0.00988577
2.81263
-0.00732915
2.81546
-0.00476059
2.81753
-0.00219191
2.81892
0.000376534
2.81962
0.00294483
2.81962
0.0055129
2.81892
0.00808108
2.81753
0.0106372
2.81546
0.0132172
2.81263
0.0157371
2.80932
0.0182567
2.805
0.0207763
2.80032
0.0232957
2.79468
0.0256951
2.78856
0.0282146
2.7816
0.0307336
2.77404
0.0331328
2.76576
0.0355318
2.75688
0.0379306
2.74716
0.0403294
2.73696
0.0426083
2.72604
0.0448867
2.71428
0.0471652
2.70204
0.0494435
2.68908
0.051602
2.67552
0.05376
2.66112
0.0559183
2.64624
0.0580763
2.63064
0.060114
2.61444
0.0620318
2.59764
0.0639496
2.58012
0.0659871
2.56188
0.0677846
2.54316
0.0697019
2.52372
0.0713791
2.5038
0.0730565
2.48316
0.0747333
2.46193
0.0764105
2.43997
0.0779674
2.41765
0.0794042
2.39461
0.0809607
2.37097
0.0821573
2.34685
0.0834739
2.32201
0.0847904
2.29657
0.0859866
2.27077
0.0871829
2.24425
0.0881388
2.21737
0.089095
2.18965
0.090051
2.16157
0.0908867
2.13301
0.0926825
2.10325
0.0926782
2.07481
0.0926736
2.04361
0.0938692
2.01361
0.0938645
1.98241
0.09506
1.95001
0.093855
1.91881
0.0950503
1.88521
0.0950453
1.85281
0.0950405
1.81921
0.0950352
1.78561
0.09503
1.75081
0.0938247
1.71601
0.0950196
1.68001
0.0938142
1.64521
0.0938088
1.60921
0.0926031
1.57321
0.0925977
1.53481
0.091392
1.49881
0.0913863
1.46041
0.0901806
1.42321
0.0889748
1.38481
0.0877689
1.34641
0.086563
1.30681
0.0841569
1.26841
0.082951
1.22761
0.0817451
1.18801
0.0805391
1.14841
0.0793331
1.10761
0.0769269
1.06681
0.0757209
1.02601
0.0721146
0.985211
0.0709087
0.943211
0.0673023
0.902411
0.0660965
0.859211
0.0636904
0.817211
0.0612844
0.775211
0.0576783
0.733211
0.0552724
0.690011
0.0528666
0.64681
0.0492607
0.604811
0.045655
0.56041
0.0432495
0.51721
0.0384437
0.47521
0.0360384
0.43081
0.032433
0.386409
0.0288277
0.343209
0.0252218
0.30001
0.0204152
0.255611
0.01681
0.21121
0.0132086
0.168005
0.00840945
0.123599
0.0048055
0.0792023
0.0360108
-0.00359623
0.0395887
-0.00839066
0.0839927
-0.0131895
0.128399
-0.0167892
0.171596
-0.0215856
0.215989
-0.0251794
0.259186
-0.0287728
0.303586
-0.0323666
0.346787
-0.0359606
0.389987
-0.0395544
0.434386
-0.0419481
0.477586
-0.0455416
0.520785
-0.0491349
0.563985
-0.0515282
0.607185
-0.0551212
0.650384
-0.0575142
0.692384
-0.0599071
0.735584
-0.0622999
0.777583
-0.0658923
0.820783
-0.0682849
0.861583
-0.0694776
0.903583
-0.07187
0.945583
-0.0742622
0.987582
-0.0754547
1.02718
-0.0778469
1.06918
-0.0790393
1.10878
-0.0814315
1.15078
-0.0826238
1.18918
-0.0850159
1.22998
-0.0862081
1.26958
-0.0874004
1.30798
-0.0873928
1.34638
-0.0885852
1.38598
-0.0897774
1.42438
-0.0909696
1.46158
-0.0909622
1.49878
-0.0933542
1.53718
-0.0933468
1.57318
-0.0933393
1.60918
-0.0933319
1.64518
-0.0945243
1.68118
-0.0945171
1.71598
-0.09451
1.75078
-0.0945027
1.78558
-0.0944955
1.81918
-0.0944884
1.85278
-0.0944813
1.88518
-0.0932746
1.91758
-0.0932678
1.94998
-0.0932608
1.98238
-0.0920544
2.01239
-0.0920478
2.04359
-0.0908411
2.07359
-0.0902347
2.10263
-0.0893886
2.13215
-0.0884224
2.16059
-0.0875762
2.18879
-0.0863703
2.21615
-0.0852843
2.24315
-0.0840787
2.26955
-0.0828729
2.29535
-0.0815471
2.32067
-0.0801018
2.34539
-0.0786567
2.36951
-0.0772113
2.39315
-0.0755261
2.41595
-0.0740811
2.43851
-0.0723965
2.46023
-0.0705914
2.48135
-0.0687867
2.50199
-0.0669823
2.52191
-0.0651781
2.54135
-0.0632536
2.55995
-0.0612096
2.57807
-0.0591654
2.59559
-0.0571218
2.61239
-0.0550778
2.62859
-0.0529142
2.64407
-0.050871
2.65907
-0.0485873
2.67323
-0.046304
2.68679
-0.0440211
2.69975
-0.0418583
2.71211
-0.0394553
2.72363
-0.0370525
2.73455
-0.03465
2.74475
-0.0322476
2.75447
-0.0298454
2.76335
-0.0273232
2.77152
-0.0249212
2.7792
-0.0223993
2.78604
-0.0198775
2.79216
-0.0173558
2.7978
-0.0148345
2.80248
-0.0121931
2.80668
-0.00973202
2.81017
-0.0071628
2.81289
-0.00460601
2.81497
-0.00203731
2.81635
0.000531305
2.81705
0.00309975
2.81705
0.00566811
2.81635
0.00822437
2.81497
0.0107922
2.8129
0.0132522
2.81017
0.0158918
2.80668
0.0184116
2.80248
0.0209309
2.7978
0.0234501
2.79216
0.0259693
2.78604
0.0283683
2.7792
0.0308871
2.77152
0.0332859
2.76336
0.0356845
2.75448
0.0380831
2.74476
0.0404812
2.73456
0.0428792
2.72364
0.0450373
2.71212
0.0473154
2.69976
0.049593
2.68681
0.0518703
2.67325
0.0539079
2.65909
0.0560653
2.64409
0.0581021
2.62861
0.0601394
2.61241
0.062176
2.59561
0.0642129
2.57809
0.0661293
2.55997
0.0679258
2.54137
0.0697223
2.52193
0.0715183
2.50201
0.073314
2.48137
0.07499
2.46025
0.0764257
2.43853
0.0781013
2.41597
0.0795365
2.39317
0.0809721
2.36953
0.0824073
2.34541
0.0837222
2.32069
0.0849169
2.29537
0.0861118
2.26957
0.0871863
2.24317
0.0883809
2.21617
0.0892152
2.18881
0.0901694
2.16061
0.0910037
2.13217
0.0915976
2.10265
0.0927913
2.07361
0.092785
2.04361
0.0939789
2.01241
0.0939721
1.98242
0.0939655
1.95001
0.095159
1.91762
0.095152
1.88522
0.0951451
1.85282
0.0951379
1.81922
0.0951306
1.78562
0.0951234
1.75082
0.0951162
1.71602
0.0939085
1.68122
0.0939009
1.64522
0.0938933
1.60922
0.0938856
1.57322
0.0914774
1.53722
0.0914696
1.49882
0.0902615
1.46162
0.0890533
1.42442
0.0878452
1.38602
0.0878371
1.34642
0.0866289
1.30802
0.0854206
1.26962
0.083012
1.23002
0.0818036
1.18922
0.079395
1.15082
0.0781867
1.10882
0.0757781
1.06922
0.0745697
1.02722
0.0721609
0.98762
0.0697523
0.94562
0.068544
0.903619
0.0661355
0.861619
0.0625267
0.82082
0.0601183
0.777619
0.05771
0.735619
0.0553016
0.692419
0.0516932
0.650419
0.0492851
0.607219
0.0456769
0.564018
0.0420689
0.520818
0.0396611
0.477618
0.0360532
0.434417
0.0324454
0.390017
0.0288374
0.346817
0.0252285
0.303618
0.0216201
0.259219
0.0168151
0.216015
0.013215
0.171605
0.00841349
0.128401
0.00360549
0.0840103
0.0396163
-0.00479592
0.0443847
-0.00958874
0.0887855
-0.0131851
0.131995
-0.0167846
0.175196
-0.0203821
0.219587
-0.0251754
0.263979
-0.028767
0.307178
-0.0323587
0.350379
-0.0359507
0.393579
-0.0395426
0.437978
-0.0431343
0.481178
-0.0467259
0.524377
-0.0491175
0.566377
-0.0527085
0.610776
-0.0550997
0.652775
-0.0586905
0.695975
-0.0610814
0.737974
-0.0634721
0.779974
-0.0646629
0.821974
-0.068253
0.865173
-0.0706433
0.905973
-0.0730335
0.947973
-0.0742239
0.988773
-0.0766139
1.02957
-0.0778043
1.07037
-0.0801942
1.11117
-0.0813842
1.15197
-0.0825744
1.19037
-0.0837644
1.23117
-0.0849542
1.27077
-0.0861443
1.30917
-0.0885342
1.34877
-0.089724
1.38717
-0.0897143
1.42437
-0.0909043
1.46277
-0.0920943
1.49997
-0.0920846
1.53717
-0.0920751
1.57317
-0.0932652
1.61037
-0.0932556
1.64517
-0.093246
1.68117
-0.0944362
1.71717
-0.0944267
1.75077
-0.0944174
1.78557
-0.094408
1.81917
-0.0931992
1.85158
-0.0931902
1.88518
-0.0943809
1.91878
-0.0931721
1.94878
-0.0919635
1.98118
-0.0919544
2.01238
-0.090746
2.04238
-0.0907377
2.07358
-0.0901293
2.10202
-0.089281
2.1313
-0.0884329
2.15974
-0.0873449
2.1877
-0.0862573
2.21506
-0.0851694
2.24206
-0.083962
2.26834
-0.0827544
2.29414
-0.0814273
2.31934
-0.0799802
2.34394
-0.078653
2.36818
-0.0770862
2.39158
-0.0755195
2.41438
-0.073833
2.43682
-0.0721466
2.45854
-0.0704606
2.47966
-0.0687744
2.5003
-0.0669684
2.5201
-0.0649229
2.5393
-0.0631174
2.55814
-0.0611914
2.57614
-0.0591466
2.59355
-0.0571012
2.61035
-0.0549367
2.62643
-0.0527716
2.64191
-0.050607
2.65691
-0.0484426
2.67107
-0.0461586
2.68451
-0.0438745
2.69747
-0.0415904
2.70983
-0.0391865
2.72123
-0.0369031
2.73227
-0.0344999
2.74235
-0.0320964
2.75207
-0.0295735
2.76083
-0.0272906
2.76923
-0.024648
2.77655
-0.0222455
2.78363
-0.0197235
2.78963
-0.0172013
2.79527
-0.0146797
2.79996
-0.0121577
2.80415
-0.00956437
2.80758
-0.00701916
2.81035
-0.0044497
2.8124
-0.00188079
2.81378
0.000688004
2.81448
0.0032566
2.81448
0.00582507
2.81378
0.00839299
2.8124
0.0109372
2.81035
0.0135292
2.80758
0.0160486
2.80416
0.0185684
2.79996
0.0210875
2.79528
0.0236069
2.78964
0.0260057
2.78364
0.0286444
2.77656
0.0309229
2.76924
0.0334413
2.76084
0.0358391
2.75209
0.0382372
2.74237
0.0405151
2.73229
0.0429125
2.72125
0.0451897
2.70985
0.0474668
2.69749
0.0497441
2.68453
0.0519008
2.67109
0.0540574
2.65693
0.0562134
2.64193
0.0583701
2.62645
0.0604058
2.61037
0.0624422
2.59357
0.0643573
2.57617
0.0661529
2.55817
0.0681884
2.53933
0.0699834
2.52013
0.0716582
2.50033
0.0733332
2.47969
0.0750077
2.45857
0.0766821
2.43686
0.0782363
2.41442
0.0797904
2.39162
0.081104
2.36822
0.0825377
2.34398
0.0838513
2.31938
0.0850444
2.29418
0.0862378
2.26838
0.0873106
2.2421
0.0883836
2.2151
0.0894562
2.18774
0.0902886
2.15978
0.0911208
2.13134
0.0917129
2.10206
0.091705
2.07362
0.092897
2.04242
0.0928883
2.01242
0.09408
1.98122
0.0952714
1.94882
0.0940623
1.91882
0.0940534
1.88522
0.0952447
1.85162
0.0952354
1.81923
0.0952261
1.78563
0.0952166
1.75083
0.0940067
1.71723
0.0939969
1.68123
0.0939872
1.64523
0.092777
1.61043
0.0927672
1.57323
0.0927572
1.53723
0.0915468
1.50003
0.0903363
1.46283
0.0903261
1.42443
0.0891153
1.38723
0.0867045
1.34883
0.0854939
1.30923
0.084283
1.27083
0.0830721
1.23123
0.0818614
1.19043
0.0806504
1.15203
0.0782393
1.11123
0.0770286
1.07043
0.0746175
1.02963
0.0734066
0.988831
0.0709956
0.948031
0.0685845
0.906031
0.064973
0.865231
0.0637624
0.82203
0.0613516
0.78003
0.0589408
0.73803
0.0553298
0.69603
0.0529192
0.652829
0.0493084
0.610829
0.0468981
0.566429
0.0432876
0.524429
0.0396772
0.481228
0.0360669
0.438028
0.0324565
0.393627
0.0288456
0.350428
0.0252342
0.30723
0.0204251
0.264028
0.0168219
0.219618
0.0132215
0.175205
0.00961635
0.132006
0.00480599
0.0888206
0.0444223
-0.00479569
0.0491803
-0.00838823
0.0923781
-0.0131814
0.136788
-0.0179791
0.179993
-0.0215774
0.223185
-0.0251715
0.267573
-0.0287621
0.310768
-0.0323519
0.353968
-0.0371415
0.398368
-0.0395318
0.440368
-0.0431217
0.484767
-0.0455116
0.526767
-0.049101
0.569966
-0.0514905
0.613165
-0.0550794
0.656364
-0.0574684
0.698364
-0.0598572
0.740363
-0.0634455
0.783562
-0.0658339
0.824362
-0.0670226
0.866362
-0.0694108
0.908361
-0.0717988
0.950361
-0.0741867
0.991161
-0.0765744
1.03196
-0.0777624
1.07156
-0.0801501
1.11356
-0.0813378
1.15316
-0.0837254
1.19276
-0.0849132
1.23236
-0.086101
1.27196
-0.0872887
1.31036
-0.0884762
1.34996
-0.0884643
1.38716
-0.089652
1.42556
-0.0908397
1.46396
-0.0920274
1.50116
-0.0920155
1.53716
-0.0932032
1.57436
-0.0931913
1.61036
-0.0943791
1.64636
-0.0943675
1.68116
-0.0943557
1.71716
-0.0943443
1.75076
-0.0943326
1.78556
-0.0943212
1.81916
-0.0943097
1.85156
-0.0942985
1.88516
-0.0930874
1.91756
-0.0930764
1.94876
-0.0930655
1.98116
-0.091855
2.01117
-0.0918442
2.04237
-0.0906335
2.07237
-0.0900235
2.10141
-0.0891733
2.13045
-0.0882032
2.15877
-0.0872336
2.18673
-0.0862634
2.21409
-0.085054
2.24085
-0.0838445
2.26713
-0.0826358
2.29293
-0.0813065
2.31801
-0.0799778
2.34261
-0.0784088
2.36661
-0.0768408
2.39001
-0.0753925
2.41293
-0.0738239
2.43525
-0.0721359
2.45685
-0.0704481
2.47798
-0.0685209
2.49838
-0.0667138
2.5183
-0.064906
2.5375
-0.0629793
2.55622
-0.0609327
2.5741
-0.0588859
2.5915
-0.0568396
2.6083
-0.0547935
2.62438
-0.0527476
2.63986
-0.0504619
2.65462
-0.0481768
2.66878
-0.0460109
2.68234
-0.0438457
2.6953
-0.0414412
2.70742
-0.0391568
2.71895
-0.0366326
2.72975
-0.0343481
2.74007
-0.0319442
2.74967
-0.0295405
2.75843
-0.0270171
2.76671
-0.0246138
2.77415
-0.0219706
2.78099
-0.0195677
2.78723
-0.0170454
2.79275
-0.0145224
2.79743
-0.012001
2.80163
-0.00941831
2.80499
-0.00684881
2.80778
-0.00429146
2.80984
-0.00172233
2.81121
0.000846644
2.81191
0.00341539
2.81191
0.00598399
2.81121
0.00854036
2.80985
0.0111086
2.80778
0.0136876
2.805
0.0162079
2.80164
0.0187266
2.79744
0.021246
2.79276
0.0236447
2.78724
0.0262833
2.781
0.0286817
2.77417
0.0311998
2.76673
0.0335978
2.75845
0.0359955
2.74969
0.0382727
2.74009
0.0407901
2.72977
0.0430673
2.71897
0.0454643
2.70745
0.0476206
2.69533
0.0497763
2.68237
0.0520527
2.66881
0.0543285
2.65465
0.056364
2.63989
0.0583994
2.62441
0.0604345
2.60834
0.0624691
2.59154
0.0645038
2.57414
0.0664184
2.55626
0.0682119
2.53754
0.0700061
2.51834
0.0719201
2.49842
0.0735935
2.47802
0.0752667
2.4569
0.0768192
2.4353
0.078252
2.41298
0.0798051
2.39006
0.0813571
2.36666
0.0826693
2.34266
0.083981
2.31807
0.0851732
2.29299
0.0863645
2.26719
0.087556
2.24091
0.0885065
2.21415
0.0894577
2.18679
0.0904082
2.15883
0.0912386
2.13051
0.0918292
2.10147
0.093019
2.07243
0.0930087
2.04243
0.0941986
2.01123
0.094188
1.98123
0.0941773
1.94883
0.0953665
1.91764
0.0953555
1.88524
0.0953441
1.85164
0.0953328
1.81924
0.0953211
1.78564
0.0953096
1.75084
0.0952977
1.71724
0.095286
1.68124
0.0940735
1.64644
0.0940613
1.61044
0.0928486
1.57444
0.0928363
1.53724
0.0916234
1.50124
0.0904104
1.46404
0.0891975
1.42564
0.0891849
1.38724
0.0879715
1.35004
0.0867584
1.31044
0.0855452
1.27204
0.084332
1.23244
0.0819184
1.19284
0.080705
1.15324
0.0782913
1.11364
0.077078
1.07164
0.0746642
1.03204
0.0722506
0.991244
0.0698368
0.950444
0.0674233
0.908444
0.0662103
0.866444
0.0637969
0.824444
0.0601831
0.783644
0.0577699
0.740443
0.0553568
0.698443
0.0517434
0.656443
0.0493306
0.613242
0.0457175
0.570042
0.043305
0.526841
0.0396922
0.484841
0.0372798
0.44044
0.0324663
0.398441
0.0288526
0.354042
0.0252399
0.310843
0.0216321
0.267636
0.0180301
0.22322
0.013227
0.180008
0.00841721
0.136816
0.00480638
0.0924315
0.0492286
-0.00359595
0.0527763
-0.00838799
0.0971701
-0.0119792
0.14038
-0.0167742
0.184788
-0.021572
0.227983
-0.0251672
0.271169
-0.0287578
0.314359
-0.0323461
0.357557
-0.035934
0.401956
-0.0395222
0.443957
-0.0419104
0.487156
-0.0454981
0.530355
-0.0490856
0.573554
-0.0526728
0.616752
-0.05506
0.658752
-0.0574472
0.700751
-0.0610335
0.74395
-0.0622205
0.784749
-0.0658065
0.827948
-0.0681926
0.868748
-0.0705785
0.910747
-0.0717648
0.951547
-0.0741504
0.993546
-0.0753364
1.03315
-0.0789214
1.07515
-0.0789075
1.11355
-0.0812927
1.15555
-0.0824782
1.19395
-0.0836637
1.23355
-0.0848492
1.27315
-0.087234
1.31274
-0.0872198
1.34995
-0.0896048
1.38955
-0.0907901
1.42675
-0.0907759
1.46395
-0.0907617
1.50115
-0.091947
1.53835
-0.0931324
1.57555
-0.0931182
1.61035
-0.0931043
1.64635
-0.0942898
1.68235
-0.0930762
1.71595
-0.0942617
1.75195
-0.0942481
1.78555
-0.0930346
1.81795
-0.0942208
1.85275
-0.094207
1.88515
-0.0929941
1.91635
-0.0929809
1.94875
-0.0929678
1.98115
-0.0929548
2.01115
-0.0917423
2.04115
-0.0905299
2.07115
-0.0899175
2.10079
-0.0889453
2.12948
-0.0880931
2.15792
-0.0871212
2.18576
-0.0860298
2.213
-0.0849386
2.23976
-0.0837272
2.26592
-0.0825159
2.29172
-0.0811852
2.31668
-0.0797342
2.34116
-0.0782844
2.36516
-0.0768338
2.38856
-0.0752638
2.41136
-0.0735745
2.43356
-0.0720049
2.45529
-0.0701955
2.47617
-0.0685062
2.49669
-0.0665773
2.51637
-0.0647689
2.53569
-0.0627203
2.55417
-0.0607924
2.57217
-0.0588646
2.58957
-0.0566971
2.60613
-0.0546493
2.62233
-0.0524822
2.63769
-0.0503153
2.65245
-0.0481486
2.66662
-0.0459826
2.68018
-0.0435764
2.6929
-0.0412909
2.70514
-0.0388851
2.71654
-0.0365994
2.72746
-0.0341946
2.73766
-0.0317899
2.74726
-0.0293855
2.75602
-0.0268607
2.76418
-0.0244573
2.77175
-0.0219336
2.77847
-0.01941
2.78471
-0.0168867
2.79023
-0.0143642
2.79491
-0.0117214
2.79899
-0.00925926
2.80253
-0.00670086
2.80522
-0.00413125
2.80727
-0.0015619
2.80864
0.00100726
2.80934
0.00357617
2.80934
0.0061449
2.80865
0.00871335
2.80728
0.011269
2.80523
0.013729
2.80254
0.0163682
2.799
0.0188877
2.79492
0.0214064
2.79024
0.0239249
2.78473
0.0264432
2.77849
0.0288418
2.77177
0.031359
2.76421
0.0337566
2.75605
0.0361538
2.74729
0.038551
2.73769
0.0408272
2.72749
0.0432233
2.71657
0.0454997
2.70517
0.0478953
2.69294
0.0500512
2.68022
0.0522063
2.66666
0.0543612
2.6525
0.0565158
2.63774
0.0585497
2.62238
0.0607039
2.60618
0.0626178
2.58962
0.0645315
2.57222
0.0665644
2.55422
0.0683576
2.53575
0.0702702
2.51643
0.0719424
2.49675
0.0737344
2.47623
0.0752862
2.45535
0.0769583
2.43363
0.0785096
2.41143
0.0799403
2.38863
0.0813716
2.36523
0.0828018
2.34123
0.0841123
2.31676
0.085302
2.2918
0.0864915
2.266
0.0875613
2.23984
0.0886309
2.21308
0.0895798
2.18584
0.0904084
2.158
0.0913569
2.12956
0.0919451
2.10088
0.0931334
2.07124
0.0943215
2.04124
0.0943089
2.01125
0.0942962
1.98125
0.0942834
1.94885
0.0954708
1.91645
0.0954572
1.88525
0.0942435
1.85285
0.0954301
1.81805
0.0954165
1.78565
0.0942019
1.75205
0.0953881
1.71605
0.0941733
1.68245
0.0941592
1.64645
0.0941446
1.61045
0.0929295
1.57566
0.0917142
1.53846
0.0916994
1.50126
0.0916845
1.46406
0.090469
1.42686
0.0880529
1.38966
0.0880378
1.35006
0.0856214
1.31286
0.0844057
1.27326
0.08319
1.23366
0.0819741
1.19406
0.0795578
1.15566
0.0795425
1.11366
0.0759258
1.07526
0.0747101
1.03326
0.0722937
0.993661
0.0710782
0.95166
0.068662
0.91086
0.066246
0.86886
0.0626296
0.82806
0.0614144
0.784859
0.0577981
0.74406
0.0553827
0.700858
0.0529673
0.658858
0.0493516
0.616858
0.0457361
0.573657
0.0421207
0.530456
0.0397059
0.487256
0.0360906
0.444055
0.0324747
0.402057
0.028859
0.357657
0.0252463
0.314455
0.0216401
0.271242
0.0168373
0.228023
0.0120304
0.184815
0.00841769
0.140429
0.00360604
0.0972431
0.0528347
-0.00479513
0.0575714
-0.00958737
0.101962
-0.0131774
0.14397
-0.0167698
0.188381
-0.0203665
0.231579
-0.0239626
0.274765
-0.0287535
0.31915
-0.032341
0.361144
-0.0359273
0.405543
-0.0395134
0.447543
-0.0430995
0.490742
-0.0466853
0.53394
-0.0490713
0.575939
-0.051457
0.619138
-0.0550418
0.662336
-0.0574269
0.703136
-0.0598117
0.746334
-0.0633959
0.788334
-0.0645806
0.829133
-0.068164
0.872331
-0.0693484
0.911932
-0.0729313
0.95513
-0.0741154
0.99473
-0.0764986
1.03553
-0.0776821
1.07633
-0.0800652
1.11593
-0.0812486
1.15673
-0.0824319
1.19513
-0.0848145
1.23593
-0.0859976
1.27433
-0.0859812
1.31273
-0.0883638
1.35233
-0.088347
1.38953
-0.08953
1.42793
-0.0907129
1.46513
-0.0918962
1.50233
-0.0918793
1.53833
-0.0918628
1.57553
-0.0930461
1.61153
-0.0942288
1.64753
-0.0930132
1.68113
-0.0941963
1.71713
-0.0941803
1.75193
-0.094164
1.78553
-0.0941482
1.81793
-0.0941321
1.85273
-0.0929169
1.88393
-0.0941005
1.91753
-0.0928856
1.94754
-0.0916707
1.97994
-0.0916555
2.01114
-0.09164
2.04114
-0.090426
2.06994
-0.0898109
2.10018
-0.0889571
2.12862
-0.0881028
2.15706
-0.0870089
2.18466
-0.0860355
2.21202
-0.084822
2.23854
-0.0837285
2.26483
-0.0822758
2.29027
-0.0809433
2.31535
-0.0796109
2.33983
-0.0782782
2.36383
-0.0767063
2.38699
-0.0751346
2.40979
-0.0735632
2.43199
-0.0717519
2.45347
-0.0700614
2.47448
-0.0682506
2.49488
-0.06644
2.51456
-0.0645102
2.53376
-0.0627001
2.55236
-0.0607707
2.57024
-0.0586011
2.5874
-0.0566722
2.6042
-0.0545036
2.62016
-0.0523353
2.63553
-0.0501678
2.65029
-0.0479993
2.66445
-0.0457123
2.67789
-0.043425
2.69061
-0.0411379
2.70285
-0.0388516
2.71425
-0.036445
2.72505
-0.0340393
2.73526
-0.0316338
2.74486
-0.029108
2.7535
-0.0267037
2.76178
-0.0241784
2.76922
-0.0217739
2.77606
-0.0192504
2.78218
-0.0167265
2.7877
-0.0142036
2.79239
-0.0116802
2.79647
-0.00908578
2.79994
-0.00652761
2.80266
-0.00396904
2.80472
-0.00139945
2.80607
0.00116991
2.80677
0.00373898
2.80677
0.00630783
2.80608
0.00886368
2.80472
0.0114199
2.80267
0.0140119
2.79995
0.016531
2.79648
0.0190504
2.7924
0.0215689
2.78773
0.0240878
2.78221
0.0264857
2.77609
0.0290028
2.76925
0.0314008
2.76181
0.0339172
2.75353
0.0363141
2.74489
0.0387107
2.73529
0.0411063
2.7251
0.0433823
2.7143
0.0456574
2.7029
0.0479321
2.69066
0.0502073
2.67794
0.0523609
2.6645
0.0545156
2.65034
0.0566693
2.63559
0.0588227
2.62023
0.0607358
2.60427
0.0628881
2.58747
0.0648007
2.57031
0.0665923
2.55243
0.0685044
2.53383
0.0702955
2.51464
0.0720864
2.49496
0.0737576
2.47456
0.075548
2.45356
0.0770981
2.43208
0.0786479
2.40988
0.0801975
2.38708
0.0815062
2.36392
0.0828152
2.33993
0.084124
2.31545
0.0855526
2.29037
0.0866202
2.26493
0.0878077
2.23865
0.0887555
2.21213
0.0898225
2.18477
0.0906492
2.15717
0.0914762
2.12874
0.0920618
2.1003
0.0932486
2.07006
0.0932336
2.04126
0.0932189
2.01126
0.0944046
1.98006
0.0955901
1.94766
0.0943739
1.91766
0.095559
1.88406
0.0955429
1.85287
0.0955272
1.81807
0.0955109
1.78567
0.0954948
1.75207
0.0942776
1.71727
0.0954619
1.68127
0.094244
1.64767
0.0930269
1.61167
0.0930098
1.57567
0.0929922
1.53847
0.0917747
1.50247
0.0905568
1.46527
0.0893387
1.42808
0.0893209
1.38968
0.0869022
1.35248
0.0868846
1.31288
0.0856664
1.27448
0.0832473
1.23608
0.0820291
1.19528
0.0808108
1.15688
0.078392
1.11608
0.0771736
1.07648
0.0747546
1.03568
0.0735367
0.994879
0.069917
0.95528
0.0686992
0.912078
0.0650799
0.872479
0.0638621
0.829278
0.0602434
0.788478
0.0578254
0.746478
0.0554074
0.703276
0.051789
0.662477
0.0493714
0.619276