/*--------------------------------*- C++ -*----------------------------------*\
  =========                 |
  \\      /  F ield         | OpenFOAM: The Open Source CFD Toolbox
   \\    /   O peration     | Website:  https://openfoam.org
    \\  /    A nd           | Version:  8
     \\/     M anipulation  |
\*---------------------------------------------------------------------------*/
FoamFile
{
    version     2.0;
    format      ascii;
    class       volVectorField;
    location    "0.2";
    object      U;
}
// * * * * * * * * * * * * * * * * * * * * * * * * * * * * * * * * * * * * * //

dimensions      [0 1 -1 0 0 0 0];

internalField   nonuniform List<vector> 
112628
(
(14.9999 6.74094e-08 -4.20122e-24)
(15 1.05611e-06 -1.09615e-22)
(14.9999 2.70407e-06 -6.55724e-22)
(14.9999 6.37869e-06 2.07447e-22)
(14.9998 1.00784e-05 3.75221e-21)
(14.9998 1.36558e-05 -3.91099e-21)
(14.9998 1.74689e-05 -1.5049e-22)
(14.9998 2.21263e-05 1.57523e-21)
(14.9998 2.7311e-05 5.03889e-21)
(14.9998 3.32666e-05 -8.38754e-21)
(14.9998 3.93318e-05 -2.24501e-22)
(14.9997 4.5881e-05 1.4895e-20)
(14.9997 5.30756e-05 9.88902e-21)
(14.9997 6.02496e-05 1.05442e-20)
(14.9997 6.79289e-05 9.55381e-21)
(14.9997 7.55518e-05 1.6155e-20)
(14.9997 8.33856e-05 -1.21997e-20)
(14.9997 9.17295e-05 2.17783e-20)
(14.9997 9.97292e-05 -1.62809e-20)
(14.9997 0.000107824 -2.43679e-20)
(14.9997 0.000115991 -4.41596e-20)
(14.9996 0.000124436 -1.89552e-20)
(14.9996 0.000132505 -1.96991e-20)
(14.9996 0.000140939 -1.13799e-20)
(14.9996 0.00014904 9.79501e-21)
(14.9996 0.000157558 2.17182e-20)
(14.9996 0.000165781 -3.42244e-20)
(14.9996 0.000173884 4.58422e-20)
(14.9996 0.000182181 -3.17645e-22)
(14.9996 0.000190405 2.39399e-20)
(14.9996 0.000198699 2.37067e-20)
(14.9996 0.000206654 2.91376e-22)
(14.9996 0.000214678 2.42917e-20)
(14.9996 0.000222742 2.50711e-20)
(14.9996 0.000230336 -2.52369e-20)
(14.9996 0.000238267 2.82946e-22)
(14.9996 0.000245924 -3.92843e-20)
(14.9996 0.000253602 2.52651e-20)
(14.9996 0.000261531 -1.08969e-20)
(14.9996 0.000268868 5.09033e-20)
(14.9996 0.00027651 -5.08489e-20)
(14.9996 0.000283834 4.06661e-20)
(14.9996 0.000290923 9.7125e-21)
(14.9996 0.000298107 -2.42744e-22)
(14.9996 0.000305314 2.5127e-20)
(14.9996 0.000312172 8.37574e-21)
(14.9996 0.000319357 2.45616e-20)
(14.9996 0.000326237 -4.09425e-20)
(14.9997 0.000332708 -2.43846e-20)
(14.9997 0.000339485 5.8061e-20)
(14.9997 0.00034587 1.73561e-20)
(14.9997 0.000352416 4.67677e-20)
(14.9997 0.000358638 4.62169e-20)
(14.9997 0.000365093 -1.77117e-20)
(14.9997 0.000371143 -1.80714e-20)
(14.9997 0.00037707 -2.21476e-20)
(14.9997 0.000382959 -4.36239e-20)
(14.9997 0.000388884 1.83513e-20)
(14.9997 0.000394375 2.12605e-20)
(14.9997 0.000400091 -2.08753e-20)
(14.9997 0.000405604 2.04959e-20)
(14.9997 0.000410704 -1.51897e-22)
(14.9997 0.000416058 1.96654e-20)
(14.9997 0.000421098 -1.54191e-22)
(14.9997 0.000426176 1.88016e-20)
(14.9997 0.000431127 -3.78479e-20)
(14.9997 0.000435744 0)
(14.9998 0.000440681 -1.73387e-20)
(14.9998 0.00044522 1.68895e-20)
(14.9998 0.000449591 1.64164e-20)
(14.9998 0.000453859 3.60015e-20)
(14.9998 0.000458012 -2.00361e-20)
(14.9998 0.000461982 -3.01698e-20)
(14.9998 0.000465862 3.50548e-20)
(14.9998 0.000469859 -4.10561e-20)
(14.9998 0.000473592 2.04353e-20)
(14.9998 0.000476923 4.68109e-20)
(14.9998 0.00048063 -8.379e-21)
(14.9998 0.00048388 0)
(14.9998 0.000487079 0)
(14.9998 0.000489956 0)
(14.9999 0.000493029 -1.03844e-20)
(14.9999 0.000495874 0)
(14.9999 0.000498693 -1.19402e-20)
(14.9999 0.000501132 4.255e-20)
(14.9999 0.000503452 1.66377e-20)
(14.9999 0.000505964 -7.22432e-20)
(14.9999 0.00050807 1.43918e-20)
(14.9999 0.00051013 1.50618e-20)
(14.9999 0.000512048 -2.16535e-20)
(14.9999 0.000513952 -5.4995e-21)
(14.9999 0.000515728 4.94036e-21)
(14.9999 0.000517224 4.3141e-21)
(14.9999 0.000518616 4.00659e-20)
(15 0.000519811 4.71284e-20)
(15 0.000520996 -1.93664e-20)
(15 0.00052196 -4.4123e-20)
(15 0.000522937 0)
(15 0.000523622 8.74356e-22)
(15 0.000524233 2.21887e-20)
(15 0.000524736 -2.79757e-22)
(15 0.000525133 -2.13321e-20)
(15 0.000525454 0)
(15 0.000525482 4.44193e-20)
(15 0.000525522 -1.05241e-20)
(15 0.000525336 -1.89511e-20)
(15.0001 0.000525141 -7.62705e-21)
(15.0001 0.000524743 -2.21699e-20)
(15.0001 0.000524239 -2.71557e-20)
(15.0001 0.000523446 1.11483e-20)
(15.0001 0.000522521 6.08396e-21)
(15.0001 0.000521578 2.21735e-20)
(15.0001 0.000520486 -7.40525e-21)
(15.0001 0.000519345 2.22154e-20)
(15.0001 0.000517781 -1.70827e-20)
(15.0001 0.00051641 -1.27885e-20)
(15.0001 0.000514914 -3.17683e-20)
(15.0001 0.000513019 1.0396e-20)
(15.0002 0.000511092 5.48286e-20)
(15.0002 0.000508923 -3.32196e-20)
(15.0002 0.000506952 -2.17708e-20)
(15.0002 0.00050464 2.49343e-20)
(15.0002 0.000502268 2.17903e-20)
(15.0002 0.00049941 8.03819e-21)
(15.0002 0.00049694 -7.16783e-20)
(15.0002 0.00049404 1.49143e-20)
(15.0002 0.000490853 6.09017e-21)
(15.0002 0.000487782 -4.28956e-20)
(15.0002 0.000484607 5.43038e-20)
(15.0002 0.000481228 4.25119e-21)
(15.0002 0.000477719 -2.11956e-20)
(15.0003 0.00047409 -1.46841e-20)
(15.0003 0.000470271 3.95488e-20)
(15.0003 0.000466016 -4.01075e-20)
(15.0003 0.000462091 1.82074e-20)
(15.0003 0.000457797 2.09334e-20)
(15.0003 0.000453354 2.06772e-20)
(15.0003 0.000448938 -4.18071e-20)
(15.0003 0.00044417 -6.26714e-20)
(15.0003 0.000439664 1.99839e-22)
(15.0003 0.000434694 2.02911e-20)
(15.0003 0.000429489 0)
(15.0003 0.000424514 2.34173e-20)
(15.0003 0.000419049 0)
(15.0003 0.000413606 -1.99945e-20)
(15.0004 0.000408104 2.49578e-20)
(15.0004 0.000402448 -5.61927e-21)
(15.0004 0.000396327 2.5546e-20)
(15.0004 0.000390444 1.94492e-20)
(15.0004 0.000384181 -5.27857e-20)
(15.0004 0.000378075 -1.1389e-20)
(15.0004 0.000371512 8.26987e-21)
(15.0004 0.000365268 4.61287e-20)
(15.0004 0.000358543 -9.21712e-21)
(15.0004 0.00035145 0)
(15.0004 0.0003447 9.88125e-21)
(15.0004 0.000337529 4.66665e-20)
(15.0004 0.000330357 4.57913e-20)
(15.0004 0.000323263 -4.60793e-20)
(15.0004 0.000315875 1.15253e-20)
(15.0004 0.000308091 3.00138e-22)
(15.0004 0.000300625 1.65814e-20)
(15.0004 0.000292445 -1.6598e-20)
(15.0004 0.000284519 3.30033e-20)
(15.0004 0.000276581 1.96755e-21)
(15.0004 0.000268287 -6.02641e-20)
(15.0004 0.000260348 -1.51028e-20)
(15.0004 0.000251819 -1.37663e-20)
(15.0004 0.000243293 -3.43565e-22)
(15.0004 0.000234806 3.72206e-22)
(15.0004 0.000225869 1.36871e-20)
(15.0004 0.000216967 4.63213e-25)
(15.0004 0.000207927 -8.10008e-20)
(15.0004 0.000199064 4.1553e-20)
(15.0004 0.000190004 -4.05078e-20)
(15.0004 0.000180527 3.74962e-20)
(15.0004 0.000171494 -3.67213e-20)
(15.0004 0.000161992 3.09903e-21)
(15.0004 0.000152867 3.37615e-20)
(15.0004 0.000143211 -3.05216e-21)
(15.0004 0.000133822 -2.17928e-20)
(15.0004 0.000124444 2.07611e-20)
(15.0004 0.000115104 7.78883e-21)
(15.0004 0.000105243 -1.04377e-20)
(15.0004 9.59329e-05 -4.06303e-20)
(15.0004 8.67958e-05 1.87953e-20)
(15.0004 7.74868e-05 -1.39694e-20)
(15.0004 6.87239e-05 7.47586e-21)
(15.0003 5.98243e-05 1.57593e-20)
(15.0003 5.16596e-05 -6.38467e-21)
(15.0003 4.40212e-05 2.01627e-21)
(15.0003 3.64157e-05 7.04001e-21)
(15.0003 2.97289e-05 -7.84327e-21)
(15.0002 2.36544e-05 4.65024e-21)
(15.0002 1.86449e-05 2.10055e-21)
(15.0002 1.38769e-05 2.98277e-21)
(15.0002 8.77795e-06 -1.43404e-21)
(15.0001 3.72685e-06 -9.4601e-22)
(15 1.38277e-06 4.72773e-22)
(15.0001 1.64154e-07 -5.57697e-23)
(14.9981 1.07273e-05 7.88354e-23)
(14.9993 2.6331e-05 -8.93666e-22)
(14.9996 1.52063e-05 -2.22651e-22)
(14.9994 2.54056e-05 -3.72849e-21)
(14.9992 4.65276e-05 5.31476e-21)
(14.9992 6.71757e-05 -3.98107e-21)
(14.9991 8.42069e-05 -8.59394e-21)
(14.9991 0.000100741 3.23527e-22)
(14.9991 0.000117935 2.94984e-21)
(14.9991 0.000136506 6.92751e-22)
(14.999 0.000155363 -9.97579e-21)
(14.999 0.000174748 5.34599e-21)
(14.999 0.00019506 1.61517e-20)
(14.999 0.000215715 -1.08977e-20)
(14.9989 0.000237343 4.50539e-20)
(14.9989 0.000259294 3.94507e-21)
(14.9989 0.000281559 -2.97589e-20)
(14.9989 0.000304665 -4.12989e-21)
(14.9989 0.000327689 1.97226e-20)
(14.9989 0.000351024 -8.59535e-23)
(14.9988 0.000374516 -1.05672e-20)
(14.9988 0.000398525 -3.6995e-20)
(14.9988 0.000422155 -2.63081e-20)
(14.9988 0.000446291 -8.16247e-23)
(14.9988 0.000470072 -1.22281e-20)
(14.9988 0.000494378 2.49501e-20)
(14.9988 0.00051859 1.04576e-21)
(14.9988 0.000542577 7.7256e-22)
(14.9988 0.0005666 -1.47246e-20)
(14.9988 0.000590633 -1.40095e-20)
(14.9988 0.000614635 1.40521e-20)
(14.9988 0.000638338 7.28233e-22)
(14.9988 0.000662132 -4.50549e-20)
(14.9988 0.000685858 1.19544e-19)
(14.9988 0.000708973 1.58472e-20)
(14.9988 0.000732356 2.95591e-20)
(14.9988 0.000755219 -3.22372e-20)
(14.9988 0.000778085 -5.72679e-22)
(14.9988 0.000801293 2.99434e-20)
(14.9988 0.000823534 7.46542e-20)
(14.9988 0.000846125 4.69549e-20)
(14.9988 0.000868148 -6.16335e-21)
(14.9989 0.000889786 2.87301e-20)
(14.9989 0.000911363 0)
(14.9989 0.000932847 1.03863e-20)
(14.9989 0.000953764 -1.83097e-20)
(14.9989 0.000975 6.42125e-20)
(14.9989 0.000995481 -3.5822e-20)
(14.9989 0.00101538 -6.45722e-20)
(14.9989 0.00103558 1.85731e-20)
(14.9989 0.0010553 2.68502e-20)
(14.999 0.00107476 1.34151e-20)
(14.999 0.00109366 8.99053e-20)
(14.999 0.00111289 4.51669e-20)
(14.999 0.00113126 -2.11097e-22)
(14.999 0.00114941 1.51879e-20)
(14.999 0.00116737 -1.97321e-20)
(14.9991 0.00118496 -4.04596e-20)
(14.9991 0.00120197 6.6574e-20)
(14.9991 0.00121911 4.56612e-20)
(14.9991 0.00123565 1.7109e-21)
(14.9991 0.00125161 0)
(14.9991 0.0012677 2.13848e-20)
(14.9992 0.00128316 -2.08852e-20)
(14.9992 0.0012984 4.13157e-20)
(14.9992 0.00131324 1.19291e-22)
(14.9992 0.00132773 -1.52664e-22)
(14.9992 0.00134219 -3.99901e-20)
(14.9993 0.00135597 -4.29871e-20)
(14.9993 0.00136934 9.01965e-24)
(14.9993 0.00138232 4.31378e-20)
(14.9993 0.00139513 4.35983e-20)
(14.9993 0.00140742 -2.18216e-20)
(14.9994 0.00141923 9.46591e-21)
(14.9994 0.00143112 -2.19575e-20)
(14.9994 0.0014424 -3.67958e-20)
(14.9994 0.00145305 1.41068e-20)
(14.9995 0.00146394 2.22457e-20)
(14.9995 0.00147398 3.53812e-20)
(14.9995 0.0014837 -1.23895e-20)
(14.9995 0.0014928 3.43274e-20)
(14.9995 0.00150193 1.13209e-20)
(14.9996 0.00151058 -5.60376e-20)
(14.9996 0.00151898 -2.27956e-20)
(14.9996 0.00152662 2.28025e-20)
(14.9996 0.00153393 4.07769e-20)
(14.9997 0.00154118 -5.23093e-24)
(14.9997 0.00154789 2.30195e-20)
(14.9997 0.00155411 5.68474e-23)
(14.9997 0.00155999 -2.97052e-20)
(14.9998 0.00156579 -2.91222e-20)
(14.9998 0.00157092 -5.18614e-20)
(14.9998 0.00157553 4.18834e-20)
(14.9998 0.00157976 4.68007e-20)
(14.9999 0.00158365 1.03998e-20)
(14.9999 0.00158744 8.57725e-21)
(14.9999 0.00159048 -2.5809e-20)
(14.9999 0.00159335 -2.36009e-20)
(15 0.00159545 -7.76824e-24)
(15 0.00159735 2.33342e-20)
(15 0.00159891 2.34371e-20)
(15 0.00160012 -7.09912e-24)
(15.0001 0.00160113 -2.37133e-20)
(15.0001 0.00160136 -4.74701e-20)
(15.0001 0.00160143 1.81707e-20)
(15.0001 0.00160073 2.02186e-20)
(15.0002 0.00159992 -2.7694e-20)
(15.0002 0.00159877 -4.39881e-23)
(15.0002 0.00159723 1.83999e-20)
(15.0002 0.00159514 4.7283e-20)
(15.0003 0.00159237 -5.38938e-20)
(15.0003 0.0015895 -2.35203e-20)
(15.0003 0.00158628 -4.4423e-23)
(15.0003 0.00158254 8.51556e-21)
(15.0004 0.00157824 5.34875e-21)
(15.0004 0.00157385 1.94233e-20)
(15.0004 0.00156913 -2.35604e-20)
(15.0004 0.0015636 1.10338e-20)
(15.0005 0.00155779 2.48798e-22)
(15.0005 0.00155147 -1.22146e-20)
(15.0005 0.00154515 5.96934e-20)
(15.0005 0.00153818 -1.84262e-22)
(15.0006 0.00153085 -4.6518e-20)
(15.0006 0.00152262 -3.80145e-20)
(15.0006 0.00151461 8.29164e-23)
(15.0006 0.00150591 5.48929e-20)
(15.0007 0.00149655 -1.65164e-20)
(15.0007 0.00148725 2.31653e-20)
(15.0007 0.00147741 3.53334e-20)
(15.0007 0.00146699 -4.1202e-20)
(15.0008 0.00145637 -4.59592e-20)
(15.0008 0.00144529 6.56094e-20)
(15.0008 0.00143376 4.50753e-20)
(15.0008 0.00142145 -2.03843e-20)
(15.0009 0.00140908 -2.54813e-22)
(15.0009 0.0013963 -4.51179e-22)
(15.0009 0.00138305 -2.26193e-20)
(15.0009 0.00136953 -6.79161e-20)
(15.0009 0.00135529 1.27621e-21)
(15.001 0.00134113 7.06016e-20)
(15.001 0.00132632 4.6748e-20)
(15.001 0.0013108 -3.02154e-21)
(15.001 0.00129537 -2.0178e-22)
(15.001 0.00127926 4.5041e-21)
(15.0011 0.0012627 0)
(15.0011 0.00124587 5.56258e-21)
(15.0011 0.00122874 2.1937e-20)
(15.0011 0.00121061 2.11251e-20)
(15.0011 0.00119279 -4.27278e-20)
(15.0012 0.00117427 -7.76357e-21)
(15.0012 0.00115542 2.0726e-20)
(15.0012 0.00113596 9.43377e-21)
(15.0012 0.00111676 4.03603e-20)
(15.0012 0.00109684 -3.08102e-20)
(15.0013 0.00107599 4.10843e-20)
(15.0013 0.00105543 -3.21024e-20)
(15.0013 0.00103415 5.30314e-20)
(15.0013 0.00101269 -5.34462e-20)
(15.0013 0.000991061 1.38329e-20)
(15.0013 0.000968909 3.25953e-20)
(15.0013 0.000946015 4.80413e-20)
(15.0014 0.000923427 1.90982e-20)
(15.0014 0.000899623 1.47419e-20)
(15.0014 0.000876111 1.94267e-20)
(15.0014 0.000852493 1.79659e-20)
(15.0014 0.00082816 -5.27562e-20)
(15.0014 0.000804022 -5.29102e-20)
(15.0014 0.000779049 1.83681e-20)
(15.0014 0.000753867 -1.77171e-20)
(15.0014 0.000728661 4.36224e-22)
(15.0014 0.000702963 -1.78176e-20)
(15.0014 0.000677084 -1.02596e-19)
(15.0014 0.00065107 7.61598e-22)
(15.0014 0.00062494 5.10054e-20)
(15.0014 0.000598378 3.48394e-20)
(15.0014 0.00057153 2.93522e-20)
(15.0014 0.000545141 -8.01081e-20)
(15.0014 0.000518133 3.22964e-20)
(15.0014 0.000491555 1.76001e-20)
(15.0014 0.000464302 3.12611e-20)
(15.0014 0.000437482 2.53352e-20)
(15.0014 0.00041063 -1.6982e-20)
(15.0014 0.000383934 -1.18213e-20)
(15.0014 0.000356896 -3.73216e-20)
(15.0014 0.000330661 -2.97955e-20)
(15.0014 0.00030457 -1.07333e-20)
(15.0013 0.000278615 -2.96327e-20)
(15.0013 0.000253613 7.24224e-21)
(15.0013 0.00022878 -6.85259e-21)
(15.0013 0.000204861 6.53504e-21)
(15.0013 0.000181303 -4.28655e-22)
(15.0012 0.000157809 -9.25186e-21)
(15.0012 0.000135839 6.67613e-21)
(15.0012 0.000114477 1.97281e-20)
(15.0011 9.20006e-05 -1.70149e-21)
(15.001 6.39589e-05 -2.9404e-22)
(15.0008 3.46696e-05 -5.11515e-21)
(15.0006 2.12078e-05 2.66197e-21)
(15.0011 3.75132e-05 -4.34173e-22)
(15.0027 1.59267e-05 -3.89621e-22)
(14.9966 6.02535e-06 1.49838e-22)
(14.9983 5.03415e-05 1.41051e-22)
(14.999 4.43583e-05 7.0498e-22)
(14.999 4.33463e-05 -2.16127e-21)
(14.9987 6.70657e-05 -2.20308e-21)
(14.9986 0.000103765 9.38703e-21)
(14.9985 0.000138326 -2.43572e-21)
(14.9984 0.00016946 0)
(14.9984 0.000200106 -1.86345e-20)
(14.9983 0.000232421 2.89599e-20)
(14.9983 0.000265543 -2.55951e-20)
(14.9982 0.000299261 5.65582e-21)
(14.9982 0.000333678 5.92252e-21)
(14.9982 0.000368781 -2.35472e-20)
(14.9981 0.000405126 1.78639e-20)
(14.9981 0.000441994 8.63193e-21)
(14.9981 0.000479241 -4.26046e-20)
(14.9981 0.000517449 -4.40121e-20)
(14.9981 0.00055576 1.33252e-20)
(14.998 0.000594577 1.41142e-20)
(14.998 0.000633777 4.95088e-20)
(14.998 0.000673361 1.14116e-20)
(14.998 0.000712973 1.49024e-20)
(14.998 0.000752971 -2.72925e-20)
(14.998 0.000792622 1.26903e-20)
(14.998 0.000832766 -5.59569e-20)
(14.998 0.000872976 5.68365e-20)
(14.998 0.000912832 1.33842e-20)
(14.998 0.000952672 1.4112e-20)
(14.998 0.00099267 -1.41856e-20)
(14.998 0.00103241 -2.98956e-20)
(14.998 0.00107208 4.47588e-20)
(14.998 0.00111173 -7.50681e-20)
(14.998 0.00115122 -4.61911e-20)
(14.998 0.00119004 6.18254e-20)
(14.998 0.00122912 5.97025e-20)
(14.998 0.00126745 2.98416e-20)
(14.998 0.00130565 -1.6504e-20)
(14.998 0.00134408 1.27851e-20)
(14.998 0.00138154 -5.90552e-20)
(14.998 0.00141897 7.60961e-20)
(14.998 0.00145605 1.7662e-20)
(14.9981 0.00149249 2.90053e-20)
(14.9981 0.00152894 2.88153e-20)
(14.9981 0.00156494 0)
(14.9981 0.00160011 -1.82544e-20)
(14.9981 0.00163539 8.48965e-21)
(14.9982 0.00166989 4.70481e-20)
(14.9982 0.00170375 -3.80817e-20)
(14.9982 0.0017375 -2.71641e-20)
(14.9982 0.00177078 3.44603e-20)
(14.9982 0.00180369 -4.59596e-20)
(14.9983 0.0018355 -3.26804e-20)
(14.9983 0.00186754 7.12111e-20)
(14.9983 0.00189869 1.97927e-20)
(14.9984 0.00192951 2.51172e-20)
(14.9984 0.0019596 5.31515e-20)
(14.9984 0.00198926 3.80618e-21)
(14.9984 0.00201828 -4.09276e-20)
(14.9985 0.00204699 4.35664e-20)
(14.9985 0.00207497 6.43869e-20)
(14.9985 0.00210213 2.2228e-20)
(14.9986 0.00212914 2.08889e-20)
(14.9986 0.00215549 1.49021e-22)
(14.9986 0.00218116 -6.29131e-20)
(14.9987 0.00220621 4.06084e-20)
(14.9987 0.0022308 2.13691e-20)
(14.9987 0.00225488 1.94104e-20)
(14.9988 0.00227823 -4.05388e-20)
(14.9988 0.0023009 -2.57904e-23)
(14.9988 0.002323 4.11493e-21)
(14.9989 0.00234474 -2.17804e-20)
(14.9989 0.00236576 -2.76684e-20)
(14.9989 0.00238583 3.8212e-20)
(14.999 0.00240553 3.78486e-20)
(14.999 0.00242481 -1.49713e-20)
(14.999 0.00244325 -1.44093e-20)
(14.9991 0.00246116 -5.01446e-20)
(14.9991 0.00247829 9.25105e-21)
(14.9992 0.00249489 -1.24671e-20)
(14.9992 0.00251048 -4.56607e-20)
(14.9992 0.00252586 5.7198e-20)
(14.9993 0.00254056 1.22142e-21)
(14.9993 0.0025547 -4.60908e-20)
(14.9994 0.0025677 -7.68848e-23)
(14.9994 0.00258029 5.64776e-23)
(14.9994 0.00259238 -3.18115e-20)
(14.9995 0.00260391 2.329e-20)
(14.9995 0.00261456 3.94651e-20)
(14.9996 0.0026246 6.75149e-21)
(14.9996 0.00263411 6.04124e-21)
(14.9996 0.00264273 3.1493e-23)
(14.9997 0.00265074 -2.84979e-20)
(14.9997 0.00265804 -4.31688e-20)
(14.9998 0.00266479 -2.37966e-20)
(14.9998 0.0026711 7.13921e-20)
(14.9998 0.00267629 2.15535e-20)
(14.9999 0.00268093 -2.38908e-20)
(14.9999 0.00268468 2.29004e-20)
(15 0.00268811 4.02551e-22)
(15 0.00269076 -2.42572e-20)
(15.0001 0.00269264 8.99245e-22)
(15.0001 0.00269419 0)
(15.0001 0.00269483 2.17577e-21)
(15.0002 0.00269493 -2.11898e-20)
(15.0002 0.00269388 -3.44716e-21)
(15.0003 0.00269238 2.81114e-20)
(15.0003 0.00269031 -3.35143e-20)
(15.0004 0.00268752 -2.39469e-20)
(15.0004 0.00268409 1.55288e-24)
(15.0004 0.00267973 -2.03797e-23)
(15.0005 0.00267483 4.78957e-20)
(15.0005 0.00266928 2.3808e-20)
(15.0006 0.00266281 -2.38418e-20)
(15.0006 0.00265573 2.38794e-20)
(15.0007 0.00264814 3.36747e-20)
(15.0007 0.00264009 -4.76954e-20)
(15.0007 0.00263083 -3.63167e-20)
(15.0008 0.00262096 1.19816e-20)
(15.0008 0.00261036 5.98129e-20)
(15.0009 0.00259951 1.29557e-20)
(15.0009 0.00258758 -3.72819e-20)
(15.001 0.00257506 0)
(15.001 0.00256168 2.36227e-20)
(15.001 0.00254772 3.90457e-20)
(15.0011 0.00253283 -2.34983e-20)
(15.0011 0.00251745 -2.33472e-20)
(15.0012 0.00250163 2.34237e-20)
(15.0012 0.00248477 -3.62286e-20)
(15.0012 0.0024671 -2.31825e-20)
(15.0013 0.00244899 2.32529e-20)
(15.0013 0.00243022 4.29769e-20)
(15.0014 0.00241068 -6.40787e-20)
(15.0014 0.00239029 -1.84213e-21)
(15.0014 0.0023693 -2.03456e-20)
(15.0015 0.00234775 2.20845e-20)
(15.0015 0.00232547 -4.55241e-20)
(15.0016 0.00230239 2.2782e-20)
(15.0016 0.00227853 4.65318e-20)
(15.0016 0.00225442 2.45896e-20)
(15.0017 0.00222935 -1.99629e-20)
(15.0017 0.00220342 -2.20377e-20)
(15.0017 0.00217705 7.06368e-20)
(15.0018 0.00214991 -2.1419e-22)
(15.0018 0.00212222 -2.19282e-20)
(15.0018 0.00209362 0)
(15.0019 0.00206456 5.65578e-20)
(15.0019 0.00203443 -5.75978e-20)
(15.0019 0.00200445 0)
(15.002 0.00197314 2.97639e-20)
(15.002 0.0019413 -3.02393e-20)
(15.002 0.00190885 2.13314e-20)
(15.0021 0.00187613 9.6703e-21)
(15.0021 0.00184258 4.25262e-20)
(15.0021 0.00180804 -2.933e-22)
(15.0021 0.00177348 -6.42991e-20)
(15.0022 0.00173785 2.02572e-20)
(15.0022 0.00170156 -7.8658e-20)
(15.0022 0.00166515 5.32413e-20)
(15.0022 0.00162786 -3.35892e-20)
(15.0023 0.00159 -1.97154e-20)
(15.0023 0.00155194 -3.37855e-20)
(15.0023 0.0015126 1.46247e-20)
(15.0023 0.00147336 5.45097e-20)
(15.0024 0.00143378 -1.68806e-20)
(15.0024 0.00139313 -9.01469e-20)
(15.0024 0.00135259 -6.9525e-20)
(15.0024 0.00131107 5.28395e-20)
(15.0024 0.00126914 -7.00731e-20)
(15.0024 0.00122697 0)
(15.0024 0.00118449 -5.22008e-20)
(15.0024 0.00114145 -1.73381e-20)
(15.0025 0.00109836 6.6953e-20)
(15.0025 0.00105499 -3.42267e-20)
(15.0025 0.00101092 5.20689e-20)
(15.0025 0.00096665 -6.4031e-20)
(15.0025 0.000922678 3.34142e-20)
(15.0025 0.000877981 4.64619e-20)
(15.0025 0.000833428 4.58905e-20)
(15.0025 0.000788577 4.4231e-20)
(15.0025 0.000743842 4.00517e-21)
(15.0024 0.000699217 8.19593e-22)
(15.0024 0.000654843 -1.72863e-20)
(15.0024 0.000610199 1.61061e-20)
(15.0024 0.000566331 0)
(15.0024 0.000522519 -3.40556e-20)
(15.0024 0.000478912 4.5376e-20)
(15.0023 0.000436413 -2.12388e-20)
(15.0023 0.000394309 -1.07809e-20)
(15.0023 0.000352606 5.6979e-21)
(15.0022 0.000311067 -4.07128e-20)
(15.0022 0.000270076 5.37367e-21)
(15.0021 0.000230731 1.38722e-20)
(15.0021 0.000190029 2.28148e-21)
(15.002 0.000143677 2.94377e-22)
(15.0018 9.33578e-05 -3.1328e-21)
(15.0014 6.0834e-05 1.26083e-21)
(15.0014 6.39735e-05 -1.73663e-22)
(15.0024 7.29128e-05 -1.86878e-21)
(15.0048 9.18477e-06 1.40836e-22)
(14.9955 9.68262e-06 -1.31469e-22)
(14.9973 5.71867e-05 6.82949e-22)
(14.9983 7.81054e-05 0)
(14.9985 7.21465e-05 0)
(14.9982 8.5672e-05 -1.12107e-21)
(14.998 0.000129093 -1.81313e-21)
(14.9978 0.000180925 -4.01107e-21)
(14.9977 0.000228481 -1.97759e-21)
(14.9977 0.000273231 -6.35063e-21)
(14.9976 0.000319209 9.99033e-21)
(14.9975 0.000366406 -6.95362e-21)
(14.9975 0.000414517 -6.04598e-21)
(14.9974 0.000463387 -9.3716e-21)
(14.9974 0.000513302 5.67333e-23)
(14.9974 0.000564455 -3.72138e-20)
(14.9973 0.000616311 2.77714e-20)
(14.9973 0.000668787 8.78707e-21)
(14.9973 0.00072229 1.3179e-20)
(14.9972 0.000776244 -3.31477e-20)
(14.9972 0.000830745 1.41033e-20)
(14.9972 0.000885534 -5.03416e-20)
(14.9972 0.000940976 4.25005e-22)
(14.9971 0.000996616 1.11351e-20)
(14.9971 0.00105279 -1.44126e-20)
(14.9971 0.00110854 2.71603e-20)
(14.9971 0.00116476 3.88257e-22)
(14.9971 0.00122106 -5.51092e-20)
(14.9971 0.00127714 -2.91811e-20)
(14.9971 0.00133304 1.42811e-20)
(14.9971 0.00138931 5.47733e-23)
(14.9971 0.00144529 0)
(14.9971 0.00150102 2.98549e-20)
(14.9971 0.00155663 4.50916e-20)
(14.9971 0.0016121 -2.98757e-20)
(14.9971 0.00166701 -3.18044e-20)
(14.9971 0.00172188 -3.03817e-20)
(14.9972 0.00177614 -2.97605e-20)
(14.9972 0.00183017 -3.03546e-20)
(14.9972 0.00188411 3.89324e-21)
(14.9972 0.001937 -5.95064e-20)
(14.9972 0.00198981 -4.73662e-20)
(14.9972 0.00204202 1.20775e-20)
(14.9973 0.00209358 1.1411e-20)
(14.9973 0.0021451 1.79806e-20)
(14.9973 0.00219603 2.9235e-20)
(14.9973 0.00224584 -2.46777e-22)
(14.9974 0.00229561 1.87893e-20)
(14.9974 0.00234444 5.64068e-20)
(14.9974 0.00239269 2.78558e-20)
(14.9975 0.00244037 -1.91335e-20)
(14.9975 0.00248751 2.69744e-20)
(14.9975 0.0025339 -1.45659e-20)
(14.9976 0.00257948 -1.94865e-20)
(14.9976 0.00262472 -2.02509e-20)
(14.9976 0.0026689 2.02041e-20)
(14.9977 0.0027126 3.05315e-20)
(14.9977 0.00275518 -2.04531e-20)
(14.9977 0.00279735 4.49113e-20)
(14.9978 0.00283872 -3.28661e-21)
(14.9978 0.00287937 -6.79033e-20)
(14.9979 0.00291916 -2.10154e-20)
(14.9979 0.00295801 2.10281e-20)
(14.998 0.00299631 2.13202e-20)
(14.998 0.00303366 6.41906e-20)
(14.998 0.00307021 -2.11047e-20)
(14.9981 0.00310604 -4.34952e-20)
(14.9981 0.00314089 1.58951e-21)
(14.9982 0.00317497 1.96919e-20)
(14.9982 0.00320833 -2.18574e-20)
(14.9983 0.0032408 1.8503e-20)
(14.9983 0.00327238 4.43192e-20)
(14.9984 0.00330305 3.52144e-20)
(14.9984 0.003333 -6.17005e-20)
(14.9985 0.00336178 -3.89518e-20)
(14.9985 0.00338973 2.25142e-20)
(14.9986 0.00341718 7.41365e-21)
(14.9986 0.00344357 2.26819e-20)
(14.9987 0.00346891 8.7194e-21)
(14.9987 0.00349327 -2.71593e-20)
(14.9988 0.00351698 3.00862e-21)
(14.9989 0.00353951 -4.79506e-20)
(14.9989 0.00356136 3.44466e-20)
(14.999 0.00358222 -1.18307e-20)
(14.999 0.00360231 -7.00419e-20)
(14.9991 0.00362105 1.3394e-20)
(14.9991 0.00363912 4.69679e-20)
(14.9992 0.00365627 4.64537e-23)
(14.9993 0.00367259 1.5386e-20)
(14.9993 0.0036879 -2.35559e-20)
(14.9994 0.00370227 -6.44235e-20)
(14.9994 0.00371559 6.25798e-21)
(14.9995 0.00372806 4.94405e-24)
(14.9995 0.00373973 2.39335e-20)
(14.9996 0.00375024 2.40185e-20)
(14.9997 0.0037598 1.2949e-20)
(14.9997 0.00376856 1.8021e-20)
(14.9998 0.00377599 -2.17546e-20)
(14.9998 0.00378263 -2.42322e-20)
(14.9999 0.0037881 -2.42611e-20)
(15 0.0037931 -2.38702e-20)
(15 0.00379689 7.27662e-20)
(15.0001 0.00379946 2.43184e-20)
(15.0001 0.00380154 -2.58492e-20)
(15.0002 0.00380245 -2.43381e-20)
(15.0003 0.00380257 -2.7132e-20)
(15.0003 0.00380132 2.78202e-20)
(15.0004 0.00379926 -5.69947e-20)
(15.0005 0.00379621 -2.4261e-20)
(15.0005 0.00379198 7.83404e-20)
(15.0006 0.00378692 4.84879e-20)
(15.0006 0.00378096 -4.17224e-20)
(15.0007 0.00377391 -9.2165e-21)
(15.0008 0.00376588 -6.92515e-23)
(15.0008 0.00375677 5.67391e-23)
(15.0009 0.00374679 4.83439e-20)
(15.0009 0.00373582 -1.0144e-20)
(15.001 0.00372412 -3.47926e-20)
(15.0011 0.00371101 -1.27275e-20)
(15.0011 0.00369704 3.62335e-20)
(15.0012 0.00368201 4.79703e-20)
(15.0012 0.00366622 0)
(15.0013 0.00364916 -2.39648e-20)
(15.0014 0.00363137 -9.23309e-21)
(15.0014 0.00361249 0)
(15.0015 0.00359246 -1.58902e-20)
(15.0015 0.00357126 -1.65271e-20)
(15.0016 0.00354947 -1.71413e-20)
(15.0016 0.00352674 -2.37085e-20)
(15.0017 0.0035027 -1.82668e-20)
(15.0018 0.00347783 2.34674e-20)
(15.0018 0.00345192 -2.3566e-20)
(15.0019 0.00342498 1.09755e-22)
(15.0019 0.00339701 2.57856e-20)
(15.002 0.00336819 2.13139e-20)
(15.002 0.00333846 1.80519e-22)
(15.0021 0.00330758 -4.54554e-20)
(15.0022 0.00327584 -2.29288e-20)
(15.0022 0.00324312 0)
(15.0023 0.00320929 -2.71439e-23)
(15.0023 0.00317475 -2.11501e-21)
(15.0024 0.00313908 -5.12816e-20)
(15.0024 0.00310236 7.50953e-20)
(15.0025 0.00306474 2.6211e-20)
(15.0025 0.00302612 -9.89282e-20)
(15.0026 0.00298693 0)
(15.0026 0.00294636 2.23007e-20)
(15.0027 0.00290514 6.33104e-21)
(15.0027 0.0028626 7.63864e-21)
(15.0027 0.00281954 2.16456e-20)
(15.0028 0.00277542 -3.01931e-20)
(15.0028 0.00273032 0)
(15.0029 0.00268444 2.15302e-20)
(15.0029 0.00263776 -1.04391e-20)
(15.003 0.00259026 1.07942e-20)
(15.003 0.00254151 -7.42115e-20)
(15.003 0.00249254 3.30398e-20)
(15.0031 0.0024421 -3.26701e-22)
(15.0031 0.00239078 -3.31245e-20)
(15.0031 0.00233921 1.99927e-20)
(15.0032 0.00228669 -2.02461e-20)
(15.0032 0.00223326 -1.97251e-20)
(15.0032 0.00217949 7.41264e-20)
(15.0033 0.00212428 1.88235e-20)
(15.0033 0.00206871 1.60369e-20)
(15.0033 0.00201261 -5.43059e-20)
(15.0034 0.00195553 -7.255e-20)
(15.0034 0.00189813 5.41452e-20)
(15.0034 0.00183978 -1.78624e-20)
(15.0034 0.00178096 3.6506e-22)
(15.0034 0.00172168 1.72884e-20)
(15.0035 0.00166178 0)
(15.0035 0.00160119 7.00339e-20)
(15.0035 0.0015407 -3.4798e-20)
(15.0035 0.0014796 -3.45093e-20)
(15.0035 0.00141787 -6.8225e-20)
(15.0035 0.00135583 -1.80875e-20)
(15.0035 0.00129394 4.79436e-20)
(15.0035 0.00123109 -3.24723e-20)
(15.0035 0.00116844 -1.40695e-20)
(15.0035 0.00110555 -3.06536e-20)
(15.0035 0.00104297 -4.79532e-20)
(15.0035 0.000980227 4.60926e-20)
(15.0035 0.000917614 4.63954e-22)
(15.0035 0.000854994 -4.83309e-22)
(15.0034 0.000793057 2.61172e-20)
(15.0034 0.0007313 3.35292e-20)
(15.0034 0.000669751 1.34507e-20)
(15.0033 0.000609106 4.49978e-21)
(15.0033 0.000549089 -1.83059e-20)
(15.0033 0.000489266 -1.75315e-20)
(15.0032 0.000429815 4.37169e-22)
(15.0031 0.00037117 1.73804e-20)
(15.0031 0.000313226 -2.13925e-20)
(15.003 0.000250243 8.62861e-21)
(15.0028 0.000179953 3.2673e-23)
(15.0025 0.000120474 0)
(15.0021 0.000102948 -1.30968e-21)
(15.0024 0.000113427 -1.64109e-21)
(15.0039 8.32562e-05 2.90538e-22)
(15.0065 1.46376e-05 2.08178e-22)
(14.9946 9.6984e-06 -2.13616e-22)
(14.9962 5.99663e-05 -1.01836e-21)
(14.9975 0.000107159 0)
(14.9979 0.000111014 2.23888e-21)
(14.9977 0.000112023 1.154e-21)
(14.9974 0.000150184 -2.98337e-21)
(14.9972 0.000213461 -6.34515e-21)
(14.9971 0.000278164 -2.77883e-21)
(14.997 0.000338209 2.37495e-21)
(14.9969 0.000398086 -1.14878e-20)
(14.9968 0.000459219 1.7805e-20)
(14.9967 0.000521493 -9.02206e-21)
(14.9967 0.000584714 2.21257e-20)
(14.9966 0.000649251 -6.44247e-23)
(14.9966 0.000715031 1.13506e-20)
(14.9965 0.000781948 -8.28131e-21)
(14.9965 0.000849635 4.23423e-20)
(14.9964 0.000918229 3.12737e-20)
(14.9964 0.000987608 -9.16049e-21)
(14.9964 0.00105797 -7.89106e-22)
(14.9963 0.00112869 -1.37584e-20)
(14.9963 0.0011999 -1.14674e-20)
(14.9963 0.00127168 -2.65852e-20)
(14.9963 0.00134391 -1.18705e-20)
(14.9963 0.00141585 -2.80579e-20)
(14.9963 0.00148823 5.41373e-20)
(14.9962 0.0015609 -1.51743e-20)
(14.9962 0.00163341 -2.91358e-20)
(14.9962 0.00170563 -2.93969e-20)
(14.9962 0.00177846 -4.39306e-20)
(14.9962 0.00185075 -1.49563e-20)
(14.9962 0.00192286 0)
(14.9963 0.0019948 -4.54156e-20)
(14.9963 0.00206651 -3.05296e-20)
(14.9963 0.00213777 1.61427e-21)
(14.9963 0.00220889 -1.40697e-20)
(14.9963 0.00227927 -3.04544e-20)
(14.9963 0.00234937 -4.70158e-20)
(14.9963 0.00241907 -3.05872e-20)
(14.9964 0.00248784 6.06402e-20)
(14.9964 0.00255636 -5.01519e-21)
(14.9964 0.00262441 -4.78146e-20)
(14.9964 0.00269148 -1.18996e-20)
(14.9965 0.00275828 2.68972e-22)
(14.9965 0.00282452 -2.40848e-22)
(14.9965 0.00288932 -2.8854e-20)
(14.9966 0.00295385 2.85719e-20)
(14.9966 0.00301766 -2.8294e-20)
(14.9967 0.00308039 2.80456e-20)
(14.9967 0.00314254 2.67652e-22)
(14.9967 0.00320401 1.92314e-20)
(14.9968 0.00326432 2.77532e-20)
(14.9968 0.00332391 6.64993e-21)
(14.9969 0.00338279 -6.3486e-21)
(14.9969 0.00344044 6.00852e-21)
(14.997 0.0034974 2.55565e-20)
(14.997 0.00355317 -2.51494e-20)
(14.9971 0.00360809 -2.51287e-20)
(14.9971 0.00366208 4.54352e-20)
(14.9972 0.0037151 0)
(14.9972 0.0037671 -2.35806e-20)
(14.9973 0.00381817 -4.62039e-20)
(14.9973 0.00386814 2.26101e-20)
(14.9974 0.00391684 -2.21233e-20)
(14.9975 0.00396474 4.32965e-20)
(14.9975 0.00401169 2.17286e-20)
(14.9976 0.00405727 2.07619e-20)
(14.9976 0.00410178 -2.0638e-21)
(14.9977 0.00414535 -2.20903e-20)
(14.9978 0.00418802 -3.81601e-20)
(14.9978 0.00422942 1.86163e-20)
(14.9979 0.00426931 1.78044e-20)
(14.998 0.00430841 5.32207e-21)
(14.998 0.00434637 -1.68084e-20)
(14.9981 0.0043831 -9.70912e-21)
(14.9982 0.0044188 -1.55528e-20)
(14.9982 0.0044533 -1.51928e-20)
(14.9983 0.00448656 3.76232e-20)
(14.9984 0.00451857 -4.62994e-20)
(14.9984 0.00454965 -1.76599e-22)
(14.9985 0.00457942 2.35252e-20)
(14.9986 0.00460783 -2.3493e-20)
(14.9987 0.00463509 2.29462e-20)
(14.9987 0.00466151 -2.17211e-20)
(14.9988 0.00468641 -4.83304e-24)