# Forces      
# CofR        : (0.000000e+00 0.000000e+00 0.000000e+00)
# Time        forces(pressure viscous porous)	moments(pressure viscous porous)
0.2           	((6.760059e+00 9.534282e+01 -2.780347e-19) (6.914592e-01 -8.693625e-03 2.315234e-19) (0.000000e+00 0.000000e+00 0.000000e+00)) ((-6.197283e+01 4.394038e+00 -9.306280e+02) (5.650856e-03 4.494485e-01 1.061608e-01) (0.000000e+00 0.000000e+00 0.000000e+00))
