# Forces      
# CofR        : (0.000000e+00 0.000000e+00 0.000000e+00)
# Time        forces(pressure viscous porous)	moments(pressure viscous porous)
0             	((0.000000e+00 0.000000e+00 0.000000e+00) (3.574916e-01 2.115357e-02 -4.648145e-19) (0.000000e+00 0.000000e+00 0.000000e+00)) ((0.000000e+00 0.000000e+00 0.000000e+00) (-1.374982e-02 2.323696e-01 -1.575703e-01) (0.000000e+00 0.000000e+00 0.000000e+00))
