/*--------------------------------*- C++ -*----------------------------------*\
  =========                 |
  \\      /  F ield         | OpenFOAM: The Open Source CFD Toolbox
   \\    /   O peration     | Website:  https://openfoam.org
    \\  /    A nd           | Version:  8
     \\/     M anipulation  |
\*---------------------------------------------------------------------------*/
FoamFile
{
    version     2.0;
    format      ascii;
    class       volScalarField;
    location    "0.1";
    object      nuTilda;
}
// * * * * * * * * * * * * * * * * * * * * * * * * * * * * * * * * * * * * * //

dimensions      [0 2 -1 0 0 0 0];

internalField   nonuniform List<scalar> 
127200
(
0.000205572
0.000210847
0.000215892
0.000220757
0.000225452
0.00022993
0.000234118
0.000237996
0.000241579
0.00024488
0.000247915
0.000250697
0.000253239
0.000255552
0.000257648
0.000259533
0.000261216
0.000262702
0.00026399
0.00026508
0.000265964
0.000266626
0.000267054
0.000267268
0.000267382
0.000267392
0.000267306
0.000267128
0.000266863
0.000266512
0.000266079
0.000265565
0.000264971
0.0002643
0.000263552
0.000262728
0.00026183
0.000260857
0.000259812
0.000258694
0.000257505
0.000256243
0.000254911
0.000253509
0.000252035
0.000250492
0.000248879
0.000247195
0.000245442
0.000243618
0.000241723
0.000239758
0.000237722
0.000235615
0.000233435
0.000231183
0.000228857
0.000226456
0.000223979
0.000221423
0.000218787
0.000216068
0.000213264
0.000210374
0.000207394
0.00020432
0.000201151
0.000197882
0.000194508
0.000191024
0.000187426
0.000183706
0.000179858
0.000175872
0.00017174
0.000167449
0.000162988
0.000158342
0.000153499
0.000148449
0.000143206
0.000137845
0.0001326
0.000127998
0.00012481
0.000123332
0.000122802
0.0001225
0.000122223
0.000121942
0.000121651
0.000121349
0.000121034
0.000120704
0.000120356
0.000119987
0.000119598
0.000119218
0.000119006
0.000118794
0.000310606
0.000308271
0.000306182
0.000305054
0.000305899
0.000309266
0.00031371
0.000318137
0.000322496
0.000326799
0.000331056
0.000335279
0.000339478
0.000343661
0.00034784
0.000352025
0.000356227
0.00036046
0.000364736
0.000369069
0.000373455
0.000377877
0.000382346
0.000386839
0.00039125
0.000395592
0.000399867
0.00040408
0.000408233
0.000412328
0.000416367
0.000420351
0.000424281
0.000428159
0.000431985
0.000435759
0.000439483
0.000443156
0.000446779
0.000450352
0.000453876
0.00045735
0.000460775
0.000464151
0.000467477
0.000470755
0.000473983
0.000477163
0.000480294
0.000483375
0.000486409
0.000489394
0.00049233
0.00049522
0.000498062
0.000500859
0.000503613
0.000506327
0.000509002
0.00051163
0.000514207
0.000516734
0.00051921
0.000521635
0.00052401
0.000526336
0.000528612
0.000530838
0.000533017
0.000535147
0.00053723
0.000539267
0.000541258
0.000543205
0.00054511
0.000546972
0.000548793
0.000550573
0.000552312
0.000554005
0.000555643
0.000557209
0.000558674
0.000560004
0.000561169
0.000562177
0.00056307
0.000563889
0.000564649
0.000565354
0.000566001
0.000566589
0.000567114
0.000567573
0.000567962
0.000568275
0.000568505
0.000568641
0.000568679
0.00056864
0.000543066
0.00055662
0.000570102
0.000583504
0.000596779
0.000609855
0.000622662
0.000635182
0.000647429
0.000659415
0.000671155
0.00068266
0.000693942
0.000705012
0.000715878
0.000726549
0.000737031
0.000747327
0.000757438
0.000767367
0.000777128
0.000786754
0.000796249
0.000805614
0.000814843
0.000823938
0.000832899
0.000841728
0.000850428
0.000859001
0.000867448
0.000875772
0.000883973
0.000892054
0.000900016
0.000907859
0.000915585
0.000923193
0.000930685
0.000938062
0.000945323
0.000952468
0.000959499
0.000966415
0.000973216
0.000979902
0.000986474
0.000992931
0.000999273
0.0010055
0.00101161
0.00101761
0.00102349
0.00102925
0.0010349
0.00104044
0.00104585
0.00105116
0.00105634
0.00106141
0.00106636
0.00107119
0.0010759
0.0010805
0.00108498
0.00108934
0.00109358
0.0010977
0.0011017
0.00110559
0.00110935
0.001113
0.00111652
0.00111993
0.00112321
0.00112638
0.00112942
0.00113235
0.00113515
0.00113782
0.00114037
0.00114279
0.00114508
0.00114723
0.00114925
0.00115114
0.00115289
0.00115452
0.00115602
0.0011574
0.00115865
0.00115978
0.00116079
0.00116167
0.00116242
0.00116304
0.00116353
0.00116389
0.00116411
0.00116422
0.000894528
0.000915898
0.000936763
0.000957163
0.00097712
0.000996661
0.00101581
0.0010346
0.00105304
0.00107115
0.00108894
0.00110643
0.00112362
0.00114053
0.00115717
0.00117355
0.00118968
0.00120556
0.00122122
0.00123664
0.00125185
0.00126684
0.00128162
0.00129619
0.00131056
0.00132473
0.00133869
0.00135246
0.00136603
0.00137941
0.0013926
0.00140559
0.0014184
0.00143103
0.00144347
0.00145572
0.0014678
0.00147969
0.0014914
0.00150293
0.00151428
0.00152545
0.00153643
0.00154724
0.00155787
0.00156832
0.00157859
0.00158868
0.00159859
0.00160832
0.00161787
0.00162724
0.00163643
0.00164543
0.00165426
0.0016629
0.00167136
0.00167963
0.00168772
0.00169563
0.00170336
0.0017109
0.00171825
0.00172542
0.0017324
0.0017392
0.00174581
0.00175224
0.00175847
0.00176452
0.00177038
0.00177605
0.00178153
0.00178683
0.00179193
0.00179684
0.00180156
0.00180609
0.00181042
0.00181456
0.0018185
0.00182225
0.0018258
0.00182914
0.00183229
0.00183523
0.00183798
0.00184053
0.00184288
0.00184503
0.00184699
0.00184875
0.00185032
0.00185169
0.00185286
0.00185384
0.00185461
0.00185519
0.00185558
0.00185576
0.00130181
0.00133002
0.00135769
0.00138489
0.00141162
0.00143792
0.00146379
0.00148924
0.0015143
0.00153896
0.00156324
0.00158715
0.00161071
0.00163391
0.00165677
0.0016793
0.00170151
0.0017234
0.00174498
0.00176626
0.00178724
0.00180794
0.00182835
0.00184848
0.00186834
0.00188793
0.00190725
0.0019263
0.00194508
0.00196361
0.00198188
0.00199988
0.00201763
0.00203513
0.00205237
0.00206936
0.0020861
0.00210259
0.00211883
0.00213482
0.00215055
0.00216604
0.00218128
0.00219627
0.00221101
0.0022255
0.00223974
0.00225374
0.00226748
0.00228097
0.00229421
0.0023072
0.00231993
0.00233242
0.00234465
0.00235663
0.00236835
0.00237982
0.00239104
0.00240199
0.0024127
0.00242314
0.00243333
0.00244326
0.00245293
0.00246235
0.0024715
0.00248039
0.00248902
0.00249739
0.0025055
0.00251334
0.00252092
0.00252824
0.00253529
0.00254207
0.00254859
0.00255484
0.00256083
0.00256654
0.00257198
0.00257715
0.00258205
0.00258667
0.00259103
0.0025951
0.00259891
0.00260244
0.0026057
0.00260869
0.0026114
0.00261384
0.00261601
0.00261791
0.00261953
0.00262089
0.00262197
0.00262278
0.00262331
0.00262358
0.00175787
0.0017932
0.00182796
0.00186221
0.00189595
0.00192921
0.001962
0.00199433
0.0020262
0.00205762
0.0020886
0.00211914
0.00214927
0.00217897
0.00220828
0.00223718
0.0022657
0.00229383
0.00232158
0.00234897
0.00237598
0.00240265
0.00242895
0.00245491
0.00248052
0.00250579
0.00253072
0.00255531
0.00257957
0.0026035
0.00262709
0.00265036
0.00267329
0.0026959
0.00271819
0.00274015
0.00276179
0.0027831
0.00280409
0.00282476
0.0028451
0.00286513
0.00288483
0.00290421
0.00292327
0.002942
0.00296041
0.0029785
0.00299626
0.0030137
0.00303081
0.0030476
0.00306406
0.00308019
0.003096
0.00311147
0.00312662
0.00314144
0.00315593
0.00317008
0.00318391
0.0031974
0.00321056
0.00322338
0.00323587
0.00324802
0.00325983
0.00327131
0.00328244
0.00329324
0.0033037
0.00331382
0.00332359
0.00333303
0.00334211
0.00335086
0.00335926
0.00336731
0.00337502
0.00338238
0.00338939
0.00339605
0.00340236
0.00340831
0.00341392
0.00341918
0.00342408
0.00342864
0.00343284
0.00343669
0.00344018
0.00344333
0.00344613
0.00344857
0.00345066
0.0034524
0.00345379
0.00345483
0.00345553
0.00345587
0.00226036
0.00230294
0.00234491
0.00238631
0.00242716
0.00246749
0.00250729
0.00254658
0.00258536
0.00262364
0.00266143
0.00269873
0.00273555
0.0027719
0.00280779
0.00284322
0.00287819
0.00291272
0.00294681
0.00298046
0.00301368
0.00304647
0.00307884
0.00311079
0.00314233
0.00317345
0.00320416
0.00323447
0.00326437
0.00329386
0.00332295
0.00335164
0.00337993
0.00340782
0.00343531
0.0034624
0.00348909
0.00351539
0.00354129
0.00356679
0.0035919
0.00361661
0.00364092
0.00366484
0.00368835
0.00371147
0.00373419
0.00375651
0.00377843
0.00379994
0.00382106
0.00384177
0.00386208
0.00388199
0.00390149
0.00392058
0.00393927
0.00395755
0.00397541
0.00399287
0.00400992
0.00402656
0.00404279
0.0040586
0.00407399
0.00408897
0.00410353
0.00411768
0.00413141
0.00414471
0.0041576
0.00417007
0.00418211
0.00419373
0.00420492
0.00421569
0.00422604
0.00423595
0.00424544
0.0042545
0.00426313
0.00427133
0.0042791
0.00428643
0.00429334
0.00429981
0.00430585
0.00431145
0.00431663
0.00432136
0.00432567
0.00432954
0.00433298
0.00433599
0.00433856
0.0043407
0.00434241
0.00434369
0.00434454
0.00434496
0.00280676
0.00285663
0.00290584
0.00295444
0.00300245
0.0030499
0.00309678
0.0031431
0.00318888
0.0032341
0.00327879
0.00332294
0.00336656
0.00340965
0.00345222
0.00349428
0.00353582
0.00357686
0.00361739
0.00365742
0.00369696
0.003736
0.00377455
0.00381262
0.0038502
0.00388729
0.00392391
0.00396005
0.00399571
0.00403089
0.0040656
0.00409984
0.0041336
0.00416689
0.0041997
0.00423204
0.00426391
0.00429531
0.00432624
0.00435669
0.00438667
0.00441618
0.00444522
0.00447377
0.00450186
0.00452947
0.0045566
0.00458325
0.00460943
0.00463512
0.00466034
0.00468508
0.00470933
0.0047331
0.00475638
0.00477918
0.00480149
0.00482332
0.00484465
0.00486549
0.00488585
0.00490571
0.00492507
0.00494395
0.00496232
0.0049802
0.00499758
0.00501446
0.00503084
0.00504672
0.00506209
0.00507696
0.00509133
0.00510519
0.00511854
0.00513139
0.00514373
0.00515555
0.00516687
0.00517767
0.00518796
0.00519774
0.005207
0.00521575
0.00522398
0.0052317
0.0052389
0.00524558
0.00525175
0.0052574
0.00526253
0.00526715
0.00527125
0.00527483
0.0052779
0.00528045
0.00528249
0.00528401
0.00528502
0.00528551
0.00339504
0.00345227
0.00350879
0.00356466
0.00361991
0.00367454
0.00372856
0.00378199
0.00383482
0.00388707
0.00393872
0.00398979
0.00404028
0.00409018
0.00413952
0.00418827
0.00423646
0.00428408
0.00433114
0.00437763
0.00442356
0.00446894
0.00451376
0.00455802
0.00460173
0.00464489
0.0046875
0.00472956
0.00477107
0.00481203
0.00485245
0.00489232
0.00493164
0.00497041
0.00500864
0.00504632
0.00508345
0.00512003
0.00515607
0.00519156
0.0052265
0.00526088
0.00529472
0.005328
0.00536073
0.00539291
0.00542453
0.00545559
0.0054861
0.00551605
0.00554544
0.00557426
0.00560253
0.00563023
0.00565736
0.00568393
0.00570993
0.00573536
0.00576022
0.00578451
0.00580823
0.00583137
0.00585393
0.00587592
0.00589733
0.00591815
0.0059384
0.00595806
0.00597714
0.00599564
0.00601354
0.00603086
0.00604759
0.00606374
0.00607929
0.00609424
0.00610861
0.00612238
0.00613555
0.00614813
0.00616011
0.00617149
0.00618228
0.00619246
0.00620205
0.00621103
0.00621941
0.00622719
0.00623437
0.00624095
0.00624693
0.0062523
0.00625708
0.00626125
0.00626482
0.00626778
0.00627015
0.00627192
0.0062731
0.00627367
0.00402394
0.00408861
0.00415251
0.00421572
0.00427825
0.00434013
0.00440136
0.00446195
0.00452189
0.0045812
0.00463987
0.00469791
0.00475532
0.00481209
0.00486823
0.00492375
0.00497863
0.00503289
0.00508653
0.00513954
0.00519192
0.00524368
0.00529482
0.00534534
0.00539524
0.00544452
0.00549318
0.00554122
0.00558865
0.00563545
0.00568163
0.00572719
0.00577213
0.00581645
0.00586015
0.00590323
0.00594568
0.00598751
0.00602871
0.00606929
0.00610924
0.00614857
0.00618726
0.00622532
0.00626276
0.00629955
0.00633572
0.00637125
0.00640614
0.00644039
0.006474
0.00650696
0.00653929
0.00657097
0.006602
0.00663238
0.00666212
0.0066912
0.00671963
0.0067474
0.00677452
0.00680098
0.00682678
0.00685192
0.00687639
0.00690021
0.00692335
0.00694583
0.00696765
0.00698879
0.00700926
0.00702906
0.00704818
0.00706663
0.00708441
0.0071015
0.00711792
0.00713366
0.00714871
0.00716309
0.00717678
0.00718979
0.00720212
0.00721376
0.00722471
0.00723498
0.00724456
0.00725345
0.00726165
0.00726917
0.007276
0.00728214
0.0072876
0.00729236
0.00729644
0.00729984
0.00730254
0.00730457
0.0073059
0.00730656
0.00469254
0.00476471
0.00483607
0.00490667
0.00497655
0.00504572
0.0051142
0.00518199
0.0052491
0.00531551
0.00538124
0.00544629
0.00551065
0.00557433
0.00563732
0.00569962
0.00576124
0.00582218
0.00588242
0.00594199
0.00600086
0.00605905
0.00611655
0.00617337
0.00622949
0.00628493
0.00633968
0.00639374
0.00644711
0.00649979
0.00655178
0.00660307
0.00665367
0.00670358
0.00675279
0.0068013
0.00684911
0.00689622
0.00694263
0.00698834
0.00703335
0.00707764
0.00712123
0.00716411
0.00720628
0.00724774
0.00728848
0.0073285
0.00736781
0.00740639
0.00744426
0.0074814
0.00751782
0.0075535
0.00758846
0.00762269
0.00765619
0.00768895
0.00772097
0.00775226
0.00778281
0.00781261
0.00784167
0.00786999
0.00789756
0.00792438
0.00795045
0.00797577
0.00800034
0.00802415
0.0080472
0.0080695
0.00809104
0.00811182
0.00813183
0.00815108
0.00816957
0.00818729
0.00820425
0.00822044
0.00823585
0.0082505
0.00826438
0.00827749
0.00828982
0.00830138
0.00831217
0.00832218
0.00833142
0.00833989
0.00834758
0.00835449
0.00836063
0.008366
0.00837059
0.00837441
0.00837746
0.00837974
0.00838125
0.00838199
0.00540015
0.00547989
0.00555876
0.00563681
0.00571409
0.00579061
0.00586638
0.00594141
0.0060157
0.00608926
0.00616208
0.00623416
0.00630551
0.00637611
0.00644598
0.0065151
0.00658348
0.00665111
0.00671799
0.00678413
0.00684952
0.00691416
0.00697804
0.00704117
0.00710355
0.00716517
0.00722603
0.00728614
0.00734548
0.00740406
0.00746187
0.00751892
0.0075752
0.00763072
0.00768546
0.00773943
0.00779262
0.00784504
0.00789668
0.00794754
0.00799762
0.00804691
0.00809541
0.00814313
0.00819006
0.00823619
0.00828153
0.00832607
0.00836981
0.00841275
0.00845489
0.00849622
0.00853675
0.00857647
0.00861537
0.00865346
0.00869073
0.00872719
0.00876283
0.00879764
0.00883163
0.0088648
0.00889714
0.00892864
0.00895932
0.00898916
0.00901817
0.00904634
0.00907367
0.00910017
0.00912582
0.00915062
0.00917458
0.0091977
0.00921997
0.00924138
0.00926195
0.00928167
0.00930053
0.00931853
0.00933569
0.00935198
0.00936742
0.009382
0.00939572
0.00940858
0.00942058
0.00943172
0.009442
0.00945142
0.00945997
0.00946767
0.0094745
0.00948047
0.00948558
0.00948983
0.00949322
0.00949576
0.00949743
0.00949826
0.00614625
0.00623362
0.00632006
0.00640561
0.00649033
0.00657423
0.00665733
0.00673963
0.00682115
0.00690188
0.00698181
0.00706095
0.0071393
0.00721686
0.00729361
0.00736957
0.00744472
0.00751906
0.0075926
0.00766532
0.00773724
0.00780834
0.00787862
0.00794808
0.00801671
0.00808453
0.00815151
0.00821767
0.00828299
0.00834748
0.00841114
0.00847395
0.00853593
0.00859706
0.00865734
0.00871678
0.00877536
0.00883309
0.00888997
0.00894599
0.00900115
0.00905544
0.00910887
0.00916144
0.00921313
0.00926395
0.00931389
0.00936296
0.00941114
0.00945845
0.00950487
0.0095504
0.00959504
0.00963879
0.00968164
0.0097236
0.00976466
0.00980482
0.00984407
0.00988242
0.00991986
0.00995639
0.00999201
0.0100267
0.0100605
0.0100934
0.0101253
0.0101564
0.0101865
0.0102156
0.0102439
0.0102712
0.0102976
0.010323
0.0103476
0.0103712
0.0103938
0.0104155
0.0104363
0.0104561
0.010475
0.0104929
0.0105099
0.010526
0.0105411
0.0105553
0.0105685
0.0105808
0.0105921
0.0106025
0.0106119
0.0106203
0.0106279
0.0106345
0.0106401
0.0106448
0.0106485
0.0106513
0.0106531
0.010654
0.00693042
0.00702549
0.00711954
0.00721265
0.00730485
0.00739617
0.00748664
0.00757625
0.00766501
0.00775293
0.00784
0.00792622
0.00801159
0.0080961
0.00817976
0.00826256
0.00834449
0.00842556
0.00850575
0.00858507
0.00866351
0.00874108
0.00881775
0.00889355
0.00896845
0.00904245
0.00911556
0.00918777
0.00925908
0.00932948
0.00939898
0.00946756
0.00953522
0.00960197
0.0096678
0.0097327
0.00979667
0.00985972
0.00992183
0.00998301
0.0100432
0.0101025
0.0101609
0.0102183
0.0102748
0.0103303
0.0103848
0.0104384
0.010491
0.0105427
0.0105934
0.0106431
0.0106919
0.0107397
0.0107865
0.0108323
0.0108771
0.010921
0.0109638
0.0110057
0.0110466
0.0110865
0.0111254
0.0111633
0.0112002
0.0112361
0.011271
0.0113049
0.0113377
0.0113696
0.0114004
0.0114303
0.0114591
0.0114869
0.0115137
0.0115394
0.0115641
0.0115878
0.0116105
0.0116322
0.0116528
0.0116724
0.011691
0.0117085
0.011725
0.0117404
0.0117549
0.0117683
0.0117806
0.011792
0.0118022
0.0118115
0.0118197
0.0118269
0.011833
0.0118382
0.0118422
0.0118453
0.0118473
0.0118483
0.00775237
0.00785519
0.00795691
0.00805761
0.00815733
0.00825612
0.00835397
0.00845092
0.00854695
0.00864208
0.0087363
0.00882961
0.00892201
0.0090135
0.00910407
0.00919371
0.00928243
0.00937022
0.00945707
0.00954299
0.00962796
0.00971199
0.00979506
0.00987718
0.00995834
0.0100385
0.0101178
0.010196
0.0102733
0.0103496
0.0104249
0.0104993
0.0105726
0.010645
0.0107163
0.0107867
0.0108561
0.0109244
0.0109917
0.0110581
0.0111234
0.0111877
0.0112509
0.0113132
0.0113744
0.0114346
0.0114937
0.0115518
0.0116089
0.0116649
0.0117198
0.0117737
0.0118266
0.0118784
0.0119292
0.0119788
0.0120274
0.012075
0.0121215
0.0121669
0.0122112
0.0122544
0.0122966
0.0123377
0.0123777
0.0124166
0.0124544
0.0124911
0.0125268
0.0125613
0.0125947
0.0126271
0.0126583
0.0126884
0.0127175
0.0127454
0.0127722
0.0127979
0.0128224
0.0128459
0.0128683
0.0128895
0.0129096
0.0129286
0.0129465
0.0129633
0.0129789
0.0129934
0.0130068
0.0130191
0.0130303
0.0130403
0.0130492
0.013057
0.0130636
0.0130692
0.0130736
0.0130769
0.0130791
0.0130802
0.00861186
0.00872248
0.00883192
0.00894025
0.00904754
0.00915381
0.00925909
0.00936339
0.00946672
0.00956907
0.00967046
0.00977087
0.00987032
0.00996878
0.0100663
0.0101628
0.0102583
0.0103528
0.0104463
0.0105388
0.0106303
0.0107208
0.0108102
0.0108987
0.0109861
0.0110724
0.0111578
0.0112421
0.0113253
0.0114075
0.0114887
0.0115687
0.0116477
0.0117257
0.0118026
0.0118784
0.0119531
0.0120267
0.0120993
0.0121707
0.0122411
0.0123104
0.0123785
0.0124456
0.0125115
0.0125764
0.0126401
0.0127027
0.0127642
0.0128245
0.0128837
0.0129418
0.0129987
0.0130545
0.0131092
0.0131627
0.0132151
0.0132663
0.0133164
0.0133653
0.013413
0.0134596
0.013505
0.0135493
0.0135924
0.0136343
0.013675
0.0137146
0.013753
0.0137902
0.0138262
0.013861
0.0138946
0.0139271
0.0139583
0.0139884
0.0140173
0.0140449
0.0140714
0.0140967
0.0141208
0.0141436
0.0141653
0.0141858
0.014205
0.0142231
0.0142399
0.0142556
0.01427
0.0142832
0.0142952
0.014306
0.0143156
0.014324
0.0143312
0.0143372
0.0143419
0.0143455
0.0143479
0.014349
0.0095087
0.00962718
0.00974438
0.00986039
0.00997528
0.0100891
0.0102018
0.0103135
0.0104241
0.0105337
0.0106423
0.0107498
0.0108563
0.0109617
0.0110661
0.0111695
0.0112718
0.011373
0.0114731
0.0115722
0.0116702
0.0117672
0.011863
0.0119577
0.0120514
0.0121439
0.0122353
0.0123257
0.0124148
0.0125029
0.0125898
0.0126757
0.0127603
0.0128438
0.0129262
0.0130074
0.0130875
0.0131664
0.0132441
0.0133207
0.0133961
0.0134703
0.0135433
0.0136152
0.0136859
0.0137553
0.0138236
0.0138907
0.0139565
0.0140212
0.0140846
0.0141469
0.0142079
0.0142677
0.0143262
0.0143836
0.0144397
0.0144945
0.0145482
0.0146006
0.0146517
0.0147016
0.0147503
0.0147977
0.0148438
0.0148887
0.0149323
0.0149747
0.0150158
0.0150557
0.0150942
0.0151315
0.0151676
0.0152023
0.0152358
0.015268
0.0152989
0.0153286
0.0153569
0.015384
0.0154098
0.0154343
0.0154575
0.0154794
0.0155
0.0155193
0.0155374
0.0155541
0.0155696
0.0155838
0.0155966
0.0156082
0.0156185
0.0156275
0.0156351
0.0156415
0.0156467
0.0156505
0.015653
0.0156542
0.0104428
0.0105691
0.0106942
0.0108179
0.0109404
0.0110617
0.0111819
0.011301
0.011419
0.0115358
0.0116516
0.0117662
0.0118798
0.0119922
0.0121035
0.0122137
0.0123227
0.0124307
0.0125375
0.0126431
0.0127476
0.012851
0.0129532
0.0130542
0.0131541
0.0132527
0.0133502
0.0134465
0.0135417
0.0136356
0.0137283
0.0138198
0.0139101
0.0139991
0.014087
0.0141736
0.014259
0.0143431
0.014426
0.0145077
0.0145881
0.0146672
0.0147451
0.0148217
0.014897
0.0149711
0.0150439
0.0151154
0.0151856
0.0152546
0.0153222
0.0153886
0.0154536
0.0155174
0.0155798
0.0156409
0.0157008
0.0157592
0.0158164
0.0158723
0.0159268
0.01598
0.0160319
0.0160824
0.0161316
0.0161794
0.0162259
0.0162711
0.0163149
0.0163574
0.0163985
0.0164383
0.0164767
0.0165137
0.0165494
0.0165837
0.0166167
0.0166482
0.0166785
0.0167073
0.0167348
0.0167609
0.0167856
0.016809
0.016831
0.0168516
0.0168708
0.0168887
0.0169051
0.0169202
0.016934
0.0169463
0.0169572
0.0169668
0.016975
0.0169818
0.0169873
0.0169913
0.016994
0.0169953
0.0114139
0.0115483
0.0116811
0.0118126
0.0119428
0.0120717
0.0121994
0.0123259
0.0124512
0.0125753
0.0126983
0.01282
0.0129406
0.01306
0.0131782
0.0132952
0.0134111
0.0135257
0.0136391
0.0137513
0.0138623
0.0139721
0.0140806
0.0141879
0.014294
0.0143988
0.0145023
0.0146046
0.0147056
0.0148053
0.0149038
0.0150009
0.0150968
0.0151914
0.0152847
0.0153767
0.0154673
0.0155567
0.0156447
0.0157314
0.0158168
0.0159008
0.0159835
0.0160648
0.0161448
0.0162235
0.0163008
0.0163767
0.0164513
0.0165244
0.0165963
0.0166667
0.0167357
0.0168034
0.0168697
0.0169346
0.0169981
0.0170602
0.0171208
0.0171801
0.017238
0.0172945
0.0173495
0.0174031
0.0174554
0.0175061
0.0175555
0.0176034
0.0176499
0.017695
0.0177386
0.0177808
0.0178216
0.0178609
0.0178987
0.0179352
0.0179701
0.0180036
0.0180357
0.0180663
0.0180955
0.0181232
0.0181494
0.0181742
0.0181975
0.0182194
0.0182398
0.0182588
0.0182762
0.0182923
0.0183068
0.0183199
0.0183315
0.0183417
0.0183504
0.0183576
0.0183634
0.0183677
0.0183706
0.018372
0.0124221
0.0125645
0.0127052
0.0128445
0.0129824
0.0131189
0.0132541
0.013388
0.0135207
0.013652
0.0137822
0.0139111
0.0140387
0.0141651
0.0142902
0.014414
0.0145366
0.0146579
0.014778
0.0148967
0.0150142
0.0151303
0.0152451
0.0153587
0.0154709
0.0155818
0.0156913
0.0157996
0.0159064
0.016012
0.0161161
0.0162189
0.0163204
0.0164205
0.0165191
0.0166164
0.0167124
0.0168069
0.0169
0.0169917
0.017082
0.0171709
0.0172584
0.0173444
0.017429
0.0175122
0.0175939
0.0176742
0.0177531
0.0178305
0.0179064
0.0179809
0.0180539
0.0181255
0.0181956
0.0182642
0.0183313
0.018397
0.0184612
0.0185238
0.018585
0.0186447
0.0187029
0.0187596
0.0188148
0.0188685
0.0189207
0.0189713
0.0190205
0.0190681
0.0191143
0.0191589
0.0192019
0.0192435
0.0192835
0.019322
0.019359
0.0193944
0.0194283
0.0194606
0.0194915
0.0195207
0.0195485
0.0195747
0.0195993
0.0196224
0.019644
0.019664
0.0196825
0.0196994
0.0197148
0.0197287
0.019741
0.0197517
0.0197609
0.0197686
0.0197747
0.0197792
0.0197822
0.0197837
0.0134673
0.0136177
0.0137664
0.0139135
0.014059
0.0142032
0.0143459
0.0144873
0.0146273
0.0147659
0.0149033
0.0150393
0.0151739
0.0153073
0.0154393
0.0155699
0.0156993
0.0158272
0.0159539
0.0160791
0.016203
0.0163255
0.0164466
0.0165664
0.0166847
0.0168017
0.0169172
0.0170314
0.0171441
0.0172554
0.0173652
0.0174736
0.0175806
0.0176861
0.0177901
0.0178927
0.0179939
0.0180935
0.0181917
0.0182884
0.0183836
0.0184773
0.0185695
0.0186602
0.0187494
0.018837
0.0189232
0.0190078
0.0190909
0.0191725
0.0192525
0.019331
0.019408
0.0194834
0.0195572
0.0196295
0.0197003
0.0197694
0.0198371
0.0199031
0.0199676
0.0200305
0.0200918
0.0201515
0.0202097
0.0202662
0.0203212
0.0203746
0.0204263
0.0204765
0.0205251
0.0205721
0.0206174
0.0206612
0.0207034
0.0207439
0.0207828
0.0208202
0.0208559
0.0208899
0.0209224
0.0209532
0.0209825
0.02101
0.021036
0.0210604
0.0210831
0.0211042
0.0211236
0.0211415
0.0211577
0.0211722
0.0211852
0.0211965
0.0212062
0.0212142
0.0212207
0.0212255
0.0212286
0.0212302
0.0145494
0.0147079
0.0148645
0.0150194
0.0151728
0.0153245
0.0154748
0.0156236
0.015771
0.0159169
0.0160614
0.0162045
0.0163462
0.0164865
0.0166254
0.0167628
0.0168989
0.0170335
0.0171667
0.0172984
0.0174287
0.0175576
0.017685
0.0178109
0.0179354
0.0180583
0.0181798
0.0182998
0.0184183
0.0185353
0.0186508
0.0187648
0.0188772
0.0189881
0.0190975
0.0192054
0.0193117
0.0194164
0.0195196
0.0196212
0.0197212
0.0198197
0.0199166
0.0200119
0.0201056
0.0201977
0.0202883
0.0203772
0.0204645
0.0205502
0.0206343
0.0207167
0.0207976
0.0208768
0.0209544
0.0210303
0.0211046
0.0211773
0.0212483
0.0213176
0.0213854
0.0214514
0.0215158
0.0215785
0.0216396
0.021699
0.0217567
0.0218127
0.0218671
0.0219198
0.0219708
0.0220201
0.0220678
0.0221137
0.022158
0.0222006
0.0222414
0.0222806
0.0223181
0.0223539
0.0223879
0.0224203
0.022451
0.02248
0.0225072
0.0225328
0.0225566
0.0225788
0.0225992
0.0226179
0.0226349
0.0226502
0.0226638
0.0226757
0.0226859
0.0226943
0.0227011
0.0227061
0.0227095
0.0227111
0.0156684
0.0158349
0.0159996
0.0161624
0.0163234
0.0164828
0.0166407
0.0167969
0.0169516
0.0171048
0.0172565
0.0174067
0.0175555
0.0177027
0.0178484
0.0179926
0.0181354
0.0182766
0.0184163
0.0185545
0.0186912
0.0188264
0.01896
0.019092
0.0192226
0.0193515
0.0194789
0.0196048
0.019729
0.0198517
0.0199728
0.0200923
0.0202101
0.0203264
0.0204411
0.0205541
0.0206655
0.0207753
0.0208834
0.0209899
0.0210948
0.021198
0.0212995
0.0213994
0.0214976
0.0215941
0.0216889
0.0217821
0.0218736
0.0219634
0.0220514
0.0221378
0.0222225
0.0223055
0.0223867
0.0224663
0.0225441
0.0226202
0.0226945
0.0227672
0.0228381
0.0229073
0.0229747
0.0230404
0.0231043
0.0231665
0.0232269
0.0232856
0.0233425
0.0233977
0.0234511
0.0235027
0.0235526
0.0236007
0.023647
0.0236916
0.0237344
0.0237754
0.0238146
0.0238521
0.0238878
0.0239216
0.0239538
0.0239841
0.0240126
0.0240394
0.0240643
0.0240875
0.0241089
0.0241285
0.0241463
0.0241623
0.0241765
0.024189
0.0241996
0.0242085
0.0242155
0.0242208
0.0242243
0.024226
0.0168241
0.0169989
0.0171715
0.0173422
0.017511
0.0176781
0.0178434
0.0180071
0.0181692
0.0183297
0.0184885
0.0186458
0.0188015
0.0189557
0.0191082
0.0192592
0.0194086
0.0195564
0.0197026
0.0198472
0.0199903
0.0201317
0.0202715
0.0204097
0.0205462
0.0206811
0.0208144
0.020946
0.021076
0.0212043
0.0213309
0.0214558
0.0215791
0.0217007
0.0218206
0.0219388
0.0220552
0.02217
0.0222831
0.0223944
0.022504
0.0226118
0.022718
0.0228223
0.022925
0.0230258
0.0231249
0.0232223
0.0233179
0.0234117
0.0235037
0.023594
0.0236824
0.0237691
0.023854
0.0239371
0.0240184
0.0240978
0.0241755
0.0242514
0.0243254
0.0243977
0.0244681
0.0245367
0.0246035
0.0246684
0.0247315
0.0247928
0.0248522
0.0249098
0.0249656
0.0250195
0.0250716
0.0251218
0.0251702
0.0252167
0.0252614
0.0253042
0.0253451
0.0253842
0.0254215
0.0254568
0.0254904
0.025522
0.0255518
0.0255797
0.0256058
0.02563
0.0256523
0.0256728
0.0256913
0.0257081
0.0257229
0.0257359
0.025747
0.0257563
0.0257636
0.0257691
0.0257728
0.0257746
0.0180167
0.0181996
0.0183802
0.0185588
0.0187354
0.0189101
0.019083
0.0192541
0.0194235
0.0195912
0.0197572
0.0199216
0.0200843
0.0202453
0.0204046
0.0205623
0.0207184
0.0208727
0.0210254
0.0211764
0.0213257
0.0214734
0.0216193
0.0217635
0.0219061
0.0220469
0.022186
0.0223233
0.0224589
0.0225928
0.0227249
0.0228553
0.0229839
0.0231107
0.0232358
0.0233591
0.0234806
0.0236002
0.0237181
0.0238342
0.0239485
0.024061
0.0241716
0.0242805
0.0243875
0.0244926
0.024596
0.0246974
0.0247971
0.0248948
0.0249908
0.0250848
0.025177
0.0252674
0.0253558
0.0254424
0.0255271
0.0256099
0.0256909
0.0257699
0.0258471
0.0259223
0.0259957
0.0260671
0.0261367
0.0262043
0.0262701
0.0263339
0.0263958
0.0264558
0.0265139
0.02657
0.0266243
0.0266766
0.0267269
0.0267754
0.0268219
0.0268665
0.0269091
0.0269499
0.0269886
0.0270255
0.0270604
0.0270933
0.0271244
0.0271534
0.0271806
0.0272058
0.027229
0.0272503
0.0272697
0.0272871
0.0273025
0.0273161
0.0273276
0.0273373
0.0273449
0.0273507
0.0273545
0.0273563
0.0192459
0.019437
0.0196256
0.0198121
0.0199964
0.0201788
0.0203592
0.0205378
0.0207145
0.0208894
0.0210626
0.0212339
0.0214035
0.0215714
0.0217375
0.0219019
0.0220645
0.0222254
0.0223845
0.0225418
0.0226974
0.0228512
0.0230032
0.0231535
0.0233019
0.0234486
0.0235934
0.0237365
0.0238777
0.0240171
0.0241546
0.0242903
0.0244242
0.0245562
0.0246864
0.0248147
0.0249412
0.0250657
0.0251884
0.0253092
0.0254281
0.0255451
0.0256603
0.0257735
0.0258848
0.0259942
0.0261016
0.0262072
0.0263108
0.0264125
0.0265123
0.0266101
0.026706
0.0267999
0.0268919
0.0269819
0.0270699
0.027156
0.0272402
0.0273223
0.0274025
0.0274808
0.027557
0.0276313
0.0277036
0.0277739
0.0278422
0.0279085
0.0279729
0.0280352
0.0280955
0.0281539
0.0282102
0.0282646
0.0283169
0.0283673
0.0284156
0.0284619
0.0285062
0.0285485
0.0285888
0.0286271
0.0286633
0.0286976
0.0287298
0.02876
0.0287882
0.0288144
0.0288385
0.0288607
0.0288808
0.0288988
0.0289149
0.028929
0.028941
0.028951
0.028959
0.0289649
0.0289689
0.0289708
0.0205118
0.020711
0.0209077
0.021102
0.0212941
0.0214841
0.021672
0.0218579
0.022042
0.0222241
0.0224043
0.0225826
0.0227592
0.0229338
0.0231067
0.0232777
0.0234468
0.0236141
0.0237796
0.0239432
0.024105
0.0242649
0.024423
0.0245792
0.0247335
0.0248859
0.0250365
0.0251851
0.0253319
0.0254767
0.0256197
0.0257607
0.0258997
0.0260369
0.0261721
0.0263054
0.0264367
0.0265661
0.0266935
0.0268189
0.0269424
0.0270639
0.0271834
0.027301
0.0274165
0.0275301
0.0276416
0.0277512
0.0278587
0.0279642
0.0280678
0.0281693
0.0282688
0.0283662
0.0284616
0.028555
0.0286464
0.0287357
0.028823
0.0289082
0.0289914
0.0290725
0.0291516
0.0292287
0.0293036
0.0293765
0.0294474
0.0295162
0.0295829
0.0296475
0.0297101
0.0297706
0.029829
0.0298854
0.0299396
0.0299918
0.0300419
0.0300899
0.0301359
0.0301797
0.0302215
0.0302612
0.0302987
0.0303342
0.0303676
0.030399
0.0304282
0.0304553
0.0304803
0.0305033
0.0305241
0.0305429
0.0305595
0.0305741
0.0305865
0.0305969
0.0306052
0.0306114
0.0306154
0.0306174
0.0218141
0.0220215
0.0222262
0.0224284
0.0226282
0.0228258
0.0230211
0.0232144
0.0234057
0.0235949
0.0237822
0.0239675
0.0241509
0.0243323
0.0245118
0.0246894
0.024865
0.0250387
0.0252105
0.0253804
0.0255483
0.0257143
0.0258783
0.0260404
0.0262005
0.0263586
0.0265148
0.026669
0.0268212
0.0269714
0.0271197
0.0272659
0.0274101
0.0275523
0.0276925
0.0278307
0.0279668
0.0281009
0.028233
0.028363
0.0284909
0.0286168
0.0287407
0.0288625
0.0289822
0.0290998
0.0292154
0.0293289
0.0294403
0.0295496
0.0296568
0.0297619
0.0298649
0.0299659
0.0300647
0.0301614
0.030256
0.0303484
0.0304388
0.030527
0.0306132
0.0306971
0.030779
0.0308587
0.0309363
0.0310118
0.0310851
0.0311563
0.0312253
0.0312922
0.031357
0.0314196
0.03148
0.0315383
0.0315945
0.0316484
0.0317003
0.03175
0.0317975
0.0318429
0.0318861
0.0319271
0.031966
0.0320027
0.0320373
0.0320696
0.0320999
0.0321279
0.0321538
0.0321775
0.0321991
0.0322185
0.0322357
0.0322508
0.0322637
0.0322744
0.032283
0.0322894
0.0322936
0.0322956
0.0231529
0.0233685