/*--------------------------------*- C++ -*----------------------------------*\
  =========                 |
  \\      /  F ield         | OpenFOAM: The Open Source CFD Toolbox
   \\    /   O peration     | Website:  https://openfoam.org
    \\  /    A nd           | Version:  8
     \\/     M anipulation  |
\*---------------------------------------------------------------------------*/
FoamFile
{
    version     2.0;
    format      ascii;
    class       surfaceScalarField;
    location    "0.1";
    object      phi;
}
// * * * * * * * * * * * * * * * * * * * * * * * * * * * * * * * * * * * * * //

dimensions      [0 3 -1 0 0 0 0];

internalField   nonuniform List<scalar> 
253240
(
-0.00452419
0.000187414
0.00433678
-0.00470081
0.000176621
-0.00486693
0.000166116
-0.00502253
0.000155602
-0.00516774
0.000145211
-0.00530272
0.000134981
-0.00542766
0.000124934
-0.00554275
0.000115093
-0.00564824
0.000105492
-0.0057444
9.61574e-05
-0.0058315
8.70979e-05
-0.00590981
7.83149e-05
-0.00597962
6.98044e-05
-0.00604117
6.15584e-05
-0.00609474
5.35697e-05
-0.00614058
4.58327e-05
-0.00617892
3.83467e-05
-0.00621004
3.11188e-05
-0.00623421
2.41644e-05
-0.00625171
1.75014e-05
-0.00626283
1.11265e-05
-0.00626788
5.05088e-06
-0.00626735
-5.37235e-07
-0.00626199
-5.35363e-06
-0.00625254
-9.45541e-06
-0.00623944
-1.30998e-05
-0.00622302
-1.64233e-05
-0.00620349
-1.95203e-05
-0.00618104
-2.24513e-05
-0.00615579
-2.52563e-05
-0.00612783
-2.79609e-05
-0.00609724
-3.05843e-05
-0.0060641
-3.31375e-05
-0.00602847
-3.56308e-05
-0.0059904
-3.80692e-05
-0.00594995
-4.0458e-05
-0.00590715
-4.28005e-05
-0.00586205
-4.50992e-05
-0.00581469
-4.73566e-05
-0.00576512
-4.95741e-05
-0.00571336
-5.1753e-05
-0.00565947
-5.38942e-05
-0.00560347
-5.59992e-05
-0.0055454
-5.80677e-05
-0.0054853
-6.0101e-05
-0.0054232
-6.20997e-05
-0.00535914
-6.40643e-05
-0.00529314
-6.59941e-05
-0.00522525
-6.78907e-05
-0.0051555
-6.97534e-05
-0.00508392
-7.15825e-05
-0.00501054
-7.33784e-05
-0.0049354
-7.5141e-05
-0.00485853
-7.68699e-05
-0.00477996
-7.85661e-05
-0.00469973
-8.02287e-05
-0.00461787
-8.18578e-05
-0.00453442
-8.34534e-05
-0.00444941
-8.50153e-05
-0.00436286
-8.65443e-05
-0.00427482
-8.8039e-05
-0.00418532
-8.95005e-05
-0.00409439
-9.09281e-05
-0.00400207
-9.2322e-05
-0.00390839
-9.3682e-05
-0.00381338
-9.50079e-05
-0.00371708
-9.63005e-05
-0.00361952
-9.75593e-05
-0.00352074
-9.87851e-05
-0.00342076
-9.99784e-05
-0.00331962
-0.000101141
-0.00321735
-0.000102273
-0.00311397
-0.000103377
-0.00300951
-0.000104457
-0.00290399
-0.000105517
-0.00279743
-0.000106563
-0.00268983
-0.000107603
-0.00258118
-0.000108649
-0.00247147
-0.000109714
-0.00236065
-0.000110815
-0.00224869
-0.000111965
-0.00213553
-0.000113161
-0.00202117
-0.000114359
-0.00190572
-0.000115446
-0.00178946
-0.000116261
-0.00167273
-0.000116725
-0.00155577
-0.000116968
-0.00143857
-0.000117197
-0.00132108
-0.000117486
-0.00120326
-0.000117822
-0.00108508
-0.000118178
-0.000966553
-0.00011853
-0.000847693
-0.00011886
-0.000728545
-0.000119148
-0.000609177
-0.000119368
-0.000489695
-0.000119481
-0.000370273
-0.000119422
-0.000251182
-0.000119091
-0.000132868
-0.000118315
-0.000116665
-1.62022e-05
-0.00664375
0.000255549
0.00657561
-0.00669986
0.000232737
-0.00674506
0.00021131
-0.00678059
0.000191139
-0.00680761
0.000172233
-0.00682718
0.000154545
-0.00684025
0.000138009
-0.0068477
0.000122542
-0.00685029
0.000108077
-0.00684868
9.45458e-05
-0.00684346
8.18832e-05
-0.00683517
7.00257e-05
-0.00682428
5.89128e-05
-0.00681121
4.8487e-05
-0.00679634
3.86957e-05
-0.00677999
2.94895e-05
-0.00676247
2.0823e-05
-0.00674401
1.26558e-05
-0.00672479
4.95161e-06
-0.00670498
-2.31536e-06
-0.00668471
-9.13472e-06
-0.00666416
-1.55086e-05
-0.00664319
-2.15037e-05
-0.00662122
-2.73178e-05
-0.00659759
-3.30861e-05
-0.00657194
-3.87532e-05
-0.00654406
-4.43024e-05
-0.00651385
-4.97284e-05
-0.00648127
-5.50327e-05
-0.00644631
-6.02196e-05
-0.00640898
-6.52947e-05
-0.0063693
-7.02637e-05
-0.0063273
-7.51331e-05
-0.00628302
-7.99071e-05
-0.0062365
-8.4591e-05
-0.00618777
-8.91885e-05
-0.00613687
-9.37032e-05
-0.00608383
-9.81374e-05
-0.00602869
-0.000102495
-0.00597149
-0.000106777
-0.00591226
-0.000110985
-0.00585103
-0.000115121
-0.00578784
-0.000119187
-0.00572273
-0.000123183
-0.00565572
-0.000127111
-0.00558685
-0.00013097
-0.00551615
-0.000134762
-0.00544366
-0.000138488
-0.0053694
-0.000142147
-0.00529341
-0.000145741
-0.00521573
-0.000149269
-0.00513637
-0.000152731
-0.00505539
-0.000156129
-0.0049728
-0.000159461
-0.00488863
-0.000162727
-0.00480293
-0.000165929
-0.00471573
-0.000169065
-0.00462704
-0.000172137
-0.00453692
-0.000175143
-0.00444537
-0.000178085
-0.00435245
-0.000180961
-0.00425818
-0.000183772
-0.00416259
-0.000186518
-0.00406571
-0.0001892
-0.00396758
-0.000191816
-0.00386822
-0.000194367
-0.00376767
-0.000196854
-0.00366595
-0.000199277
-0.0035631
-0.000201636
-0.00345914
-0.000203932
-0.00335412
-0.000206166
-0.00324805
-0.000208338
-0.00314098
-0.00021045
-0.00303293
-0.000212503
-0.00292395
-0.000214499
-0.00281408
-0.000216439
-0.00270336
-0.000218323
-0.00259185
-0.000220153
-0.00247964
-0.000221928
-0.00236681
-0.000223646
-0.00225347
-0.000225299
-0.00213976
-0.000226875
-0.00202576
-0.000228354
-0.0019115
-0.000229711
-0.00179683
-0.000230925
-0.00168156
-0.000231997
-0.00156557
-0.000232962
-0.00144891
-0.000233858
-0.00133169
-0.000234703
-0.00121402
-0.000235498
-0.00109595
-0.00023624
-0.00097756
-0.000236924
-0.000858876
-0.000237545
-0.000739927
-0.000238097
-0.000620721
-0.000238575
-0.000501232
-0.00023897
-0.000381382
-0.000239272
-0.000261007
-0.000239466
-0.000139794
-0.000239528
-0.000239466
-1.69929e-05
-0.00667807
0.000274095
0.00665952
-0.00669531
0.000249981
-0.00671148
0.000227483
-0.00672676
0.00020642
-0.00674121
0.000186678
-0.0067548
0.00016814
-0.00676749
0.000150696
-0.00677919
0.000134243
-0.00678981
0.000118692
-0.00679922
0.000103961
-0.00680732
8.99793e-05
-0.00681397
7.66816e-05
-0.00681907
6.40101e-05
-0.0068225
5.1912e-05
-0.00682414
4.03396e-05
-0.0068239
2.92476e-05
-0.00682167
1.85951e-05
-0.00681735
8.3405e-06
-0.00681085
-1.55499e-06
-0.00680202
-1.11443e-05
-0.00679069
-2.04622e-05
-0.00677667
-2.9533e-05
-0.00675976
-3.84122e-05
-0.00673995
-4.71294e-05
-0.00671736
-5.56745e-05
-0.00669208
-6.40334e-05
-0.00666417
-7.22068e-05
-0.0066337
-8.02002e-05
-0.00660071
-8.80224e-05
-0.00656525
-9.56812e-05
-0.00652736
-0.000103186
-0.00648708
-0.000110544
-0.00644445
-0.000117764
-0.00639951
-0.000124851
-0.00635229
-0.00013181
-0.00630283
-0.000138647
-0.00625116
-0.000145366
-0.00619733
-0.00015197
-0.00614137
-0.000158461
-0.0060833
-0.000164844
-0.00602316
-0.000171119
-0.005961
-0.000177289
-0.00589683
-0.000183355
-0.00583069
-0.000189319
-0.00576262
-0.000195181
-0.00569265
-0.000200943
-0.00562081
-0.000206605
-0.00554712
-0.000212169
-0.00547164
-0.000217633
-0.00539438
-0.000223
-0.00531538
-0.000228269
-0.00523467
-0.00023344
-0.00515229
-0.000238513
-0.00506826
-0.000243489
-0.00498262
-0.000248368
-0.0048954
-0.000253148
-0.00480663
-0.000257831
-0.00471635
-0.000262416
-0.00462459
-0.000266904
-0.00453138
-0.000271294
-0.00443676
-0.000275586
-0.00434075
-0.000279779
-0.0042434
-0.000283875
-0.00414472
-0.000287871
-0.00404477
-0.000291769
-0.00394357
-0.000295568
-0.00384115
-0.000299269
-0.00373756
-0.000302871
-0.00363282
-0.000306374
-0.00352698
-0.000309779
-0.00342006
-0.000313086
-0.0033121
-0.000316294
-0.00320315
-0.000319404
-0.00309323
-0.000322418
-0.0029824
-0.000325334
-0.00287068
-0.000328153
-0.00275813
-0.000330874
-0.00264479
-0.000333498
-0.00253069
-0.000336022
-0.00241589
-0.000338444
-0.00230043
-0.000340759
-0.00218435
-0.00034296
-0.00206766
-0.000345039
-0.00195039
-0.000346985
-0.00183252
-0.000348791
-0.00171406
-0.000350459
-0.00159502
-0.000351998
-0.00147546
-0.000353419
-0.00135544
-0.000354731
-0.00123499
-0.000355939
-0.00111419
-0.000357043
-0.000993072
-0.000358043
-0.000871679
-0.000358938
-0.000750051
-0.000359725
-0.000628225
-0.000360401
-0.00050623
-0.000360964
-0.00038409
-0.000361412
-0.000261812
-0.000361744
-0.00013938
-0.00036196
-0.000362065
-1.67812e-05
-0.00676191
0.000301348
0.00673466
-0.00678906
0.000277121
-0.00681559
0.000254017
-0.00684118
0.000232008
-0.0068655
0.000211004
-0.00688829
0.000190928
-0.0069093
0.000171705
-0.00692833
0.000153272
-0.00694521
0.00013557
-0.0069598
0.000118548
-0.00697197
0.000102156
-0.00698164
8.63519e-05
-0.00698873
7.10947e-05
-0.00699316
5.63481e-05
-0.0069949
4.20778e-05
-0.00699391
2.8253e-05
-0.00699016
1.48451e-05
-0.00698364
1.82799e-06
-0.00697437
-1.08247e-05
-0.00696238
-2.31359e-05
-0.0069477
-3.5147e-05
-0.00693035
-4.68805e-05
-0.0069104
-5.83624e-05
-0.00688791
-6.96148e-05
-0.00686294
-8.06503e-05
-0.0068355
-9.14766e-05
-0.0068056
-0.0001021
-0.00677328
-0.000112528
-0.00673853
-0.000122765
-0.00670139
-0.00013282
-0.00666188
-0.000142696
-0.00662003
-0.000152401
-0.00657585
-0.000161939
-0.00652939
-0.000171316
-0.00648066
-0.000180535
-0.00642971
-0.000189602
-0.00637655
-0.00019852
-0.00632123
-0.000207292
-0.00626377
-0.00021592
-0.00620421
-0.000224407
-0.00614257
-0.000232756
-0.00607889
-0.000240968
-0.0060132
-0.000249045
-0.00594553
-0.000256988
-0.00587592
-0.000264798
-0.00580438
-0.000272476
-0.00573097
-0.000280022
-0.0056557
-0.000287439
-0.00557861
-0.000294725
-0.00549972
-0.000301881
-0.00541909
-0.000308907
-0.00533672
-0.000315804
-0.00525266
-0.000322572
-0.00516694
-0.00032921
-0.00507959
-0.000335718
-0.00499064
-0.000342096
-0.00490013
-0.000348345
-0.00480808
-0.000354463
-0.00471454
-0.000360451
-0.00461952
-0.000366308
-0.00452307
-0.000372034
-0.00442522
-0.000377629
-0.00432601
-0.000383092
-0.00422546
-0.000388423
-0.0041236
-0.000393622
-0.00402048
-0.000398687
-0.00391613
-0.00040362
-0.00381058
-0.00040842
-0.00370387
-0.000413086
-0.00359603
-0.000417618
-0.0034871
-0.000422016
-0.00337712
-0.000426279
-0.00326611
-0.000430408
-0.00315413
-0.000434401
-0.00304121
-0.000438259
-0.00292738
-0.00044198
-0.00281269
-0.000445563
-0.00269718
-0.000449008
-0.00258089
-0.000452311
-0.00246386
-0.000455472
-0.00234614
-0.000458487
-0.00222774
-0.000461354
-0.00210872
-0.000464067
-0.00198908
-0.000466624
-0.00186884
-0.000469023
-0.00174804
-0.000471264
-0.00162669
-0.000473351
-0.00150482
-0.000475285
-0.00138248
-0.000477071
-0.00125971
-0.00047871
-0.00113655
-0.000480203
-0.00101304
-0.000481551
-0.000889224
-0.000482754
-0.000765138
-0.00048381
-0.00064082
-0.00048472
-0.000516304
-0.00048548
-0.000391626
-0.000486091
-0.000266819
-0.000486551
-0.000141919
-0.00048686
-0.000487016
-1.69678e-05
-0.0069466
0.000331458
0.00691649
-0.00697581
0.000306331
-0.00700382
0.000282024
-0.00703031
0.000258504
-0.00705505
0.000235743
-0.00707784
0.000213711
-0.00709851
0.000192374
-0.00711693
0.000171698
-0.00713301
0.000151651
-0.00714667
0.000132201
-0.00715783
0.000113316
-0.00716644
9.49655e-05
-0.00717247
7.71213e-05
-0.00717587
5.97549e-05
-0.00717663
4.28386e-05
-0.00717473
2.6346e-05
-0.00717013
1.02507e-05
-0.00716283
-5.47144e-06
-0.00715281
-2.08471e-05
-0.00714006
-3.58866e-05
-0.0071246
-5.06095e-05
-0.00710644
-6.50352e-05
-0.00708562
-7.91816e-05
-0.00706217
-9.30637e-05
-0.00703613
-0.000106693
-0.00700753
-0.000120079
-0.0069764
-0.00013323
-0.00694277
-0.000146153
-0.00690668
-0.000158857
-0.00686816
-0.000171347
-0.00682722
-0.00018363
-0.00678391
-0.000195711
-0.00673825
-0.000207597
-0.00669028
-0.000219292
-0.00664001
-0.0002308
-0.00658749
-0.000242124
-0.00653274
-0.00025327
-0.00647579
-0.000264239
-0.00641668
-0.000275034
-0.00635543
-0.000285658
-0.00629207
-0.000296112
-0.00622664
-0.000306399
-0.00615917
-0.000316519
-0.00608968
-0.000326474
-0.00601821
-0.000336266
-0.0059448
-0.000345894
-0.00586946
-0.000355359
-0.00579223
-0.000364663
-0.00571315
-0.000373804
-0.00563225
-0.000382784
-0.00554956
-0.000391602
-0.0054651
-0.000400258
-0.00537892
-0.000408753
-0.00529105
-0.000417086
-0.00520151
-0.000425256
-0.00511034
-0.000433264
-0.00501758
-0.000441109
-0.00492325
-0.000448791
-0.00482739
-0.000456309
-0.00473004
-0.000463662
-0.00463122
-0.000470851
-0.00453098
-0.000477874
-0.00442934
-0.000484732
-0.00432634
-0.000491423
-0.00422201
-0.000497947
-0.00411639
-0.000504303
-0.00400952
-0.000510491
-0.00390143
-0.000516511
-0.00379216
-0.000522361
-0.00368173
-0.000528041
-0.0035702
-0.00053355
-0.00345759
-0.000538889
-0.00334394
-0.000544055
-0.0032293
-0.000549049
-0.00311369
-0.000553869
-0.00299715
-0.000558514
-0.00287973
-0.000562984
-0.00276146
-0.000567276
-0.00264238
-0.000571391
-0.00252253
-0.000575325
-0.00240194
-0.000579077
-0.00228065
-0.000582644
-0.00215869
-0.000586025
-0.0020361
-0.000589219
-0.0019129
-0.000592223
-0.00178913
-0.000595037
-0.00166481
-0.000597663
-0.00154
-0.000600101
-0.00141472
-0.000602351
-0.00128901
-0.000604416
-0.00116292
-0.000606295
-0.00103648
-0.000607989
-0.000909739
-0.000609497
-0.000782729
-0.00061082
-0.000655493
-0.000611956
-0.000528067
-0.000612906
-0.00040049
-0.000613668
-0.0002728
-0.000614241
-0.000145033
-0.000614627
-0.000614823
-1.72264e-05
-0.00719529
0.000361095
0.00716565
-0.00722342
0.000334462
-0.00724983
0.000308432
-0.00727436
0.000283035
-0.00729688
0.000258262
-0.00731727
0.0002341
-0.00733542
0.00021053
-0.00735126
0.000187535
-0.0073647
0.000165094
-0.00737569
0.000143186
-0.00738417
0.000121791
-0.00739009
0.000100888
-0.00739342
8.04567e-05
-0.00739414
6.04765e-05
-0.00739223
4.09284e-05
-0.00738768
2.17942e-05
-0.00738049
3.05592e-06
-0.00737066
-1.53037e-05
-0.0073582
-3.33021e-05
-0.00734313
-5.09599e-05
-0.00732544
-6.82929e-05
-0.00730516
-8.53165e-05
-0.0072823
-0.000102043
-0.00725688
-0.000118485
-0.00722892
-0.000134654
-0.00719844
-0.000150557
-0.00716546
-0.000166205
-0.00713001
-0.000181603
-0.00709211
-0.000196759
-0.00705178
-0.000211678
-0.00700905
-0.000226365
-0.00696393
-0.000240828
-0.00691646
-0.000255068
-0.00686666
-0.000269092
-0.00681456
-0.000282901
-0.00676018
-0.0002965
-0.00670356
-0.000309893
-0.00664472
-0.00032308
-0.00658369
-0.000336064
-0.0065205
-0.000348849
-0.00645517
-0.000361434
-0.00638775
-0.000373823
-0.00631826
-0.000386014
-0.00624672
-0.000398011
-0.00617317
-0.000409813
-0.00609765
-0.00042142
-0.00602017
-0.000432835
-0.00594078
-0.000444056
-0.0058595
-0.000455083
-0.00577637
-0.000465917
-0.00569141
-0.000476558
-0.00560466
-0.000487005
-0.00551616
-0.000497257
-0.00542593
-0.000507316
-0.00533401
-0.000517179
-0.00524042
-0.000526847
-0.00514521
-0.000536319
-0.00504841
-0.000545594
-0.00495005
-0.000554671
-0.00485016
-0.000563551
-0.00474878
-0.000572231
-0.00464594
-0.000580711
-0.00454168
-0.000588992
-0.00443603
-0.000597071
-0.00432903
-0.000604947
-0.00422071
-0.000612621
-0.00411111
-0.000620091
-0.00400027
-0.000627356
-0.00388822
-0.000634416
-0.00377499
-0.000641269
-0.00366062
-0.000647914
-0.00354516
-0.000654352
-0.00342864
-0.00066058
-0.00331109
-0.000666598
-0.00319255
-0.000672405
-0.00307307
-0.000677999
-0.00295267
-0.000683379
-0.0028314
-0.000688545
-0.0027093
-0.000693494
-0.0025864
-0.000698225
-0.00246274
-0.000702737
-0.00233835
-0.000707028
-0.00221328
-0.000711097
-0.00208756
-0.000714943
-0.00196122
-0.000718565
-0.00183429
-0.000721962
-0.00170682
-0.000725134
-0.00157884
-0.000728081
-0.00145039
-0.000730803
-0.00132151
-0.0007333
-0.00119223
-0.000735573
-0.0010626
-0.000737621
-0.00093265
-0.000739443
-0.00080243
-0.00074104
-0.000671974
-0.000742412
-0.000541322
-0.000743557
-0.000410513
-0.000744476
-0.000279587
-0.000745168
-0.000148581
-0.000745632
-0.000745869
-1.75354e-05
-0.00746673
0.000388201
0.00743963
-0.00749215
0.000359875
-0.00751577
0.000332057
-0.00753749
0.000304755
-0.0075572
0.000277973
-0.00757481
0.000251707
-0.00759023
0.000225952
-0.0076034
0.000200697
-0.00761423
0.000175933
-0.0076227
0.000151647
-0.00762873
0.000127826
-0.0076323
0.000104456
-0.00763336
8.15227e-05
-0.0076319
5.90127e-05
-0.00762788
3.69107e-05
-0.00762129
1.52026e-05
-0.00761211
-6.12596e-06
-0.00760032
-2.70895e-05
-0.00758593
-4.7699e-05
-0.00756892
-6.79654e-05
-0.00754931
-8.79012e-05
-0.00752711
-0.000107517
-0.00750233
-0.000126824
-0.00747498
-0.000145831
-0.00744509
-0.000164548
-0.00741267
-0.000182981
-0.00737773
-0.000201138
-0.00734031
-0.000219026
-0.00730042
-0.000236649
-0.00725808
-0.000254014
-0.00721332
-0.000271125
-0.00716617
-0.000287986
-0.00711663
-0.000304602
-0.00706475
-0.000320976
-0.00701054
-0.00033711
-0.00695403
-0.000353008
-0.00689525
-0.000368672
-0.00683423
-0.000384104
-0.00677098
-0.000399306
-0.00670555
-0.000414279
-0.00663796
-0.000429025
-0.00656824
-0.000443545
-0.00649642
-0.000457839
-0.00642252
-0.000471907
-0.00634658
-0.000485752
-0.00626863
-0.000499371
-0.0061887
-0.000512767
-0.00610682
-0.000525938
-0.00602301
-0.000538885
-0.00593733
-0.000551607
-0.00584978
-0.000564102
-0.00576041
-0.000576373
-0.00566925
-0.000588416
-0.00557634
-0.000600233
-0.00548169
-0.000611822
-0.00538536
-0.000623181
-0.00528737
-0.000634311
-0.00518775
-0.000645211
-0.00508654
-0.000655879
-0.00498378
-0.000666315
-0.00487949
-0.000676516
-0.00477372
-0.000686484
-0.0046665
-0.000696215
-0.00455786
-0.00070571
-0.00444784
-0.000714968
-0.00433647
-0.000723986
-0.0042238
-0.000732764
-0.00410985
-0.000741301
-0.00399467
-0.000749596
-0.00387829
-0.000757647
-0.00376075
-0.000765454
-0.00364209
-0.000773015
-0.00352234
-0.00078033
-0.00340154
-0.000787395
-0.00327974
-0.000794212
-0.00315696
-0.000800778
-0.00303324
-0.000807092
-0.00290863
-0.000813153
-0.00278317
-0.00081896
-0.00265688
-0.00082451
-0.00252981
-0.000829804
-0.002402
-0.000834839
-0.00227349
-0.000839614
-0.0021443
-0.000844129
-0.00201449
-0.000848381
-0.00188407
-0.000852372
-0.00175311
-0.000856099
-0.00162163
-0.000859564
-0.00148967
-0.000862764
-0.00135727
-0.0008657
-0.00122447
-0.000868372
-0.00109131
-0.00087078
-0.000957828
-0.000872922
-0.00082407
-0.000874799
-0.000690072
-0.00087641
-0.000555874
-0.000877755
-0.000421517
-0.000878834
-0.000287039
-0.000879646
-0.000152481
-0.00088019
-0.000880468
-1.78826e-05
-0.00776173
0.000413226
0.00773671
-0.00778493
0.000383069
-0.0078062
0.000353326
-0.00782546
0.000324022
-0.00784265
0.000295162
-0.00785769
0.000266749
-0.00787052
0.00023878
-0.00788108
0.000211253
-0.00788931
0.000184162
-0.00789516
0.000157501
-0.0078986
0.000131263
-0.00789958
0.000105439
-0.00789808
8.00204e-05
-0.00789407
5.49986e-05
-0.00788752
3.03645e-05
-0.00787842
6.10833e-06
-0.00786677
-1.77784e-05
-0.00785256
-4.13058e-05
-0.00783577
-6.44836e-05
-0.00781642
-8.73207e-05
-0.00779449
-0.000109826
-0.00777
-0.000132007
-0.00774295
-0.000153872
-0.00771336
-0.000175428
-0.00768122
-0.000196682
-0.00764656
-0.000217639
-0.0076094
-0.000238305
-0.00756974
-0.000258685
-0.0075276
-0.000278783
-0.00748301
-0.000298604
-0.00743599
-0.000318151
-0.00738655
-0.000337427
-0.00733472
-0.000356436
-0.00728051
-0.00037518
-0.00722396
-0.00039366
-0.00716509
-0.000411881
-0.00710392
-0.000429842
-0.00704048
-0.000447545
-0.00697479
-0.000464992
-0.00690689
-0.000482183
-0.0068368
-0.000499119
-0.00676454
-0.0005158
-0.00669015
-0.000532228
-0.00661366
-0.000548401
-0.00653509
-0.000564321
-0.00645447
-0.000579986
-0.00637184
-0.000595396
-0.00628723
-0.000610551
-0.00620067
-0.00062545
-0.00611218
-0.000640093
-0.0060218
-0.000654479
-0.00592957
-0.000668607
-0.00583551
-0.000682475
-0.00573966
-0.000696084
-0.00564205
-0.000709432
-0.00554271
-0.000722516
-0.00544169
-0.000735338
-0.005339
-0.000747895
-0.0052347
-0.000760186
-0.0051288
-0.00077221
-0.00502135
-0.000783965
-0.00491238
-0.00079545
-0.00480194
-0.000806664
-0.00469004
-0.000817605
-0.00457674
-0.000828273
-0.00446206
-0.000838665
-0.00434604
-0.00084878
-0.00422872
-0.000858617
-0.00411015
-0.000868175
-0.00399034
-0.000877452
-0.00386935
-0.000886446
-0.00374721
-0.000895157
-0.00362396
-0.000903582
-0.00349963
-0.000911722
-0.00337427
-0.000919573
-0.00324791
-0.000927135
-0.0031206
-0.000934406
-0.00299237
-0.000941386
-0.00286325
-0.000948071
-0.0027333
-0.000954463
-0.00260255
-0.000960558
-0.00247103
-0.000966355
-0.00233879
-0.000971855
-0.00220586
-0.000977054
-0.00207229
-0.000981953
-0.00193811
-0.000986551
-0.00180337
-0.000990846
-0.00166809
-0.000994838
-0.00153233
-0.000998527
-0.00139612
-0.00100191
-0.0012595
-0.00100499
-0.00112251
-0.00100777
-0.000985198
-0.00101024
-0.000847598
-0.0010124
-0.000709752
-0.00101426
-0.000571702
-0.00101581
-0.000433487
-0.00101705
-0.000295149
-0.00101798
-0.000156729
-0.00101861
-0.00101893
-1.82658e-05
-0.00807686
0.000436119
0.00805397
-0.00809782
0.000404022
-0.00811678
0.000372284
-0.00813367
0.000340921
-0.00814845
0.000309941
-0.00816105
0.000279349
-0.00817142
0.000249149
-0.00817951
0.000219339
-0.00818527
0.00018992
-0.00818865
0.000160889
-0.00818963
0.000132243
-0.00818817
0.000103978
-0.00818424
7.60899e-05
-0.00817782
4.85734e-05
-0.00816887
2.14229e-05
-0.0081574
-5.36743e-06
-0.00814337
-3.18036e-05
-0.00812679
-5.78912e-05
-0.00810764
-8.36359e-05
-0.00808591
-0.000109043
-0.00806162
-0.000134119
-0.00803476
-0.000158868
-0.00800534
-0.000183296
-0.00797336
-0.000207408
-0.00793883
-0.000231208
-0.00790177
-0.0002547
-0.00786219
-0.000277888
-0.0078201
-0.000300776
-0.00777551
-0.000323366
-0.00772846
-0.000345661
-0.00767894
-0.000367665
-0.00762699
-0.000389379
-0.00757262
-0.000410804
-0.00751586
-0.000431943
-0.00745672
-0.000452797
-0.00739523
-0.000473367
-0.00733142
-0.000493654
-0.00726531
-0.000513658
-0.00719692
-0.000533381
-0.00712628
-0.000552821
-0.00705342
-0.00057198
-0.00697836
-0.000590857
-0.00690114
-0.000609451
-0.00682178
-0.000627763
-0.00674031
-0.000645792
-0.00665676
-0.000663537
-0.00657116
-0.000680997
-0.00648353
-0.000698172
-0.00639393
-0.00071506
-0.00630236
-0.00073166
-0.00620887
-0.000747971
-0.00611348
-0.000763991
-0.00601624
-0.00077972
-0.00591717
-0.000795156
-0.0058163
-0.000810297
-0.00571368
-0.000825143
-0.00560932
-0.00083969
-0.00550328
-0.000853939
-0.00539558
-0.000867886
-0.00528626
-0.000881532
-0.00517535
-0.000894873
-0.00506289
-0.000907908
-0.00494892
-0.000920637
-0.00483347
-0.000933056
-0.00471658
-0.000945164
-0.00459828
-0.00095696
-0.00447862
-0.000968442
-0.00435763
-0.000979609
-0.00423534
-0.000990458
-0.00411181
-0.00100099
-0.00398706
-0.0010112
-0.00386113
-0.00102108
-0.00373406
-0.00103065
-0.0036059
-0.00103989
-0.00347668
-0.0010488
-0.00334643
-0.00105738
-0.00321521
-0.00106563
-0.00308304
-0.00107355
-0.00294997
-0.00108114
-0.00281604
-0.00108839
-0.00268129
-0.00109531
-0.00254576
-0.00110189
-0.00240948
-0.00110813
-0.00227251
-0.00111403
-0.00213487
-0.00111959
-0.00199661
-0.00112481
-0.00185777
-0.00112969
-0.00171839
-0.00113422
-0.00157851
-0.00113841
-0.00143817
-0.00114225
-0.00129741
-0.00114575
-0.00115628
-0.0011489
-0.00101481
-0.0011517
-0.000873055
-0.00115416
-0.000731046
-0.00115627
-0.000588826
-0.00115803
-0.000446438
-0.00115944
-0.000303924
-0.0011605
-0.000161326
-0.00116121
-0.00116157
-1.8684e-05
-0.0084133
0.000457179
0.00839224
-0.00843232
0.000423039
-0.00844924
0.000389204
-0.00846401
0.000355695
-0.00847659
0.000322521
-0.00848693
0.000289689
-0.00849499
0.000257204
-0.00850072
0.000225068
-0.00850408
0.000193284
-0.00850505
0.000161853
-0.00850358
0.000130775
-0.00849965
0.00010005
-0.00849324
6.96754e-05
-0.00848431
3.96506e-05
-0.00847286
9.97333e-06
-0.00845887
-1.9359e-05
-0.00844233
-4.83492e-05
-0.00842322
-7.70002e-05
-0.00840154
-0.000105315
-0.00837728
-0.000133297
-0.00835045
-0.000160948
-0.00832105
-0.000188273
-0.00828907
-0.000215273
-0.00825453
-0.000241952
-0.00821742
-0.000268311
-0.00817777
-0.000294354
-0.00813558
-0.000320081
-0.00809086
-0.000345496
-0.00804362
-0.0003706
-0.00799389
-0.000395393
-0.00794168
-0.000419877
-0.007887
-0.000444054
-0.00782988
-0.000467924
-0.00777034
-0.000491487
-0.00770839
-0.000514743
-0.00764407
-0.000537694
-0.00757738
-0.000560339
-0.00750836
-0.000582677
-0.00743704
-0.000604708
-0.00736342
-0.000626433
-0.00728756
-0.000647849
-0.00720946
-0.000668957
-0.00712915
-0.000689755
-0.00704667
-0.000710242
-0.00696205
-0.000730418
-0.0068753
-0.00075028
-0.00678647
-0.000769828
-0.00669558
-0.00078906
-0.00660267
-0.000807973
-0.00650776
-0.000826568
-0.00641089
-0.000844842
-0.00631209
-0.000862793
-0.00621139
-0.00088042
-0.00610882
-0.000897721
-0.00600443
-0.000914693
-0.00589824
-0.000931335
-0.00579028
-0.000947645
-0.0056806
-0.000963621
-0.00556922
-0.000979262
-0.00545619
-0.000994564
-0.00534154
-0.00100953
-0.0052253
-0.00102415
-0.00510751
-0.00103842
-0.00498821
-0.00105235
-0.00486744
-0.00106594
-0.00474524
-0.00107917
-0.00462163
-0.00109205
-0.00449667
-0.00110457
-0.00437038
-0.00111675
-0.00424281
-0.00112856
-0.00411399
-0.00114001
-0.00398398
-0.0011511
-0.00385279
-0.00116183
-0.00372048
-0.0011722
-0.00358709
-0.00118219
-0.00345265
-0.00119182
-0.0033172
-0.00120108
-0.00318079
-0.00120996
-0.00304345
-0.00121847
-0.00290523
-0.00122661
-0.00276617
-0.00123437
-0.00262631
-0.00124175
-0.00248569
-0.00124875
-0.00234434
-0.00125537
-0.00220232
-0.00126161
-0.00205966
-0.00126747
-0.00191641
-0.00127294
-0.0017726
-0.00127803
-0.00162829
-0.00128273
-0.0014835
-0.00128704
-0.00133829
-0.00129096
-0.00119269
-0.0012945
-0.00104674
-0.00129764
-0.000900502
-0.0013004
-0.000754003
-0.00130276
-0.000607289
-0.00130474
-0.000460403
-0.00130632
-0.000313387
-0.00130751
-0.000166284
-0.00130831
-0.00130872
-1.9137e-05
-0.00877129
0.000476511
0.00875196
-0.00878847
0.000440221
-0.00880346
0.000404198
-0.00881623
0.000368461
-0.00882673
0.000333019
-0.00883492
0.000297881
-0.00884077
0.000263052
-0.00884424
0.000228538
-0.0088453
0.000194344
-0.00884392
0.000160473
-0.00884007
0.000126928
-0.00883373
9.37095e-05
-0.00882488
6.08207e-05
-0.00881349
2.82615e-05
-0.00879955
-3.96706e-06
-0.00878304
-3.58652e-05
-0.00876396
-6.7433e-05
-0.00874229
-9.86705e-05
-0.00871802
-0.000129578
-0.00869116
-0.000160157
-0.0086617
-0.000190408
-0.00862965
-0.000220331
-0.00859499
-0.000249927
-0.00855775
-0.000279197
-0.00851792
-0.000308142
-0.00847551
-0.000336761
-0.00843053
-0.000365056
-0.00838301
-0.000393026
-0.00833293
-0.000420671
-0.00828033
-0.000447993
-0.00822522
-0.00047499
-0.00816761
-0.000501662
-0.00810753
-0.000528009
-0.00804498
-0.00055403
-0.00798
-0.000579725
-0.0079126
-0.000605092
-0.00784281
-0.000630131
-0.00777065
-0.00065484
-0.00769614
-0.000679219
-0.00761931
-0.000703265
-0.00754018
-0.000726979
-0.00745878
-0.000750356
-0.00737513
-0.000773398
-0.00728928
-0.0007961
-0.00720123
-0.000818463
-0.00711103
-0.000840482
-0.0070187
-0.000862158
-0.00692427
-0.000883487
-0.00682778
-0.000904468
-0.00672925
-0.000925098
-0.00662871
-0.000945375
-0.00652621
-0.000965297
-0.00642177
-0.000984862
-0.00631542
-0.00100407
-0.00620721
-0.00102291
-0.00609715
-0.00104139
-0.0059853
-0.0010595
-0.00587168
-0.00107724
-0.00575633
-0.00109461
-0.00563929
-0.00111161
-0.00552059
-0.00112823
-0.00540026
-0.00114447
-0.00527836
-0.00116033
-0.0051549
-0.00117581
-0.00502994
-0.0011909
-0.00490351
-0.0012056
-0.00477565
-0.00121991
-0.00464639
-0.00123383
-0.00451578
-0.00124735
-0.00438386
-0.00126048
-0.00425066
-0.00127321
-0.00411623
-0.00128554
-0.0039806
-0.00129746
-0.00384382
-0.00130898
-0.00370593
-0.00132008
-0.00356697
-0.00133078
-0.00342697
-0.00134107
-0.00328599
-0.00135095
-0.00314406
-0.00136041
-0.00300122
-0.00136945
-0.00285752
-0.00137807
-0.00271299
-0.00138628
-0.00256769
-0.00139406
-0.00242164
-0.00140142
-0.0022749
-0.00140835
-0.00212751
-0.00141486
-0.00197951
-0.00142094
-0.00183094
-0.00142659
-0.00168185
-0.00143182
-0.00153227
-0.00143661
-0.00138226
-0.00144097
-0.00123186
-0.0014449
-0.0010811
-0.0014484
-0.000930032
-0.00145146
-0.000778703
-0.00145409
-0.000627153
-0.00145629
-0.000475427
-0.00145805
-0.000323567
-0.00145937
-0.000171619
-0.00146026
-0.00146071
-1.96254e-05
-0.00915177
0.000494278
0.009134
-0.00916728
0.000455733
-0.0091805
0.000417421
-0.0091914
0.000379362
-0.00919995
0.000341565
-0.00920611
0.000304039
-0.00920985
0.000266794
-0.00921114
0.000229834
-0.00920997
0.000193167
-0.00920629
0.000156798
-0.00920009
0.000120731
-0.00919135
8.49704e-05
-0.00918005
4.95201e-05
-0.00916617
1.43832e-05
-0.0091497
-2.04375e-05
-0.00913063
-5.49398e-05
-0.00910894
-8.91215e-05
-0.00908463
-0.000122981
-0.00905769
-0.000156516
-0.00902812
-0.000189726
-0.00899592
-0.000222609
-0.00896109
-0.000255164
-0.00892363
-0.00028739
-0.00888354
-0.000319285
-0.00884083
-0.000350849
-0.00879551
-0.00038208
-0.00874759
-0.000412977
-0.00869708
-0.000443538
-0.00864399
-0.000473763
-0.00858833
-0.00050365
-0.00853012
-0.000533198
-0.00846938
-0.000562404
-0.00840612
-0.000591268
-0.00834036
-0.000619787
-0.00827213
-0.000647961
-0.00820143
-0.000675786
-0.0081283
-0.00070326
-0.00805276
-0.000730383
-0.00797483
-0.000757152
-0.00789453
-0.000783563
-0.00781189
-0.000809616
-0.00772694
-0.000835308
-0.00763971
-0.000860635
-0.00755021
-0.000885597
-0.00745848
-0.00091019
-0.00736455
-0.000934411
-0.00726845
-0.000958259
-0.00717021
-0.000981729
-0.00706986
-0.00100482
-0.00696743
-0.00102753
-0.00686295
-0.00104985
-0.00675646
-0.00107179
-0.00664798
-0.00109333
-0.00653756
-0.00111449
-0.00642523
-0.00113524
-0.00631102
-0.0011556
-0.00619497
-0.00117555
-0.00607711
-0.0011951
-0.00595748
-0.00121424
-0.00583611
-0.00123297
-0.00571305
-0.00125129
-0.00558833
-0.00126919
-0.00546199
-0.00128667
-0.00533406
-0.00130373
-0.00520459
-0.00132037
-0.00507361
-0.00133658
-0.00494116
-0.00135236
-0.00480729
-0.0013677
-0.00467203
-0.00138261
-0.00453542
-0.00139709
-0.00439751
-0.00141112
-0.00425833
-0.00142471
-0.00411793
-0.00143786
-0.00397634
-0.00145056
-0.00383361
-0.00146281
-0.00368979
-0.00147461
-0.0035449
-0.00148596
-0.003399
-0.00149685
-0.00325213
-0.00150728
-0.00310432
-0.00151725
-0.00295563
-0.00152676
-0.0028061
-0.00153581
-0.00265576
-0.00154439
-0.00250467
-0.00155251
-0.00235287
-0.00156016
-0.00220039
-0.00156734
-0.00204729
-0.00157404
-0.0018936
-0.00158028
-0.00173938
-0.00158604