/*--------------------------------*- C++ -*----------------------------------*\
  =========                 |
  \\      /  F ield         | OpenFOAM: The Open Source CFD Toolbox
   \\    /   O peration     | Website:  https://openfoam.org
    \\  /    A nd           | Version:  8
     \\/     M anipulation  |
\*---------------------------------------------------------------------------*/
FoamFile
{
    version     2.0;
    format      ascii;
    class       volVectorField;
    location    "200";
    object      U;
}
// * * * * * * * * * * * * * * * * * * * * * * * * * * * * * * * * * * * * * //

dimensions      [0 1 -1 0 0 0 0];

internalField   nonuniform List<vector> 
1250
(
(0.99978 0.102537 0.0788419)
(1.00161 0.100106 0.0772521)
(1.00403 0.0944356 0.0777438)
(1.00682 0.0907007 0.0757528)
(1.01146 0.0899279 0.0720748)
(1.01295 0.0932022 0.0666786)
(1.01096 0.0995338 0.0622856)
(1.00681 0.105586 0.0616888)
(1.00233 0.108661 0.0648776)
(0.998334 0.107411 0.0699482)
(0.993798 0.102053 0.0741523)
(0.989229 0.095043 0.0757005)
(0.985198 0.0888166 0.074534)
(0.982086 0.084892 0.0716331)
(0.979964 0.0835581 0.0680885)
(0.978299 0.0843873 0.0648237)
(0.976954 0.0865456 0.0624735)
(0.975253 0.0891519 0.0613023)
(0.973613 0.0914996 0.0613172)
(0.971262 0.093042 0.0621155)
(0.969113 0.0936641 0.0632789)
(0.966082 0.0933468 0.0643056)
(0.963632 0.0924299 0.0649837)
(0.960207 0.0910349 0.0651411)
(0.957616 0.0895464 0.0648523)
(0.954057 0.0879922 0.0641777)
(0.951516 0.0866109 0.0632824)
(0.948122 0.0853822 0.0622922)
(0.94597 0.0843733 0.0613284)
(0.942978 0.0834426 0.0604148)
(0.941404 0.0827021 0.0596619)
(0.938858 0.0819106 0.0588203)
(0.937802 0.0812874 0.0584059)
(0.935778 0.0806246 0.0577091)
(0.935073 0.0799271 0.0572194)
(0.933733 0.0791003 0.0567118)
(0.93397 0.078772 0.0556827)
(0.933308 0.0779201 0.0536223)
(0.935142 0.0766626 0.0518399)
(0.935766 0.0754133 0.0505401)
(0.938341 0.0739585 0.0492995)
(0.939497 0.0727454 0.0484153)
(0.94243 0.0712722 0.0472649)
(0.944415 0.07007 0.0465735)
(0.94695 0.0685544 0.045455)
(0.949841 0.0674908 0.0449438)
(0.950656 0.065041 0.0439571)
(0.948028 0.064019 0.04367)
(0.944243 0.057702 0.0448851)
(0.880631 0.0529706 0.0435116)
(0.99978 0.121882 0.0432976)
(1.00161 0.119079 0.0425366)
(1.00403 0.113838 0.0447563)
(1.00682 0.10967 0.0440171)
(1.01146 0.107799 0.040758)
(1.01295 0.109245 0.0346141)
(1.01096 0.11391 0.0284797)
(1.00681 0.119481 0.0260416)
(1.00233 0.123391 0.0281246)
(0.998334 0.123768 0.0333332)
(0.993798 0.119972 0.038987)
(0.989228 0.113784 0.0426254)
(0.985198 0.107502 0.0434403)
(0.982086 0.102873 0.0418945)
(0.979964 0.100509 0.0389351)
(0.978299 0.100288 0.0355737)
(0.976955 0.101615 0.0326708)
(0.975254 0.103732 0.0307517)
(0.973614 0.105969 0.0300401)
(0.971264 0.107683 0.0303212)
(0.969118 0.108634 0.031231)
(0.966088 0.108651 0.0323034)
(0.963641 0.107989 0.0332276)
(0.960218 0.106712 0.0338058)
(0.95763 0.105208 0.0339845)
(0.954074 0.103523 0.0338196)
(0.951536 0.101934 0.03339)
(0.948142 0.100462 0.0328273)
(0.94599 0.0992014 0.0322249)
(0.942998 0.0980376 0.0316428)
(0.941423 0.0971009 0.0311555)
(0.938877 0.0960784 0.0306116)
(0.937817 0.0953744 0.0303997)
(0.935795 0.0945095 0.0299555)
(0.935088 0.0936902 0.0297064)
(0.93373 0.0927777 0.0294154)
(0.933973 0.0921378 0.0284816)
(0.933311 0.090706 0.0267906)
(0.935148 0.0889596 0.0255179)
(0.935768 0.0873635 0.0246768)
(0.938343 0.0855933 0.0239619)
(0.9395 0.0841633 0.0235027)
(0.942432 0.0824081 0.0228684)
(0.944416 0.0810542 0.0225819)
(0.94695 0.0792664 0.0219851)
(0.949841 0.0780998 0.0218247)
(0.950649 0.0754705 0.0216441)
(0.948017 0.0744123 0.0216906)
(0.944231 0.0687818 0.0248129)
(0.880606 0.0638531 0.0249833)
(0.99978 0.129296 0.00351484)
(1.00161 0.126395 0.00365731)
(1.00403 0.122097 0.00738804)
(1.00682 0.117905 0.00797268)
(1.01146 0.115118 0.00545129)
(1.01295 0.114595 -0.000838899)
(1.01096 0.117135 -0.00811416)
(1.00681 0.121681 -0.0121547)
(1.00233 0.126042 -0.0113819)
(0.998334 0.128011 -0.00654464)
(0.993798 0.126148 5.33909e-06)
(0.989228 0.121387 0.005378)
(0.985197 0.115664 0.0080941)
(0.982086 0.110784 0.0080545)
(0.979964 0.107621 0.00597057)
(0.978299 0.106373 0.00284183)
(0.976955 0.106738 -0.000328625)
(0.975254 0.108158 -0.00280838)
(0.973615 0.110067 -0.00417561)
(0.971266 0.111784 -0.00443637)
(0.969119 0.112972 -0.00386483)
(0.96609 0.113321 -0.00284891)
(0.963643 0.112978 -0.00176372)
(0.960221 0.111944 -0.000818942)
(0.957633 0.110571 -0.000180916)
(0.954078 0.108918 0.000184237)
(0.951539 0.107277 0.000265963)
(0.948145 0.105702 0.000187592)
(0.945992 0.104317 2.94268e-06)
(0.943001 0.103029 -0.000192936)
(0.941425 0.101988 -0.000361896)
(0.938879 0.100845 -0.000574103)
(0.93782 0.100107 -0.000552891)
(0.935794 0.0991481 -0.000707104)
(0.93509 0.0982977 -0.000704266)
(0.933725 0.0973198 -0.000698704)
(0.933972 0.0964401 -0.00131268)
(0.933313 0.0945601 -0.0024737)
(0.935141 0.0925129 -0.00315336)
(0.935756 0.0907399 -0.00348322)
(0.938327 0.0888364 -0.00362367)
(0.939481 0.0873331 -0.00362056)
(0.942407 0.085467 -0.00368087)
(0.944391 0.0840913 -0.00353275)
(0.946919 0.0822076 -0.00354826)
(0.94981 0.0810507 -0.00333886)
(0.950609 0.0784939 -0.00269279)
(0.947971 0.0775 -0.0023184)
(0.944178 0.0731029 0.00239603)
(0.880526 0.0684666 0.00407792)
(0.99978 0.124054 -0.036612)
(1.00161 0.121339 -0.03558)
(1.00403 0.118404 -0.0307038)
(1.00682 0.114598 -0.0288523)
(1.01146 0.111168 -0.0303886)
(1.01295 0.108727 -0.0362096)
(1.01096 0.108895 -0.043914)
(1.00681 0.111969 -0.0491613)
(1.00233 0.116356 -0.0497744)
(0.998334 0.119724 -0.0457821)
(0.993798 0.119976 -0.038977)
(0.989228 0.117108 -0.0323958)
(0.985197 0.112504 -0.0280443)
(0.982086 0.107851 -0.0265741)
(0.979964 0.104199 -0.0275785)
(0.978299 0.102045 -0.0301684)
(0.976954 0.101412 -0.0332961)
(0.975254 0.101997 -0.0360937)
(0.973614 0.103389 -0.0379839)
(0.971266 0.104941 -0.0387617)
(0.969118 0.106248 -0.0385841)
(0.966089 0.106893 -0.037725)
(0.963642 0.106902 -0.0365854)
(0.960219 0.106209 -0.0353671)
(0.957631 0.105101 -0.0343341)
(0.954075 0.10364 -0.0334742)
(0.951536 0.102106 -0.0328881)
(0.948142 0.100585 -0.0324757)
(0.945988 0.0992102 -0.0322242)
(0.942997 0.0979253 -0.0320127)
(0.941421 0.0968826 -0.0318482)
(0.938875 0.0957315 -0.0317057)
(0.937819 0.0950369 -0.0314536)
(0.935788 0.0940723 -0.0313048)
(0.935085 0.0932743 -0.0310478)
(0.933719 0.0923482 -0.0307336)
(0.933962 0.0913305 -0.0310275)
(0.933311 0.0891822 -0.0315142)
(0.935138 0.0870247 -0.0315271)
(0.935756 0.0852378 -0.0312991)
(0.938327 0.0833836 -0.0308513)
(0.939481 0.0819543 -0.0303876)
(0.942409 0.0801584 -0.0298681)
(0.944393 0.0788958 -0.0292991)
(0.946923 0.0771003 -0.0287309)
(0.949814 0.0760646 -0.0281699)
(0.950616 0.0738343 -0.0267585)
(0.947979 0.0730043 -0.0260919)
(0.944187 0.0702759 -0.0202536)
(0.880547 0.0663848 -0.0172274)
(0.99978 0.106669 -0.0731548)
(1.00161 0.104405 -0.0713343)
(1.00403 0.103121 -0.0657897)
(1.00682 0.100073 -0.0628529)
(1.01146 0.0963363 -0.0632542)
(1.01295 0.0922159 -0.0680356)
(1.01096 0.0899946 -0.0754149)
(1.00681 0.0912972 -0.0813554)
(1.00233 0.0952801 -0.0832945)
(0.998334 0.0997163 -0.0805382)
(0.993798 0.102059 -0.0741439)
(0.989229 0.101365 -0.0669986)
(0.985197 0.0983316 -0.0614375)
(0.982086 0.0943602 -0.0586012)
(0.979964 0.0905768 -0.0584278)
(0.978299 0.0877279 -0.0602256)
(0.976954 0.0861599 -0.0630044)
(0.975254 0.0858518 -0.0658453)
(0.973614 0.0865911 -0.0680726)
(0.971264 0.0878263 -0.0692914)
(0.969116 0.089125 -0.0695246)
(0.966086 0.0900034 -0.0689055)
(0.963637 0.0903656 -0.0678228)
(0.960213 0.0900824 -0.066448)
(0.957623 0.0893485 -0.065121)
(0.954065 0.0882252 -0.0638508)
(0.951524 0.0869485 -0.0628167)
(0.948129 0.0856296 -0.0619532)
(0.945976 0.084402 -0.0612913)
(0.942985 0.0832446 -0.0606916)
(0.941409 0.0823031 -0.0602119)
(0.938863 0.0812565 -0.05973)
(0.937809 0.0806702 -0.0592652)
(0.935778 0.0797987 -0.0588305)
(0.935074 0.0791126 -0.0583591)
(0.933721 0.0783491 -0.0577603)
(0.93396 0.077283 -0.0577357)
(0.933306 0.0750885 -0.057517)
(0.935133 0.073019 -0.0568606)
(0.935755 0.0713933 -0.056084)
(0.938328 0.0697649 -0.0550883)
(0.939483 0.0685481 -0.0542097)
(0.942414 0.0669994 -0.0531623)
(0.944399 0.0659724 -0.052231)
(0.946931 0.064441 -0.051136)
(0.949823 0.0636271 -0.0502817)
(0.950633 0.0619399 -0.0482505)
(0.948005 0.0613559 -0.0473595)
(0.944214 0.0605607 -0.0409731)
(0.880591 0.0577918 -0.0368982)
(0.998975 0.25146 0.177505)
(1.00333 0.255855 0.176958)
(1.00828 0.266404 0.170901)
(1.01145 0.275053 0.174714)
(1.01459 0.276076 0.185228)
(1.01371 0.267229 0.19887)
(1.01002 0.25137 0.207717)
(1.00532 0.236316 0.206981)
(1.00128 0.227482 0.198404)
(0.998652 0.226233 0.185894)
(0.996572 0.231514 0.173587)
(0.994557 0.239947 0.165583)
(0.992578 0.2483 0.16314)
(0.990512 0.254657 0.165568)
(0.988449 0.257841 0.170965)
(0.986241 0.257744 0.177119)
(0.983971 0.254984 0.18221)
(0.981387 0.250608 0.185153)
(0.978931 0.245725 0.185759)
(0.976085 0.241132 0.18436)
(0.973791 0.237292 0.181679)
(0.970987 0.234243 0.178375)
(0.969163 0.231902 0.175125)
(0.96658 0.229849 0.172118)
(0.965204 0.228004 0.169609)
(0.962803 0.225961 0.167396)
(0.961718 0.223879 0.165513)
(0.959432 0.221509 0.163739)
(0.95865 0.219155 0.162127)
(0.956553 0.216574 0.160427)
(0.956212 0.214158 0.158844)
(0.954361 0.21159 0.157125)
(0.954636 0.209337 0.155533)
(0.95315 0.206949 0.153781)
(0.953884 0.204758 0.152153)
(0.952268 0.202631 0.150886)
(0.953054 0.200744 0.149155)
(0.951472 0.198809 0.147598)
(0.952848 0.196483 0.145334)
(0.951837 0.194254 0.143354)
(0.953828 0.191525 0.140779)
(0.953317 0.189154 0.13868)
(0.955607 0.186271 0.136035)
(0.955348 0.183765 0.134066)
(0.957872 0.180557 0.131256)
(0.957622 0.178043 0.129615)
(0.960028 0.173262 0.126968)
(0.956204 0.169926 0.126143)
(0.954275 0.156581 0.127011)
(0.898171 0.140214 0.126433)
(0.998975 0.294005 0.0911121)
(1.00333 0.298015 0.0892332)
(1.00828 0.306178 0.0802109)
(1.01145 0.315581 0.0811662)
(1.01459 0.319801 0.0908505)
(1.01371 0.315601 0.106561)
(1.01002 0.303257 0.119872)
(1.00533 0.288713 0.123824)
(1.00128 0.277659 0.118398)
(0.998652 0.272603 0.106886)
(0.996572 0.273823 0.0935476)
(0.994557 0.279371 0.0833312)
(0.992578 0.286563 0.078429)
(0.990512 0.293358 0.0787706)
(0.98845 0.298051 0.0829194)
(0.98624 0.299861 0.0888016)
(0.983972 0.298807 0.0944961)
(0.981387 0.295556 0.0986476)
(0.978931 0.291101 0.100729)
(0.976085 0.286295 0.100815)
(0.973796 0.281815 0.0994468)
(0.970989 0.277889 0.0972401)
(0.96917 0.274651 0.0948695)
(0.96659 0.27177 0.0926375)
(0.965211 0.269235 0.0908109)
(0.962815 0.266603 0.0893376)
(0.961736 0.264043 0.0881844)
(0.959449 0.26124 0.0872209)
(0.958664 0.258496 0.0864208)
(0.956574 0.255524 0.0856082)
(0.956233 0.252736 0.0848463)
(0.954374 0.249762 0.084006)
(0.954656 0.247135 0.0831929)
(0.953168 0.244317 0.0822868)
(0.953904 0.241751 0.081426)
(0.952283 0.239348 0.0808517)
(0.953085 0.237021 0.0797677)
(0.951485 0.234682 0.078834)
(0.952881 0.231737 0.0773936)
(0.951874 0.229023 0.0761826)
(0.953832 0.225628 0.0745519)
(0.953306 0.222712 0.0732918)
(0.955626 0.219144 0.0716659)
(0.955361 0.216167 0.07056)
(0.957878 0.212245 0.0688642)
(0.957611 0.209348 0.0680684)
(0.96001 0.203993 0.0670326)
(0.956192 0.200582 0.0672978)
(0.954263 0.188183 0.0722869)
(0.89816 0.172474 0.0768511)
(0.998975 0.307771 -0.0042)
(1.00333 0.311004 -0.00722597)
(1.00828 0.315978 -0.0183271)
(1.01145 0.325218 -0.020327)
(1.01459 0.332223 -0.0124223)
(1.01371 0.333083 0.00381919)
(1.01002 0.325454 0.0202972)
(1.00532 0.312846 0.0285464)
(1.00128 0.300657 0.0268)
(0.998652 0.292291 0.0174143)
(0.996572 0.289328 0.00435283)
(0.994556 0.291445 -0.00707834)
(0.992578 0.296772 -0.0139611)
(0.990513 0.303343 -0.0157352)
(0.98845 0.309087 -0.0132425)
(0.98624 0.312627 -0.00820788)
(0.983972 0.313382 -0.00246585)
(0.981388 0.311573 0.00248898)
(0.978931 0.307984 0.00584561)
(0.976085 0.303438 0.00741229)
(0.973799 0.298759 0.00749848)
(0.970992 0.294349 0.00660781)
(0.96917 0.290537 0.00535693)
(0.966595 0.287111 0.00412524)
(0.965215 0.28414 0.0031704)
(0.962815 0.281184 0.00258358)
(0.961743 0.2784 0.00228182)
(0.959457 0.275442 0.00222717)
(0.958664 0.272581 0.00231108)
(0.956577 0.269507 0.00246458)
(0.956241 0.26662 0.00259548)
(0.954375 0.263519 0.00271351)
(0.954653 0.260771 0.00276412)
(0.953176 0.257819 0.00276488)
(0.953914 0.255101 0.00273014)
(0.952285 0.252615 0.00292357)
(0.953091 0.250054 0.00262608)
(0.951487 0.247559 0.00244697)
(0.952854 0.244329 0.0019994)
(0.951857 0.241401 0.00170131)
(0.953831 0.237686 0.00118561)
(0.953297 0.234521 0.000881607)
(0.955591 0.230631 0.000447312)
(0.955356 0.227459 0.00032673)
(0.957873 0.22321 -6.79079e-05)
(0.957612 0.220211 7.60931e-05)
(0.96001 0.214799 0.00075483)
(0.956189 0.211636 0.00206866)
(0.954263 0.201378 0.0106559)
(0.898159 0.187826 0.0198564)
(0.998975 0.291409 -0.0991008)
(1.00333 0.29355 -0.102978)
(1.00828 0.29485 -0.115073)
(1.01145 0.303019 -0.119829)
(1.01459 0.312126 -0.114477)
(1.01371 0.317961 -0.0992987)
(1.01002 0.315797 -0.0812688)
(1.00532 0.306355 -0.0695226)
(1.00128 0.294225 -0.067419)
(0.998652 0.283367 -0.0737611)
(0.996573 0.276515 -0.0852679)
(0.994556 0.274993 -0.0967955)
(0.992577 0.27793 -0.104986)
(0.990512 0.283635 -0.108703)
(0.988451 0.289868 -0.108106)
(0.986241 0.294791 -0.104413)
(0.983971 0.297284 -0.0991868)
(0.981388 0.297091 -0.0939145)
(0.978932 0.294717 -0.0896123)
(0.976085 0.290881 -0.0867191)
(0.973798 0.286455 -0.0851848)
(0.970995 0.281989 -0.0846683)
(0.969169 0.277974 -0.084682)
(0.966595 0.274335 -0.0847881)
(0.965219 0.271215 -0.0847805)
(0.962813 0.268216 -0.0844219)
(0.96174 0.265474 -0.0838401)
(0.959462 0.262646 -0.0829764)
(0.958667 0.259946 -0.0820216)
(0.956573 0.257063 -0.0809224)
(0.956246 0.254368 -0.0799004)
(0.954378 0.251457 -0.0788465)
(0.954651 0.248846 -0.0779513)
(0.953178 0.246031 -0.0770269)
(0.95392 0.243455 -0.0762075)
(0.952288 0.241166 -0.0752814)
(0.953077 0.23864 -0.0747734)
(0.95149 0.236226 -0.0741735)
(0.952855 0.232985 -0.0735967)
(0.951854 0.230097 -0.0729526)
(0.953851 0.226411 -0.0722777)
(0.953328 0.223306 -0.0715925)
(0.955613 0.219462 -0.070807)
(0.955364 0.216409 -0.0699316)
(0.957879 0.212258 -0.0689962)
(0.957612 0.20945 -0.0679299)
(0.960019 0.204508 -0.0656054)
(0.956192 0.201895 -0.0633725)
(0.954272 0.194782 -0.052016)
(0.898165 0.184742 -0.0390657)
(0.998975 0.246523 -0.184301)
(1.00333 0.24736 -0.18865)
(1.00828 0.244859 -0.200555)
(1.01145 0.251158 -0.207602)
(1.01459 0.261474 -0.205327)
(1.01371 0.271714 -0.192694)
(1.01002 0.275227 -0.174878)
(1.00532 0.269875 -0.16079)
(1.00128 0.25899 -0.155039)
(0.998652 0.246705 -0.157716)
(0.996573 0.236632 -0.166541)
(0.994557 0.231624 -0.177036)
(0.992577 0.231883 -0.185734)
(0.990512 0.23616 -0.19103)
(0.98845 0.242274 -0.192389)
(0.986241 0.248096 -0.190397)
(0.983971 0.252085 -0.186198)
(0.981388 0.253529 -0.181124)
(0.978932 0.252597 -0.176293)
(0.976085 0.249843 -0.172358)
(0.973794 0.246104 -0.16953)
(0.970993 0.242019 -0.167653)
(0.969167 0.238197 -0.166427)
(0.966587 0.234699 -0.165401)
(0.965215 0.231737 -0.164424)
(0.962809 0.228994 -0.163165)
(0.961727 0.226562 -0.16176)
(0.959449 0.22415 -0.160059)
(0.958662 0.221882 -0.158321)
(0.95656 0.219475 -0.156386)
(0.956228 0.217236 -0.154578)
(0.95437 0.214793 -0.152686)
(0.954642 0.212585 -0.151013)
(0.953164 0.2102 -0.149273)
(0.953901 0.207995 -0.147724)
(0.952284 0.2061 -0.146128)
(0.953064 0.203827 -0.144848)
(0.951489 0.201732 -0.143499)
(0.952856 0.198848 -0.141961)
(0.951852 0.196295 -0.140442)
(0.953838 0.193017 -0.138653)
(0.953313 0.190294 -0.13705)
(0.955613 0.186877 -0.135113)
(0.955349 0.184242 -0.13334)
(0.957889 0.180584 -0.13115)
(0.95763 0.178249 -0.129269)
(0.960024 0.174282 -0.125541)
(0.95621 0.172497 -0.122625)
(0.954287 0.16925 -0.109657)
(0.898196 0.163707 -0.0942416)
(0.99944 0.405906 0.293683)
(0.99939 0.396261 0.30907)
(0.998193 0.373473 0.317706)
(1.00514 0.367683 0.31038)
(1.01192 0.373291 0.29627)
(1.01654 0.38917 0.277648)
(1.01665 0.410574 0.265145)
(1.0135 0.429706 0.264767)
(1.00926 0.442024 0.274748)
(1.00499 0.444656 0.291382)
(1.00054 0.436508 0.307805)
(0.996413 0.422386 0.317839)
(0.992573 0.406258 0.320309)
(0.98907 0.391523 0.31626)
(0.986304 0.38014 0.307958)
(0.984446 0.372528 0.297868)
(0.983536 0.368043 0.287998)
(0.983328 0.365653 0.279662)
(0.98381 0.364019 0.273325)
(0.984357 0.362349 0.268982)
(0.985339 0.359875 0.265995)
(0.985821 0.356537 0.263881)
(0.986812 0.352266 0.261917)
(0.987017 0.347408 0.259856)
(0.988016 0.342106 0.257354)
(0.98806 0.336699 0.254484)
(0.989288 0.331323 0.251202)
(0.98923 0.326106 0.247664)
(0.990734 0.321224 0.24399)
(0.990649 0.316595 0.240272)
(0.992442 0.312318 0.236705)
(0.992229 0.308347 0.233275)
(0.994338 0.304593 0.230025)
(0.99396 0.301029 0.227021)
(0.996235 0.297578 0.22413)
(0.995866 0.294318 0.22149)
(0.998291 0.291063 0.218906)
(0.9974 0.287905 0.216621)
(0.999434 0.284691 0.214171)
(0.997768 0.281415 0.212021)
(0.999551 0.277912 0.209456)
(0.997145 0.274408 0.207201)
(0.998822 0.27075 0.204341)
(0.995936 0.267173 0.201981)
(0.997843 0.263185 0.198993)
(0.99476 0.259458 0.196569)
(0.997022 0.254216 0.193953)
(0.992402 0.248928 0.191816)
(0.994849 0.235346 0.194037)
(0.961489 0.211014 0.196978)
(0.99944 0.476793 0.153877)
(0.999389 0.472373 0.171494)
(0.998195 0.453364 0.186744)
(1.00514 0.445608 0.181567)
(1.01192 0.446585 0.166412)
(1.01654 0.455911 0.143798)
(1.01665 0.472406 0.1253)
(1.0135 0.490497 0.119022)
(1.00926 0.505297 0.124705)
(1.00499 0.512934 0.139713)
(1.00054 0.510259 0.15785)
(0.996413 0.499924 0.171764)
(0.992573 0.485359 0.179096)
(0.989069 0.470097 0.179788)
(0.986305 0.456698 0.175416)
(0.984446 0.446343 0.168168)
(0.983534 0.439021 0.160169)
(0.98333 0.43417 0.152989)
(0.983811 0.430668 0.147459)
(0.984351 0.427731 0.14384)
(0.985342 0.424453 0.141765)
(0.985822 0.420625 0.140776)
(0.986806 0.415944 0.140231)
(0.98702 0.410691 0.139776)
(0.988018 0.404873 0.139032)
(0.988052 0.398842 0.137971)
(0.98929 0.392716 0.136511)
(0.989239 0.386664 0.134745)
(0.99073 0.380877 0.132769)
(0.990651 0.375329 0.130661)
(0.992452 0.370163 0.12858)
(0.992228 0.365317 0.126561)
(0.994337 0.360745 0.124636)
(0.993966 0.356431 0.122878)
(0.996244 0.352266 0.121185)
(0.995868 0.348355 0.119694)
(0.998293 0.344462 0.118243)
(0.997414 0.340761 0.117049)
(0.999441 0.336909 0.115725)
(0.997779 0.33313 0.114652)
(0.999581 0.329016 0.113283)
(0.99718 0.324975 0.112259)
(0.99886 0.320576 0.110653)
(0.995969 0.316454 0.109467)
(0.997871 0.311738 0.107829)
(0.994783 0.307443 0.106669)
(0.997044 0.301643 0.105795)
(0.992426 0.295948 0.105412)
(0.994876 0.283725 0.111754)
(0.961498 0.261545 0.122105)
(0.99944 0.501008 -0.000991668)
(0.999389 0.502249 0.0171256)
(0.998195 0.488882 0.03751)
(1.00514 0.479897 0.0349836)
(1.01192 0.476152 0.0202668)
(1.01654 0.47804 -0.00413377)
(1.01665 0.488 -0.0268126)
(1.0135 0.503268 -0.0383689)
(1.00926 0.519104 -0.0375435)
(1.00499 0.531005 -0.0256346)
(1.00054 0.534065 -0.00756126)
(0.996413 0.528528 0.00887274)
(0.992574 0.516942 0.0203554)
(0.98907 0.50265 0.0257205)
(0.986305 0.488551 0.0257008)
(0.984448 0.476466 0.0220092)
(0.983532 0.467029 0.016655)
(0.983329 0.46019 0.0113392)
(0.983815 0.455159 0.00716438)
(0.98435 0.451248 0.00462204)
(0.985341 0.447488 0.00366955)
(0.985829 0.443549 0.00390278)
(0.986804 0.438926 0.00482766)
(0.987019 0.433786 0.0060244)
(0.988027 0.428029 0.00711379)
(0.988053 0.421963 0.00797301)
(0.989286 0.415691 0.00847817)
(0.989246 0.409396 0.0086633)
(0.990734 0.403282 0.00856839)
(0.990644 0.397356 0.00828795)
(0.99246 0.391803 0.00788698)
(0.99223 0.386561 0.00746595)
(0.994331 0.381617 0.00706512)
(0.993965 0.376972 0.00672741)
(0.996248 0.372488 0.00640528)
(0.995875 0.368307 0.00618768)
(0.998293 0.364149 0.00602643)
(0.997423 0.360265 0.00600896)
(0.999456 0.3562 0.0059633)
(0.997779 0.35226 0.00613581)
(0.999585 0.347937 0.00605873)
(0.997192 0.343794 0.0062971)
(0.998877 0.339133 0.0061892)
(0.995991 0.334829 0.00633858)
(0.997882 0.329849 0.00623989)
(0.994791 0.325414 0.00646181)
(0.997046 0.319629 0.00741987)
(0.992424 0.314112 0.00882761)
(0.994862 0.30445 0.0186434)
(0.961485 0.286544 0.0353359)
(0.99944 0.47618 -0.155763)
(0.99939 0.482958 -0.138914)
(0.998193 0.476548 -0.115405)
(1.00514 0.467224 -0.115028)
(1.01192 0.459109 -0.12786)
(1.01654 0.453366 -0.151652)
(1.01665 0.455829 -0.176306)
(1.0135 0.466777 -0.192007)
(1.00926 0.482098 -0.196114)
(1.00499 0.497098 -0.18847)
(1.00054 0.505595 -0.172228)
(0.996412 0.5054 -0.154894)
(0.992573 0.497926 -0.140382)
(0.98907 0.485999 -0.130861)
(0.986305 0.472584 -0.12653)
(0.98445 0.459949 -0.126299)
(0.983533 0.449323 -0.128485)
(0.983325 0.441167 -0.131428)
(0.983816 0.435094 -0.133831)
(0.984352 0.430594 -0.135049)
(0.985336 0.426721 -0.134788)
(0.985831 0.423052 -0.133342)
(0.986808 0.418938 -0.131045)
(0.987011 0.414414 -0.12831)
(0.988027 0.409275 -0.125494)
(0.988059 0.40377 -0.122803)
(0.989279 0.397957 -0.12037)
(0.989244 0.392031 -0.118249)
(0.990742 0.386182 -0.116457)
(0.99064 0.38046 -0.11488)
(0.992455 0.375059 -0.113548)
(0.992241 0.36994 -0.112356)
(0.99433 0.365104 -0.111198)
(0.993958 0.360588 -0.110081)
(0.996245 0.356221 -0.109)
(0.99588 0.352178 -0.107923)
(0.998298 0.348174 -0.106777)
(0.997424 0.344472 -0.10559)
(0.999467 0.340599 -0.104409)
(0.997783 0.336906 -0.103005)
(0.999574 0.332759 -0.101712)
(0.997187 0.328882 -0.100211)
(0.998873 0.324413 -0.0989132)
(0.995992 0.320371 -0.0973939)
(0.997885 0.315598 -0.0959773)
(0.994791 0.311449 -0.0943824)
(0.997051 0.306234 -0.0916873)
(0.992425 0.301408 -0.0886418)
(0.994877 0.295224 -0.0763053)
(0.961473 0.283326 -0.0548653)
(0.99944 0.40474 -0.295287)
(0.999389 0.416395 -0.281359)
(0.998196 0.417559 -0.257011)
(1.00514 0.408805 -0.253776)
(1.01192 0.397128 -0.263477)
(1.01654 0.384317 -0.284332)
(1.01665 0.379036 -0.308538)
(1.0135 0.384593 -0.326852)
(1.00926 0.397896 -0.335488)
(1.00499 0.414527 -0.332855)
(1.00054 0.427629 -0.320031)
(0.996413 0.432803 -0.303496)
(0.992573 0.43017 -0.287384)
(0.98907 0.421771 -0.274631)
(0.986303 0.410353 -0.266375)
(0.984448 0.398406 -0.262248)
(0.983536 0.387631 -0.261043)
(0.983325 0.378959 -0.261333)
(0.983813 0.372437 -0.261728)
(0.984357 0.367785 -0.261492)
(0.985335 0.364176 -0.260053)
(0.985827 0.361135 -0.257536)
(0.986813 0.35794 -0.254084)
(0.987011 0.354474 -0.250095)
(0.98802 0.35046 -0.245819)
(0.988064 0.346054 -0.241568)
(0.989281 0.341273 -0.237454)
(0.989236 0.336296 -0.233597)
(0.990744 0.331291 -0.230093)
(0.990645 0.326331 -0.22683)
(0.992445 0.321624 -0.223879)
(0.992241 0.317123 -0.22117)
(0.994335 0.312876 -0.218589)
(0.993954 0.308922 -0.216126)
(0.996241 0.305116 -0.213734)
(0.995878 0.301595 -0.211461)
(0.998299 0.298141 -0.209144)
(0.997411 0.294976 -0.206844)
(0.99946 0.291656 -0.204525)
(0.997784 0.288576 -0.202053)
(0.999561 0.285037 -0.199537)
(0.997163 0.281815 -0.196916)
(0.998848 0.277966 -0.194295)
(0.995963 0.274614 -0.19161)
(0.997871 0.270503 -0.188758)
(0.994778 0.26704 -0.185977)
(0.997034 0.262928 -0.1818)
(0.992413 0.259294 -0.177437)
(0.99484 0.257274 -0.163859)
(0.961467 0.252647 -0.139845)
(1.00365 0.57241 0.399446)
(1.02685 0.617882 0.363287)
(1.02401 0.661565 0.362259)
(1.01814 0.684218 0.391162)
(1.01095 0.683697 0.431851)
(1.00489 0.659067 0.469385)
(0.999022 0.618224 0.48881)
(0.99401 0.575828 0.485479)
(0.989495 0.541009 0.466658)
(0.98742 0.517815 0.437877)
(0.987215 0.507851 0.40699)
(0.988825 0.504732 0.381279)
(0.992175 0.505674 0.361862)
(0.996288 0.507335 0.349334)
(1.00004 0.507305 0.342728)
(1.00336 0.504571 0.34014)
(1.00565 0.498922 0.339448)
(1.00739 0.491054 0.338992)
(1.00833 0.481703 0.337466)
(1.00908 0.471926 0.334544)
(1.00961 0.462332 0.329982)
(1.01021 0.453546 0.324419)
(1.01103 0.445582 0.318059)
(1.0118 0.438572 0.311671)
(1.01304 0.432208 0.305297)
(1.01387 0.426494 0.299509)
(1.01538 0.420982 0.294028)
(1.01607 0.415855 0.289274)
(1.01762 0.410616 0.284742)
(1.018 0.405695 0.280835)
(1.01947 0.400487 0.276909)
(1.01947 0.39569 0.273583)
(1.0209 0.390588 0.269886)
(1.0205 0.38595 0.26689)
(1.02197 0.380915 0.263343)
(1.0213 0.376544 0.260431)
(1.02293 0.371689 0.257153)
(1.02205 0.367604 0.254251)
(1.02383 0.363005 0.251177)
(1.02267 0.35919 0.248224)
(1.0245 0.354745 0.245454)
(1.02304 0.350911 0.242344)
(1.0248 0.346574 0.239857)
(1.02295 0.342546 0.23637)
(1.02452 0.338482 0.234097)
(1.02228 0.334115 0.230228)
(1.02372 0.329916 0.228783)
(1.02133 0.323114 0.225338)
(1.02432 0.314699 0.229369)
(1.0227 0.287795 0.23482)
(1.00365 0.667829 0.20301)
(1.02685 0.699904 0.154569)
(1.02401 0.74113 0.140099)
(1.01814 0.771602 0.160582)
(1.01095 0.783684 0.199429)
(1.00489 0.771859 0.242748)
(0.999022 0.739017 0.273855)
(0.994008 0.697669 0.283784)
(0.989493 0.658735 0.276635)
(0.987419 0.627781 0.256424)
(0.987218 0.608758 0.23013)
(0.988829 0.597845 0.206651)
(0.992175 0.592749 0.187901)
(0.996285 0.590461 0.175455)
(1.00003 0.588384 0.169185)
(1.00336 0.584983 0.167569)
(1.00565 0.579395 0.168653)
(1.00739 0.571767 0.170663)
(1.00833 0.56241 0.172099)
(1.00907 0.55221 0.172334)
(1.00961 0.541672 0.17096)
(1.01021 0.531598 0.168384)
(1.01102 0.522054 0.164797)
(1.0118 0.51341 0.16089)
(1.01304 0.505393 0.156797)
(1.01387 0.49817 0.153061)
(1.01538 0.491233 0.149545)
(1.01606 0.484887 0.146605)
(1.01761 0.478504 0.143917)
(1.01799 0.472607 0.141714)
(1.01948 0.466446 0.139587)
(1.01947 0.460855 0.13792)
(1.0209 0.454849 0.135973)
(1.02051 0.449522 0.134563)
(1.02197 0.443634 0.132744)
(1.0213 0.438587 0.131326)
(1.02292 0.432951 0.1297)
(1.02204 0.428178 0.128199)
(1.02382 0.422861 0.126691)
(1.02265 0.418309 0.125073)
(1.02449 0.413216 0.123799)
(1.02303 0.408607 0.122018)
(1.02479 0.403747 0.120997)
(1.02296 0.398834 0.118925)
(1.02451 0.394263 0.118015)
(1.02228 0.388883 0.115666)
(1.02372 0.384444 0.115576)
(1.02133 0.376906 0.114397)
(1.02434 0.370132 0.120823)
(1.02271 0.346248 0.134352)
(1.00365 0.697877 -0.0132961)
(1.02685 0.71341 -0.0692792)
(1.024 0.748148 -0.0957828)
(1.01814 0.783463 -0.085711)
(1.01095 0.806954 -0.0525017)
(1.00489 0.809087 -0.00765937)
(0.999023 0.787467 0.0320792)
(0.994008 0.751219 0.0543088)
(0.989493 0.711984 0.0595364)
(0.987417 0.676294 0.0498796)
(0.987217 0.65008 0.0307422)
(0.988831 0.632434 0.0117852)
(0.992177 0.621796 -0.00445529)
(0.996284 0.615784 -0.015589)
(1.00003 0.61187 -0.0209205)
(1.00336 0.608135 -0.0214003)
(1.00565 0.603154 -0.0186514)
(1.00739 0.596516 -0.0143767)
(1.00833 0.588063 -0.0101095)
(1.00908 0.578439 -0.00674246)
(1.0096 0.567992 -0.00479216)
(1.01021 0.557614 -0.00413664)
(1.01102 0.547431 -0.00460061)
(1.01179 0.537995 -0.00564457)
(1.01304 0.529103 -0.0070568)
(1.01387 0.521083 -0.00837039)
(1.01538 0.513402 -0.00956786)
(1.01607 0.50646 -0.0104127)
(1.01762 0.499564 -0.0109924)
(1.01798 0.493279 -0.0112647)
(1.01947 0.486752 -0.0114001)
(1.01947 0.480929 -0.0112518)
(1.02089 0.474612 -0.0112356)
(1.02051 0.469106 -0.010939)
(1.02197 0.462949 -0.0108433)
(1.0213 0.45771 -0.0106313)
(1.02293 0.451851 -0.0104385)
(1.02204 0.446839 -0.0103896)
(1.02383 0.441315 -0.0101973)
(1.02266 0.436473 -0.0103226)
(1.02451 0.431229 -0.00995518)
(1.02304 0.426296 -0.0102214)
(1.02482 0.421322 -0.00971034)
(1.02297 0.416038 -0.0101592)
(1.02454 0.411413 -0.00961148)
(1.0223 0.405588 -0.0101775)
(1.02373 0.401343 -0.00889057)
(1.02134 0.393827 -0.00767222)
(1.02434 0.389382 0.000535611)
(1.0227 0.370859 0.0207986)
(1.00365 0.659612 -0.228302)
(1.02685 0.657088 -0.286345)
(1.02401 0.681933 -0.322286)
(1.01813 0.718631 -0.323619)
(1.01095 0.751241 -0.299295)
(1.00489 0.767125 -0.257307)
(0.999024 0.758834 -0.212834)
(0.994008 0.73123 -0.180486)
(0.989491 0.695537 -0.163387)
(0.987417 0.658611 -0.161547)
(0.987217 0.627771 -0.17165)
(0.98883 0.605122 -0.184235)
(0.99218 0.58998 -0.196383)
(0.996286 0.58083 -0.205105)
(1.00003 0.575459 -0.208976)
(1.00336 0.571761 -0.208276)
(1.00565 0.567873 -0.204125)
(1.00738 0.562876 -0.198016)
(1.00833 0.556154 -0.191332)
(1.00908 0.548047 -0.185155)
(1.00961 0.538714 -0.180074)
(1.01021 0.529048 -0.176237)
(1.01103 0.519218 -0.17354)
(1.01179 0.509922 -0.171614)
(1.01304 0.501027 -0.170212)
(1.01388 0.492991 -0.168984)
(1.01538 0.485321 -0.167738)
(1.01607 0.478453 -0.166396)
(1.01762 0.471715 -0.164822)
(1.01799 0.465656 -0.163129)
(1.01947 0.459404 -0.161242)
(1.01947 0.453905 -0.159321)
(1.02089 0.447908 -0.157345)
(1.0205 0.44276 -0.155359)
(1.02198 0.436931 -0.15337)
(1.0213 0.432015 -0.151541)
(1.02293 0.426507 -0.149556)
(1.02204 0.421763 -0.147945)
(1.02382 0.41658 -0.146066)
(1.02265 0.411943 -0.144695)
(1.02449 0.407064 -0.142718)
(1.02302 0.402296 -0.141443)
(1.02479 0.397744 -0.139414)
(1.02296 0.392558 -0.138216)
(1.02452 0.388333 -0.136254)
(1.02229 0.382601 -0.13499)
(1.02373 0.37896 -0.132444)
(1.02134 0.372167 -0.128962)
(1.02434 0.370466 -0.119773)
(1.0227 0.359055 -0.0947622)
(1.00365 0.556778 -0.420959)
(1.02685 0.536439 -0.475382)
(1.02401 0.548964 -0.517244)
(1.01814 0.583453 -0.529849)
(1.01095 0.621984 -0.516787)
(1.00489 0.650067 -0.481772)
(0.999026 0.655923 -0.436916)
(0.994011 0.639662 -0.39762)
(0.989492 0.611005 -0.370321)
(0.987416 0.576459 -0.35716)
(0.987215 0.544004 -0.357235)
(0.988827 0.518577 -0.362214)
(0.992179 0.50041 -0.369095)
(0.99629 0.489018 -0.374548)
(1.00003 0.482719 -0.376571)
(1.00335 0.479413 -0.374766)
(1.00565 0.477006 -0.369612)
(1.00738 0.474135 -0.362269)
(1.00833 0.469802 -0.353833)
(1.00908 0.464003 -0.345443)
(1.00961 0.456699 -0.337731)
(1.01021 0.448693 -0.331095)
(1.01103 0.440182 -0.325493)
(1.0118 0.431937 -0.320799)
(1.01303 0.423903 -0.316714)
(1.01387 0.416636 -0.313065)
(1.01538 0.409724 -0.309512)
(1.01607 0.403617 -0.306103)
(1.01763 0.397688 -0.302529)
(1.01799 0.39246 -0.299045)
(1.01947 0.387105 -0.295316)
(1.01947 0.382454 -0.291788)
(1.0209 0.377369 -0.288066)
(1.0205 0.373082 -0.28458)
(1.02197 0.368153 -0.280891)
(1.0213 0.364041 -0.277633)
(1.02294 0.359415 -0.274041)
(1.02204 0.3554 -0.271048)