/*--------------------------------*- C++ -*----------------------------------*\
  =========                 |
  \\      /  F ield         | OpenFOAM: The Open Source CFD Toolbox
   \\    /   O peration     | Website:  https://openfoam.org
    \\  /    A nd           | Version:  10
     \\/     M anipulation  |
\*---------------------------------------------------------------------------*/
FoamFile
{
    format      ascii;
    class       volScalarField;
    location    "2141";
    object      nut;
}
// * * * * * * * * * * * * * * * * * * * * * * * * * * * * * * * * * * * * * //

dimensions      [0 2 -1 0 0 0 0];

internalField   nonuniform List<scalar> 
10060
(
0.000341573
0.000325779
0.000266216
0.000202047
0.000148358
0.000108456
7.84813e-05
5.62411e-05
4.09602e-05
3.02718e-05
2.27154e-05
1.71157e-05
1.31134e-05
1.03022e-05
8.97943e-06
1.11664e-05
1.3223e-05
1.4298e-05
1.50515e-05
1.56573e-05
1.60116e-05
1.61674e-05
1.64354e-05
1.68976e-05
1.72438e-05
1.73753e-05
1.7465e-05
1.76454e-05
1.78681e-05
1.81183e-05
1.83867e-05
1.8662e-05
1.8945e-05
1.92322e-05
1.95299e-05
1.98408e-05
2.01708e-05
2.05211e-05
2.09219e-05
2.14191e-05
2.20581e-05
2.29063e-05
2.40775e-05
2.57652e-05
2.83653e-05
3.23052e-05
3.86329e-05
4.73988e-05
6.08682e-05
8.24746e-05
0.00137481
0.00128906
0.00115354
0.00100154
0.000866653
0.000751978
0.000659301
0.000585238
0.000525218
0.000475297
0.000431141
0.00039196
0.000359575
0.000332828
0.000310381
0.000311682
0.000329131
0.000347928
0.000362924
0.00037523
0.00038374
0.000387201
0.000389748
0.000392347
0.000394991
0.000397388
0.000399284
0.000400901
0.000402317
0.00040357
0.000404675
0.000405633
0.000406456
0.000407155
0.00040774
0.000408226
0.00040863
0.000408957
0.000409191
0.000409347
0.000409435
0.000409439
0.000409344
0.000409114
0.000408721
0.000408063
0.000407054
0.00040527
0.000402233
0.000400492
0.0025452
0.00244597
0.00227175
0.0020494
0.00182191
0.00161972
0.0014453
0.00129994
0.00117803
0.0010729
0.000982689
0.000904458
0.000835331
0.000773997
0.000719108
0.000673884
0.000652838
0.000642187
0.000633028
0.000629749
0.000628885
0.000629872
0.000631715
0.000634346
0.000637382
0.000641053
0.000644598
0.000647286
0.000649168
0.000650445
0.00065129
0.000651834
0.000652159
0.000652319
0.00065233
0.000652223
0.000652021
0.000651743
0.000651337
0.000650791
0.000650107
0.000649253
0.000648194
0.000646875
0.000645213
0.000643101
0.000640271
0.000636392
0.000630209
0.000624779
0.00375545
0.00363778
0.003405
0.00309194
0.00275176
0.00244934
0.00219437
0.0019844
0.00180596
0.00164921
0.00151657
0.00140437
0.00130251
0.00121054
0.00112819
0.00105345
0.000987898
0.000929907
0.000884191
0.000864479
0.000852501
0.000847792
0.000846764
0.000848857
0.000852813
0.000858749
0.00086516
0.000870793
0.000875386
0.000878992
0.000881764
0.000883877
0.000885469
0.000886642
0.00088744
0.000887917
0.000888117
0.000888082
0.000887754
0.000887115
0.000886167
0.000884867
0.00088317
0.000881004
0.00087826
0.000874813
0.000870332
0.000864469
0.000856151
0.00084845
0.00495458
0.0048299
0.00454682
0.00415956
0.00374791
0.00336086
0.00301818
0.00272047
0.00247158
0.00226484
0.0020961
0.00195732
0.00182373
0.00170372
0.00159518
0.0014945
0.00140243
0.00131665
0.00123883
0.00117117
0.00111513
0.0010887
0.00107428
0.001069
0.00106859
0.00107312
0.0010798
0.00108657
0.00109268
0.00109782
0.00110199
0.0011053
0.00110792
0.00110994
0.00111142
0.00111243
0.001113
0.00111321
0.00111299
0.00111233
0.00111124
0.00110968
0.00110759
0.0011049
0.00110151
0.0010973
0.00109194
0.00108516
0.00107623
0.00106816
0.00610434
0.00598193
0.00567935
0.00528343
0.00484734
0.00441089
0.00400333
0.00362848
0.00329729
0.00301043
0.00276764
0.00256432
0.00239308
0.00224895
0.00211918
0.00199436
0.00187902
0.00176812
0.00166664
0.001572
0.00148476
0.00140921
0.00134775
0.00131872
0.00130329
0.00130008
0.00130252
0.0013071
0.00131223
0.0013169
0.00132082
0.00132405
0.00132666
0.0013287
0.00133019
0.00133115
0.00133164
0.00133167
0.0013312
0.00133027
0.00132885
0.00132687
0.00132432
0.00132113
0.00131719
0.0013124
0.00130651
0.00129932
0.00129042
0.00128275
0.00717697
0.00706246
0.00677884
0.00640742
0.00598283
0.00553282
0.00509097
0.00466602
0.00427175
0.00391422
0.00359708
0.00331877
0.00307846
0.00287324
0.00269866
0.00254895
0.00241557
0.00228264
0.00215812
0.00204053
0.00192949
0.00182612
0.00173133
0.00165028
0.00158687
0.00156151
0.00155112
0.00154809
0.00154836
0.00154927
0.00155021
0.00155117
0.00155203
0.00155266
0.00155293
0.00155279
0.00155224
0.00155128
0.00154991
0.00154805
0.00154571
0.00154284
0.00153944
0.00153541
0.00153066
0.00152514
0.00151867
0.00151101
0.00150213
0.00149486
0.0081538
0.00804872
0.00780692
0.00747929
0.00708816
0.00665276
0.00620526
0.00575862
0.00532924
0.004926
0.00455404
0.0042136
0.00390737
0.00363509
0.00339626
0.00318932
0.00301119
0.00285465
0.00271193
0.00257248
0.00243986
0.00231406
0.00219525
0.00208533
0.00198586
0.00190902
0.00185811
0.00183388
0.00182183
0.00181298
0.00180617
0.00180149
0.00179804
0.00179512
0.00179227
0.00178929
0.00178615
0.00178284
0.00177931
0.00177542
0.00177119
0.00176659
0.0017616
0.00175591
0.00174967
0.0017429
0.00173547
0.0017273
0.00171836
0.00171144
0.00902466
0.00893522
0.00873806
0.00846207
0.00811403
0.0077086
0.00727689
0.00683351
0.00639751
0.00597976
0.00558077
0.00520161
0.00484842
0.00452205
0.00422431
0.00395655
0.00371921
0.00351049
0.0033266
0.00316495
0.0030137
0.00286811
0.00272836
0.00259639
0.00247326
0.00237002
0.00229052
0.00222939
0.00218102
0.00214288
0.002116
0.00209868
0.00208602
0.00207533
0.00206565
0.0020565
0.00204791
0.00203988
0.0020323
0.00202436
0.00201658
0.00200894
0.00200135
0.00199367
0.00198577
0.00197761
0.00196907
0.00196011
0.00195075
0.00194383
0.00978638
0.0097145
0.00955894
0.00933434
0.00903595
0.00868337
0.008295
0.0078793
0.00745335
0.00702948
0.00661814
0.00622593
0.0058517
0.00549299
0.00515401
0.00483793
0.0045472
0.00428304
0.00404594
0.0038351
0.00364996
0.00348668
0.00332776
0.0031769
0.0030353
0.00291255
0.0028144
0.00273395
0.00266587
0.00260697
0.00255558
0.00251
0.00247007
0.00243523
0.0024058
0.00237996
0.00235833
0.00234044
0.00232537
0.00231215
0.00230012
0.00228886
0.00227811
0.0022677
0.00225747
0.00224735
0.00223718
0.0022269
0.00221659
0.00220929
0.0104421
0.010387
0.0102672
0.0100878
0.00984616
0.0095549
0.00922418
0.0088573
0.00846648
0.00806223
0.00765564
0.00725405
0.00686689
0.00649863
0.00614121
0.00579712
0.00546934
0.00516114
0.00487546
0.00461427
0.00437959
0.00417279
0.0039903
0.0038246
0.00366656
0.00352693
0.00341323
0.003318
0.00323528
0.00316191
0.00309598
0.00303487
0.00297832
0.00292691
0.00288031
0.00283811
0.00279993
0.00276533
0.00273383
0.00270503
0.00267865
0.00265468
0.00263335
0.00261469
0.00259826
0.0025835
0.00256972
0.00255657
0.00254393
0.00253523
0.0109995
0.0109596
0.0108688
0.0107289
0.0105407
0.0103085
0.0100359
0.00972607
0.00938681
0.00902589
0.00865152
0.00826631
0.0078813
0.00750386
0.00713896
0.00678984
0.00644529
0.00611157
0.00579242
0.00549112
0.00521197
0.00495887
0.00473366
0.00453584
0.00436366
0.00420808
0.0040793
0.00396974
0.00387178
0.0037838
0.00370465
0.00363304
0.00356707
0.00350743
0.00345303
0.00340331
0.00335762
0.00331538
0.00327611
0.00323936
0.00320481
0.00317218
0.00314131
0.00311207
0.00308431
0.00305809
0.00303321
0.00300968
0.00298769
0.00297107
0.0114694
0.0114423
0.011374
0.0112673
0.0111242
0.0109425
0.0107259
0.0104755
0.0101944
0.00988543
0.00955531
0.00920962
0.00885444
0.00849131
0.00812865
0.00777345
0.00742938
0.00709176
0.00675916
0.00643529
0.00612523
0.00583498
0.00556902
0.00533065
0.00512188
0.00494748
0.00480217
0.00467621
0.00456642
0.00446985
0.00438386
0.0043066
0.00423542
0.00417092
0.00411184
0.00405755
0.00400731
0.00396049
0.00391659
0.00387519
0.00383594
0.00379858
0.00376289
0.00372874
0.00369596
0.00366466
0.00363467
0.00360602
0.00357897
0.0035576
0.0118642
0.0118462
0.0117954
0.0117151
0.011608
0.0114688
0.011302
0.0111063
0.0108821
0.0106299
0.0103525
0.0100537
0.00973871
0.00941227
0.00907609
0.00873447
0.00839401
0.00805938
0.00773328
0.00740612
0.0070838
0.00677259
0.00647848
0.00620683
0.00596212
0.00575911
0.00559458
0.00545582
0.00533716
0.00523411
0.00514301
0.00506143
0.00498716
0.00491838
0.00485524
0.00479708
0.00474303
0.00469247
0.00464491
0.00459992
0.00455719
0.00451643
0.00447744
0.00444015
0.00440435
0.00437021
0.00433751
0.00430615
0.0042766
0.00425305
0.0121952
0.0121833
0.0121457
0.0120859
0.0120063
0.0119015
0.0117754
0.0116253
0.0114492
0.0112496
0.0110267
0.0107829
0.0105171
0.0102337
0.00993645
0.00963046
0.0093139
0.0089931
0.00867397
0.00835953
0.00804492
0.0077319
0.00742725
0.00713724
0.00686776
0.00664114
0.0064599
0.00631009
0.0061837
0.00607486
0.00597911
0.00589353
0.00581577
0.00574333
0.00567663
0.00561502
0.00555759
0.00550375
0.00545299
0.00540492
0.00535925
0.00531572
0.00527386
0.00523396
0.00519582
0.0051596
0.00512506
0.00509225
0.00506143
0.00503661
0.0124726
0.0124643
0.0124367
0.0123924
0.0123336
0.0122552
0.0121608
0.0120456
0.0119116
0.0117579
0.0115839
0.0113887
0.0111738
0.0109416
0.0106902
0.010424
0.0101471
0.00985949
0.0095637
0.00926487
0.00896703
0.0086705
0.00837371
0.00808292
0.00780467
0.00756593
0.00737511
0.00721845
0.00708688
0.00697392
0.00687468
0.00678603
0.00670548
0.00663076
0.00656112
0.00649663
0.00643638
0.00637981
0.00632603
0.00627514
0.0062269
0.00618107
0.00613749
0.00609608
0.00605664
0.0060193
0.00598381
0.0059502
0.0059187
0.00589287
0.0127052
0.0126989
0.012679
0.0126461
0.0126026
0.0125442
0.0124736
0.012387
0.0122861
0.0121692
0.0120359
0.0118847
0.0117154
0.0115287
0.0113251
0.011106
0.0108715
0.0106246
0.0103678
0.0101
0.0098259
0.00954999
0.00927668
0.00900158
0.00873129
0.00849423
0.00830345
0.00814637
0.00801405
0.00790019
0.00779997
0.00771023
0.00762856
0.00755341
0.00748222
0.00741547
0.00735306
0.00729455
0.00723949
0.00718754
0.0071384
0.00709182
0.00704766
0.00700582
0.00696607
0.00692853
0.00689292
0.00685926
0.00682774
0.00680125
0.0129002
0.0128953
0.0128812
0.0128567
0.0128245
0.0127809
0.0127274
0.0126631
0.0125875
0.0124984
0.0123967
0.0122811
0.012151
0.0120068
0.0118463
0.0116706
0.0114817
0.0112774
0.0110608
0.010835
0.010597
0.0103508
0.0101014
0.0098537
0.00960626
0.00938429
0.00920348
0.00905331
0.00892564
0.00881499
0.0087171
0.00862841
0.00854728
0.00847258
0.00840184
0.0083361
0.00827469
0.00821712
0.008163
0.00811198
0.00806376
0.00801812
0.0079749
0.00793401
0.00789522
0.00785862
0.00782393
0.00779117
0.00776047
0.0077341
0.0130641
0.0130606
0.0130503
0.013032
0.0130081
0.0129756
0.0129356
0.0128876
0.0128302
0.0127636
0.0126871
0.0125997
0.0125005
0.0123891
0.012265
0.0121286
0.0119787
0.011816
0.011641
0.011454
0.011257
0.0110501
0.0108345
0.0106152
0.0103969
0.0102001
0.010037
0.00989991
0.00978103
0.00967656
0.00958354
0.00949977
0.00942344
0.00935337
0.00928825
0.0092263
0.00916842
0.00911414
0.0090631
0.00901496
0.00896947
0.00892642
0.00888566
0.00884712
0.00881056
0.00877608
0.0087434
0.00871252
0.00868348
0.00865839
0.0132021
0.0131991
0.0131919
0.0131785
0.0131607
0.0131365
0.0131065
0.0130706
0.0130275
0.0129775
0.01292
0.012854
0.0127783
0.012694
0.0125992
0.0124938
0.0123786
0.0122512
0.0121128
0.0119644
0.011805
0.0116363
0.0114597
0.0112752
0.0110874
0.0109165
0.0107739
0.0106523
0.0105466
0.0104538
0.010371
0.0102963
0.0102283
0.0101657
0.0101077
0.0100525
0.0100006
0.00995175
0.00990574
0.00986201
0.00982067
0.00978154
0.00974451
0.00970951
0.00967648
0.00964529
0.0096157
0.00958771
0.00956135
0.00953834
0.0133186
0.0133161
0.0133111
0.0133015
0.0132882
0.01327
0.0132477
0.0132207
0.0131881
0.0131504
0.013107
0.0130566
0.0129995
0.0129353
0.0128632
0.0127835
0.0126947
0.0125967
0.0124899
0.0123737
0.0122493
0.0121154
0.0119736
0.0118257
0.0116716
0.0115285
0.0114076
0.0113043
0.0112145
0.0111353
0.0110646
0.0110008
0.0109425
0.0108888
0.0108389
0.010792
0.0107467
0.0107041
0.010664
0.0106261
0.0105903
0.0105563
0.0105241
0.0104937
0.010465
0.0104378
0.010412
0.0103875
0.0103644
0.010344
0.0134174
0.0134153
0.0134118
0.0134051
0.0133951
0.0133814
0.0133649
0.0133443
0.0133195
0.013291
0.0132577
0.0132198
0.0131768
0.0131284
0.0130739
0.0130129
0.012945
0.0128705
0.0127885
0.0126994
0.0126026
0.0124993
0.0123882
0.0122707
0.0121493
0.0120344
0.0119362
0.0118517
0.011778
0.0117129
0.0116545
0.0116011
0.0115523
0.0115072
0.0114654
0.0114264
0.0113895
0.0113541
0.0113207
0.0112891
0.0112592
0.0112309
0.011204
0.0111785
0.0111544
0.0111316
0.0111098
0.0110892
0.0110697
0.0110523
0.0135012
0.0134996
0.0134971
0.0134927
0.013485
0.0134746
0.0134621
0.0134464
0.0134276
0.0134059
0.0133807
0.013352
0.0133195
0.0132828
0.0132416
0.0131953
0.0131437
0.0130867
0.0130244
0.012956
0.0128823
0.0128022
0.0127165
0.0126257
0.0125302
0.0124409
0.0123636
0.0122966
0.0122373
0.0121845
0.012137
0.0120939
0.0120545
0.0120182
0.0119846
0.0119532
0.0119238
0.0118956
0.0118687
0.0118433
0.0118192
0.0117963
0.0117743
0.0117536
0.0117339
0.0117153
0.0116977
0.0116809
0.0116649
0.0116506
0.0135726
0.0135714
0.0135697
0.0135664
0.0135608
0.013553
0.0135434
0.0135314
0.0135171
0.0135006
0.0134814
0.0134595
0.0134349
0.0134066
0.013375
0.0133397
0.0133005
0.0132575
0.01321
0.0131583
0.0131018
0.0130411
0.0129755
0.0129056
0.0128322
0.0127622
0.0127015
0.0126486
0.0126021
0.0125606
0.0125233
0.0124895
0.0124586
0.0124301
0.0124036
0.0123789
0.0123556
0.0123337
0.0123125
0.0122924
0.0122734
0.0122554
0.0122381
0.0122216
0.012206
0.0121911
0.012177
0.0121637
0.012151
0.0121395
0.0136334
0.0136326
0.0136316
0.0136291
0.013625
0.0136193
0.0136118
0.0136025
0.0135917
0.0135789
0.0135644
0.0135476
0.0135287
0.0135071
0.013483
0.0134562
0.0134264
0.0133934
0.0133575
0.013318
0.0132753
0.0132287
0.0131786
0.0131253
0.0130691
0.0130156
0.0129689
0.0129279
0.0128917
0.0128596
0.0128306
0.0128043
0.0127799
0.0127575
0.0127366
0.0127173
0.0126991
0.0126821
0.0126661
0.0126504
0.0126356
0.0126216
0.0126081
0.0125953
0.012583
0.0125714
0.0125603
0.0125497
0.0125398
0.0125307
0.0136855
0.0136848
0.0136841
0.0136825
0.0136797
0.0136752
0.0136694
0.0136622
0.0136539
0.013644
0.0136328
0.0136198
0.0136053
0.0135888
0.0135704
0.01355
0.0135273
0.0135023
0.0134747
0.0134448
0.0134121
0.0133765
0.0133386
0.0132979
0.0132553
0.0132142
0.0131787
0.0131473
0.0131192
0.0130941
0.0130715
0.0130509
0.0130321
0.0130148
0.0129987
0.0129838
0.0129698
0.0129566
0.0129442
0.0129324
0.0129209
0.01291
0.0128996
0.0128896
0.0128801
0.0128711
0.0128624
0.0128542
0.0128464
0.0128392
0.01373
0.0137296
0.0137291
0.013728
0.013726
0.0137225
0.0137181
0.0137127
0.0137061
0.0136986
0.0136898
0.0136797
0.0136685
0.0136559
0.0136418
0.0136261
0.0136087
0.0135896
0.0135686
0.0135456
0.0135208
0.0134939
0.0134649
0.0134341
0.0134016
0.0133704
0.013343
0.0133187
0.0132971
0.0132779
0.0132605
0.0132447
0.0132302
0.0132169
0.0132045
0.0131929
0.0131821
0.0131719
0.0131623
0.0131532
0.0131445
0.0131359
0.0131279
0.0131202
0.0131128
0.0131057
0.013099
0.0130926
0.0130865
0.0130809
0.0137682
0.013768
0.0137677
0.0137671
0.0137655
0.0137629
0.0137596
0.0137553
0.0137501
0.0137442
0.0137373
0.0137296
0.0137208
0.0137111
0.0137001
0.013688
0.0136747
0.0136601
0.013644
0.0136265
0.0136074
0.013587
0.013565
0.0135418
0.0135171
0.0134932
0.0134723
0.0134538
0.0134372
0.0134224
0.0134089
0.0133966
0.0133853
0.0133749
0.0133652
0.0133562
0.0133478
0.0133398
0.0133323
0.0133252
0.0133185
0.013312
0.0133057
0.0132997
0.013294
0.0132885
0.0132833
0.0132783
0.0132735
0.0132692
0.013801
0.0138009
0.0138009
0.0138004
0.0137993
0.0137974
0.0137947
0.0137915
0.0137874
0.0137827
0.0137774
0.0137712
0.0137645
0.0137568
0.0137484
0.013739
0.0137286
0.0137173
0.013705
0.0136916
0.013677
0.0136613
0.0136446
0.0136268
0.0136081
0.01359
0.0135739
0.0135596
0.0135468
0.0135353
0.0135249
0.0135155
0.0135068
0.0134988
0.0134914
0.0134843
0.0134777
0.0134715
0.0134656
0.0134601
0.0134549
0.0134498
0.013445
0.0134403
0.0134358
0.0134316
0.0134275
0.0134235
0.0134198
0.0134165
0.0138293
0.0138293
0.0138293
0.013829
0.0138282
0.0138267
0.0138247
0.0138221
0.0138189
0.0138152
0.013811
0.0138062
0.0138008
0.0137949
0.0137882
0.013781
0.0137729
0.0137641
0.0137546
0.0137443
0.0137331
0.0137211
0.0137082
0.0136947
0.0136804
0.0136667
0.0136545
0.0136435
0.0136337
0.0136249
0.0136168
0.0136095
0.0136028
0.0135966
0.0135908
0.0135853
0.0135801
0.0135753
0.0135707
0.0135663
0.0135622
0.0135583
0.0135545
0.0135509
0.0135474
0.013544
0.0135408
0.0135377
0.0135347
0.0135321
0.0138536
0.0138537
0.0138538
0.0138536
0.013853
0.0138519
0.0138503
0.0138482
0.0138457
0.0138428
0.0138394
0.0138356
0.0138314
0.0138266
0.0138215
0.0138157
0.0138095
0.0138026
0.0137952
0.0137872
0.0137786
0.0137694
0.0137596
0.0137493
0.0137384
0.0137278
0.0137185
0.0137101
0.0137026
0.0136957
0.0136894
0.0136837
0.0136784
0.0136735
0.0136689
0.0136646
0.0136606
0.0136568
0.0136531
0.0136497
0.0136465
0.0136434
0.0136404
0.0136376
0.0136348
0.0136321
0.0136296
0.0136271
0.0136248
0.0136227
0.0138746
0.0138748
0.0138749
0.0138748
0.0138743
0.0138734
0.0138721
0.0138705
0.0138686
0.0138662
0.0138635
0.0138605
0.0138571
0.0138533
0.0138492
0.0138447
0.0138398
0.0138345
0.0138288
0.0138225
0.0138159
0.0138087
0.0138012
0.0137933
0.013785
0.013777
0.0137697
0.0137632
0.0137573
0.013752
0.0137471
0.0137426
0.0137385
0.0137346
0.013731
0.0137276
0.0137244
0.0137214
0.0137186
0.0137159
0.0137133
0.0137108
0.0137085
0.0137062
0.013704
0.0137019
0.0136999
0.013698
0.0136961
0.0136944
0.0138927
0.0138929
0.0138931
0.013893
0.0138926
0.0138919
0.0138909
0.0138896
0.013888
0.0138861
0.013884
0.0138816
0.0138788
0.0138758
0.0138725
0.0138689
0.0138651
0.0138609
0.0138564
0.0138516
0.0138465
0.013841
0.0138352
0.0138291
0.0138228
0.0138166
0.013811
0.0138059
0.0138013
0.0137971
0.0137933
0.0137899
0.0137866
0.0137836
0.0137807
0.013778
0.0137755
0.013773
0.0137708
0.0137686
0.0137665
0.0137646
0.0137627
0.0137609
0.0137592
0.0137575
0.0137558
0.0137543
0.0137528
0.0137514
0.0139084
0.0139086
0.0139088
0.0139087
0.0139084
0.0139078
0.0139069
0.0139059
0.0139046
0.0139031
0.0139014
0.0138994
0.0138973
0.0138948
0.0138922
0.0138894
0.0138863
0.013883
0.0138795
0.0138757
0.0138716
0.0138674
0.0138629
0.0138581
0.0138532
0.0138485
0.0138441
0.0138402
0.0138367
0.0138334
0.0138304
0.0138277
0.0138252
0.0138227
0.0138204
0.0138183
0.0138163
0.0138144
0.0138125
0.0138108
0.0138091
0.0138076
0.013806
0.0138046
0.0138032
0.0138018
0.0138005
0.0137992
0.013798
0.013797
0.0139219
0.0139221
0.0139223
0.0139223
0.013922
0.0139215
0.0139208
0.0139199
0.0139188
0.0139176
0.0139162
0.0139146
0.0139129
0.0139109
0.0139088
0.0139066
0.0139041
0.0139015
0.0138987
0.0138957
0.0138925
0.0138892
0.0138857
0.013882
0.0138782
0.0138745
0.0138712
0.0138681
0.0138653
0.0138628
0.0138604
0.0138583
0.0138563
0.0138543
0.0138525
0.0138508
0.0138491
0.0138476
0.0138461
0.0138447
0.0138434
0.0138421
0.0138409
0.0138397
0.0138386
0.0138374
0.0138364
0.0138353
0.0138344
0.0138335
0.0139336
0.0139338
0.013934
0.013934
0.0139337
0.0139333
0.0139327
0.013932
0.0139311
0.0139301
0.0139289
0.0139276
0.0139262
0.0139246
0.0139229
0.0139211
0.0139191
0.013917
0.0139148
0.0139124
0.0139099
0.0139073
0.0139045
0.0139017
0.0138988
0.0138959
0.0138934
0.013891
0.0138888
0.0138868
0.0138849
0.0138832
0.0138816
0.01388
0.0138785
0.0138771
0.0138758
0.0138746
0.0138734
0.0138722
0.0138711
0.0138701
0.0138691
0.0138681
0.0138672
0.0138663
0.0138654
0.0138646
0.0138637
0.013863
0.0139437
0.0139439
0.0139441
0.0139441
0.0139439
0.0139435
0.013943
0.0139424
0.0139416
0.0139408
0.0139398
0.0139387
0.0139375
0.0139363
0.0139349
0.0139334
0.0139318
0.0139301
0.0139283
0.0139264
0.0139245
0.0139224
0.0139203
0.013918
0.0139157
0.0139135
0.0139115
0.0139096
0.0139079
0.0139063
0.0139048
0.0139035
0.0139022
0.0139009
0.0138997
0.0138986
0.0138975
0.0138965
0.0138955
0.0138946
0.0138937
0.0138928
0.013892
0.0138912
0.0138904
0.0138897
0.013889
0.0138883
0.0138876
0.013887
0.0139524
0.0139527
0.0139528
0.0139528
0.0139526
0.0139523
0.0139519
0.0139514
0.0139507
0.01395
0.0139492
0.0139483
0.0139473
0.0139462
0.0139451
0.0139439
0.0139426
0.0139412
0.0139398
0.0139383
0.0139367
0.0139351
0.0139334
0.0139316
0.0139298
0.0139281
0.0139265
0.0139251
0.0139237
0.0139224
0.0139213
0.0139202
0.0139191
0.0139181
0.0139171
0.0139162
0.0139153
0.0139145
0.0139137
0.0139129
0.0139122
0.0139115
0.0139108
0.0139101
0.0139095
0.0139088
0.0139082
0.0139077
0.0139071
0.0139066
0.01396
0.0139602
0.0139603
0.0139603
0.0139602
0.0139599
0.0139596
0.0139591
0.0139586
0.013958
0.0139573
0.0139565
0.0139557
0.0139548
0.0139538
0.0139528
0.0139518
0.0139507
0.0139495
0.0139483
0.013947
0.0139457
0.0139444
0.013943
0.0139416
0.0139403
0.013939
0.0139379
0.0139368
0.0139358
0.0139348
0.0139339
0.0139331
0.0139322
0.0139315
0.0139307
0.01393
0.0139293
0.0139286
0.013928
0.0139274
0.0139268
0.0139262
0.0139257
0.0139251
0.0139246
0.0139241
0.0139236
0.0139232
0.0139228
0.0139666
0.0139667
0.0139669
0.0139668
0.0139667
0.0139665
0.0139662
0.0139658
0.0139654
0.0139648
0.0139642
0.0139636
0.0139629
0.0139622
0.0139614
0.0139605
0.0139597
0.0139587
0.0139578
0.0139568
0.0139558
0.0139548
0.0139537
0.0139526
0.0139515
0.0139504
0.0139494
0.0139485
0.0139477
0.0139468
0.0139461
0.0139453
0.0139446
0.013944
0.0139433
0.0139427
0.0139421
0.0139415
0.013941
0.0139404
0.0139399
0.0139394
0.013939
0.0139385
0.013938
0.0139376
0.0139372
0.0139368
0.0139364
0.0139361
0.0139722
0.0139724
0.0139725
0.0139725
0.0139724
0.0139722
0.0139719
0.0139716
0.0139712
0.0139708
0.0139703
0.0139697
0.0139691
0.0139685
0.0139678
0.0139671
0.0139664
0.0139657
0.0139649
0.0139641
0.0139632
0.0139624
0.0139616
0.0139607
0.0139598
0.013959
0.0139582
0.0139575
0.0139568
0.0139561
0.0139555
0.0139549
0.0139543
0.0139537
0.0139532
0.0139527
0.0139522
0.0139517
0.0139512
0.0139508
0.0139504
0.01395
0.0139496
0.0139492
0.0139488
0.0139484
0.0139481
0.0139478
0.0139474
0.0139471
0.0139771
0.0139773
0.0139773
0.0139773
0.0139772
0.0139771
0.0139769
0.0139766
0.0139763
0.0139759
0.0139755
0.013975
0.0139745
0.013974
0.0139734
0.0139728
0.0139722
0.0139716
0.013971
0.0139703
0.0139696
0.0139689
0.0139682
0.0139676
0.0139669
0.0139662
0.0139656
0.013965
0.0139644
0.0139639
0.0139633
0.0139628
0.0139624
0.0139619
0.0139615
0.013961
0.0139606
0.0139602
0.0139598
0.0139595
0.0139591
0.0139588
0.0139584
0.0139581
0.0139578
0.0139575
0.0139572
0.0139569
0.0139566
0.0139564
0.0139814
0.0139815
0.0139815
0.0139815
0.0139815
0.0139813
0.0139811
0.0139809
0.0139806
0.0139803
0.0139799
0.0139796
0.0139791
0.0139787
0.0139782
0.0139777
0.0139772
0.0139767
0.0139762
0.0139756
0.0139751
0.0139745
0.013974
0.0139734
0.0139729
0.0139723
0.0139718
0.0139713
0.0139709
0.0139704
0.01397
0.0139696
0.0139692
0.0139688
0.0139685
0.0139681
0.0139678
0.0139674
0.0139671
0.0139668
0.0139665
0.0139662
0.0139659
0.0139657
0.0139654
0.0139651
0.0139649
0.0139647
0.0139644
0.0139642
0.013985
0.0139851
0.0139852
0.0139852
0.0139851
0.013985
0.0139848
0.0139846
0.0139844
0.0139841
0.0139838
0.0139835
0.0139831
0.0139828
0.0139824
0.013982
0.0139816
0.0139812
0.0139807
0.0139803
0.0139798
0.0139794
0.0139789
0.0139785
0.013978
0.0139776
0.0139772
0.0139768
0.0139764
0.0139761
0.0139757
0.0139754
0.0139751
0.0139748
0.0139745
0.0139742
0.0139739
0.0139736
0.0139733
0.0139731
0.0139728
0.0139726
0.0139724
0.0139721
0.0139719
0.0139717
0.0139715
0.0139713
0.0139711
0.0139709
0.0139882
0.0139883
0.0139883
0.0139883
0.0139883
0.0139882
0.013988
0.0139878
0.0139876
0.0139874
0.0139872
0.0139869
0.0139866
0.0139863
0.013986
0.0139857
0.0139853
0.013985
0.0139847
0.0139843
0.013984
0.0139836
0.0139832
0.0139829
0.0139825
0.0139822
0.0139819
0.0139816
0.0139813
0.013981
0.0139807
0.0139804
0.0139801
0.0139799
0.0139796
0.0139794
0.0139792
0.0139789
0.0139787
0.0139785
0.0139783
0.0139781
0.0139779
0.0139777
0.0139775
0.0139773
0.0139771
0.0139769
0.0139768
0.0139766
0.0139909
0.013991
0.013991
0.013991
0.013991
0.0139909
0.0139908
0.0139906
0.0139905
0.0139903
0.0139901
0.0139899
0.0139896
0.0139894
0.0139892
0.0139889
0.0139886
0.0139884
0.0139881
0.0139878
0.0139876
0.0139873
0.013987
0.0139867
0.0139865
0.0139862
0.0139859
0.0139857
0.0139854
0.0139852
0.013985
0.0139847
0.0139845
0.0139843
0.0139841
0.0139839
0.0139837
0.0139835
0.0139833
0.0139831
0.013983
0.0139828
0.0139826
0.0139824
0.0139823
0.0139821
0.013982
0.0139818
0.0139817
0.0139815
0.0139933
0.0139934
0.0139934
0.0139934
0.0139933
0.0139933
0.0139932
0.0139931
0.0139929
0.0139928
0.0139926
0.0139925
0.0139923
0.0139921
0.0139919
0.0139917
0.0139916
0.0139914
0.0139912
0.013991
0.0139908
0.0139905
0.0139903
0.0139901
0.0139899
0.0139897
0.0139895
0.0139893
0.0139891
0.0139889
0.0139887
0.0139885
0.0139883
0.0139882
0.013988
0.0139878
0.0139876
0.0139875
0.0139873
0.0139872
0.013987
0.0139869
0.0139867
0.0139866
0.0139864
0.0139863
0.0139862
0.013986
0.0139859
0.0139858
0.0139954
0.0139954
0.0139954
0.0139954
0.0139954
0.0139953
0.0139952
0.0139952
0.0139951
0.013995
0.0139948
0.0139947
0.0139946
0.0139945
0.0139944
0.0139943
0.0139942
0.013994
0.0139939
0.0139938
0.0139936
0.0139935
0.0139933
0.0139932
0.013993
0.0139928
0.0139927
0.0139925
0.0139924
0.0139922
0.013992
0.0139919
0.0139917
0.0139916
0.0139914
0.0139913
0.0139912
0.013991
0.0139909
0.0139908
0.0139906
0.0139905
0.0139904
0.0139903
0.0139902
0.01399
0.0139899
0.0139898
0.0139897
0.0139896
0.0139971
0.0139972
0.0139972
0.0139972
0.0139972
0.0139971
0.0139971
0.013997
0.0139969
0.0139969
0.0139968
0.0139967
0.0139967
0.0139967
0.0139967
0.0139966
0.0139966
0.0139966
0.0139965
0.0139965
0.0139964
0.0139963
0.0139961
0.013996
0.0139959
0.0139957
0.0139956
0.0139955
0.0139953
0.0139952
0.013995
0.0139949
0.0139948
0.0139947
0.0139945
0.0139944
0.0139943
0.0139942
0.0139941
0.013994
0.0139938
0.0139937
0.0139936
0.0139935
0.0139934
0.0139934
0.0139933
0.0139932
0.0139931
0.013993
0.0139987
0.0139987
0.0139987
0.0139987
0.0139986
0.0139986
0.0139986
0.0139986
0.0139985
0.0139985
0.0139985
0.0139985
0.0139987
0.0139988
0.013999
0.0139991
0.0139992
0.0139992
0.0139991
0.013999
0.0139988
0.0139987
0.0139985
0.0139984
0.0139983
0.0139981
0.013998
0.0139979
0.0139978
0.0139977
0.0139976
0.0139975
0.0139974
0.0139973
0.0139972
0.0139971
0.013997
0.0139969
0.0139968
0.0139967
0.0139966
0.0139965
0.0139964
0.0139963
0.0139963
0.0139962
0.0139961
0.013996
0.013996
0.0139959
0.000105451
6.03586e-05
4.21414e-05
3.44342e-05
3.04675e-05
2.80645e-05
2.66033e-05
2.59731e-05
2.68063e-05
2.80055e-05
0.000436538
0.000442765
0.000439347
0.00043565
0.000431564
0.000427124
0.000422988
0.000419454
0.000417482
0.000405308
0.000664139
0.00068258
0.000692051
0.000696646
0.00069818
0.000697982
0.000697113
0.000696179
0.000697434
0.000695241
0.000885927
0.000909527
0.00092603
0.00093822
0.000947193
0.000954001
0.000959654
0.000964963
0.000971453
0.000977942
0.00110174
0.00112615
0.00114498
0.00116036
0.00117314
0.00118408
0.001194
0.00120363
0.00121397
0.00122492
0.00131224
0.00133577
0.00135497
0.0013714
0.00138579
0.00139875
0.0014109
0.00142285
0.00143529
0.00144818
0.00152103
0.00154324
0.00156217
0.00157882
0.00159384
0.00160771
0.00162093
0.001634
0.00164737
0.00166093
0.00173532
0.0017565
0.00177516
0.00179194
0.00180732
0.00182172
0.00183554
0.00184916
0.0018629
0.00187655
0.00196663
0.00198751
0.00200632
0.0020235
0.00203938
0.00205429
0.00206856
0.00208248
0.00209628
0.00210962
0.00223237
0.00225384
0.00227336
0.00229119
0.0023076
0.00232284
0.0023372
0.00235091
0.00236414
0.00237653
0.00255948
0.00258164
0.00260142
0.00261907
0.00263493
0.00264933
0.00266253
0.00267478
0.00268623
0.00269656
0.00299185
0.0030107
0.00302769
0.0030431
0.00305719
0.0030702
0.00308234
0.0030938
0.00310469
0.0031148
0.00357504
0.00359136
0.00360624
0.00361981
0.00363223
0.00364364
0.00365419
0.003664
0.00367315
0.00368148
0.00426718
0.00428048
0.0042926
0.00430362
0.00431363
0.00432274
0.00433102
0.00433857
0.00434542
0.00435147
0.00504693
0.00505664
0.00506541
0.00507328
0.00508031
0.00508656
0.00509207
0.00509691
0.00510109
0.00510459
0.00589903
0.00590473
0.00590971
0.005914
0.00591762
0.00592061
0.005923
0.00592482
0.0059261
0.00592698
0.00680322
0.00680486
0.00680599
0.00680662
0.0068068
0.00680652
0.00680577
0.00680455
0.0068029
0.006801
0.00773232
0.00773035
0.00772803
0.00772535
0.00772233
0.00771896
0.00771526
0.00771122
0.00770683
0.00770185
0.00865345
0.00864855
0.00864342
0.00863807
0.0086325
0.0086267
0.00862069
0.00861444
0.00860789
0.00860034
0.00953145
0.00952454
0.00951764
0.00951061
0.00950344
0.00949615
0.00948871
0.00948111
0.00947324
0.00946395
0.0103363
0.0103285
0.0103209
0.0103131
0.0103053
0.0102974
0.0102894
0.0102813
0.0102728
0.010263
0.0110444
0.0110367
0.0110291
0.0110214
0.0110138
0.0110061
0.0109983
0.0109905
0.0109823
0.0109729
0.0116432
0.0116363
0.0116293
0.0116224
0.0116155
0.0116085
0.0116015
0.0115945
0.0115872
0.0115788
0.0121331
0.0121272
0.0121212
0.0121153
0.0121095
0.0121035
0.0120976
0.0120916
0.0120854
0.0120783
0.0125254
0.0125205
0.0125156
0.0125108
0.012506
0.0125011
0.0124963
0.0124914
0.0124863
0.0124805
0.012835
0.0128311
0.0128272
0.0128233
0.0128195
0.0128156
0.0128118
0.0128079
0.0128039
0.0127992
0.0130776
0.0130746
0.0130716
0.0130687
0.0130657
0.0130627
0.0130598
0.0130568
0.0130537
0.0130501
0.0132666
0.0132643
0.013262
0.0132598
0.0132575
0.0132552
0.0132529
0.0132506
0.0132482
0.0132454
0.0134144
0.0134127
0.0134109
0.0134091
0.0134074
0.0134056
0.0134038
0.0134021
0.0134002
0.0133981
0.0135305
0.0135292
0.0135278
0.0135265
0.0135251
0.0135238
0.0135224
0.0135211
0.0135197
0.013518
0.0136215
0.0136205
0.0136195
0.0136185
0.0136174
0.0136164
0.0136154
0.0136143
0.0136133
0.013612
0.0136935
0.0136927
0.013692
0.0136912
0.0136904
0.0136897
0.0136889
0.0136881
0.0136873
0.0136863
0.0137507
0.0137502
0.0137496
0.013749
0.0137484
0.0137478
0.0137472
0.0137466
0.013746
0.0137453
0.0137964
0.013796
0.0137956
0.0137951
0.0137947
0.0137942
0.0137938
0.0137933
0.0137929
0.0137923
0.0138331
0.0138328
0.0138324