/*--------------------------------*- C++ -*----------------------------------*\
  =========                 |
  \\      /  F ield         | OpenFOAM: The Open Source CFD Toolbox
   \\    /   O peration     | Website:  https://openfoam.org
    \\  /    A nd           | Version:  10
     \\/     M anipulation  |
\*---------------------------------------------------------------------------*/
FoamFile
{
    format      ascii;
    class       volScalarField;
    location    "2141";
    object      nuTilda;
}
// * * * * * * * * * * * * * * * * * * * * * * * * * * * * * * * * * * * * * //

dimensions      [0 2 -1 0 0 0 0];

internalField   nonuniform List<scalar> 
10060
(
0.000352074
0.0003372
0.000282191
0.000225793
0.00018184
0.00015116
0.000128667
0.000111529
9.88487e-05
8.89767e-05
8.10432e-05
7.42621e-05
6.86227e-05
6.40215e-05
6.1607e-05
6.18621e-05
6.50294e-05
6.87474e-05
7.10457e-05
7.22374e-05
7.27866e-05
7.30041e-05
7.33618e-05
7.39714e-05
7.44194e-05
7.45836e-05
7.46932e-05
7.49205e-05
7.52012e-05
7.55156e-05
7.58507e-05
7.6192e-05
7.65402e-05
7.68907e-05
7.72515e-05
7.76254e-05
7.80191e-05
7.84337e-05
7.8904e-05
7.9482e-05
8.02157e-05
8.11743e-05
8.24706e-05
8.42868e-05
8.69798e-05
9.08588e-05
9.67017e-05
0.000104249
0.000115099
0.000131611
0.00137552
0.00128986
0.00115455
0.00100289
0.000868446
0.000754358
0.000662387
0.000589137
0.000530028
0.000481122
0.000438141
0.00040031
0.000369332
0.000344008
0.000322983
0.000324025
0.000340328
0.000358169
0.000372489
0.000384266
0.000392424
0.000395745
0.00039819
0.000400685
0.000403224
0.000405528
0.00040735
0.000408905
0.000410267
0.000411473
0.000412536
0.000413458
0.000414251
0.000414923
0.000415486
0.000415954
0.000416342
0.000416656
0.000416881
0.00041703
0.000417113
0.000417116
0.000417022
0.000416799
0.000416418
0.000415782
0.000414807
0.000413084
0.000410153
0.000408474
0.0025454
0.0024462
0.00227201
0.00204972
0.00182232
0.00162024
0.00144595
0.00130075
0.00117901
0.00107409
0.000984097
0.000906119
0.000837276
0.000776259
0.000721723
0.000676851
0.000655991
0.000645446
0.000636384
0.000633142
0.000632288
0.000633264
0.000635086
0.00063769
0.000640693
0.000644326
0.000647835
0.000650495
0.000652359
0.000653622
0.000654458
0.000654997
0.000655318
0.000655475
0.000655486
0.000655379
0.000655178
0.000654902
0.0006545
0.000653959
0.00065328
0.000652434
0.000651385
0.000650077
0.000648431
0.000646339
0.000643537
0.000639696
0.000633576
0.000628202
0.00375554
0.00363788
0.00340511
0.00309209
0.00275193
0.00244956
0.00219466
0.00198475
0.00180638
0.00164971
0.00151716
0.00140506
0.00130332
0.00121147
0.00112926
0.00105468
0.000989293
0.00093148
0.000885929
0.000866297
0.00085437
0.000849682
0.000848658
0.000850741
0.00085468
0.000860589
0.000866973
0.000872582
0.000877156
0.000880747
0.000883507
0.000885612
0.000887198
0.000888365
0.00088916
0.000889635
0.000889833
0.000889799
0.000889471
0.000888835
0.000887889
0.000886594
0.000884904
0.000882747
0.000880012
0.000876579
0.000872116
0.000866277
0.000857993
0.000850325
0.00495464
0.00482996
0.00454688
0.00415964
0.003748
0.00336098
0.00301833
0.00272065
0.00247181
0.00226511
0.00209641
0.00195767
0.00182414
0.00170419
0.00159571
0.00149511
0.00140312
0.00131744
0.00123972
0.00117217
0.00111623
0.00108985
0.00107546
0.00107019
0.00106978
0.0010743
0.00108097
0.00108773
0.00109382
0.00109895
0.00110311
0.00110642
0.00110903
0.00111104
0.00111252
0.00111352
0.0011141
0.00111431
0.00111408
0.00111342
0.00111234
0.00111078
0.00110869
0.00110601
0.00110263
0.00109843
0.00109308
0.00108631
0.0010774
0.00106935
0.00610438
0.00598196
0.00567939
0.00528348
0.0048474
0.00441096
0.00400342
0.00362858
0.00329742
0.00301058
0.00276782
0.00256453
0.00239332
0.00224922
0.00211948
0.0019947
0.00187941
0.00176856
0.00166713
0.00157255
0.00148538
0.0014099
0.0013485
0.00131951
0.00130409
0.00130089
0.00130333
0.0013079
0.00131302
0.00131768
0.0013216
0.00132483
0.00132743
0.00132947
0.00133096
0.00133192
0.0013324
0.00133243
0.00133197
0.00133104
0.00132962
0.00132764
0.00132509
0.0013219
0.00131797
0.00131318
0.0013073
0.00130012
0.00129123
0.00128357
0.007177
0.00706249
0.00677887
0.00640745
0.00598287
0.00553287
0.00509102
0.00466608
0.00427183
0.00391431
0.00359718
0.0033189
0.00307861
0.00287341
0.00269885
0.00254916
0.0024158
0.0022829
0.00215842
0.00204086
0.00192986
0.00182653
0.00173179
0.00165078
0.00158742
0.00156207
0.00155169
0.00154866
0.00154893
0.00154984
0.00155078
0.00155174
0.0015526
0.00155323
0.0015535
0.00155335
0.0015528
0.00155184
0.00155047
0.00154862
0.00154628
0.00154341
0.00154001
0.00153598
0.00153124
0.00152572
0.00151926
0.00151161
0.00150273
0.00149547
0.00815383
0.00804874
0.00780694
0.00747931
0.00708818
0.00665279
0.0062053
0.00575866
0.00532929
0.00492605
0.00455411
0.00421368
0.00390746
0.0036352
0.00339637
0.00318946
0.00301134
0.00285482
0.00271212
0.00257268
0.00244009
0.00231432
0.00219553
0.00208564
0.0019862
0.00190939
0.00185851
0.00183429
0.00182224
0.0018134
0.00180659
0.00180191
0.00179847
0.00179554
0.0017927
0.00178972
0.00178658
0.00178327
0.00177974
0.00177585
0.00177162
0.00176702
0.00176204
0.00175635
0.00175012
0.00174334
0.00173592
0.00172775
0.00171882
0.0017119
0.00902468
0.00893524
0.00873807
0.00846209
0.00811405
0.00770862
0.00727691
0.00683354
0.00639755
0.0059798
0.00558081
0.00520166
0.00484848
0.00452212
0.00422439
0.00395663
0.00371931
0.0035106
0.00332673
0.00316509
0.00301385
0.00286828
0.00272854
0.00259659
0.00247349
0.00237026
0.00229078
0.00222967
0.00218131
0.00214317
0.00211631
0.00209899
0.00208633
0.00207565
0.00206597
0.00205683
0.00204823
0.00204021
0.00203263
0.00202469
0.00201692
0.00200927
0.00200169
0.00199401
0.00198611
0.00197796
0.00196942
0.00196046
0.00195111
0.00194419
0.0097864
0.00971451
0.00955896
0.00933435
0.00903597
0.00868338
0.00829501
0.00787932
0.00745337
0.0070295
0.00661817
0.00622597
0.00585174
0.00549304
0.00515407
0.00483799
0.00454727
0.00428312
0.00404602
0.0038352
0.00365006
0.00348679
0.00332788
0.00317703
0.00303545
0.00291271
0.00281457
0.00273413
0.00266606
0.00260717
0.00255579
0.00251022
0.0024703
0.00243546
0.00240604
0.0023802
0.00235858
0.00234069
0.00232562
0.0023124
0.00230038
0.00228912
0.00227837
0.00226797
0.00225773
0.00224762
0.00223745
0.00222718
0.00221687
0.00220957
0.0104421
0.0103871
0.0102672
0.0100878
0.00984617
0.00955491
0.0092242
0.00885731
0.0084665
0.00806225
0.00765567
0.00725408
0.00686691
0.00649866
0.00614125
0.00579716
0.00546938
0.0051612
0.00487552
0.00461434
0.00437966
0.00417287
0.00399038
0.00382469
0.00366666
0.00352704
0.00341334
0.00331812
0.00323541
0.00316205
0.00309612
0.00303502
0.00297848
0.00292707
0.00288047
0.00283828
0.00280011
0.00276551
0.00273401
0.00270522
0.00267884
0.00265487
0.00263355
0.00261489
0.00259847
0.0025837
0.00256993
0.00255678
0.00254414
0.00253544
0.0109995
0.0109596
0.0108688
0.0107289
0.0105407
0.0103085
0.0100359
0.00972608
0.00938683
0.0090259
0.00865153
0.00826633
0.00788133
0.00750388
0.00713898
0.00678987
0.00644532
0.0061116
0.00579246
0.00549117
0.00521202
0.00495892
0.00473372
0.0045359
0.00436373
0.00420816
0.00407938
0.00396983
0.00387188
0.00378389
0.00370475
0.00363315
0.00356718
0.00350754
0.00345315
0.00340343
0.00335774
0.00331551
0.00327623
0.00323949
0.00320494
0.00317231
0.00314145
0.00311221
0.00308446
0.00305824
0.00303336
0.00300983
0.00298785
0.00297123
0.0114694
0.0114423
0.011374
0.0112673
0.0111242
0.0109425
0.0107259
0.0104756
0.0101944
0.00988544
0.00955533
0.00920963
0.00885446
0.00849133
0.00812867
0.00777348
0.0074294
0.00709179
0.00675919
0.00643532
0.00612527
0.00583502
0.00556907
0.0053307
0.00512193
0.00494754
0.00480223
0.00467627
0.00456648
0.00446992
0.00438394
0.00430667
0.00423549
0.004171
0.00411192
0.00405764
0.00400739
0.00396057
0.00391668
0.00387528
0.00383604
0.00379867
0.00376298
0.00372884
0.00369605
0.00366476
0.00363477
0.00360612
0.00357907
0.00355771
0.0118643
0.0118462
0.0117954
0.0117151
0.011608
0.0114688
0.011302
0.0111063
0.0108821
0.0106299
0.0103525
0.0100537
0.00973872
0.00941229
0.0090761
0.00873449
0.00839403
0.0080594
0.00773331
0.00740614
0.00708383
0.00677262
0.00647851
0.00620687
0.00596216
0.00575915
0.00559463
0.00545587
0.00533721
0.00523416
0.00514306
0.00506148
0.00498721
0.00491844
0.0048553
0.00479714
0.00474309
0.00469254
0.00464497
0.00459999
0.00455725
0.0045165
0.00447751
0.00444022
0.00440442
0.00437028
0.00433758
0.00430622
0.00427668
0.00425312
0.0121952
0.0121833
0.0121457
0.0120859
0.0120063
0.0119015
0.0117754
0.0116253
0.0114492
0.0112496
0.0110267
0.0107829
0.0105171
0.0102337
0.00993646
0.00963048
0.00931392
0.00899312
0.00867399
0.00835955
0.00804494
0.00773192
0.00742728
0.00713726
0.00686779
0.00664118
0.00645993
0.00631012
0.00618373
0.0060749
0.00597914
0.00589357
0.00581581
0.00574338
0.00567667
0.00561506
0.00555764
0.0055038
0.00545303
0.00540497
0.0053593
0.00531577
0.00527391
0.00523401
0.00519587
0.00515965
0.00512512
0.0050923
0.00506149
0.00503666
0.0124726
0.0124644
0.0124367
0.0123924
0.0123336
0.0122552
0.0121608
0.0120456
0.0119116
0.011758
0.0115839
0.0113887
0.0111738
0.0109416
0.0106902
0.010424
0.0101471
0.00985951
0.00956372
0.00926489
0.00896705
0.00867052
0.00837373
0.00808294
0.00780469
0.00756595
0.00737513
0.00721847
0.00708691
0.00697394
0.00687471
0.00678606
0.00670551
0.00663079
0.00656115
0.00649666
0.00643641
0.00637985
0.00632606
0.00627517
0.00622693
0.00618111
0.00613752
0.00609612
0.00605668
0.00601934
0.00598385
0.00595023
0.00591874
0.00589291
0.0127052
0.0126989
0.012679
0.0126461
0.0126026
0.0125442
0.0124736
0.012387
0.0122861
0.0121692
0.0120359
0.0118847
0.0117154
0.0115287
0.0113251
0.011106
0.0108715
0.0106246
0.0103678
0.0101001
0.00982591
0.00955001
0.00927669
0.0090016
0.0087313
0.00849425
0.00830347
0.00814639
0.00801407
0.00790021
0.0078
0.00771025
0.00762859
0.00755344
0.00748224
0.00741549
0.00735309
0.00729458
0.00723952
0.00718757
0.00713842
0.00709185
0.00704769
0.00700584
0.0069661
0.00692856
0.00689295
0.00685929
0.00682777
0.00680128
0.0129003
0.0128953
0.0128812
0.0128567
0.0128245
0.0127809
0.0127274
0.0126631
0.0125875
0.0124984
0.0123967
0.0122811
0.012151
0.0120068
0.0118463
0.0116706
0.0114817
0.0112774
0.0110608
0.0108351
0.010597
0.0103508
0.0101014
0.00985371
0.00960628
0.0093843
0.0092035
0.00905332
0.00892566
0.00881501
0.00871711
0.00862843
0.0085473
0.0084726
0.00840186
0.00833612
0.00827471
0.00821714
0.00816302
0.008112
0.00806379
0.00801814
0.00797492
0.00793403
0.00789524
0.00785864
0.00782395
0.00779119
0.00776049
0.00773412
0.0130641
0.0130606
0.0130503
0.0130321
0.0130081
0.0129756
0.0129356
0.0128876
0.0128302
0.0127636
0.0126871
0.0125997
0.0125005
0.0123891
0.012265
0.0121286
0.0119787
0.011816
0.011641
0.011454
0.011257
0.0110501
0.0108346
0.0106152
0.0103969
0.0102001
0.010037
0.00989992
0.00978104
0.00967658
0.00958355
0.00949979
0.00942346
0.00935338
0.00928826
0.00922632
0.00916843
0.00911416
0.00906312
0.00901498
0.00896949
0.00892644
0.00888568
0.00884714
0.00881058
0.0087761
0.00874342
0.00871254
0.0086835
0.00865841
0.0132021
0.0131991
0.0131919
0.0131785
0.0131608
0.0131365
0.0131066
0.0130707
0.0130275
0.0129775
0.01292
0.012854
0.0127783
0.012694
0.0125992
0.0124938
0.0123786
0.0122512
0.0121128
0.0119644
0.011805
0.0116364
0.0114597
0.0112752
0.0110875
0.0109165
0.0107739
0.0106523
0.0105466
0.0104538
0.010371
0.0102963
0.0102283
0.0101658
0.0101077
0.0100526
0.0100006
0.00995176
0.00990576
0.00986202
0.00982068
0.00978155
0.00974452
0.00970952
0.00967649
0.00964531
0.00961572
0.00958773
0.00956136
0.00953836
0.0133186
0.0133161
0.0133111
0.0133015
0.0132882
0.01327
0.0132477
0.0132207
0.0131881
0.0131505
0.0131071
0.0130566
0.0129995
0.0129353
0.0128633
0.0127835
0.0126947
0.0125967
0.0124899
0.0123738
0.0122493
0.0121154
0.0119736
0.0118257
0.0116716
0.0115285
0.0114076
0.0113043
0.0112145
0.0111353
0.0110647
0.0110008
0.0109425
0.0108888
0.010839
0.010792
0.0107467
0.0107041
0.010664
0.0106261
0.0105903
0.0105563
0.0105242
0.0104937
0.010465
0.0104378
0.010412
0.0103875
0.0103644
0.0103441
0.0134174
0.0134153
0.0134118
0.0134051
0.0133951
0.0133814
0.0133649
0.0133443
0.0133195
0.013291
0.0132577
0.0132198
0.0131768
0.0131284
0.0130739
0.0130129
0.0129451
0.0128705
0.0127885
0.0126994
0.0126026
0.0124993
0.0123882
0.0122708
0.0121493
0.0120344
0.0119362
0.0118517
0.011778
0.0117129
0.0116545
0.0116012
0.0115523
0.0115072
0.0114654
0.0114264
0.0113895
0.0113541
0.0113207
0.0112891
0.0112592
0.0112309
0.011204
0.0111785
0.0111544
0.0111316
0.0111098
0.0110892
0.0110697
0.0110523
0.0135012
0.0134996
0.0134971
0.0134927
0.013485
0.0134746
0.0134621
0.0134464
0.0134276
0.013406
0.0133807
0.013352
0.0133195
0.0132828
0.0132416
0.0131953
0.0131437
0.0130867
0.0130244
0.012956
0.0128823
0.0128022
0.0127165
0.0126257
0.0125302
0.0124409
0.0123636
0.0122966
0.0122373
0.0121845
0.012137
0.0120939
0.0120545
0.0120182
0.0119846
0.0119532
0.0119238
0.0118956
0.0118688
0.0118433
0.0118192
0.0117963
0.0117744
0.0117536
0.0117339
0.0117153
0.0116977
0.0116809
0.0116649
0.0116506
0.0135726
0.0135714
0.0135697
0.0135664
0.0135608
0.013553
0.0135434
0.0135314
0.0135171
0.0135006
0.0134814
0.0134595
0.0134349
0.0134066
0.013375
0.0133397
0.0133005
0.0132575
0.01321
0.0131583
0.0131018
0.0130411
0.0129755
0.0129056
0.0128322
0.0127622
0.0127015
0.0126487
0.0126021
0.0125606
0.0125233
0.0124895
0.0124586
0.0124301
0.0124036
0.0123789
0.0123556
0.0123337
0.0123125
0.0122924
0.0122734
0.0122554
0.0122381
0.0122216
0.012206
0.0121911
0.012177
0.0121637
0.012151
0.0121395
0.0136334
0.0136326
0.0136316
0.0136291
0.013625
0.0136194
0.0136118
0.0136025
0.0135917
0.0135789
0.0135644
0.0135476
0.0135287
0.0135071
0.013483
0.0134562
0.0134264
0.0133934
0.0133575
0.013318
0.0132753
0.0132287
0.0131786
0.0131253
0.0130691
0.0130157
0.0129689
0.0129279
0.0128918
0.0128596
0.0128306
0.0128043
0.0127799
0.0127575
0.0127366
0.0127173
0.0126991
0.0126821
0.0126661
0.0126505
0.0126356
0.0126216
0.0126081
0.0125953
0.012583
0.0125714
0.0125603
0.0125498
0.0125398
0.0125307
0.0136855
0.0136849
0.0136841
0.0136825
0.0136797
0.0136752
0.0136694
0.0136622
0.0136539
0.013644
0.0136328
0.0136198
0.0136053
0.0135888
0.0135704
0.01355
0.0135273
0.0135023
0.0134747
0.0134448
0.0134121
0.0133766
0.0133386
0.013298
0.0132553
0.0132143
0.0131787
0.0131473
0.0131192
0.0130942
0.0130715
0.013051
0.0130321
0.0130148
0.0129987
0.0129838
0.0129698
0.0129566
0.0129443
0.0129324
0.0129209
0.01291
0.0128996
0.0128896
0.0128801
0.0128711
0.0128624
0.0128542
0.0128464
0.0128392
0.01373
0.0137296
0.0137292
0.013728
0.013726
0.0137226
0.0137181
0.0137127
0.0137061
0.0136986
0.0136898
0.0136797
0.0136685
0.013656
0.0136418
0.0136261
0.0136087
0.0135896
0.0135686
0.0135456
0.0135209
0.0134939
0.0134649
0.0134341
0.0134016
0.0133704
0.013343
0.0133187
0.0132971
0.0132779
0.0132605
0.0132447
0.0132302
0.0132169
0.0132045
0.0131929
0.0131821
0.0131719
0.0131623
0.0131532
0.0131445
0.013136
0.0131279
0.0131202
0.0131128
0.0131058
0.013099
0.0130926
0.0130865
0.0130809
0.0137682
0.013768
0.0137678
0.0137671
0.0137655
0.0137629
0.0137596
0.0137553
0.0137501
0.0137442
0.0137373
0.0137296
0.0137208
0.0137111
0.0137001
0.013688
0.0136747
0.0136601
0.0136441
0.0136265
0.0136074
0.013587
0.013565
0.0135418
0.0135171
0.0134932
0.0134723
0.0134538
0.0134373
0.0134224
0.0134089
0.0133966
0.0133853
0.0133749
0.0133652
0.0133562
0.0133478
0.0133398
0.0133323
0.0133252
0.0133185
0.013312
0.0133057
0.0132997
0.013294
0.0132885
0.0132833
0.0132783
0.0132735
0.0132692
0.013801
0.0138009
0.0138009
0.0138004
0.0137994
0.0137974
0.0137947
0.0137915
0.0137874
0.0137827
0.0137774
0.0137712
0.0137645
0.0137568
0.0137484
0.013739
0.0137286
0.0137174
0.013705
0.0136916
0.013677
0.0136613
0.0136446
0.0136268
0.0136081
0.01359
0.0135739
0.0135596
0.0135468
0.0135354
0.013525
0.0135155
0.0135068
0.0134988
0.0134914
0.0134843
0.0134777
0.0134715
0.0134656
0.0134601
0.0134549
0.0134498
0.013445
0.0134403
0.0134359
0.0134316
0.0134275
0.0134236
0.0134198
0.0134165
0.0138293
0.0138293
0.0138293
0.013829
0.0138282
0.0138267
0.0138247
0.0138221
0.0138189
0.0138152
0.013811
0.0138062
0.0138008
0.0137949
0.0137882
0.013781
0.0137729
0.0137642
0.0137546
0.0137443
0.0137331
0.0137211
0.0137082
0.0136947
0.0136804
0.0136667
0.0136545
0.0136435
0.0136337
0.0136249
0.0136168
0.0136095
0.0136028
0.0135966
0.0135909
0.0135853
0.0135802
0.0135753
0.0135707
0.0135663
0.0135622
0.0135583
0.0135545
0.0135509
0.0135474
0.013544
0.0135408
0.0135377
0.0135348
0.0135321
0.0138536
0.0138537
0.0138538
0.0138536
0.013853
0.0138519
0.0138503
0.0138482
0.0138457
0.0138428
0.0138394
0.0138356
0.0138314
0.0138266
0.0138215
0.0138157
0.0138095
0.0138026
0.0137952
0.0137872
0.0137786
0.0137694
0.0137596
0.0137493
0.0137384
0.0137279
0.0137185
0.0137101
0.0137026
0.0136957
0.0136894
0.0136837
0.0136784
0.0136735
0.0136689
0.0136646
0.0136606
0.0136568
0.0136532
0.0136497
0.0136465
0.0136434
0.0136404
0.0136376
0.0136348
0.0136321
0.0136296
0.0136272
0.0136248
0.0136227
0.0138746
0.0138748
0.0138749
0.0138748
0.0138743
0.0138734
0.0138721
0.0138705
0.0138686
0.0138662
0.0138635
0.0138605
0.0138571
0.0138533
0.0138492
0.0138447
0.0138398
0.0138345
0.0138288
0.0138225
0.0138159
0.0138088
0.0138012
0.0137933
0.013785
0.013777
0.0137697
0.0137632
0.0137573
0.013752
0.0137471
0.0137426
0.0137385
0.0137346
0.013731
0.0137276
0.0137244
0.0137214
0.0137186
0.0137159
0.0137133
0.0137108
0.0137085
0.0137062
0.013704
0.0137019
0.0136999
0.013698
0.0136961
0.0136944
0.0138927
0.0138929
0.0138931
0.013893
0.0138926
0.0138919
0.0138909
0.0138896
0.013888
0.0138861
0.013884
0.0138816
0.0138788
0.0138758
0.0138726
0.013869
0.0138651
0.013861
0.0138564
0.0138516
0.0138465
0.013841
0.0138352
0.0138291
0.0138228
0.0138166
0.013811
0.0138059
0.0138013
0.0137972
0.0137934
0.0137899
0.0137866
0.0137836
0.0137807
0.013778
0.0137755
0.0137731
0.0137708
0.0137686
0.0137666
0.0137646
0.0137627
0.0137609
0.0137592
0.0137575
0.0137558
0.0137543
0.0137528
0.0137514
0.0139084
0.0139086
0.0139088
0.0139087
0.0139084
0.0139078
0.013907
0.0139059
0.0139046
0.0139031
0.0139014
0.0138994
0.0138973
0.0138948
0.0138922
0.0138894
0.0138863
0.013883
0.0138795
0.0138757
0.0138717
0.0138674
0.0138629
0.0138582
0.0138532
0.0138485
0.0138441
0.0138402
0.0138367
0.0138334
0.0138304
0.0138277
0.0138252
0.0138227
0.0138204
0.0138183
0.0138163
0.0138144
0.0138125
0.0138108
0.0138091
0.0138076
0.0138061
0.0138046
0.0138032
0.0138018
0.0138005
0.0137993
0.013798
0.013797
0.0139219
0.0139222
0.0139223
0.0139223
0.013922
0.0139215
0.0139208
0.0139199
0.0139188
0.0139176
0.0139162
0.0139146
0.0139129
0.0139109
0.0139088
0.0139066
0.0139041
0.0139015
0.0138987
0.0138957
0.0138925
0.0138892
0.0138857
0.013882
0.0138782
0.0138745
0.0138712
0.0138681
0.0138653
0.0138628
0.0138605
0.0138583
0.0138563
0.0138543
0.0138525
0.0138508
0.0138492
0.0138476
0.0138462
0.0138448
0.0138434
0.0138421
0.0138409
0.0138397
0.0138386
0.0138375
0.0138364
0.0138354
0.0138344
0.0138335
0.0139336
0.0139338
0.013934
0.013934
0.0139338
0.0139333
0.0139327
0.013932
0.0139311
0.0139301
0.0139289
0.0139276
0.0139262
0.0139246
0.0139229
0.0139211
0.0139191
0.013917
0.0139148
0.0139124
0.0139099
0.0139073
0.0139045
0.0139017
0.0138988
0.0138959
0.0138934
0.013891
0.0138888
0.0138868
0.0138849
0.0138832
0.0138816
0.01388
0.0138786
0.0138772
0.0138758
0.0138746
0.0138734
0.0138722
0.0138711
0.0138701
0.0138691
0.0138681
0.0138672
0.0138663
0.0138654
0.0138646
0.0138638
0.013863
0.0139437
0.013944
0.0139441
0.0139441
0.0139439
0.0139435
0.013943
0.0139424
0.0139417
0.0139408
0.0139398
0.0139387
0.0139375
0.0139363
0.0139349
0.0139334
0.0139318
0.0139301
0.0139283
0.0139265
0.0139245
0.0139224
0.0139203
0.013918
0.0139157
0.0139135
0.0139115
0.0139096
0.0139079
0.0139063
0.0139048
0.0139035
0.0139022
0.0139009
0.0138997
0.0138986
0.0138975
0.0138965
0.0138955
0.0138946
0.0138937
0.0138928
0.013892
0.0138912
0.0138904
0.0138897
0.013889
0.0138883
0.0138876
0.013887
0.0139524
0.0139527
0.0139528
0.0139528
0.0139526
0.0139523
0.0139519
0.0139514
0.0139508
0.01395
0.0139492
0.0139483
0.0139473
0.0139462
0.0139451
0.0139439
0.0139426
0.0139412
0.0139398
0.0139383
0.0139367
0.0139351
0.0139334
0.0139316
0.0139298
0.0139281
0.0139265
0.0139251
0.0139237
0.0139224
0.0139213
0.0139202
0.0139191
0.0139181
0.0139171
0.0139162
0.0139153
0.0139145
0.0139137
0.0139129
0.0139122
0.0139115
0.0139108
0.0139101
0.0139095
0.0139089
0.0139083
0.0139077
0.0139071
0.0139066
0.01396
0.0139602
0.0139604
0.0139603
0.0139602
0.0139599
0.0139596
0.0139591
0.0139586
0.013958
0.0139573
0.0139565
0.0139557
0.0139548
0.0139538
0.0139528
0.0139518
0.0139507
0.0139495
0.0139483
0.0139471
0.0139457
0.0139444
0.013943
0.0139416
0.0139403
0.013939
0.0139379
0.0139368
0.0139358
0.0139349
0.0139339
0.0139331
0.0139323
0.0139315
0.0139307
0.01393
0.0139293
0.0139286
0.013928
0.0139274
0.0139268
0.0139262
0.0139257
0.0139251
0.0139246
0.0139241
0.0139236
0.0139232
0.0139228
0.0139666
0.0139668
0.0139669
0.0139668
0.0139667
0.0139665
0.0139662
0.0139658
0.0139654
0.0139648
0.0139643
0.0139636
0.0139629
0.0139622
0.0139614
0.0139605
0.0139597
0.0139587
0.0139578
0.0139568
0.0139558
0.0139548
0.0139537
0.0139526
0.0139515
0.0139504
0.0139495
0.0139485
0.0139477
0.0139468
0.0139461
0.0139453
0.0139446
0.013944
0.0139433
0.0139427
0.0139421
0.0139415
0.013941
0.0139404
0.0139399
0.0139394
0.013939
0.0139385
0.0139381
0.0139376
0.0139372
0.0139368
0.0139364
0.0139361
0.0139722
0.0139724
0.0139725
0.0139725
0.0139724
0.0139722
0.0139719
0.0139716
0.0139712
0.0139708
0.0139703
0.0139697
0.0139691
0.0139685
0.0139678
0.0139671
0.0139664
0.0139657
0.0139649
0.0139641
0.0139633
0.0139624
0.0139616
0.0139607
0.0139598
0.013959
0.0139582
0.0139575
0.0139568
0.0139561
0.0139555
0.0139549
0.0139543
0.0139537
0.0139532
0.0139527
0.0139522
0.0139517
0.0139512
0.0139508
0.0139504
0.01395
0.0139496
0.0139492
0.0139488
0.0139484
0.0139481
0.0139478
0.0139474
0.0139471
0.0139771
0.0139773
0.0139773
0.0139773
0.0139772
0.0139771
0.0139769
0.0139766
0.0139763
0.0139759
0.0139755
0.013975
0.0139745
0.013974
0.0139734
0.0139728
0.0139722
0.0139716
0.013971
0.0139703
0.0139696
0.0139689
0.0139683
0.0139676
0.0139669
0.0139662
0.0139656
0.013965
0.0139644
0.0139639
0.0139633
0.0139628
0.0139624
0.0139619
0.0139615
0.013961
0.0139606
0.0139602
0.0139598
0.0139595
0.0139591
0.0139588
0.0139584
0.0139581
0.0139578
0.0139575
0.0139572
0.0139569
0.0139566
0.0139564
0.0139814
0.0139815
0.0139815
0.0139815
0.0139815
0.0139813
0.0139811
0.0139809
0.0139806
0.0139803
0.0139799
0.0139796
0.0139791
0.0139787
0.0139782
0.0139777
0.0139772
0.0139767
0.0139762
0.0139757
0.0139751
0.0139745
0.013974
0.0139734
0.0139729
0.0139723
0.0139718
0.0139714
0.0139709
0.0139704
0.01397
0.0139696
0.0139692
0.0139688
0.0139685
0.0139681
0.0139678
0.0139674
0.0139671
0.0139668
0.0139665
0.0139662
0.0139659
0.0139657
0.0139654
0.0139651
0.0139649
0.0139647
0.0139644
0.0139642
0.013985
0.0139851
0.0139852
0.0139852
0.0139851
0.013985
0.0139848
0.0139846
0.0139844
0.0139841
0.0139838
0.0139835
0.0139831
0.0139828
0.0139824
0.013982
0.0139816
0.0139812
0.0139807
0.0139803
0.0139798
0.0139794
0.0139789
0.0139785
0.0139781
0.0139776
0.0139772
0.0139768
0.0139765
0.0139761
0.0139758
0.0139754
0.0139751
0.0139748
0.0139745
0.0139742
0.0139739
0.0139736
0.0139734
0.0139731
0.0139728
0.0139726
0.0139724
0.0139721
0.0139719
0.0139717
0.0139715
0.0139713
0.0139711
0.0139709
0.0139882
0.0139883
0.0139883
0.0139883
0.0139883
0.0139882
0.013988
0.0139879
0.0139876
0.0139874
0.0139872
0.0139869
0.0139866
0.0139863
0.013986
0.0139857
0.0139854
0.013985
0.0139847
0.0139843
0.013984
0.0139836
0.0139832
0.0139829
0.0139825
0.0139822
0.0139819
0.0139816
0.0139813
0.013981
0.0139807
0.0139804
0.0139801
0.0139799
0.0139796
0.0139794
0.0139792
0.0139789
0.0139787
0.0139785
0.0139783
0.0139781
0.0139779
0.0139777
0.0139775
0.0139773
0.0139771
0.013977
0.0139768
0.0139766
0.0139909
0.013991
0.013991
0.013991
0.013991
0.0139909
0.0139908
0.0139906
0.0139905
0.0139903
0.0139901
0.0139899
0.0139896
0.0139894
0.0139892
0.0139889
0.0139887
0.0139884
0.0139881
0.0139878
0.0139876
0.0139873
0.013987
0.0139867
0.0139865
0.0139862
0.0139859
0.0139857
0.0139854
0.0139852
0.013985
0.0139848
0.0139845
0.0139843
0.0139841
0.0139839
0.0139837
0.0139835
0.0139833
0.0139831
0.013983
0.0139828
0.0139826
0.0139825
0.0139823
0.0139821
0.013982
0.0139818
0.0139817
0.0139816
0.0139933
0.0139934
0.0139934
0.0139934
0.0139933
0.0139933
0.0139932
0.0139931
0.0139929
0.0139928
0.0139926
0.0139925
0.0139923
0.0139921
0.0139919
0.0139918
0.0139916
0.0139914
0.0139912
0.013991
0.0139908
0.0139905
0.0139903
0.0139901
0.0139899
0.0139897
0.0139895
0.0139893
0.0139891
0.0139889
0.0139887
0.0139885
0.0139883
0.0139882
0.013988
0.0139878
0.0139876
0.0139875
0.0139873
0.0139872
0.013987
0.0139869
0.0139867
0.0139866
0.0139864
0.0139863
0.0139862
0.013986
0.0139859
0.0139858
0.0139954
0.0139954
0.0139954
0.0139954
0.0139954
0.0139953
0.0139953
0.0139952
0.0139951
0.013995
0.0139949
0.0139947
0.0139946
0.0139945
0.0139944
0.0139943
0.0139942
0.0139941
0.0139939
0.0139938
0.0139936
0.0139935
0.0139933
0.0139932
0.013993
0.0139928
0.0139927
0.0139925
0.0139924
0.0139922
0.0139921
0.0139919
0.0139917
0.0139916
0.0139914
0.0139913
0.0139912
0.013991
0.0139909
0.0139908
0.0139906
0.0139905
0.0139904
0.0139903
0.0139902
0.0139901
0.0139899
0.0139898
0.0139897
0.0139896
0.0139971
0.0139972
0.0139972
0.0139972
0.0139972
0.0139971
0.0139971
0.013997
0.0139969
0.0139969
0.0139968
0.0139967
0.0139967
0.0139967
0.0139967
0.0139967
0.0139966
0.0139966
0.0139966
0.0139965
0.0139964
0.0139963
0.0139961
0.013996
0.0139959
0.0139957
0.0139956
0.0139955
0.0139953
0.0139952
0.0139951
0.0139949
0.0139948
0.0139947
0.0139945
0.0139944
0.0139943
0.0139942
0.0139941
0.013994
0.0139939
0.0139937
0.0139936
0.0139935
0.0139935
0.0139934
0.0139933
0.0139932
0.0139931
0.013993
0.0139987
0.0139987
0.0139987
0.0139987
0.0139987
0.0139986
0.0139986
0.0139986
0.0139985
0.0139985
0.0139985
0.0139985
0.0139987
0.0139988
0.013999
0.0139991
0.0139992
0.0139992
0.0139991
0.013999
0.0139988
0.0139987
0.0139985
0.0139984
0.0139983
0.0139981
0.013998
0.0139979
0.0139978
0.0139977
0.0139976
0.0139975
0.0139974
0.0139973
0.0139972
0.0139971
0.013997
0.0139969
0.0139968
0.0139967
0.0139966
0.0139965
0.0139964
0.0139964
0.0139963
0.0139962
0.0139961
0.013996
0.013996
0.0139959
0.000148847
0.000114692
9.97811e-05
9.28664e-05
8.9071e-05
8.66692e-05
8.51645e-05
8.45058e-05
8.53846e-05
8.66252e-05
0.00044334
0.000449392
0.000446074
0.000442485
0.000438521
0.000434217
0.000430212
0.000426792
0.000424887
0.000413129
0.000667176
0.000685459
0.000694854
0.000699414
0.000700937
0.00070074
0.000699878
0.000698952
0.000700197
0.000698023
0.000887648
0.00091116
0.000927606
0.000939757
0.000948701
0.000955488
0.000961124
0.000966417
0.000972888
0.000979359
0.00110285
0.00112722
0.00114602
0.00116137
0.00117412
0.00118505
0.00119495
0.00120457
0.00121489
0.00122582
0.00131303
0.00133653
0.0013557
0.00137212
0.0013865
0.00139944
0.00141158
0.00142352
0.00143595
0.00144883
0.00152161
0.00154381
0.00156272
0.00157936
0.00159437
0.00160824
0.00162145
0.00163451
0.00164787
0.00166142
0.00173577
0.00175694
0.00177559
0.00179236
0.00180773
0.00182213
0.00183594
0.00184955
0.0018633
0.00187693
0.00196698
0.00198785
0.00200666
0.00202383
0.00203971
0.00205462
0.00206888
0.0020828
0.00209659
0.00210993
0.00223264
0.0022541
0.00227362
0.00229145
0.00230785
0.00232309
0.00233745
0.00235116
0.00236438
0.00237677
0.00255969
0.00258185
0.00260162
0.00261926
0.00263513
0.00264953
0.00266273
0.00267497
0.00268641
0.00269675
0.002992
0.00301085
0.00302784
0.00304325
0.00305733
0.00307034
0.00308248
0.00309394
0.00310483
0.00311494
0.00357515
0.00359147
0.00360634
0.00361992
0.00363234
0.00364375
0.00365429
0.0036641
0.00367325
0.00368158
0.00426726
0.00428056
0.00429267
0.00430369
0.00431371
0.00432281
0.00433109
0.00433864
0.00434549
0.00435154
0.00504698
0.00505669
0.00506546
0.00507333
0.00508036
0.00508661
0.00509213
0.00509696
0.00510115
0.00510464
0.00589906
0.00590477
0.00590975
0.00591404
0.00591766
0.00592065
0.00592304
0.00592486
0.00592614
0.00592701
0.00680325
0.00680489
0.00680602
0.00680665
0.00680683
0.00680655
0.00680579
0.00680458
0.00680293
0.00680103
0.00773234
0.00773038
0.00772805
0.00772537
0.00772235
0.00771898
0.00771528
0.00771124
0.00770685
0.00770187
0.00865347
0.00864857
0.00864344
0.00863809
0.00863252
0.00862672
0.0086207
0.00861446
0.00860791
0.00860035
0.00953147
0.00952455
0.00951765
0.00951062
0.00950346
0.00949616
0.00948872
0.00948113
0.00947325
0.00946396
0.0103363
0.0103286
0.0103209
0.0103131
0.0103053
0.0102974
0.0102894
0.0102813
0.0102728
0.010263
0.0110444
0.0110367
0.0110291
0.0110215
0.0110138
0.0110061
0.0109983
0.0109905
0.0109823
0.0109729
0.0116432
0.0116363
0.0116293
0.0116224
0.0116155
0.0116085
0.0116016
0.0115945
0.0115872
0.0115788
0.0121331
0.0121272
0.0121212
0.0121154
0.0121095
0.0121036
0.0120976
0.0120916
0.0120854
0.0120783
0.0125254
0.0125205
0.0125156
0.0125108
0.012506
0.0125011
0.0124963
0.0124914
0.0124863
0.0124805
0.012835
0.0128311
0.0128272
0.0128234
0.0128195
0.0128157
0.0128118
0.0128079
0.0128039
0.0127992
0.0130776
0.0130746
0.0130717
0.0130687
0.0130657
0.0130627
0.0130598
0.0130568
0.0130537
0.0130501
0.0132666
0.0132643
0.013262
0.0132598
0.0132575
0.0132552
0.0132529
0.0132506
0.0132482
0.0132454
0.0134144
0.0134127
0.0134109
0.0134091
0.0134074
0.0134056
0.0134039
0.0134021
0.0134002
0.0133981
0.0135305
0.0135292
0.0135279
0.0135265
0.0135252
0.0135238
0.0135224
0.0135211
0.0135197
0.013518
0.0136215
0.0136205
0.0136195
0.0136185
0.0136174
0.0136164
0.0136154
0.0136144
0.0136133
0.013612
0.0136935
0.0136928
0.013692
0.0136912
0.0136904
0.0136897
0.0136889
0.0136881
0.0136873
0.0136863
0.0137507
0.0137502
0.0137496
0.013749
0.0137484
0.0137478
0.0137472
0.0137466
0.013746
0.0137453
0.0137964
0.013796
0.0137956
0.0137951
0.0137947
0.0137942
0.0137938