/*--------------------------------*- C++ -*----------------------------------*\
  =========                 |
  \\      /  F ield         | OpenFOAM: The Open Source CFD Toolbox
   \\    /   O peration     | Website:  https://openfoam.org
    \\  /    A nd           | Version:  10
     \\/     M anipulation  |
\*---------------------------------------------------------------------------*/
FoamFile
{
    format      ascii;
    class       surfaceScalarField;
    location    "2141";
    object      phi;
}
// * * * * * * * * * * * * * * * * * * * * * * * * * * * * * * * * * * * * * //

dimensions      [1 0 -1 0 0 0 0];

internalField   nonuniform List<scalar> 
19922
(
0.000736343
-0.000736343
2.75249e-10
0.00141199
-0.000675651
0.00187493
-0.000462934
0.0021505
-0.000275574
0.00229138
-0.000140879
0.00237966
-8.82776e-05
0.00241514
-3.54805e-05
0.00242115
-6.01154e-06
0.00241077
1.03803e-05
0.00239092
1.9847e-05
0.00236747
2.3455e-05
0.0023411
2.63664e-05
0.00231136
2.97445e-05
0.0022785
3.28606e-05
0.00224418
3.43135e-05
0.00221094
3.32455e-05
0.00217838
3.25627e-05
0.00214797
3.04072e-05
0.00212049
2.74804e-05
0.00209307
2.74191e-05
0.00206455
2.852e-05
0.00203947
2.50762e-05
0.00201609
2.3378e-05
0.00199229
2.38073e-05
0.00197142
2.0867e-05
0.00195833
1.30921e-05
0.00195112
7.21197e-06
0.00194566
5.45796e-06
0.00193996
5.69437e-06
0.00193295
7.01614e-06
0.00192407
8.87975e-06
0.00191318
1.08918e-05
0.00190024
1.29327e-05
0.00188542
1.48261e-05
0.00186855
1.68707e-05
0.00184979
1.87566e-05
0.0018293
2.04942e-05
0.00180731
2.19805e-05
0.00178353
2.37803e-05
0.00175784
2.56969e-05
0.00173019
2.76429e-05
0.00170033
2.98613e-05
0.00166796
3.23763e-05
0.00163254
3.54207e-05
0.00159326
3.92728e-05
0.00154906
4.42034e-05
0.00149765
5.14055e-05
0.0014346
6.30572e-05
0.00134918
8.54223e-05
0.000106993
0.00124218
0.000712151
-0.00144849
3.90899e-10
0.001334
-0.0012975
0.00185351
-0.000982447
0.00221557
-0.000637634
0.00247172
-0.000397028
0.0026181
-0.000234654
0.00270547
-0.000122856
0.00276086
-6.13971e-05
0.00279832
-2.70777e-05
0.00282583
-7.66134e-06
0.00284828
9.95845e-07
0.00286208
1.25701e-05
0.00286786
2.39654e-05
0.00286946
3.12609e-05
0.00286715
3.6623e-05
0.00285944
4.09548e-05
0.00284558
4.64228e-05
0.00282525
5.07429e-05
0.00280188
5.08482e-05
0.00277642
5.28772e-05
0.0027497
5.52408e-05
0.00272252
5.22518e-05
0.00269674
4.91574e-05
0.00267395
4.65986e-05
0.00265253
4.22895e-05
0.00263618
2.94419e-05
0.00262643
1.69628e-05
0.00262
1.18841e-05
0.00261412
1.15814e-05
0.0026071
1.40311e-05
0.00259808
1.79001e-05
0.00258678
2.21939e-05
0.00257314
2.65729e-05
0.00255723
3.07337e-05
0.00253898
3.51233e-05
0.00251854
3.91955e-05
0.0024961
4.29375e-05
0.00247198
4.60917e-05
0.00244602
4.97432e-05
0.00241812
5.35971e-05
0.00238826
5.75038e-05
0.00235624
6.18853e-05
0.00232183
6.6785e-05
0.00228468
7.25701e-05
0.00224406
7.9892e-05
0.00219943
8.88321e-05
0.00214876
0.000102075
0.0020911
0.00012072
0.0020189
0.000157625
0.000188399
0.00193749
0.000700298
-0.00214879
4.60045e-10
0.00136767
-0.00196487
0.00196211
-0.00157689
0.0024065
-0.00108202
0.00272398
-0.000714513
0.0029514
-0.00046207
0.00310429
-0.000275749
0.00320448
-0.000161582
0.00327216
-9.47594e-05
0.00331891
-5.44127e-05
0.00335291
-3.30062e-05
0.00337792
-1.24367e-05
0.00339536
6.52753e-06
0.0034068
1.98139e-05
0.00341347
2.9959e-05
0.00341488
3.95415e-05
0.00341042
5.08874e-05
0.00339797
6.31929e-05
0.00338109
6.77257e-05
0.00336074
7.32242e-05
0.00333783
7.81498e-05
0.00331323
7.68533e-05
0.00328877
7.36191e-05
0.0032674
6.79637e-05
0.00324707
6.26196e-05
0.00323163
4.48838e-05
0.0032227
2.58972e-05
0.00321714
1.74433e-05
0.00321214
1.65804e-05
0.00320591
2.02618e-05
0.00319742
2.6391e-05
0.00318632
3.32958e-05
0.00317245
4.04439e-05
0.00315589
4.72942e-05
0.00313662
5.43888e-05
0.00311487
6.09495e-05
0.00309086
6.69432e-05
0.00306498
7.19744e-05
0.00303702
7.77014e-05
0.00300697
8.36478e-05
0.00297483
8.96405e-05
0.00294046
9.6261e-05
0.0029037
0.000103538
0.00286435
0.000111926
0.00282181
0.000122424
0.00277596
0.000134687
0.00272543
0.000152605
0.00266923
0.000176922
0.00260806
0.000218793
0.000252551
0.00254391
0.000700114
-0.00284891
5.14332e-10
0.00140338
-0.00266813
0.00204097
-0.00221448
0.00258002
-0.00162107
0.00298253
-0.00111702
0.00328636
-0.000765908
0.00350093
-0.000490317
0.0036492
-0.000309854
0.0037523
-0.000197859
0.00382435
-0.000126463
0.00387653
-8.51831e-05
0.00391649
-5.23998e-05
0.00394785
-2.48299e-05
0.00397111
-3.44387e-06
0.00398737
1.36992e-05
0.00399794
2.89727e-05
0.00400338
4.54451e-05
0.00400158
6.49954e-05
0.00399426
7.50407e-05
0.00398236
8.5128e-05
0.00396665
9.38632e-05
0.00394809
9.54124e-05
0.00392852
9.31878e-05
0.00391182
8.46567e-05
0.00389592
7.85275e-05
0.00388431
5.64866e-05
0.00387864
3.15735e-05
0.00387588
2.02052e-05
0.00387324
1.92122e-05
0.00386892
2.45812e-05
0.00386184
3.34769e-05
0.00385162
4.35097e-05
0.00383812
5.39524e-05
0.00382143
6.39771e-05
0.00380159
7.42315e-05
0.00377889
8.36504e-05
0.00375356
9.22699e-05
0.00372607
9.94646e-05
0.0036962
0.000107573
0.003664
0.000115848
0.00362954
0.0001241
0.00359269
0.000133109
0.00355342
0.000142808
0.00351162
0.000153732
0.00346687
0.000167173
0.00341917
0.000182385
0.00336749
0.000204283
0.00331244
0.000231972
0.00325772
0.000273519
0.000305754
0.00320451
0.000709349
-0.00355826
5.56264e-10
0.00143819
-0.00339697
0.00212434
-0.00290063
0.00275099
-0.00224772
0.00325156
-0.00161759
0.0036343
-0.00114864
0.00392639
-0.000782414
0.00413501
-0.000518466
0.00428343
-0.000346281
0.00438946
-0.000232491
0.00446608
-0.000161804
0.00452345
-0.000109768
0.00456789
-6.92731e-05
0.00460239
-3.79482e-05
0.00462912
-1.30248e-05
0.00464909
8.99825e-06
0.00466319
3.13447e-05
0.00467042
5.77638e-05
0.00467122
7.42418e-05
0.00466788
8.84731e-05
0.00466093
0.000100812
0.00465074
0.000105604
0.00463905
0.000104871
0.0046296
9.41125e-05
0.00462133
8.6794e-05
0.00461664
6.11813e-05
0.0046169
3.13079e-05
0.00461919
1.79142e-05
0.00462077
1.76393e-05
0.00461984
2.55056e-05
0.00461537
3.79519e-05
0.00460703
5.18427e-05
0.00459472
6.62635e-05
0.00457862
8.00784e-05
0.00455879
9.40621e-05
0.00453558
0.000106867
0.00450933
0.00011852
0.00448057
0.000128221
0.0044491
0.00013904
0.00441504
0.000149908
0.00437857
0.00016057
0.00433958
0.000172106
0.00429816
0.000184222
0.00425438
0.00019751
0.00420804
0.000213518
0.00415893
0.000231491
0.00410755
0.000255661
0.00405515
0.000284376
0.00400619
0.000322477
0.000349757
0.00396219
0.000727507
-0.00428576
5.86013e-10
0.00148198
-0.00415145
0.00222008
-0.00363873
0.00291163
-0.00293927
0.00351757
-0.00222353
0.00399594
-0.00162701
0.00437476
-0.00116123
0.00466123
-0.000804939
0.0048681
-0.00055315
0.00501842
-0.000382816
0.00512792
-0.000271301
0.0052094
-0.000191247
0.00527193
-0.000131807
0.00532043
-8.64445e-05
0.00535813
-5.07277e-05
0.00538727
-2.01377e-05
0.00541138
7.2354e-06
0.00542811
4.10298e-05
0.00543462
6.77321e-05
0.00543836
8.47367e-05
0.00543959
9.95829e-05
0.00543826
0.000106929
0.00543588
0.000107257
0.00543566
9.4328e-05
0.00543774
8.47112e-05
0.00544285
5.60748e-05
0.00545179
2.23667e-05
0.00546161
8.09627e-06
0.00546956
9.69068e-06
0.0054739
2.11648e-05
0.00547363
3.82181e-05
0.00546854
5.69318e-05
0.00545859
7.6214e-05
0.00544407
9.46019e-05
0.0054251
0.000113034
0.00540211
0.000129856
0.00537569
0.000144935
0.00534626
0.000157651
0.00531376
0.000171541
0.00527849
0.000185176
0.00524054
0.000198521
0.00520002
0.000212632
0.00515716
0.000227073
0.00511222
0.000242453
0.00506487
0.000260872
0.0050157
0.000280655
0.00496607
0.000305297
0.00491743
0.000333015
0.0048742
0.000365705
0.00038604
0.00483792
0.000756368
-0.00504213
6.03946e-10
0.00153958
-0.00493466
0.00232886
-0.00442801
0.00307782
-0.00368823
0.00378273
-0.00292844
0.00437279
-0.00221707
0.00484343
-0.00163187
0.00522448
-0.00118599
0.00550905
-0.000837722
0.00571744
-0.000591203
0.00587127
-0.000425131
0.00598553
-0.000305514
0.00607235
-0.000218626
0.00613937
-0.000153466
0.00619153
-0.00010288
0.00623234
-6.09482e-05
0.00626459
-2.50131e-05
0.006291
1.4618e-05
0.00630677
5.19578e-05
0.00631715
7.43614e-05
0.00632483
9.19047e-05
0.0063309
0.000100858
0.00633725
0.000100905
0.0063466
8.49796e-05
0.00636062
7.06876e-05
0.00637755
3.91452e-05
0.00639733
2.58838e-06
0.00641683
-1.14035e-05
0.00643321
-6.68622e-06
0.0064447
9.66877e-06
0.00645035
3.25725e-05
0.00645002
5.72622e-05
0.00644376
8.24663e-05
0.006432
0.000106368
0.00641492
0.000130112
0.00639312
0.000151658
0.00636748
0.000170577
0.0063381
0.000187033
0.00630534
0.000204292
0.00626961
0.000220907
0.0062309
0.000237232
0.00618967
0.000253867
0.00614628
0.00027046
0.00610111
0.000287629
0.00605381
0.000308169
0.00600621
0.000328251
0.00595957
0.000351944
0.00591563
0.000376954
0.00587813
0.000403205
0.000415838
0.00584833
0.000797771
-0.0058399
6.10772e-10
0.00161851
-0.00575541
0.00245539
-0.00526489
0.0032655
-0.00449834
0.00404423
-0.00370717
0.00475234
-0.00292518
0.00533806
-0.00221759
0.00581951
-0.00166744
0.0062023
-0.00122052
0.006489
-0.000877904
0.00670219
-0.00063832
0.00686162
-0.000464944
0.00698174
-0.00033874
0.00707367
-0.000245396
0.00714493
-0.000174144
0.00720085
-0.000116873
0.00724503
-6.919e-05
0.00728125
-2.15972e-05
0.00730604
2.71601e-05
0.00732343
5.6972e-05
0.00733875
7.65895e-05
0.00735192
8.76899e-05
0.00736577
8.70549e-05
0.00738337
6.7374e-05
0.0074095
4.45633e-05
0.00743903
9.60763e-06
0.00747087
-2.92517e-05
0.00750147
-4.2002e-05
0.00752775
-3.29674e-05
0.00754787
-1.04481e-05
0.00756083
1.96092e-05
0.00756658
5.15188e-05
0.00756523
8.38129e-05
0.00755732
0.000114278
0.00754314
0.000144291
0.00752348
0.000171319
0.00749951
0.000194552
0.00747102
0.000215524
0.00743894
0.000236372
0.00740347
0.000256376
0.00736495
0.000275748
0.00732399
0.000294826
0.00728116
0.000313286
0.00723657
0.000332223
0.007191
0.000353742
0.00714629
0.000372956
0.00710375
0.000394487
0.00706516
0.000415543
0.00703331
0.000435058
0.000440116
0.00700903
0.000852725
-0.00669263
6.07146e-10
0.00172164
-0.00662433
0.00260749
-0.00615073
0.0034802
-0.00537105
0.00432622
-0.00455319
0.00514126
-0.00374023
0.00585031
-0.00292664
0.00644592
-0.00226305
0.00694072
-0.00171531
0.00733012
-0.0012673
0.00762305
-0.000931254
0.00784418
-0.000686076
0.00801095
-0.000505507
0.00813755
-0.000372
0.0082349
-0.00027149
0.008311
-0.000192968
0.00837104
-0.00012923
0.00841968
-7.02384e-05
0.00845726
-1.04259e-05
0.00848294
3.12992e-05
0.00850436
5.51637e-05
0.0085249
6.71495e-05
0.00854664
6.5321e-05
0.00857186
4.21517e-05
0.00860926
7.16119e-06
0.00865114
-3.22682e-05
0.00869514
-7.32509e-05
0.0087373
-8.41644e-05
0.0087742
-6.98742e-05
0.00880379
-4.00338e-05
0.00882494
-1.54336e-06
0.0088376
3.88621e-05
0.00884195
7.94628e-05
0.00883864
0.000117592
0.00882806
0.000154871
0.00881128
0.000188098
0.00878961
0.000216218
0.00876283
0.000242303
0.00873201
0.000267193
0.00869759
0.000290795
0.00866015
0.000313194
0.00862036
0.00033461
0.008579
0.000354649
0.0085362
0.000375024
0.00849365
0.000396291
0.00845288
0.000413728
0.0084152
0.000432165
0.00838219
0.000448557
0.00835569
0.000461557
0.000459714
0.00833609
0.000922386
-0.00761502
5.96572e-10
0.00185148
-0.00755342
0.00279453
-0.00709378
0.00373559
-0.00631211
0.00465355
-0.00547114
0.00554436
-0.00463104
0.00637944
-0.00376172
0.00710845
-0.00299206
0.00771955
-0.00232641
0.00823185
-0.00177961
0.00863172
-0.00133112
0.0089356
-0.000989963
0.00916731
-0.000737212
0.0093431
-0.000547792
0.00947727
-0.000405653
0.00958133
-0.000297032
0.00966312
-0.00021102
0.00972881
-0.000135926
0.00978331
-6.49291e-05
0.00981937
-4.75861e-06
0.00984911
2.54264e-05
0.0098771
3.91538e-05
0.00990694
3.54862e-05
0.00994123
7.86194e-06
0.00998885
-4.04644e-05
0.010043
-8.63967e-05
0.010099
-0.000129222
0.0101526
-0.00013779
0.0102001
-0.000117435
0.0102393
-7.92245e-05
0.0102689
-3.11067e-05
0.0102887
1.9011e-05
0.0102991
6.90971e-05
0.0103007
0.000115982
0.0102941
0.000161518
0.0102807
0.000201514
0.0102616
0.000235248
0.010237
0.000266939
0.0102079
0.000296287
0.0101751
0.00032359
0.0101393
0.00034897
0.0101014
0.000372529
0.0100621
0.000393943
0.0100222
0.000414932
0.00998337
0.000435125
0.00994706
0.000450031
0.00991443
0.000464801
0.00988667
0.000476316
0.00986489
0.000483337
0.000475514
0.00984909
0.00100894
-0.00862396
5.81913e-10
0.00201508
-0.00855955
0.00302543
-0.00810413
0.00403825
-0.00732493
0.00503064
-0.00646354
0.00600066
-0.00560105
0.00694032
-0.00470139
0.0078044
-0.00385614
0.008556
-0.00307802
0.00919168
-0.00241528
0.0097214
-0.00186084
0.0101358
-0.00140433
0.0104544
-0.00105585
0.0106992
-0.000792615
0.0108859
-0.00059236
0.0110298
-0.000440896
0.0111422
-0.000323442
0.0112317
-0.000225404
0.0113053
-0.000138494
0.0113597
-5.92418e-05
0.0114011
-1.59283e-05
0.0114384
1.84603e-06
0.0114772
-3.31253e-06
0.0115214
-3.63368e-05
0.0115799
-9.90042e-05
0.0116473
-0.000153784
0.0117158
-0.000197654
0.0117811
-0.000203141
0.0118395
-0.000175778
0.0118883
-0.000128076
0.0119263
-6.90883e-05
0.0119533
-8.01191e-06
0.0119697
5.27535e-05
0.0119761
0.000109496
0.0119734
0.000164299
0.0119635
0.000211357
0.011947
0.000251725
0.0119247
0.000289304
0.0118975
0.000323413
0.0118666
0.000354496
0.0118329
0.000382715
0.0117973
0.000408111
0.0117604
0.000430826
0.011724
0.000451337
0.0116892
0.000469951
0.0116574
0.00048184
0.0116294
0.000492778
0.0116061
0.00049961
0.011588
0.000501423
0.000488613
0.0115749
0.00111469
-0.00973865
5.68632e-10
0.00221649
-0.00966135
0.00331108
-0.00919873
0.00440143
-0.00841528
0.00548232
-0.00754443
0.00653666
-0.00665539
0.00755625
-0.00572098
0.00854749
-0.00484738
0.00944345
-0.00397397
0.0102243
-0.00319617
0.0108895
-0.00252597
0.011442
-0.00195683
0.0118746
-0.00148843
0.0122119
-0.00113001
0.0124723
-0.000852734
0.0126729
-0.000641448
0.0128289
-0.000479496
0.0129523
-0.000348821
0.0130527
-0.000238829
0.0131331
-0.000139664
0.0131908
-7.36611e-05
0.0132411
-4.84221e-05
0.0132914
-5.36241e-05
0.0133474
-9.23011e-05
0.0134172
-0.000168792
0.0135001
-0.000236754
0.0135825
-0.000280037
0.0136607
-0.000281288
0.0137306
-0.000245703
0.0137897
-0.000187192
0.0138365
-0.000115916
0.013871
-4.24971e-05
0.0138935
3.02684e-05
0.013905
9.80394e-05
0.0139062
0.000163098
0.0138999
0.000217615
0.013886
0.000265617
0.013866
0.00030935
0.0138409
0.000348457
0.013812
0.000383372
0.0137805
0.000414282
0.0137473
0.00044126
0.0137133
0.000464855
0.0136803
0.000484284
0.0136493
0.000500984
0.0136214
0.000509711
0.0135972
0.00051699
0.0135772
0.000519632
0.0135615
0.000517132
0.00050033
0.0135498
0.00124233
-0.010981
5.63125e-10
0.00246106
-0.0108801
0.00366014
-0.0103978
0.00484236
-0.00959749
0.00601721
-0.00871929
0.0071625
-0.00780067
0.00827751
-0.00683599
0.00936323
-0.00593311
0.0103999
-0.00501065
0.0113355
-0.00413172
0.0121502
-0.00334066
0.0128508
-0.00265744
0.0134299
-0.00206754
0.0138867
-0.00158681
0.0142461
-0.0012121
0.0145254
-0.000920841
0.0147431
-0.000697126
0.0149148
-0.000520511
0.0150532
-0.000377217
0.0151681
-0.000254562
0.0152514
-0.000157013
0.0153207
-0.000117679
0.0153865
-0.000119511
0.0154572
-0.000162949
0.0155399
-0.000251455
0.0156416
-0.000338491
0.0157404
-0.00037883
0.0158331
-0.000374041
0.0159161
-0.000328708
0.0159868
-0.000257833
0.0160435
-0.000172654
0.0160864
-8.53478e-05
0.0161158
8.68929e-07
0.0161329
8.09238e-05
0.0161387
0.000157267
0.0161363
0.000220005
0.0161256
0.000276393
0.0161082
0.000326716
0.0160856
0.000371059
0.0160591
0.000409879
0.01603
0.000443409
0.0159994
0.000471799
0.0159684
0.000495892
0.0159386
0.000514046
0.0159108
0.000528767
0.015886
0.00053451
0.0158644
0.000538593
0.0158463
0.000537738
0.0158316
0.000531868
0.000512021
0.0158199
0.00139488
-0.0123759
5.72055e-10
0.00275461
-0.0122398
0.00408108
-0.0117243
0.00537687
-0.0108933
0.0066525
-0.00999492
0.00790919
-0.00905736
0.00912249
-0.0080493
0.0103038
-0.00711445
0.0114585
-0.00616528
0.0125442
-0.0052175
0.0135233
-0.00431972
0.0143785
-0.00351268
0.0151193
-0.00280826
0.0157286
-0.00219611
0.0162146
-0.00169812
0.0166004
-0.00130666
0.0169034
-0.00100012
0.0171428
-0.000759943
0.017335
-0.000569414
0.0174932
-0.000412713
0.0176184
-0.00028225
0.0177157
-0.000215002
0.0178035
-0.000207319
0.0178939
-0.000253335
0.0179926
-0.000350123
0.0181171
-0.000462972
0.0182357
-0.000497432
0.0183456
-0.000483944
0.0184438
-0.00042698
0.0185279
-0.000341913
0.0185963
-0.000240992
0.018649
-0.000138064
0.0186867
-3.68262e-05
0.0187107
5.6869e-05
0.0187224
0.000145611
0.0187248
0.000217592
0.0187182
0.000283033
0.0187044
0.000340501
0.018685
0.000390387
0.0186616
0.000433279
0.0186355
0.000469508
0.018608
0.000499348
0.0185801
0.000523764
0.0185534
0.000540792
0.0185283
0.000553826
0.0185058
0.00055708
0.0184857
0.000558674
0.0184682
0.000555163
0.0184532
0.000546874
0.000524889
0.0184404
0.00157593
-0.0139518
6.07445e-10
0.00310422
-0.0137681
0.00458449
-0.0132045
0.00601933
-0.0123281
0.00741847
-0.0113941
0.00879316
-0.0104321
0.0101208
-0.00937698
0.0114146
-0.00840821
0.0126646
-0.00741531
0.0138888
-0.00644163
0.0150276
-0.00545853
0.0160571
-0.00454219
0.0169568
-0.00370797
0.0177428
-0.0029821
0.0183875
-0.00234287
0.0189093
-0.00182844
0.019327
-0.00141784
0.0196597
-0.00109261
0.0199271
-0.000836787
0.020146
-0.000631676
0.0203308
-0.000466991
0.0204675
-0.000351723
0.0205876
-0.000327417
0.0207053
-0.000370988
0.0208298
-0.000474629
0.0209763
-0.000609534
0.0211199
-0.000641033
0.0212507
-0.000614772
0.0213674
-0.000543637
0.0214676
-0.000442126
0.0215499
-0.000323322
0.0216147
-0.000202811
0.0216627
-8.48173e-05
0.0216956
2.39894e-05
0.0217148
0.000126348
0.0217235
0.000208889
0.0217225
0.000284112
0.0217136
0.000349352
0.0216988
0.000405233
0.0216795
0.000452525
0.0216573
0.000491721
0.0216333
0.000523379
0.0216089
0.00054818
0.0215851
0.000564568
0.0215624
0.000576533
0.0215414
0.000578051
0.021522
0.000578041
0.0215044
0.000572802
0.0214882
0.000563039
0.00053978
0.0214733
0.00178931
-0.0157411
6.84711e-10
0.00351703
-0.0154958
0.00518097
-0.0148685
0.00678304
-0.0139302
0.00833204
-0.0129431
0.00983871
-0.0119387
0.0113034
-0.0108417
0.0127175
-0.00982227
0.0140892
-0.00878701
0.0154179
-0.00777035
0.0167079
-0.00674857
0.0179082
-0.00574242
0.0189925
-0.00479226
0.0199437
-0.00393334
0.0207797
-0.00317882
0.021468
-0.00251674
0.0220319
-0.00198176
0.0224885
-0.00154919
0.0228582
-0.00120651
0.023161
-0.000934493
0.0234146
-0.000720607
0.0236194
-0.000556524
0.0237876
-0.000495562
0.0239436
-0.000526976
0.0241033
-0.000634377
0.0242765
-0.000782683
0.0244513
-0.000815869
0.0246084
-0.000771897
0.0247476
-0.000682808
0.0248675
-0.000562078
0.0249671
-0.000422877
0.0250468
-0.000282517
0.0251078
-0.000145789
0.025152
-2.02491e-05
0.0251812
9.71165e-05
0.0251982
0.00019189
0.0252046
0.000277771
0.0252024
0.000351552
0.0251935
0.000414094
0.0251797
0.000466372
0.0251623
0.000509096
0.0251426
0.000543089
0.0251219
0.00056884
0.0251011
0.000585358
0.0250805
0.000597141
0.0250607
0.000597871
0.0250415
0.000597253
0.0250231
0.000591251
0.0250052
0.000580926
0.000557206
0.0249877
0.00203948
-0.0177806
8.01743e-10
0.00400174
-0.0174581
0.00588394
-0.0167507
0.00768623
-0.0157325
0.00941667
-0.0146735
0.0110855
-0.0136076
0.0126996
-0.0124558
0.0142563
-0.0113789
0.0157585
-0.0102892
0.0172103
-0.00922223
0.0186258
-0.00816403
0.0199866
-0.00710324
0.0212519
-0.00605755
0.0223984
-0.00507983
0.0234109
-0.00419131
0.024299
-0.0034049
0.0250391
-0.00272187
0.0256535
-0.00216359
0.026158
-0.00171099
0.0265742
-0.00135073
0.0269226
-0.00106893
0.0272207
-0.000854668
0.0274552
-0.000730024
0.0276663
-0.000738096
0.0278735
-0.00084163
0.0280823
-0.000991426
0.0282953
-0.00102891
0.0284861
-0.000962646
0.0286532
-0.0008499
0.0287976
-0.000706549
0.0289187
-0.00054394
0.0290172
-0.000381041
0.0290947
-0.000223254
0.0291535
-7.90942e-05
0.0291957
5.49321e-05
0.0292236
0.000164024
0.0292397
0.000261701
0.0292462
0.000345056
0.029245
0.000415213
0.029238
0.000473382
0.0292266
0.00052053
0.029212
0.00055767
0.0291955
0.000585358
0.0291778
0.000603048
0.0291592
0.00061575
0.0291403
0.000616785
0.0291209
0.000616628
0.0291013
0.000610844
0.0290814
0.000600843
0.000577428
0.0290612
0.00233203
-0.0201126
9.78421e-10
0.00456963
-0.0196957
0.00670863
-0.0188897
0.00874787
-0.0177717
0.0106945
-0.0166201
0.0125582
-0.0154713
0.0143457
-0.0142433
0.0160715
-0.0131047
0.0177248
-0.0119425
0.019321
-0.0108184
0.0208577
-0.00970069
0.0223658
-0.00861129
0.0237997
-0.00749149
0.0251369
-0.00641707
0.0263525
-0.00540683
0.0274344
-0.00448681
0.0283811
-0.00366856
0.0291843
-0.00296688
0.029859
-0.00238567
0.0304233
-0.00191499
0.030898
-0.00154366
0.0313055
-0.00126216
0.0316448
-0.00106935
0.0319358
-0.00102909
0.0322088
-0.00111463
0.0324672
-0.00124981
0.032725
-0.00128672
0.0329592
-0.00119681
0.0331618
-0.0010525
0.0333372
-0.00088201
0.0334855
-0.000692193
0.0336079
-0.000503451
0.0337064
-0.000321756
0.0337839
-0.000156625
0.0338428
-3.91504e-06
0.0338847
0.000122104
0.0339133
0.000233102
0.0339309
0.000327462
0.0339395
0.000406574
0.033941
0.000471919
0.0339368
0.000524761
0.0339281
0.000566309
0.0339163
0.000597172
0.033902
0.000617347
0.0338855
0.000632258
0.0338675
0.000634809
0.0338479
0.000636248
0.033827
0.000631683
0.033805
0.000622888
0.000600527
0.0337819
0.00267327
-0.0227859
1.23714e-09
0.00523293
-0.0222553
0.00767327
-0.02133
0.00999153
-0.02009
0.0121945
-0.0188231
0.0142914
-0.0175682
0.0162892
-0.0162411
0.0182049
-0.0150203
0.0200391
-0.0137767
0.0217976
-0.0125769
0.0234917
-0.0113948
0.0251233
-0.0102429
0.0267196
-0.00908775
0.0282367
-0.00793413
0.0296538
-0.006824
0.0309467
-0.00577969
0.0321058
-0.00482768
0.0331254
-0.00398647
0.0340037
-0.00326393
0.034752
-0.00266331
0.0353896
-0.00218124
0.0359386
-0.00181116
0.0364197
-0.00155043
0.0368184
-0.00142781
0.0371841
-0.00148032
0.0375193
-0.00158503
0.0378278
-0.00159521
0.0381142
-0.00148321
0.038363
-0.00130134
0.0385775
-0.00109652
0.0387601
-0.000874758
0.0389128
-0.000656137
0.039038
-0.000446976
0.0391393
-0.000257873
0.0392193
-8.39139e-05
0.0392791
6.22711e-05
0.0393236
0.000188594
0.0393551
0.000295932
0.0393759
0.000385836
0.0393877
0.000460098
0.0393921
0.000520323
0.0393904
0.000568005
0.0393841
0.000603528
0.0393737
0.00062775
0.0393596
0.000646338
0.0393427
0.000651739
0.0393229
0.000655985
0.0393009
0.000653691
0.0392768
0.000647012
0.000626479
0.0392508
0.00307028
-0.0258562
1.60244e-09
0.00600514
-0.0251902
0.00879704
-0.0241219
0.0114429
-0.0227358
0.013948
-0.0213282
0.0163212
-0.0199414
0.0185702
-0.0184901
0.0207109
-0.0171611
0.0227552
-0.015821
0.024703
-0.0145247
0.0265712
-0.013263
0.0283668
-0.0120385
0.0301079
-0.0108289
0.0317983
-0.00962452
0.0334069
-0.00843261
0.0349142
-0.00728697
0.0362972
-0.00621069
0.0375395
-0.00522881
0.0386463
-0.00437072
0.0396145
-0.00363148
0.0404531
-0.00301987
0.0411825
-0.00254052
0.0418267
-0.00219468
0.0423842
-0.00198531
0.0428795
-0.0019756
0.0433178
-0.00202337
0.0436994
-0.00197681
0.0440486
-0.00183237
0.0443571
-0.00160984
0.0446213
-0.00136069
0.0448475
-0.001101
0.0450388
-0.000847393
0.045198
-0.000606163
0.0453292
-0.000389143
0.045436
-0.000190668
0.0455187
-2.0446e-05
0.0455831
0.000124216
0.0456319
0.000247138
0.0456675
0.000350224
0.0456919
0.000435677
0.0457068
0.000505453
0.0457135
0.000561323
0.0457136
0.00060341
0.0457078
0.000633487
0.0456968
0.000657417
0.0456813
0.000667153
0.0456618
0.00067553
0.0456388
0.000676648
0.0456128
0.000673071
0.000655205
0.0455841
0.00353154
-0.0293877
2.08696e-09
0.00690279
-0.0285615
0.0101045
-0.0273236
0.0131333
-0.0257647
0.0159928
-0.0241877
0.0186916
-0.0226403
0.0212381
-0.0210366
0.0236478
-0.0195708
0.0259353
-0.0181085
0.0281117
-0.0167012
0.0301836
-0.0153349
0.0321689
-0.0140238
0.0340739
-0.0127339
0.0359331
-0.0114837
0.0377254
-0.0102249
0.0394354
-0.00899702
0.0410436
-0.00781881
0.0425298
-0.00671503
0.0438684
-0.00570934
0.0450825
-0.00484555
0.0461585
-0.0040959
0.0471091
-0.00349115
0.0479548
-0.00304038
0.0487181
-0.0027486
0.049382
-0.00263948
0.0499597
-0.00260112
0.0504445
-0.00246156
0.0508775
-0.00226541
0.0512574
-0.00198969
0.0515863
-0.00168957
0.051868
-0.00138277
0.0521082
-0.00108759
0.0523105
-0.00080839
0.0524793
-0.000558002
0.0526187
-0.000330043
0.0527325
-0.000134281
0.0528214
3.53788e-05
0.0528914
0.000177063
0.0529453
0.000296412
0.052985
0.000395952
0.0530125
0.000477967
0.0530293
0.00054452
0.0530371
0.000595543
0.0530371
0.000633478
0.0530299
0.000664656
0.0530166
0.000680413
0.0529978
0.000694409
0.0529742
0.000700223
0.0529464
0.000700859
0.000686614
0.052915
0.0040669
-0.0334546
2.72223e-09
0.00794512
-0.0324397
0.0116237
-0.0310022
0.0150984
-0.0292394
0.0183722
-0.0274614
0.0214532
-0.0257213
0.0243505
-0.0239338
0.0270798
-0.0223001
0.0296564
-0.0206851
0.0320977
-0.0191425
0.0344105
-0.0176477
0.0366168
-0.0162302
0.0387289
-0.0148459
0.0407579
-0.0135128
0.0427387
-0.0122056
0.0446467
-0.0109051
0.0464714
-0.00964349
0.0481948
-0.00843846
0.0497971
-0.00731168
0.0512605
-0.00630892
0.0526027
-0.00543807
0.0538112
-0.00469969
0.0549004
-0.0041295
0.0558934
-0.00374164
0.0567878
-0.00353391
0.0575531
-0.00336642
0.0581847
-0.00309314
0.0587247
-0.00280536
0.0591956
-0.00246062
0.059605
-0.00209898
0.0599575
-0.00173533
0.0602596
-0.00138966
0.0605163
-0.0010651
0.0607329
-0.000774593
0.060914
-0.000511084
0.0610643
-0.000284669
0.0611854
-8.56965e-05
0.0612818
8.06956e-05
0.061358
0.000220195
0.0614165
0.000337423
0.0614595
0.000434997
0.0614888
0.000515261
0.061506
0.000578257
0.0615133
0.000626238
0.0615111
0.00066688
0.0615009
0.000690613
0.0614833
0.000711952
0.0614596
0.000723953
0.0614304
0.000730094
0.000720585
0.0613964
0.00468783
-0.0381424
3.52842e-09
0.00915448
-0.0369063
0.0133872
-0.0352349
0.0173806
-0.0332328
0.0211377
-0.0312186
0.0246653
-0.0292489
0.0279738
-0.0272423
0.0310795
-0.0254057
0.0339983
-0.0236039
0.0367499
-0.021894
0.0393504
-0.0202482
0.0418149
-0.0186947
0.0441637
-0.0171948
0.046412
-0.0157611
0.0485872
-0.0143808
0.0507003
-0.0130182
0.0527402
-0.0116834
0.0546994
-0.0103976
0.0565615
-0.00917376
0.0582892
-0.00803663
0.0599069
-0.0070558
0.0614039
-0.00619663
0.0627769
-0.00550253
0.0640409
-0.00500561
0.0652178
-0.00471084
0.0662155
-0.00436415
0.0670344
-0.00391202
0.0677191
-0.00349008
0.0683159
-0.0030574
0.0688282
-0.00261127
0.0692682
-0.00217531
0.0696485
-0.00176997
0.0699736
-0.00139017
0.0702502
-0.0010512
0.0704833
-0.000744152
0.0706785
-0.000479887
0.0708403
-0.000247495
0.0709708
-4.98111e-05
0.0710747
0.000116238
0.0711565
0.000255683
0.0712186
0.000372882
0.0712633
0.000470529
0.0712928
0.000548807
0.0713089
0.000610134
0.0713132
0.000662512
0.0713073
0.000696536
0.071292
0.000727241
0.0712688
0.000747195
0.0712385
0.000760373
0.000756927
0.0712022
0.00540772
-0.0435502
4.53334e-09
0.0105569
-0.0420555
0.0154327
-0.0401107
0.020029
-0.037829
0.0243478
-0.0355374
0.0283972
-0.0332983
0.0321868
-0.0310319
0.035734
-0.028953
0.0390564
-0.0269263
0.0421754
-0.025013
0.0451126
-0.0231853
0.0478833
-0.0214654
0.0505124
-0.0198238
0.0530191
-0.0182679
0.0554215
-0.0167831
0.0577572
-0.0153539
0.0600202
-0.0139464
0.0622124
-0.0125898
0.0643271
-0.0112884
0.0663505
-0.01006
0.0682392
-0.00894452
0.070044
-0.00800143
0.0717326
-0.00719112
0.0733095
-0.00658252
0.0747941
-0.00619544
0.0760879
-0.00565794
0.0771463
-0.00497042
0.0780288
-0.00437256
0.0787776
-0.00380626
0.0794223
-0.00325591
0.0799766
-0.00272961
0.0804518
-0.00224523
0.0808616
-0.00179993
0.0812127
-0.00140234
0.0815108
-0.0010422
0.0817622
-0.000731307
0.0819722
-0.000457468
0.0821457
-0.00022339
0.082286
-2.4051e-05
0.0823966
0.000145087
0.0824826
0.000286942
0.0825466
0.00040647
0.0825914
0.000504003
0.0826193
0.000582267
0.082632
0.000649821
0.0826319
0.000696631
0.0826201
0.000739029
0.0825982
0.000769041
0.0825675
0.000791088
0.0007953
0.0825292
0.00624233
-0.0497925
5.74473e-09
0.0121831
-0.0479964
0.0178053
-0.0457328
0.0231014
-0.0431252
0.0280731
-0.0405092
0.0327286
-0.0379537
0.0370795
-0.0353828
0.0411433
-0.0330168
0.0449398
-0.0307227
0.0484919
-0.0285652
0.0518241
-0.0265175
0.054958
-0.0245993
0.0579173
-0.0227831
0.0607276
-0.0210782
0.0634111
-0.0194667
0.0659942
-0.017937
0.0685048
-0.016457
0.0709446
-0.0150296
0.0733175
-0.0136613
0.0756197
-0.0123622
0.0778267
-0.0111515
0.0799251
-0.0100999
0.0819531
-0.00921917
0.0838804
-0.00850974
0.0857152
-0.00803023
0.087351
-0.00729375
0.0886913
-0.00631075
0.089813
-0.0054943
0.0907598
-0.00475304
0.091574
-0.00407008
0.0922722
-0.00342778
0.0928716
-0.00284463
0.0933858
-0.00231414
0.093827
-0.00184358
0.0942047
-0.0014199
0.0945253
-0.00105188
0.0947948
-0.000727011
0.0950193
-0.000447816
0.0952037
-0.000208519
0.0953528
-3.95241e-06
0.0954694
0.000170369
0.0955577
0.000318124
0.0956219
0.00043977
0.0956649
0.000539256
0.095689
0.000625751
0.0956968
0.000688891
0.0956899
0.00074585
0.0956707
0.000788318
0.0956404
0.000821349
0.000835137
0.0956006
0.00721015
-0.0570027
7.18016e-09
0.0140692
-0.0548554
0.0205574
-0.052221
0.0266662
-0.0492339
0.0323967
-0.0462397
0.0377574
-0.0433144
0.0427615
-0.0403868
0.0474282
-0.0376835
0.0517792
-0.0350737
0.0558397
-0.0326257
0.0596365
-0.0303143
0.063198
-0.0281608
0.0665469
-0.026132
0.0697144
-0.0242456
0.072727
-0.0224794
0.0756101
-0.0208201
0.078403
-0.0192499
0.0811164
-0.017743
0.0837638
-0.0163088
0.0863522
-0.0149506
0.0888802
-0.0136795
0.0913168
-0.0125364
0.0936782
-0.0115806
0.0959812
-0.0108128
0.0982072
-0.0102562
0.100211
-0.00929795
0.101887
-0.00798615
0.103295
-0.00690279
0.104488
-0.0059453
0.105505
-0.00508803
0.10638
-0.00430239
0.107132
-0.00359697
0.107779
-0.00296053
0.108333
-0.00239812
0.108807
-0.00189343
0.10921
-0.00145536
0.109552
-0.00106862
0.109839
-0.000734502
0.110076
-0.000445923
0.11027
-0.000197655
0.110425
1.54093e-05
0.110545
0.00019761
0.110635
0.000350159
0.110697
0.000476667
0.110736
0.000586843
0.110755
0.00067031
0.110755
0.000745372
0.11074
0.000803437
0.110711
0.000850133
0.000875707
0.110671
0.00833283
-0.0653355
8.85224e-09
0.0162573
-0.0627799
0.0237508
-0.0597144