/*--------------------------------*- C++ -*----------------------------------*\
  =========                 |
  \\      /  F ield         | OpenFOAM: The Open Source CFD Toolbox
   \\    /   O peration     | Website:  https://openfoam.org
    \\  /    A nd           | Version:  8
     \\/     M anipulation  |
\*---------------------------------------------------------------------------*/
FoamFile
{
    version     2.0;
    format      ascii;
    class       volScalarField;
    location    "0.02088";
    object      p;
}
// * * * * * * * * * * * * * * * * * * * * * * * * * * * * * * * * * * * * * //

dimensions      [0 2 -2 0 0 0 0];

internalField   nonuniform List<scalar> 
109013
(
0.321738
0.320486
0.319451
0.318416
0.317376
0.316302
0.315183
0.31402
0.312816
0.311573
0.310288
0.308965
0.307604
0.306206
0.304774
0.303306
0.301804
0.300271
0.298707
0.297112
0.295487
0.293834
0.292153
0.290445
0.28871
0.286951
0.285167
0.283357
0.281526
0.279671
0.277794
0.275895
0.273975
0.272036
0.270075
0.268096
0.266097
0.264079
0.262044
0.25999
0.25792
0.255833
0.253729
0.251608
0.249472
0.247319
0.245152
0.24297
0.240773
0.238561
0.236335
0.234095
0.231841
0.229573
0.227293
0.224999
0.222691
0.220372
0.218039
0.215694
0.213336
0.210966
0.208584
0.20619
0.203785
0.201367
0.198937
0.196497
0.194044
0.191581
0.189106
0.186619
0.184121
0.181612
0.179092
0.176561
0.174018
0.171465
0.168901
0.166326
0.163739
0.161142
0.158534
0.155916
0.153285
0.150644
0.147993
0.145329
0.142656
0.139971
0.137275
0.134568
0.13185
0.129121
0.12638
0.123629
0.120867
0.118093
0.115307
0.112511
0.109702
0.106883
0.104052
0.101209
0.0983548
0.0954893
0.0926114
0.0897216
0.08682
0.0839071
0.0809814
0.0780436
0.0750938
0.0721314
0.0691579
0.0661704
0.0631708
0.0601596
0.0571352
0.0540981
0.0510477
0.0479851
0.0449093
0.0418211
0.0387187
0.0356039
0.0324756
0.0293339
0.026179
0.0230105
0.019829
0.0166335
0.0134246
0.0102021
0.00696529
0.00371494
0.000450771
-0.00282744
-0.00611978
-0.00942612
-0.0127456
-0.0160799
-0.0194285
-0.0227905
-0.0261674
-0.029558
-0.0329629
-0.0363816
-0.0398152
-0.0432623
-0.0467238
-0.0501994
-0.0536893
-0.0571923
-0.0607091
-0.0642403
-0.0677851
-0.0713439
-0.074916
-0.078501
-0.0820988
-0.0857103
-0.0893348
-0.0929728
-0.0966222
-0.100284
-0.103958
-0.107643
-0.111341
-0.115048
-0.118766
-0.122496
-0.126234
-0.129984
-0.133742
-0.137506
-0.141281
-0.145062
-0.148851
-0.152645
-0.156446
-0.160252
-0.164061
-0.167874
-0.171692
-0.175511
-0.179331
-0.183153
-0.186977
-0.190802
-0.194628
-0.198453
-0.202286
-0.206127
-0.209974
-0.213824
-0.217734
-0.22182
-0.226178
-0.231468
0.322348
0.321174
0.320113
0.319046
0.318003
0.316949
0.315858
0.314724
0.313547
0.312328
0.311069
0.30977
0.308432
0.307056
0.305645
0.304198
0.302716
0.301201
0.299654
0.298075
0.296467
0.294828
0.293161
0.291466
0.289743
0.287995
0.286221
0.284421
0.282597
0.280751
0.27888
0.276987
0.275073
0.273137
0.27118
0.269203
0.267206
0.26519
0.263155
0.261101
0.259029
0.25694
0.254833
0.252709
0.250568
0.248412
0.246239
0.24405
0.241846
0.239627
0.237392
0.235143
0.23288
0.230603
0.228311
0.226005
0.223686
0.221354
0.219008
0.216649
0.214277
0.211892
0.209495
0.207085
0.204662
0.202227
0.199781
0.197322
0.194851
0.192367
0.189873
0.187366
0.184848
0.182318
0.179776
0.177223
0.174658
0.172082
0.169495
0.166896
0.164285
0.161664
0.159031
0.156387
0.153731
0.151064
0.148386
0.145696
0.142995
0.140283
0.137559
0.134824
0.132078
0.12932
0.12655
0.12377
0.120977
0.118174
0.115358
0.112531
0.109692
0.106842
0.103979
0.101105
0.0982193
0.0953216
0.0924119
0.0894897
0.0865559
0.0836099
0.0806516
0.0776809
0.0746979
0.0717024
0.068695
0.0656744
0.0626414
0.0595959
0.0565378
0.0534666
0.0503826
0.0472855
0.0441758
0.0410531
0.0379169
0.0347675
0.0316051
0.0284293
0.0252402
0.0220375
0.0188218
0.0155919
0.0123489
0.00909226
0.00582214
0.00253747
-0.000760259
-0.00407197
-0.00739766
-0.0107368
-0.0140902
-0.0174571
-0.0208383
-0.0242331
-0.0276418
-0.0310643
-0.0345013
-0.0379515
-0.0414157
-0.0448934
-0.0483854
-0.0518911
-0.0554103
-0.0589427
-0.0624882
-0.0660474
-0.0696205
-0.0732065
-0.0768051
-0.0804159
-0.0840401
-0.0876767
-0.0913258
-0.0949869
-0.0986597
-0.102344
-0.10604
-0.109745
-0.113463
-0.117189
-0.120927
-0.124673
-0.128428
-0.132194
-0.135965
-0.139745
-0.143532
-0.147324
-0.151123
-0.154928
-0.158736
-0.162549
-0.166365
-0.170183
-0.174004
-0.177825
-0.181647
-0.185471
-0.189294
-0.193117
-0.196942
-0.200768
-0.204601
-0.208436
-0.21228
-0.216164
-0.220203
-0.224544
-0.229129
-0.234352
0.322646
0.321777
0.320763
0.319687
0.318629
0.317584
0.31652
0.315414
0.314263
0.313071
0.311837
0.310563
0.309249
0.307896
0.306507
0.305081
0.303619
0.302124
0.300595
0.299034
0.297441
0.295819
0.294165
0.292484
0.290775
0.289038
0.287275
0.285486
0.283671
0.281833
0.27997
0.278084
0.276175
0.274245
0.272292
0.270318
0.268324
0.26631
0.264275
0.262222
0.260149
0.258059
0.25595
0.253823
0.251679
0.249518
0.24734
0.245146
0.242935
0.240709
0.238467
0.236209
0.233937
0.231649
0.229347
0.227031
0.2247
0.222355
0.219996
0.217624
0.215238
0.212838
0.210425
0.207999
0.20556
0.203109
0.200644
0.198167
0.195677
0.193175
0.19066
0.188134
0.185595
0.183043
0.18048
0.177905
0.175318
0.172718
0.170107
0.167484
0.16485
0.162203
0.159545
0.156875
0.154193
0.151499
0.148795
0.146078
0.143349
0.140609
0.137856
0.135093
0.132317
0.12953
0.126731
0.123921
0.121098
0.118264
0.115417
0.112559
0.109689
0.106807
0.103913
0.101006
0.0980879
0.0951576
0.092215
0.0892602
0.0862927
0.0833137
0.0803212
0.0773173
0.0743
0.0712707
0.0682292
0.0651739
0.0621067
0.0590264
0.055934
0.0528278
0.0497089
0.0465772
0.0434325
0.0402747
0.0371035
0.0339196
0.0307221
0.027511
0.0242868
0.02105
0.017799
0.0145344
0.0112569
0.00796538
0.00466039
0.00134197
-0.00199038
-0.00533622
-0.00869549
-0.0120689
-0.0154553
-0.0188558
-0.0222697
-0.0256975
-0.029139
-0.0325935
-0.0360619
-0.0395442
-0.0430392
-0.0465486
-0.0500706
-0.0536066
-0.0571547
-0.0607165
-0.0642909
-0.067879
-0.0714793
-0.0750927
-0.0787173
-0.0823544
-0.0860038
-0.0896656
-0.0933388
-0.0970229
-0.100718
-0.104424
-0.108141
-0.111868
-0.115604
-0.119349
-0.123104
-0.126868
-0.130639
-0.134419
-0.138205
-0.141996
-0.145795
-0.149598
-0.153408
-0.15722
-0.161036
-0.164854
-0.168676
-0.172497
-0.176321
-0.180144
-0.183967
-0.187789
-0.191612
-0.195434
-0.199258
-0.203082
-0.206913
-0.210744
-0.214596
-0.218562
-0.222781
-0.227296
-0.231848
-0.236051
0.322809
0.322251
0.321375
0.320332
0.319266
0.318218
0.317169
0.31609
0.314968
0.313802
0.312594
0.311345
0.310056
0.308727
0.30736
0.305956
0.304516
0.30304
0.301531
0.299988
0.298413
0.296806
0.295169
0.293502
0.291806
0.290083
0.288331
0.286553
0.284749
0.282919
0.281065
0.279186
0.277284
0.275359
0.273412
0.271443
0.269451
0.267439
0.265407
0.263354
0.261282
0.259191
0.25708
0.254952
0.252804
0.250639
0.248457
0.246258
0.244041
0.241808
0.239559
0.237293
0.235012
0.232715
0.230403
0.228076
0.225733
0.223377
0.221005
0.218619
0.216219
0.213805
0.211377
0.208935
0.20648
0.204011
0.201529
0.199034
0.196525
0.194004
0.19147
0.188922
0.186363
0.18379
0.181204
0.178607
0.175997
0.173374
0.170739
0.168092
0.165432
0.16276
0.160077
0.15738
0.154672
0.151952
0.149219
0.146475
0.143718
0.140949
0.138168
0.135375
0.13257
0.129753
0.126923
0.124082
0.121229
0.118363
0.115485
0.112595
0.109692
0.106778
0.103851
0.100912
0.0979602
0.0949964
0.09202
0.0890313
0.0860299
0.0830165
0.0799899
0.0769508
0.0738993
0.0708349
0.067758
0.064668
0.0615655
0.0584495
0.0553216
0.0521799
0.0490258
0.0458579
0.0426778
0.039484
0.036277
0.0330575
0.0298241
0.0265772
0.0233177
0.0200447
0.0167582
0.0134587
0.0101452
0.00681892
0.0034784
0.000125162
-0.00324228
-0.00662254
-0.0100163
-0.0134238
-0.0168445
-0.0202784
-0.0237262
-0.0271866
-0.0306613
-0.034149
-0.0376489
-0.0411627
-0.0446901
-0.0482301
-0.051783
-0.0553489
-0.0589276
-0.0625178
-0.0661212
-0.0697372
-0.0733659
-0.0770053
-0.0806571
-0.0843201
-0.0879948
-0.0916811
-0.0953779
-0.0990849
-0.102803
-0.10653
-0.110267
-0.114014
-0.117769
-0.121533
-0.125305
-0.129085
-0.132871
-0.136665
-0.140464
-0.144268
-0.148077
-0.151891
-0.155708
-0.159529
-0.163351
-0.167175
-0.171
-0.174826
-0.17865
-0.182474
-0.186298
-0.190119
-0.193941
-0.197762
-0.201583
-0.205407
-0.209233
-0.21307
-0.216977
-0.221073
-0.22546
-0.229987
-0.234146
-0.237274
0.323067
0.322628
0.321911
0.320957
0.319909
0.318855
0.317811
0.316753
0.315658
0.31452
0.313339
0.312116
0.310853
0.309549
0.308205
0.306824
0.305406
0.303951
0.302462
0.300938
0.299381
0.297792
0.296171
0.29452
0.292839
0.291128
0.28939
0.287623
0.28583
0.284011
0.282165
0.280295
0.278401
0.276482
0.274541
0.272576
0.270589
0.268581
0.26655
0.264499
0.262428
0.260337
0.258225
0.256095
0.253946
0.251777
0.249591
0.247387
0.245165
0.242926
0.240669
0.238397
0.236107
0.233801
0.231479
0.229141
0.226788
0.224419
0.222035
0.219636
0.217222
0.214794
0.21235
0.209893
0.207421
0.204936
0.202436
0.199922
0.197395
0.194854
0.1923
0.189732
0.187151
0.184557
0.18195
0.179329
0.176696
0.17405
0.17139
0.168718
0.166034
0.163336
0.160626
0.157903
0.155168
0.15242
0.14966
0.146887
0.144101
0.141303
0.138493
0.13567
0.132835
0.129987
0.127127
0.124254
0.121368
0.118471
0.11556
0.112638
0.109702
0.106755
0.103794
0.100821
0.0978357
0.0948374
0.0918268
0.0888032
0.085767
0.0827183
0.0796566
0.076582
0.0734949
0.0703947
0.067282
0.0641557
0.0610172
0.0578654
0.0547008
0.0515225
0.0483318
0.0451281
0.0419109
0.0386805
0.0354374
0.0321807
0.028911
0.0256278
0.0223318
0.0190221
0.0156992
0.0123634
0.00901438
0.0056515
0.00227539
-0.00111354
-0.0045159
-0.00793185
-0.011361
-0.0148028
-0.0182579
-0.0217265
-0.025208
-0.0287025
-0.0322103
-0.0357307
-0.0392637
-0.0428101
-0.0463691
-0.04994
-0.0535245
-0.05712
-0.0607285
-0.064349
-0.0679811
-0.0716255
-0.0752815
-0.0789475
-0.0826261
-0.0863156
-0.0900149
-0.0937251
-0.0974455
-0.101176
-0.104916
-0.108664
-0.112421
-0.116187
-0.119961
-0.123742
-0.127531
-0.131326
-0.135127
-0.138934
-0.142746
-0.146562
-0.150382
-0.154204
-0.158029
-0.161856
-0.165684
-0.169513
-0.173341
-0.177169
-0.180994
-0.184818
-0.188641
-0.192461
-0.19628
-0.200099
-0.203918
-0.20774
-0.211568
-0.215437
-0.21944
-0.223688
-0.22814
-0.232471
-0.236154
-0.238955
0.323393
0.322959
0.322362
0.32153
0.32054
0.319495
0.318452
0.317406
0.316335
0.315225
0.314072
0.312876
0.311638
0.31036
0.309041
0.307683
0.306288
0.304855
0.303387
0.301884
0.300346
0.298774
0.297171
0.295536
0.293871
0.292175
0.29045
0.288696
0.286915
0.285107
0.283272
0.281411
0.279525
0.277613
0.275678
0.27372
0.271738
0.269733
0.267706
0.265657
0.263588
0.261497
0.259385
0.257254
0.255103
0.252932
0.250742
0.248534
0.246307
0.244062
0.2418
0.239519
0.237221
0.234907
0.232575
0.230227
0.227863
0.225482
0.223086
0.220674
0.218247
0.215804
0.213345
0.210872
0.208384
0.205882
0.203364
0.200833
0.198286
0.195726
0.193152
0.190563
0.187961
0.185346
0.182715
0.180073
0.177415
0.174745
0.172061
0.169364
0.166654
0.163931
0.161194
0.158444
0.155681
0.152905
0.150117
0.147315
0.1445
0.141672
0.138832
0.135978
0.133112
0.130232
0.127341
0.124436
0.121518
0.118588
0.115644
0.112688
0.109719
0.106737
0.103742
0.100735
0.0977148
0.0946814
0.0916356
0.0885762
0.0855046
0.0824195
0.0793218
0.0762108
0.0730873
0.0699502
0.066801
0.0636378
0.0604619
0.0572731
0.0540712
0.0508561
0.0476279
0.0443867
0.0411319
0.0378647
0.0345835
0.03129
0.0279823
0.0246625
0.0213291
0.0179821
0.0146221
0.0112495
0.00786323
0.00446399
0.00105154
-0.00237391
-0.00581253
-0.00926387
-0.0127287
-0.0162063
-0.0196964
-0.0232
-0.0267155
-0.0302445
-0.0337861
-0.0373396
-0.040906
-0.044485
-0.0480763
-0.0516792
-0.0552941
-0.0589203
-0.0625586
-0.066209
-0.0698699
-0.0735429
-0.0772261
-0.0809197
-0.0846248
-0.0883397
-0.0920637
-0.0957981
-0.0995415
-0.103295
-0.107056
-0.110825
-0.114602
-0.118387
-0.122179
-0.125978
-0.129783
-0.133592
-0.137407
-0.141226
-0.145049
-0.148877
-0.152705
-0.156536
-0.160368
-0.164201
-0.168034
-0.171865
-0.175695
-0.179524
-0.18335
-0.187173
-0.190995
-0.194812
-0.19863
-0.202446
-0.206264
-0.210084
-0.213932
-0.217868
-0.221992
-0.226339
-0.230711
-0.234711
-0.238069
-0.240997
0.323733
0.323273
0.32275
0.322039
0.321138
0.320128
0.319092
0.318053
0.317001
0.315916
0.314791
0.313623
0.312412
0.311159
0.309866
0.308534
0.307162
0.305752
0.304306
0.302823
0.301306
0.299754
0.298169
0.296551
0.294902
0.293222
0.291512
0.289772
0.288003
0.286207
0.284383
0.282532
0.280655
0.278752
0.276825
0.274872
0.272896
0.270896
0.268873
0.266828
0.264759
0.26267
0.260559
0.258428
0.256275
0.254103
0.25191
0.249698
0.247467
0.245217
0.242948
0.240661
0.238356
0.236033
0.233692
0.231335
0.228959
0.226568
0.224159
0.221735
0.219293
0.216836
0.214363
0.211875
0.20937
0.206851
0.204316
0.201766
0.199201
0.196621
0.194026
0.191417
0.188794
0.186156
0.183503
0.180837
0.178156
0.175462
0.172753
0.170031
0.167295
0.164545
0.161781
0.159003
0.156213
0.153408
0.15059
0.147759
0.144914
0.142056
0.139185
0.1363
0.133402
0.130491
0.127566
0.124629
0.121678
0.118714
0.115737
0.112747
0.109743
0.106727
0.103696
0.100654
0.0975973
0.0945288
0.091446
0.0883508
0.0852422
0.0821203
0.0789857
0.0758375
0.0726766
0.069502
0.0663147
0.063114
0.0599003
0.0566734
0.053433
0.0501797
0.0469136
0.0436339
0.040341
0.0370355
0.0337161
0.030384
0.0270385
0.0236805
0.0203086
0.0169243
0.0135264
0.0101159
0.0066921
0.00325532
-0.000194037
-0.00365634
-0.00713231
-0.0106198
-0.014121
-0.0176339
-0.0211606
-0.024699
-0.0282502
-0.0318131
-0.0353892
-0.0389762
-0.0425761
-0.0461881
-0.0498113
-0.053446
-0.0570927
-0.0607503
-0.0644188
-0.0680981
-0.0717888
-0.0754896
-0.0792007
-0.0829212
-0.0866526
-0.0903922
-0.0941422
-0.0979
-0.101667
-0.105442
-0.109224
-0.113014
-0.11681
-0.120614
-0.124423
-0.128237
-0.132058
-0.135882
-0.13971
-0.143541
-0.147375
-0.151211
-0.155049
-0.158886
-0.162725
-0.166562
-0.170399
-0.174233
-0.178065
-0.181893
-0.185718
-0.18954
-0.193358
-0.197174
-0.200988
-0.204803
-0.208619
-0.212452
-0.216342
-0.220371
-0.2246
-0.228948
-0.233117
-0.236791
-0.240001
-0.24318
0.324053
0.323581
0.323095
0.322483
0.321688
0.320742
0.319727
0.318697
0.317658
0.316596
0.315497
0.314357
0.313174
0.311948
0.310681
0.309374
0.308027
0.306641
0.305218
0.303757
0.302261
0.300729
0.299163
0.297564
0.295932
0.294268
0.292574
0.290849
0.289094
0.28731
0.285498
0.283658
0.281792
0.279898
0.277978
0.276034
0.274064
0.27207
0.270051
0.268009
0.265945
0.263857
0.261748
0.259616
0.257464
0.25529
0.253095
0.25088
0.248645
0.24639
0.244115
0.241822
0.23951
0.237179
0.23483
0.232463
0.230078
0.227675
0.225254
0.222817
0.220363
0.217892
0.215404
0.2129
0.21038
0.207843
0.20529
0.202722
0.200138
0.197539
0.194924
0.192294
0.189649
0.186989
0.184314
0.181624
0.178919
0.1762
0.173466
0.170718
0.167955
0.165178
0.162387
0.159582
0.156763
0.153929
0.151082
0.14822
0.145345
0.142456
0.139553
0.136637
0.133706
0.130762
0.127805
0.124834
0.121849
0.118851
0.115839
0.112813
0.109774
0.106722
0.103656
0.100577
0.0974845
0.0943786
0.0912591
0.0881263
0.0849802
0.0818205
0.0786481
0.0754613
0.0722624
0.0690493
0.0658234
0.0625837
0.0593313
0.0560656
0.052786
0.049494
0.0461882
0.0428693
0.0395374
0.0361923
0.0328342
0.0294629
0.0260784
0.0226811
0.0192707
0.0158473
0.012411
0.00896196
0.00549981
0.00202519
-0.00146254
-0.00496279
-0.00847528
-0.0120007
-0.0155383
-0.0190883
-0.0226508
-0.0262246
-0.0298117
-0.0334101
-0.0370204
-0.0406417
-0.0442754
-0.0479202
-0.0515757
-0.0552429
-0.0589214
-0.0626103
-0.0663089
-0.0700181
-0.0737377
-0.0774669
-0.0812052
-0.0849534
-0.0887102
-0.0924755
-0.0962492
-0.100031
-0.103821
-0.107617
-0.11142
-0.11523
-0.119045
-0.122867
-0.126692
-0.130523
-0.134357
-0.138195
-0.142035
-0.145878
-0.149721
-0.153567
-0.157411
-0.161256
-0.165098
-0.16894
-0.172779
-0.176615
-0.180446
-0.184275
-0.188098
-0.191917
-0.195733
-0.199547
-0.203358
-0.20717
-0.210993
-0.214854
-0.218811
-0.222933
-0.227212
-0.231456
-0.23536
-0.238792
-0.242006
-0.245378
0.324335
0.323875
0.323409
0.322871
0.322179
0.321319
0.320349
0.319335
0.318309
0.317265
0.316191
0.315078
0.313923
0.312725
0.311485
0.310204
0.308883
0.307522
0.306121
0.304684
0.303209
0.3017
0.300154
0.298574
0.296961
0.295314
0.293636
0.291927
0.290187
0.288417
0.286618
0.28479
0.282934
0.281051
0.27914
0.277203
0.275241
0.273254
0.271241
0.269204
0.267142
0.265058
0.26295
0.26082
0.258668
0.256493
0.254297
0.25208
0.249841
0.247582
0.245303
0.243004
0.240685
0.238347
0.235989
0.233613
0.231218
0.228804
0.226373
0.223923
0.221456
0.218971
0.216469
0.213949
0.211413
0.208859
0.206289
0.203703
0.2011
0.198481
0.195846
0.193194
0.190528
0.187845
0.185147
0.182433
0.179704
0.17696
0.1742
0.171426
0.168637
0.165833
0.163014
0.16018
0.157332
0.154468
0.151591
0.148699
0.145793
0.142872
0.139937
0.136988
0.134025
0.131047
0.128056
0.12505
0.122031
0.118997
0.11595
0.112889
0.109814
0.106725
0.103622
0.100506
0.0973756
0.0942316
0.0910745
0.0879031
0.0847187
0.0815201
0.0783084
0.0750832
0.0718443
0.0685921
0.0653265
0.062047
0.0587549
0.0554488
0.0521295
0.0487977
0.0454513
0.0420929
0.0387204
0.0353352
0.0319371
0.0285256
0.0251016
0.021664
0.018214
0.0147508
0.0112751
0.00778684
0.00428538
0.000771892
-0.0027544
-0.00629282
-0.00984367
-0.0134066
-0.0169818
-0.0205691
-0.0241684
-0.0277786
-0.0314012
-0.0350352
-0.0386804
-0.0423365
-0.046005
-0.0496826
-0.0533719
-0.0570707
-0.0607808
-0.0645006
-0.0682304
-0.0719688
-0.0757176
-0.079475
-0.0832411
-0.0870155
-0.0907985
-0.0945882
-0.098387
-0.102192
-0.106004
-0.109821
-0.113644
-0.117474
-0.121308
-0.125146
-0.128988
-0.132833
-0.136681
-0.140532
-0.144383
-0.148236
-0.152088
-0.155942
-0.159793
-0.163642
-0.16749
-0.171333
-0.175174
-0.17901
-0.182842
-0.186668
-0.190489
-0.194307
-0.198118
-0.201928
-0.205739
-0.209554
-0.213394
-0.217302
-0.221335
-0.225524
-0.22977
-0.233826
-0.237471
-0.240764
-0.24405
-0.247531
0.324579
0.324153
0.323706
0.323216
0.322614
0.321848
0.320944
0.319963
0.318952
0.317925
0.316873
0.315786
0.314659
0.313489
0.312277
0.311023
0.309728
0.308393
0.307018
0.305604
0.304153
0.302664
0.30114
0.29958
0.297986
0.296359
0.294698
0.293005
0.291281
0.289526
0.287741
0.285926
0.284082
0.282209
0.28031
0.278382
0.276428
0.274447
0.272441
0.270409
0.268353
0.266272
0.264167
0.262039
0.259888
0.257713
0.255516
0.253297
0.251056
0.248793
0.24651
0.244206
0.241881
0.239535
0.23717
0.234785
0.23238
0.229957
0.227514
0.225052
0.222572
0.220074
0.217557
0.215022
0.21247
0.2099
0.207313
0.204708
0.202086
0.199447
0.196792
0.194119
0.19143
0.188725
0.186004
0.183267
0.180513
0.177743
0.174958
0.172157
0.169341
0.166508
0.163661
0.160798
0.15792
0.155027
0.152119
0.149196
0.146258
0.143305
0.140337
0.137355
0.134357
0.131346
0.12832
0.125279
0.122224
0.119154
0.116071
0.112973
0.109861
0.106734
0.103594
0.100439
0.0972709
0.0940883
0.0908917
0.0876815
0.0844573
0.0812191
0.0779674
0.074702
0.0714229
0.06813
0.0648237
0.0615037
0.0581707
0.0548235
0.0514636
0.0480899
0.0447033
0.0413032
0.0378902
0.0344636
0.0310241
0.0275721
0.0241069
0.0206291
0.0171379
0.0136344
0.0101187
0.00658979
0.00304853
-0.000504494
-0.00406997
-0.00764785
-0.011237
-0.0148389
-0.018452
-0.0220772
-0.0257133
-0.029361
-0.0330203
-0.0366896
-0.0403702
-0.0440617
-0.0477641
-0.0514763
-0.0551982
-0.0589302
-0.0626714
-0.0664229
-0.0701825
-0.073952
-0.0777287
-0.0815152
-0.0853079
-0.0891089
-0.0929176
-0.0967322
-0.100554
-0.104382
-0.108216
-0.112054
-0.115897
-0.119746
-0.123597
-0.127452
-0.131309
-0.135169
-0.139031
-0.142892
-0.146754
-0.150616
-0.154477
-0.158337
-0.162194
-0.166048
-0.169898
-0.173743
-0.177584
-0.18142
-0.18525
-0.189075
-0.192891
-0.196706
-0.200515
-0.204321
-0.208132
-0.21196
-0.215831
-0.219798
-0.223898
-0.228099
-0.23223
-0.236065
-0.239506
-0.242762
-0.246123
-0.24963
0.324784
0.324408
0.323988
0.323529
0.322997
0.322326
0.321502
0.320571
0.319586
0.318576
0.317543
0.316481
0.315382
0.31424
0.313057
0.311831
0.310563
0.309254
0.307905
0.306516
0.305088
0.303623
0.302121
0.300583
0.29901
0.297401
0.295759
0.294084
0.292377
0.290637
0.288867
0.287066
0.285235
0.283375
0.281486
0.279568
0.277623
0.275651
0.273652
0.271627
0.269576
0.2675
0.265398
0.263273
0.261123
0.258949
0.256752
0.254532
0.252289
0.250024
0.247737
0.245427
0.243097
0.240745
0.238373
0.235979
0.233566
0.231132
0.228679
0.226206
0.223713
0.221201
0.21867
0.216121
0.213552
0.210966
0.208361
0.205738
0.203097
0.200439
0.197762
0.195069
0.192358
0.18963
0.186886
0.184124
0.181345
0.17855
0.175739
0.172911
0.170067
0.167207
0.16433
0.161438
0.15853
0.155606
0.152667
0.149711
0.146741
0.143755
0.140754
0.137737
0.134706
0.131659
0.128598
0.125521
0.122429
0.119323
0.116202
0.113066
0.109916
0.106751
0.103572
0.100379
0.0971704
0.093948
0.0907118
0.0874609
0.0841963
0.0809175
0.0776246
0.0743177
0.0709978
0.0676629
0.0643152
0.0609533
0.057578
0.0541895
0.050787
0.0473714
0.0439425
0.0405003
0.037045
0.0335768
0.0300954
0.0266009
0.0230942
0.0195746
0.0160421
0.0124976
0.00894011
0.00537029
0.00178891
-0.00180511
-0.00541043
-0.00902812
-0.0126576
-0.0162981
-0.0199498
-0.0236135
-0.0272873
-0.0309726
-0.0346685
-0.0383746
-0.0420909
-0.0458185
-0.0495545
-0.0533006
-0.0570562
-0.0608211
-0.0645946
-0.0683773
-0.0721676
-0.0759661
-0.0797724
-0.0835865
-0.0874072
-0.0912341
-0.0950677
-0.0989083
-0.102753
-0.106603
-0.110457
-0.114317
-0.11818
-0.122047
-0.125914
-0.129785
-0.133657
-0.13753
-0.141403
-0.145276
-0.149148
-0.153019
-0.156886
-0.160752
-0.164613
-0.16847
-0.172322
-0.176169
-0.180009
-0.183843
-0.187671
-0.191491
-0.195306
-0.199116
-0.202922
-0.206729
-0.210545
-0.214393
-0.218309
-0.222334
-0.226468
-0.230615
-0.234577
-0.238189
-0.241512
-0.244792
-0.248201
-0.25168
0.324957
0.324639
0.324253
0.323821
0.323339
0.32275
0.322015
0.32115
0.320204
0.319217
0.318205
0.317165
0.316091
0.314979
0.313824
0.312626
0.311386
0.310105
0.308782
0.307419
0.306017
0.304576
0.303097
0.301581
0.300029
0.298441
0.296819
0.295162
0.293473
0.29175
0.289995
0.288209
0.286392
0.284545
0.282668
0.280762
0.278827
0.276864
0.274874
0.272856
0.270811
0.26874
0.266644
0.264522
0.262374
0.260202
0.258005
0.255785
0.253541
0.251274
0.248983
0.24667
0.244335
0.241977
0.239598
0.237197
0.234775
0.232331
0.229868
0.227383
0.224878
0.222354
0.219809
0.217245
0.214661
0.212057
0.209435
0.206794
0.204135
0.201456
0.19876
0.196045
0.193312
0.190561
0.187793
0.185007
0.182203
0.179382
0.176544
0.173689
0.170817
0.167927
0.165022
0.162099
0.159161
0.156205
0.153234
0.150247
0.147243
0.144223
0.141188
0.138137
0.13507
0.131987
0.128889
0.125776
0.122647
0.119503
0.116344
0.113169
0.10998
0.106776
0.103557
0.100323
0.0970747
0.0938113
0.0905342
0.0872417
0.0839357
0.0806148
0.07728
0.0739311
0.0705679
0.067191
0.0638004
0.0603954
0.0569775
0.0535454
0.0501003
0.0466411
0.043169
0.0396838
0.0361853
0.0326739
0.0291493
0.0256126
0.0220624
0.0185002
0.0149256
0.0113384
0.00773922
0.00412757
0.000504442
-0.00313026
-0.00677705
-0.0104351
-0.0141048
-0.0177851
-0.0214767
-0.0251783
-0.0288914
-0.0326143
-0.0363472
-0.0400906
-0.0438433
-0.0476062
-0.0513775
-0.0551576
-0.0589475
-0.062745
-0.0665506
-0.0703642
-0.0741854
-0.0780134
-0.0818486
-0.085691
-0.0895389
-0.093392
-0.0972509
-0.101115
-0.104983
-0.108855
-0.112731
-0.116609
-0.120491
-0.124374
-0.128259
-0.132145
-0.136031
-0.139916
-0.143801
-0.147684
-0.151564
-0.155442
-0.159316
-0.163186
-0.16705
-0.17091
-0.174763
-0.178609
-0.182448
-0.186279
-0.190104
-0.193921
-0.197731
-0.201537
-0.205341
-0.209151
-0.212983
-0.216861
-0.220823
-0.224889
-0.229008
-0.233042
-0.236808
-0.240249
-0.243523
-0.246856
-0.250288
-0.2537
0.325096
0.324838
0.324496
0.324093
0.323649
0.323126
0.322477
0.32169
0.320797
0.319843
0.318854
0.317837
0.316789
0.315703
0.314578
0.313409
0.312198
0.310944
0.309649
0.308313
0.306937
0.305521
0.304066
0.302574
0.301044
0.299478
0.297876
0.29624
0.294569
0.292864
0.291126
0.289356
0.287554
0.285721
0.283857
0.281963
0.28004
0.278087
0.276106
0.274096
0.272059
0.269994
0.267903
0.265785
0.263641
0.261471
0.259276
0.257056
0.254812
0.252543
0.25025
0.247933
0.245594
0.243231
0.240846
0.238437
0.236007
0.233555
0.231081
0.228586
0.226069
0.223532
0.220973
0.218394
0.215795
0.213176
0.210536
0.207877
0.205199
0.202501
0.199783
0.197047
0.194292
0.191518
0.188726
0.185915
0.183086
0.180239
0.177374
0.174491
0.17159
0.168672
0.165737
0.162783
0.159814
0.156827
0.153823
0.150802
0.147765
0.14471
0.14164
0.138553
0.13545
0.132331
0.129196
0.126044
0.122878
0.119695
0.116496
0.113282
0.110053
0.106808
0.103549
0.100273
0.0969838
0.0936786
0.0903589
0.0870241
0.0836755
0.0803111
0.0769337
0.0735409
0.0701343
0.0667138
0.0632789
0.0598303
0.0563681
0.0528916
0.0494023
0.0458989
0.0423828
0.0388531
0.0353102
0.0317549
0.0281863
0.0246052
0.0210116
0.0174057
0.0137874
0.0101571
0.00651443
0.00286077
-0.000804541
-0.00448181
-0.00817033
-0.0118697
-0.0155796
-0.0193006
-0.0230323
-0.0267737
-0.0305254
-0.0342874
-0.0380579
-0.0418383
-0.0456279
-0.0494266
-0.0532332
-0.0570487
-0.0608712
-0.0647025
-0.06854
-0.0723856
-0.0762366
-0.0800951
-0.0839587
-0.0878285
-0.0917036
-0.0955827
-0.099466
-0.103354
-0.107244
-0.111138
-0.115034
-0.118932
-0.122831
-0.126731
-0.130632
-0.134532
-0.138431
-0.142328
-0.146223
-0.150115
-0.154003
-0.157887
-0.161766
-0.165639
-0.169506
-0.173366
-0.177219
-0.181064
-0.1849
-0.188728
-0.192548
-0.196361
-0.200168
-0.203972
-0.207776
-0.211594
-0.215445
-0.21936
-0.223361
-0.227436
-0.231488
-0.235366
-0.238946
-0.242279
-0.245554
-0.248931
-0.252351
-0.25569
0.3252
0.325003
0.324715
0.324348
0.323935
0.323464
0.322891
0.322185
0.321359
0.320449
0.31949
0.318497
0.317473
0.316415
0.315318
0.314179
0.312997
0.311772
0.310505
0.309197
0.307847
0.306458
0.305029
0.303561
0.302055
0.300511
0.298931
0.297315
0.295664
0.293979
0.292259
0.290505
0.28872
0.286901
0.285052
0.283171
0.28126
0.279319
0.277347
0.275347
0.273318
0.271261
0.269176
0.267063
0.264923
0.262756
0.260564
0.258345
0.256101
0.253831
0.251537
0.249218
0.246875
0.244507
0.242116
0.239701
0.237264
0.234803
0.23232
0.229813
0.227286
0.224736
0.222164
0.219571
0.216956
0.214321
0.211665
0.208987
0.20629
0.203572
0.200834
0.198076
0.195299
0.192502
0.189685
0.18685
0.183995
0.181122
0.178229
0.175318
0.172389
0.169441
0.166475
0.163491
0.160489
0.15747
0.154433
0.151378
0.148306
0.145217
0.142111
0.138987
0.135847
0.132691
0.129517
0.126327
0.123121
0.119899
0.11666
0.113406
0.110135
0.106849
0.103547
0.10023
0.0968974
0.0935496
0.0901864
0.0868083
0.0834154
0.0800073
0.0765848
0.0731481
0.0696962
0.066231
0.062751
0.059257
0.0557496
0.0522278
0.0486931
0.0451441
0.0415823
0.0380078
0.0344194
0.0308187
0.0272052
0.0235792
0.0199407
0.0162899
0.0126273
0.00895254
0.00526648
0.00156878
-0.00213996
-0.00586004
-0.00959082
-0.0133323
-0.0170843
-0.020846
-0.0246183
-0.0284002
-0.0321912
-0.0359921
-0.0398015
-0.0436195
-0.0474458
-0.0512805
-0.0551229
-0.058973
-0.0628298
-0.066694
-0.0705641
-0.0744413
-0.0783229
-0.0822105
-0.0861027
-0.0900004
-0.0939016
-0.0978066
-0.101714
-0.105625
-0.109538
-0.113452
-0.117369
-0.121285
-0.125201
-0.129117
-0.133032
-0.136946
-0.140856
-0.144765
-0.148669
-0.152568
-0.156463
-0.160353
-0.164236
-0.168112
-0.17198
-0.17584
-0.179691
-0.183533
-0.187366
-0.19119
-0.195006
-0.198814
-0.202617
-0.206419
-0.210229
-0.21406
-0.217938
-0.221885
-0.225905
-0.229947
-0.233886
-0.237593
-0.241028
-0.24431
-0.247616
-0.25101
-0.254381
-0.257647
0.325271
0.325136
0.324905
0.32458
0.3242
0.32377
0.323261
0.322634
0.321882
0.321028
0.320107
0.319143
0.318145
0.317114
0.316045
0.314935
0.313782
0.312588
0.31135
0.310071
0.308749
0.307386
0.305983
0.304541
0.303059
0.30154
0.299982
0.298388
0.296758
0.295093
0.293392
0.291657
0.289888
0.288086
0.286252
0.284386
0.282487
0.280558
0.278598
0.276609
0.274589
0.27254
0.270462
0.268355
0.266221
0.264058
0.261869
0.259653
0.25741
0.25514
0.252845
0.250524
0.248177
0.245806
0.24341
0.240989
0.238544
0.236075
0.233583
0.231067
0.228528
0.225966
0.223382
0.220774
0.218145
0.215494
0.21282
0.210126
0.207409
0.204672
0.201914
0.199134
0.196334
0.193514
0.190673
0.187813
0.184931
0.182031
0.179111
0.176172
0.173213
0.170235
0.167238
0.164223
0.161189
0.158136
0.155065
0.151976
0.148869
0.145744
0.142601
0.13944
0.136262
0.133067
0.129855
0.126625
0.123379
0.120115
0.116836
0.11354
0.110227
0.106898
0.103554
0.100193
0.0968162
0.0934242
0.0900169
0.0865936
0.0831557
0.0797023
0.0762343
0.0727516
0.0692539
0.0657423
0.0622158
0.058676
0.0551211
0.0515536
0.0479718
0.0443768
0.040768
0.0371468
0.0335118
0.0298653
0.0262048
0.0225332
0.0188486
0.0151524
0.0114443
0.00772427
0.00399354
0.000251575
-0.00350174
-0.00726547
-0.0110398
-0.0148236
-0.0186184
-0.0224223
-0.0262356
-0.0300583
-0.0338899
-0.0377299
-0.0415776
-0.0454343
-0.0492979
-0.0531693
-0.0570477
-0.0609321
-0.0648241
-0.0687211
-0.0726235
-0.0765321
-0.0804442
-0.0843612
-0.0882819
-0.0922064
-0.0961342
-0.100064
-0.103996
-0.107929
-0.111864
-0.115799
-0.119733
-0.123668
-0.127601
-0.131532
-0.135461
-0.139386
-0.143309
-0.147226
-0.151139
-0.155046
-0.158946
-0.162839
-0.166725
-0.170602
-0.17447
-0.178329
-0.182178
-0.186017
-0.189847
-0.193666
-0.197475
-0.201278
-0.205079
-0.208883
-0.2127
-0.21655
-0.220454
-0.224422
-0.22843
-0.232397
-0.236195
-0.239744
-0.243077
-0.246352
-0.249692
-0.253079
-0.256389
-0.259578
0.325307
0.325231
0.325061
0.324788
0.324444
0.32405
0.323593
0.323038
0.322362
0.321574
0.320701
0.319771
0.318802
0.317798
0.316757
0.315677
0.314555
0.31339
0.312183
0.310932
0.30964
0.308305
0.30693
0.305513
0.304058
0.302563
0.30103
0.299459
0.297851
0.296206
0.294526
0.29281
0.29106
0.289275
0.287457
0.285606
0.283722
0.281806
0.279859
0.27788
0.275871
0.273831
0.271761
0.269662
0.267534
0.265377
0.263192
0.260978
0.258737
0.256468
0.254173
0.251851
0.249502
0.247128
0.244727
0.242301
0.23985
0.237373
0.234873
0.232347
0.229798
0.227224
0.224627
0.222006
0.219362
0.216695
0.214005
0.211292
0.208558
0.2058
0.203021
0.200221
0.197398
0.194554
0.191689
0.188803
0.185896