/*--------------------------------*- C++ -*----------------------------------*\
  =========                 |
  \\      /  F ield         | OpenFOAM: The Open Source CFD Toolbox
   \\    /   O peration     | Website:  https://openfoam.org
    \\  /    A nd           | Version:  8
     \\/     M anipulation  |
\*---------------------------------------------------------------------------*/
FoamFile
{
    version     2.0;
    format      ascii;
    class       surfaceScalarField;
    location    "3.4";
    object      phi;
}
// * * * * * * * * * * * * * * * * * * * * * * * * * * * * * * * * * * * * * //

dimensions      [0 3 -1 0 0 0 0];

internalField   nonuniform List<scalar> 
19800
(
0.0113674
0.0317037
0.0183338
0.0190285
0.0180084
0.00559326
0.014722
-0.00558434
0.0105921
-0.0138585
0.00688533
-0.0193897
0.00417583
-0.0225181
0.00260496
-0.0235186
0.00207384
-0.0225907
0.00236097
-0.0199343
0.00320124
-0.0158073
0.0043267
-0.010555
0.005498
-0.00459606
0.0065202
0.00161016
0.00725438
0.00760824
0.00762235
0.0129916
0.00760318
0.0174353
0.00722864
0.020722
0.00656799
0.0227458
0.00571788
0.0235128
0.00478263
0.0231195
0.0038648
0.0217355
0.00304921
0.019572
0.00239917
0.0168599
0.00194897
0.0138223
0.00170722
0.01066
0.00165748
0.00753685
0.0017662
0.00457634
0.00198792
0.00186006
0.00227367
-0.000566304
0.00257633
-0.00268667
0.00285612
-0.0045051
0.00308343
-0.00603776
0.00324018
-0.00730545
0.00331963
-0.00832819
0.00332445
-0.00912237
0.0032648
-0.00969912
0.00315484
-0.0100658
0.00301089
-0.0102267
0.00284805
-0.0101871
0.00267957
-0.00995382
0.00251463
-0.00953925
0.00235913
-0.0089609
0.00221476
-0.00824326
0.00208071
-0.00741595
0.00195359
-0.00651353
0.00182937
-0.00557255
0.00170353
-0.00463014
0.00157255
-0.00372102
0.00143395
-0.00287594
0.00128703
-0.0021196
0.00113258
-0.00146978
0.000972969
-0.000936666
0.00081168
-0.000523006
0.000652906
-0.000224737
0.000501103
-3.20192e-05
0.000360485
6.93425e-05
0.000234699
9.64355e-05
0.000126477
6.76548e-05
3.75098e-05
1.31845e-06
-3.16416e-05
-8.55574e-05
-8.14919e-05
-0.000178207
-0.000113475
-0.000264705
-0.000129792
-0.000336345
-0.000133111
-0.000387591
-0.000126404
-0.000415955
-0.000112628
-0.000421498
-9.46106e-05
-0.000406403
-7.48091e-05
-0.000374292
-5.52763e-05
-0.000329714
-3.75334e-05
-0.000277519
-2.2615e-05
-0.000222445
-1.10508e-05
-0.000168689
-2.95923e-06
-0.000119685
1.89682e-06
-7.79289e-05
4.00287e-06
-4.49496e-05
4.00716e-06
-2.13427e-05
2.62974e-06
-6.88753e-06
5.84521e-07
-7.07712e-07
-1.47968e-06
-1.45384e-06
-3.02698e-06
-7.49825e-06
-3.65914e-06
-1.71135e-05
-3.1278e-06
-2.86301e-05
-1.33251e-06
-4.05629e-05
1.69561e-06
-5.16963e-05
5.81076e-06
-6.11387e-05
1.07842e-05
-6.83318e-05
1.63253e-05
-7.304e-05
2.21157e-05
-7.53005e-05
2.78277e-05
-7.53664e-05
3.31514e-05
-7.36251e-05
3.78062e-05
-7.05173e-05
4.15537e-05
-6.64486e-05
4.41959e-05
-6.17104e-05
4.55703e-05
-5.64109e-05
4.55534e-05
-5.0418e-05
4.41162e-05
-4.33268e-05
4.14704e-05
-3.4506e-05
3.83009e-05
-2.37491e-05
-1.49615e-05
0.0212114
0.0265083
0.0235321
0.0166917
0.0231246
0.00677963
0.0208596
-0.0019858
0.0178375
-0.00891928
0.0148434
-0.0138882
0.0122439
-0.0169957
0.0101207
-0.0183884
0.00840535
-0.0182114
0.0069816
-0.0166235
0.00573487
-0.0138312
0.00457866
-0.0100995
0.00345915
-0.00574672
0.00235364
-0.00112088
0.00126669
0.00343253
0.000221006
0.00760038
-0.000745375
0.0111311
-0.00159054
0.0138486
-0.0022697
0.0156638
-0.00274659
0.0165672
-0.0029924
0.0166227
-0.00299464
0.0159461
-0.00275364
0.0146893
-0.0022872
0.0130171
-0.00162488
0.0110919
-0.000808652
0.00905776
0.000113777
0.00703318
0.00109064
0.0051049
0.00207205
0.0033299
0.00301193
0.0017374
0.0038718
0.000335857
0.00462166
-0.000881132
0.00524116
-0.00192764
0.00571924
-0.00282006
0.0060531
-0.00357297
0.00624722
-0.00419653
0.00631107
-0.00469621
0.00625834
-0.00507286
0.00610437
-0.00532507
0.00586604
-0.00545043
0.00555948
-0.00544865
0.00520078
-0.00532231
0.00480418
-0.00507921
0.00438319
-0.00473174
0.00394934
-0.00429772
0.00351327
-0.00379856
0.0030839
-0.00325869
0.00266926
-0.00270322
0.00227591
-0.00215678
0.00190941
-0.00164146
0.00157402
-0.00117577
0.00127286
-0.000773501
0.0010078
-0.000443353
0.000779518
-0.000188799
0.000587547
-8.45835e-06
0.000430355
0.000103201
0.000305514
0.000154984
0.000209843
0.000157879
0.000139641
0.000124018
9.08959e-05
6.56547e-05
5.949e-05
-5.71552e-06
4.1446e-05
-8.0009e-05
3.30363e-05
-0.000149072
3.10079e-05
-0.000206866
3.25796e-05
-0.000249595
3.55987e-05
-0.000275489
3.84433e-05
-0.000284633
4.00951e-05
-0.00027852
3.99854e-05
-0.000259735
3.79969e-05
-0.00023146
3.42989e-05
-0.000197161
2.9307e-05
-0.000160192
2.35447e-05
-0.000123578
1.75918e-05
-8.97908e-05
1.19942e-05
-6.06651e-05
7.22449e-06
-3.73483e-05
3.64182e-06
-2.03347e-05
1.47669e-06
-9.53817e-06
8.29985e-07
-4.40252e-06
1.68161e-06
-4.03121e-06
3.91103e-06
-7.31964e-06
7.32165e-06
-1.30831e-05
1.1666e-05
-2.01681e-05
1.66747e-05
-2.754e-05
2.20742e-05
-3.43496e-05
2.76105e-05
-3.99667e-05
3.30545e-05
-4.39967e-05
3.8214e-05
-4.62666e-05
4.29277e-05
-4.67997e-05
4.70633e-05
-4.57697e-05
5.05048e-05
-4.34489e-05
5.31394e-05
-4.01466e-05
5.48413e-05
-3.61462e-05
5.54543e-05
-3.16472e-05
5.47833e-05
-2.67117e-05
5.26055e-05
-2.12369e-05
4.87588e-05
-1.49703e-05
4.34462e-05
-7.69686e-06
3.79629e-05
5.10352e-09
4.81852e-06
0.0285497
0.0257911
0.0294677
0.0171727
0.0287236
0.00813194
0.0267747
-0.000111848
0.0242605
-0.00687064
0.0216739
-0.0119213
0.0192381
-0.015286
0.0169723
-0.0170743
0.0148
-0.0174168
0.0126272
-0.0164642
0.0103903
-0.0143997
0.00806968
-0.0114517
0.00569003
-0.00788825
0.00330914
-0.00400199
0.00100492
-8.62346e-05
-0.00113656
0.00359063
-0.00303381
0.00680603
-0.00461594
0.00940055
-0.00583168
0.0112828
-0.00664936
0.0124314
-0.00706155
0.0128839
-0.00708054
0.0127263
-0.00673921
0.0120741
-0.00608402
0.0110587
-0.00517357
0.00980914
-0.0040712
0.00844278
-0.00284286
0.0070549
-0.00155112
0.00571675
-0.000253735
0.00447357
0.000999966
0.00334889
0.00216929
0.00234807
0.00322341
0.00146501
0.00414047
0.000687051
0.00490713
3.96889e-07
0.00551725
-0.000606644
0.00597059
-0.00114139
0.00627182
-0.00160613
0.00642899
-0.00199886
0.00645314
-0.00231439
0.00635697
-0.00254669
0.00615502
-0.00269032
0.00586246
-0.00274276
0.00549558
-0.00270498
0.00507064
-0.00258281
0.00460437
-0.00238617
0.00411283
-0.00212922
0.00361172
-0.00182871
0.00311537
-0.00150321
0.00263679
-0.00117123
0.00218696
-0.000850282
0.00177481
-0.000555355
0.0014068
-0.00029833
0.00108701
-8.72666e-05
0.000817095
7.36589e-05
0.000596478
0.000184035
0.000422659
0.000246759
0.000291535
0.000267375
0.000197852
0.000253327
0.000135617
0.000213119
9.85371e-05
0.00015556
8.04151e-05
8.90616e-05
7.54622e-05
2.10905e-05
7.85869e-05
-4.22097e-05
8.55249e-05
-9.62738e-05
9.29863e-05
-0.000138137
9.86059e-05
-0.000166422
0.000100959
-0.000181092
9.9388e-05
-0.000183269
9.39273e-05
-0.000174861
8.50812e-05
-0.000158323
7.3713e-05
-0.000136301
6.08409e-05
-0.000111428
4.75377e-05
-8.607e-05
3.47888e-05
-6.22153e-05
2.34309e-05
-4.1356e-05
1.40856e-05
-2.44731e-05
7.14414e-06
-1.20398e-05
2.76616e-06
-4.08043e-06
9.02323e-07
-2.48205e-07
1.33222e-06
7.86534e-08
3.70772e-06
-2.3055e-06
7.60316e-06
-6.52909e-06
1.25605e-05
-1.17311e-05
1.81308e-05
-1.71301e-05
2.39068e-05
-2.20756e-05
2.95446e-05
-2.60796e-05
3.47764e-05
-2.8828e-05
3.94104e-05
-3.01762e-05
4.3324e-05
-3.01276e-05
4.64458e-05
-2.88029e-05
4.87342e-05
-2.63971e-05
5.01513e-05
-2.3132e-05
5.06363e-05
-1.92053e-05
5.00862e-05
-1.47385e-05
4.8348e-05
-9.73873e-06
4.52543e-05
-4.07563e-06
4.07315e-05
2.47028e-06
3.50683e-05
9.9871e-06
2.96312e-05
1.77114e-05
2.23986e-05
0.0353248
0.0252713
0.0358692
0.0176241
0.0351129
0.00936381
0.0333956
0.0015814
0.0311763
-0.0050175
0.0288227
-0.0101347
0.0264982
-0.0137333
0.0242034
-0.0158946
0.0218564
-0.0167426
0.0193665
-0.0164187
0.0166755
-0.0150865
0.0137769
-0.0129355
0.0107134
-0.0101831
0.00756664
-0.00706481
0.00444252
-0.00381866
0.00145506
-0.00066748
-0.00128541
0.00219918
-0.00368481
0.00463676
-0.0056699
0.00655503
-0.00719514
0.00791659
-0.0082406
0.00873486
-0.0088137
0.00906175
-0.00894268
0.00897849
-0.00867507
0.00857969
-0.00806966
0.00796383
-0.00719371
0.00722054
-0.0061158
0.00642585
-0.00490363
0.00563607
-0.00361908
0.00488893
-0.00231747
0.00420361
-0.00104511
0.00358565
0.000160056
0.00303018
0.00126898
0.00252746
0.00226014
0.00206609
0.003119
0.00163676
0.00383674
0.0012337
0.00440938
0.000855716
0.00483705
0.000505792
0.00512315
0.000190001
0.00527424
-8.38073e-05
0.00529929
-0.000307953
0.00520989
-0.000476034
0.00501939
-0.000584577
0.00474319
-0.000633246
0.00439773
-0.000625608
0.00400053
-0.000568353
0.00356908
-0.000471192
0.00312066
-0.000345489
0.00267134
-0.000203657
0.00223567
-5.77653e-05
0.00182593
8.10909e-05
0.00145198
0.000203765
0.00112083
0.000303394
0.000836748
0.000375756
0.00060129
0.000419201
0.000413561
0.000434463
0.000270603
0.000424264
0.00016783
0.000392816
9.9539e-05
0.000345279
5.93969e-05
0.000287214
4.09109e-05
0.000224087
3.78512e-05
0.000160873
4.45546e-05
0.000101729
5.62028e-05
4.9837e-05
6.89179e-05
7.28045e-06
7.98733e-05
-2.4883e-05
8.72072e-05
-4.65774e-05
8.99941e-05
-5.84905e-05
8.80463e-05
-6.19372e-05
8.18035e-05
-5.85936e-05
7.21032e-05
-5.03476e-05
6.00502e-05
-3.90697e-05
4.68217e-05
-2.65044e-05
3.35639e-05
-1.4126e-05
2.12686e-05
-3.09489e-06
1.0721e-05
5.79343e-06
2.45335e-06
1.20913e-05
-3.25572e-06
1.56769e-05
-6.36661e-06
1.66976e-05
-7.04282e-06
1.55085e-05
-5.6037e-06
1.26025e-05
-2.47301e-06
8.54279e-06
1.8738e-06
3.9019e-06
6.95659e-06
-7.89197e-07
1.23293e-05
-5.07933e-06
1.76094e-05
-8.6213e-06
2.24934e-05
-1.11837e-05
2.67633e-05
-1.26486e-05
3.028e-05
-1.29998e-05
3.29675e-05
-1.23007e-05
3.47911e-05
-1.06633e-05
3.57285e-05
-8.21349e-06
3.57455e-05
-5.04811e-06
3.4774e-05
-1.19817e-06
3.27184e-05
3.40734e-06
2.95027e-05
8.94379e-06
2.52085e-05
1.56316e-05
2.03194e-05
2.35234e-05
1.62538e-05
3.20069e-05
3.88267e-05
0.0416215
0.0250953
0.0421546
0.0182016
0.0415762
0.0105692
0.0401369
0.00313837
0.0381961
-0.00338678
0.0360658
-0.00864179
0.0339009
-0.0125214
0.0317108
-0.0150663
0.0294225
-0.0163806
0.0269406
-0.0165974
0.0241946
-0.0158653
0.0211585
-0.0143524
0.0178573
-0.0122428
0.0143594
-0.00973465
0.0107652
-0.00702758
0.0071923
-0.00431124
0.00376176
-0.00175137
0.000586873
0.00052108
-0.00223694
0.00241628
-0.00463655
0.00388872
-0.00656612
0.00493304
-0.00800525
0.00557943
-0.00895951
0.00588234
-0.00945454
0.00591241
-0.009534
0.00574412
-0.0092522
0.00544935
-0.00867148
0.00508878
-0.00785565
0.00470998
-0.00686815
0.00434425
-0.00576757
0.00400913
-0.00460722
0.00370929
-0.0034328
0.00344136
-0.00228319
0.00319634
-0.00118965
0.00296412
-0.000177233
0.00273527
0.000735242
0.00250372
0.00153394
0.00226699
0.00220974
0.00202672
0.00275752
0.0017877
0.00317588
0.00155696
0.00346685
0.00134239
0.00363558
0.00115143
0.00369032
0.000990142
0.0036418
0.000862229
0.00350326
0.000768909
0.00328953
0.000708585
0.00301685
0.000677477
0.00270185
0.000669809
0.00236116
0.000678817
0.00201045
0.000697172
0.00166404
0.000717935
0.00133416
0.000734914
0.00103074
0.000743279
0.000761079
0.000739676
0.000529816
0.000722408
0.000339032
0.000691302
0.000188486
0.000647528
7.59702e-05
0.000593303
-2.2742e-06
0.000531543
-5.10826e-05
0.000465518
-7.591e-05
0.000398517
-8.23941e-05
0.000333572
-7.59706e-05
0.000273244
-6.15855e-05
0.000219475
-4.34505e-05
0.000173538
-2.49447e-05
0.000136016
-8.52399e-06
0.000106885
4.21055e-06
8.55833e-05
1.24798e-05
7.11711e-05
1.61553e-05
6.24268e-05
1.56564e-05
5.80237e-05
1.17492e-05
5.66097e-05
5.42938e-06
5.69466e-05
-2.24906e-06
5.79514e-05
-1.02638e-05
5.87743e-05
-1.77336e-05
5.87973e-05
-2.39609e-05
5.76527e-05
-2.84734e-05
5.51895e-05
-3.10215e-05
5.14493e-05
-3.15654e-05
4.66186e-05
-3.02417e-05
4.09854e-05
-2.73216e-05
3.48923e-05
-2.31649e-05
2.8696e-05
-1.81739e-05
2.27323e-05
-1.27525e-05
1.72895e-05
-7.27272e-06
1.25916e-05
-2.0512e-06
8.78998e-06
2.66425e-06
5.96433e-06
6.69625e-06
4.13095e-06
9.93104e-06
3.25941e-06
1.23015e-05
3.29458e-06
1.37683e-05
4.18659e-06
1.42959e-05
5.9219e-06
1.38434e-05
8.55919e-06
1.23711e-05
1.22511e-05
9.90888e-06
1.72414e-05
6.70399e-06
2.37717e-05
3.49961e-06
3.18485e-05
2.1096e-06
4.07974e-05
4.88908e-05
0.0474892
0.0250158
0.0480977
0.0187521
0.0477714
0.0116758
0.0466614
0.00457185
0.0450405
-0.00188623
0.0431821
-0.00728564
0.0412453
-0.0114538
0.039264
-0.0143761
0.037183
-0.0161252
0.0349113
-0.0168148
0.0323624
-0.016583
0.0294838
-0.0155829
0.0262661
-0.0139819
0.022746
-0.0119555
0.0189972
-0.00968125
0.0151212
-0.00732755
0.011234
-0.00504434
0.00745529
-0.00295332
0.00389772
-0.00114192
0.000658497
0.000338913
-0.00218517
0.00147416
-0.00458079
0.00227891
-0.00649954
0.0027926
-0.00793705
0.00306897
-0.00890868
0.00316918
-0.00944772
0.00315243
-0.00959915
0.00307168
-0.00941709
0.00296797
-0.00895896
0.00287041
-0.00828357
0.00279464
-0.00744686
0.00274607
-0.0065012
0.00272105
-0.00549298
0.00271128
-0.00446307
0.00270555
-0.00344572
0.0026934
-0.00246973
0.00266602
-0.00155803
0.00261818
-0.000728851
0.00254789
4.33542e-06
0.00245671
0.000632094
0.00234862
0.00114893
0.0022294
0.00155298
0.00210537
0.00184574
0.00198258
0.00203201
0.00186611
0.00211936
0.00175946
0.002118
0.0016645
0.00204009
0.00158135
0.00189938
0.00150882
0.00171035
0.00144455
0.00148782
0.0013857
0.00124601
0.00132915
0.000998175
0.00127212
0.00075593
0.00121232
0.000528972
0.00114824
0.000324757
0.0010792
0.000148447
0.00100534
2.93518e-06
0.000927521
-0.00011098
0.000847171
-0.000194311
0.000766075
-0.000249544
0.000686161
-0.000280234
0.000609322
-0.000290619
0.000537232
-0.000285234
0.000471233
-0.000268567
0.000412257
-0.000244794
0.000360789
-0.000217549
0.000316893
-0.00018982
0.00028024
-0.000163843
0.000250203
-0.000141149
0.000225918
-0.000122566
0.000206405
-0.000108355
0.000190623
-9.82885e-05
0.000177582
-9.18124e-05
0.000166371
-8.81443e-05
0.000156233
-8.64188e-05
0.000146565
-8.57675e-05
0.00013695
-8.54155e-05
0.00012713
-8.47239e-05
0.000117006
-8.32313e-05
0.000106599
-8.06565e-05
9.60266e-05
-7.68946e-05
8.54665e-05
-7.1992e-05
7.51296e-05
-6.61151e-05
6.52301e-05
-5.95137e-05
5.59654e-05
-5.24835e-05
4.74993e-05
-4.53321e-05
3.9953e-05
-3.83506e-05
3.34016e-05
-3.17937e-05
2.78777e-05
-2.58674e-05
2.33789e-05
-2.0727e-05
1.98827e-05
-1.64809e-05
1.73655e-05
-1.32022e-05
1.58276e-05
-1.09382e-05
1.53228e-05
-9.71634e-06
1.59886e-05
-9.51899e-06
1.807e-05
-1.02101e-05
2.18988e-05
-1.13805e-05
2.77622e-05
-1.21319e-05
3.55362e-05
-1.15488e-05
4.39693e-05
5.0483e-05
0.0529083
0.0249091
0.0535905
0.0191987
0.0535171
0.012632
0.0527489
0.00585488
0.0514782
-0.000509093
0.0499374
-0.00602251
0.0482882
-0.0104539
0.0465882
-0.013731
0.0448082
-0.0158823
0.0428672
-0.0169963
0.0406725
-0.0171939
0.0381462
-0.0166188
0.0352446
-0.0154275
0.031964
-0.0137861
0.0283416
-0.0118599
0.0244482
-0.00980776
0.0203811
-0.00777068
0.0162524
-0.00586575
0.0121799
-0.00417924
0.00827711
-0.00276466
0.0046454
-0.00164326
0.00136879
-0.000807378
-0.00149078
-0.000227019
-0.00389386
0.000143721
-0.0058245
0.000357892
-0.00728684
0.000469875
-0.00830362
0.000528227
-0.00891074
0.000573058
-0.00915478
0.000632412
-0.00908748
0.000723301
-0.00876369
0.000851328
-0.00823699
0.00101412
-0.00755882
0.00120257
-0.00677572
0.00140484
-0.00592965
0.00160753
-0.00505653
0.00179881
-0.00418733
0.00196867
-0.0033474
0.00211059
-0.00255769
0.0022208
-0.00183441
0.00229876
-0.00119001
0.00234588
-0.000633011
0.00236539
-0.000168514
0.00236115
0.000201733
0.00233733
0.000479079
0.00229773
0.000667712
0.00224554
0.000774419
0.00218326
0.000808076
0.0021126
0.000779324
0.00203473
0.000699865
0.00195038
0.000582048
0.00186011
0.000438127
0.00176443
0.000279849
0.00166407
0.000117841
0.00155994
-3.86882e-05
0.00145325
-0.000182297
0.00134543
-0.000307425
0.0012381
-0.000410438
0.00113295
-0.000489545
0.00103161
-0.000544599
0.000935568
-0.000576857
0.000846044
-0.000588649
0.000763949
-0.000583069
0.000689819
-0.000563633
0.000623835
-0.00053399
0.000565821
-0.000497658
0.000515307
-0.000457813
0.000471587
-0.000417163
0.000433792
-0.000377836
0.000400973
-0.000341381
0.00037216
-0.000308752
0.000346442
-0.000280402
0.000322993
-0.000256332
0.000301135
-0.000236221
0.000280324
-0.000219504
0.000260186
-0.000205498
0.00024048
-0.000193469
0.000221107
-0.000182729
0.000202062
-0.000172671
0.000183429
-0.000162821
0.000165334
-0.000152846
0.000147934
-0.000142559
0.000131383
-0.000131906
0.000115825
-0.000120945
0.000101373
-0.000109816
8.81057e-05
-9.8718e-05
7.6066e-05
-8.78725e-05
6.52633e-05
-7.75059e-05
5.56797e-05
-6.78268e-05
4.72829e-05
-5.90156e-05
4.00389e-05
-5.12163e-05
3.3934e-05
-4.45359e-05
2.89964e-05
-3.90425e-05
2.53286e-05
-3.47555e-05
2.31387e-05
-3.16061e-05
2.27678e-05
-2.93337e-05
2.46635e-05
-2.73214e-05
2.91859e-05
-2.45467e-05
3.60616e-05
-2.15119e-05
4.33386e-05
4.80322e-05
0.0578639
0.0247253
0.058596
0.0195097
0.0587423
0.0134136
0.0582941
0.0069664
0.0573738
0.000732305
0.0561718
-0.00484697
0.0548438
-0.00949732
0.053467
-0.0130921
0.0520369
-0.0156137
0.0504909
-0.0171157
0.0487368
-0.017699
0.0466821
-0.0174935
0.0442526
-0.0166495
0.0414075
-0.0153261
0.0381424
-0.0136861
0.0344918
-0.0118839
0.0305221
-0.0100595
0.0263264
-0.00832895
0.0220142
-0.00678052
0.0177031
-0.0054706
0.0135088
-0.00442481
0.00953761
-0.00364055
0.0058806
-0.00309227
0.00260826
-0.00273836
-0.000230694
-0.00252782
-0.00261074
-0.00240779
-0.00452701
-0.00232854
-0.00599388
-0.0022487
-0.00704008
-0.0021369
-0.00770608
-0.00197378
-0.00803879
-0.00175045
-0.0080892
-0.00146806
-0.00790806
-0.00113449
-0.00754473
-0.000763022
-0.00704435
-0.000368825
-0.00644797
3.19773e-05
-0.00579112
0.000424943
-0.00510472
0.000797355
-0.00441451
0.00113969
-0.00374218
0.0014449
-0.00310515
0.00170894
-0.00251747
0.00192976
-0.00198971
0.00210737
-0.00152948
0.00224289
-0.00114137
0.00233849
-0.000827222
0.00239684
-0.000586248
0.00242099
-0.000415196
0.00241418
-0.000308676
0.00237979
-0.000259437
0.00232131
-0.000258866
0.00224231
-0.00029738
0.00214645
-0.000365012
0.00203741
-0.00045184
0.0019189
-0.000548511
0.00179451
-0.000646609
0.00166765
-0.000738984
0.00154147
-0.000819967
0.00141872
-0.000885461
0.00130168
-0.000932961
0.00119214
-0.000961431
0.00109132
-0.000971159
0.000999899
-0.000963496
0.000918056
-0.00094062
0.000845509
-0.000905235
0.000781624
-0.000860322
0.000725486
-0.000808891
0.000676014
-0.000753777
0.000632049
-0.000697497
0.000592444
-0.00064213
0.000556136
-0.00058928
0.000522196
-0.000540044
0.000489873
-0.000495067
0.000458597
-0.000454567
0.000427992
-0.00041844
0.00039785
-0.000386318
0.000368116
-0.000357681
0.000338845
-0.000331918
0.000310181
-0.000308411
0.00028231
-0.000286586
0.000255441
-0.000265955
0.000229768
-0.000246143
0.000205462
-0.000226893
0.000182652
-0.00020807
0.000161419
-0.000189644
0.000141797
-0.000171669
0.00012378
-0.00015427
0.000107326
-0.000137606
9.23764e-05
-0.000121859
7.88625e-05
-0.000107211
6.67321e-05
-9.38268e-05
5.59642e-05
-8.18428e-05
4.66007e-05
-7.13537e-05
3.87742e-05
-6.23855e-05
3.2753e-05
-5.48331e-05
2.89707e-05
-4.8326e-05
2.80014e-05
-4.20319e-05
3.03128e-05
-3.49108e-05
3.55259e-05
-2.88766e-05
4.13348e-05
4.60491e-05
0.0623599
0.0244623
0.0631194
0.0196914
0.0634427
0.0140272
0.0632732
0.00790561
0.062678
0.0018304
0.0618075
-0.00376802
0.0608062
-0.00858844
0.0597626
-0.0124602
0.0586958
-0.0153193
0.0575628
-0.0171828
0.056282
-0.0181239
0.0547541
-0.0182568
0.052886
-0.0177207
0.0506041
-0.016672
0.0478673
-0.0152708
0.0446697
-0.0136741
0.0410426
-0.0120235
0.0370496
-0.0104402
0.0327813
-0.00901657
0.0283463
-0.00781511
0.0238627
-0.0068664
0.0194486
-0.00617274
0.0152143
-0.00571195
0.0112556
-0.00544412
0.00764891
-0.00531829
0.00444903
-0.00527926
0.00168776
-0.00527388
-0.00062416
-0.00525541
-0.0024953
-0.00518723
-0.0039492
-0.00504384
-0.00502133
-0.00481176
-0.00575412
-0.00448772
-0.00619425
-0.00407777
-0.00638859
-0.00359415
-0.00638278
-0.00305391
-0.00621861
-0.0024758
-0.00593412
-0.00187947
-0.00556219
-0.00128302
-0.00513163
-0.00070309
-0.00466656
-0.000153298
-0.00418777
0.000355061
-0.00371236
0.000813835
-0.00325485
0.00121712
-0.0028269
0.00156163
-0.00243792
0.00184592
-0.00209485
0.00207048
-0.00180243
0.00223719
-0.00156302
0.00234934
-0.00137683
0.00241118
-0.00124195
0.00242787
-0.00115456
0.0024052
-0.00110923
0.0023494
-0.00109932
0.0022669
-0.00111732
0.00216411
-0.00115538
0.0020472
-0.00120568
0.00192193
-0.00126089
0.00179341
-0.00131449
0.00166603
-0.00136103
0.00154333
-0.00139632
0.00142798
-0.00141747
0.00132173
-0.00142291
0.00122555
-0.00141228
0.00113967
-0.00138625
0.00106369
-0.00134633
0.00099675
-0.00129465
0.000937666
-0.00123369
0.000885064
-0.00116611
0.000837529
-0.0010945
0.000793703
-0.00102125
0.000752376
-0.000948441
0.000712547
-0.000877747
0.000673455
-0.00081041
0.000634593
-0.000747254
0.000595682
-0.000688703
0.000556662
-0.00063485
0.000517632
-0.000585513
0.000478823
-0.000540324
0.000440532
-0.000498792
0.000403098
-0.00046038
0.000366845
-0.000424553
0.000332068
-0.000390834
0.000299
-0.000358824
0.000267812
-0.000328231
0.000238598
-0.000298863
0.000211391
-0.000270636
0.000186163
-0.000243551
0.000162849
-0.000217684
0.000141358
-0.000193163
0.000121598
-0.000170149
0.000103493
-0.000148812
8.70124e-05
-0.000129318
7.21962e-05
-0.000111795
5.9198e-05
-9.63053e-05
4.83246e-05
-8.27549e-05
4.00881e-05
-7.07354e-05
3.51713e-05
-5.93248e-05
3.41544e-05
-4.762e-05
3.67102e-05
-3.8367e-05
4.09816e-05
4.91015e-05
0.0664211
0.0241418
0.0671907
0.0197668
0.0676485
0.0144936
0.0677083
0.00868439
0.0673969
0.00278585
0.0668296
-0.0027926
0.066136
-0.00773734
0.0654109
-0.011844
0.0646913
-0.0150088
0.0639562
-0.0172099
0.063138
-0.0184912
0.0621418
-0.0189439
0.0608635
-0.0186954
0.0592084
-0.017894
0.0571029
-0.0166999
0.0545057
-0.0152715
0.0514099
-0.0137572
0.047846
-0.0122845
0.0438762
-0.0109554
0.0395908
-0.00984023
0.0350978
-0.0089782
0.0305161
-0.0083776
0.0259644
-0.00802112
0.021555
-0.00787048
0.0173852
-0.00787409
0.0135338
-0.00797334
0.0100578
-0.00810941
0.00699192
-0.00822844
0.00434976
-0.0082854
0.00212623
-0.00824668
0.0003015
-0.00809072
-0.0011556
-0.00780807
-0.0022829
-0.00739963
-0.00312206
-0.00687537
-0.00371475
-0.00625146
-0.00410126
-0.00554881
-0.00431818
-0.00479028
-0.00439856
-0.00399972
-0.00437075
-0.00319979
-0.00425963
-0.00241178
-0.00408612
-0.00165408
-0.00386862
-0.000942552
-0.00362276
-0.000289608
-0.00336247
0.000295171
-0.00309973
0.000805574
-0.00284507
0.00123806
-0.00260725
0.00159201
-0.00239346
0.00186906
-0.00220895
0.00207314
-0.00205711
0.00220981
-0.00193935
0.00228614
-0.00185517
0.00231015
-0.00180233
0.00229048
-0.0017771
0.00223593
-0.00177457
0.00215516
-0.00178907
0.00205627
-0.00181456
0.00194659
-0.00184504
0.00183243
-0.00187489
0.00171895
-0.00189925
0.00161009
-0.00191411
0.00150863
-0.0019166
0.00141619
-0.00190491
0.00133342
-0.00187837
0.00126012
-0.00183722
0.00119549
-0.0017826
0.00113825
-0.00171623
0.0010869
-0.00164031
0.00103985
-0.00155723
0.000995588
-0.00146947
0.000952769
-0.00137935
0.00091031
-0.00128899
0.000867419
-0.00120016
0.000823612
-0.00111424
0.000778692
-0.00103224
0.000732713
-0.000954787
0.000685928
-0.000882164
0.00063873
-0.000814372
0.000591598
-0.000751204
0.000545032
-0.000692296
0.00049952
-0.000637208
0.000455484
-0.000585472
0.000413274
-0.000536645
0.000373139
-0.000490343
0.000335236
-0.000446266
0.000299627
-0.000404207
0.000266306
-0.000364062
0.000235203
-0.000325813
0.000206224
-0.000289525
0.000179259
-0.000255324
0.000154222
-0.000223381
0.000131071
-0.000193886
0.000109845
-0.000167027
9.07005e-05
-0.000142945
7.39696e-05
-0.000121651
6.02001e-05
-0.000102865
5.01418e-05
-8.58449e-05
4.44946e-05
-6.99813e-05
4.33067e-05
-5.76668e-05
4.64187e-05
6.22758e-05
0.0700856
0.023791
0.0708533
0.0197647
0.0714084
0.0148412
0.0716487
0.00932472
0.0715726
0.0036104
0.0712669
-0.00191904
0.0708458
-0.00694862
0.0704047
-0.0112518
0.0699954
-0.0146908
0.0696163
-0.0172087
0.0692187
-0.0188162
0.0687172
-0.0195802
0.0680085
-0.0196089
0.0669844
-0.0190417
0.0655501
-0.0180338
0.0636326
-0.0167468
0.0611919
-0.0153343
0.0582223
-0.0139345
0.0547553
-0.0126597
0.0508535
-0.0115932
0.0466074
-0.0107845
0.0421246
-0.0102526
0.0375232
-0.00998631
0.0329207
-0.00995176
0.0284277
-0.0100972
0.02414
-0.0103614
0.020135
-0.0106792
0.0164686
-0.0109883
0.013175
-0.0112338
0.0102684
-0.0113715
0.00774551
-0.0113694
0.00558905
-0.0112087
0.00377192
-0.010883
0.00226116
-0.0103967
0.00102098
-0.00976345
1.60774e-05
-0.00900336
-0.000787077
-0.00814161
-0.00141834
-0.00720571
-0.00190418
-0.00622433
-0.00226697
-0.00522523
-0.0025262
-0.00423471
-0.00269836
-0.00327603
-0.00279835
-0.00236953
-0.00283933
-0.00153149
-0.00283385
-0.000774615
-0.0027934
-0.000107374
-0.00272905
0.000465341
-0.00265084
0.000942461
-0.00256794
0.00132597
-0.00248807
0.00162083
-0.0024175
0.00183417
-0.00236064
0.00197496
-0.00232015
0.00205327
-0.00229682
0.0020798
-0.00228977
0.00206527
-0.00229669
0.00201999
-0.00231417
0.0019534
-0.00233806
0.00187384
-0.00236388
0.00178823
-0.00238718
0.0017021
-0.00240387
0.00161941
-0.0024105
0.00154281
-0.00240444
0.00147362
-0.00238396
0.00141216
-0.00234832
0.00135788
-0.00229763
0.00130967
-0.00223283
0.00126603
-0.00215544
0.00122535
-0.00206753
0.00118603
-0.00197136
0.00114665
-0.00186938
0.00110608
-0.00176391
0.00106352
-0.00165716
0.00101849
-0.00155101
0.000970874
-0.00144703
0.00092084
-0.00134642
0.000868785
-0.00124999
0.000815275
-0.00115826
0.000760971
-0.0010714
0.000706566
-0.000989386
0.000652723
-0.000912009
0.00060004
-0.000838947
0.000549005
-0.000769827
0.000499996
-0.000704277
0.000453263
-0.000641958
0.000408944
-0.000582607
0.000367078
-0.000526037
0.000327632
-0.000472164
0.000290524
-0.000420993
0.000255655
-0.000372622
0.000222938
-0.000327216
0.000192333
-0.00028501
0.000163873
-0.000246273
0.000137722
-0.000211296
0.000114204
-0.000180324
9.38697e-05
-0.000153461
7.74625e-05
-0.000130573
6.58016e-05
-0.000111619
5.96923e-05
-9.78224e-05
6.22723e-05
9.19664e-05
0.0734005
0.0234349
0.074158
0.0197109
0.0747791
0.0150964
0.0751548
0.00984962
0.0752647
0.00431994
0.0751732
-0.00113935
0.0749794
-0.00622039
0.0747769
-0.0106838
0.0746271
-0.0143664
0.0745466
-0.0171788
0.0745053
-0.0191005
0.0744343
-0.0201695
0.0742361
-0.0204735
0.0738015
-0.0201358
0.0730209
-0.019306
0.0718008
-0.0181435
0.0700711
-0.0168089
0.0677951
-0.0154486
0.0649704
-0.0141894
0.061631
-0.0131278
0.0578411
-0.012329
0.053691
-0.0118239
0.049287
-0.0116128
0.0447444
-0.0116679
0.0401769
-0.0119409
0.0356902
-0.0123688
0.0313752
-0.0128817
0.0273045
-0.0134087
0.0235298
-0.0138844
0.0200828
-0.0142523
0.016976
-0.0144684
0.0142065
-0.0145018
0.0117593
-0.014336
0.00961101
-0.0139672
0.00773402
-0.0134033
0.00609911
-0.0126616
0.00467824
-0.0117668
0.00344579
-0.0107487
0.00237976
-0.00964001
0.0014614
-0.00847457
0.000675435
-0.00728539
8.74601e-06
-0.00610374
-0.000549786
-0.00495748
-0.0010107
-0.00387085
-0.00138398
-0.0028633
-0.00168001
-0.00194984
-0.00190927
-0.00114032
-0.00208274
-0.000440164
-0.00221122
0.000149788
-0.00230535
0.000632406
-0.0023749
0.00101401
-0.00242858
0.0013034
-0.00247351
0.00151133
-0.00251519
0.00164964
-0.00255719
0.00173065
-0.00260137
0.00176643
-0.0026479
0.00176837
-0.00269562
0.00174664
-0.00274232
0.00170999
-0.00278514
0.00166547
-0.00282091
0.0016185
-0.00284657
0.00157282
-0.00285935
0.00153069
-0.00285715
0.00149307
-0.00283851
0.00145993
-0.00280287
0.00143042
-0.00275039
0.00140327
-0.00268201
0.0013769
-0.00259926
0.00134979
-0.00250414
0.00132049
-0.00239898
0.00128789
-0.00228622
0.00125118
-0.00216832
0.00120997
-0.00204758
0.00116419
-0.00192609
0.00111415
-0.00180558
0.0010604
-0.00168749
0.00100369
-0.00157287
0.00094487
-0.00146243
0.00088485
-0.00135659
0.0008245
-0.00125551
0.000764611
-0.00115916
0.000705855
-0.00106737
0.000648763
-0.000979895
0.000593722
-0.000896468
0.000540975
-0.000816837
0.000490648
-0.000740813
0.000442769
-0.000668278
0.000397302
-0.000599214
0.000354177
-0.000533701
0.000313333
-0.000471927
0.000274739
-0.000414179
0.000238445
-0.000360859
0.000204607
-0.000312477
0.000173541
-0.000269681
0.000145742
-0.000233242
0.000121894
-0.000204005
0.000102913
-0.000182709
9.06945e-05
-0.00016827
9.35139e-05
0.000144613
0.076416
0.0230911
0.0771576
0.0196263
0.0778193
0.0152832
0.0782913
0.010283
0.0785413
0.00493454
0.0786163
-0.000439125
0.0786016
-0.00554323
0.0785867
-0.010134
0.0786394
-0.0140294
0.0787909
-0.017114
0.0790304
-0.0193365
0.0793064
-0.0207067
0.0795357
-0.0212866
0.0796128
-0.0211823
0.0794257
-0.0205304
0.0788662
-0.0194879
0.0778445
-0.0182165
0.0762958
-0.016873
0.0741889
-0.0155956
0.0715262
-0.0144983
0.0683451
-0.0136621
0.0647113
-0.0131351
0.0607142
-0.0129306
0.0564571
-0.0130324
0.0520502
-0.0133977
0.0476002
-0.0139657
0.0432055
-0.0146629
0.0389487
-0.0154121
0.0348949
-0.016137
0.0310895
-0.016769
0.0275592
-0.0172501
0.024314
-0.0175363
0.0213504
-0.0175979
0.018655
-0.0174206
0.0162086
-0.0170034
0.0139888
-0.0163581
0.0119737
-0.0155064
0.0101431
-0.0144778
0.00848007
-0.0133074
0.00697122
-0.0120332
0.00560627
-0.0106945
0.00437777
-0.00932919
0.00327965
-0.00797319
0.00230681
-0.00665822
0.00145368
-0.00541158
0.000714064
-0.00425493
8.0238e-05
-0.00320455
-0.00045667
-0.00227078
-0.000907029
-0.00145876
-0.00128188
-0.000768447
-0.00159287
-0.000195683
-0.00185131
0.000267407
-0.00206793
0.000631227
-0.00225215
0.000908116
-0.00241196
0.00111125
-0.00255344
0.00125405
-0.00268093
0.00134937
-0.00279694
0.00140903
-0.00290246
0.00144334
-0.00299714
0.00146093
-0.0030798
0.00146851
-0.0031486
0.00147107
-0.00320159
0.00147181
-0.00323687
0.00147251
-0.00325297
0.00147369
-0.00324891
0.00147498
-0.00322446
0.00147533
-0.00317999
0.00147344
-0.00311662
0.00146782
-0.00303598
0.00145716
-0.00294022
0.00144036
-0.00283174
0.00141671
-0.00271317
0.00138586
-0.00258709