/*--------------------------------*- C++ -*----------------------------------*\
  =========                 |
  \\      /  F ield         | OpenFOAM: The Open Source CFD Toolbox
   \\    /   O peration     | Website:  https://openfoam.org
    \\  /    A nd           | Version:  8
     \\/     M anipulation  |
\*---------------------------------------------------------------------------*/
FoamFile
{
    version     2.0;
    format      ascii;
    class       volVectorField;
    location    "3.4";
    object      U;
}
// * * * * * * * * * * * * * * * * * * * * * * * * * * * * * * * * * * * * * //

dimensions      [0 1 -1 0 0 0 0];

internalField   nonuniform List<vector> 
10000
(
(0.134874 0.921562 0)
(0.439418 0.549389 0)
(0.482631 0.13145 4.51714e-19)
(0.42054 -0.208409 -1.23419e-21)
(0.316507 -0.453268 -3.60349e-19)
(0.212717 -0.612027 0)
(0.130262 -0.697327 0)
(0.0766709 -0.718256 0)
(0.0515062 -0.68101 0)
(0.0501664 -0.591675 0)
(0.0661857 -0.458284 0)
(0.0926578 -0.291616 0)
(0.123062 -0.104767 0)
(0.151848 0.087977 0)
(0.174763 0.272554 0)
(0.18906 0.43651 0)
(0.193516 0.570039 0)
(0.188319 0.666692 0)
(0.174824 0.723552 0)
(0.155206 0.741097 0)
(0.132095 0.722636 -1.3213e-18)
(0.10817 0.673628 -1.71472e-20)
(0.0858629 0.600812 1.56408e-18)
(0.067072 0.51143 0)
(0.0530471 0.412476 0)
(0.0443163 0.310182 -4.64288e-19)
(0.0407586 0.209636 -2.08027e-21)
(0.0417046 0.114644 3.688e-19)
(0.0461194 0.0277316 0)
(0.052772 -0.0496996 0)
(0.0604193 -0.117147 0)
(0.0679424 -0.174735 -1.83545e-19)
(0.0744548 -0.222957 6.03318e-22)
(0.0793535 -0.262453 1.13049e-19)
(0.0823323 -0.293849 0)
(0.0833535 -0.317667 0)
(0.0825942 -0.334285 0)
(0.0803791 -0.34397 0)
(0.077106 -0.346924 -5.0555e-20)
(0.0731842 -0.34337 -3.45151e-21)
(0.0689771 -0.333612 1.36126e-19)
(0.0647725 -0.318106 -1.69856e-19)
(0.0607578 -0.297489 -3.16953e-21)
(0.0570266 -0.272591 2.13298e-19)
(0.0535821 -0.244407 -2.21692e-19)
(0.0503658 -0.21406 -2.2394e-21)
(0.0472758 -0.182736 2.1244e-19)
(0.044199 -0.15161 0)
(0.0410282 -0.121779 0)
(0.0376851 -0.0941965 0)
(0.0341275 -0.0696205 0)
(0.0303568 -0.0485825 0)
(0.0264143 -0.0313729 -6.76981e-20)
(0.0223759 -0.0180463 -4.37585e-20)
(0.0183412 -0.0084439 9.66905e-23)
(0.0144222 -0.00222851 7.3966e-21)
(0.0107311 0.00107084 -4.49839e-21)
(0.00736913 0.00201084 0)
(0.00441858 0.00118492 0)
(0.00193614 -0.000820948 0)
(-4.94227e-05 -0.00346598 1.3509e-20)
(-0.00153772 -0.00628354 -1.65073e-22)
(-0.00255407 -0.00889965 -4.1836e-21)
(-0.00314521 -0.0110428 6.77601e-22)
(-0.00337381 -0.0125433 1.31199e-22)
(-0.00331205 -0.0133267 -5.63108e-21)
(-0.0030359 -0.0133997 7.43276e-21)
(-0.00261908 -0.0128342 1.19107e-22)
(-0.002129 -0.0117471 -9.26675e-21)
(-0.0016228 -0.0102831 9.31643e-21)
(-0.00114577 -0.00859559 7.31001e-23)
(-0.000729952 -0.00683298 -8.04878e-21)
(-0.000394834 -0.00512636 0)
(-0.000148104 -0.0035818 0)
(1.22315e-05 -0.00227567 0)
(9.58537e-05 -0.00125356 0)
(0.000117591 -0.00053182 0)
(9.51832e-05 -0.000101253 -2.37325e-21)
(4.71204e-05 6.76785e-05 -2.25272e-24)
(-9.10877e-06 1.89743e-05 -4.51133e-23)
(-5.83496e-05 -0.000195004 0)
(-8.87127e-05 -0.0005192 0)
(-9.20151e-05 -0.000900776 0)
(-6.38975e-05 -0.00129301 0)
(-3.58389e-06 -0.00165795 0)
(8.6576e-05 -0.00196798 0)
(0.000201707 -0.00220613 0)
(0.000335126 -0.00236552 0)
(0.000479006 -0.00244788 0)
(0.000625093 -0.00246159 0)
(0.000765243 -0.00241918 0)
(0.000891956 -0.00233469 0)
(0.000998666 -0.00222099 0)
(0.00107991 -0.00208724 0)
(0.0011312 -0.00193676 0)
(0.00114881 -0.00176514 -7.89927e-23)
(0.00113022 -0.00155852 -8.74238e-25)
(0.00107609 -0.00129249 6.03608e-22)
(0.000997714 -0.000947655 0)
(0.000907778 -0.000639007 0)
(0.482099 0.669998 0)
(0.578721 0.408735 0)
(0.599506 0.151157 1.90466e-19)
(0.558406 -0.0735791 -2.15643e-21)
(0.485579 -0.248137 -2.60268e-19)
(0.406568 -0.370507 0)
(0.335206 -0.444459 0)
(0.276117 -0.474324 0)
(0.228717 -0.463902 0)
(0.190234 -0.417277 0)
(0.157563 -0.339743 0)
(0.128095 -0.23826 0)
(0.100053 -0.121236 0)
(0.072486 0.00210593 0)
(0.0451782 0.122596 0)
(0.0184988 0.231977 0)
(-0.00677431 0.323608 0)
(-0.0296015 0.392938 0)
(-0.0488737 0.437676 0)
(-0.0635335 0.457727 0)
(-0.0727439 0.454873 -5.01823e-19)
(-0.0759549 0.432337 -4.49494e-20)
(-0.073005 0.39424 8.27222e-19)
(-0.0641083 0.34508 0)
(-0.0498664 0.28925 0)
(-0.0311827 0.230683 -3.09806e-19)
(-0.00920184 0.172592 -6.68529e-21)
(0.014812 0.117377 2.77205e-19)
(0.0395618 0.0666109 0)
(0.063828 0.0211414 0)
(0.0865353 -0.01876 0)
(0.106817 -0.0532202 -1.79544e-19)
(0.124039 -0.0825903 3.2214e-22)
(0.137809 -0.107298 1.3551e-19)
(0.147958 -0.127736 0)
(0.154517 -0.144203 0)
(0.157669 -0.156878 0)
(0.157715 -0.165839 0)
(0.155028 -0.171103 7.70642e-20)
(0.150018 -0.172682 -7.6534e-21)
(0.143106 -0.17063 -6.13531e-21)
(0.134697 -0.165097 -2.5519e-20)
(0.125174 -0.156353 -7.57404e-21)
(0.114884 -0.144801 7.62592e-20)
(0.10414 -0.13097 -9.36849e-20)
(0.093218 -0.115486 -5.69903e-21)
(0.0823621 -0.0990397 1.10564e-19)
(0.0717818 -0.0823373 0)
(0.0616589 -0.0660555 0)
(0.0521435 -0.0507999 0)
(0.0433582 -0.0370678 0)
(0.0353945 -0.025226 0)
(0.0283145 -0.0154967 -5.30078e-20)
(0.0221499 -0.00795851 -3.80141e-20)
(0.016903 -0.00255665 1.39361e-22)
(0.0125486 0.000877485 1.21246e-20)
(0.00903665 0.00260021 2.03685e-21)
(0.00629642 0.00292686 0)
(0.00424111 0.00220169 0)
(0.00277346 0.000770554 0)
(0.00179107 -0.00104319 1.29992e-20)
(0.00119182 -0.00295716 -3.50597e-22)
(0.000878809 -0.00474263 -9.36885e-21)
(0.00076402 -0.00623127 -3.11155e-21)
(0.000771774 -0.00731605 3.13616e-22)
(0.000839973 -0.00794776 -3.1748e-22)
(0.000921537 -0.0081272 1.84353e-21)
(0.000983411 -0.00789567 3.04672e-22)
(0.00100612 -0.00732328 -3.99511e-21)
(0.000981333 -0.00649788 4.53808e-21)
(0.000910176 -0.00551405 2.0068e-22)
(0.00080033 -0.0044641 -4.61653e-21)
(0.000663992 -0.00343052 0)
(0.000515311 -0.00248101 0)
(0.000368692 -0.00166536 0)
(0.00023711 -0.00101454 0)
(0.000131131 -0.000541485 0)
(5.82261e-05 -0.000243142 -1.95171e-21)
(2.25602e-05 -0.000103593 -1.09213e-23)
(2.51183e-05 -9.75626e-05 3.15553e-24)
(6.40727e-05 -0.000194154 0)
(0.00013536 -0.000360329 0)
(0.000233329 -0.000563986 0)
(0.000351403 -0.000776412 0)
(0.000482713 -0.000974016 0)
(0.000620582 -0.00113937 0)
(0.000758935 -0.00126151 0)
(0.000892476 -0.00133567 0)
(0.0010168 -0.00136245 0)
(0.00112827 -0.00134666 0)
(0.00122383 -0.00129579 0)
(0.0013007 -0.00121842 0)
(0.00135597 -0.00112249 0)
(0.0013862 -0.00101374 0)
(0.00138698 -0.00089434 0)
(0.00135286 -0.000761964 -3.67246e-22)
(0.00127813 -0.000609856 -6.12408e-24)
(0.00116013 -0.00043054 6.8933e-22)
(0.0010125 -0.000234074 0)
(0.000881642 -0.000101685 0)
(0.690522 0.654248 -8.68793e-20)
(0.73663 0.424879 -1.55329e-19)
(0.737556 0.187929 -5.98639e-21)
(0.69985 -0.0248228 3.24588e-21)
(0.639879 -0.196587 -4.06648e-20)
(0.573648 -0.322712 4.09633e-19)
(0.510011 -0.404452 6.02464e-19)
(0.45135 -0.444754 7.47862e-19)
(0.396343 -0.446934 8.26778e-19)
(0.342482 -0.414814 0)
(0.287623 -0.353306 7.60638e-19)
(0.230691 -0.26867 6.24594e-19)
(0.171784 -0.168367 4.37342e-19)
(0.111993 -0.0605459 2.17103e-19)
(0.0530809 0.046671 -1.61898e-20)
(-0.00284985 0.145896 0)
(-0.0536589 0.231124 -4.49733e-19)
(-0.0974121 0.298112 -6.21592e-19)
(-0.13256 0.344603 -7.5145e-19)
(-0.158057 0.370234 -8.36827e-19)
(-0.173411 0.376329 -9.10678e-19)
(-0.17869 0.365472 1.322e-18)
(-0.174467 0.341086 -3.94323e-19)
(-0.161754 0.306927 -7.98275e-19)
(-0.14188 0.266702 -7.28333e-19)
(-0.116392 0.223707 -8.97558e-19)
(-0.0869242 0.180638 -5.49544e-19)
(-0.0551033 0.139469 -2.3746e-19)
(-0.0224471 0.101469 -4.11028e-19)
(0.0096936 0.0672752 0)
(0.0401875 0.0370383 -2.75415e-19)
(0.0681368 0.0105783 -4.09766e-19)
(0.0928839 -0.012457 8.03988e-20)
(0.113992 -0.0324572 5.16724e-20)
(0.131222 -0.049755 -6.14197e-20)
(0.144502 -0.0645655 0)
(0.153893 -0.0769773 2.55214e-20)
(0.159561 -0.0869612 6.36279e-20)
(0.161748 -0.0944203 1.55058e-19)
(0.160758 -0.0992321 1.2521e-19)
(0.156934 -0.101312 5.84774e-20)
(0.150652 -0.10065 4.95632e-20)
(0.142307 -0.0973482 1.70108e-19)
(0.132308 -0.0916325 1.76829e-19)
(0.121071 -0.0838522 5.28542e-20)
(0.109008 -0.074456 1.54938e-19)
(0.0965172 -0.0639673 6.38321e-20)
(0.0839762 -0.0529411 -1.17112e-19)
(0.0717279 -0.0419269 4.70916e-20)
(0.060074 -0.0314288 -3.99015e-20)
(0.0492637 -0.0218743 -2.9872e-20)
(0.0394896 -0.0135909 1.94041e-20)
(0.0308831 -0.00679287 -8.72324e-20)
(0.0235147 -0.00157853 -2.46934e-20)
(0.0173964 0.00206337 3.47583e-21)
(0.012488 0.0042389 1.15866e-20)
(0.00870476 0.00512943 -1.71547e-21)
(0.00592736 0.00496812 2.23143e-22)
(0.00401299 0.00401612 1.84584e-22)
(0.002806 0.00253987 -3.11953e-21)
(0.00214849 0.000791127 1.59861e-20)
(0.00188921 -0.00100833 4.30705e-21)
(0.00189114 -0.00267812 -7.10684e-21)
(0.00203679 -0.00408461 4.92399e-21)
(0.00223151 -0.00514305 1.3618e-20)
(0.00240487 -0.00581429 1.93529e-20)
(0.0025099 -0.00609983 1.48449e-20)
(0.00252132 -0.0060334 -8.40164e-21)
(0.00243209 -0.0056726 1.5331e-20)
(0.00224987 -0.00508924 1.65079e-20)
(0.00199254 -0.00436113 -6.53223e-21)
(0.00168443 -0.00356427 8.41324e-21)
(0.00135226 -0.00276706 9.00881e-21)
(0.00102227 -0.00202596 0)
(0.000717557 -0.00138303 5.16228e-21)
(0.000456528 -0.000865076 3.58329e-21)
(0.000251874 -0.000484162 2.30839e-21)
(0.000110406 -0.000239313 -4.93408e-24)
(3.33403e-05 -0.000118899 7.03197e-22)
(1.70844e-05 -0.000103524 -1.12973e-22)
(5.42916e-05 -0.000168995 1.73431e-22)
(0.000135044 -0.000289167 1.86884e-22)
(0.00024808 -0.000438461 3.07323e-22)
(0.000381879 -0.000593847 4.79208e-22)
(0.000525611 -0.000736339 0)
(0.000669809 -0.00085181 7.92076e-22)
(0.000806811 -0.000931344 8.68135e-22)
(0.000930904 -0.000970996 8.67789e-22)
(0.00103824 -0.000971207 7.87672e-22)
(0.0011265 -0.000935812 6.35387e-22)
(0.00119442 -0.000870859 0)
(0.00124115 -0.000783219 1.79145e-22)
(0.0012656 -0.000679142 -8.1497e-23)
(0.00126578 -0.000562879 -3.33846e-22)
(0.00123844 -0.000435493 -5.58266e-22)
(0.00117917 -0.000294254 -1.20642e-21)
(0.00108391 -0.000133512 8.38741e-22)
(0.000952825 4.9686e-05 -2.48522e-22)
(0.000800461 0.000236051 -7.72178e-22)
(0.000676663 0.000342035 -4.4139e-22)
(0.866997 0.634976 3.30541e-21)
(0.89873 0.433386 8.27212e-22)
(0.895081 0.218563 7.95365e-20)
(0.861433 0.0194708 1.06814e-33)
(0.809215 -0.146502 -2.11306e-19)
(0.750206 -0.272882 -4.04868e-33)
(0.691117 -0.359545 1.2675e-32)
(0.633542 -0.408938 -6.39718e-33)
(0.575967 -0.424262 -3.06841e-19)
(0.515885 -0.409132 -3.33776e-32)
(0.451273 -0.367781 7.41973e-19)
(0.381285 -0.305308 2.87748e-32)
(0.306417 -0.227637 -1.54832e-32)
(0.228299 -0.141233 -6.28699e-33)
(0.149357 -0.0526309 -1.14398e-18)
(0.0724136 0.0321102 1.32755e-32)
(0.000328853 0.107879 9.9085e-19)
(-0.0643003 0.170888 1.45577e-32)
(-0.119364 0.218841 -1.76923e-32)
(-0.163365 0.250963 7.74756e-33)
(-0.195494 0.267824 -3.03107e-19)
(-0.215605 0.271085 3.72925e-32)
(-0.224167 0.263131 -2.01083e-20)
(-0.222146 0.246721 -1.54246e-32)
(-0.2109 0.224638 -1.61488e-32)
(-0.192025 0.199423 -1.45449e-19)
(-0.167242 0.173179 -5.32915e-33)
(-0.13827 0.147476 1.77475e-19)
(-0.106745 0.123334 3.87228e-19)
(-0.0741384 0.101283 1.41083e-32)
(-0.0417277 0.0814563 -3.73002e-19)
(-0.0105665 0.0637252 3.57693e-19)
(0.0185079 0.0478176 -8.00918e-34)
(0.0448667 0.0334311 -3.20991e-19)
(0.0680627 0.0203157 3.01045e-19)
(0.0878083 0.00832215 -3.57554e-35)
(0.103948 -0.00257869 -2.57428e-19)
(0.116436 -0.0123095 2.40415e-19)
(0.125321 -0.020714 2.06389e-19)
(0.13073 -0.0276031 -1.83452e-19)
(0.132861 -0.0327962 4.71336e-21)
(0.131972 -0.0361663 1.1638e-19)
(0.128378 -0.0376657 -8.80397e-20)
(0.122442 -0.0373483 -2.77351e-20)
(0.114566 -0.0353683 2.79329e-20)
(0.105177 -0.0319745 1.88313e-21)
(0.0947164 -0.0274869 -1.57373e-20)
(0.0836224 -0.0222726 1.4771e-20)
(0.0723157 -0.0167129 1.96353e-20)
(0.0611811 -0.0111757 -4.59814e-20)
(0.0505564 -0.00598769 4.70583e-20)
(0.040719 -0.0014151 -4.44256e-20)
(0.0318801 0.00235038 -1.87913e-20)
(0.0241801 0.00519675 4.73553e-20)
(0.0176903 0.00709024 -3.8735e-34)
(0.0124168 0.00806767 1.3619e-20)
(0.0083089 0.00822384 -1.42908e-22)
(0.00526959 0.00769636 3.82392e-21)
(0.00316741 0.00664884 -1.08188e-20)
(0.00184929 0.00525482 3.05714e-34)
(0.00115257 0.00368303 1.89709e-20)
(0.000916321 0.00208556 -2.13041e-20)
(0.000990507 0.000589096 -2.07955e-20)
(0.00124318 -0.000710467 -9.2126e-21)
(0.00156533 -0.00174985 2.4205e-34)
(0.00187315 -0.00249777 6.97975e-21)
(0.00210856 -0.00295131 1.1894e-20)
(0.00223736 -0.00313137 1.16092e-34)
(0.00224662 -0.00307632 -5.98621e-21)
(0.00214041 -0.00283603 3.50238e-21)
(0.00193571 -0.00246555 -2.1248e-34)
(0.00165767 -0.0020199 -3.24713e-23)
(0.00133559 -0.00154953 -8.9993e-22)
(0.000999105 -0.00109719 -7.51736e-36)
(0.000675363 -0.000695835 1.35704e-21)
(0.000386802 -0.000367786 -4.59347e-35)
(0.000149966 -0.000124907 -3.17393e-35)
(-2.50769e-05 3.04414e-05 1.39483e-22)
(-0.000134523 0.000103803 1.30395e-36)
(-0.000180163 0.000106728 -1.4768e-21)
(-0.000168318 5.46681e-05 -3.44133e-37)
(-0.000108559 -3.5002e-05 -9.32373e-37)
(-1.2394e-05 -0.000144822 -1.43769e-36)
(0.00010801 -0.00025872 2.78359e-21)
(0.000240909 -0.000363132 1.01627e-34)
(0.000375839 -0.000447709 -2.56984e-21)
(0.000504187 -0.000505613 -1.2849e-35)
(0.00061946 -0.000533471 2.17646e-36)
(0.000717274 -0.000530978 -1.85891e-35)
(0.000795063 -0.000500261 1.35297e-21)
(0.000851601 -0.000445002 -1.83512e-35)
(0.000886338 -0.000369413 -8.28519e-22)
(0.000898705 -0.000277106 -1.92826e-36)
(0.000887486 -0.00016998 -3.71717e-36)
(0.000850489 -4.73152e-05 -2.00622e-36)
(0.000785018 9.4568e-05 4.44449e-22)
(0.000689957 0.000260939 4.8951e-35)
(0.000570307 0.000453069 -4.58782e-22)
(0.000445366 0.00065185 -4.81205e-37)
(0.000363609 0.000778662 8.2949e-36)
(1.026 0.628388 3.28886e-20)
(1.05455 0.447548 7.72682e-20)
(1.0533 0.249487 1.38353e-19)
(1.02612 0.0596964 2.80724e-20)
(0.981459 -0.104065 -2.81745e-19)
(0.92896 -0.233462 -2.65993e-19)
(0.874664 -0.326784 -4.60076e-19)
(0.820341 -0.385653 -6.51528e-19)
(0.764785 -0.413016 -8.16208e-19)
(0.705571 -0.412316 0)
(0.64044 -0.387415 -9.95727e-19)
(0.56812 -0.342677 -9.92308e-19)
(0.488613 -0.283003 -9.26354e-19)
(0.40315 -0.213676 -8.05325e-19)
(0.313915 -0.140057 -6.41381e-19)
(0.223709 -0.0672167 0)
(0.13558 0.000453076 -2.44767e-19)
(0.0525048 0.0595212 -4.27463e-20)
(-0.0228734 0.10772 1.43847e-19)
(-0.0884321 0.143968 3.05704e-19)
(-0.142678 0.168307 1.36147e-18)
(-0.184793 0.181689 -8.0113e-19)
(-0.214603 0.18574 1.77712e-19)
(-0.232522 0.182454 6.33959e-19)
(-0.239435 0.173935 6.44029e-19)
(-0.236594 0.162152 5.93876e-19)
(-0.225476 0.148779 5.91446e-19)
(-0.207679 0.135088 6.80975e-19)
(-0.184807 0.12193 5.39797e-19)
(-0.158399 0.109759 0)
(-0.12986 0.0987049 4.57284e-19)
(-0.100435 0.0886715 2.7937e-19)
(-0.0711802 0.0794356 -1.87045e-19)
(-0.042974 0.0707393 4.66228e-19)
(-0.0165176 0.062362 2.90641e-19)
(0.007642 0.0541683 0)
(0.0290997 0.0461261 2.05339e-19)
(0.0475706 0.0383071 1.62398e-19)
(0.0628794 0.0308612 2.11867e-19)
(0.0749462 0.0239896 7.95361e-20)
(0.0837812 0.0179023 -1.33897e-19)
(0.0894765 0.0127888 1.51274e-19)
(0.0922019 0.00878402 -2.1412e-20)
(0.0921981 0.00595468 -1.44003e-19)
(0.0897675 0.00428588 4.16602e-20)
(0.0852654 0.00368791 -7.35819e-20)
(0.0790838 0.00400293 -2.57876e-20)
(0.0716381 0.0050259 7.63021e-20)
(0.0633478 0.0065226 -3.47351e-20)
(0.0546203 0.00825371 3.30406e-20)
(0.0458332 0.00999345 2.77544e-20)
(0.0373207 0.0115475 -2.04104e-20)
(0.0293609 0.0127643 1.9348e-20)
(0.0221694 0.0135422 -4.27167e-20)
(0.0158947 0.0138312 -9.4433e-21)
(0.0106195 0.0136294 9.04473e-21)
(0.00636478 0.0129764 7.87618e-21)
(0.00309751 0.0119439 -3.16055e-22)
(0.000740454 0.0106254 -3.87992e-22)
(-0.00081648 0.00912475 1.25589e-20)
(-0.0017044 0.00754616 2.14579e-20)
(-0.00206414 0.00598608 9.25584e-21)
(-0.00203589 0.00452615 -1.95761e-20)
(-0.00175071 0.00322944 -9.88341e-21)
(-0.00132389 0.00213794 -2.06322e-22)
(-0.000850621 0.0012731 8.1475e-21)
(-0.000403812 0.000637054 -1.57487e-20)
(-3.3714e-05 0.000216075 3.79899e-21)
(0.000230529 -1.60793e-05 -1.7374e-21)
(0.000378442 -9.36672e-05 -1.50577e-20)
(0.000414494 -5.52287e-05 4.68467e-21)
(0.000354422 6.03639e-05 -5.52806e-21)
(0.000221004 0.000216769 -7.93766e-21)
(4.05725e-05 0.000382638 0)
(-0.000160429 0.000533024 -5.49356e-21)
(-0.000357825 0.000650157 -4.19224e-21)
(-0.0005317 0.000723444 -2.96793e-21)
(-0.000667374 0.000748913 7.70888e-22)
(-0.0007559 0.000728242 -1.00148e-21)
(-0.00079382 0.000667484 -3.59163e-21)
(-0.000782572 0.000575712 1.44045e-22)
(-0.000727507 0.00046364 4.20479e-22)
(-0.000636766 0.000342382 5.36153e-22)
(-0.000520111 0.000222405 5.29607e-22)
(-0.00038781 0.000112721 0)
(-0.000249705 2.03706e-05 3.15415e-22)
(-0.000114482 -4.98512e-05 1.84475e-22)
(1.07836e-05 -9.5376e-05 7.87218e-23)
(0.000120815 -0.000115637 1.86982e-23)
(0.000212059 -0.000111613 1.54955e-23)
(0.000282379 -8.52015e-05 0)
(0.000330575 -3.84316e-05 1.78067e-22)
(0.000355828 2.74355e-05 3.23089e-22)
(0.000357199 0.000112784 4.87125e-22)
(0.00033348 0.000220364 6.48372e-22)
(0.000283892 0.000355283 4.29102e-22)
(0.00021063 0.000523258 -8.57464e-22)
(0.00012398 0.000725728 1.07924e-21)
(5.11777e-05 0.000950899 8.25293e-22)
(5.47609e-05 0.00116436 5.10938e-22)
(1.17319 0.626267 0)
(1.20077 0.462344 0)
(1.20413 0.278836 3.34795e-20)
(1.18488 0.0972422 1.75561e-33)
(1.1488 -0.0650865 -1.65961e-19)
(1.10382 -0.198324 0)
(1.05569 -0.298986 0)
(1.0067 -0.367463 0)
(0.95628 -0.406046 0)
(0.902316 -0.41787 0)
(0.842393 -0.406513 0)
(0.774667 -0.375934 0)
(0.698345 -0.330441 0)
(0.613794 -0.2746 0)
(0.522448 -0.213026 0)
(0.426559 -0.150119 0)
(0.328909 -0.08977 0)
(0.2325 -0.0351148 0)
(0.140275 0.0116246 0)
(0.0548912 0.0492138 0)
(-0.0214548 0.0773493 1.35201e-18)
(-0.0871328 0.0965407 -2.98287e-32)
(-0.141131 0.107898 -8.66781e-19)
(-0.183043 0.112917 0)
(-0.213023 0.113238 0)
(-0.231697 0.110456 8.73823e-20)
(-0.240064 0.105954 -5.75215e-33)
(-0.239382 0.100818 -3.32586e-21)
(-0.231065 0.0957868 0)
(-0.21658 0.0912685 0)
(-0.197376 0.0873868 0)
(-0.174814 0.0840587 -6.96589e-20)
(-0.150136 0.0810724 -2.93977e-33)
(-0.124436 0.0781708 8.27391e-20)
(-0.098656 0.0751129 0)
(-0.0735821 0.0717232 0)
(-0.0498611 0.0679146 0)
(-0.0280056 0.0636945 0)
(-0.0084105 0.0591535 1.83275e-19)
(0.00864002 0.0544425 2.3512e-33)
(0.022961 0.049746 -1.6798e-19)
(0.0344625 0.0452509 1.54674e-19)
(0.0431423 0.0411244 -2.84069e-35)
(0.0490814 0.037491 -1.18938e-19)
(0.0524375 0.0344251 9.81996e-20)
(0.0534361 0.0319438 3.80214e-34)
(0.0523608 0.0300135 -5.63344e-20)
(0.049539 0.0285567 0)
(0.0453281 0.0274668 0)
(0.0400976 0.0266207 0)
(0.0342142 0.0258945 0)
(0.0280239 0.0251746 0)
(0.02184 0.0243684 -1.16228e-20)
(0.01593 0.0234097 -1.14677e-20)
(0.010509 0.0222616 8.0376e-36)
(0.00573422 0.0209161 4.27063e-21)
(0.00170543 0.0193903 -1.46288e-21)
(-0.00153281 0.017722 0)
(-0.00398519 0.0159625 0)
(-0.0056976 0.0141705 0)
(-0.00674788 0.0124057 2.43757e-20)
(-0.00723561 0.0107229 1.27628e-34)
(-0.00727238 0.00916841 -3.02619e-20)
(-0.00697257 0.00777658 -1.56431e-20)
(-0.0064457 0.00656908 -1.27679e-34)
(-0.00579026 0.00555441 1.49798e-20)
(-0.00508939 0.0047293 -1.39972e-20)
(-0.0044085 0.00408032 -6.85029e-35)
(-0.00379439 0.00358663 1.13162e-20)
(-0.0032761 0.00322232 -9.84716e-21)
(-0.00286658 0.00295938 -2.81217e-35)
(-0.0025656 0.00276972 7.11471e-21)
(-0.00236262 0.00262747 0)
(-0.00224029 0.0025102 0)
(-0.00217742 0.00240002 0)
(-0.00215189 0.00228392 0)
(-0.00214281 0.0021538 0)
(-0.00213232 0.00200603 6.32517e-21)
(-0.00210658 0.0018408 6.53051e-35)
(-0.00205635 0.00166124 -5.98746e-21)
(-0.00197691 0.00147253 0)
(-0.00186769 0.00128102 0)
(-0.00173156 0.00109334 0)
(-0.00157392 0.000915779 0)
(-0.00140179 0.000753727 0)
(-0.00122285 0.000611368 0)
(-0.00104473 0.000491505 0)
(-0.0008743 0.000395601 0)
(-0.000717348 0.000323957 0)
(-0.000578361 0.000276079 0)
(-0.000460572 0.000251165 0)
(-0.000366171 0.000248765 0)
(-0.000296607 0.000269513 0)
(-0.000252847 0.000315922 0)
(-0.000235297 0.00039291 0)
(-0.000242773 0.000507502 -3.92356e-22)
(-0.000269632 0.00066614 -3.10036e-36)
(-0.000300684 0.000867754 -8.41413e-23)
(-0.00030477 0.00109041 0)
(-0.000266579 0.00128161 0)
(1.30918 0.624467 0)
(1.33577 0.475168 0)
(1.3437 0.304885 1.99869e-20)
(1.33247 0.131378 -2.12228e-33)
(1.30547 -0.0290684 -1.48184e-19)
(1.26898 -0.165705 0)
(1.22834 -0.273415 0)
(1.1863 -0.35112 0)
(1.14305 -0.400135 0)
(1.09698 -0.423035 0)
(1.04571 -0.423084 0)
(0.986985 -0.403975 0)
(0.919226 -0.369719 0)
(0.84183 -0.324513 0)
(0.755233 -0.27258 0)
(0.660832 -0.217942 0)
(0.560776 -0.164187 0)
(0.457734 -0.114269 0)
(0.354629 -0.0703514 0)
(0.25439 -0.0337491 0)
(0.159739 -0.00494062 1.71488e-18)
(0.0730131 0.0163205 -1.61999e-32)
(-0.00394838 0.0308608 -1.28014e-18)
(-0.0698762 0.0398799 0)
(-0.12408 0.044765 0)
(-0.166426 0.0468963 2.19503e-19)
(-0.197263 0.0475133 -3.02838e-33)
(-0.217344 0.0476044 -1.20537e-19)
(-0.227718 0.0478677 0)
(-0.229635 0.0486977 0)
(-0.224442 0.0502267 0)
(-0.21351 0.0523743 1.53737e-20)
(-0.198163 0.0549239 8.01694e-34)
(-0.179635 0.0575873 1.1553e-20)
(-0.159035 0.0600709 0)
(-0.137341 0.0621195 0)
(-0.115389 0.0635496 0)
(-0.0938835 0.0642606 0)
(-0.0734013 0.0642344 1.09193e-19)
(-0.0544058 0.0635231 1.99169e-33)
(-0.037253 0.0622288 -1.222e-19)
(-0.0222033 0.060483 1.22306e-19)
(-0.0094247 0.0584239 -4.17671e-34)
(0.000998964 0.0561806 -1.09942e-19)
(0.00906519 0.0538587 9.85227e-20)
(0.0148458 0.0515351 2.5419e-34)
(0.0184807 0.0492543 -6.95968e-20)
(0.020169 0.0470336 0)
(0.020158 0.0448661 0)
(0.0187304 0.0427313 0)
(0.0161902 0.0406007 0)
(0.0128481 0.038447 0)
(0.00900672 0.036249 2.08398e-21)
(0.004948 0.033996 -4.20527e-22)
(0.000921276 0.0316899 1.18187e-35)
(-0.00286443 0.0293446 -1.81568e-21)
(-0.0062465 0.0269847 -5.63184e-21)
(-0.00911049 0.0246427 0)
(-0.0113896 0.022355 0)
(-0.0130611 0.0201587 0)
(-0.0141406 0.0180878 2.62177e-20)
(-0.0146747 0.0161707 1.34547e-34)
(-0.0147331 0.0144282 -3.35223e-20)
(-0.0144001 0.012872 -1.77745e-20)
(-0.0137667 0.0115053 -3.04871e-34)
(-0.0129238 0.0103227 1.81305e-20)
(-0.0119558 0.00931158 -1.75779e-20)
(-0.0109368 0.00845422 -2.55417e-34)
(-0.00992765 0.00772897 1.54551e-20)
(-0.00897407 0.00711268 -1.40916e-20)
(-0.00810718 0.00658209 -2.17681e-34)
(-0.00734409 0.00611553 1.12436e-20)
(-0.00668998 0.00569392 0)
(-0.00614024 0.00530158 0)
(-0.00568328 0.00492656 0)
(-0.00530296 0.00456071 0)
(-0.00498117 0.00419936 0)
(-0.00469979 0.00384092 1.11888e-20)
(-0.00444242 0.00348618 1.12994e-34)
(-0.00419542 0.0031377 -9.77617e-21)
(-0.00394869 0.00279911 0)
(-0.00369576 0.00247448 0)
(-0.00343375 0.00216781 0)
(-0.00316283 0.00188262 0)
(-0.00288565 0.00162167 0)
(-0.00260659 0.00138683 0)
(-0.00233104 0.00117909 0)
(-0.0020647 0.000998619 0)
(-0.0018131 0.00084505 0)
(-0.00158112 0.000717792 0)
(-0.00137282 0.000616515 0)
(-0.00119133 0.000541722 0)
(-0.00103886 0.000495494 0)
(-0.000916618 0.000482224 0)
(-0.000824407 0.000509218 0)
(-0.000759036 0.000586065 -7.12053e-22)
(-0.000710755 0.000720624 -2.67892e-38)
(-0.000657627 0.000907876 -1.08848e-22)
(-0.000568007 0.00110722 0)
(-0.000498524 0.0012419 0)
(1.43373 0.62096 0)
(1.45903 0.484704 0)
(1.47068 0.326663 9.82193e-21)
(1.46667 0.161389 8.66827e-34)
(1.44845 0.00374816 -1.33226e-19)
(1.42074 -0.135174 0)
(1.3883 -0.248967 0)
(1.35419 -0.335114 0)
(1.31923 -0.39376 0)
(1.28241 -0.426719 0)
(1.24163 -0.436796 0)
(1.19444 -0.427427 0)
(1.13867 -0.402433 0)
(1.07284 -0.365854 0)
(0.99637 -0.321746 0)
(0.909652 -0.273979 0)
(0.813977 -0.226023 0)
(0.711381 -0.180759 0)
(0.604444 -0.140348 0)
(0.496046 -0.106156 0)
(0.389147 -0.0787746 1.99647e-18)
(0.286559 -0.0580896 -2.75537e-32)
(0.190775 -0.0434304 -1.63655e-18)
(0.103833 -0.0337288 0)
(0.0272324 -0.0277145 0)
(-0.0380991 -0.0240737 3.46342e-19)
(-0.0917904 -0.0216054 -3.55586e-33)
(-0.133973 -0.0193129 -2.39947e-19)
(-0.165205 -0.0164744 0)
(-0.186369 -0.01265 0)
(-0.19858 -0.00767291 0)
(-0.203078 -0.00159566 1.12341e-19)
(-0.201152 0.00536064 -3.8208e-33)
(-0.194065 0.012878 -7.47305e-20)
(-0.183008 0.0205949 0)
(-0.169063 0.0281618 0)
(-0.153192 0.0352725 0)
(-0.136226 0.04169 0)
(-0.118872 0.0472519 -3.86165e-21)
(-0.101722 0.0518703 1.2432e-33)
(-0.0852626 0.0555206 -3.78874e-20)
(-0.0698854 0.058228 5.26502e-20)
(-0.0558962 0.0600516 2.32723e-33)
(-0.0435202 0.0610703 -6.8145e-20)
(-0.0329082 0.0613713 6.9066e-20)
(-0.0241389 0.0610406 -5.50231e-35)
(-0.0172236 0.0601594 -5.99852e-20)
(-0.0121095 0.0588002 0)
(-0.00868619 0.0570293 0)
(-0.00679314 0.0549062 0)
(-0.00622913 0.0524882 0)
(-0.00676398 0.0498303 0)
(-0.00815043 0.0469888 1.06087e-20)
(-0.0101374 0.0440205 7.03084e-21)
(-0.0124818 0.0409831 2.17149e-35)
(-0.0149597 0.0379338 -6.21247e-21)
(-0.0173755 0.0349278 -8.54519e-21)
(-0.0195683 0.0320158 0)
(-0.021416 0.0292418 0)
(-0.0228367 0.026642 0)
(-0.023787 0.0242426 2.67174e-20)
(-0.0242587 0.0220598 3.28784e-34)
(-0.0242739 0.0200997 -3.51725e-20)
(-0.0238781 0.0183586 -1.90783e-20)
(-0.0231339 0.0168251 -4.56989e-35)
(-0.0221137 0.0154808 2.05338e-20)
(-0.0208935 0.0143033 -2.05095e-20)
(-0.0195473 0.0132673 -2.32078e-34)
(-0.0181427 0.0123472 1.92247e-20)
(-0.0167375 0.0115181 -1.81293e-20)
(-0.0153778 0.0107578 -1.80255e-34)
(-0.0140973 0.0100474 1.54834e-20)
(-0.0129176 0.00937188 0)
(-0.011849 0.00872018 0)
(-0.0108926 0.00808533 0)
(-0.0100419 0.00746377 0)
(-0.00928542 0.00685489 0)
(-0.00860862 0.00626024 1.72485e-20)
(-0.00799579 0.00568286 2.00052e-34)
(-0.0074318 0.00512656 -1.474e-20)
(-0.00690321 0.00459531 0)
(-0.00639915 0.00409276 0)
(-0.00591172 0.00362187 0)
(-0.00543609 0.00318476 0)
(-0.00497024 0.00278255 0)
(-0.00451464 0.00241547 0)
(-0.00407162 0.002083 0)
(-0.00364485 0.00178409 0)
(-0.00323871 0.00151749 0)
(-0.00285782 0.00128218 0)
(-0.00250657 0.00107779 0)
(-0.00218881 0.000905325 0)
(-0.0019075 0.000767828 0)
(-0.00166439 0.000671362 0)
(-0.00145908 0.000625678 0)
(-0.00128681 0.00064354 -1.52344e-21)
(-0.00113388 0.000735113 3.19807e-35)
(-0.000971562 0.00089166 2.40314e-22)
(-0.000773353 0.00105655 0)
(-0.000662268 0.00115793 0)
(1.54688 0.615286 0)
(1.57072 0.490754 0)
(1.58514 0.344006 1.79719e-21)
(1.58717 0.186981 -6.47831e-20)
(1.57683 0.033013 -1.19864e-19)
(1.55751 -0.10693 0)
(1.53331 -0.225573 0)
(1.50735 -0.319143 0)
(1.48096 -0.38661 0)
(1.45376 -0.428871 0)
(1.42405 -0.448137 0)
(1.38944 -0.447478 0)
(1.34742 -0.430532 0)
(1.29584 -0.401234 0)
(1.23324 -0.363605 0)
(1.15899 -0.321503 0)
(1.07344 -0.278421 0)
(0.97779 -0.23729 0)
(0.874006 -0.200343 0)
(0.764621 -0.169046 0)
(0.652513 -0.144091 2.18958e-18)
(0.540679 -0.125472 -9.73082e-19)
(0.432013 -0.112598 -1.92045e-18)
(0.329123 -0.10446 0)
(0.234185 -0.0997999 0)
(0.148849 -0.0972845 4.60203e-19)
(0.0741993 -0.0956467 7.75488e-20)
(0.0107608 -0.0938057 -3.53442e-19)
(-0.0414523 -0.0909295 0)
(-0.0828607 -0.0864766 1.1216e-19)
(-0.114222 -0.0801824 0)
(-0.136531 -0.0720365 2.14118e-19)
(-0.15092 -0.0622245 8.11007e-20)
(-0.158576 -0.0510777 -1.6998e-19)
(-0.160668 -0.0390064 0)
(-0.158297 -0.0264549 3.12369e-19)
(-0.152467 -0.0138523 0)
(-0.144068 -0.0015874 0)
(-0.13387 0.0100143 -1.43293e-19)
(-0.122535 0.0206958 -2.18836e-19)
(-0.110621 0.0302713 8.25689e-20)
(-0.0985995 0.0386195 -4.71535e-20)
(-0.0868639 0.0456757 -1.7307e-19)
(-0.07574 0.0514228 8.06456e-21)
(-0.0654891 0.0558809 7.13585e-21)
(-0.0563149 0.0591007 -1.06061e-19)
(-0.0483618 0.0611555 -2.33085e-20)
(-0.0417177 0.062137 6.29263e-20)
(-0.0364136 0.0621506 2.41986e-20)
(-0.0324265 0.0613128 1.7554e-20)
(-0.029683 0.0597471 1.26691e-20)
(-0.0280655 0.0575821 9.50146e-21)
(-0.0274208 0.0549476 3.30933e-20)
(-0.0275694 0.0519714 -8.06408e-21)
(-0.0283172 0.0487757 -1.68722e-20)
(-0.0294659 0.0454738 -2.61009e-20)
(-0.0308245 0.0421667 -7.9345e-21)
(-0.0322183 0.0389405 8.88232e-22)
(-0.0334967 0.0358648 1.00939e-21)
(-0.0345387 0.0329912 0)
(-0.0352559 0.0303538 2.60191e-20)
(-0.0355931 0.0279698 -3.80442e-20)
(-0.0355268 0.0258413 -3.44428e-20)
(-0.0350621 0.0239576 -1.92044e-20)
(-0.0342275 0.022298 -3.39912e-20)
(-0.0330697 0.0208352 2.18642e-20)
(-0.0316477 0.0195376 -2.24694e-20)
(-0.0300268 0.0183726 1.29581e-20)
(-0.0282734 0.0173089 2.23097e-20)
(-0.0264508 0.0163182 -2.16535e-20)
(-0.0246152 0.0153769 7.96436e-21)
(-0.0228138 0.0144665 1.95648e-20)
(-0.0210831 0.0135738 0)
(-0.0194488 0.0126912 1.30411e-20)
(-0.0179262 0.0118154 0)
(-0.0165215 0.0109473 0)
(-0.0152332 0.0100903 0)
(-0.014054 0.00924997 2.43832e-20)
(-0.0129727 0.00843262 -4.55285e-21)
(-0.0119762 0.00764464 -2.08853e-20)
(-0.0110509 0.00689183 0)
(-0.0101838 0.0061789 0)
(-0.00936388 0.0055092 0)
(-0.00858251 0.00488463 0)
(-0.00783362 0.00430573 0)
(-0.0071138 0.00377185 0)
(-0.00642209 0.00328145 0)
(-0.00575956 0.00283255 0)
(-0.00512886 0.00242307 0)
(-0.00453371 0.00205139 0)
(-0.00397836 0.0017169 0)
(-0.0034671 0.00142069 0)
(-0.00300377 0.00116645 0)
(-0.00259107 0.000961501 0)
(-0.00222934 0.000817862 0)
(-0.00191368 0.000751452 -3.04274e-21)
(-0.00162886 0.000775319 -1.80025e-21)
(-0.00134347 0.000879122 1.14843e-21)
(-0.00104006 0.00100486 0)
(-0.000876674 0.00114039 0)
(1.64915 0.607823 0)
(1.67153 0.493797 0)
(1.68787 0.357348 0)
(1.69468 0.208347 -1.00547e-33)
(1.69102 0.0586405 0)
(1.67921 -0.0812321 0)
(1.66269 -0.203516 0)
(1.64448 -0.303463 0)
(1.6263 -0.378946 0)
(1.60831 -0.429907 0)
(1.5893 -0.457827 0)
(1.56714 -0.465303 0)
(1.53924 -0.455689 0)
(1.50302 -0.432808 0)
(1.45634 -0.400661 0)
(1.3977 -0.36318 0)
(1.32649 -0.323968 0)
(1.24301 -0.286113 0)
(1.14845 -0.252015 0)
(1.04474 -0.223312 0)
(0.934412 -0.200856 0)
(0.820337 -0.184765 -3.43195e-32)
(0.705538 -0.174537 0)
(0.592941 -0.169191 0)
(0.485199 -0.167447 0)
(0.38454 -0.167891 1.6289e-18)
(0.292671 -0.169133 -2.20104e-32)
(0.210742 -0.169929 -1.3326e-18)
(0.139347 -0.169275 -1.20569e-18)
(0.078581 -0.166448 1.32445e-32)
(0.0281114 -0.161028 1.00149e-18)
(-0.0127194 -0.152872 0)
(-0.044796 -0.142085 -1.13095e-34)
(-0.0691301 -0.128958 0)
(-0.0867804 -0.113921 -7.2484e-19)