/*--------------------------------*- C++ -*----------------------------------*\
  =========                 |
  \\      /  F ield         | OpenFOAM: The Open Source CFD Toolbox
   \\    /   O peration     | Website:  https://openfoam.org
    \\  /    A nd           | Version:  8
     \\/     M anipulation  |
\*---------------------------------------------------------------------------*/
FoamFile
{
    version     2.0;
    format      ascii;
    class       volScalarField;
    location    "1.1";
    object      nut;
}
// * * * * * * * * * * * * * * * * * * * * * * * * * * * * * * * * * * * * * //

dimensions      [0 2 -1 0 0 0 0];

internalField   nonuniform List<scalar> 
248760
(
0.139974
0.139922
0.139869
0.139817
0.139764
0.139711
0.139658
0.139605
0.139552
0.139499
0.139446
0.139393
0.139341
0.139288
0.139236
0.139183
0.139131
0.139079
0.139027
0.138976
0.138925
0.138874
0.138823
0.138773
0.138723
0.138673
0.138624
0.138575
0.138527
0.138479
0.138431
0.138384
0.138337
0.138291
0.138245
0.1382
0.138155
0.138111
0.138067
0.138024
0.137982
0.13794
0.137899
0.137859
0.137819
0.13778
0.137742
0.137704
0.137668
0.137632
0.137597
0.137562
0.137529
0.137497
0.137465
0.137435
0.137405
0.137376
0.137349
0.137322
0.137297
0.137272
0.137249
0.137227
0.137206
0.137186
0.137168
0.137151
0.137135
0.13712
0.137106
0.137094
0.137084
0.137074
0.137066
0.13706
0.137055
0.137051
0.137049
0.137048
0.137049
0.137051
0.137055
0.137061
0.137068
0.137076
0.137086
0.137098
0.137111
0.137126
0.137143
0.137161
0.137181
0.137203
0.137226
0.137251
0.137277
0.137305
0.137335
0.137366
0.137399
0.137433
0.137469
0.137506
0.137545
0.137586
0.137629
0.137673
0.13772
0.13777
0.137822
0.137878
0.137939
0.138005
0.138079
0.138163
0.138259
0.138371
0.138504
0.138664
0.139974
0.139922
0.139869
0.139816
0.139763
0.139711
0.139657
0.139604
0.139551
0.139498
0.139445
0.139393
0.13934
0.139287
0.139235
0.139182
0.13913
0.139078
0.139026
0.138975
0.138923
0.138872
0.138822
0.138771
0.138721
0.138671
0.138622
0.138573
0.138525
0.138476
0.138429
0.138381
0.138335
0.138288
0.138242
0.138197
0.138152
0.138108
0.138065
0.138022
0.137979
0.137937
0.137896
0.137856
0.137816
0.137777
0.137739
0.137701
0.137665
0.137629
0.137594
0.137559
0.137526
0.137494
0.137462
0.137432
0.137402
0.137373
0.137346
0.137319
0.137294
0.13727
0.137247
0.137225
0.137204
0.137184
0.137166
0.137149
0.137133
0.137118
0.137105
0.137093
0.137082
0.137073
0.137065
0.137059
0.137054
0.13705
0.137048
0.137047
0.137048
0.137051
0.137055
0.13706
0.137067
0.137076
0.137086
0.137098
0.137112
0.137127
0.137143
0.137162
0.137182
0.137203
0.137226
0.137251
0.137278
0.137306
0.137335
0.137367
0.137399
0.137434
0.13747
0.137507
0.137546
0.137587
0.13763
0.137675
0.137721
0.137771
0.137823
0.137879
0.13794
0.138006
0.13808
0.138164
0.13826
0.138372
0.138505
0.138664
0.139974
0.139921
0.139869
0.139816
0.139763
0.13971
0.139657
0.139603
0.13955
0.139497
0.139444
0.139391
0.139338
0.139285
0.139233
0.13918
0.139128
0.139076
0.139024
0.138972
0.138921
0.13887
0.138819
0.138768
0.138718
0.138668
0.138619
0.138569
0.138521
0.138472
0.138425
0.138377
0.13833
0.138284
0.138238
0.138192
0.138147
0.138103
0.138059
0.138016
0.137974
0.137932
0.137891
0.13785
0.13781
0.137771
0.137733
0.137695
0.137659
0.137623
0.137588
0.137553
0.13752
0.137488
0.137456
0.137426
0.137396
0.137367
0.13734
0.137314
0.137288
0.137264
0.137241
0.137219
0.137198
0.137179
0.13716
0.137143
0.137127
0.137113
0.1371
0.137088
0.137077
0.137068
0.137061
0.137054
0.137049
0.137046
0.137044
0.137043
0.137044
0.137047
0.137051
0.137056
0.137064
0.137072
0.137083
0.137094
0.137108
0.137123
0.13714
0.137158
0.137178
0.1372
0.137223
0.137248
0.137274
0.137302
0.137332
0.137363
0.137396
0.137431
0.137466
0.137504
0.137543
0.137584
0.137627
0.137671
0.137718
0.137767
0.13782
0.137876
0.137937
0.138003
0.138077
0.138161
0.138257
0.138369
0.138502
0.138661
0.139974
0.139921
0.139868
0.139815
0.139762
0.139709
0.139655
0.139602
0.139549
0.139496
0.139442
0.139389
0.139336
0.139283
0.13923
0.139177
0.139125
0.139073
0.139021
0.138969
0.138917
0.138866
0.138815
0.138764
0.138713
0.138663
0.138614
0.138564
0.138515
0.138467
0.138419
0.138371
0.138324
0.138277
0.138231
0.138185
0.13814
0.138096
0.138052
0.138009
0.137966
0.137924
0.137883
0.137842
0.137802
0.137763
0.137724
0.137687
0.13765
0.137614
0.137579
0.137545
0.137511
0.137479
0.137447
0.137417
0.137387
0.137359
0.137331
0.137305
0.13728
0.137255
0.137232
0.137211
0.13719
0.13717
0.137152
0.137135
0.13712
0.137105
0.137092
0.13708
0.13707
0.137061
0.137053
0.137047
0.137042
0.137039
0.137037
0.137036
0.137038
0.13704
0.137044
0.13705
0.137057
0.137066
0.137076
0.137088
0.137101
0.137116
0.137133
0.137151
0.137171
0.137193
0.137216
0.137241
0.137267
0.137295
0.137325
0.137356
0.137389
0.137424
0.137459
0.137497
0.137536
0.137577
0.13762
0.137664
0.137711
0.137761
0.137813
0.137869
0.13793
0.137996
0.13807
0.138154
0.13825
0.138362
0.138495
0.138655
0.139974
0.139921
0.139868
0.139814
0.139761
0.139708
0.139654
0.139601
0.139547
0.139494
0.13944
0.139387
0.139333
0.13928
0.139227
0.139174
0.139121
0.139069
0.139016
0.138964
0.138912
0.138861
0.138809
0.138758
0.138708
0.138657
0.138607
0.138558
0.138509
0.13846
0.138411
0.138364
0.138316
0.138269
0.138223
0.138177
0.138132
0.138087
0.138043
0.137999
0.137956
0.137914
0.137873
0.137832
0.137792
0.137753
0.137714
0.137676
0.137639
0.137603
0.137568
0.137534
0.1375
0.137468
0.137436
0.137406
0.137376
0.137348
0.13732
0.137294
0.137269
0.137245
0.137222
0.1372
0.137179
0.13716
0.137142
0.137125
0.137109
0.137095
0.137082
0.13707
0.13706
0.137051
0.137044
0.137038
0.137033
0.137029
0.137028
0.137027
0.137028
0.137031
0.137035
0.137041
0.137048
0.137057
0.137067
0.137079
0.137092
0.137107
0.137124
0.137142
0.137162
0.137184
0.137207
0.137231
0.137258
0.137286
0.137315
0.137346
0.137379
0.137413
0.137449
0.137487
0.137526
0.137567
0.13761
0.137654
0.137701
0.13775
0.137803
0.137859
0.13792
0.137987
0.138061
0.138145
0.138241
0.138353
0.138487
0.138647
0.139974
0.13992
0.139867
0.139813
0.13976
0.139706
0.139653
0.139599
0.139545
0.139491
0.139438
0.139384
0.13933
0.139277
0.139223
0.13917
0.139117
0.139064
0.139012
0.138959
0.138907
0.138855
0.138803
0.138752
0.138701
0.13865
0.1386
0.13855
0.138501
0.138452
0.138403
0.138355
0.138307
0.13826
0.138213
0.138167
0.138121
0.138076
0.138032
0.137988
0.137945
0.137903
0.137861
0.13782
0.13778
0.13774
0.137702
0.137664
0.137627
0.137591
0.137555
0.137521
0.137488
0.137455
0.137424
0.137393
0.137363
0.137335
0.137308
0.137281
0.137256
0.137232
0.137209
0.137188
0.137167
0.137148
0.13713
0.137113
0.137097
0.137083
0.13707
0.137059
0.137049
0.13704
0.137032
0.137026
0.137021
0.137018
0.137016
0.137016
0.137017
0.13702
0.137024
0.137029
0.137037
0.137045
0.137056
0.137067
0.137081
0.137096
0.137112
0.137131
0.13715
0.137172
0.137195
0.137219
0.137246
0.137274
0.137303
0.137334
0.137367
0.137401
0.137437
0.137474
0.137513
0.137554
0.137597
0.137641
0.137688
0.137738
0.13779
0.137846
0.137907
0.137974
0.138049
0.138133
0.13823
0.138343
0.138477
0.138637
0.139973
0.13992
0.139866
0.139813
0.139759
0.139705
0.139651
0.139597
0.139543
0.139489
0.139435
0.139381
0.139327
0.139273
0.139219
0.139166
0.139113
0.139059
0.139006
0.138954
0.138901
0.138849
0.138797
0.138745
0.138694
0.138643
0.138592
0.138542
0.138492
0.138442
0.138393
0.138345
0.138297
0.138249
0.138202
0.138156
0.13811
0.138065
0.13802
0.137976
0.137933
0.13789
0.137848
0.137807
0.137767
0.137727
0.137688
0.13765
0.137613
0.137577
0.137541
0.137507
0.137473
0.137441
0.137409
0.137379
0.137349
0.137321
0.137293
0.137267
0.137242
0.137218
0.137195
0.137174
0.137153
0.137134
0.137116
0.137099
0.137084
0.13707
0.137057
0.137045
0.137035
0.137026
0.137019
0.137013
0.137008
0.137005
0.137003
0.137003
0.137004
0.137007
0.137011
0.137017
0.137024
0.137032
0.137042
0.137054
0.137068
0.137082
0.137099
0.137117
0.137137
0.137158
0.137181
0.137205
0.137232
0.137259
0.137289
0.13732
0.137352
0.137386
0.137422
0.137459
0.137498
0.137539
0.137582
0.137626
0.137673
0.137723
0.137775
0.137832
0.137893
0.13796
0.138035
0.13812
0.138217
0.138331
0.138466
0.138628
0.139973
0.139919
0.139866
0.139812
0.139757
0.139703
0.139649
0.139595
0.13954
0.139486
0.139432
0.139377
0.139323
0.139269
0.139215
0.139161
0.139107
0.139054
0.139001
0.138947
0.138895
0.138842
0.138789
0.138737
0.138686
0.138634
0.138583
0.138533
0.138482
0.138432
0.138383
0.138334
0.138286
0.138238
0.13819
0.138144
0.138098
0.138052
0.138007
0.137963
0.137919
0.137876
0.137834
0.137793
0.137752
0.137712
0.137673
0.137635
0.137598
0.137561
0.137526
0.137491
0.137458
0.137425
0.137394
0.137363
0.137334
0.137305
0.137278
0.137252
0.137227
0.137203
0.13718
0.137158
0.137138
0.137119
0.137101
0.137084
0.137069
0.137055
0.137042
0.137031
0.137021
0.137012
0.137005
0.136999
0.136994
0.136991
0.136989
0.136989
0.13699
0.136992
0.136997
0.137002
0.137009
0.137018
0.137028
0.137039
0.137053
0.137068
0.137084
0.137102
0.137121
0.137143
0.137165
0.13719
0.137216
0.137243
0.137272
0.137303
0.137336
0.13737
0.137405
0.137442
0.137481
0.137522
0.137565
0.137609
0.137656
0.137706
0.137759
0.137815
0.137877
0.137944
0.13802
0.138105
0.138203
0.138318
0.138455
0.138619
0.139973
0.139919
0.139865
0.13981
0.139756
0.139702
0.139647
0.139592
0.139538
0.139483
0.139428
0.139374
0.139319
0.139265
0.13921
0.139156
0.139102
0.139048
0.138994
0.138941
0.138888
0.138834
0.138782
0.138729
0.138677
0.138625
0.138574
0.138523
0.138472
0.138422
0.138372
0.138323
0.138274
0.138226
0.138178
0.138131
0.138084
0.138038
0.137993
0.137948
0.137905
0.137861
0.137819
0.137777
0.137737
0.137697
0.137657
0.137619
0.137582
0.137545
0.13751
0.137475
0.137441
0.137409
0.137377
0.137347
0.137317
0.137289
0.137261
0.137235
0.13721
0.137186
0.137164
0.137142
0.137122
0.137103
0.137085
0.137068
0.137053
0.137039
0.137026
0.137015
0.137005
0.136996
0.136989
0.136983
0.136979
0.136975
0.136974
0.136973
0.136974
0.136977
0.136981
0.136986
0.136993
0.137002
0.137012
0.137023
0.137036
0.137051
0.137067
0.137085
0.137105
0.137126
0.137148
0.137172
0.137198
0.137226
0.137255
0.137285
0.137318
0.137351
0.137387
0.137424
0.137463
0.137504
0.137546
0.137591
0.137638
0.137688
0.137741
0.137797
0.137859
0.137927
0.138003
0.138089
0.138189
0.138305
0.138443
0.13861
0.139973
0.139919
0.139864
0.139809
0.139755
0.1397
0.139645
0.13959
0.139535
0.13948
0.139425
0.13937
0.139315
0.13926
0.139206
0.139151
0.139096
0.139042
0.138988
0.138934
0.13888
0.138827
0.138773
0.13872
0.138668
0.138616
0.138564
0.138512
0.138461
0.13841
0.13836
0.13831
0.138261
0.138213
0.138165
0.138117
0.13807
0.138024
0.137978
0.137934
0.137889
0.137846
0.137803
0.137761
0.13772
0.13768
0.137641
0.137602
0.137565
0.137528
0.137493
0.137458
0.137424
0.137392
0.13736
0.137329
0.1373
0.137271
0.137244
0.137218
0.137193
0.137169
0.137147
0.137125
0.137105
0.137086
0.137068
0.137052
0.137036
0.137022
0.13701
0.136999
0.136989
0.13698
0.136973
0.136967
0.136962
0.136959
0.136957
0.136957
0.136958
0.13696
0.136964
0.136969
0.136976
0.136985
0.136995
0.137006
0.137019
0.137033
0.13705
0.137067
0.137086
0.137107
0.13713
0.137154
0.13718
0.137207
0.137236
0.137266
0.137298
0.137332
0.137367
0.137404
0.137443
0.137484
0.137526
0.137571
0.137618
0.137668
0.137721
0.137778
0.13784
0.137909
0.137986
0.138073
0.138173
0.138291
0.138431
0.138599
0.139973
0.139918
0.139863
0.139808
0.139753
0.139698
0.139643
0.139588
0.139532
0.139477
0.139421
0.139366
0.139311
0.139256
0.1392
0.139145
0.13909
0.139036
0.138981
0.138927
0.138872
0.138818
0.138765
0.138711
0.138658
0.138606
0.138553
0.138501
0.13845
0.138399
0.138348
0.138298
0.138248
0.138199
0.138151
0.138103
0.138056
0.138009
0.137963
0.137918
0.137873
0.13783
0.137787
0.137745
0.137704
0.137663
0.137624
0.137585
0.137547
0.137511
0.137475
0.13744
0.137406
0.137374
0.137342
0.137311
0.137282
0.137254
0.137226
0.1372
0.137175
0.137151
0.137129
0.137107
0.137087
0.137068
0.137051
0.137034
0.137019
0.137005
0.136993
0.136981
0.136971
0.136963
0.136955
0.136949
0.136945
0.136941
0.13694
0.136939
0.13694
0.136942
0.136946
0.136951
0.136958
0.136967
0.136976
0.136988
0.137
0.137015
0.137031
0.137048
0.137067
0.137088
0.13711
0.137134
0.13716
0.137187
0.137215
0.137246
0.137278
0.137311
0.137347
0.137384
0.137422
0.137463
0.137506
0.13755
0.137598
0.137648
0.137701
0.137758
0.137821
0.13789
0.137967
0.138055
0.138157
0.138276
0.138418
0.138588
0.139973
0.139918
0.139863
0.139807
0.139752
0.139696
0.139641
0.139585
0.139529
0.139474
0.139418
0.139362
0.139306
0.139251
0.139195
0.13914
0.139084
0.139029
0.138974
0.138919
0.138864
0.13881
0.138756
0.138702
0.138648
0.138595
0.138542
0.13849
0.138438
0.138386
0.138335
0.138285
0.138235
0.138185
0.138136
0.138088
0.13804
0.137994
0.137947
0.137902
0.137857
0.137813
0.13777
0.137728
0.137686
0.137646
0.137606
0.137567
0.13753
0.137493
0.137457
0.137422
0.137388
0.137355
0.137324
0.137293
0.137264
0.137235
0.137208
0.137182
0.137157
0.137133
0.137111
0.137089
0.137069
0.13705
0.137033
0.137016
0.137001
0.136987
0.136975
0.136963
0.136953
0.136945
0.136937
0.136931
0.136927
0.136923
0.136921
0.136921
0.136922
0.136924
0.136928
0.136933
0.136939
0.136947
0.136957
0.136968
0.136981
0.136995
0.137011
0.137028
0.137047
0.137067
0.13709
0.137113
0.137139
0.137166
0.137194
0.137224
0.137256
0.13729
0.137325
0.137362
0.137401
0.137441
0.137484
0.137529
0.137576
0.137626
0.13768
0.137737
0.1378
0.13787
0.137948
0.138037
0.13814
0.138261
0.138405
0.138576
0.139972
0.139917
0.139862
0.139806
0.13975
0.139695
0.139639
0.139583
0.139527
0.13947
0.139414
0.139358
0.139302
0.139246
0.13919
0.139134
0.139078
0.139022
0.138967
0.138911
0.138856
0.138801
0.138747
0.138692
0.138638
0.138585
0.138531
0.138478
0.138426
0.138374
0.138322
0.138271
0.138221
0.138171
0.138122
0.138073
0.138025
0.137978
0.137931
0.137886
0.137841
0.137796
0.137753
0.13771
0.137669
0.137628
0.137588
0.137549
0.137511
0.137474
0.137439
0.137404
0.13737
0.137337
0.137305
0.137275
0.137245
0.137217
0.13719
0.137163
0.137139
0.137115
0.137092
0.137071
0.137051
0.137032
0.137014
0.136998
0.136983
0.136969
0.136956
0.136945
0.136935
0.136926
0.136919
0.136913
0.136908
0.136904
0.136902
0.136902
0.136902
0.136904
0.136908
0.136913
0.136919
0.136927
0.136937
0.136948
0.13696
0.136974
0.13699
0.137007
0.137026
0.137046
0.137068
0.137091
0.137117
0.137143
0.137172
0.137202
0.137234
0.137267
0.137302
0.137339
0.137378
0.137419
0.137461
0.137506
0.137553
0.137604
0.137658
0.137716
0.137779
0.137849
0.137928
0.138018
0.138122
0.138244
0.13839
0.138563
0.139972
0.139917
0.139861
0.139805
0.139749
0.139693
0.139636
0.13958
0.139524
0.139467
0.13941
0.139354
0.139297
0.139241
0.139184
0.139128
0.139072
0.139015
0.138959
0.138904
0.138848
0.138792
0.138737
0.138682
0.138628
0.138574
0.13852
0.138466
0.138413
0.138361
0.138309
0.138258
0.138207
0.138156
0.138107
0.138058
0.138009
0.137962
0.137915
0.137869
0.137824
0.137779
0.137736
0.137693
0.137651
0.13761
0.13757
0.137531
0.137493
0.137456
0.13742
0.137385
0.137351
0.137318
0.137287
0.137256
0.137226
0.137198
0.137171
0.137145
0.13712
0.137096
0.137074
0.137052
0.137032
0.137013
0.136996
0.136979
0.136964
0.13695
0.136937
0.136926
0.136916
0.136907
0.136899
0.136893
0.136888
0.136885
0.136883
0.136882
0.136882
0.136884
0.136888
0.136893
0.136899
0.136907
0.136916
0.136927
0.136939
0.136953
0.136968
0.136985
0.137003
0.137024
0.137045
0.137069
0.137094
0.137121
0.137149
0.137179
0.137211
0.137244
0.137279
0.137316
0.137354
0.137395
0.137438
0.137483
0.13753
0.137581
0.137635
0.137694
0.137757
0.137828
0.137908
0.137999
0.138104
0.138228
0.138375
0.13855
0.139972
0.139916
0.13986
0.139804
0.139748
0.139691
0.139634
0.139578
0.139521
0.139464
0.139407
0.13935
0.139293
0.139236
0.139179
0.139122
0.139065
0.139008
0.138952
0.138896
0.138839
0.138783
0.138728
0.138672
0.138617
0.138563
0.138508
0.138454
0.138401
0.138348
0.138296
0.138244
0.138192
0.138142
0.138092
0.138042
0.137994
0.137946
0.137898
0.137852
0.137807
0.137762
0.137718
0.137675
0.137633
0.137592
0.137552
0.137513
0.137475
0.137438
0.137402
0.137366
0.137333
0.1373
0.137268
0.137237
0.137208
0.137179
0.137152
0.137126
0.137101
0.137077
0.137055
0.137033
0.137013
0.136994
0.136977
0.13696
0.136945
0.136931
0.136918
0.136907
0.136896
0.136888
0.13688
0.136874
0.136868
0.136865
0.136862
0.136861
0.136862
0.136864
0.136867
0.136871
0.136877
0.136885
0.136894
0.136905
0.136917
0.13693
0.136945
0.136962
0.136981
0.137001
0.137022
0.137045
0.13707
0.137097
0.137125
0.137155
0.137187
0.13722
0.137255
0.137292
0.13733
0.137371
0.137414
0.137459
0.137507
0.137557
0.137612
0.137671
0.137735
0.137807
0.137887
0.137979
0.138085
0.138211
0.138359
0.138536
0.139972
0.139916
0.139859
0.139803
0.139746
0.139689
0.139632
0.139575
0.139518
0.13946
0.139403
0.139345
0.139288
0.139231
0.139173
0.139116
0.139058
0.139001
0.138944
0.138887
0.138831
0.138774
0.138718
0.138662
0.138607
0.138551
0.138497
0.138442
0.138388
0.138335
0.138282
0.13823
0.138178
0.138127
0.138076
0.138027
0.137978
0.137929
0.137882
0.137835
0.13779
0.137745
0.137701
0.137657
0.137615
0.137574
0.137534
0.137495
0.137456
0.137419
0.137383
0.137348
0.137314
0.137281
0.137249
0.137219
0.137189
0.137161
0.137133
0.137107
0.137082
0.137058
0.137036
0.137014
0.136994
0.136975
0.136957
0.136941
0.136926
0.136911
0.136899
0.136887
0.136877
0.136868
0.13686
0.136853
0.136848
0.136844
0.136842
0.13684
0.136841
0.136842
0.136845
0.13685
0.136855
0.136863
0.136872
0.136882
0.136894
0.136907
0.136922
0.136939
0.136957
0.136977
0.136998
0.137021
0.137046
0.137072
0.1371
0.13713
0.137162
0.137195
0.13723
0.137267
0.137306
0.137346
0.137389
0.137435
0.137482
0.137533
0.137588
0.137647
0.137712
0.137784
0.137865
0.137958
0.138066
0.138193
0.138343
0.138521
0.139972
0.139915
0.139859
0.139802
0.139745
0.139687
0.13963
0.139572
0.139515
0.139457
0.139399
0.139341
0.139283
0.139225
0.139167
0.13911
0.139052
0.138994
0.138937
0.138879
0.138822
0.138765
0.138708
0.138652
0.138596
0.13854
0.138485
0.13843
0.138375
0.138322
0.138268
0.138215
0.138163
0.138112
0.138061
0.138011
0.137962
0.137913
0.137865
0.137819
0.137772
0.137727
0.137683
0.13764
0.137598
0.137556
0.137516
0.137476
0.137438
0.137401
0.137365
0.137329
0.137295
0.137262
0.137231
0.1372
0.13717
0.137142
0.137114
0.137088
0.137063
0.13704
0.137017
0.136995
0.136975
0.136956
0.136938
0.136922
0.136906
0.136892
0.136879
0.136867
0.136857
0.136847
0.136839
0.136833
0.136827
0.136823
0.13682
0.136819
0.136819
0.13682
0.136823
0.136827
0.136833
0.13684
0.136848
0.136859
0.13687
0.136883
0.136898
0.136915
0.136933
0.136952
0.136973
0.136996
0.137021
0.137047
0.137075
0.137105
0.137136
0.13717
0.137205
0.137242
0.13728
0.137321
0.137364
0.13741
0.137458
0.137509
0.137564
0.137624
0.137689
0.137762
0.137843
0.137937
0.138046
0.138175
0.138326
0.138506
0.139972
0.139915
0.139858
0.139801
0.139743
0.139685
0.139628
0.13957
0.139512
0.139453
0.139395
0.139337
0.139278
0.13922
0.139162
0.139103
0.139045
0.138987
0.138929
0.138871
0.138813
0.138756
0.138698
0.138641
0.138585
0.138529
0.138473
0.138417
0.138362
0.138308
0.138254
0.138201
0.138149
0.138097
0.138046
0.137995
0.137946
0.137897
0.137849
0.137802
0.137756
0.13771
0.137666
0.137622
0.13758
0.137538
0.137498
0.137458
0.13742
0.137383
0.137346
0.137311
0.137277
0.137244
0.137212
0.137181
0.137152
0.137123
0.137096
0.13707
0.137045
0.137021
0.136998
0.136976
0.136956
0.136937
0.136919
0.136902
0.136886
0.136872
0.136859
0.136847
0.136836
0.136827
0.136818
0.136812
0.136806
0.136802
0.136799
0.136797
0.136797
0.136798
0.1368
0.136804
0.13681
0.136816
0.136825
0.136835
0.136846
0.136859
0.136874
0.13689
0.136908
0.136927
0.136948
0.136971
0.136995
0.137022
0.13705
0.137079
0.137111
0.137144
0.137179
0.137216
0.137255
0.137295
0.137339
0.137384
0.137432
0.137484
0.137539
0.137599
0.137665
0.137738
0.137821
0.137916
0.138026
0.138156
0.138309
0.138491
0.139972
0.139914
0.139857
0.139799
0.139742
0.139684
0.139625
0.139567
0.139509
0.13945
0.139391
0.139332
0.139274
0.139215
0.139156
0.139097
0.139038
0.138979
0.138921
0.138862
0.138804
0.138746
0.138688
0.138631
0.138574
0.138517
0.138461
0.138405
0.13835
0.138295
0.138241
0.138187
0.138134
0.138082
0.13803
0.13798
0.13793
0.137881
0.137833
0.137785
0.137739
0.137693
0.137649
0.137605
0.137562
0.137521
0.13748
0.137441
0.137402
0.137365
0.137328
0.137293
0.137259
0.137226
0.137194
0.137163
0.137133
0.137105
0.137077
0.137051
0.137026
0.137002
0.136979
0.136957
0.136937
0.136917
0.136899
0.136882
0.136866
0.136852
0.136838
0.136826
0.136815
0.136806
0.136797
0.13679
0.136784
0.13678
0.136776
0.136774
0.136774
0.136775
0.136777
0.136781
0.136786
0.136792
0.1368
0.13681
0.136821
0.136834
0.136848
0.136864
0.136882
0.136901
0.136922
0.136945
0.136969
0.136995
0.137023
0.137053
0.137084
0.137117
0.137152
0.137189
0.137228
0.137269
0.137312
0.137358
0.137407
0.137458
0.137514
0.137575
0.137641
0.137715
0.137798
0.137894
0.138005
0.138136
0.138291
0.138475
0.139971
0.139914
0.139856
0.139798
0.13974
0.139682
0.139623
0.139564
0.139506
0.139446
0.139387
0.139328
0.139269
0.139209
0.13915
0.139091
0.139031
0.138972
0.138913
0.138854
0.138795
0.138737
0.138678
0.13862
0.138563
0.138506
0.138449
0.138392
0.138337
0.138281
0.138227
0.138173
0.13812
0.138067
0.138015
0.137964
0.137914
0.137865
0.137816
0.137769
0.137722
0.137676
0.137632
0.137588
0.137545
0.137504
0.137463
0.137423
0.137385
0.137347
0.137311
0.137275
0.137241
0.137208
0.137176
0.137145
0.137115
0.137086
0.137059
0.137032
0.137007
0.136983
0.13696
0.136938
0.136917
0.136898
0.13688
0.136862
0.136846
0.136832
0.136818
0.136805
0.136794
0.136784
0.136776
0.136768
0.136762
0.136757
0.136754
0.136751
0.136751
0.136751
0.136753
0.136756
0.136761
0.136768
0.136775
0.136785
0.136796
0.136808
0.136822
0.136838
0.136856
0.136875
0.136896
0.136918
0.136943
0.136969
0.136996
0.137026
0.137057
0.13709
0.137125
0.137162
0.137201
0.137243
0.137286
0.137332
0.137381
0.137433
0.137488
0.137549
0.137616
0.137691
0.137775
0.137871
0.137984
0.138117
0.138273
0.138458
0.139971
0.139914
0.139856
0.139797
0.139739
0.13968
0.139621
0.139562
0.139502
0.139443
0.139383
0.139324
0.139264
0.139204
0.139144
0.139084
0.139024
0.138965
0.138905
0.138846
0.138786
0.138727
0.138668
0.13861
0.138552
0.138494
0.138437
0.13838
0.138324
0.138268
0.138213
0.138159
0.138105
0.138052
0.138
0.137949
0.137899
0.137849
0.1378
0.137753
0.137706
0.13766
0.137615
0.137571
0.137528
0.137487
0.137446
0.137406
0.137367
0.13733
0.137293
0.137258
0.137223
0.13719
0.137158
0.137127
0.137097
0.137068
0.137041
0.137014
0.136988
0.136964
0.136941
0.136919
0.136898
0.136878
0.13686
0.136842
0.136826
0.136811
0.136797
0.136784
0.136773
0.136763
0.136754
0.136746
0.136739
0.136734
0.13673
0.136728
0.136727
0.136727
0.136729
0.136732
0.136736
0.136742
0.13675
0.136759
0.13677
0.136782
0.136796
0.136812
0.136829
0.136848
0.136869
0.136891
0.136915
0.136941
0.136969
0.136999
0.13703
0.137063
0.137098
0.137135
0.137174
0.137215
0.137259
0.137305
0.137354
0.137406
0.137462
0.137524
0.137591
0.137666
0.137751
0.137848
0.137962
0.138096
0.138254
0.138441
0.139971
0.139913
0.139855
0.139796
0.139737
0.139678
0.139619
0.139559
0.139499
0.139439
0.139379
0.139319
0.139259
0.139199
0.139138
0.139078
0.139018
0.138957
0.138897
0.138837
0.138777
0.138718
0.138658
0.138599
0.138541
0.138482
0.138425
0.138367
0.138311
0.138255
0.1382
0.138145
0.138091
0.138038
0.137985
0.137934
0.137883
0.137833
0.137785
0.137737
0.13769
0.137644
0.137599
0.137555
0.137512
0.13747
0.137429
0.137389
0.13735
0.137313
0.137276
0.13724
0.137206
0.137173
0.13714
0.137109
0.137079
0.13705
0.137022
0.136996
0.13697
0.136945
0.136922
0.1369
0.136879
0.136859
0.13684
0.136822
0.136806
0.13679
0.136776
0.136763
0.136751
0.136741
0.136731
0.136723
0.136716
0.136711
0.136707
0.136704
0.136702
0.136702
0.136704
0.136707
0.136711
0.136717
0.136724
0.136733
0.136743
0.136756
0.136769
0.136785
0.136802
0.136821
0.136841
0.136864
0.136888
0.136914
0.136941
0.136971
0.137002
0.137035
0.13707
0.137107
0.137147
0.137188
0.137232
0.137278
0.137327
0.137379
0.137436
0.137498
0.137565
0.137641
0.137727
0.137825
0.13794
0.138075
0.138235
0.138424
0.139971
0.139913
0.139854
0.139795
0.139736
0.139676
0.139617
0.139557
0.139496
0.139436
0.139375
0.139315
0.139254
0.139193
0.139132
0.139071
0.139011
0.13895
0.138889
0.138828
0.138768
0.138708
0.138648
0.138589
0.13853
0.138471
0.138413
0.138355
0.138298
0.138242
0.138186
0.138131
0.138077
0.138023
0.137971
0.137919
0.137868
0.137818
0.137769
0.137721
0.137674
0.137628
0.137583
0.137539
0.137496
0.137454
0.137413
0.137373
0.137334
0.137296
0.137259
0.137224
0.137189
0.137155
0.137123
0.137092
0.137062
0.137032
0.137004
0.136977
0.136952
0.136927
0.136903
0.136881
0.136859
0.136839
0.13682
0.136802
0.136785
0.136769
0.136755
0.136741
0.136729
0.136718
0.136709
0.1367
0.136693
0.136687
0.136683
0.13668
0.136678
0.136677
0.136678
0.136681
0.136685
0.136691
0.136698
0.136706
0.136717
0.136728
0.136742
0.136757
0.136774
0.136793
0.136813
0.136836
0.13686
0.136885
0.136913
0.136942
0.136974
0.137007
0.137042
0.137079
0.137118
0.13716
0.137204
0.13725
0.137299
0.137352
0.137409
0.137471
0.137539
0.137615
0.137702
0.137801
0.137917
0.138054
0.138215
0.138406
0.139971
0.139912
0.139853
0.139794
0.139734
0.139674
0.139614
0.139554
0.139493
0.139432
0.139372
0.13931
0.139249
0.139188
0.139126
0.139065
0.139004
0.138942
0.138881
0.13882
0.138759
0.138698
0.138638
0.138578
0.138519
0.138459
0.138401
0.138343
0.138285
0.138229
0.138173
0.138117
0.138063
0.138009
0.137956
0.137904
0.137853
0.137803
0.137754
0.137706
0.137659
0.137612
0.137567
0.137523
0.13748
0.137438
0.137397
0.137357
0.137318
0.13728
0.137243
0.137207
0.137172
0.137139
0.137106
0.137074
0.137044
0.137015
0.136986
0.136959
0.136933
0.136908
0.136884
0.136861
0.13684
0.136819
0.1368
0.136781
0.136764
0.136748
0.136733
0.136719
0.136707
0.136696
0.136686
0.136677
0.136669
0.136663
0.136658
0.136655
0.136653
0.136652
0.136653
0.136655
0.136659
0.136664
0.136671
0.136679
0.136689
0.136701
0.136714
0.136729
0.136746
0.136765
0.136785
0.136807
0.136831
0.136857
0.136884
0.136914
0.136945
0.136978
0.137013
0.137051
0.13709
0.137131
0.137175
0.137222
0.137271
0.137324
0.137382
0.137444
0.137513
0.137589
0.137677
0.137777
0.137894
0.138032
0.138195
0.138388
0.139971
0.139912
0.139852
0.139793
0.139733
0.139673
0.139612
0.139551
0.13949
0.139429
0.139368
0.139306
0.139244
0.139182
0.13912
0.139059
0.138997
0.138935
0.138873
0.138811
0.13875
0.138689
0.138628
0.138568
0.138508
0.138448
0.138389
0.138331
0.138273
0.138216
0.13816
0.138104
0.138049
0.137995
0.137942
0.13789
0.137839
0.137789
0.137739
0.137691
0.137644
0.137597
0.137552
0.137508
0.137464
0.137422
0.137381
0.137341
0.137302
0.137264
0.137227
0.137191
0.137156
0.137122
0.137089
0.137057
0.137027
0.136997
0.136969
0.136941
0.136915
0.136889
0.136865
0.136842
0.13682
0.136799
0.136779
0.136761
0.136743
0.136727
0.136711
0.136697
0.136684
0.136673
0.136662
0.136653
0.136645
0.136639
0.136633
0.13663
0.136627
0.136626
0.136626
0.136628
0.136632
0.136637
0.136643
0.136652
0.136661
0.136673
0.136686
0.136701
0.136718
0.136736
0.136756
0.136778
0.136802
0.136828
0.136855
0.136885
0.136916
0.136949
0.136984
0.137022
0.137061
0.137103
0.137147
0.137193
0.137243
0.137296
0.137354
0.137416
0.137486
0.137563
0.137651
0.137752
0.13787
0.13801
0.138175
0.138369
0.139971
0.139911
0.139852
0.139792
0.139731
0.139671
0.13961
0.139549
0.139487
0.139425
0.139364
0.139301
0.139239
0.139177
0.139115
0.139052
0.13899
0.138927
0.138865
0.138803
0.138741
0.138679
0.138618
0.138557
0.138497
0.138437
0.138377
0.138319
0.138261
0.138203
0.138147
0.138091
0.138036
0.137982
0.137929
0.137876
0.137825
0.137775
0.137725
0.137677
0.137629
0.137583
0.137537
0.137493
0.137449
0.137407
0.137366
0.137325
0.137286
0.137248
0.137211
0.137175
0.13714
0.137106
0.137073
0.137041
0.13701
0.13698
0.136951
0.136923
0.136896
0.136871
0.136846
0.136823
0.1368
0.136779
0.136759
0.13674
0.136722
0.136705
0.136689
0.136675
0.136661
0.136649
0.136638
0.136629
0.136621
0.136614
0.136608
0.136604
0.136601
0.1366
0.1366
0.136601
0.136605
0.136609
0.136616
0.136624
0.136633
0.136644
0.136657
0.136672
0.136689
0.136707
0.136727
0.136749
0.136773
0.136798
0.136826
0.136855
0.136886
0.13692
0.136955
0.136992
0.137032
0.137073
0.137118
0.137164
0.137214
0.137268
0.137325
0.137388
0.137458
0.137536
0.137625
0.137727
0.137846
0.137987
0.138154
0.13835
0.13997
0.139911
0.139851
0.139791
0.13973
0.139669
0.139608
0.139546
0.139484
0.139422
0.13936
0.139297
0.139234
0.139172
0.139109
0.139046
0.138983
0.13892
0.138857
0.138794
0.138732
0.13867
0.138608
0.138547
0.138486
0.138426
0.138366
0.138307
0.138249
0.138191
0.138134
0.138078
0.138023
0.137969
0.137915
0.137863
0.137811
0.137761
0.137711
0.137663
0.137615
0.137568
0.137523
0.137478
0.137435
0.137392
0.137351
0.13731
0.137271
0.137233
0.137195
0.137159
0.137124
0.137089
0.137056
0.137024
0.136993
0.136962
0.136933
0.136905
0.136878
0.136852
0.136827
0.136803
0.13678
0.136759
0.136738
0.136719
0.1367
0.136683
0.136667
0.136652
0.136638
0.136626
0.136614
0.136604
0.136596
0.136588
0.136582
0.136578
0.136575
0.136573
0.136573
0.136574
0.136577
0.136581
0.136587
0.136595
0.136605
0.136616
0.136628
0.136643
0.136659
0.136677
0.136697
0.136719
0.136743
0.136768
0.136796
0.136825
0.136856
0.13689
0.136925
0.136962
0.137002
0.137044
0.137088
0.137135
0.137185
0.137239
0.137297
0.13736
0.13743
0.137509
0.137598
0.137701
0.137822
0.137964
0.138132
0.138331
0.13997
0.13991
0.13985
0.139789
0.139728
0.139667
0.139605
0.139543
0.139481
0.139418
0.139356
0.139293
0.139229
0.139166
0.139103
0.139039
0.138976
0.138912
0.138849
0.138786
0.138723
0.13866
0.138598
0.138537
0.138475
0.138415
0.138355
0.138295
0.138237
0.138179
0.138122
0.138065
0.13801
0.137956
0.137902
0.13785
0.137798
0.137747
0.137698
0.137649
0.137601
0.137555
0.137509
0.137464
0.137421
0.137378
0.137336
0.137296
0.137256
0.137218
0.13718
0.137144
0.137108