# Forces      
# CofR        : (0.000000e+00 0.000000e+00 0.000000e+00)
# Time        forces(pressure viscous)	moments(pressure viscous)
0.0425        	((6.787272e+00 3.161732e+01 -1.473558e-20) (1.644209e-01 -6.453472e-02 3.071659e-21)) ((4.457286e-22 4.187191e-21 4.878884e+00) (-1.131270e-23 -6.994698e-22 -2.390391e-02))
