/*--------------------------------*- C++ -*----------------------------------*\
  =========                 |
  \\      /  F ield         | OpenFOAM: The Open Source CFD Toolbox
   \\    /   O peration     | Website:  https://openfoam.org
    \\  /    A nd           | Version:  9
     \\/     M anipulation  |
\*---------------------------------------------------------------------------*/
FoamFile
{
    format      ascii;
    class       surfaceScalarField;
    location    "0.0375";
    object      phi;
}
// * * * * * * * * * * * * * * * * * * * * * * * * * * * * * * * * * * * * * //

dimensions      [1 0 -1 0 0 0 0];

internalField   nonuniform List<scalar> 
21343
(
-0.0219615
-0.25478
-0.0165849
-0.233894
-0.011574
-0.217726
-0.00706486
-0.201247
-0.00287932
-0.187138
0.000942759
-0.172973
0.00444793
-0.160501
0.0076776
-0.148649
0.010644
-0.137772
0.0133835
-0.127686
0.0159083
-0.118348
0.0182402
-0.109697
0.0203945
-0.101681
0.0223862
-0.0942534
0.0242285
-0.0873696
0.0259329
-0.0809887
0.02751
-0.0750733
0.0289694
-0.069589
0.0303203
-0.0645047
0.031571
-0.0597914
0.0327293
-0.0554221
0.0338021
-0.0513719
0.0347962
-0.0476176
0.0357174
-0.0441378
0.0365714
-0.0409124
0.0373633
-0.0379229
0.038098
-0.035152
0.0387797
-0.0325839
0.0394126
-0.0302035
0.0400002
-0.0279973
0.0405461
-0.0259524
0.0410533
-0.0240568
0.0415247
-0.0223001
0.0419628
-0.0206716
0.0423701
-0.0191622
0.0427488
-0.017763
0.0431007
-0.016466
0.0434278
-0.0152637
0.0437319
-0.0141493
0.0440144
-0.0131161
0.0442769
-0.0121584
0.0445207
-0.0112706
0.044747
-0.0104475
0.0449571
-0.00968448
0.045152
-0.00897707
0.0453327
-0.00832123
0.0455002
-0.0077132
0.0456553
-0.0071495
0.0457989
-0.00662689
0.0459319
-0.00614239
0.0460548
-0.00569323
0.0461684
-0.00527685
0.0462735
-0.00489086
0.0463705
-0.00453305
0.0464601
-0.00420138
0.0465429
-0.00389395
0.0466193
-0.00360899
0.0466899
-0.00334487
0.046755
-0.00310006
0.0468151
-0.00287317
0.0468705
-0.00266288
0.0469217
-0.00246798
0.046969
-0.00228736
0.0470126
-0.00211995
0.0470529
-0.0019648
0.0470901
-0.00182102
0.0471244
-0.00168776
0.0471562
-0.00156426
0.0471855
-0.0014498
0.0472125
-0.00134373
0.0472375
-0.00124542
0.0472606
-0.00115432
0.047282
-0.00106988
0.0473017
-0.000991624
0.04732
-0.000919098
0.0473368
-0.00085188
0.0473524
-0.000789583
0.0473669
-0.000731845
0.0473802
-0.000678333
-0.000628736
0.0473926
-0.0202323
-0.260521
-0.0153003
-0.238826
-0.0106524
-0.222374
-0.00651085
-0.205389
-0.00263748
-0.191012
0.000868877
-0.176479
0.00409806
-0.163731
0.00705414
-0.151605
0.00977618
-0.140494
0.0122816
-0.130192
0.0145908
-0.120657
0.0167216
-0.111827
0.01869
-0.103649
0.0205099
-0.0960734
0.022194
-0.0890537
0.0237532
-0.0825479
0.0251979
-0.076518
0.0265371
-0.0709282
0.0277787
-0.0657463
0.0289304
-0.0609431
0.0299992
-0.0564909
0.0309916
-0.0523643
0.0319133
-0.0485394
0.0327697
-0.0449942
0.0335656
-0.0417082
0.0343051
-0.0386625
0.0349924
-0.0358394
0.0356311
-0.0332225
0.0362245
-0.0307969
0.0367755
-0.0285483
0.0372871
-0.026464
0.0377621
-0.0245318
0.0382028
-0.0227407
0.0386116
-0.0210805
0.0389909
-0.0195414
0.0393426
-0.0181147
0.0396688
-0.0167922
0.0399713
-0.0155662
0.0402516
-0.0144296
0.0405115
-0.013376
0.0407521
-0.0123991
0.0409749
-0.0114934
0.0411811
-0.0106537
0.0413716
-0.00987503
0.0415476
-0.00915303
0.0417099
-0.00848355
0.0418595
-0.00786276
0.0419971
-0.00728714
0.0421236
-0.00675342
0.0422398
-0.00625858
0.0423464
-0.00579982
0.0424441
-0.00537453
0.0425335
-0.0049803
0.0426154
-0.00461489
0.0426902
-0.00427623
0.0427586
-0.00396237
0.0428212
-0.00367153
0.0428783
-0.00340202
0.0429305
-0.00315229
0.0429783
-0.00292089
0.0430219
-0.0027065
0.0430617
-0.00250785
0.0430982
-0.00232381
0.0431315
-0.00215329
0.043162
-0.0019953
0.0431899
-0.00184893
0.0432155
-0.00171332
0.0432389
-0.00158767
0.0432604
-0.00147126
0.04328
-0.0013634
0.0432981
-0.00126347
0.0433146
-0.00117087
0.0433298
-0.00108508
0.0433438
-0.00100559
0.0433566
-0.000931931
0.0433684
-0.00086368
0.0433793
-0.000800437
0.0433893
-0.000741833
0.0433985
-0.000687528
-0.000637205
0.0434069
-0.018639
-0.265873
-0.0140783
-0.243387
-0.0097764
-0.226676
-0.00594804
-0.209217
-0.00237304
-0.194587
0.000854181
-0.179706
0.00383373
-0.16671
0.00655276
-0.154324
0.00905468
-0.142996
0.0113534
-0.13249
0.0134723
-0.122776
0.0154258
-0.113781
0.0172296
-0.105453
0.0188965
-0.0977403
0.0204382
-0.0905953
0.0218647
-0.0839745
0.0231854
-0.0778386
0.0244081
-0.072151
0.0255412
-0.0668794
0.0265915
-0.0619933
0.0275653
-0.0574647
0.0284684
-0.0532674
0.0293062
-0.0493772
0.0300835
-0.0457715
0.0308049
-0.0424296
0.0314744
-0.039332
0.0320959
-0.0364608
0.0326728
-0.0337995
0.0332085
-0.0313326
0.033706
-0.0290458
0.0341682
-0.0269261
0.0345975
-0.0249612
0.0349965
-0.0231397
0.0353672
-0.0214512
0.0357116
-0.0198859
0.0360317
-0.0184348
0.0363291
-0.0170895
0.0366053
-0.0158423
0.0368616
-0.014686
0.0370993
-0.0136137
0.0373196
-0.0126193
0.0375233
-0.0116971
0.0377114
-0.0108418
0.0378847
-0.0100484
0.0380441
-0.00931237
0.0381902
-0.00862967
0.0383239
-0.00799644
0.0384459
-0.00740915
0.038557
-0.00686451
0.0386579
-0.00635951
0.0387494
-0.00589134
0.0388323
-0.00545737
0.0389072
-0.00505517
0.0389747
-0.00468247
0.0390357
-0.00433716
0.0390906
-0.00401727
0.03914
-0.00372096
0.0391845
-0.00344651
0.0392245
-0.00319233
0.0392606
-0.00295693
0.039293
-0.00273893
0.0393222
-0.00253706
0.0393485
-0.00235011
0.0393722
-0.002177
0.0393936
-0.00201668
0.0394129
-0.00186822
0.0394303
-0.00173074
0.0394461
-0.00160342
0.0394603
-0.0014855
0.0394732
-0.0013763
0.0394849
-0.00127516
0.0394955
-0.00118148
0.0395051
-0.00109471
0.0395139
-0.00101434
0.0395219
-0.000939892
0.0395291
-0.000870928
0.0395357
-0.000807042
0.0395417
-0.000747858
0.0395472
-0.000693028
-0.00064223
0.0395523
-0.0171286
-0.270863
-0.0129183
-0.247597
-0.00893419
-0.23066
-0.00539586
-0.212756
-0.00209987
-0.197883
0.000871834
-0.182678
0.00361352
-0.169452
0.00610669
-0.156817
0.00840339
-0.145293
0.0105084
-0.134595
0.012447
-0.124715
0.0142326
-0.115567
0.0158802
-0.107101
0.0174018
-0.099262
0.0188084
-0.092002
0.0201097
-0.0852758
0.0213144
-0.0790432
0.0224302
-0.0732668
0.023464
-0.0679132
0.0244224
-0.0629518
0.0253114
-0.0583537
0.0261364
-0.0540924
0.0269022
-0.050143
0.0276134
-0.0464827
0.0282739
-0.0430901
0.0288874
-0.0399455
0.0294574
-0.0370308
0.029987
-0.034329
0.030479
-0.0318245
0.030936
-0.0295029
0.0313606
-0.0273507
0.031755
-0.0253556
0.0321214
-0.0235061
0.0324617
-0.0217915
0.0327777
-0.0202019
0.0330712
-0.0187282
0.0333435
-0.0173619
0.033596
-0.0160949
0.0338299
-0.0149198
0.0340461
-0.0138299
0.0342455
-0.0128187
0.0344287
-0.0118804
0.0345964
-0.0110095
0.0347493
-0.0102013
0.0348881
-0.00945109
0.0350133
-0.0087549
0.0351258
-0.00810893
0.0352263
-0.00750968
0.0353157
-0.00695393
0.0353949
-0.00643868
0.0354647
-0.00596113
0.0355259
-0.00551865
0.0355796
-0.00510878
0.0356263
-0.00472921
0.0356669
-0.00437778
0.0357021
-0.00405247
0.0357325
-0.00375136
0.0357587
-0.00347271
0.0357812
-0.00321484
0.0358005
-0.00297623
0.035817
-0.00275544
0.0358311
-0.00255115
0.0358431
-0.00236211
0.0358533
-0.00218719
0.0358619
-0.00202532
0.0358692
-0.00187553
0.0358754
-0.0017369
0.0358806
-0.0016086
0.0358849
-0.00148985
0.0358886
-0.00137994
0.0358916
-0.00127819
0.0358941
-0.00118399
0.0358962
-0.00109678
0.0358979
-0.00101604
0.0358993
-0.000941282
0.0359004
-0.000872054
0.0359013
-0.000807946
0.035902
-0.000748575
0.0359026
-0.000693589
-0.00064266
0.035903
-0.0157146
-0.275511
-0.0118273
-0.251484
-0.00813849
-0.234349
-0.00487303
-0.216021
-0.00183276
-0.200923
0.000907113
-0.185418
0.00342833
-0.171973
0.00571505
-0.159104
0.00782062
-0.147398
0.00974672
-0.136521
0.0115185
-0.126487
0.0131483
-0.117196
0.0146505
-0.108603
0.0160366
-0.100648
0.0173168
-0.0932822
0.0185004
-0.0864593
0.0195953
-0.0801381
0.0206089
-0.0742805
0.0215477
-0.068852
0.0224178
-0.0638218
0.0232246
-0.0591605
0.0239732
-0.054841
0.024668
-0.0508378
0.0253132
-0.0471278
0.0259124
-0.0436893
0.0264692
-0.0405023
0.0269865
-0.0375481
0.0274673
-0.0348098
0.0279141
-0.0322714
0.0283295
-0.0299182
0.0287156
-0.0277368
0.0290746
-0.0257146
0.0294083
-0.0238398
0.0297187
-0.0221018
0.0300071
-0.0204904
0.0302752
-0.0189963
0.030524
-0.0176107
0.0307547
-0.0163255
0.0309679
-0.015133
0.0311641
-0.0140262
0.0313439
-0.0129984
0.0315073
-0.0120439
0.0316549
-0.0111571
0.031787
-0.0103333
0.0319041
-0.00956816
0.0320068
-0.00885765
0.032096
-0.00819817
0.0321727
-0.00758637
0.0322379
-0.0070191
0.0322927
-0.00649342
0.0323381
-0.00600654
0.0323752
-0.0055558
0.0324051
-0.0051387
0.0324288
-0.00475286
0.0324471
-0.00439604
0.0324607
-0.00406614
0.0324705
-0.00376117
0.0324771
-0.00347927
0.032481
-0.00321872
0.0324826
-0.00297791
0.0324825
-0.00275533
0.032481
-0.0025496
0.0324783
-0.00235942
0.0324747
-0.00218362
0.0324705
-0.00202109
0.0324658
-0.00187081
0.0324607
-0.00173185
0.0324555
-0.00160333
0.0324501
-0.00148446
0.0324446
-0.00137451
0.0324392
-0.00127278
0.0324339
-0.00117867
0.0324287
-0.00109158
0.0324237
-0.00101098
0.0324188
-0.000936395
0.0324141
-0.000867353
0.0324096
-0.000803443
0.0324053
-0.000744276
0.0324012
-0.000689497
-0.000638776
0.0323973
-0.0143976
-0.279841
-0.010808
-0.255074
-0.00739277
-0.237764
-0.00437772
-0.219036
-0.00157341
-0.203727
0.000949662
-0.187941
0.00326622
-0.17429
0.00536428
-0.161202
0.00729346
-0.149327
0.00905408
-0.138282
0.0106711
-0.128104
0.012156
-0.118681
0.0135231
-0.10997
0.0147828
-0.101908
0.0159453
-0.0944447
0.0170189
-0.0875329
0.0180114
-0.0811306
0.0189297
-0.0751987
0.0197798
-0.0697021
0.0205674
-0.0646094
0.0212977
-0.0598908
0.0219753
-0.0555186
0.0226044
-0.0514669
0.0231886
-0.0477121
0.0237315
-0.0442322
0.0242361
-0.0410069
0.0247053
-0.0380172
0.0251414
-0.035246
0.0255471
-0.032677
0.0259243
-0.0302955
0.0262752
-0.0280877
0.0266016
-0.026041
0.0269053
-0.0241435
0.0271878
-0.0223842
0.0274504
-0.0207531
0.0276944
-0.0192403
0.0279207
-0.017837
0.0281298
-0.0165346
0.0283219
-0.0153252
0.0284971
-0.0142013
0.028655
-0.0131564
0.0287957
-0.0121845
0.0289191
-0.0112805
0.0290254
-0.0104397
0.0291153
-0.00965802
0.0291895
-0.00893192
0.0292493
-0.00825797
0.029296
-0.00763301
0.0293309
-0.00705401
0.0293555
-0.00651804
0.0293713
-0.0060223
0.0293795
-0.00556405
0.0293815
-0.00514068
0.0293784
-0.00474971
0.0293711
-0.00438875
0.0293605
-0.00405558
0.0293474
-0.0037481
0.0293325
-0.00346433
0.0293162
-0.00320244
0.0292991
-0.00296074
0.0292814
-0.00273764
0.0292635
-0.00253169
0.0292456
-0.00234154
0.0292279
-0.00216595
0.0292106
-0.00200378
0.0291938
-0.00185398
0.0291775
-0.00171557
0.0291618
-0.00158768
0.0291468
-0.00146947
0.0291325
-0.0013602
0.0291189
-0.00125918
0.029106
-0.00116576
0.0290938
-0.00107937
0.0290823
-0.000999452
0.0290714
-0.000925524
0.0290612
-0.000857124
0.0290516
-0.00079383
0.0290425
-0.000735256
0.0290341
-0.000681042
-0.000630858
0.0290262
-0.0131772
-0.283874
-0.00986241
-0.258389
-0.00670058
-0.240926
-0.0039154
-0.221821
-0.00132929
-0.206313
0.000995118
-0.190265
0.00312373
-0.176418
0.00504749
-0.163126
0.00681462
-0.151094
0.00842242
-0.13989
0.0098964
-0.129578
0.0112474
-0.120032
0.0124896
-0.111212
0.0136323
-0.10305
0.0146853
-0.0954976
0.0156566
-0.0885042
0.0165535
-0.0820275
0.0173827
-0.0760279
0.0181497
-0.0704691
0.0188599
-0.0653197
0.0195182
-0.0605491
0.0201288
-0.0561292
0.0206956
-0.0520337
0.0212221
-0.0482386
0.0217113
-0.0447215
0.0221661
-0.0414617
0.0225891
-0.0384402
0.0229825
-0.0356394
0.0233485
-0.033043
0.0236891
-0.0306361
0.0240062
-0.0284048
0.0243013
-0.0263361
0.0245761
-0.0244183
0.0248319
-0.02264
0.0250698
-0.020991
0.0252908
-0.0194613
0.0254953
-0.0180415
0.0256832
-0.0167225
0.0258541
-0.015496
0.0260071
-0.0143543
0.0261415
-0.0132908
0.0262567
-0.0122997
0.0263524
-0.0113762
0.0264291
-0.0105163
0.0264875
-0.00971646
0.0265291
-0.0089735
0.0265555
-0.00828438
0.0265686
-0.0076461
0.0265703
-0.00705572
0.0265625
-0.00651025
0.026547
-0.00600677
0.0265253
-0.00554239
0.0264989
-0.00511432
0.0264691
-0.00471987
0.0264368
-0.00435649
0.026403
-0.00402176
0.0263684
-0.00371344
0.0263334
-0.00342942
0.0262987
-0.00316774
0.0262646
-0.00292661
0.0262313
-0.00270437
0.0261991
-0.00249947
0.0261681
-0.00231053
0.0261384
-0.00213626
0.0261101
-0.00197546
0.0260832
-0.00182706
0.0260577
-0.00169007
0.0260336
-0.00156358
0.0260108
-0.00144674
0.0259895
-0.00133882
0.0259694
-0.00123908
0.0259505
-0.00114691
0.0259329
-0.00106171
0.0259163
-0.000982926
0.0259009
-0.000910074
0.0258865
-0.000842692
0.025873
-0.000780361
0.0258604
-0.000722693
0.0258487
-0.000669332
-0.000619949
0.0258378
-0.0120506
-0.287628
-0.00898913
-0.26145
-0.00606234
-0.243853
-0.00348733
-0.224396
-0.00110431
-0.208696
0.00103908
-0.192409
0.00299418
-0.178373
0.00475768
-0.164889
0.00637428
-0.152711
0.00784219
-0.141358
0.00918629
-0.130922
0.0104144
-0.12126
0.0115416
-0.112339
0.0125763
-0.104085
0.0135281
-0.0964494
0.0144045
-0.0893806
0.0152126
-0.0828356
0.0159589
-0.0767743
0.0166487
-0.0711589
0.0172868
-0.0659578
0.0178778
-0.0611401
0.0184258
-0.0566772
0.0189344
-0.0525423
0.0194067
-0.0487109
0.0198456
-0.0451604
0.0202537
-0.0418698
0.0206334
-0.0388198
0.0209866
-0.0359926
0.0213154
-0.0333718
0.0216216
-0.0309423
0.0219068
-0.02869
0.0221725
-0.0266019
0.0224201
-0.0246659
0.0226508
-0.0228707
0.0228654
-0.0212057
0.0230645
-0.0196604
0.0232479
-0.0182249
0.0234147
-0.0168893
0.0235635
-0.0156448
0.0236927
-0.0144835
0.0238007
-0.0133988
0.0238867
-0.0123857
0.0239506
-0.0114401
0.0239932
-0.0105589
0.024016
-0.00973927
0.0240212
-0.00897868
0.0240112
-0.00827437
0.0239885
-0.00762345
0.0239557
-0.00702288
0.023915
-0.00646953
0.0238684
-0.0059602
0.0238178
-0.00549174
0.0237645
-0.00506109
0.0237099
-0.00466528
0.023655
-0.00430155
0.0236005
-0.00396725
0.023547
-0.00365998
0.0234951
-0.00337745
0.0234449
-0.00311762
0.0233969
-0.00287856
0.023351
-0.00265853
0.0233075
-0.00245594
0.0232663
-0.00226933
0.0232274
-0.00209739
0.0231909
-0.00193888
0.0231565
-0.00179271
0.0231243
-0.00165787
0.0230942
-0.00153345
0.023066
-0.00141859
0.0230397
-0.00131253
0.0230152
-0.00121458
0.0229924
-0.00112408
0.0229711
-0.00104045
0.0229514
-0.000963144
0.022933
-0.000891678
0.0229159
-0.000825593
0.0229
-0.000764472
0.0228852
-0.000707935
0.0228715
-0.000655628
-0.000607228
0.0228588
-0.0110139
-0.291122
-0.00818514
-0.264279
-0.00547596
-0.246562
-0.00309493
-0.226777
-0.00089832
-0.210893
0.00107784
-0.194385
0.00287373
-0.180169
0.0044908
-0.166506
0.00597025
-0.154191
0.00731009
-0.142697
0.00853486
-0.132147
0.00965033
-0.122376
0.010672
-0.113361
0.0116074
-0.105021
0.012466
-0.097308
0.0132549
-0.0901695
0.013981
-0.0835616
0.0146504
-0.0774437
0.0152684
-0.0717769
0.0158394
-0.0665288
0.0163678
-0.0616685
0.0168573
-0.0571667
0.0173114
-0.0529964
0.0177329
-0.0491325
0.0181246
-0.0455521
0.0184887
-0.042234
0.0188275
-0.0391586
0.0191428
-0.0363079
0.0194365
-0.0336654
0.01971
-0.0312158
0.019965
-0.028945
0.0202028
-0.0268396
0.0204245
-0.0248876
0.0206313
-0.0230774
0.0208236
-0.021398
0.0210016
-0.0198383
0.0211642
-0.0183875
0.0213096
-0.0170347
0.0214352
-0.0157704
0.0215384
-0.0145867
0.0216172
-0.0134776
0.0216707
-0.0124392
0.0216994
-0.0114688
0.0217049
-0.0105644
0.0216899
-0.00972426
0.0216574
-0.00894622
0.0216108
-0.00822773
0.0215532
-0.00756582
0.0214875
-0.00695719
0.0214163
-0.00639834
0.0213418
-0.00588569
0.0212657
-0.00541571
0.0211896
-0.00498496
0.0211145
-0.00459019
0.0210413
-0.00422833
0.0209706
-0.00389654
0.0209028
-0.0035922
0.0208383
-0.00331289
0.0207771
-0.00305643
0.0207193
-0.00282082
0.0206651
-0.00260424
0.0206142
-0.00240504
0.0205666
-0.00222173
0.0205221
-0.00205295
0.0204807
-0.00189748
0.0204422
-0.00175419
0.0204064
-0.00162207
0.0203732
-0.00150021
0.0203423
-0.00138775
0.0203137
-0.00128394
0.0202872
-0.00118808
0.0202627
-0.00109954
0.02024
-0.00101772
0.0202189
-0.000942109
0.0201995
-0.000872209
0.0201814
-0.000807575
0.0201648
-0.0007478
0.0201493
-0.000692508
0.0201351
-0.000641354
-0.000594021
0.0201219
-0.0100627
-0.294374
-0.00744769
-0.266894
-0.00493959
-0.24907
-0.0027389
-0.228978
-0.000711652
-0.21292
0.00110932
-0.196206
0.00276005
-0.18182
0.00424345
-0.16799
0.00559779
-0.155545
0.0068207
-0.14392
0.00793638
-0.133262
0.00894901
-0.123388
0.00987415
-0.114286
0.0107186
-0.105865
0.0114918
-0.0980812
0.0122002
-0.090878
0.0128508
-0.0842122
0.0134493
-0.0780421
0.014001
-0.0723285
0.0145099
-0.0670377
0.0149801
-0.0621388
0.0154154
-0.0576019
0.0158187
-0.0533997
0.0161928
-0.0495067
0.0165404
-0.0458996
0.0168634
-0.042557
0.0171639
-0.0394591
0.0174436
-0.0365877
0.0177041
-0.033926
0.017947
-0.0314587
0.0181735
-0.0291715
0.0183849
-0.027051
0.0185822
-0.025085
0.0187664
-0.0232616
0.0189376
-0.0215692
0.0190953
-0.0199961
0.0192376
-0.0185297
0.0193612
-0.0171583
0.0194623
-0.0158716
0.0195375
-0.0146619
0.0195845
-0.0135247
0.0196031
-0.0124577
0.0195946
-0.0114603
0.019562
-0.0105318
0.0195092
-0.00967141
0.0194402
-0.00887722
0.0193591
-0.00814663
0.0192696
-0.00747631
0.0191748
-0.00686247
0.0190776
-0.00630107
0.0189799
-0.00578804
0.0188835
-0.00531934
0.0187897
-0.00489114
0.0186994
-0.00449983
0.0186131
-0.00414206
0.0185313
-0.00381475
0.0184542
-0.0035151
0.0183819
-0.00324057
0.0183143
-0.00298884
0.0182513
-0.00275786
0.0181929
-0.00254575
0.0181386
-0.00235081
0.0180884
-0.00217155
0.0180421
-0.00200657
0.0179993
-0.00185466
0.0179598
-0.0017147
0.0179234
-0.00158568
0.0178898
-0.00146668
0.017859
-0.00135688
0.0178305
-0.00125552
0.0178044
-0.00116192
0.0177803
-0.00107545
0.0177581
-0.000995549
0.0177377
-0.000921696
0.0177189
-0.000853415
0.0177016
-0.00079027
0.0176857
-0.000731862
0.017671
-0.000677826
0.0176575
-0.000627827
-0.000581554
0.017645
-0.00919174
-0.297399
-0.00677357
-0.269312
-0.00445122
-0.251392
-0.00241752
-0.231012
-0.000544827
-0.214793
0.00113323
-0.197884
0.0026513
-0.183338
0.00401284
-0.169351
0.00525305
-0.156785
0.00636945
-0.145037
0.00738577
-0.134279
0.00830476
-0.124307
0.00914185
-0.115123
0.00990341
-0.106627
0.0105985
-0.0987762
0.0112334
-0.0915129
0.0118149
-0.0847937
0.0123482
-0.0785754
0.0128388
-0.0728192
0.0132905
-0.0674894
0.0137071
-0.0625554
0.0140921
-0.0579869
0.0144483
-0.0537559
0.0147785
-0.0498368
0.0150849
-0.046206
0.0153695
-0.0428416
0.0156342
-0.0397237
0.0158805
-0.036834
0.01611
-0.0341555
0.016324
-0.0316726
0.0165237
-0.0293712
0.0167102
-0.0272375
0.0168845
-0.0252593
0.0170472
-0.0234243
0.0171984
-0.0217204
0.0173366
-0.0201343
0.0174587
-0.0186519
0.0175601
-0.0172597
0.0176356
-0.0159471
0.0176811
-0.0147074
0.0176948
-0.0135383
0.0176772
-0.0124402
0.0176314
-0.0114145
0.0175617
-0.0104622
0.0174733
-0.00958293
0.017371
-0.00877495
0.0172595
-0.00803518
0.0171429
-0.00735967
0.0170244
-0.00674393
0.0169065
-0.00618325
0.0167914
-0.0056729
0.0166804
-0.00520834
0.0165745
-0.00478528
0.0164744
-0.00439974
0.0163805
-0.0040481
0.0162928
-0.00372706
0.0162113
-0.00343365
0.016136
-0.0031652
0.0160664
-0.00291934
0.0160025
-0.00269392
0.0159438
-0.00248705
0.01589
-0.00229703
0.0158408
-0.00212232
0.0157958
-0.00196157
0.0157547
-0.00181355
0.0157171
-0.00167716
0.0156829
-0.00155141
0.0156516
-0.00143541
0.0156231
-0.00132834
0.015597
-0.00122947
0.0155732
-0.00113814
0.0155515
-0.00105374
0.0155317
-0.000975719
0.0155136
-0.000903575
0.015497
-0.000836848
0.0154819
-0.000775117
0.015468
-0.000717995
0.0154553
-0.000665131
0.0154437
-0.000616196
-0.000570894
0.015433
-0.00839583
-0.300213
-0.00615885
-0.271549
-0.00400807
-0.253543
-0.002128
-0.232892
-0.0003976
-0.216523
0.00114856
-0.19943
0.00254634
-0.184736
0.00379656
-0.170601
0.00493273
-0.157921
0.00595238
-0.146056
0.00687856
-0.135205
0.00771238
-0.125141
0.00846942
-0.11588
0.00915564
-0.107313
0.00977978
-0.0994004
0.0103477
-0.0920809
0.010866
-0.085312
0.0113396
-0.079049
0.0117744
-0.073254
0.0121738
-0.0678888
0.0125412
-0.0629227
0.0128798
-0.0583255
0.0131927
-0.0540687
0.0134821
-0.0501263
0.0137504
-0.0464742
0.0139993
-0.0430906
0.0142307
-0.0399551
0.0144459
-0.0370492
0.0146464
-0.0343559
0.0148332
-0.0318595
0.0150077
-0.0295456
0.0151707
-0.0274006
0.0153233
-0.0254118
0.0154658
-0.0235668
0.0155979
-0.0218525
0.0157174
-0.0202538
0.0158197
-0.0187542
0.0158985
-0.0173386
0.0159476
-0.0159961
0.0159625
-0.0147223
0.0159422
-0.0135181
0.015889
-0.012387
0.0158075
-0.011333
0.0157035
-0.0103582
0.0155832
-0.00946258
0.0154522
-0.00864395
0.0153155
-0.0078985
0.0151773
-0.00722139
0.0150406
-0.00660725
0.0149079
-0.00605057
0.0147809
-0.00554594
0.0146608
-0.00508823
0.0145483
-0.00467272
0.0144436
-0.00429506
0.0143468
-0.00395136
0.0142579
-0.00363813
0.0141765
-0.00335224
0.0141023
-0.00309096
0.0140347
-0.00285182
0.0139735
-0.00263268
0.0139181
-0.00243162
0.013868
-0.00224692
0.0138227
-0.00207708
0.0137819
-0.00192076
0.0137451
-0.00177675
0.013712
-0.001644
0.0136821
-0.00152154
0.0136552
-0.00140849
0.0136309
-0.00130408
0.013609
-0.0012076
0.0135893
-0.00111842
0.0135715
-0.00103594
0.0135554
-0.000959652
0.0135409
-0.00088906
0.0135278
-0.000823726
0.0135159
-0.000763245
0.0135052
-0.000707246
0.0134954
-0.000655389
0.0134866
-0.000607361
-0.000562873
0.0134786
-0.00766948
-0.30283
-0.00559948
-0.273619
-0.00360717
-0.255535
-0.00186785
-0.234631
-0.000268928
-0.218122
0.00115521
-0.200854
0.0024443
-0.186025
0.00359239
-0.171749
0.00463403
-0.158963
0.00556578
-0.146988
0.00640962
-0.136049
0.00716708
-0.125899
0.00785158
-0.116565
0.00846955
-0.107931
0.0090295
-0.0999603
0.0095368
-0.0925882
0.00999786
-0.085773
0.0104176
-0.0794687
0.0108012
-0.0736376
0.0111527
-0.0682403
0.011475
-0.063245
0.0117712
-0.0586218
0.0120442
-0.0543417
0.0122962
-0.0503783
0.0125293
-0.0467073
0.0127453
-0.0433065
0.0129457
-0.0401555
0.013132
-0.0372355
0.0133054
-0.0345294
0.013467
-0.0320211
0.0136178
-0.0296964
0.0137588
-0.0275416
0.0138909
-0.0255439
0.0140144
-0.0236903
0.0141285
-0.0219666
0.01423
-0.0203553
0.0143129
-0.0188371
0.0143692
-0.0173948
0.0143915
-0.0160185
0.0143759
-0.0147067
0.0143227
-0.0134648
0.0142358
-0.0123001
0.0141217
-0.0112188
0.0139874
-0.0102239
0.0138398
-0.00931508
0.0136853
-0.00848941
0.0135288
-0.00774203
0.0133744
-0.00706698
0.0132251
-0.0064579
0.0130829
-0.00590838
0.0129492
-0.0054123
0.012825
-0.00496396
0.0127104
-0.00455816
0.0126056
-0.00419024
0.0125103
-0.00385604
0.012424
-0.0035519
0.0123464
-0.00327461
0.0122768
-0.00302132
0.0122145
-0.00278955
0.012159
-0.00257715
0.0121096
-0.00238222
0.0120657
-0.00220305
0.0120268
-0.00203819
0.0119924
-0.00188633
0.0119619
-0.00174631
0.011935
-0.0016171
0.0119113
-0.00149777
0.0118903
-0.00138751
0.0118718
-0.00128557
0.0118554
-0.00119127
0.011841
-0.00110401
0.0118283
-0.00102322
0.0118171
-0.000948422
0.0118072
-0.00087914
0.0117984
-0.000814956
0.0117906
-0.000755487
0.0117838
-0.000700378
0.0117777
-0.000649304
0.0117723
-0.000601964
-0.000558083
0.0117675
-0.00700736
-0.305262
-0.00509127
-0.275535
-0.00324551
-0.257381
-0.00163539
-0.236241
-0.000157414
-0.2196
0.00115549
-0.202167
0.00234381
-0.187213
0.00339892
-0.172805
0.00435472
-0.159919
0.00520675
-0.14784
0.00597606
-0.136818
0.00666422
-0.126587
0.00728345
-0.117184
0.00783978
-0.108487
0.00834184
-0.100462
0.00879438
-0.0930407
0.00920378
-0.0861824
0.00957476
-0.0798397
0.00991196
-0.0739748
0.0102199
-0.0685482
0.0105013
-0.0635265
0.010759
-0.0588795
0.0109955
-0.0545783
0.0112133
-0.050596
0.0114141
-0.0469082
0.0115998
-0.0434922
0.0117718
-0.0403275
0.0119313
-0.0373951
0.0120797
-0.0346777
0.0122179
-0.0321593
0.0123466
-0.0298252
0.012467
-0.027662
0.0125799
-0.0256567
0.0126855
-0.0237959
0.0127826
-0.0220637
0.012867
-0.0204398
0.012931
-0.0189011
0.012965
-0.0174288
0.0129611
-0.0160146
0.0129161
-0.0146617
0.0128319
-0.0133806
0.0127144
-0.0121826
0.0125715
-0.0110759
0.0124114
-0.0100638
0.0122416
-0.00914532
0.0120686
-0.00831639
0.0118974
-0.00757081
0.0117318
-0.00690138
0.0115745
-0.00630063
0.0114274
-0.00576123
0.0112914
-0.0052763
0.011167
-0.00483957
0.0110542
-0.0044454
0.0109528
-0.00408882
0.0108622
-0.00376545
0.0107818
-0.00347145
0.0107107
-0.00320355
0.0106482
-0.00295885
0.0105936
-0.00273489
0.0105459
-0.00252951
0.0105046
-0.00234085
0.0104688
-0.00216728
0.010438
-0.00200737
0.0104115
-0.00185987
0.0103889
-0.00172367
0.0103696
-0.00159779
0.0103532
-0.00148137
0.0103393
-0.00137361
0.0103275
-0.00127383
0.0103177
-0.00118139
0.0103094
-0.00109572
0.0103025
-0.00101631
0.0102967
-0.000942675
0.010292
-0.000874388
0.0102881
-0.00081105
0.0102849
-0.000752299
0.0102823
-0.000697797
0.0102802
-0.000647235
0.0102786
-0.000600326
-0.000556805
0.0102773
-0.0064044
-0.307524
-0.00463015
-0.277309
-0.00291991
-0.259091
-0.00142869
-0.237732
-6.25102e-05
-0.220966
0.00114972
-0.203379
0.00224401
-0.188307
0.00321546
-0.173776
0.00409301
-0.160796
0.00487271
-0.14862
0.00557456
-0.13752
0.00619947
-0.127212
0.00676046
-0.117745
0.00726139
-0.108988
0.00771138
-0.100912
0.0081147
-0.093444
0.00847766
-0.0865454
0.00880459
-0.0801667
0.00909988
-0.07427
0.00936857
-0.0688169
0.00961312
-0.063771
0.00983591
-0.0591022
0.0100395
-0.0547819
0.0102261
-0.0507827
0.0103976
-0.0470797
0.0105556
-0.0436502
0.0107015
-0.0404733
0.0108365
-0.0375301
0.0109617
-0.034803
0.0110782
-0.0322757
0.0111867
-0.0299337
0.0112879
-0.0277633
0.0113828
-0.0257516
0.0114717
-0.0238847
0.0115529
-0.0221449
0.0116212
-0.0205081
0.0116672
-0.0189471
0.0116798
-0.0174415
0.011651
-0.0159857
0.0115785
-0.0145892
0.0114661
-0.0132683
0.0113217
-0.0120382
0.0111542
-0.0109084
0.0109729
-0.00988239
0.0107855
-0.00895793
0.0105985
-0.00812944
0.010417
-0.00738924
0.0102444
-0.00672878
0.0100831
-0.00613938
0.00993465
-0.00561277
0.00979967
-0.00514132
0.00967832
-0.00471821
0.00957027
-0.00433736
0.00947492
-0.00399347
0.00939145
-0.00368198
0.00931894
-0.00339895
0.00925643
-0.00314103
0.00920295
-0.00290537
0.00915756
-0.0026895
0.00911934
-0.0024913
0.00908743
-0.00230895
0.00906102
-0.00214087
0.00903937
-0.00198571
0.00902179
-0.00184229
0.00900769
-0.00170958
0.00899656
-0.00158666
0.00898793
-0.00147273
0.00898139
-0.00136708
0.00897661
-0.00126905
0.00897329
-0.00117807
0.00897117
-0.0010936
0.00897004
-0.00101518
0.00896971
-0.000942345
0.00897002
-0.000874704
0.00897085
-0.000811881
0.00897209
-0.000753534
0.00897363
-0.000699342
0.00897541
-0.000649012
0.00897735
-0.000602269
-0.000558861
0.00897941
-0.00585628
-0.309627
-0.00421209
-0.278954
-0.00262723
-0.260676
-0.00124558
-0.239114
1.71963e-05
-0.222229
0.0011374
-0.2045
0.00214579
-0.189316
0.00304116
-0.174671
0.00384726
-0.161602
0.00456136
-0.149334
0.00520216
-0.13816
0.00577022
-0.12778
0.00627858
-0.118253
0.00672976
-0.109439
0.00713303
-0.101316
0.00749226
-0.0938033
0.00781364
-0.0868668
0.00810123
-0.0804542
0.00835964
-0.0745284
0.0085926
-0.0690499
0.00880379
-0.0639822
0.00899519
-0.0592936
0.0091691
-0.0549558
0.00932764
-0.0509412
0.00947259
-0.0472246
0.00960548
-0.043783
0.00972765
-0.0405955
0.00984029
-0.0376428
0.00994444
-0.0349071
0.010041
-0.0323723
0.0101308
-0.0300234
0.0102144
-0.0278469
0.0102927
-0.0258299
0.010366
-0.023958
0.0104324
-0.0222113
0.0104857
-0.0205614
0.0105148
-0.0189762
0.0105074
-0.017434
0.0104553
-0.0159337
0.010358
-0.0144918
0.0102209
-0.0131312
0.0100533
-0.0118706
0.00986543
-0.0107206
0.00966693
-0.00968389
0.00946592
-0.00875692
0.00926883
-0.00793235
0.00908042
-0.00720084
0.00890403
-0.00655238
0.00874173
-0.00597709
0.00859466
-0.0054657
0.00846317
-0.00500983
0.00834703
-0.00460208
0.00824562
-0.00423595
0.00815803
-0.00390588
0.00808322
-0.00360717
0.00802008
-0.00333581
0.00796746
-0.00308841
0.00792418
-0.00286209
0.00788909
-0.00265441
0.00786109
-0.0024633
0.00783916
-0.00228702
0.0078224
-0.00212411
0.00780999
-0.00197331
0.00780123
-0.00183353
0.00779549
-0.00170384
0.00779226
-0.00158342
0.00779106
-0.00147154
0.00779153
-0.00136754
0.00779332
-0.00127084
0.00779615
-0.0011809
0.00779978
-0.00109724
0.00780403
-0.00101942
0.00780872
-0.000947033
0.00781371
-0.000879698
0.0078189
-0.000817069
0.00782419
-0.000758821
0.0078295
-0.000704654
0.00783478
-0.000654289
0.00783997
-0.000607465
-0.000563938
0.00784505
-0.00535737
-0.311581
-0.00383328
-0.280478
-0.00236443
-0.262145
-0.00108387
-0.240395
8.36014e-05
-0.223397
0.00111928
-0.205535
0.00204926
-0.190246
0.00287489
-0.175497
0.00361605
-0.162344
0.00427066
-0.149989
0.00485622
-0.138746
0.00537311
-0.128297
0.00583405
-0.118714
0.00624065
-0.109846
0.0066021
-0.101677
0.00692194
-0.0941231
0.00720622
-0.087151
0.00745878
-0.0807068
0.00768404
-0.0747537
0.00788516
-0.069251
0.00806665
-0.0641637
0.0082301
-0.0594571
0.00837751
-0.0551032
0.00851092
-0.0510746
0.00863208
-0.0473458
0.00874244
-0.0438934
0.00884327
-0.0406964
0.00893571
-0.0377352
0.00902072
-0.0349921
0.00909915
-0.0324507
0.00917179
-0.0300961
0.00923938
-0.0279145
0.00930248
-0.025893
0.00936139
-0.0240169
0.00941419
-0.0222641
0.0094537
-0.0206009
0.00946726
-0.0189898
0.00944146
-0.0174082
0.0093686
-0.0158608
0.00924934
-0.0143726
0.00909093
-0.0129728
0.0089039
-0.0116835
0.00869932
-0.010516
0.0084872
-0.00947177
0.00827579
-0.00854552
0.00807147
-0.00772802
0.00787883
-0.00700819
0.00770092
-0.00637448
0.00753958
-0.00581575
0.00739561
-0.00532173
0.00726906
-0.00488328
0.00715939
-0.0044924
0.00706569
-0.00414225
0.00698686
-0.00382705
0.00692164
-0.00354195
0.00686866
-0.00328282
0.00682645
-0.0030462
0.00679357
-0.00282921
0.00676868
-0.00262952
0.00675055
-0.00244517
0.00673811
-0.00227458
0.00673039
-0.0021164
0.00672659
-0.0019695
0.00672598
-0.00183292
0.00672794
-0.00170581
0.00673196
-0.00158744
0.00673758
-0.00147716
0.00674442
-0.00137438
0.00675217
-0.00127859
0.00676057
-0.0011893
0.00676939
-0.00110607
0.00677846
-0.00102849
0.00678764
-0.000956209
0.0067968
-0.00088886
0.00680586
-0.000826123
0.00681473
-0.000767694
0.00682337
-0.000713291
0.00683172
-0.000662648
0.00683977
-0.000615515
-0.000571659
0.00684749
-0.00490285
-0.313398
-0.00349013
-0.28189
-0.00212869
-0.263507
-0.00094149
-0.241582
0.000138173
-0.224476