/*--------------------------------*- C++ -*----------------------------------*\
  =========                 |
  \\      /  F ield         | OpenFOAM: The Open Source CFD Toolbox
   \\    /   O peration     | Website:  https://openfoam.org
    \\  /    A nd           | Version:  9
     \\/     M anipulation  |
\*---------------------------------------------------------------------------*/
FoamFile
{
    format      ascii;
    class       volVectorField;
    location    "0.0375";
    object      U;
}
// * * * * * * * * * * * * * * * * * * * * * * * * * * * * * * * * * * * * * //

dimensions      [0 1 -1 0 0 0 0];

internalField   nonuniform List<vector> 
6127
(
(81.2211 7.59561 -7.97847e-17)
(85.6183 4.74762 0)
(93.484 0.37817 1.42158e-17)
(113.73 15.6215 7.00353e-17)
(133.11 12.6094 0)
(161.422 2.9146 6.9378e-21)
(118.344 13.4066 -6.75784e-17)
(142.278 11.5805 1.12436e-19)
(173.794 0.756842 -1.00587e-17)
(119.007 12.6831 6.59016e-17)
(142.482 10.8703 0)
(178.033 -0.0888766 4.75228e-18)
(119.597 11.3474 -3.22746e-17)
(141.172 9.68695 1.1136e-19)
(183.396 -1.05987 -4.5137e-18)
(120.013 10.2567 3.12463e-17)
(140.226 8.57058 0)
(186.422 -2.14373 0)
(120.286 9.01907 1.15465e-19)
(139.98 7.35861 -1.14005e-19)
(186.715 -3.25664 0)
(120.511 7.79798 -3.00957e-17)
(139.865 6.17567 1.16401e-19)
(186.883 -4.09318 0)
(120.733 6.53544 2.98089e-17)
(139.699 4.98084 0)
(187.252 -4.77364 0)
(120.949 5.26744 -1.15774e-19)
(139.466 3.79666 -1.45763e-17)
(187.821 -5.15644 2.08704e-18)
(121.156 4.04121 0)
(139.248 2.64439 1.45241e-17)
(188.609 -5.1645 -2.17135e-18)
(121.384 2.7629 -1.56982e-17)
(139.323 1.46711 1.69863e-19)
(188.738 -4.82697 -3.72068e-20)
(121.479 1.60507 2.35834e-17)
(138.708 0.46371 0)
(187.862 -3.72924 1.33782e-18)
(117.136 0.468321 -4.24648e-18)
(129.941 -0.433092 2.04062e-18)
(175.258 -1.88923 -1.75749e-18)
(84.1539 -2.21038 -5.18931e-18)
(83.8306 -2.2982 -2.33919e-18)
(104.424 -1.30516 0)
(25.1264 -2.37752 0)
(24.4484 -2.24731 0)
(24.5733 -2.40235 0)
(24.3078 -2.27065 0)
(24.2399 -2.40672 0)
(24.054 -2.3369 0)
(23.945 -2.44287 0)
(23.8022 -2.42622 0)
(23.6867 -2.51606 0)
(23.5547 -2.53565 0)
(23.4339 -2.62088 0)
(23.3061 -2.66808 0)
(23.1813 -2.75504 0)
(24.8371 -3.17015 0)
(24.7383 -3.16665 0)
(24.7834 -3.19449 0)
(24.7497 -3.19691 0)
(24.7689 -3.23763 0)
(24.7361 -3.24326 0)
(24.7565 -3.28756 0)
(24.7419 -3.30361 0)
(24.7481 -3.34126 0)
(24.7485 -3.36666 0)
(24.7502 -3.39842 0)
(24.7509 -3.42668 0)
(24.7509 -3.4552 0)
(24.7499 -3.48248 0)
(24.7482 -3.50877 0)
(24.746 -3.53396 0)
(24.7435 -3.55803 2.9569e-14)
(24.7409 -3.58099 -5.98482e-14)
(24.7383 -3.60281 3.02208e-14)
(24.7359 -3.6235 3.04568e-14)
(24.7336 -3.64307 -3.06305e-14)
(24.7316 -3.66153 3.07411e-14)
(24.7296 -3.67891 -6.15766e-14)
(24.7279 -3.69521 6.1545e-14)
(24.7263 -3.71045 -3.06948e-14)
(24.7247 -3.72466 3.05568e-14)
(24.7233 -3.73787 -3.03608e-14)
(24.722 -3.75012 0)
(24.7206 -3.76144 0)
(24.7194 -3.77188 0)
(24.7182 -3.78149 0)
(24.717 -3.79031 0)
(24.7159 -3.79841 0)
(24.7149 -3.80584 0)
(24.7139 -3.81268 0)
(24.7129 -3.81893 0)
(24.712 -3.82463 0)
(24.7112 -3.82985 2.52406e-14)
(24.7104 -3.8346 -4.9155e-14)
(24.7097 -3.83897 2.38903e-14)
(24.7091 -3.84295 0)
(24.7084 -3.84661 0)
(24.7077 -3.84995 -2.17045e-14)
(24.7068 -3.85299 2.09431e-14)
(24.7057 -3.85575 0)
(24.7043 -3.85824 1.93897e-14)
(24.7023 -3.86045 -1.86053e-14)
(24.6997 -3.86238 1.78208e-14)
(24.6962 -3.86402 2.00576e-21)
(24.6919 -3.86536 1.73952e-21)
(24.6865 -3.8664 1.47758e-21)
(24.6801 -3.86714 1.40786e-21)
(24.6726 -3.86754 -2.80501e-14)
(24.664 -3.86764 2.66241e-14)
(24.6543 -3.86739 -1.26196e-14)
(24.6435 -3.86683 0)
(24.6317 -3.86596 0)
(24.619 -3.8648 1.06785e-14)
(24.6053 -3.86326 -1.00795e-14)
(24.5908 -3.86127 -1.44073e-14)
(24.8453 -3.15304 0)
(24.7071 -3.14146 0)
(24.7516 -3.17817 0)
(24.6923 -3.17164 0)
(24.7074 -3.2223 -4.78646e-15)
(24.6554 -3.22123 1.04011e-14)
(24.669 -3.27576 5.62156e-15)
(24.644 -3.28833 -1.18939e-14)
(24.6425 -3.33089 -1.22994e-14)
(24.6364 -3.35671 2.54044e-14)
(24.6322 -3.39151 1.79208e-20)
(24.6278 -3.42162 1.45884e-20)
(24.6232 -3.45256 -1.38516e-14)
(24.6184 -3.48179 0)
(24.6134 -3.51004 0)
(24.6086 -3.53696 0)
(24.604 -3.56253 1.51415e-14)
(24.6 -3.58682 6.54271e-22)
(24.5965 -3.60991 -1.5634e-14)
(24.5935 -3.63198 -3.16693e-14)
(24.591 -3.65292 6.40115e-14)
(24.5892 -3.67251 -3.22751e-14)
(24.5879 -3.69076 0)
(24.587 -3.70776 3.26078e-14)
(24.5865 -3.72355 -2.08995e-20)
(24.5863 -3.73819 -3.26658e-14)
(24.5862 -3.75174 3.25947e-14)
(24.5864 -3.76427 -3.24599e-14)
(24.5866 -3.77584 3.22641e-14)
(24.5869 -3.78652 -3.20106e-14)
(24.5872 -3.79636 0)
(24.5876 -3.80542 3.1344e-14)
(24.588 -3.81378 -3.09373e-14)
(24.5884 -3.82152 0)
(24.5889 -3.82864 -2.99903e-14)
(24.5895 -3.83517 2.32428e-20)
(24.5901 -3.84125 2.88753e-14)
(24.5908 -3.84692 0)
(24.5915 -3.85221 0)
(24.592 -3.85711 0)
(24.5923 -3.86162 2.61565e-14)
(24.5919 -3.86573 -2.53797e-14)
(24.5906 -3.86936 0)
(24.5879 -3.87247 -2.37275e-14)
(24.5833 -3.87498 4.57216e-14)
(24.5763 -3.87678 -2.19748e-14)
(24.5664 -3.87781 0)
(24.5533 -3.87809 -2.01706e-14)
(24.5368 -3.87756 1.92652e-14)
(24.5167 -3.87604 0)
(24.493 -3.87382 0)
(24.4662 -3.87066 1.66048e-14)
(24.4363 -3.86709 -1.57522e-14)
(24.4035 -3.86263 0)
(24.3682 -3.85757 0)
(24.3308 -3.85196 0)
(24.2916 -3.84588 0)
(24.251 -3.8394 -1.18799e-14)
(24.2092 -3.83254 1.11938e-14)
(24.1665 -3.82531 0)
(24.8561 -3.13271 0)
(24.6899 -3.11666 0)
(24.7377 -3.15846 0)
(24.6638 -3.14685 -4.36401e-15)
(24.6777 -3.20303 4.72112e-15)
(24.6149 -3.19896 0)
(24.6253 -3.25717 0)
(24.5933 -3.27022 -5.85467e-15)
(24.5885 -3.31676 -6.07932e-15)
(24.5776 -3.34468 1.26103e-14)
(24.5706 -3.38193 -1.30577e-14)
(24.5634 -3.41396 -2.70686e-20)
(24.5565 -3.44752 1.39316e-14)
(24.5498 -3.47915 0)
(24.5433 -3.50997 0)
(24.5374 -3.53949 0)
(24.5323 -3.56783 1.55057e-14)
(24.528 -3.59484 -1.58449e-14)
(24.5246 -3.62042 0)
(24.522 -3.64518 0)
(24.5202 -3.66917 0)
(24.5191 -3.69181 0)
(24.5187 -3.71306 0)
(24.5189 -3.73301 0)
(24.5195 -3.7517 0)
(24.5204 -3.76919 0)
(24.5216 -3.7855 0)
(24.5229 -3.80071 0)
(24.5244 -3.81486 0)
(24.5259 -3.82802 0)
(24.5274 -3.84024 0)
(24.529 -3.85158 0)
(24.5306 -3.86211 0)
(24.5323 -3.87188 0)
(24.534 -3.88094 0)
(24.5358 -3.88934 0)
(24.5376 -3.8971 0)
(24.5393 -3.90427 0)
(24.5406 -3.91083 0)
(24.5413 -3.91675 0)
(24.5406 -3.92194 0)
(24.5378 -3.92626 0)
(24.5319 -3.92956 0)
(24.5217 -3.93165 0)
(24.5062 -3.93236 0)
(24.4846 -3.93153 0)
(24.4561 -3.92912 0)
(24.4204 -3.92501 0)
(24.3779 -3.91902 0)
(24.329 -3.91231 0)
(24.2739 -3.90386 0)
(24.2136 -3.89422 0)
(24.149 -3.88365 0)
(24.081 -3.87236 0)
(24.0105 -3.8605 0)
(23.9385 -3.84822 0)
(23.8656 -3.83565 0)
(23.7924 -3.82293 0)
(23.7195 -3.81011 0)
(23.6471 -3.79735 0)
(24.8678 -3.10252 0)
(24.6706 -3.08142 0)
(24.7204 -3.12982 -1.98979e-15)
(24.6292 -3.11202 2.15751e-15)
(24.6408 -3.17493 0)
(24.5655 -3.16751 0)
(24.5713 -3.23143 5.44503e-15)
(24.5309 -3.24358 3.16558e-20)
(24.522 -3.29508 -6.01196e-15)
(24.5047 -3.32485 0)
(24.4934 -3.36573 0)
(24.4823 -3.40023 0)
(24.4721 -3.43696 0)
(24.4624 -3.47165 0)
(24.4536 -3.5056 0)
(24.4457 -3.5382 0)
(24.4391 -3.5696 0)
(24.4338 -3.5995 1.62511e-14)
(24.4296 -3.62826 -3.32847e-14)
(24.4265 -3.65645 3.40124e-14)
(24.4245 -3.68356 -1.73397e-14)
(24.4234 -3.70912 1.76405e-14)
(24.4233 -3.73317 -1.79065e-14)
(24.4238 -3.75576 -1.81361e-14)
(24.4249 -3.77694 3.66562e-14)
(24.4264 -3.79673 -1.8482e-14)
(24.4281 -3.8152 1.85978e-14)
(24.43 -3.83241 -1.86759e-14)
(24.4321 -3.84841 0)
(24.4343 -3.86327 0)
(24.4365 -3.87708 1.86945e-14)
(24.4388 -3.8899 -1.86332e-14)
(24.4412 -3.90182 1.85399e-14)
(24.4437 -3.91288 -3.68301e-14)
(24.4463 -3.92313 2.30143e-20)
(24.449 -3.93255 3.61318e-14)
(24.4517 -3.94121 -1.78364e-14)
(24.4538 -3.94915 0)
(24.4549 -3.95628 0)
(24.4538 -3.96239 0)
(24.449 -3.96719 0)
(24.4384 -3.97032 -1.60058e-14)
(24.4198 -3.97138 1.54979e-14)
(24.3914 -3.97003 0)
(24.3513 -3.96599 0)
(24.2987 -3.95914 -1.37753e-14)
(24.2332 -3.9495 1.31632e-14)
(24.1556 -3.93725 1.25463e-14)
(24.0669 -3.92268 -7.36329e-21)
(23.9687 -3.90617 -1.13265e-14)
(23.8629 -3.88813 0)
(23.7516 -3.869 1.01599e-14)
(23.6366 -3.84915 -9.60502e-15)
(23.5196 -3.82895 9.07166e-15)
(23.4022 -3.80869 -1.71217e-14)
(23.2856 -3.78862 3.03532e-21)
(23.1709 -3.76892 7.6082e-15)
(23.0589 -3.74973 0)
(22.9501 -3.7311 0)
(22.8451 -3.71325 0)
(24.8808 -3.06754 0)
(24.6521 -3.04142 0)
(24.706 -3.09672 0)
(24.5988 -3.07281 -2.13488e-15)
(24.6084 -3.14209 2.30428e-15)
(24.5217 -3.13156 0)
(24.5228 -3.2008 -5.36852e-15)
(24.475 -3.21293 1.13801e-14)
(24.4619 -3.26889 -5.94838e-15)
(24.4385 -3.30017 6.21374e-15)
(24.423 -3.34576 2.97937e-20)
(24.4076 -3.38363 -1.34998e-14)
(24.3944 -3.42383 7.01911e-15)
(24.3817 -3.462 0)
(24.3704 -3.49979 0)
(24.3607 -3.53612 0)
(24.3526 -3.57136 0)
(24.3463 -3.60514 1.66204e-14)
(24.3416 -3.63776 -1.70897e-14)
(24.3382 -3.66984 -1.75352e-14)
(24.3361 -3.70096 1.79533e-14)
(24.3352 -3.73042 -1.83409e-14)
(24.3355 -3.75822 1.86954e-14)
(24.3366 -3.78446 -1.90144e-14)
(24.3384 -3.80914 3.85926e-14)
(24.3407 -3.8323 -1.95398e-14)
(24.3434 -3.85396 0)
(24.3464 -3.8742 0)
(24.3496 -3.89307 0)
(24.3529 -3.91064 0)
(24.3564 -3.927 0)
(24.3601 -3.94221 0)
(24.3639 -3.95631 -2.01808e-14)
(24.3679 -3.96937 4.02567e-14)
(24.3721 -3.9814 -2.00377e-14)
(24.3764 -3.99249 1.99041e-14)
(24.3803 -4.00269 -1.97205e-14)
(24.3829 -4.01184 1.94786e-14)
(24.3828 -4.01961 -2.72104e-20)
(24.3772 -4.02549 -3.75834e-14)
(24.3628 -4.0288 3.66773e-14)
(24.3356 -4.02881 -2.22108e-20)
(24.2919 -4.02487 -1.72286e-14)
(24.2289 -4.0165 -1.65911e-14)
(24.1449 -4.00355 1.67518e-20)
(24.0402 -3.98619 1.52179e-14)
(23.9163 -3.96489 -1.45093e-14)
(23.7759 -3.94031 1.19403e-20)
(23.6224 -3.91322 1.0587e-20)
(23.4595 -3.88444 1.24219e-14)
(23.2906 -3.85469 0)
(23.1191 -3.82465 0)
(22.9477 -3.79485 -1.0516e-14)
(22.7788 -3.76575 5.65786e-21)
(22.6142 -3.73768 4.97934e-21)
(22.4553 -3.71087 8.85012e-15)
(22.3031 -3.68548 -8.34841e-15)
(22.1584 -3.66159 1.57446e-14)
(22.0215 -3.63921 -3.15388e-21)
(21.8925 -3.61855 -9.93907e-15)
(24.8943 -3.02903 -4.1929e-16)
(24.634 -2.99762 4.53381e-16)
(24.6933 -3.05994 -9.75458e-16)
(24.5705 -3.03037 1.05678e-15)
(24.577 -3.10588 2.27924e-15)
(24.4795 -3.09201 -2.46812e-15)
(24.4756 -3.16641 -2.64916e-15)
(24.4202 -3.17859 8.42573e-15)
(24.4026 -3.23895 4.60572e-20)
(24.373 -3.27187 -1.23392e-14)
(24.3534 -3.32217 -3.75978e-20)
(24.3329 -3.36357 -3.17553e-20)
(24.3161 -3.40777 1.407e-14)
(24.2999 -3.44961 2.26178e-20)
(24.2858 -3.49166 -7.62044e-15)
(24.2737 -3.53214 0)
(24.2637 -3.57162 0)
(24.256 -3.60973 0)
(24.2503 -3.64657 0)
(24.2461 -3.68287 0)
(24.2435 -3.71839 -9.26397e-15)
(24.2425 -3.75216 9.50165e-15)
(24.2428 -3.78413 0)
(24.2441 -3.81439 0)
(24.2463 -3.84294 0)
(24.2492 -3.86979 -2.05757e-14)
(24.2526 -3.89499 4.26158e-20)
(24.2563 -3.91857 2.1138e-14)
(24.2604 -3.94061 -2.13608e-14)
(24.2647 -3.96119 2.15458e-14)
(24.2693 -3.9804 0)
(24.2742 -3.99814 0)
(24.2794 -4.01443 0)
(24.285 -4.02957 0)
(24.2908 -4.0437 0)
(24.2965 -4.05682 2.18473e-14)
(24.3013 -4.06874 -4.34419e-14)
(24.3034 -4.07905 2.15144e-14)
(24.2991 -4.08699 0)
(24.2832 -4.09147 2.0811e-14)
(24.2493 -4.0912 -2.03041e-14)
(24.191 -4.08503 0)
(24.1031 -4.07213 1.90198e-14)
(23.9833 -4.05228 -1.82783e-14)
(23.8321 -4.02588 -1.74987e-14)
(23.6529 -3.99387 2.15164e-20)
(23.4507 -3.95753 3.18017e-14)
(23.2316 -3.91825 -1.51115e-14)
(23.0021 -3.87738 -1.43417e-14)
(22.7677 -3.83611 1.35973e-14)
(22.5335 -3.79542 0)
(22.3036 -3.75609 -1.21974e-14)
(22.0811 -3.71866 1.15443e-14)
(21.8685 -3.68352 0)
(21.6673 -3.6509 -1.03306e-14)
(21.4785 -3.62091 9.76826e-15)
(21.3026 -3.59358 9.23405e-15)
(21.1398 -3.56885 -8.7267e-15)
(20.99 -3.54659 0)
(20.8526 -3.52692 1.08617e-14)
(24.9083 -2.98863 0)
(24.6168 -2.95189 -4.49663e-16)
(24.6808 -3.02098 4.83209e-16)
(24.5446 -2.98612 0)
(24.5474 -3.06787 -2.25558e-15)
(24.4399 -3.05043 4.8824e-15)
(24.4309 -3.12947 3.02968e-20)
(24.3681 -3.14181 2.87101e-20)
(24.3459 -3.20644 -5.83226e-15)
(24.3101 -3.24101 -2.45534e-20)
(24.2862 -3.29569 3.2132e-15)
(24.2604 -3.34055 0)
(24.2394 -3.38935 0)
(24.2195 -3.43495 0)
(24.2022 -3.48149 0)
(24.1873 -3.52643 7.99692e-15)
(24.1751 -3.57057 -8.31408e-15)
(24.1656 -3.61341 -8.62812e-15)
(24.1585 -3.65482 -1.58852e-21)
(24.1535 -3.69562 9.23876e-15)
(24.1501 -3.73596 0)
(24.1485 -3.77456 0)
(24.1486 -3.81124 -1.00813e-14)
(24.1501 -3.84607 1.88722e-20)
(24.1525 -3.87907 2.19691e-20)
(24.1559 -3.91022 1.07924e-14)
(24.1598 -3.93954 0)
(24.1644 -3.96708 0)
(24.1693 -3.99289 0)
(24.1747 -4.01709 0)
(24.1805 -4.03965 0)
(24.1869 -4.06042 1.17243e-14)
(24.1937 -4.07963 -1.18154e-14)
(24.201 -4.09764 1.18862e-14)
(24.2086 -4.1145 -2.3865e-14)
(24.216 -4.13008 1.19466e-14)
(24.2216 -4.14398 0)
(24.2214 -4.15533 0)
(24.2086 -4.16258 0)
(24.1738 -4.16373 0)
(24.1065 -4.15677 -1.11777e-14)
(23.998 -4.1402 1.08298e-14)
(23.8435 -4.11355 0)
(23.6439 -4.07747 0)
(23.4045 -4.03359 -9.57395e-15)
(23.1341 -3.98408 9.13157e-15)
(22.8426 -3.93124 0)
(22.5401 -3.87721 0)
(22.2354 -3.82377 0)
(21.9356 -3.77232 0)
(21.6464 -3.72385 7.0849e-15)
(21.372 -3.67902 -6.72495e-15)
(21.115 -3.63821 -6.38194e-15)
(20.8772 -3.60158 6.05521e-15)
(20.6593 -3.56913 0)
(20.4613 -3.54074 5.44753e-15)
(20.283 -3.51621 -1.033e-14)
(20.1235 -3.49528 4.89554e-15)
(19.982 -3.47764 0)
(19.8571 -3.46343 -6.00263e-15)
(24.9223 -2.94751 0)
(24.6007 -2.90548 4.46028e-16)
(24.6696 -2.98101 -4.78847e-16)
(24.5201 -2.94086 0)
(24.5206 -3.02868 0)
(24.4026 -3.008 0)
(24.3884 -3.0911 0)
(24.3186 -3.10345 2.74359e-15)
(24.2917 -3.17214 3.13701e-20)
(24.2495 -3.20817 -3.04252e-15)
(24.2212 -3.26706 0)
(24.19 -3.31494 -3.3603e-15)
(24.1642 -3.3685 7.04999e-15)
(24.1402 -3.4181 -3.69297e-15)
(24.1193 -3.46914 -7.72676e-15)
(24.1011 -3.51871 -2.25384e-20)
(24.0863 -3.56773 -1.61764e-20)
(24.0744 -3.61548 8.76246e-15)
(24.0656 -3.66184 0)
(24.0593 -3.7074 0)
(24.0548 -3.75266 -9.77832e-15)
(24.0524 -3.79646 1.0103e-14)
(24.0519 -3.83825 1.04173e-14)
(24.0531 -3.87806 -1.07192e-14)
(24.0555 -3.91592 -1.1007e-14)
(24.059 -3.95181 2.95e-20)
(24.0633 -3.98571 2.30703e-14)
(24.0684 -4.01766 -1.17739e-14)
(24.0741 -4.04772 0)
(24.0804 -4.07597 0)
(24.0874 -4.10233 -1.23865e-14)
(24.0951 -4.12668 1.2557e-14)
(24.1035 -4.14933 1.27097e-14)
(24.1126 -4.17065 -1.2842e-14)
(24.1222 -4.19062 0)
(24.1313 -4.20901 1.30137e-14)
(24.1368 -4.22503 -1.30251e-14)
(24.1317 -4.23699 -1.29631e-14)
(24.104 -4.24212 1.28131e-14)
(24.0385 -4.23721 0)
(23.9202 -4.21952 0)
(23.7397 -4.1878 0)
(23.4962 -4.14274 1.14004e-14)
(23.1972 -4.08677 -2.39553e-20)
(22.8558 -4.02326 -2.11754e-20)
(22.4875 -3.95582 -1.86194e-20)
(22.1072 -3.8877 -1.90361e-14)
(21.728 -3.82156 1.81455e-14)
(21.3602 -3.75931 -1.24829e-20)
(21.0115 -3.70226 -1.64763e-14)
(20.6871 -3.65115 7.84892e-15)
(20.3901 -3.60632 0)
(20.1222 -3.56779 0)
(19.8837 -3.53538 6.78331e-15)
(19.674 -3.50872 -5.81002e-21)
(19.4919 -3.48749 -6.14625e-15)
(19.3359 -3.47124 5.84669e-15)
(19.2038 -3.45914 -4.44987e-21)
(19.0936 -3.451 -3.8632e-21)
(19.0033 -3.44634 -6.70513e-15)
(24.9361 -2.9066 0)
(24.5856 -2.85938 0)
(24.6593 -2.941 0)
(24.4973 -2.8955 0)
(24.4952 -2.98876 0)
(24.3694 -2.96546 -1.19552e-15)
(24.3484 -3.05244 1.27894e-15)
(24.272 -3.06435 -2.71427e-15)
(24.2404 -3.1367 5.72823e-15)
(24.1918 -3.17396 -3.0221e-15)
(24.1588 -3.23683 -3.18426e-15)
(24.122 -3.28719 3.35241e-15)
(24.0915 -3.34544 0)
(24.0627 -3.39923 -3.70213e-15)
(24.0379 -3.45466 3.88287e-15)
(24.016 -3.50885 -4.06678e-15)
(23.998 -3.56286 -1.07635e-20)
(23.9835 -3.6156 4.44048e-15)
(23.9723 -3.66731 0)
(23.9643 -3.71781 4.81604e-15)
(23.9584 -3.76793 -5.00207e-15)
(23.9547 -3.81715 0)
(23.9533 -3.86441 1.07305e-14)
(23.9538 -3.90957 -1.10806e-14)
(23.9558 -3.95268 1.14194e-14)
(23.9592 -3.9937 -1.17454e-14)
(23.9636 -4.03262 -1.20572e-14)
(23.969 -4.06944 1.23544e-14)
(23.9752 -4.10421 0)
(23.9823 -4.13699 0)
(23.9903 -4.16778 1.31558e-14)
(23.9993 -4.19635 -1.33935e-14)
(24.0093 -4.22294 0)
(24.0202 -4.24806 0)
(24.0319 -4.27167 -1.39909e-14)
(24.0426 -4.29331 2.82366e-14)
(24.0472 -4.31158 -5.19518e-20)
(24.0338 -4.32355 -1.41369e-14)
(23.9832 -4.3247 0)
(23.8726 -4.31037 0)
(23.6838 -4.27752 -1.33442e-14)
(23.4103 -4.22609 3.83451e-20)
(23.0596 -4.15906 1.24176e-14)
(22.6493 -4.08131 0)
(22.2019 -3.99824 0)
(21.7394 -3.91478 0)
(21.2808 -3.83482 0)
(20.8409 -3.7611 0)
(20.4302 -3.69538 0)
(20.0556 -3.63855 9.16018e-15)
(19.7209 -3.5909 -8.76666e-15)
(19.4277 -3.55225 -8.38912e-15)
(19.1758 -3.52211 1.60512e-14)
(18.9637 -3.50013 -7.67457e-15)
(18.7887 -3.48511 0)
(18.6483 -3.47622 -7.00546e-15)
(18.54 -3.4732 6.68558e-15)
(18.46 -3.47526 0)
(18.4047 -3.48125 0)
(18.3711 -3.4908 0)
(24.9496 -2.86661 0)
(24.5717 -2.81436 -4.38872e-16)
(24.6501 -2.9017 9.40767e-16)
(24.4765 -2.85083 -1.52726e-15)
(24.4718 -2.94895 1.09494e-15)
(24.3384 -2.92337 -1.18359e-15)
(24.3112 -3.01394 -2.07716e-20)
(24.2284 -3.02512 1.34323e-15)
(24.1921 -3.10067 1.41984e-15)
(24.1371 -3.13888 -1.50095e-15)
(24.0994 -3.20537 0)
(24.0569 -3.25795 0)
(24.0216 -3.32058 0)
(23.9874 -3.37832 0)
(23.9585 -3.43812 0)
(23.9324 -3.49677 0)
(23.9109 -3.55577 0)
(23.8931 -3.61357 0)
(23.8792 -3.67065 0)
(23.8689 -3.72629 -4.8997e-15)
(23.8614 -3.78138 5.10429e-15)
(23.8561 -3.83599 0)
(23.8532 -3.88891 0)
(23.8526 -3.93969 0)
(23.8538 -3.98832 5.90343e-15)
(23.8567 -4.0348 -6.09349e-15)
(23.8608 -4.07907 6.27807e-15)
(23.8662 -4.12112 -6.45683e-15)
(23.8728 -4.16098 -6.62954e-15)
(23.8804 -4.19871 6.79637e-15)
(23.8891 -4.23441 6.95743e-15)
(23.8991 -4.26775 -3.06893e-20)
(23.9105 -4.2988 -7.26187e-15)
(23.9233 -4.32816 0)
(23.9369 -4.35586 0)
(23.9491 -4.38116 0)
(23.9517 -4.40176 -7.68033e-15)
(23.926 -4.41289 7.67395e-15)
(23.843 -4.40776 0)
(23.6718 -4.38025 0)
(23.3935 -4.32784 0)
(23.0096 -4.25299 0)
(22.5401 -4.16194 0)
(22.0152 -4.06246 0)
(21.4665 -3.96188 0)
(20.9216 -3.86604 0)
(20.4018 -3.77905 -1.15309e-14)
(19.9223 -3.7034 1.10876e-14)
(19.4926 -3.6403 0)
(19.1179 -3.59008 1.02587e-14)
(18.7999 -3.55227 -9.86752e-15)
(18.5379 -3.52641 9.48797e-15)
(18.3291 -3.511 -1.82354e-14)
(18.1704 -3.50478 1.75093e-14)
(18.0573 -3.50743 -1.67946e-14)
(17.9843 -3.51682 8.04474e-15)
(17.9465 -3.53194 0)
(17.9393 -3.55188 -7.35274e-15)
(17.9581 -3.57567 7.10628e-21)
(17.9975 -3.60245 8.51955e-15)
(24.9626 -2.82804 0)
(24.559 -2.77094 -2.17643e-16)
(24.6419 -2.86362 2.33098e-16)
(24.4575 -2.80751 0)
(24.4502 -2.91013 -1.08451e-15)
(24.309 -2.8823 -2.29305e-20)
(24.2769 -2.97572 1.25222e-15)
(24.1881 -2.9862 0)
(24.147 -3.06454 1.40794e-15)
(24.0857 -3.10342 2.05159e-20)
(24.0433 -3.17319 -3.153e-15)
(23.9949 -3.2277 1.66617e-15)
(23.9549 -3.2942 0)
(23.915 -3.35557 0)
(23.8815 -3.41975 -3.90881e-15)
(23.8511 -3.48256 4.113e-15)
(23.8256 -3.54644 -4.32227e-15)
(23.8042 -3.60919 9.07195e-15)
(23.7871 -3.67153 -4.75335e-15)
(23.7739 -3.73259 4.97356e-15)
(23.7643 -3.79276 -1.16549e-22)
(23.7571 -3.85245 -3.79721e-21)
(23.7524 -3.9111 -1.12836e-14)
(23.7502 -3.96767 5.86374e-15)
(23.7502 -4.02202 6.0836e-15)
(23.7521 -4.07417 -6.3006e-15)
(23.7557 -4.12404 0)
(23.7607 -4.17162 6.72348e-15)
(23.7672 -4.21689 -6.92892e-15)
(23.775 -4.25992 7.13037e-15)
(23.7842 -4.30075 -7.32825e-15)
(23.7949 -4.33933 0)
(23.8075 -4.37551 0)
(23.8219 -4.40957 7.8955e-15)
(23.8375 -4.44178 -1.61268e-14)
(23.8511 -4.47115 8.20089e-15)
(23.8505 -4.49415 0)
(23.8081 -4.5035 -8.29371e-15)
(23.6827 -4.48958 3.804e-20)
(23.4358 -4.44509 8.05737e-15)
(23.0518 -4.36931 0)
(22.5454 -4.26851 0)
(21.9527 -4.15297 0)
(21.3168 -4.03339 0)
(20.6775 -3.91866 6.84137e-15)
(20.0664 -3.81511 -6.60834e-15)
(19.5056 -3.72661 -6.38734e-15)
(19.0094 -3.65501 6.17711e-15)
(18.5855 -3.60089 0)
(18.2365 -3.56401 0)
(17.9616 -3.54248 -5.58897e-15)
(17.7573 -3.5351 1.07994e-14)
(17.6183 -3.5406 -7.19754e-21)
(17.5375 -3.55651 -1.00417e-14)
(17.5086 -3.58132 4.82916e-15)
(17.5241 -3.61333 0)
(17.5759 -3.65073 4.4426e-15)
(17.6565 -3.69172 -5.18084e-21)
(17.7583 -3.73496 -8.12582e-15)
(17.8772 -3.77978 9.64517e-15)
(24.975 -2.79125 0)
(24.5473 -2.72951 2.15829e-16)
(24.6345 -2.82714 2.31014e-16)
(24.4403 -2.76596 -4.99866e-16)
(24.4303 -2.87274 0)
(24.2821 -2.84263 0)
(24.2455 -2.93819 0)
(24.1508 -2.94798 -1.31708e-15)
(24.1051 -3.02874 1.39618e-15)
(24.0377 -3.068 1.48066e-15)
(23.9906 -3.14071 -1.56807e-15)
(23.9363 -3.19683 0)
(23.8915 -3.26672 0)
(23.8461 -3.33127 0)
(23.8076 -3.39974 -1.95773e-15)
(23.7726 -3.46642 2.06413e-15)
(23.7428 -3.5349 -2.17372e-15)
(23.7174 -3.60243 -2.28628e-15)
(23.6967 -3.66991 4.80284e-15)
(23.6802 -3.73632 5.03769e-15)
(23.6678 -3.80169 -5.27619e-15)
(23.6585 -3.86636 0)
(23.6516 -3.93051 0)
(23.6474 -3.99293 -6.005e-15)
(23.6458 -4.0531 6.24923e-15)
(23.6463 -4.11101 6.49266e-15)
(23.6488 -4.16664 -6.73474e-15)
(23.6531 -4.21991 0)
(23.6591 -4.27081 0)
(23.6668 -4.31935 -7.45058e-15)
(23.6762 -4.36561 3.77645e-20)
(23.6873 -4.40967 7.92167e-15)
(23.7005 -4.45139 -8.15522e-15)
(23.7162 -4.49071 8.38401e-15)
(23.7337 -4.52784 -8.59857e-15)
(23.7485 -4.56165 4.73166e-20)
(23.7438 -4.58714 8.89716e-15)
(23.6805 -4.59376 8.92322e-15)
(23.5032 -4.56854 -4.58184e-20)
(23.167 -4.5036 -8.6859e-15)
(22.665 -4.40142 0)
(22.0295 -4.27334 -8.22626e-15)
(21.3146 -4.13406 7.97983e-15)
(20.5758 -3.99703 0)
(19.8596 -3.87224 0)
(19.1998 -3.76606 0)
(18.6185 -3.68171 7.10379e-15)
(18.128 -3.62029 -6.91317e-15)
(17.7331 -3.5822 6.72818e-15)
(17.4346 -3.56331 -6.54517e-15)
(17.2276 -3.56522 0)
(17.1043 -3.5827 -6.17144e-15)
(17.0569 -3.61414 5.97537e-15)
(17.0757 -3.65702 -5.77183e-15)
(17.1484 -3.70825 5.56323e-15)
(17.2636 -3.76528 -5.35279e-15)
(17.4114 -3.82605 1.02861e-14)
(17.5832 -3.88887 -9.87149e-15)
(17.7717 -3.9522 9.46413e-15)
(17.9706 -4.0152 -5.49219e-15)
(24.9867 -2.75646 0)
(24.5368 -2.6903 2.13981e-16)
(24.6279 -2.79252 -2.28888e-16)
(24.4249 -2.72646 4.95237e-16)
(24.4121 -2.83694 -5.3186e-16)
(24.2578 -2.8046 0)
(24.2169 -2.90179 0)
(24.1165 -2.9108 6.52218e-16)
(24.0664 -2.99365 -6.92238e-16)
(23.9931 -3.03303 0)
(23.9413 -3.10832 0)
(23.8814 -3.1657 -1.653e-15)
(23.8317 -3.23866 1.75064e-15)
(23.7809 -3.30581 0)
(23.7371 -3.37825 0)
(23.6973 -3.44863 -2.06922e-15)
(23.663 -3.52137 -1.33269e-20)
(23.6333 -3.59341 4.60183e-15)
(23.6086 -3.6658 -2.42195e-15)
(23.5885 -3.73729 0)
(23.5727 -3.80806 2.67292e-15)
(23.5609 -3.87769 -2.8021e-15)
(23.5517 -3.94688 0)
(23.5451 -4.01502 3.06595e-15)
(23.5414 -4.08102 -7.50593e-21)
(23.5401 -4.14473 -3.33432e-15)
(23.5412 -4.20613 0)
(23.5443 -4.26516 0)
(23.5494 -4.32179 0)
(23.5566 -4.37599 0)
(23.5657 -4.42784 -8.02883e-15)
(23.5769 -4.47738 1.6612e-14)
(23.5904 -4.52481 -8.58488e-15)
(23.6068 -4.56994 -8.86192e-15)
(23.6258 -4.61251 9.1267e-15)
(23.6418 -4.65112 0)
(23.6322 -4.67917 9.5099e-15)
(23.5443 -4.68221 -5.55194e-20)
(23.3068 -4.6434 -9.49047e-15)
(22.8707 -4.55502 0)
(22.2423 -4.42426 9.1244e-15)
(21.4754 -4.26849 -8.89827e-15)
(20.6425 -4.10702 0)
(19.8108 -3.95569 0)
(19.0317 -3.82517 0)
(18.3403 -3.72143 0)
(17.7573 -3.64695 -7.9246e-15)
(17.2926 -3.60222 7.7628e-15)
(16.9491 -3.58423 -7.60146e-15)
(16.7222 -3.59234 7.4349e-15)
(16.6029 -3.62178 -7.25763e-15)
(16.5818 -3.66979 7.06602e-15)
(16.6445 -3.73223 0)
(16.7737 -3.80485 0)
(16.9545 -3.88432 0)
(17.1735 -3.9677 0)
(17.4191 -4.05259 0)
(17.6811 -4.13709 0)
(17.9512 -4.21967 0)
(18.2228 -4.29944 0)
(24.9978 -2.72382 0)
(24.5272 -2.65344 1.06044e-16)
(24.6221 -2.75994 -1.1337e-16)
(24.4109 -2.68922 0)
(24.3956 -2.80288 0)
(24.2359 -2.76835 0)
(24.1907 -2.86684 0)
(24.0852 -2.87494 0)
(24.0307 -2.95958 0)
(23.9519 -2.99885 0)
(23.8956 -3.07637 7.74804e-16)
(23.8301 -3.13469 -8.22519e-16)
(23.7756 -3.21038 1.74466e-15)
(23.7194 -3.27955 -3.69843e-15)
(23.6705 -3.3556 -2.02785e-20)
(23.6256 -3.42949 2.07176e-15)
(23.5868 -3.50608 2.18971e-15)
(23.5524 -3.58229 1.31834e-20)
(23.5236 -3.65931 -4.87662e-15)
(23.4995 -3.73565 -7.60687e-21)
(23.4801 -3.8116 2.70232e-15)
(23.465 -3.88626 0)
(23.4533 -3.96032 -2.97942e-15)
(23.4442 -4.03375 3.5633e-21)
(23.4379 -4.10546 6.54317e-21)
(23.4345 -4.17488 3.41381e-15)
(23.4337 -4.24199 -3.56241e-15)
(23.4352 -4.30674 1.48645e-20)
(23.4391 -4.36907 3.86487e-15)
(23.4452 -4.42894 0)
(23.4537 -4.48641 0)
(23.4645 -4.54154 0)
(23.4781 -4.59447 -4.49846e-15)
(23.4948 -4.64543 4.66206e-15)
(23.5147 -4.69405 4.82079e-15)
(23.5316 -4.73798 -4.96053e-15)
(23.5166 -4.76873 0)
(23.4016 -4.76746 5.09593e-15)
(23.0975 -4.71308 -5.07004e-15)
(22.5536 -4.59883 -4.99859e-15)
(21.7938 -4.43799 2.52898e-20)
(20.896 -4.25473 4.80739e-15)
(19.951 -4.07292 4.71499e-15)
(19.036 -3.91044 -9.2634e-15)
(18.2067 -3.77833 4.55773e-15)
(17.4984 -3.68191 0)
(16.93 -3.62281 0)
(16.5092 -3.59897 0)
(16.2341 -3.60923 0)
(16.096 -3.64816 0)
(16.0841 -3.71184 -4.14505e-15)
(16.1792 -3.79439 9.63072e-21)
(16.3588 -3.89028 3.94596e-15)
(16.603 -3.99476 0)
(16.8938 -4.10367 0)
(17.215 -4.21368 0)
(17.5531 -4.32216 3.50926e-15)
(17.8968 -4.4271 -3.3997e-15)
(18.2374 -4.52703 0)
(18.568 -4.62122 3.65858e-15)
(25.0081 -2.69336 -4.82209e-17)
(24.5186 -2.61899 5.25324e-17)
(24.617 -2.72949 0)
(24.3985 -2.65436 -2.42857e-16)
(24.3803 -2.7707 2.60651e-16)
(24.2162 -2.73398 0)
(24.167 -2.83353 0)
(24.0566 -2.84061 -6.39634e-16)
(23.998 -2.92678 6.80301e-16)
(23.914 -2.96572 7.24075e-16)
(23.8534 -3.04515 -7.69663e-16)
(23.7825 -3.10412 8.18069e-16)
(23.7233 -3.18216 -1.73733e-15)
(23.6618 -3.25299 9.21953e-16)
(23.6081 -3.33223 -9.77654e-16)
(23.5578 -3.40921 -1.03592e-15)
(23.5144 -3.48935 2.19316e-15)
(23.4753 -3.56936 -2.31951e-15)
(23.4421 -3.65069 2.45055e-15)
(23.4138 -3.73154 0)
(23.3905 -3.81233 2.72634e-15)
(23.3717 -3.8921 -2.87062e-15)
(23.3571 -3.97098 -3.01881e-15)
(23.3453 -4.04913 3.1707e-15)
(23.3363 -4.12623 3.326e-15)
(23.3304 -4.20123 -6.96898e-15)
(23.3273 -4.2739 3.64605e-15)
(23.3269 -4.34421 -3.81069e-15)
(23.3291 -4.4121 3.9787e-15)
(23.3338 -4.47753 0)
(23.3412 -4.54053 0)
(23.3512 -4.60115 -4.50769e-15)
(23.3642 -4.65959 2.70105e-20)
(23.381 -4.71602 4.88273e-15)
(23.4016 -4.77059 -5.06875e-15)
(23.419 -4.8204 5.23567e-15)
(23.3983 -4.8543 5.35685e-15)
(23.2546 -4.8484 -5.41009e-15)
(22.8797 -4.77684 0)
(22.2231 -4.63482 5.33774e-15)
(21.3295 -4.44282 -1.05245e-14)
(20.3023 -4.2324 5.18756e-15)
(19.2505 -4.03181 0)
(18.2608 -3.86075 -5.06849e-15)
(17.3918 -3.73063 5.02546e-15)
(16.6787 -3.64612 0)
(16.1385 -3.60721 4.95743e-15)
(15.7749 -3.6114 -4.92194e-15)
(15.5823 -3.65414 -4.87656e-15)
(15.5499 -3.73045 4.81538e-15)
(15.6561 -3.83233 -4.73781e-15)
(15.8723 -3.95226 9.297e-15)
(16.1721 -4.08388 -1.29884e-20)
(16.5313 -4.22135 -4.45275e-15)
(16.928 -4.35992 0)
(17.3438 -4.49587 0)
(17.7632 -4.62643 -4.14428e-15)
(18.1745 -4.74965 4.03807e-15)
(18.5687 -4.8642 0)
(18.9397 -4.96979 0)
(25.0178 -2.6651 -4.77366e-17)
(24.5109 -2.58694 5.20268e-17)
(24.6124 -2.70115 -1.11147e-16)
(24.3876 -2.62188 1.20188e-16)
(24.3665 -2.74048 2.57938e-16)
(24.1986 -2.70156 -2.7791e-16)
(24.1454 -2.80199 0)
(24.0307 -2.80797 0)
(23.9681 -2.89543 -6.74104e-16)
(23.8793 -2.93387 -1.47105e-20)
(23.8145 -3.01491 7.64132e-16)
(23.7385 -3.07425 -8.13069e-16)
(23.6748 -3.15431 1.72864e-15)
(23.6081 -3.2265 -9.18447e-16)
(23.5498 -3.30844 0)
(23.4941 -3.38811 0)
(23.446 -3.47154 0)
(23.4022 -3.55493 0)
(23.3646 -3.64023 0)
(23.3319 -3.72524 -1.29964e-15)
(23.3046 -3.81058 2.74502e-15)
(23.2819 -3.89512 2.93835e-21)
(23.2637 -3.97879 -1.52573e-15)
(23.2492 -4.06148 3.21184e-15)
(23.2374 -4.14344 -3.66574e-21)
(23.2286 -4.22373 -3.54614e-15)
(23.223 -4.30174 0)
(23.2203 -4.37736 3.89819e-15)
(23.2205 -4.45057 -8.1628e-15)
(23.2235 -4.52132 4.2701e-15)
(23.2294 -4.58963 0)
(23.2381 -4.65553 0)
(23.2502 -4.71928 4.87616e-15)
(23.2665 -4.78105 -5.09073e-15)
(23.2875 -4.84122 0)
(23.3057 -4.89652 0)
(23.2792 -4.934 0)
(23.1061 -4.92386 0)
(22.6585 -4.83404 5.72036e-15)
(21.8862 -4.66254 -1.13631e-14)
(20.8576 -4.43809 1.12632e-14)
(19.7031 -4.20021 -1.11764e-14)
(18.5493 -3.9823 1.11169e-14)
(17.4911 -3.80577 -5.54326e-15)
(16.5899 -3.68156 0)
(15.8806 -3.61285 0)
(15.3781 -3.59982 0)
(15.0824 -3.63595 0)
(14.9855 -3.71734 0)
(15.0679 -3.83536 0)
(15.2956 -3.97858 5.42063e-15)
(15.635 -4.13854 -1.06964e-14)
(16.0539 -4.30741 1.05404e-14)
(16.5231 -4.47841 -5.18919e-15)
(17.017 -4.64616 0)
(17.5147 -4.80666 -5.01841e-15)
(17.9996 -4.95714 4.92603e-15)
(18.4597 -5.09588 0)
(18.8873 -5.22197 4.71775e-15)
(19.2777 -5.33584 -5.03124e-15)
(25.0267 -2.63902 -4.72373e-17)
(24.504 -2.55724 1.54505e-16)
(24.6083 -2.67488 -2.19957e-16)
(24.378 -2.5917 1.1891e-16)
(24.354 -2.7122 0)
(24.183 -2.67114 0)
(24.1259 -2.77231 -2.93444e-16)
(24.0072 -2.77713 6.26651e-16)
(23.9409 -2.86567 7.84583e-21)
(23.8476 -2.90346 -3.55937e-16)
(23.7788 -2.98583 -7.58166e-16)
(23.698 -3.04532 8.07475e-16)
(23.63 -3.12709 0)
(23.5583 -3.20036 0)
(23.4955 -3.28454 0)
(23.4347 -3.3665 1.03215e-15)
(23.3819 -3.45298 1.16429e-20)
(23.3334 -3.53935 -1.16201e-15)
(23.2912 -3.62825 -1.23143e-15)
(23.2541 -3.71706 1.30383e-15)
(23.2226 -3.8066 0)
(23.196 -3.89553 -1.4575e-15)
(23.174 -3.9839 1.53869e-15)
(23.1563 -4.07103 0)
(23.1417 -4.15736 0)
(23.13 -4.24249 0)
(23.1216 -4.32555 0)
(23.1165 -4.40618 1.98743e-15)
(23.1144 -4.48439 -4.17247e-15)
(23.1154 -4.56013 9.481e-21)
(23.1193 -4.63341 4.59039e-15)
(23.1264 -4.70425 -2.40634e-15)
(23.137 -4.77296 0)
(23.1524 -4.83972 -2.64207e-15)
(23.1734 -4.90531 2.76285e-15)
(23.1922 -4.96562 -2.875e-15)
(23.1605 -5.00641 2.96145e-15)
(22.9592 -4.99221 0)
(22.4388 -4.88346 -3.02003e-15)
(21.5496 -4.68072 1.70332e-20)
(20.3858 -4.42284 3.00521e-15)
(19.1054 -4.15839 0)
(17.8526 -3.92503 0)
(16.73 -3.74532 -3.02743e-15)
(15.8014 -3.62989 7.64735e-21)
(15.1014 -3.58073 9.23566e-15)
(14.6427 -3.59683 -1.24199e-14)
(14.4229 -3.67062 6.24739e-15)
(14.4298 -3.79552 0)
(14.6289 -3.95794 6.24178e-15)
(14.9795 -4.14589 -6.2092e-15)
(15.4407 -4.34807 0)
(15.9738 -4.55529 0)
(16.5442 -4.75986 0)
(17.1225 -4.95579 0)
(17.6857 -5.13898 0)
(18.2166 -5.30688 0)
(18.7047 -5.4583 0)
(19.1444 -5.59309 0)
(19.5345 -5.71278 0)
(25.035 -2.61517 0)
(24.4978 -2.5298 0)
(24.6046 -2.65061 1.08769e-16)