/*--------------------------------*- C++ -*----------------------------------*\
  =========                 |
  \\      /  F ield         | OpenFOAM: The Open Source CFD Toolbox
   \\    /   O peration     | Website:  https://openfoam.org
    \\  /    A nd           | Version:  9
     \\/     M anipulation  |
\*---------------------------------------------------------------------------*/
FoamFile
{
    format      ascii;
    class       volScalarField;
    location    "0.01";
    object      alphat;
}
// * * * * * * * * * * * * * * * * * * * * * * * * * * * * * * * * * * * * * //

dimensions      [1 -1 -1 0 0 0 0];

internalField   nonuniform List<scalar> 
6098
(
0.0144382
0.0145473
0.0146478
0.0147405
0.014826
0.0149047
0.0149772
0.0150442
0.0151062
0.0151637
0.0152172
0.0152669
0.0153132
0.0153565
0.0153969
0.0154347
0.0154702
0.0155035
0.0155347
0.0155641
0.0155918
0.0156179
0.0156426
0.0156659
0.0156881
0.0157091
0.0157293
0.0157487
0.0157672
0.0142749
0.014387
0.0144906
0.0145867
0.0146757
0.0147582
0.0148348
0.0149058
0.0149719
0.0150334
0.0150908
0.0151444
0.0151945
0.0152415
0.0152855
0.0153269
0.0153658
0.0154025
0.0154371
0.0154697
0.0155005
0.0155297
0.0155573
0.0155835
0.0156084
0.015632
0.0156544
0.0156757
0.015696
0.0140963
0.0142097
0.0143163
0.0144162
0.0145094
0.0145962
0.014677
0.0147523
0.0148225
0.0148882
0.0149496
0.0150071
0.015061
0.0151117
0.0151593
0.0152041
0.0152464
0.0152863
0.015324
0.0153596
0.0153934
0.0154254
0.0154558
0.0154846
0.0155121
0.0155382
0.0155631
0.0155868
0.0156094
0.0139165
0.0140328
0.0141426
0.014246
0.0143429
0.0144337
0.0145185
0.0145979
0.0146722
0.0147419
0.0148072
0.0148686
0.0149263
0.0149806
0.0150318
0.0150801
0.0151257
0.0151689
0.0152097
0.0152483
0.015285
0.0153198
0.0153529
0.0153843
0.0154142
0.0154427
0.0154699
0.0154958
0.0155206
0.0137298
0.0138483
0.0139603
0.0140665
0.0141668
0.0142611
0.0143498
0.0144331
0.0145113
0.0145848
0.0146541
0.0147193
0.0147807
0.0148387
0.0148935
0.0149453
0.0149944
0.0150408
0.0150848
0.0151267
0.0151664
0.0152041
0.01524
0.0152742
0.0153068
0.0153379
0.0153675
0.0153959
0.0154229
0.0135353
0.0136556
0.0137694
0.0138778
0.0139809
0.0140785
0.0141706
0.0142575
0.0143395
0.0144168
0.0144897
0.0145587
0.0146238
0.0146855
0.0147439
0.0147992
0.0148516
0.0149014
0.0149488
0.0149938
0.0150366
0.0150773
0.0151162
0.0151532
0.0151886
0.0152224
0.0152547
0.0152855
0.0153151
0.0133323
0.013454
0.0135694
0.0136795
0.0137849
0.0138853
0.0139805
0.0140708
0.0141562
0.0142371
0.0143136
0.0143862
0.014455
0.0145202
0.0145821
0.014641
0.0146969
0.0147501
0.0148007
0.0148489
0.0148949
0.0149387
0.0149806
0.0150206
0.0150588
0.0150954
0.0151304
0.0151639
0.015196
0.0131212
0.0132438
0.0133604
0.0134718
0.0135788
0.0136815
0.0137794
0.0138727
0.0139613
0.0140455
0.0141254
0.0142014
0.0142737
0.0143424
0.0144078
0.0144701
0.0145295
0.014586
0.01464
0.0146914
0.0147406
0.0147876
0.0148325
0.0148755
0.0149166
0.0149561
0.0149938
0.0150301
0.0150648
0.0129018
0.0130248
0.0131421
0.0132545
0.0133627
0.013467
0.0135672
0.013663
0.0137545
0.0138417
0.0139248
0.0140041
0.0140796
0.0141517
0.0142204
0.0142861
0.0143488
0.0144087
0.0144659
0.0145207
0.014573
0.0146232
0.0146712
0.0147172
0.0147613
0.0148036
0.0148443
0.0148833
0.0149208
0.0126742
0.012797
0.0129147
0.0130277
0.0131366
0.013242
0.0133439
0.0134418
0.0135357
0.0136256
0.0137116
0.0137938
0.0138724
0.0139476
0.0140195
0.0140884
0.0141543
0.0142174
0.0142779
0.0143358
0.0143914
0.0144447
0.0144958
0.0145448
0.0145919
0.0146372
0.0146807
0.0147226
0.0147629
0.0124386
0.0125607
0.0126782
0.0127914
0.0129006
0.0130066
0.0131095
0.0132091
0.013305
0.0133971
0.0134856
0.0135704
0.0136518
0.0137299
0.0138048
0.0138766
0.0139456
0.0140118
0.0140753
0.0141364
0.0141951
0.0142514
0.0143056
0.0143576
0.0144077
0.0144559
0.0145024
0.0145471
0.0145902
0.0123161
0.0124329
0.0125458
0.012655
0.0127611
0.0128645
0.0129651
0.0130624
0.0131564
0.0132469
0.013334
0.0134178
0.0134984
0.013576
0.0136506
0.0137224
0.0137914
0.0138579
0.0139219
0.0139834
0.0140428
0.0140999
0.0141549
0.0142079
0.0142591
0.0143084
0.0143559
0.0144018
0.0120636
0.0121792
0.0122913
0.0124
0.0125058
0.0126091
0.0127101
0.0128084
0.0129036
0.0129957
0.0130847
0.0131705
0.0132533
0.0133332
0.0134102
0.0134845
0.0135561
0.0136252
0.0136919
0.0137562
0.0138183
0.0138782
0.0139361
0.0139919
0.0140459
0.014098
0.0141483
0.0141969
0.0118037
0.0119176
0.0120283
0.0121361
0.0122412
0.012344
0.0124447
0.0125433
0.0126393
0.0127325
0.0128228
0.0129102
0.0129947
0.0130765
0.0131556
0.013232
0.0133059
0.0133774
0.0134465
0.0135132
0.0135778
0.0136403
0.0137007
0.0137592
0.0138158
0.0138705
0.0139235
0.0139747
0.011537
0.0116486
0.0117576
0.0118639
0.0119679
0.0120696
0.0121696
0.0122678
0.0123639
0.0124576
0.0125488
0.0126373
0.0127231
0.0128064
0.012887
0.0129652
0.013041
0.0131144
0.0131856
0.0132545
0.0133213
0.013386
0.0134487
0.0135096
0.0135685
0.0136256
0.013681
0.0137347
0.0112644
0.0113733
0.0114799
0.0115842
0.0116865
0.0117868
0.0118855
0.0119828
0.0120784
0.0121721
0.0122635
0.0123525
0.0124391
0.0125233
0.0126051
0.0126846
0.0127618
0.0128367
0.0129095
0.0129802
0.0130488
0.0131154
0.0131801
0.013243
0.013304
0.0133633
0.0134208
0.0134767
0.0109871
0.0110926
0.0111963
0.0112981
0.0113982
0.0114966
0.0115935
0.0116893
0.0117838
0.0118767
0.0119678
0.0120568
0.0121436
0.0122282
0.0123106
0.0123908
0.0124689
0.0125449
0.0126189
0.0126908
0.0127608
0.0128289
0.0128952
0.0129597
0.0130224
0.0130834
0.0131427
0.0132004
0.0108079
0.0109081
0.0110068
0.0111041
0.0112001
0.0112948
0.0113885
0.0114812
0.0115728
0.0116629
0.0117513
0.0118377
0.0119222
0.0120046
0.0120851
0.0121636
0.0122401
0.0123147
0.0123874
0.0124583
0.0125274
0.0125947
0.0126603
0.0127243
0.0127865
0.0128472
0.0129063
0.0105208
0.0106169
0.010712
0.010806
0.0108989
0.0109908
0.0110819
0.0111723
0.0112619
0.0113504
0.0114375
0.011523
0.0116067
0.0116886
0.0117687
0.0118469
0.0119234
0.0119981
0.012071
0.0121423
0.0122118
0.0122797
0.012346
0.0124106
0.0124737
0.0125353
0.0125953
0.0102332
0.0103247
0.0104156
0.0105056
0.0105949
0.0106834
0.0107714
0.0108589
0.0109458
0.0110321
0.0111172
0.011201
0.0112834
0.0113641
0.0114432
0.0115207
0.0115965
0.0116707
0.0117433
0.0118143
0.0118837
0.0119516
0.0120179
0.0120828
0.0121461
0.012208
0.0122685
0.00994711
0.0100336
0.0101197
0.0102052
0.0102903
0.0103748
0.010459
0.010543
0.0106266
0.0107099
0.0107925
0.010874
0.0109543
0.0110332
0.0111107
0.0111868
0.0112613
0.0113344
0.011406
0.0114761
0.0115448
0.0116121
0.0116779
0.0117423
0.0118053
0.011867
0.0119274
0.0097459
0.00982673
0.00990728
0.00998754
0.0100675
0.0101474
0.0102271
0.0103068
0.0103864
0.0104657
0.0105443
0.0106219
0.0106984
0.0107736
0.0108476
0.0109202
0.0109915
0.0110615
0.0111302
0.0111975
0.0112634
0.0113281
0.0113914
0.0114535
0.0115143
0.0115738
0.00946383
0.00953916
0.00961434
0.00968939
0.00976431
0.00983919
0.0099141
0.00998916
0.0100644
0.0101396
0.0102145
0.0102888
0.0103622
0.0104346
0.0105058
0.0105759
0.0106449
0.0107126
0.0107792
0.0108444
0.0109085
0.0109714
0.011033
0.0110934
0.0111527
0.0112108
0.00918951
0.0092592
0.00932884
0.0093984
0.00946792
0.00953744
0.00960705
0.00967685
0.00974695
0.00981736
0.00988784
0.00995804
0.0100277
0.0100965
0.0101645
0.0102314
0.0102974
0.0103622
0.010426
0.0104887
0.0105502
0.0106107
0.01067
0.0107282
0.0107854
0.0108414
0.00898871
0.00905281
0.00911685
0.00918085
0.00924483
0.00930886
0.00937303
0.00943748
0.0095023
0.00956752
0.00963288
0.00969807
0.00976279
0.00982684
0.00989009
0.00995247
0.0100139
0.0100744
0.0101339
0.0101923
0.0102498
0.0103061
0.0103615
0.0104158
0.0104691
0.00872895
0.00878772
0.00884639
0.00890499
0.0089635
0.00902198
0.00908048
0.0091391
0.00919796
0.00925719
0.00931684
0.00937674
0.0094366
0.00949613
0.0095551
0.00961341
0.00967096
0.00972765
0.00978344
0.00983829
0.0098922
0.00994513
0.0099971
0.0100481
0.0100982
0.00853431
0.00858799
0.00864149
0.00869484
0.00874803
0.00880111
0.00885413
0.00890716
0.00896031
0.00901372
0.00906749
0.00912158
0.00917578
0.00922986
0.00928357
0.00933671
0.00938916
0.00944084
0.00949168
0.00954165
0.00959072
0.00963888
0.00968611
0.00973244
0.00829257
0.00834176
0.00839067
0.00843931
0.00848767
0.00853578
0.00858367
0.00863136
0.00867892
0.00872643
0.00877399
0.00882172
0.00886971
0.00891802
0.00896639
0.00901456
0.00906231
0.00910947
0.00915594
0.00920164
0.00924652
0.00929055
0.0093337
0.00937599
0.00806162
0.00810699
0.00815195
0.00819649
0.00824062
0.00828436
0.00832771
0.00837069
0.00841333
0.00845567
0.00849776
0.00853967
0.00858149
0.00862344
0.00866564
0.00870803
0.00875042
0.00879257
0.00883427
0.00887539
0.00891582
0.00895549
0.00899435
0.0090324
0.00788212
0.00792387
0.00796505
0.00800568
0.00804575
0.00808528
0.00812428
0.00816276
0.00820075
0.00823826
0.00827532
0.00831199
0.0083484
0.00838467
0.00842088
0.00845715
0.00849349
0.00852979
0.00856585
0.00860149
0.00863656
0.00867095
0.00870461
0.00766472
0.00770409
0.00774273
0.00778064
0.00781785
0.00785435
0.00789016
0.00792529
0.00795976
0.00799357
0.00802675
0.00805931
0.00809135
0.00812293
0.0081541
0.00818494
0.00821552
0.00824594
0.00827626
0.00830646
0.00833646
0.00836607
0.00839519
0.00748949
0.0075264
0.00756243
0.00759758
0.00763187
0.00766531
0.00769791
0.00772968
0.00776064
0.0077908
0.00782017
0.00784884
0.00787683
0.00790418
0.00793093
0.00795712
0.00798282
0.00800806
0.00803293
0.00805747
0.00808172
0.00810574
0.00727644
0.00731241
0.00734733
0.00738121
0.00741407
0.00744592
0.00747678
0.00750665
0.00753556
0.00756352
0.00759053
0.00761665
0.00764194
0.00766641
0.0076901
0.00771303
0.00773524
0.00775676
0.00777765
0.00779793
0.00781763
0.00783683
0.00709673
0.00713123
0.00716453
0.00719666
0.00722762
0.00725743
0.00728611
0.00731367
0.00734016
0.0073656
0.00739001
0.00741341
0.00743584
0.00745729
0.0074778
0.00749741
0.00751615
0.00753409
0.00755123
0.00756756
0.00758333
0.00690997
0.00694325
0.00697519
0.00700581
0.00703512
0.00706318
0.00708998
0.00711557
0.00713998
0.00716325
0.00718536
0.00720636
0.00722628
0.00724511
0.00726302
0.00728014
0.00729641
0.00731178
0.00732622
0.00733979
0.00667954
0.0067132
0.00674537
0.00677605
0.00680531
0.00683316
0.0068596
0.00688469
0.00690845
0.00693091
0.00695206
0.00697215
0.00699128
0.00700934
0.00702632
0.00704221
0.00705706
0.00707082
0.0070835
0.00709517
0.0064705
0.00650313
0.00653415
0.00656359
0.00659148
0.00661781
0.00664263
0.00666598
0.00668826
0.00670933
0.00672913
0.00674761
0.00676478
0.00678067
0.0067953
0.00680868
0.00682084
0.00683175
0.00684154
0.00624499
0.00627631
0.00630592
0.00633381
0.0063601
0.00638521
0.00640891
0.00643114
0.00645187
0.00647105
0.00648871
0.00650488
0.00651959
0.00653284
0.0065447
0.00655522
0.0065643
0.00657209
0.00596864
0.00599997
0.00602945
0.00605769
0.00608443
0.00610951
0.00613289
0.00615455
0.00617447
0.00619267
0.00620918
0.006224
0.00623719
0.0062488
0.00625887
0.00626743
0.00627439
0.0062802
0.00570509
0.00573496
0.00576306
0.0057893
0.00581364
0.00583603
0.00585648
0.00587503
0.00589165
0.00590641
0.00591939
0.00593054
0.00593994
0.00594772
0.00595438
0.00596027
0.00596564
0.00542312
0.00545045
0.00547566
0.00549875
0.00551976
0.00553862
0.00555541
0.00557023
0.00558304
0.00559395
0.00560301
0.00561086
0.00561826
0.00562499
0.00563035
0.0056345
0.00509576
0.00512188
0.00514578
0.00516739
0.00518676
0.00520388
0.0052189
0.00523193
0.00524291
0.00525255
0.00526172
0.00526998
0.00527704
0.00528264
0.00528624
0.00528805
0.0047823
0.00480505
0.00482545
0.00484371
0.00485999
0.0048742
0.00488661
0.00489816
0.00490877
0.00491779
0.00492474
0.00492956
0.00493208
0.00493187
0.00492821
0.00446658
0.00448703
0.00450513
0.00452081
0.00453471
0.0045475
0.00455834
0.00456685
0.00457274
0.00457593
0.00457646
0.00457326
0.00456575
0.004555
0.00414036
0.00415877
0.00417441
0.00418851
0.00420096
0.00421108
0.00421848
0.00422302
0.00422451
0.00422257
0.00421609
0.00420582
0.00419164
0.00417418
0.0038341
0.00384826
0.00386025
0.00386958
0.00387592
0.00387918
0.00387918
0.00387468
0.00386594
0.00385336
0.00383701
0.00381646
0.00379255
0.00352804
0.00353673
0.00354233
0.00354466
0.00354359
0.00353752
0.00352732
0.00351314
0.0034952
0.00347317
0.00344675
0.00341683
0.00322005
0.00322188
0.00322003
0.00321335
0.00320257
0.00318773
0.00316894
0.00314616
0.0031191
0.00308745
0.00305227
0.00290961
0.00290303
0.00289245
0.00287784
0.00285922
0.00283652
0.00280962
0.00277829
0.00274228
0.00270268
0.00259689
0.00258332
0.00256583
0.00254426
0.00251852
0.00248861
0.0024541
0.00241512
0.0023724
0.00228843
0.00226907
0.00224565
0.00221826
0.00218662
0.00215052
0.00211033
0.00206607
0.00200979
0.0019897
0.00196589
0.00193818
0.00190633
0.00187047
0.00183063
0.00178653
0.00170797
0.00168172
0.00165166
0.00161788
0.00158018
0.0015378
0.00145534
0.00143113
0.00140376
0.00137175
0.00132648
0.00124903
0.00122397
0.00119477
0.00115986
0.000986336
0.0157821
0.0157825
0.0157828
0.0157831
0.0157834
0.0157837
0.015784
0.0157843
0.0157846
0.0157849
0.0157852
0.0157855
0.0157858
0.015786
0.0157863
0.0157121
0.0157125
0.0157129
0.0157132
0.0157136
0.0157139
0.0157142
0.0157146
0.0157149
0.0157152
0.0157155
0.0157159
0.0157162
0.0157165
0.0157168
0.0156272
0.0156276
0.015628
0.0156284
0.0156288
0.0156292
0.0156295
0.0156299
0.0156303
0.0156306
0.015631
0.0156314
0.0156317
0.0156321
0.0156324
0.0155399
0.0155403
0.0155408
0.0155412
0.0155416
0.0155421
0.0155425
0.0155429
0.0155433
0.0155437
0.0155441
0.0155445
0.0155449
0.0155453
0.0155457
0.0154437
0.0154442
0.0154447
0.0154452
0.0154457
0.0154462
0.0154466
0.0154471
0.0154476
0.015448
0.0154484
0.0154489
0.0154493
0.0154498
0.0154502
0.0153376
0.0153381
0.0153386
0.0153392
0.0153397
0.0153402
0.0153408
0.0153413
0.0153418
0.0153423
0.0153428
0.0153433
0.0153437
0.0153442
0.0153447
0.0152202
0.0152208
0.0152214
0.015222
0.0152226
0.0152231
0.0152237
0.0152243
0.0152248
0.0152254
0.0152259
0.0152265
0.015227
0.0152275
0.0152281
0.0150907
0.0150914
0.015092
0.0150927
0.0150933
0.015094
0.0150946
0.0150952
0.0150958
0.0150964
0.015097
0.0150976
0.0150982
0.0150988
0.0150994
0.0149484
0.0149491
0.0149498
0.0149505
0.0149512
0.0149519
0.0149526
0.0149533
0.014954
0.0149547
0.0149553
0.014956
0.0149566
0.0149573
0.014958
0.0147922
0.014793
0.0147938
0.0147946
0.0147954
0.0147961
0.0147969
0.0147976
0.0147984
0.0147991
0.0147999
0.0148006
0.0148013
0.014802
0.0148027
0.0146213
0.0146221
0.014623
0.0146238
0.0146247
0.0146255
0.0146263
0.0146272
0.014628
0.0146288
0.0146296
0.0146304
0.0146312
0.014632
0.0146328
0.0144345
0.0144355
0.0144364
0.0144373
0.0144383
0.0144392
0.0144401
0.014441
0.0144419
0.0144428
0.0144436
0.0144445
0.0144454
0.0144463
0.0144471
0.0142312
0.0142323
0.0142333
0.0142343
0.0142353
0.0142363
0.0142373
0.0142382
0.0142392
0.0142402
0.0142412
0.0142421
0.0142431
0.014244
0.0142449
0.0140105
0.0140116
0.0140127
0.0140138
0.0140149
0.014016
0.0140171
0.0140181
0.0140192
0.0140202
0.0140213
0.0140223
0.0140234
0.0140244
0.0140254
0.0137719
0.0137731
0.0137743
0.0137755
0.0137766
0.0137778
0.013779
0.0137801
0.0137813
0.0137824
0.0137836
0.0137847
0.0137858
0.0137869
0.013788
0.013515
0.0135163
0.0135176
0.0135189
0.0135201
0.0135214
0.0135227
0.0135239
0.0135251
0.0135264
0.0135276
0.0135288
0.01353
0.0135312
0.0135324
0.0132397
0.0132411
0.0132425
0.0132438
0.0132452
0.0132465
0.0132479
0.0132492
0.0132506
0.0132519
0.0132532
0.0132545
0.0132558
0.0132571
0.0132584
0.0129463
0.0129478
0.0129492
0.0129507
0.0129522
0.0129536
0.0129551
0.0129565
0.0129579
0.0129594
0.0129608
0.0129622
0.0129636
0.012965
0.0129664
0.0126356
0.0126372
0.0126388
0.0126403
0.0126419
0.0126434
0.012645
0.0126465
0.012648
0.0126495
0.0126511
0.0126526
0.012654
0.0126555
0.012657
0.0123088
0.0123105
0.0123121
0.0123138
0.0123155
0.0123171
0.0123187
0.0123204
0.012322
0.0123236
0.0123252
0.0123268
0.0123284
0.0123299
0.0123315
0.0119673
0.011969
0.0119708
0.0119725
0.0119743
0.011976
0.0119777
0.0119794
0.0119811
0.0119828
0.0119845
0.0119862
0.0119879
0.0119895
0.0119912
0.011613
0.0116148
0.0116167
0.0116185
0.0116203
0.0116221
0.0116239
0.0116257
0.0116275
0.0116293
0.011631
0.0116328
0.0116346
0.0116363
0.0116381
0.0112487
0.0112507
0.0112526
0.0112545
0.0112564
0.0112583
0.0112601
0.011262
0.0112638
0.0112657
0.0112675
0.0112694
0.0112712
0.011273
0.0112748
0.0108778
0.0108798
0.0108817
0.0108837
0.0108856
0.0108876
0.0108895
0.0108915
0.0108934
0.0108953
0.0108972
0.0108991
0.010901
0.0109028
0.0109047
0.0105036
0.0105056
0.0105077
0.0105097
0.0105117
0.0105137
0.0105156
0.0105176
0.0105196
0.0105215
0.0105235
0.0105254
0.0105274
0.0105293
0.0105312
0.0101303
0.0101324
0.0101344
0.0101365
0.0101385
0.0101405
0.0101426
0.0101446
0.0101466
0.0101486
0.0101505
0.0101525
0.0101545
0.0101565
0.0101584
0.00976209
0.00976416
0.00976623
0.00976829
0.00977034
0.00977238
0.00977441
0.00977644
0.00977845
0.00978046
0.00978246
0.00978445
0.00978644
0.00978842
0.0097904
0.00940293
0.00940499
0.00940706
0.00940912
0.00941117
0.00941321
0.00941524
0.00941726
0.00941928
0.00942129
0.00942329
0.00942528
0.00942727
0.00942925
0.00943123
0.00905652
0.00905857
0.00906062
0.00906266
0.0090647
0.00906672
0.00906874
0.00907075
0.00907275
0.00907474
0.00907673
0.00907871
0.00908068
0.00908265
0.00908462
0.0087259
0.00872791
0.00872993
0.00873194
0.00873394
0.00873594
0.00873792
0.0087399
0.00874188
0.00874384
0.0087458
0.00874775
0.0087497
0.00875164
0.00875359
0.00841362
0.00841558
0.00841755
0.00841951
0.00842147
0.00842342
0.00842536
0.0084273
0.00842923
0.00843115
0.00843307
0.00843498
0.00843688
0.00843879
0.00844069
0.00812111
0.00812299
0.00812488
0.00812677
0.00812865
0.00813052
0.00813239
0.00813425
0.00813611
0.00813797
0.00813981
0.00814166
0.0081435
0.00814533
0.00814717
0.00784902
0.00785078
0.00785257
0.00785435
0.00785613
0.0078579
0.00785967
0.00786143
0.00786319
0.00786494
0.00786669
0.00786844
0.00787018
0.00787192
0.00787367
0.0075932
0.00759488
0.00759659
0.00759831
0.00760001
0.00760172
0.00760341
0.00760511
0.0076068
0.00760849
0.00761017
0.00761185
0.00761353
0.00761521
0.00761689
0.00734814
0.00734972
0.00735134
0.00735298
0.00735461
0.00735625
0.00735788
0.00735952
0.00736115
0.00736279
0.00736443
0.00736607
0.00736771
0.00736935
0.00737101
0.0071023
0.00710381
0.00710541
0.00710701
0.00710863
0.00711025
0.00711187
0.00711351
0.00711515
0.0071168
0.00711845
0.00712011
0.00712178
0.00712345
0.00712514
0.00684746
0.00684893
0.0068505
0.0068521
0.00685372
0.00685535
0.006857
0.00685867
0.00686035
0.00686205
0.00686376
0.00686549
0.00686723
0.00686898
0.00687076
0.00657674
0.00657817
0.00657973
0.00658134
0.00658298
0.00658466
0.00658636
0.0065881
0.00658986
0.00659165
0.00659347
0.00659531
0.00659717
0.00659906
0.00660098
0.00628403
0.00628533
0.00628686
0.00628852
0.00629027
0.00629208
0.00629394
0.00629584
0.00629777
0.00629975
0.00630176
0.00630381
0.00630589
0.006308
0.00631016
0.00596922
0.00597052
0.00597212
0.00597391
0.00597582
0.00597786
0.00597997
0.00598214
0.00598436
0.00598662
0.00598893
0.00599129
0.00599368
0.00599612
0.00599861
0.00563716
0.00563824
0.00563973
0.00564149
0.00564345
0.00564559
0.0056479
0.00565033
0.00565282
0.00565538
0.00565801
0.00566069
0.00566342
0.00566621
0.00566907
0.00528876
0.00528924
0.0052903
0.00529177
0.00529355
0.00529563
0.00529798
0.00530054
0.0053033
0.00530616
0.0053091
0.00531212
0.00531521
0.00531839
0.00532164
0.00492348
0.0049233
0.00492385
0.004925
0.00492662
0.00492866
0.00493108
0.00493382
0.00493684
0.00494005
0.00494338
0.00494681
0.00495034
0.00495398
0.00495772
0.00454485
0.00454445
0.00454457
0.0045455
0.00454708
0.00454923
0.00455188
0.00455495
0.00455838
0.00456202
0.00456582
0.00456974
0.00457379
0.00457796
0.00458225
0.00415841
0.00415775
0.00415766
0.00415838
0.00415996
0.00416229
0.00416523
0.0041687
0.00417259
0.00417671
0.00418099
0.00418544
0.00419003
0.00419476
0.00419962
0.00377098
0.00377005
0.0037698
0.00377034
0.00377198
0.00377455
0.00377787
0.00378181
0.00378619
0.00379081
0.00379563
0.00380063
0.0038058
0.00381113
0.0038166
0.0033897
0.00338851
0.00338814
0.00338861
0.00339047
0.00339344
0.00339729
0.00340185
0.00340674
0.00341191
0.00341731
0.00342293
0.00342873
0.0034347
0.00344081
0.00301995
0.00301853
0.00301809
0.00301874
0.00302106
0.00302465
0.00302925
0.00303441
0.00303992
0.00304574
0.00305184
0.00305816
0.00306468
0.00307137
0.00307821
0.00266578
0.00266419
0.00266378
0.00266493
0.00266797
0.00267243
0.00267778
0.00268361
0.00268983
0.00269639
0.00270324
0.00271032
0.00271762
0.00272508
0.00273269
0.00233197
0.00233027
0.00233
0.00233194
0.00233596
0.00234138
0.00234744
0.00235402
0.00236103
0.0023684
0.00237606
0.00238396
0.00239206
0.00240032
0.00240872
0.00202389
0.00202226
0.00202225
0.00202518
0.00203028
0.00203637
0.00204315
0.0020505
0.00205829
0.00206645
0.00207489
0.00208356
0.00209241
0.00210141
0.00211053
0.00174404
0.00174257
0.00174321
0.00174721
0.00175304
0.00175981
0.00176732
0.0017754
0.00178393
0.00179282
0.00180197
0.00181134
0.00182087
0.00183053
0.00184028
0.00149666
0.00149542
0.00149685
0.00150164
0.00150782
0.00151496
0.00152286
0.00153133
0.00154024
0.0015495
0.00155903
0.00156877
0.00157866
0.00158869
0.00159881
0.0012895
0.00128863
0.00129079
0.00129567
0.00130166
0.00130848
0.00131592
0.00132382
0.00133211
0.00134077
0.00134978
0.00135907
0.0013686
0.00137833
0.00138823
0.00112471
0.00112411
0.00112644
0.00113091
0.00113626
0.0011423
0.00114892
0.00115601
0.00116344
0.00117112
0.00117897
0.00118697
0.0011951
0.00120335
0.00121176
0.000970399
0.000975769
0.000984984
0.000995307
0.00100568
0.00101561
0.00102481
0.00103322
0.00104092
0.00104799
0.00105451
0.00106058
0.00106634
0.00107191
0.00107749
0.000852909
0.000874145
0.000896193
0.000918199
0.000939634
0.00095798
0.000973264
0.000985783
0.000995872
0.00100389
0.000817354
0.000842355
0.00086686
0.000888381
0.0157867
0.0157872
0.0157877
0.0157882
0.0157886
0.0157171
0.0157177
0.0157182
0.0157188
0.0157193
0.0156328
0.0156334
0.0156341
0.0156347
0.0156353
0.0155461
0.0155469
0.0155476
0.0155483
0.015549
0.0154507
0.0154515
0.0154524
0.0154532
0.015454
0.0153453
0.0153462
0.0153472
0.0153481
0.015349
0.0152287
0.0152298
0.0152309
0.0152319
0.015233
0.0151001
0.0151013
0.0151026
0.0151038
0.0151049
0.0149587
0.0149601
0.0149615
0.0149628
0.0149642
0.0148036
0.0148052
0.0148067
0.0148082
0.0148097
0.0146337
0.0146355
0.0146372
0.0146389
0.0146406
0.0144482
0.0144502
0.0144521
0.014454
0.0144559
0.0142461
0.0142483
0.0142505
0.0142526
0.0142547
0.0140268
0.0140292
0.0140316
0.014034
0.0140363
0.0137895
0.0137922
0.0137949
0.0137975
0.0138001
0.0135341
0.0135371
0.01354
0.0135429
0.0135458
0.0132602
0.0132635
0.0132668
0.01327
0.0132732
0.0129684
0.0129719
0.0129755
0.012979
0.0129825
0.0126592
0.0126631
0.012667
0.0126708
0.0126747
0.0123339
0.0123381
0.0123423
0.0123465
0.0123506
0.0119938
0.0119983
0.0120029
0.0120074
0.0120118
0.0116408
0.0116457
0.0116505
0.0116554
0.0116601
0.0112778
0.011283
0.0112881
0.0112932
0.0112983
0.0109079
0.0109133
0.0109187
0.0109241
0.0109294
0.0105345
0.0105402
0.0105459
0.0105515
0.010557
0.0101618
0.0101677
0.0101736
0.0101794
0.0101851
0.00979393
0.00979995
0.00980594
0.00981188
0.00981779
0.00943484
0.00944095
0.00944704
0.00945308
0.00945908
0.00908828
0.00909444
0.00910057
0.00910666
0.00911272
0.00875727
0.00876341
0.00876954
0.00877563
0.0087817
0.00844436
0.00845046
0.00845654
0.00846259
0.00846863
0.00815078
0.00815674
0.00816271
0.00816866
0.00817461
0.00787713
0.00788286
0.00788859
0.00789433
0.00790007
0.00762027
0.00762584
0.00763142
0.00763701
0.00764261
0.00737436
0.00737991
0.00738551
0.00739114
0.00739682
0.00712861
0.00713437
0.00714022
0.00714615
0.00715217
0.00687444
0.00688062
0.00688694
0.0068934
0.00690002
0.006605
0.00661181
0.00661885
0.00662608
0.00663354
0.00631471
0.00632245
0.0063305
0.00633882
0.00634743
0.00600389
0.00601288
0.00602225
0.00603195
0.00604198
0.00567517
0.00568557
0.00569649
0.00570783
0.00571957
0.00532864
0.00534068
0.00535342
0.00536672
0.00538055
0.00496577
0.00497977
0.00499466
0.00501026
0.00502647
0.00459148
0.00460759
0.00462473
0.00464266
0.00466124
0.00421002
0.00422825
0.00424765
0.00426794
0.00428892
0.00382821
0.00384863
0.00387038
0.0038931
0.00391652
0.00345366
0.00347633
0.00350046
0.00352559
0.00355147
0.00309237
0.00311743
0.00314407
0.00317173
0.00320012
0.00274817
0.00277566
0.00280484
0.00283503
0.00286591
0.00242545
0.00245534
0.00248703
0.00251969
0.00255296
0.0021283
0.00216034
0.00219431
0.00222928
0.00226478
0.00185888
0.00189285
0.00192889
0.00196591
0.00200336
0.00161775
0.00165305
0.00169072
0.00172945
0.00176862
0.00140652
0.00144178
0.00147991
0.00151943
0.00155961
0.00122721
0.00125974
0.00129621
0.00133486
0.00137481
0.00108848
0.0011133
0.0011426
0.00117572
0.0012121
0.00101565
0.00102674
0.00103774
0.00105496
0.00107957
0.000921742
0.00094022
0.000938952
0.000938996
0.000951143
0.000793098
0.000802228
0.000792469
0.000794869
0.000446509
0.000482941
0.00049584
0.0157899
0.0157922
0.0157946
0.0157972
0.0158
0.0158029
0.015806
0.0158093
0.0158128
0.0158165
0.0158203
0.0158245
0.0158288
0.0158334
0.0158382
0.0158433
0.0158487
0.0158543
0.0158602
0.0158664
0.0158729
0.0158798
0.0158869
0.0158944
0.0159022
0.0159103
0.0159188
0.0159276
0.0159368
0.0159464
0.0159563
0.0159666
0.0159772
0.0159883
0.0159998
0.0160116
0.016024
0.0160368
0.0160501
0.0160639
0.016078
0.0160926
0.0161076
0.016123
0.0161388
0.016155
0.016172
0.0161903
0.0162108
0.0162339
0.0162598
0.0162891
0.0163212
0.0163587
0.0164077
0.0164563
0.0164881
0.0164809
0.0164293
0.0163688
0.0157204
0.0157234
0.0157266
0.0157299
0.0157333
0.015737
0.0157409
0.015745
0.0157493
0.0157539
0.0157587
0.0157637
0.0157691
0.0157747
0.0157806
0.0157868
0.0157934
0.0158002
0.0158074
0.0158149
0.0158228
0.015831
0.0158396
0.0158485
0.0158578
0.0158675
0.0158775
0.0158879
0.0158987
0.0159098
0.0159213
0.0159331
0.0159453
0.0159578
0.0159707
0.0159838
0.0159974
0.0160115
0.0160262
0.0160414
0.0160569
0.0160729
0.0160893
0.0161061
0.016123
0.01614
0.0161571
0.0161748
0.0161938
0.0162154
0.0162401
0.0162695
0.0163014
0.0163355
0.0163825
0.0164353
0.0164786
0.0164856
0.0164406
0.0163744
0.0156368
0.0156403
0.0156441
0.0156482
0.0156525
0.015657
0.0156618
0.0156668
0.0156722
0.0156778
0.0156837
0.01569
0.0156966
0.0157035
0.0157108
0.0157184
0.0157264
0.0157348
0.0157436
0.0157528
0.0157624
0.0157723
0.0157827
0.0157936
0.0158048
0.0158164
0.0158285
0.0158409
0.0158538
0.015867
0.0158806
0.0158947
0.015909
0.0159238
0.0159389
0.0159543
0.01597
0.0159861
0.0160026
0.0160193
0.0160364
0.0160539
0.0160719
0.0160904
0.0161092
0.0161275
0.0161456
0.0161634
0.0161818
0.0162027
0.0162262
0.0162542
0.0162854
0.016319
0.0163598
0.0164133
0.0164642
0.016484
0.0164477
0.0163802
0.0155509
0.0155554
0.0155602
0.0155652
0.0155705
0.0155761
0.015582
0.0155883
0.0155948
0.0156018
0.015609
0.0156167
0.0156247
0.0156332
0.0156421
0.0156513
0.015661
0.0156712
0.0156818
0.0156928
0.0157043
0.0157162
0.0157286
0.0157415
0.0157548
0.0157685
0.0157826
0.0157972
0.0158122
0.0158275
0.0158433
0.0158594
0.0158758
0.0158925
0.0159096
0.0159269
0.0159445
0.0159623
0.0159804
0.0159987
0.0160173
0.016036
0.0160549
0.0160741
0.0160934
0.0161129
0.0161326
0.0161522
0.0161721
0.0161928
0.0162153
0.0162406
0.0162712
0.0163049
0.0163414
0.0163936
0.0164492
0.0164799
0.0164533
0.0163848
0.0154564
0.015462
0.0154678
0.015474
0.0154806
0.0154874
0.0154947
0.0155023
0.0155104
0.0155189
0.0155278
0.0155371
0.0155469
0.0155572
0.0155679
0.0155791
0.0155909
0.0156031
0.0156158
0.015629
0.0156427
0.015657
0.0156717
0.0156869
0.0157026
0.0157187
0.0157353
0.0157523
0.0157697
0.0157875
0.0158056
0.0158241
0.0158428
0.0158618
0.015881
0.0159005
0.0159201
0.0159398
0.0159597
0.0159798
0.0159999
0.0160202
0.0160405
0.016061
0.0160815
0.0161022
0.0161228
0.0161436
0.0161643
0.0161854
0.0162075
0.0162316
0.0162596
0.0162933
0.0163275
0.0163764
0.0164343
0.0164738
0.0164568
0.0163886
0.015352
0.0153588
0.015366
0.0153736
0.0153816
0.0153901
0.015399
0.0154083
0.0154182
0.0154285
0.0154393
0.0154507
0.0154626
0.015475
0.015488
0.0155015
0.0155156
0.0155303
0.0155455
0.0155613
0.0155776
0.0155945
0.0156119
0.0156298
0.0156482
0.0156671
0.0156865
0.0157062
0.0157263
0.0157468
0.0157676
0.0157887
0.01581
0.0158315
0.0158531
0.0158748
0.0158966
0.0159184
0.0159403
0.0159621
0.0159839
0.0160057
0.0160275
0.0160493
0.016071
0.0160928
0.0161145
0.0161361
0.0161577
0.0161794
0.0162016
0.0162252
0.0162518
0.0162839
0.0163186
0.0163618
0.0164203
0.0164665
0.0164587
0.0163913
0.0152366
0.015245
0.0152537
0.015263
0.0152728
0.0152831
0.0152939
0.0153053
0.0153173
0.0153298
0.015343
0.0153567
0.0153711
0.0153861
0.0154017
0.015418
0.0154349
0.0154524
0.0154706
0.0154893
0.0155087
0.0155286
0.0155491
0.0155702
0.0155917
0.0156137
0.0156361
0.015659
0.0156821
0.0157056
0.0157294
0.0157533
0.0157774
0.0158016
0.0158258
0.01585
0.0158741
0.0158981
0.015922
0.0159457
0.0159692
0.0159926
0.0160158
0.0160389
0.0160618
0.0160846
0.0161072
0.0161298
0.0161522
0.0161745
0.016197
0.0162205
0.0162461
0.016276
0.0163111
0.0163496
0.0164077
0.0164586
0.0164594
0.0163931
0.0151095
0.0151195
0.0151301
0.0151414
0.0151532
0.0151657
0.0151789
0.0151927
0.0152072
0.0152223
0.0152382
0.0152548
0.0152721
0.0152901
0.0153088
0.0153282
0.0153484
0.0153692
0.0153908
0.015413
0.0154358
0.0154593
0.0154833
0.0155079
0.0155329
0.0155584
0.0155844
0.0156106
0.0156372
0.015664
0.0156909
0.015718
0.0157451
0.0157721
0.0157991
0.0158259
0.0158525
0.0158788
0.0159048
0.0159304
0.0159557
0.0159807
0.0160053
0.0160296
0.0160537
0.0160775
0.016101
0.0161244
0.0161475
0.0161704
0.0161934
0.0162169
0.016242
0.0162704
0.0163045
0.0163397
0.0163965
0.0164505
0.0164592
0.0163942
0.0149696
0.0149817
0.0149945
0.0150081
0.0150224
0.0150375
0.0150534
0.01507
0.0150874
0.0151056
0.0151246
0.0151445
0.0151651
0.0151866
0.0152089
0.015232
0.0152559
0.0152806
0.015306
0.0153321
0.015359
0.0153864
0.0154144
0.015443
0.015472
0.0155015
0.0155313
0.0155613
0.0155916
0.015622
0.0156524