/*--------------------------------*- C++ -*----------------------------------*\
  =========                 |
  \\      /  F ield         | OpenFOAM: The Open Source CFD Toolbox
   \\    /   O peration     | Website:  https://openfoam.org
    \\  /    A nd           | Version:  9
     \\/     M anipulation  |
\*---------------------------------------------------------------------------*/
FoamFile
{
    format      ascii;
    class       volScalarField;
    location    "0.01";
    object      nut;
}
// * * * * * * * * * * * * * * * * * * * * * * * * * * * * * * * * * * * * * //

dimensions      [0 2 -1 0 0 0 0];

internalField   nonuniform List<scalar> 
9689
(
0.0122717
0.0123516
0.0124265
0.0124966
0.0125623
0.0126239
0.0126817
0.012736
0.0127871
0.012835
0.01288
0.0129225
0.0129624
0.0130001
0.0130358
0.0130695
0.0131014
0.0131316
0.0131603
0.0131875
0.0132133
0.0132379
0.0132613
0.0132836
0.0133049
0.0133251
0.0133445
0.013363
0.0133807
0.0133977
0.013414
0.0134296
0.0134447
0.0134593
0.0134734
0.0134869
0.0135
0.0135127
0.0135249
0.012163
0.0122445
0.012321
0.012393
0.0124608
0.0125245
0.0125844
0.0126407
0.0126937
0.0127436
0.0127907
0.0128351
0.0128771
0.0129168
0.0129544
0.0129901
0.0130239
0.013056
0.0130865
0.0131155
0.0131431
0.0131694
0.0131946
0.0132185
0.0132414
0.0132633
0.0132843
0.0133044
0.0133236
0.013342
0.0133597
0.0133767
0.013393
0.0134087
0.0134238
0.0134383
0.0134522
0.0134656
0.0134785
0.0120467
0.012129
0.0122071
0.0122812
0.0123511
0.0124171
0.0124793
0.0125379
0.0125932
0.0126454
0.0126947
0.0127414
0.0127855
0.0128273
0.0128669
0.0129044
0.0129401
0.012974
0.0130063
0.013037
0.0130663
0.0130943
0.0131209
0.0131464
0.0131708
0.0131941
0.0132164
0.0132378
0.0132584
0.0132781
0.0132971
0.0133153
0.0133328
0.0133497
0.013366
0.0133817
0.0133969
0.0134115
0.0134256
0.0119294
0.0120131
0.0120929
0.0121687
0.0122406
0.0123086
0.012373
0.0124338
0.0124913
0.0125458
0.0125973
0.0126461
0.0126924
0.0127363
0.012778
0.0128176
0.0128552
0.0128911
0.0129253
0.0129578
0.0129889
0.0130185
0.0130469
0.013074
0.0130999
0.0131247
0.0131485
0.0131713
0.0131932
0.0132142
0.0132344
0.0132539
0.0132726
0.0132906
0.0133079
0.0133247
0.0133408
0.0133564
0.0133715
0.0118089
0.0118939
0.0119748
0.0120521
0.0121257
0.0121956
0.012262
0.0123249
0.0123846
0.0124412
0.0124948
0.0125458
0.0125942
0.0126402
0.0126839
0.0127256
0.0127652
0.012803
0.0128391
0.0128735
0.0129064
0.0129378
0.0129679
0.0129967
0.0130242
0.0130506
0.0130759
0.0131002
0.0131236
0.013146
0.0131675
0.0131883
0.0132082
0.0132275
0.013246
0.0132638
0.0132811
0.0132977
0.0133138
0.0116849
0.011771
0.0118529
0.0119314
0.0120065
0.0120781
0.0121463
0.0122112
0.0122728
0.0123315
0.0123872
0.0124402
0.0124907
0.0125387
0.0125845
0.0126282
0.0126698
0.0127096
0.0127475
0.0127838
0.0128186
0.0128518
0.0128836
0.0129141
0.0129433
0.0129713
0.0129982
0.0130241
0.0130489
0.0130728
0.0130958
0.0131179
0.0131391
0.0131597
0.0131794
0.0131985
0.0132169
0.0132347
0.0132518
0.0115571
0.0116441
0.0117271
0.0118064
0.0118827
0.0119559
0.0120257
0.0120924
0.0121559
0.0122165
0.0122742
0.0123292
0.0123817
0.0124317
0.0124795
0.0125252
0.0125688
0.0126105
0.0126503
0.0126885
0.0127251
0.0127601
0.0127937
0.0128259
0.0128569
0.0128866
0.0129151
0.0129425
0.0129689
0.0129943
0.0130188
0.0130423
0.013065
0.0130868
0.0131079
0.0131283
0.0131479
0.0131669
0.0131853
0.0114254
0.0115133
0.0115971
0.0116774
0.0117546
0.0118289
0.0119002
0.0119685
0.0120338
0.0120962
0.0121558
0.0122127
0.0122671
0.0123191
0.0123688
0.0124164
0.0124619
0.0125056
0.0125473
0.0125874
0.0126258
0.0126626
0.012698
0.012732
0.0127646
0.012796
0.0128262
0.0128553
0.0128833
0.0129102
0.0129362
0.0129612
0.0129853
0.0130086
0.0130311
0.0130528
0.0130737
0.013094
0.0131136
0.0112898
0.0113783
0.0114629
0.0115439
0.0116219
0.0116972
0.0117698
0.0118395
0.0119064
0.0119705
0.0120319
0.0120906
0.0121469
0.0122007
0.0122523
0.0123018
0.0123492
0.0123947
0.0124383
0.0124802
0.0125204
0.0125591
0.0125963
0.012632
0.0126664
0.0126995
0.0127313
0.012762
0.0127916
0.0128201
0.0128476
0.0128742
0.0128998
0.0129246
0.0129485
0.0129716
0.0129939
0.0130155
0.0130364
0.0112391
0.0113243
0.0114061
0.0114847
0.0115608
0.0116343
0.0117053
0.0117737
0.0118393
0.0119023
0.0119627
0.0120208
0.0120764
0.0121298
0.0121811
0.0122303
0.0122777
0.0123231
0.0123668
0.0124089
0.0124493
0.0124883
0.0125257
0.0125618
0.0125966
0.0126302
0.0126625
0.0126937
0.0127239
0.0127529
0.012781
0.0128082
0.0128344
0.0128598
0.0128843
0.012908
0.012931
0.0129532
0.0110957
0.0111813
0.0112637
0.011343
0.0114196
0.0114939
0.0115659
0.0116355
0.0117025
0.011767
0.0118291
0.0118887
0.0119461
0.0120012
0.0120542
0.0121053
0.0121543
0.0122016
0.0122471
0.0122909
0.0123331
0.0123738
0.012413
0.0124508
0.0124873
0.0125225
0.0125565
0.0125894
0.0126211
0.0126518
0.0126814
0.0127101
0.0127378
0.0127647
0.0127907
0.0128158
0.0128402
0.0128638
0.010948
0.0110339
0.0111167
0.0111965
0.0112737
0.0113485
0.0114213
0.0114919
0.0115602
0.011626
0.0116895
0.0117507
0.0118096
0.0118664
0.0119211
0.0119738
0.0120246
0.0120736
0.0121208
0.0121663
0.0122103
0.0122527
0.0122936
0.0123331
0.0123713
0.0124081
0.0124438
0.0124783
0.0125116
0.0125438
0.012575
0.0126053
0.0126345
0.0126629
0.0126903
0.0127169
0.0127427
0.0127678
0.010796
0.010882
0.0109651
0.0110453
0.0111229
0.0111982
0.0112715
0.0113429
0.0114122
0.0114792
0.011544
0.0116066
0.011667
0.0117253
0.0117816
0.0118359
0.0118883
0.0119389
0.0119878
0.012035
0.0120806
0.0121247
0.0121673
0.0122085
0.0122483
0.0122868
0.0123241
0.0123602
0.0123951
0.0124289
0.0124617
0.0124934
0.0125242
0.0125541
0.012583
0.0126111
0.0126383
0.0126647
0.0106397
0.0107257
0.0108088
0.0108893
0.0109672
0.0110429
0.0111166
0.0111885
0.0112586
0.0113266
0.0113926
0.0114564
0.0115182
0.0115779
0.0116356
0.0116914
0.0117453
0.0117975
0.011848
0.0118968
0.011944
0.0119897
0.0120339
0.0120768
0.0121182
0.0121584
0.0121973
0.0122349
0.0122714
0.0123068
0.0123411
0.0123744
0.0124067
0.012438
0.0124684
0.012498
0.0125266
0.0125545
0.0104793
0.010565
0.010648
0.0107285
0.0108067
0.0108826
0.0109566
0.0110289
0.0110995
0.0111683
0.0112352
0.0113001
0.0113631
0.011424
0.0114831
0.0115403
0.0115957
0.0116493
0.0117012
0.0117516
0.0118003
0.0118476
0.0118934
0.0119378
0.0119808
0.0120225
0.012063
0.0121022
0.0121403
0.0121772
0.0122131
0.0122479
0.0122817
0.0123145
0.0123464
0.0123774
0.0124075
0.0124368
0.0103146
0.0103999
0.0104827
0.0105631
0.0106413
0.0107173
0.0107915
0.010864
0.0109349
0.0110043
0.011072
0.0111378
0.0112018
0.0112638
0.0113241
0.0113825
0.0114392
0.0114942
0.0115475
0.0115993
0.0116495
0.0116982
0.0117455
0.0117913
0.0118359
0.0118791
0.0119211
0.0119619
0.0120015
0.0120399
0.0120773
0.0121136
0.0121489
0.0121832
0.0122165
0.012249
0.0122805
0.0123112
0.0101458
0.0102305
0.0103129
0.010393
0.0104711
0.0105471
0.0106213
0.0106939
0.010765
0.0108347
0.0109029
0.0109695
0.0110343
0.0110973
0.0111586
0.0112181
0.011276
0.0113322
0.0113868
0.0114399
0.0114914
0.0115415
0.0115901
0.0116374
0.0116834
0.0117281
0.0117715
0.0118137
0.0118548
0.0118947
0.0119335
0.0119713
0.012008
0.0120438
0.0120786
0.0121124
0.0121454
0.0121775
0.010057
0.0101387
0.0102185
0.0102962
0.0103721
0.0104462
0.0105187
0.0105898
0.0106597
0.0107282
0.0107952
0.0108607
0.0109245
0.0109867
0.0110472
0.0111061
0.0111634
0.0112191
0.0112733
0.0113261
0.0113774
0.0114274
0.0114759
0.0115232
0.0115692
0.011614
0.0116576
0.0117
0.0117413
0.0117816
0.0118207
0.0118589
0.011896
0.0119322
0.0119675
0.0120019
0.0120354
0.00987937
0.00996039
0.0100395
0.0101168
0.0101923
0.0102662
0.0103386
0.0104095
0.0104793
0.0105479
0.0106153
0.0106812
0.0107456
0.0108085
0.0108698
0.0109295
0.0109877
0.0110445
0.0110997
0.0111536
0.011206
0.0112571
0.0113069
0.0113554
0.0114026
0.0114487
0.0114935
0.0115372
0.0115798
0.0116214
0.0116619
0.0117013
0.0117398
0.0117774
0.011814
0.0118497
0.0118845
0.00969789
0.00977799
0.00985635
0.00993301
0.010008
0.0100815
0.0101536
0.0102243
0.0102938
0.0103623
0.0104297
0.0104959
0.0105607
0.0106241
0.010686
0.0107464
0.0108054
0.010863
0.0109191
0.0109739
0.0110273
0.0110794
0.0111303
0.0111799
0.0112282
0.0112754
0.0113214
0.0113663
0.0114101
0.0114529
0.0114946
0.0115353
0.011575
0.0116138
0.0116517
0.0116886
0.0117247
0.0095127
0.00959172
0.00966915
0.00974503
0.0098194
0.00989233
0.00996391
0.0100342
0.0101034
0.0101716
0.0102388
0.010305
0.01037
0.0104337
0.010496
0.010557
0.0106166
0.0106748
0.0107317
0.0107872
0.0108415
0.0108945
0.0109462
0.0109967
0.0110461
0.0110943
0.0111413
0.0111873
0.0112322
0.011276
0.0113188
0.0113606
0.0114015
0.0114415
0.0114805
0.0115186
0.0115559
0.00932402
0.00940181
0.00947815
0.00955308
0.00962663
0.00969885
0.0097698
0.00983957
0.00990827
0.009976
0.0100429
0.0101088
0.0101738
0.0102376
0.0103002
0.0103615
0.0104215
0.0104802
0.0105376
0.0105937
0.0106487
0.0107023
0.0107548
0.0108062
0.0108563
0.0109054
0.0109533
0.0110002
0.011046
0.0110908
0.0111346
0.0111775
0.0112194
0.0112604
0.0113004
0.0113396
0.011378
0.0092085
0.00928361
0.00935743
0.00943
0.00950135
0.00957153
0.0096406
0.00970865
0.00977579
0.00984211
0.00990765
0.00997234
0.010036
0.0100986
0.0101601
0.0102203
0.0102793
0.0103371
0.0103937
0.0104491
0.0105033
0.0105564
0.0106083
0.0106591
0.0107089
0.0107576
0.0108052
0.0108518
0.0108974
0.0109421
0.0109858
0.0110286
0.0110705
0.0111115
0.0111516
0.0111909
0.00901209
0.00908581
0.00915838
0.00922982
0.00930014
0.00936938
0.00943761
0.00950488
0.00957127
0.0096369
0.00970182
0.00976601
0.00982938
0.00989178
0.00995313
0.0100134
0.0100725
0.0101305
0.0101873
0.010243
0.0102976
0.0103511
0.0104035
0.0104548
0.0105051
0.0105543
0.0106026
0.0106498
0.0106961
0.0107414
0.0107859
0.0108294
0.010872
0.0109138
0.0109547
0.0109948
0.00881289
0.0088851
0.00895628
0.00902642
0.00909556
0.00916372
0.00923095
0.00929728
0.0093628
0.00942758
0.0094917
0.0095552
0.00961801
0.00968001
0.00974108
0.00980115
0.00986017
0.00991813
0.00997501
0.0100308
0.0100856
0.0101393
0.0101919
0.0102436
0.0102942
0.0103438
0.0103925
0.0104402
0.010487
0.0105329
0.0105778
0.0106219
0.0106652
0.0107076
0.0107491
0.0107899
0.00861129
0.00868185
0.00875149
0.0088202
0.00888802
0.00895494
0.00902101
0.00908626
0.00915075
0.00921455
0.00927773
0.00934035
0.00940238
0.00946375
0.00952432
0.009584
0.00964274
0.00970048
0.00975722
0.00981295
0.00986768
0.0099214
0.00997413
0.0100259
0.0100767
0.0101265
0.0101754
0.0102234
0.0102705
0.0103167
0.010362
0.0104065
0.0104502
0.010493
0.010535
0.0105763
0.00847648
0.00854444
0.00861159
0.00867793
0.00874348
0.00880824
0.00887227
0.00893558
0.00899825
0.00906034
0.00912191
0.00918298
0.0092435
0.00930336
0.00936244
0.00942068
0.00947801
0.00953441
0.00958987
0.00964437
0.00969793
0.00975054
0.00980221
0.00985296
0.0099028
0.00995173
0.00999978
0.010047
0.0100933
0.0101388
0.0101835
0.0102274
0.0102705
0.0103128
0.0103543
0.00826945
0.00833562
0.00840107
0.0084658
0.00852982
0.00859314
0.00865579
0.00871779
0.00877919
0.00884004
0.00890041
0.00896033
0.00901979
0.00907872
0.009137
0.00919453
0.00925125
0.00930712
0.0093621
0.00941619
0.00946938
0.00952167
0.00957308
0.0096236
0.00967325
0.00972204
0.00976997
0.00981708
0.00986338
0.00990886
0.00995354
0.00999744
0.0100406
0.010083
0.0101246
0.00806129
0.00812554
0.00818917
0.00825216
0.00831452
0.00837625
0.00843737
0.00849791
0.0085579
0.00861738
0.0086764
0.00873501
0.00879323
0.00885102
0.00890827
0.00896489
0.00902079
0.00907591
0.00913022
0.0091837
0.00923633
0.00928811
0.00933905
0.00938915
0.00943841
0.00948684
0.00953447
0.00958131
0.00962736
0.00967263
0.00971712
0.00976086
0.00980386
0.00984614
0.00988769
0.00785256
0.00791479
0.00797647
0.00803759
0.00809816
0.00815817
0.00821764
0.00827657
0.008335
0.00839297
0.0084505
0.00850765
0.00856446
0.0086209
0.00867692
0.00873241
0.00878728
0.00884146
0.0088949
0.00894756
0.00899943
0.00905051
0.00910078
0.00915025
0.00919892
0.0092468
0.00929392
0.00934028
0.00938588
0.00943072
0.00947482
0.0095182
0.00956086
0.00960281
0.00964408
0.00770396
0.0077636
0.00782274
0.0078814
0.00793956
0.00799724
0.00805443
0.00811117
0.00816748
0.00822339
0.00827894
0.00833417
0.00838909
0.00844367
0.00849782
0.00855146
0.00860448
0.00865685
0.0087085
0.00875941
0.00880957
0.00885898
0.00890762
0.00895551
0.00900263
0.00904903
0.00909469
0.00913964
0.00918384
0.00922735
0.00927016
0.00931227
0.0093537
0.00939446
0.00749372
0.00755121
0.00760828
0.00766491
0.00772111
0.00777688
0.00783221
0.00788713
0.00794165
0.0079958
0.00804961
0.00810313
0.00815636
0.00820931
0.00826192
0.00831411
0.00836578
0.00841687
0.00846731
0.00851706
0.00856612
0.00861446
0.00866207
0.00870897
0.00875514
0.00880062
0.00884539
0.00888946
0.00893283
0.00897552
0.00901754
0.00905889
0.00909959
0.00913963
0.00733999
0.00739489
0.00744941
0.00750355
0.0075573
0.00761065
0.00766363
0.00771625
0.00776851
0.00782046
0.00787213
0.00792353
0.00797469
0.00802557
0.00807611
0.00812623
0.00817583
0.00822486
0.00827326
0.00832101
0.00836808
0.00841446
0.00846016
0.00850518
0.00854952
0.00859319
0.00863619
0.00867853
0.00872021
0.00876123
0.0088016
0.00884134
0.00888044
0.00713061
0.00718328
0.00723562
0.00728761
0.00733924
0.00739053
0.00744146
0.00749206
0.00754234
0.00759231
0.007642
0.00769145
0.00774067
0.00778965
0.00783837
0.00788674
0.00793467
0.00798211
0.00802897
0.00807524
0.00812086
0.00816584
0.00821015
0.00825382
0.00829684
0.00833921
0.00838094
0.00842202
0.00846246
0.00850226
0.00854143
0.00857998
0.00861792
0.00692374
0.00697414
0.00702424
0.00707401
0.00712347
0.0071726
0.00722141
0.00726989
0.00731808
0.00736597
0.00741359
0.00746097
0.00750813
0.00755507
0.00760179
0.00764823
0.00769432
0.00773998
0.00778513
0.00782974
0.00787375
0.00791715
0.00795991
0.00800206
0.00804358
0.00808448
0.00812474
0.00816439
0.00820341
0.00824181
0.0082796
0.00831677
0.00835335
0.00676813
0.00681595
0.00686347
0.0069107
0.00695761
0.00700423
0.00705054
0.00709655
0.00714228
0.00718774
0.00723296
0.00727794
0.00732272
0.0073673
0.00741165
0.00745571
0.00749942
0.0075427
0.00758548
0.00762771
0.00766937
0.00771043
0.00775089
0.00779076
0.00783001
0.00786865
0.00790669
0.00794412
0.00798094
0.00801716
0.00805278
0.00808781
0.00656583
0.00661138
0.00665664
0.00670161
0.00674629
0.00679066
0.00683474
0.00687853
0.00692204
0.00696527
0.00700825
0.00705099
0.00709351
0.00713583
0.00717794
0.00721982
0.00726141
0.00730264
0.00734343
0.00738374
0.00742351
0.00746271
0.00750135
0.00753941
0.00757688
0.00761375
0.00765002
0.0076857
0.00772078
0.00775527
0.00778917
0.00782249
0.00641107
0.00645409
0.00649681
0.00653924
0.00658138
0.00662321
0.00666475
0.006706
0.00674696
0.00678766
0.00682809
0.0068683
0.00690828
0.00694805
0.0069876
0.00702691
0.00706593
0.00710458
0.0071428
0.00718053
0.00721777
0.00725446
0.00729059
0.00732615
0.00736113
0.00739551
0.0074293
0.0074625
0.00749512
0.00752715
0.00755861
0.00621546
0.00625628
0.0062968
0.00633702
0.00637694
0.00641654
0.00645584
0.00649483
0.00653351
0.00657191
0.00661003
0.00664788
0.00668549
0.00672286
0.00676
0.00679691
0.00683356
0.00686991
0.00690589
0.00694145
0.00697656
0.00701117
0.00704526
0.00707879
0.00711175
0.00714413
0.00717592
0.00720713
0.00723776
0.00726781
0.00729729
0.00606354
0.00610194
0.00614001
0.00617776
0.00621519
0.00625228
0.00628905
0.0063255
0.00636162
0.00639744
0.00643295
0.00646818
0.00650314
0.00653784
0.00657228
0.00660647
0.00664038
0.00667398
0.00670722
0.00674007
0.00677249
0.00680441
0.00683582
0.00686667
0.00689695
0.00692666
0.00695578
0.00698433
0.0070123
0.0070397
0.00587602
0.0059124
0.00594843
0.00598412
0.00601945
0.00605443
0.00608905
0.00612332
0.00615723
0.0061908
0.00622404
0.00625694
0.00628952
0.0063218
0.00635379
0.00638548
0.00641689
0.00644799
0.00647877
0.00650924
0.00653934
0.006569
0.00659818
0.00662685
0.00665496
0.00668251
0.00670948
0.00673588
0.0067617
0.00678694
0.00572819
0.00576232
0.00579607
0.00582943
0.00586241
0.005895
0.00592719
0.005959
0.00599042
0.00602146
0.00605213
0.00608242
0.00611236
0.00614195
0.0061712
0.00620012
0.0062287
0.00625695
0.00628493
0.00631259
0.00633989
0.00636676
0.00639317
0.00641904
0.00644437
0.00646914
0.00649335
0.00651698
0.00654002
0.0055491
0.00558149
0.00561346
0.00564501
0.00567614
0.00570684
0.00573711
0.00576695
0.00579636
0.00582534
0.0058539
0.00588203
0.00590976
0.00593707
0.00596399
0.00599051
0.00601665
0.0060424
0.00606786
0.00609303
0.00611787
0.00614234
0.0061664
0.00618998
0.00621304
0.00623557
0.00625755
0.00627896
0.00629979
0.00540554
0.00543591
0.00546583
0.00549528
0.00552427
0.00555279
0.00558083
0.0056084
0.00563549
0.00566211
0.00568826
0.00571394
0.00573915
0.00576391
0.0057882
0.00581205
0.00583544
0.00585849
0.00588119
0.00590356
0.00592559
0.00594724
0.00596845
0.00598919
0.00600944
0.00602917
0.00604834
0.00606695
0.00526286
0.00529132
0.00531928
0.00534673
0.00537368
0.00540011
0.00542603
0.00545142
0.0054763
0.00550066
0.0055245
0.00554782
0.00557062
0.00559291
0.00561467
0.00563593
0.00565676
0.00567719
0.00569722
0.00571687
0.00573614
0.00575497
0.00577336
0.00579129
0.00580874
0.00582568
0.00584207
0.00509361
0.00512077
0.00514739
0.00517348
0.00519902
0.00522401
0.00524844
0.00527232
0.00529564
0.00531841
0.00534061
0.00536225
0.00538332
0.00540384
0.00542379
0.00544317
0.00546203
0.00548043
0.00549838
0.00551588
0.00553295
0.00554954
0.00556566
0.00558131
0.00559662
0.00561154
0.005626
0.00495348
0.0049789
0.00500375
0.005028
0.00505167
0.00507475
0.00509724
0.00511912
0.00514041
0.00516109
0.00518117
0.00520065
0.00521955
0.00523785
0.0052556
0.0052728
0.00528948
0.00530558
0.00532128
0.00533659
0.00535148
0.0053659
0.00537985
0.00539334
0.00540636
0.00541887
0.00478887
0.00481322
0.00483695
0.00486004
0.00488251
0.00490434
0.00492554
0.00494609
0.00496599
0.00498525
0.00500388
0.00502191
0.00503931
0.0050561
0.00507232
0.00508815
0.00510349
0.00511834
0.00513267
0.0051465
0.00515978
0.00517254
0.00518479
0.00519654
0.00520775
0.00521845
0.00464973
0.00467248
0.00469456
0.00471597
0.00473669
0.00475673
0.00477608
0.00479476
0.00481279
0.00483016
0.00484686
0.00486311
0.00487888
0.0048941
0.00490876
0.00492286
0.00493636
0.00494927
0.00496162
0.00497342
0.00498463
0.00499528
0.00500539
0.00501497
0.00502402
0.00450952
0.00453072
0.0045512
0.00457095
0.00458999
0.00460833
0.00462596
0.00464291
0.00465941
0.00467536
0.00469071
0.00470545
0.00471955
0.00473301
0.00474585
0.00475807
0.00476966
0.00478064
0.00479102
0.00480082
0.00481002
0.00481864
0.0048267
0.00483423
0.00434706
0.00436748
0.00438716
0.00440609
0.00442427
0.00444173
0.00445871
0.00447511
0.00449089
0.00450598
0.0045204
0.00453413
0.00454717
0.00455951
0.00457119
0.00458221
0.00459256
0.00460225
0.00461132
0.00461977
0.0046276
0.00463484
0.00464153
0.00464767
0.0042038
0.00422275
0.0042409
0.00425853
0.00427559
0.00429197
0.00430767
0.00432264
0.00433688
0.00435038
0.00436316
0.0043752
0.00438651
0.00439712
0.004407
0.00441618
0.0044247
0.00443259
0.00443983
0.00444645
0.00445246
0.00445783
0.00446257
0.0040573
0.00407509
0.00409222
0.00410861
0.00412426
0.00413914
0.00415323
0.00416654
0.00417909
0.00419083
0.00420181
0.00421204
0.00422149
0.0042302
0.00423823
0.00424554
0.00425216
0.00425811
0.00426341
0.004268
0.00427217
0.00427611
0.00390817
0.0039246
0.00394023
0.00395505
0.00396904
0.0039822
0.00399456
0.00400607
0.00401678
0.00402669
0.00403579
0.00404414
0.00405176
0.00405862
0.00406475
0.00407017
0.00407484
0.0040791
0.00408316
0.00408684
0.00409
0.00373996
0.00375561
0.00377043
0.00378438
0.00379747
0.00380968
0.00382103
0.00383154
0.00384119
0.00385003
0.00385811
0.00386537
0.00387186
0.0038776
0.00388254
0.00388705
0.00389136
0.00389519
0.00389844
0.00390103
0.00390289
0.00358528
0.0035992
0.00361225
0.00362439
0.00363565
0.003646
0.00365548
0.00366415
0.00367198
0.003679
0.00368522
0.00369061
0.00369548
0.00370012
0.00370426
0.00370777
0.00371056
0.00371253
0.00371364
0.00371386
0.00342678
0.0034389
0.00345013
0.00346043
0.00346987
0.00347841
0.00348614
0.00349305
0.00349909
0.00350444
0.00350944
0.00351398
0.00351788
0.00352098
0.00352319
0.00352448
0.00352479
0.0035236
0.00352097
0.0032647
0.00327501
0.00328439
0.00329293
0.00330065
0.00330748
0.00331344
0.00331889
0.00332397
0.0033284
0.00333198
0.00333462
0.00333623
0.00333677
0.00333586
0.0033333
0.00332937
0.00332416
0.00309941
0.00310801
0.00311572
0.00312256
0.00312857
0.00313424
0.00313926
0.00314343
0.00314662
0.00314871
0.00314966
0.00314927
0.00314701
0.00314326
0.00313809
0.00313158
0.00312374
0.00292411
0.00293189
0.0029387
0.00294486
0.00295055
0.00295543
0.00295928
0.002962
0.0029635
0.00296375
0.00296213
0.00295879
0.00295393
0.0029476
0.00293983
0.00293064
0.00291997
0.00275617
0.00276239
0.00276799
0.00277262
0.00277611
0.00277835
0.00277929
0.00277863
0.002776
0.00277168
0.00276581
0.00275843
0.00274948
0.00273899
0.00272692
0.00271327
0.00258691
0.00259127
0.00259438
0.00259616
0.00259654
0.00259498
0.00259154
0.00258643
0.00257968
0.00257133
0.00256132
0.00254966
0.00253631
0.00252126
0.0025045
0.00241474
0.0024161
0.00241595
0.00241365
0.00240955
0.00240377
0.00239628
0.00238712
0.00237622
0.00236358
0.00234913
0.00233291
0.00231482
0.00229487
0.00223798
0.00223522
0.00223064
0.00222435
0.00221631
0.00220653
0.00219494
0.00218154
0.00216626
0.00214909
0.00212999
0.00210894
0.00208584
0.00205532
0.0020487
0.00204035
0.00203017
0.00201812
0.00200421
0.00198836
0.00197056
0.00195073
0.00192889
0.00190494
0.00187883
0.001869
0.00185867
0.00184643
0.00183229
0.00181618
0.00179809
0.00177792
0.00175565
0.00173124
0.00170459
0.00167564
0.00168051
0.0016665
0.0016505
0.00163251
0.00161246
0.00159027
0.00156595
0.00153942
0.00151066
0.00147952
0.00147394
0.00145437
0.00143269
0.00140889
0.00138291
0.00135466
0.00132411
0.00129114
0.00128285
0.00126001
0.00123504
0.00120786
0.00117845
0.00114669
0.00111255
0.00109553
0.00106991
0.0010421
0.00101211
0.000979851
0.000945312
0.000886597
0.000856709
0.000824645
0.000790509
0.000649739
0.0135345
0.0135348
0.0135351
0.0135353
0.0135356
0.0135359
0.0135361
0.0135364
0.0135366
0.0135369
0.0135371
0.0135374
0.0135376
0.0135379
0.0135381
0.0134886
0.0134889
0.0134892
0.0134895
0.0134897
0.01349
0.0134903
0.0134906
0.0134908
0.0134911
0.0134914
0.0134916
0.0134919
0.0134921
0.0134924
0.0134365
0.0134368
0.0134371
0.0134375
0.0134378
0.0134381
0.0134384
0.0134387
0.013439
0.0134393
0.0134396
0.0134399
0.0134401
0.0134404
0.0134407
0.0133829
0.0133833
0.0133836
0.013384
0.0133843
0.0133847
0.013385
0.0133853
0.0133856
0.013386
0.0133863
0.0133866
0.0133869
0.0133872
0.0133875
0.0133259
0.0133263
0.0133267
0.013327
0.0133274
0.0133278
0.0133281
0.0133285
0.0133288
0.0133291
0.0133295
0.0133298
0.0133301
0.0133305
0.0133308
0.0132647
0.0132651
0.0132655
0.0132659
0.0132663
0.0132666
0.013267
0.0132674
0.0132678
0.0132681
0.0132685
0.0132689
0.0132692
0.0132696
0.0132699
0.0131988
0.0131993
0.0131997
0.0132001
0.0132006
0.013201
0.0132014
0.0132018
0.0132022
0.0132026
0.013203
0.0132034
0.0132038
0.0132041
0.0132045
0.0131279
0.0131284
0.0131289
0.0131293
0.0131298
0.0131302
0.0131307
0.0131311
0.0131315
0.013132
0.0131324
0.0131328
0.0131332
0.0131337
0.0131341
0.0130516
0.0130521
0.0130526
0.013053
0.0130535
0.013054
0.0130545
0.013055
0.0130554
0.0130559
0.0130564
0.0130568
0.0130573
0.0130577
0.0130582
0.0129693
0.0129698
0.0129703
0.0129709
0.0129714
0.0129719
0.0129724
0.0129729
0.0129734
0.0129739
0.0129744
0.0129749
0.0129754
0.0129759
0.0129764
0.0128807
0.0128813
0.0128819
0.0128824
0.012883
0.0128835
0.0128841
0.0128846
0.0128852
0.0128857
0.0128863
0.0128868
0.0128873
0.0128878
0.0128884
0.0127855
0.0127861
0.0127867
0.0127873
0.0127879
0.0127885
0.0127891
0.0127897
0.0127903
0.0127909
0.0127915
0.012792
0.0127926
0.0127932
0.0127937
0.0126833
0.012684
0.0126846
0.0126853
0.0126859
0.0126866
0.0126872
0.0126878
0.0126885
0.0126891
0.0126897
0.0126903
0.0126909
0.0126915
0.0126921
0.0125739
0.0125746
0.0125753
0.012576
0.0125767
0.0125774
0.0125781
0.0125788
0.0125794
0.0125801
0.0125808
0.0125814
0.0125821
0.0125827
0.0125834
0.012457
0.0124578
0.0124585
0.0124593
0.01246
0.0124607
0.0124615
0.0124622
0.0124629
0.0124636
0.0124643
0.0124651
0.0124658
0.0124665
0.0124671
0.0123323
0.0123331
0.0123339
0.0123347
0.0123355
0.0123363
0.012337
0.0123378
0.0123386
0.0123393
0.0123401
0.0123409
0.0123416
0.0123424
0.0123431
0.0121994
0.0122002
0.0122011
0.0122019
0.0122028
0.0122036
0.0122044
0.0122053
0.0122061
0.0122069
0.0122077
0.0122085
0.0122093
0.0122101
0.0122109
0.012058
0.0120589
0.0120598
0.0120607
0.0120616
0.0120625
0.0120634
0.0120642
0.0120651
0.012066
0.0120668
0.0120677
0.0120686
0.0120694
0.0120703
0.0119078
0.0119088
0.0119098
0.0119107
0.0119117
0.0119126
0.0119136
0.0119145
0.0119154
0.0119164
0.0119173
0.0119182
0.0119191
0.01192
0.0119209
0.0117487
0.0117498
0.0117508
0.0117518
0.0117528
0.0117538
0.0117548
0.0117558
0.0117568
0.0117578
0.0117588
0.0117597
0.0117607
0.0117617
0.0117626
0.0115805
0.0115816
0.0115827
0.0115838
0.0115849
0.0115859
0.011587
0.011588
0.0115891
0.0115901
0.0115912
0.0115922
0.0115932
0.0115943
0.0115953
0.0114031
0.0114043
0.0114054
0.0114066
0.0114077
0.0114089
0.01141
0.0114111
0.0114122
0.0114133
0.0114144
0.0114155
0.0114166
0.0114177
0.0114188
0.0112165
0.0112178
0.011219
0.0112202
0.0112214
0.0112226
0.0112238
0.011225
0.0112261
0.0112273
0.0112285
0.0112296
0.0112308
0.0112319
0.0112331
0.0110209
0.0110221
0.0110234
0.0110247
0.011026
0.0110272
0.0110285
0.0110297
0.011031
0.0110322
0.0110334
0.0110347
0.0110359
0.0110371
0.0110383
0.0108162
0.0108175
0.0108189
0.0108202
0.0108216
0.0108229
0.0108242
0.0108255
0.0108268
0.0108281
0.0108294
0.0108307
0.010832
0.0108333
0.0108345
0.0106028
0.0106042
0.0106056
0.010607
0.0106084
0.0106098
0.0106112
0.0106126
0.0106139
0.0106153
0.0106167
0.010618
0.0106194
0.0106207
0.0106221
0.0103809
0.0103824
0.0103839
0.0103854
0.0103868
0.0103883
0.0103898
0.0103912
0.0103926
0.0103941
0.0103955
0.0103969
0.0103983
0.0103998
0.0104012
0.0101512
0.0101527
0.0101543
0.0101558
0.0101573
0.0101589
0.0101604
0.0101619
0.0101634
0.0101649
0.0101664
0.0101679
0.0101694
0.0101708
0.0101723
0.00991409
0.00991571
0.00991732
0.00991892
0.00992052
0.00992211
0.00992369
0.00992527
0.00992684
0.0099284
0.00992996
0.00993152
0.00993306
0.0099346
0.00993614
0.00967019
0.00967187
0.00967355
0.00967522
0.00967688
0.00967853
0.00968018
0.00968182
0.00968346
0.00968508
0.00968671
0.00968832
0.00968993
0.00969154
0.00969314
0.00942017
0.00942192
0.00942366
0.00942539
0.00942711
0.00942883
0.00943054
0.00943224
0.00943394
0.00943563
0.00943732
0.00943899
0.00944067
0.00944233
0.00944399
0.00916481
0.00916662
0.00916842
0.00917021
0.009172
0.00917377
0.00917555
0.00917731
0.00917907
0.00918082
0.00918256
0.0091843
0.00918603
0.00918776
0.00918948
0.00890498
0.00890684
0.0089087
0.00891055
0.00891239
0.00891422
0.00891605
0.00891787
0.00891969
0.00892149
0.0089233
0.00892509
0.00892688
0.00892866
0.00893044
0.00864167
0.00864359
0.0086455
0.0086474
0.00864929
0.00865118
0.00865306
0.00865493
0.0086568
0.00865866
0.00866051
0.00866236
0.0086642
0.00866603
0.00866786
0.0083762
0.00837817
0.00838013
0.00838208
0.00838402
0.00838595
0.00838788
0.0083898
0.00839172
0.00839362
0.00839552
0.00839742
0.00839931
0.00840119
0.00840306
0.00810966
0.00811167
0.00811367
0.00811567
0.00811765
0.00811963
0.0081216
0.00812356
0.00812552
0.00812747
0.00812942
0.00813135
0.00813328
0.00813521
0.00813713
0.00784323
0.00784528
0.00784732
0.00784935
0.00785137
0.00785339
0.0078554
0.0078574
0.00785939
0.00786138
0.00786336
0.00786533
0.0078673
0.00786926
0.00787122
0.00757817
0.00758025
0.00758232
0.00758438
0.00758644
0.00758848
0.00759052
0.00759256
0.00759458
0.0075966
0.00759861
0.00760062
0.00760262
0.00760461
0.0076066
0.00731559
0.00731769
0.00731979
0.00732188
0.00732396
0.00732603
0.0073281
0.00733016
0.00733221
0.00733425
0.00733629
0.00733832
0.00734035
0.00734237
0.00734439
0.00705669
0.00705882
0.00706093
0.00706304
0.00706514
0.00706723
0.00706932
0.00707139
0.00707347
0.00707553
0.00707759
0.00707964
0.00708169
0.00708373
0.00708576
0.00680259
0.00680473
0.00680686
0.00680898
0.00681109
0.0068132
0.00681529
0.00681738
0.00681947
0.00682155
0.00682362
0.00682569
0.00682775
0.0068298
0.00683185
0.00655431
0.00655645
0.00655858
0.00656071
0.00656283
0.00656494
0.00656705
0.00656914
0.00657124
0.00657332
0.0065754
0.00657748
0.00657954
0.00658161
0.00658367
0.0063127
0.00631485
0.00631698
0.00631911
0.00632123
0.00632334
0.00632545
0.00632755
0.00632964
0.00633173
0.00633382
0.00633589
0.00633796
0.00634003
0.00634209
0.00607849
0.00608063
0.00608276
0.00608488
0.006087
0.00608911
0.00609121
0.00609331
0.0060954
0.00609749
0.00609957
0.00610164
0.00610371
0.00610578
0.00610784
0.00585224
0.00585436
0.00585648
0.00585859
0.00586069
0.00586279
0.00586488
0.00586697
0.00586905
0.00587113
0.0058732
0.00587527
0.00587733
0.00587939
0.00588144
0.00563477
0.00563684
0.00563891
0.00564097
0.00564303
0.00564509
0.00564714
0.00564918
0.00565123
0.00565327
0.00565531
0.00565734
0.00565937
0.0056614
0.00566343
0.00542644
0.00542838
0.00543033
0.00543228
0.00543424
0.00543619
0.00543814
0.0054401
0.00544206
0.00544401
0.00544597
0.00544793
0.00544989
0.00545186
0.00545382
0.00522489
0.00522672
0.00522855
0.00523039
0.00523224
0.0052341
0.00523596
0.00523783
0.00523971
0.00524159
0.00524348
0.00524538
0.00524728
0.00524919
0.0052511
0.00502943
0.00503113
0.00503285
0.00503459
0.00503634
0.00503811
0.00503989
0.00504169
0.00504349
0.00504531
0.00504714
0.00504898
0.00505083
0.00505269
0.00505456
0.00483868
0.00484028
0.0048419
0.00484355
0.00484522
0.00484691
0.00484863
0.00485037
0.00485212
0.0048539
0.00485569
0.00485749
0.00485932
0.00486115
0.004863
0.00465124
0.00465273
0.00465426
0.00465583
0.00465744
0.00465907
0.00466074
0.00466244
0.00466416
0.00466591
0.00466769
0.00466948
0.0046713
0.00467314
0.004675
0.00446533
0.00446669
0.00446815
0.00446966
0.00447122
0.00447283
0.00447448
0.00447616
0.00447789
0.00447964
0.00448143
0.00448325