/*--------------------------------*- C++ -*----------------------------------*\
  =========                 |
  \\      /  F ield         | OpenFOAM: The Open Source CFD Toolbox
   \\    /   O peration     | Website:  https://openfoam.org
    \\  /    A nd           | Version:  9
     \\/     M anipulation  |
\*---------------------------------------------------------------------------*/
FoamFile
{
    format      ascii;
    class       volVectorField;
    location    "0.01";
    object      U;
}
// * * * * * * * * * * * * * * * * * * * * * * * * * * * * * * * * * * * * * //

dimensions      [0 1 -1 0 0 0 0];

internalField   nonuniform List<vector> 
9689
(
(24.6888 -3.87545 -7.02399e-20)
(24.6896 -3.87334 -1.12609e-15)
(24.6902 -3.87096 1.10252e-15)
(24.6909 -3.86828 2.63772e-19)
(24.6916 -3.86533 -2.58547e-19)
(24.6922 -3.8621 -4.15401e-15)
(24.693 -3.8586 4.07535e-15)
(24.6937 -3.85482 0)
(24.6945 -3.85079 0)
(24.6953 -3.84648 -4.70855e-19)
(24.6962 -3.84192 0)
(24.6972 -3.83711 -4.54696e-19)
(24.6981 -3.83204 0)
(24.6991 -3.82673 0)
(24.7002 -3.82117 8.6494e-19)
(24.7013 -3.81538 0)
(24.7024 -3.80935 0)
(24.7035 -3.80302 0)
(24.7047 -3.7964 8.11983e-19)
(24.7059 -3.78957 0)
(24.7071 -3.78252 1.29073e-14)
(24.7084 -3.77526 -1.27184e-14)
(24.7097 -3.76779 0)
(24.711 -3.76012 1.23543e-14)
(24.7124 -3.75225 -1.21795e-14)
(24.7138 -3.74419 0)
(24.7152 -3.73595 0)
(24.7167 -3.72753 0)
(24.7183 -3.71894 1.15232e-14)
(24.7199 -3.71019 -1.13694e-14)
(24.7216 -3.70129 -6.84762e-19)
(24.7233 -3.69223 0)
(24.7251 -3.68305 -1.09291e-14)
(24.727 -3.67374 1.07891e-14)
(24.7289 -3.66427 0)
(24.7308 -3.65458 0)
(24.7327 -3.64467 1.03873e-14)
(24.7347 -3.63508 -1.02605e-14)
(24.7372 -3.62707 -1.10311e-18)
(24.7108 -3.91406 7.34513e-20)
(24.7148 -3.91286 -1.43806e-19)
(24.719 -3.9114 2.81703e-19)
(24.7232 -3.90969 -2.76056e-19)
(24.7274 -3.90773 8.11949e-19)
(24.7316 -3.90552 0)
(24.7357 -3.90305 0)
(24.7398 -3.90035 0)
(24.7439 -3.8974 -4.1154e-15)
(24.748 -3.89421 4.04137e-15)
(24.7522 -3.89078 9.69703e-19)
(24.7563 -3.8871 7.81029e-15)
(24.7604 -3.8832 -4.7718e-21)
(24.7646 -3.87905 -7.55234e-15)
(24.7687 -3.87467 -9.07019e-19)
(24.7728 -3.87006 1.78517e-18)
(24.777 -3.86522 -1.7572e-18)
(24.7811 -3.86015 0)
(24.7851 -3.85485 -6.97946e-15)
(24.7892 -3.84932 3.83461e-21)
(24.7932 -3.84358 3.72221e-21)
(24.7972 -3.83763 6.674e-15)
(24.8012 -3.83145 1.60568e-18)
(24.8052 -3.82502 7.91396e-19)
(24.809 -3.81835 -1.27833e-14)
(24.8129 -3.81148 1.26063e-14)
(24.8167 -3.80441 0)
(24.8204 -3.79716 1.22642e-14)
(24.8241 -3.78971 1.4712e-18)
(24.8278 -3.78208 -1.19401e-14)
(24.8314 -3.77427 1.17823e-14)
(24.835 -3.7663 -1.16269e-14)
(24.8385 -3.75816 0)
(24.8421 -3.74986 -1.3833e-18)
(24.8456 -3.74139 -1.1189e-14)
(24.849 -3.73273 1.10491e-14)
(24.8525 -3.72394 0)
(24.856 -3.71529 1.31571e-18)
(24.8596 -3.70696 1.15323e-18)
(24.7136 -3.93864 -3.15659e-16)
(24.7191 -3.93769 -6.18508e-16)
(24.7243 -3.93649 -1.21136e-15)
(24.7295 -3.93505 4.74954e-15)
(24.7347 -3.93337 -2.32941e-15)
(24.7398 -3.93145 2.2848e-15)
(24.7448 -3.9293 2.24251e-15)
(24.7499 -3.92692 -4.40372e-15)
(24.7549 -3.92431 -4.32441e-15)
(24.7599 -3.92147 8.50117e-15)
(24.7649 -3.91841 -8.3557e-15)
(24.7699 -3.91512 4.10612e-15)
(24.7749 -3.91162 4.03925e-15)
(24.78 -3.90789 -1.19208e-14)
(24.785 -3.90395 7.82204e-15)
(24.79 -3.89979 7.69321e-15)
(24.7949 -3.89542 -7.57573e-15)
(24.7999 -3.89084 1.8217e-18)
(24.8049 -3.88605 -7.34743e-15)
(24.8098 -3.88106 7.23994e-15)
(24.8147 -3.87586 0)
(24.8195 -3.87047 7.03207e-15)
(24.8244 -3.86488 -6.93148e-15)
(24.8291 -3.8591 -2.63308e-23)
(24.8339 -3.85313 0)
(24.8386 -3.84697 0)
(24.8432 -3.84063 -6.55604e-15)
(24.8478 -3.83413 6.46127e-15)
(24.8523 -3.82744 -1.55718e-18)
(24.8568 -3.82051 -1.53655e-18)
(24.8612 -3.81337 1.24262e-14)
(24.8655 -3.80607 -1.2264e-14)
(24.8698 -3.79862 -1.21053e-14)
(24.874 -3.79102 1.19561e-14)
(24.8782 -3.78327 0)
(24.8824 -3.77535 -1.16546e-14)
(24.8865 -3.76724 2.30245e-14)
(24.8907 -3.75913 -1.13673e-14)
(24.8951 -3.75144 0)
(24.7201 -3.98845 -3.29944e-16)
(24.7275 -3.988 3.15926e-19)
(24.7348 -3.98729 -1.2688e-15)
(24.742 -3.98633 1.24343e-15)
(24.7491 -3.98512 0)
(24.7561 -3.98368 -1.16888e-18)
(24.7631 -3.98199 0)
(24.7701 -3.98007 -1.12698e-18)
(24.777 -3.97792 -2.21439e-18)
(24.7839 -3.97553 -4.45698e-15)
(24.7907 -3.97291 4.38162e-15)
(24.7976 -3.97006 -2.1039e-18)
(24.8044 -3.96699 -4.23635e-15)
(24.8112 -3.9637 8.34062e-15)
(24.818 -3.96018 -4.10835e-15)
(24.8248 -3.95645 4.04237e-15)
(24.8315 -3.9525 3.97643e-15)
(24.8383 -3.94833 -1.9256e-18)
(24.8449 -3.94395 -1.54407e-14)
(24.8516 -3.93935 7.60944e-15)
(24.8582 -3.93455 -3.65973e-18)
(24.8648 -3.92955 -1.80363e-18)
(24.8713 -3.92434 -3.55608e-18)
(24.8777 -3.91892 -5.25943e-18)
(24.8841 -3.91331 -7.08495e-15)
(24.8904 -3.90751 6.98459e-15)
(24.8966 -3.90152 3.3643e-18)
(24.9028 -3.89533 3.31926e-18)
(24.9089 -3.88897 0)
(24.9149 -3.88242 6.61984e-15)
(24.9208 -3.8757 -6.38928e-18)
(24.9266 -3.8688 -6.45e-15)
(24.9323 -3.86173 0)
(24.9379 -3.85449 -3.07018e-18)
(24.9434 -3.84711 -1.24184e-14)
(24.9488 -3.83956 2.45325e-14)
(24.9541 -3.83183 -1.21174e-14)
(24.9593 -3.82395 -5.01735e-23)
(24.9643 -3.81603 0)
(24.7198 -4.04498 -3.37097e-19)
(24.7286 -4.04484 -1.35295e-15)
(24.7373 -4.04444 1.32701e-15)
(24.7459 -4.0438 -1.30087e-15)
(24.7543 -4.0429 1.27642e-15)
(24.7627 -4.04176 -2.50465e-15)
(24.771 -4.04038 4.92026e-15)
(24.7792 -4.03876 -2.41847e-15)
(24.7874 -4.03691 4.63951e-18)
(24.7955 -4.03482 0)
(24.8036 -4.03251 -4.59217e-15)
(24.8116 -4.02996 4.52127e-15)
(24.8196 -4.02719 -2.16993e-18)
(24.8276 -4.0242 0)
(24.8356 -4.02099 2.10212e-18)
(24.8435 -4.01756 0)
(24.8514 -4.01391 2.03836e-18)
(24.8593 -4.01005 -4.01569e-18)
(24.8671 -4.00598 4.05535e-15)
(24.8748 -4.0017 -3.9963e-15)
(24.8826 -3.99722 3.84278e-18)
(24.8902 -3.99253 7.7582e-15)
(24.8979 -3.98764 -1.52912e-14)
(24.9054 -3.98255 1.50902e-14)
(24.9129 -3.97727 -7.43622e-15)
(24.9203 -3.9718 0)
(24.9277 -3.96614 -7.24053e-15)
(24.935 -3.96029 7.14097e-15)
(24.9422 -3.95426 -3.44266e-18)
(24.9493 -3.94805 3.39795e-18)
(24.9563 -3.94167 6.8727e-15)
(24.9632 -3.93511 -6.78507e-15)
(24.97 -3.92839 0)
(24.9768 -3.9215 -6.61552e-15)
(24.9834 -3.91445 1.01854e-20)
(24.99 -3.90725 1.28938e-14)
(24.9964 -3.8999 -3.12049e-18)
(25.0028 -3.89234 -6.29756e-15)
(25.009 -3.88461 -2.64935e-18)
(24.7183 -4.11542 -7.20809e-16)
(24.7287 -4.11564 7.06203e-16)
(24.739 -4.11559 1.38511e-15)
(24.7492 -4.11528 -1.35894e-15)
(24.7592 -4.11472 0)
(24.7691 -4.1139 0)
(24.779 -4.11284 2.57403e-15)
(24.7887 -4.11152 -5.05354e-15)
(24.7984 -4.10996 2.48243e-15)
(24.808 -4.10817 0)
(24.8175 -4.10613 -4.80596e-15)
(24.8271 -4.10385 4.72588e-15)
(24.8365 -4.10134 2.27192e-18)
(24.8459 -4.0986 4.57778e-15)
(24.8553 -4.09563 -4.51156e-15)
(24.8646 -4.09243 0)
(24.8739 -4.08901 0)
(24.8831 -4.08536 4.3138e-15)
(24.8923 -4.08149 -4.15732e-18)
(24.9014 -4.07741 -4.18561e-15)
(24.9105 -4.07311 4.12206e-15)
(24.9195 -4.0686 -9.35217e-21)
(24.9284 -4.06388 -4.01559e-15)
(24.9373 -4.05896 0)
(24.9461 -4.05383 0)
(24.9548 -4.0485 0)
(24.9634 -4.04297 0)
(24.972 -4.03726 -7.49156e-15)
(24.9804 -4.03135 7.24327e-18)
(24.9888 -4.02525 7.30593e-15)
(24.997 -4.01897 0)
(25.0052 -4.01251 7.12841e-15)
(25.0132 -4.00588 -7.03225e-15)
(25.0211 -3.99907 6.78215e-18)
(25.0289 -3.9921 0)
(25.0366 -3.98497 5.26947e-23)
(25.0441 -3.9777 3.26846e-18)
(25.0516 -3.97025 -6.61667e-15)
(25.0588 -3.96261 5.66893e-15)
(24.7129 -4.19529 3.6673e-19)
(24.7249 -4.19582 7.36463e-16)
(24.7366 -4.19609 7.22479e-16)
(24.7482 -4.19609 -4.25437e-21)
(24.7596 -4.19581 -1.39098e-15)
(24.7709 -4.19528 -1.36751e-15)
(24.7821 -4.19449 1.34624e-15)
(24.7933 -4.19344 -2.57926e-18)
(24.8043 -4.19214 2.59674e-15)
(24.8152 -4.19059 -7.52195e-21)
(24.8261 -4.18879 -2.5124e-15)
(24.8369 -4.18675 0)
(24.8477 -4.18446 4.86456e-15)
(24.8583 -4.18194 -9.57874e-15)
(24.869 -4.17917 9.43979e-15)
(24.8795 -4.17618 -4.64339e-15)
(24.89 -4.17295 0)
(24.9005 -4.16949 0)
(24.9109 -4.1658 -4.34302e-18)
(24.9212 -4.16189 4.28123e-18)
(24.9314 -4.15776 4.3266e-15)
(24.9416 -4.15341 -4.26237e-15)
(24.9518 -4.14885 -4.10529e-18)
(24.9618 -4.14407 0)
(24.9718 -4.13909 0)
(24.9817 -4.1339 -8.07345e-15)
(24.9915 -4.1285 7.96729e-15)
(25.0012 -4.12291 -5.09975e-23)
(25.0108 -4.11712 -3.79014e-18)
(25.0203 -4.11114 0)
(25.0297 -4.10497 7.56604e-15)
(25.039 -4.09862 -3.66546e-18)
(25.0482 -4.09208 -1.4753e-14)
(25.0573 -4.08536 7.28743e-15)
(25.0663 -4.07847 0)
(25.0751 -4.07141 3.47228e-18)
(25.0838 -4.0642 7.02572e-15)
(25.0924 -4.05679 -6.94199e-15)
(25.1008 -4.04918 -5.91412e-15)
(24.7052 -4.28623 -1.95529e-16)
(24.7186 -4.28711 -3.82847e-16)
(24.7319 -4.28769 1.47304e-18)
(24.745 -4.288 7.39159e-16)
(24.7579 -4.28803 -1.41786e-18)
(24.7707 -4.28779 -1.42783e-15)
(24.7834 -4.28727 1.39643e-15)
(24.7959 -4.28648 5.38379e-18)
(24.8084 -4.28543 -2.64728e-18)
(24.8207 -4.28412 0)
(24.833 -4.28255 2.62403e-15)
(24.8452 -4.28072 -2.58274e-15)
(24.8573 -4.27863 -2.54522e-15)
(24.8694 -4.2763 2.50152e-15)
(24.8813 -4.27371 0)
(24.8932 -4.27088 4.85959e-15)
(24.9051 -4.2678 -9.57252e-15)
(24.9168 -4.26448 4.71956e-15)
(24.9285 -4.26093 4.43466e-23)
(24.9401 -4.25714 -8.95893e-18)
(24.9516 -4.25312 4.52326e-15)
(24.9631 -4.24887 -8.92232e-15)
(24.9744 -4.24439 8.60813e-18)
(24.9857 -4.23969 4.34151e-15)
(24.9969 -4.23477 -4.18339e-18)
(25.008 -4.22964 -4.2316e-15)
(25.019 -4.2243 1.19409e-20)
(25.0299 -4.21874 4.11059e-15)
(25.0407 -4.21299 -4.06602e-15)
(25.0514 -4.20703 8.02913e-15)
(25.062 -4.20087 -1.18926e-14)
(25.0725 -4.19452 1.56559e-14)
(25.0828 -4.18798 -1.54704e-14)
(25.093 -4.18126 1.96262e-20)
(25.1031 -4.17435 7.54619e-15)
(25.1131 -4.16728 -3.64031e-18)
(25.1229 -4.16003 -7.36644e-15)
(25.1326 -4.1526 7.27922e-15)
(25.1421 -4.14495 3.01245e-18)
(24.6943 -4.38711 4.06474e-16)
(24.7093 -4.38832 3.97691e-16)
(24.724 -4.38923 -7.86953e-16)
(24.7386 -4.38985 0)
(24.753 -4.39017 0)
(24.7672 -4.39021 2.90351e-18)
(24.7813 -4.38997 2.8544e-18)
(24.7953 -4.38944 1.43717e-15)
(24.8092 -4.38863 -1.41096e-15)
(24.823 -4.38755 0)
(24.8366 -4.3862 0)
(24.8502 -4.38458 -2.69837e-15)
(24.8637 -4.38268 9.714e-21)
(24.8771 -4.38053 2.61974e-15)
(24.8904 -4.37811 0)
(24.9036 -4.37544 -4.95743e-18)
(24.9168 -4.37251 -4.41809e-23)
(24.9298 -4.36932 4.8163e-18)
(24.9428 -4.36589 4.74862e-18)
(24.9556 -4.36221 4.68265e-18)
(24.9684 -4.35829 -4.72455e-15)
(24.9811 -4.35412 4.66954e-15)
(24.9937 -4.34973 -4.49449e-18)
(25.0062 -4.34509 0)
(25.0187 -4.34023 4.37647e-18)
(25.031 -4.33514 8.63894e-18)
(25.0432 -4.32984 -4.26375e-18)
(25.0553 -4.32431 4.20935e-18)
(25.0673 -4.31857 4.25579e-15)
(25.0791 -4.31262 -4.20241e-15)
(25.0909 -4.30646 4.05285e-18)
(25.1025 -4.3001 4.10297e-15)
(25.114 -4.29354 -4.0449e-15)
(25.1254 -4.28679 -3.90601e-18)
(25.1366 -4.27985 3.85893e-18)
(25.1477 -4.27272 3.8129e-18)
(25.1587 -4.26543 0)
(25.1695 -4.25793 7.62909e-15)
(25.1802 -4.2502 -6.42984e-15)
(24.6971 -4.49993 -8.29603e-16)
(24.7134 -4.50118 8.17092e-16)
(24.7295 -4.50212 7.99587e-16)
(24.7454 -4.50275 -7.85802e-16)
(24.7612 -4.50308 -7.2512e-24)
(24.7768 -4.50312 2.97318e-18)
(24.7922 -4.50285 1.49446e-15)
(24.8076 -4.5023 -1.47621e-15)
(24.8228 -4.50145 0)
(24.8379 -4.50032 2.85503e-15)
(24.8529 -4.4989 -2.80862e-15)
(24.8678 -4.4972 2.03409e-23)
(24.8826 -4.49523 -1.06558e-17)
(24.8973 -4.49297 -5.24993e-18)
(24.9119 -4.49045 0)
(24.9264 -4.48765 2.60122e-15)
(24.9408 -4.48459 -5.15945e-15)
(24.9551 -4.48126 2.54388e-15)
(24.9693 -4.47767 0)
(24.9834 -4.47382 -4.82437e-18)
(24.9974 -4.46972 -9.51914e-18)
(25.0113 -4.46537 4.69632e-18)
(25.0251 -4.46078 0)
(25.0388 -4.45594 0)
(25.0523 -4.45087 -4.51534e-18)
(25.0658 -4.44556 4.45768e-18)
(25.0791 -4.44002 0)
(25.0923 -4.43425 0)
(25.1054 -4.42827 0)
(25.1183 -4.42207 -4.23907e-18)
(25.1311 -4.41565 -4.28767e-15)
(25.1438 -4.40903 8.47127e-15)
(25.1563 -4.40221 -4.18463e-15)
(25.1687 -4.39518 -4.03772e-18)
(25.181 -4.38796 3.98975e-18)
(25.1931 -4.38057 -4.04134e-15)
(25.205 -4.37297 1.20683e-20)
(25.2168 -4.36514 3.34746e-15)
(24.6819 -4.62175 4.315e-16)
(24.6997 -4.62334 -4.23895e-16)
(24.7174 -4.62461 6.58264e-24)
(24.7348 -4.62556 -8.20637e-16)
(24.7521 -4.62619 8.03847e-16)
(24.7692 -4.62651 -3.09474e-18)
(24.7862 -4.62652 0)
(24.803 -4.62621 5.99359e-18)
(24.8198 -4.62561 1.51342e-15)
(24.8363 -4.6247 -2.97467e-15)
(24.8528 -4.62349 4.3947e-15)
(24.8692 -4.62198 -2.88063e-15)
(24.8854 -4.62018 5.55466e-18)
(24.9015 -4.61809 1.09488e-17)
(24.9175 -4.6157 -2.76832e-15)
(24.9334 -4.61304 2.72937e-15)
(24.9492 -4.61009 5.24647e-18)
(24.9649 -4.60687 -5.17441e-18)
(24.9805 -4.60337 0)
(24.9959 -4.5996 2.57318e-15)
(25.0113 -4.59557 -2.53901e-15)
(25.0265 -4.59127 2.50562e-15)
(25.0416 -4.58671 -2.47785e-15)
(25.0566 -4.5819 -4.77713e-18)
(25.0714 -4.57684 0)
(25.0862 -4.57154 0)
(25.1007 -4.56599 0)
(25.1152 -4.5602 -4.54081e-18)
(25.1295 -4.55418 -4.48479e-18)
(25.1437 -4.54793 0)
(25.1577 -4.54145 -4.3761e-18)
(25.1716 -4.53476 4.4185e-15)
(25.1854 -4.52784 -8.74837e-15)
(25.1989 -4.52072 4.32224e-15)
(25.2124 -4.5134 4.26706e-15)
(25.2257 -4.50588 4.10783e-18)
(25.2388 -4.49815 -1.39843e-20)
(25.2517 -4.49016 -3.40732e-18)
(24.6636 -4.75403 -2.23205e-16)
(24.6831 -4.75599 8.80816e-16)
(24.7023 -4.7576 -8.64198e-16)
(24.7214 -4.75888 8.51483e-16)
(24.7402 -4.75982 -8.3594e-16)
(24.7589 -4.76043 -1.64823e-15)
(24.7775 -4.76072 1.62216e-15)
(24.7959 -4.76067 -3.11895e-18)
(24.8141 -4.76031 1.56934e-15)
(24.8322 -4.75963 -1.55169e-15)
(24.8502 -4.75863 -1.52264e-15)
(24.8681 -4.75731 1.50032e-15)
(24.8858 -4.75569 2.96591e-15)
(24.9034 -4.75376 -1.14231e-17)
(24.9209 -4.75153 -2.87399e-15)
(24.9383 -4.749 0)
(24.9555 -4.74617 5.46977e-18)
(24.9727 -4.74305 0)
(24.9896 -4.73964 5.323e-18)
(25.0065 -4.73594 1.05046e-17)
(25.0233 -4.73197 0)
(25.0399 -4.72771 0)
(25.0563 -4.72319 -5.04974e-18)
(25.0727 -4.71839 -2.54746e-15)
(25.0889 -4.71334 1.09806e-20)
(25.1049 -4.70802 2.48852e-15)
(25.1208 -4.70244 0)
(25.1366 -4.69662 9.48128e-18)
(25.1522 -4.69054 4.68262e-18)
(25.1677 -4.68423 0)
(25.183 -4.67768 4.56991e-18)
(25.1981 -4.6709 9.03029e-18)
(25.2131 -4.66389 0)
(25.2279 -4.65665 0)
(25.2425 -4.64921 0)
(25.257 -4.64156 -4.41387e-15)
(25.2713 -4.63369 -4.24022e-18)
(25.2854 -4.62554 7.22589e-15)
(24.6421 -4.89695 -9.08642e-19)
(24.6633 -4.89928 0)
(24.6842 -4.90125 -1.75672e-18)
(24.7048 -4.90287 0)
(24.7254 -4.90414 8.68842e-16)
(24.7457 -4.90505 -8.56797e-16)
(24.7658 -4.90562 3.29478e-18)
(24.7858 -4.90585 -1.66431e-15)
(24.8057 -4.90574 1.63598e-15)
(24.8254 -4.90529 3.1477e-18)
(24.845 -4.90451 -3.1015e-18)
(24.8644 -4.9034 1.56497e-15)
(24.8837 -4.90196 -1.54564e-15)
(24.9029 -4.9002 1.18819e-17)
(24.9219 -4.89812 2.99942e-15)
(24.9408 -4.89573 -2.95241e-15)
(24.9595 -4.89302 -5.69919e-18)
(24.9782 -4.89001 -2.87875e-15)
(24.9966 -4.88669 2.83494e-15)
(25.015 -4.88306 -5.47483e-18)
(25.0332 -4.87915 2.76658e-15)
(25.0512 -4.87494 -2.7309e-15)
(25.0691 -4.87044 2.70124e-15)
(25.0869 -4.86566 -2.66183e-15)
(25.1045 -4.8606 -5.13355e-18)
(25.1219 -4.85526 0)
(25.1392 -4.84966 0)
(25.1563 -4.84379 -4.94568e-18)
(25.1733 -4.83766 0)
(25.1901 -4.83128 0)
(25.2067 -4.82464 -2.43675e-15)
(25.2232 -4.81776 2.40774e-15)
(25.2394 -4.81064 4.76779e-15)
(25.2555 -4.80329 -4.71176e-15)
(25.2714 -4.7957 -4.65669e-15)
(25.2871 -4.78791 4.61163e-15)
(25.3027 -4.77989 4.55394e-15)
(25.318 -4.77157 -3.74742e-15)
(24.6174 -5.0508 2.42308e-16)
(24.6402 -5.05353 0)
(24.6628 -5.05588 1.82399e-18)
(24.6853 -5.05785 -9.18896e-16)
(24.7075 -5.05945 9.02639e-16)
(24.7295 -5.06069 8.90357e-16)
(24.7514 -5.06155 -1.7569e-15)
(24.773 -5.06206 8.66882e-16)
(24.7946 -5.06221 3.32285e-18)
(24.8159 -5.06201 1.67305e-15)
(24.8371 -5.06146 -3.30409e-15)
(24.8582 -5.06055 1.63162e-15)
(24.8791 -5.05931 -1.60546e-15)
(24.8999 -5.05772 -6.17511e-18)
(24.9205 -5.0558 8.70618e-21)
(24.941 -5.05354 1.53405e-15)
(24.9613 -5.05096 0)
(24.9815 -5.04805 -5.85594e-18)
(25.0016 -5.04482 -5.77882e-18)
(25.0214 -5.04127 -5.70347e-18)
(25.0412 -5.03741 -2.88248e-15)
(25.0607 -5.03324 1.50556e-20)
(25.0801 -5.02877 2.80404e-15)
(25.0994 -5.024 2.77961e-15)
(25.1184 -5.01893 -2.73961e-15)
(25.1373 -5.01358 2.70571e-15)
(25.1561 -5.00794 -2.67251e-15)
(25.1746 -5.00202 -2.63478e-15)
(25.193 -4.99583 1.28232e-20)
(25.2112 -4.98937 5.14833e-15)
(25.2292 -4.98264 -5.09187e-15)
(25.247 -4.97566 4.92544e-18)
(25.2646 -4.96842 2.48612e-15)
(25.282 -4.96093 -4.79877e-18)
(25.2992 -4.9532 0)
(25.3163 -4.94526 -4.68808e-18)
(25.3331 -4.93707 0)
(25.3496 -4.92858 -3.80074e-18)
(24.5892 -5.21592 2.49383e-16)
(24.6139 -5.21906 -9.62001e-19)
(24.6383 -5.2218 0)
(24.6625 -5.22414 -1.86332e-18)
(24.6865 -5.22609 3.66887e-18)
(24.7103 -5.22766 0)
(24.7339 -5.22884 0)
(24.7574 -5.22963 8.97432e-16)
(24.7806 -5.23006 -8.8773e-16)
(24.8037 -5.2301 3.40419e-18)
(24.8267 -5.22978 0)
(24.8494 -5.2291 -3.30815e-18)
(24.8721 -5.22805 0)
(24.8945 -5.22664 3.21705e-18)
(24.9168 -5.22488 -1.63105e-15)
(24.939 -5.22277 1.60284e-15)
(24.9609 -5.22031 0)
(24.9828 -5.21751 6.09625e-18)
(25.0044 -5.21437 -1.53424e-15)
(25.0259 -5.21089 1.52035e-15)
(25.0472 -5.20709 -5.86274e-18)
(25.0684 -5.20296 5.7883e-18)
(25.0893 -5.19851 2.93202e-15)
(25.1101 -5.19375 -2.90107e-15)
(25.1307 -5.18868 5.5742e-18)
(25.1511 -5.1833 2.82437e-15)
(25.1714 -5.17762 -5.56893e-15)
(25.1914 -5.17165 2.75072e-15)
(25.2113 -5.16539 0)
(25.2309 -5.15884 1.04886e-17)
(25.2503 -5.15202 2.64799e-15)
(25.2696 -5.14492 -2.62696e-15)
(25.2886 -5.13756 0)
(25.3074 -5.12993 -2.56077e-15)
(25.326 -5.12205 5.06206e-15)
(25.3444 -5.11394 -2.50179e-15)
(25.3626 -5.10558 0)
(25.3805 -5.09689 0)
(24.5576 -5.39271 0)
(24.5841 -5.39627 9.97911e-19)
(24.6104 -5.39942 -5.02887e-16)
(24.6365 -5.40215 4.95105e-16)
(24.6624 -5.40446 -1.90453e-18)
(24.6881 -5.40636 -1.87591e-18)
(24.7135 -5.40786 9.42544e-16)
(24.7388 -5.40896 -9.32408e-16)
(24.7639 -5.40966 0)
(24.7888 -5.40997 0)
(24.8136 -5.40988 -3.48835e-18)
(24.8381 -5.40942 -1.76113e-15)
(24.8625 -5.40857 1.13681e-20)
(24.8867 -5.40735 1.70984e-15)
(24.9108 -5.40575 3.301e-18)
(24.9347 -5.40378 6.51382e-18)
(24.9584 -5.40145 6.42783e-18)
(24.9819 -5.39876 0)
(25.0053 -5.39571 0)
(25.0284 -5.39231 1.23628e-17)
(25.0514 -5.38856 6.10282e-18)
(25.0742 -5.38447 -1.54863e-15)
(25.0968 -5.38004 1.52331e-15)
(25.1192 -5.37528 1.17531e-17)
(25.1414 -5.3702 2.96591e-15)
(25.1635 -5.36479 -2.94111e-15)
(25.1853 -5.35907 0)
(25.2069 -5.35304 2.85909e-15)
(25.2282 -5.3467 -2.83033e-15)
(25.2494 -5.34006 -5.46211e-18)
(25.2704 -5.33314 -2.76882e-15)
(25.2911 -5.32592 2.7362e-15)
(25.3116 -5.31842 0)
(25.3319 -5.31065 5.20977e-18)
(25.3519 -5.30261 5.14923e-18)
(25.3717 -5.29433 2.6009e-15)
(25.3913 -5.28579 -2.57605e-15)
(25.4106 -5.2769 2.09546e-15)
(24.5224 -5.58161 -2.69174e-16)
(24.5509 -5.58562 5.29897e-16)
(24.5792 -5.58918 -2.58819e-16)
(24.6073 -5.5923 5.17789e-16)
(24.6351 -5.59499 -1.98052e-18)
(24.6627 -5.59724 -4.98604e-16)
(24.6902 -5.59907 7.67706e-18)
(24.7174 -5.60047 -9.68507e-16)
(24.7444 -5.60145 9.54721e-16)
(24.7712 -5.60202 9.41264e-16)
(24.7978 -5.60218 3.61901e-18)
(24.8243 -5.60194 -1.83071e-15)
(24.8505 -5.60129 9.06403e-16)
(24.8766 -5.60025 -1.78486e-15)
(24.9025 -5.59882 1.76104e-15)
(24.9282 -5.597 -1.01624e-17)
(24.9537 -5.59479 -1.71835e-15)
(24.979 -5.59221 1.68948e-15)
(25.0041 -5.58924 -1.66776e-15)
(25.0291 -5.58591 1.64009e-15)
(25.0538 -5.58222 -1.62571e-15)
(25.0783 -5.57816 1.60534e-15)
(25.1027 -5.57375 -1.58535e-15)
(25.1268 -5.56899 -6.1062e-18)
(25.1507 -5.56389 1.20925e-17)
(25.1743 -5.55845 3.05544e-15)
(25.1978 -5.55268 -3.02434e-15)
(25.221 -5.54658 1.49689e-15)
(25.244 -5.54017 2.94643e-15)
(25.2668 -5.53343 -2.9114e-15)
(25.2893 -5.5264 2.87693e-15)
(25.3116 -5.51905 -2.84863e-15)
(25.3337 -5.51142 -2.81525e-15)
(25.3555 -5.50349 1.6031e-20)
(25.377 -5.49528 2.73944e-15)
(25.3983 -5.48681 -2.70778e-15)
(25.4193 -5.47808 2.68188e-15)
(25.4401 -5.46899 -4.23185e-18)
(24.5142 -5.78757 0)
(24.5446 -5.79156 5.39056e-16)
(24.5748 -5.79508 -5.35171e-16)
(24.6047 -5.79815 2.0517e-18)
(24.6344 -5.80076 -5.15574e-16)
(24.6638 -5.80292 5.06184e-16)
(24.693 -5.80463 3.92911e-18)
(24.7221 -5.80591 9.91732e-16)
(24.7509 -5.80674 -7.46829e-21)
(24.7795 -5.80715 -1.92898e-15)
(24.8079 -5.80712 9.51352e-16)
(24.8361 -5.80667 -9.42175e-16)
(24.8642 -5.80581 9.25979e-16)
(24.892 -5.80454 0)
(24.9196 -5.80286 -8.98225e-16)
(24.947 -5.80078 8.90044e-16)
(24.9742 -5.79829 0)
(25.0012 -5.79542 -6.77626e-18)
(25.028 -5.79216 -6.69045e-18)
(25.0545 -5.78851 -6.60638e-18)
(25.0809 -5.78448 0)
(25.107 -5.78009 -6.44318e-18)
(25.1329 -5.77532 -1.62281e-15)
(25.1585 -5.7702 1.60298e-15)
(25.184 -5.76472 -1.58971e-15)
(25.2091 -5.75889 6.14545e-18)
(25.2341 -5.75272 -6.05085e-18)
(25.2588 -5.74621 5.99877e-18)
(25.2832 -5.73938 1.5149e-15)
(25.3074 -5.73222 -1.49113e-15)
(25.3313 -5.72474 1.47936e-15)
(25.355 -5.71696 1.46773e-15)
(25.3783 -5.70886 1.44495e-15)
(25.4015 -5.70047 -2.86193e-15)
(25.4243 -5.69182 0)
(25.4469 -5.68289 5.45057e-18)
(25.4691 -5.67358 -4.38275e-18)
(24.4741 -6.00266 5.69812e-16)
(24.5067 -6.00708 2.19035e-18)
(24.539 -6.01101 -2.76547e-16)
(24.5711 -6.01446 0)
(24.6029 -6.01743 0)
(24.6345 -6.01992 -5.31753e-16)
(24.6659 -6.02195 5.18202e-16)
(24.6971 -6.02351 4.0238e-18)
(24.728 -6.02461 3.96862e-18)
(24.7587 -6.02526 -1.00216e-15)
(24.7892 -6.02546 9.8866e-16)
(24.8195 -6.02521 -9.7545e-16)
(24.8495 -6.02452 1.92885e-15)
(24.8794 -6.0234 -9.49924e-16)
(24.909 -6.02185 0)
(24.9384 -6.01988 0)
(24.9676 -6.01749 -9.13644e-16)
(24.9965 -6.0147 -8.8795e-16)
(25.0252 -6.01149 1.78835e-15)
(25.0537 -6.00789 1.16466e-22)
(25.0819 -6.00389 -1.73726e-15)
(25.1099 -5.99949 6.71537e-18)
(25.1377 -5.99472 1.68817e-15)
(25.1652 -5.98956 -6.53947e-18)
(25.1924 -5.98404 0)
(25.2194 -5.97814 0)
(25.2461 -5.97189 -1.61427e-15)
(25.2726 -5.96529 1.58255e-15)
(25.2988 -5.95834 0)
(25.3247 -5.95105 -1.55739e-15)
(25.3503 -5.94343 1.04565e-20)
(25.3756 -5.93549 1.51504e-15)
(25.4007 -5.92722 1.50318e-15)
(25.4255 -5.91864 -1.47988e-15)
(25.4499 -5.90978 -1.46268e-15)
(25.4741 -5.90065 2.89152e-15)
(25.4979 -5.89111 -2.319e-15)
(24.4305 -6.23141 -1.15407e-18)
(24.4654 -6.23627 2.88852e-16)
(24.5 -6.24061 -2.86931e-16)
(24.5344 -6.24444 0)
(24.5685 -6.24777 5.57717e-16)
(24.6024 -6.2506 -5.45659e-16)
(24.636 -6.25293 0)
(24.6694 -6.25478 -8.35887e-18)
(24.7026 -6.25615 -5.31847e-16)
(24.7355 -6.25704 5.20641e-16)
(24.7682 -6.25745 -1.0274e-15)
(24.8006 -6.2574 1.00986e-15)
(24.8328 -6.25689 0)
(24.8648 -6.25592 0)
(24.8965 -6.2545 3.80763e-18)
(24.928 -6.25264 9.62273e-16)
(24.9592 -6.25033 -9.50049e-16)
(24.9902 -6.24759 -9.41715e-16)
(25.021 -6.24443 3.62592e-18)
(25.0515 -6.24085 9.2191e-16)
(25.0817 -6.23685 9.03434e-16)
(25.1117 -6.23245 -8.85353e-16)
(25.1414 -6.22766 6.88587e-18)
(25.1708 -6.22246 6.8022e-18)
(25.2 -6.21688 -6.71968e-18)
(25.2289 -6.21091 -1.70615e-15)
(25.2575 -6.20457 1.6857e-15)
(25.2858 -6.19786 1.66554e-15)
(25.3138 -6.19079 -1.64573e-15)
(25.3415 -6.18336 -6.32762e-18)
(25.3689 -6.17559 0)
(25.396 -6.16747 6.17942e-18)
(25.4228 -6.15902 6.10676e-18)
(25.4492 -6.15023 0)
(25.4754 -6.14116 -5.96507e-18)
(25.5012 -6.13181 1.17912e-17)
(25.5267 -6.12204 1.20279e-15)
(24.3836 -6.4744 4.60799e-16)
(24.4209 -6.47968 -3.0319e-16)
(24.458 -6.48443 -2.326e-18)
(24.4948 -6.48864 -2.29342e-18)
(24.5313 -6.49232 0)
(24.5676 -6.49548 -2.23063e-18)
(24.6036 -6.49812 -5.63277e-16)
(24.6393 -6.50025 1.11572e-15)
(24.6748 -6.50187 -5.48267e-16)
(24.71 -6.50299 -5.40986e-16)
(24.745 -6.50362 5.3386e-16)
(24.7797 -6.50376 1.05785e-15)
(24.8142 -6.50341 -2.07601e-15)
(24.8484 -6.50259 1.02662e-15)
(24.8823 -6.50129 -1.01741e-15)
(24.916 -6.49953 1.00056e-15)
(24.9495 -6.49731 0)
(24.9826 -6.49463 -3.81055e-18)
(25.0155 -6.49151 -7.3971e-23)
(25.0481 -6.48794 9.55066e-16)
(25.0804 -6.48394 -9.32274e-16)
(25.1125 -6.47951 -9.35318e-16)
(25.1442 -6.47466 9.09573e-16)
(25.1757 -6.4694 -7.07477e-18)
(25.2069 -6.46374 6.98925e-18)
(25.2377 -6.45768 1.76765e-15)
(25.2683 -6.45123 -1.75325e-15)
(25.2985 -6.4444 -1.73225e-15)
(25.3284 -6.4372 1.7116e-15)
(25.358 -6.42962 -1.67808e-15)
(25.3873 -6.42168 -6.48977e-18)
(25.4162 -6.41338 -6.41323e-18)
(25.4448 -6.40473 1.61928e-15)
(25.473 -6.39574 0)
(25.501 -6.38644 1.58765e-15)
(25.5285 -6.37686 -1.57521e-15)
(25.5557 -6.36685 -4.86405e-18)
(24.3334 -6.73218 1.24148e-18)
(24.3734 -6.73788 1.22402e-18)
(24.413 -6.74302 2.41397e-18)
(24.4524 -6.7476 2.38072e-18)
(24.4914 -6.75163 0)
(24.5302 -6.75511 0)
(24.5687 -6.75804 -5.85072e-16)
(24.6069 -6.76044 5.77299e-16)
(24.6449 -6.76231 4.45055e-18)
(24.6825 -6.76366 0)
(24.7199 -6.76448 -5.5487e-16)
(24.757 -6.7648 1.09108e-15)
(24.7939 -6.76461 -5.44845e-16)
(24.8304 -6.76392 0)
(24.8667 -6.76273 1.04967e-15)
(24.9027 -6.76106 -1.04046e-15)
(24.9384 -6.75891 0)
(24.9738 -6.75628 0)
(25.009 -6.75319 -8.48157e-23)
(25.0438 -6.74963 9.85605e-16)
(25.0783 -6.74563 -1.95838e-15)
(25.1125 -6.74117 9.6153e-16)
(25.1464 -6.73628 -9.53502e-16)
(25.18 -6.73095 9.41912e-16)
(25.2133 -6.7252 -9.37758e-16)
(25.2462 -6.71903 9.1926e-16)
(25.2788 -6.71245 9.01091e-16)
(25.311 -6.70547 -1.78757e-15)
(25.343 -6.6981 8.86556e-16)
(25.3745 -6.69035 0)
(25.4057 -6.68222 1.3524e-17)
(25.4366 -6.67372 6.68176e-18)
(25.4671 -6.66485 0)
(25.4972 -6.65563 6.52417e-18)
(25.5269 -6.6461 -1.65047e-15)
(25.5563 -6.63628 1.24699e-20)
(25.5853 -6.62601 1.29425e-15)
(24.323 -7.01142 -1.63863e-16)
(24.3653 -7.01694 1.57866e-16)
(24.4074 -7.02188 -2.47183e-18)
(24.4491 -7.02624 -3.12147e-16)
(24.4905 -7.03002 -2.40286e-18)
(24.5316 -7.03323 9.11761e-16)
(24.5725 -7.03589 -5.97525e-16)
(24.613 -7.03799 -6.01291e-16)
(24.6532 -7.03955 5.88935e-16)
(24.6932 -7.04056 5.8133e-16)
(24.7328 -7.04104 -1.13439e-15)
(24.7722 -7.04099 5.66534e-16)
(24.8112 -7.04042 5.59321e-16)
(24.8499 -7.03933 -5.39405e-16)
(24.8883 -7.03773 -4.22701e-18)
(24.9264 -7.03564 4.17404e-18)
(24.9642 -7.03305 1.05524e-15)
(25.0017 -7.02997 -1.05029e-15)
(25.0389 -7.02641 -1.02926e-15)
(25.0757 -7.02238 1.01264e-15)
(25.1122 -7.01789 3.92246e-18)
(25.1483 -7.01293 -3.87444e-18)
(25.1841 -7.00753 3.82747e-18)
(25.2196 -7.00169 -9.60333e-16)
(25.2547 -6.99541 9.63657e-16)
(25.2894 -6.9887 7.38007e-18)
(25.3238 -6.98158 -7.29096e-18)
(25.3578 -6.97404 -9.22036e-16)
(25.3914 -6.96611 9.10982e-16)
(25.4246 -6.95778 -7.03188e-18)
(25.4575 -6.94906 8.893e-16)
(25.4899 -6.93997 -8.71822e-16)
(25.522 -6.93049 -6.78293e-18)
(25.5537 -6.92069 -1.71571e-15)
(25.5849 -6.91061 3.39058e-15)
(25.6158 -6.90007 -1.03086e-20)
(24.27 -7.30085 2.63926e-18)
(24.3152 -7.30673 1.69124e-16)
(24.36 -7.312 2.56726e-18)
(24.4046 -7.31667 -3.21728e-16)
(24.4488 -7.32074 2.50373e-18)
(24.4927 -7.32422 3.59202e-21)
(24.5363 -7.32712 3.06875e-16)
(24.5795 -7.32943 4.80829e-18)
(24.6224 -7.33118 -4.74664e-18)
(24.6651 -7.33236 5.99803e-16)
(24.7073 -7.33299 -1.18435e-15)
(24.7493 -7.33306 5.80103e-16)
(24.7909 -7.33259 -9.02002e-18)
(24.8322 -7.33159 -5.74468e-16)
(24.8732 -7.33005 5.71672e-16)
(24.9138 -7.32799 -1.10208e-22)
(24.9541 -7.32542 0)
(24.9941 -7.32235 4.23552e-18)
(25.0337 -7.31877 0)
(25.0729 -7.3147 1.05772e-15)
(25.1118 -7.31015 -2.08543e-15)
(25.1503 -7.30512 1.03198e-15)
(25.1884 -7.29963 1.01939e-15)
(25.2261 -7.29368 -1.00306e-15)
(25.2635 -7.28727 0)
(25.3005 -7.28042 0)
(25.337 -7.27314 -9.63215e-16)
(25.3732 -7.26543 9.59076e-16)
(25.409 -7.25731 0)
(25.4443 -7.24877 -3.65646e-18)
(25.4793 -7.23984 -9.24787e-16)
(25.5138 -7.2305 1.81304e-15)
(25.5479 -7.22078 -7.05992e-18)
(25.5815 -7.21071 -1.78361e-15)
(25.6148 -7.20037 7.59023e-21)
(25.6476 -7.18955 6.88643e-16)
(24.2147 -7.60666 -2.40263e-23)
(24.2628 -7.61289 0)
(24.3107 -7.61848 2.66722e-18)
(24.3582 -7.62344 -2.63257e-18)
(24.4053 -7.62778 3.32607e-16)
(24.4521 -7.6315 -2.56904e-18)
(24.4986 -7.63462 -3.21602e-16)
(24.5447 -7.63713 3.17504e-16)
(24.5905 -7.63905 -3.15949e-16)
(24.6359 -7.64038 -9.74854e-18)
(24.681 -7.64114 6.16039e-16)
(24.7257 -7.64132 -6.08299e-16)
(24.7701 -7.64094 4.69275e-18)
(24.8141 -7.64 0)
(24.8577 -7.63851 -4.57622e-18)
(24.901 -7.63648 -1.28125e-22)
(24.9439 -7.63391 -4.46314e-18)
(24.9864 -7.63082 0)
(25.0286 -7.62721 0)
(25.0703 -7.62309 -4.30003e-18)
(25.1117 -7.61847 -8.49464e-18)
(25.1526 -7.61336 4.19536e-18)
(25.1932 -7.60776 8.28799e-18)
(25.2334 -7.60169 -4.09347e-18)
(25.2731 -7.59514 0)
(25.3124 -7.58814 3.99417e-18)
(25.3513 -7.58069 0)
(25.3897 -7.57279 0)
(25.4278 -7.56447 -3.8502e-18)
(25.4653 -7.55572 3.80355e-18)
(25.5024 -7.54655 9.65614e-16)
(25.5391 -7.53697 7.41429e-18)
(25.5753 -7.52698 -9.31295e-16)
(25.6111 -7.51664 0)
(25.6464 -7.50603 9.15929e-16)
(25.6812 -7.49495 -1.42978e-15)
(24.1573 -7.92934 -9.38954e-17)
(24.2087 -7.93589 0)
(24.2596 -7.94178 1.74654e-16)
(24.3102 -7.94701 -1.75157e-16)
(24.3605 -7.9516 2.7019e-18)
(24.4103 -7.95554 6.48791e-23)
(24.4598 -7.95886 -2.63395e-18)
(24.5089 -7.96155 2.60087e-18)
(24.5577 -7.96363 3.28729e-16)
(24.6061 -7.96509 -6.41626e-16)
(24.6541 -7.96596 5.01271e-18)
(24.7017 -7.96623 3.16565e-16)
(24.7489 -7.96592 0)
(24.7958 -7.96503 -6.17455e-16)
(24.8422 -7.96357 6.09793e-16)
(24.8883 -7.96155 -6.0693e-16)
(24.9339 -7.95897 4.65389e-18)
(24.9791 -7.95586 5.87436e-16)
(25.024 -7.9522 0)
(25.0684 -7.94802 4.47702e-18)
(25.1124 -7.94332 4.42199e-18)
(25.1559 -7.93811 0)
(25.199 -7.93239 -4.31413e-18)
(25.2417 -7.92619 -5.45429e-16)
(25.2839 -7.9195 4.21486e-18)
(25.3257 -7.91233 5.27998e-16)
(25.367 -7.9047 0)
(25.4078 -7.89661 -4.05615e-18)
(25.4482 -7.88808 4.00661e-18)
(25.4881 -7.8791 -3.95733e-18)
(25.5275 -7.8697 -7.81774e-18)
(25.5664 -7.85987 0)
(25.6048 -7.84961 0)
(25.6427 -7.83899 3.76644e-18)
(25.6802 -7.82812 -3.72005e-18)
(25.7171 -7.81676 -2.90014e-18)
(24.1529 -8.27617 -1.45987e-18)
(24.2072 -8.28233 0)
(24.2611 -8.28781 -1.7933e-16)
(24.3145 -8.29262 1.77082e-16)
(24.3676 -8.29677 -3.52505e-16)
(24.4203 -8.30027 7.07189e-16)
(24.4726 -8.30312 -3.46492e-16)
(24.5244 -8.30533 -2.67331e-18)
(24.5759 -8.30692 -5.28044e-18)
(24.627 -8.30788 -3.38978e-16)
(24.6776 -8.30823 5.15479e-18)
(24.7279 -8.30797 3.2047e-16)