/*--------------------------------*- C++ -*----------------------------------*\
  =========                 |
  \\      /  F ield         | OpenFOAM: The Open Source CFD Toolbox
   \\    /   O peration     | Website:  https://openfoam.org
    \\  /    A nd           | Version:  9
     \\/     M anipulation  |
\*---------------------------------------------------------------------------*/
FoamFile
{
    format      ascii;
    class       surfaceScalarField;
    location    "0.0225";
    object      phi;
}
// * * * * * * * * * * * * * * * * * * * * * * * * * * * * * * * * * * * * * //

dimensions      [1 0 -1 0 0 0 0];

internalField   nonuniform List<scalar> 
14152
(
-9.43459e-05
-0.262206
-7.56173e-05
-0.27824
-0.291057
-0.291051
3.18113e-05
-0.291045
3.18886e-05
-0.291039
3.1966e-05
-0.291033
3.20434e-05
-0.291028
3.21214e-05
-0.291022
3.21984e-05
-0.291016
3.22764e-05
-0.291011
3.23544e-05
-0.291005
3.24319e-05
-0.291
3.25095e-05
-0.290995
3.25874e-05
-0.29099
3.2665e-05
-0.290985
3.2743e-05
-0.29098
3.28206e-05
-0.290975
3.28986e-05
-0.29097
3.29761e-05
-0.290965
3.30542e-05
-0.290961
3.31321e-05
-0.290956
3.32101e-05
-0.290952
3.32876e-05
-0.290947
3.33657e-05
-0.290943
3.34431e-05
-0.290939
3.35216e-05
-0.290934
3.35991e-05
-0.29093
3.36775e-05
-0.290926
3.37549e-05
-0.290922
3.38328e-05
-0.290919
3.39108e-05
-0.290915
3.39886e-05
-0.290911
3.40666e-05
-0.290908
3.41444e-05
-0.290904
3.42223e-05
-0.290901
3.43002e-05
-0.290897
3.4378e-05
-0.290894
3.44559e-05
-0.290891
3.45342e-05
-0.290888
3.46116e-05
-0.290885
3.46898e-05
-0.290882
3.47676e-05
-0.290879
3.48454e-05
-0.290876
3.49237e-05
-0.290874
3.50015e-05
-0.290871
3.50788e-05
-0.290869
3.51575e-05
-0.290866
3.52348e-05
-0.290864
3.5313e-05
-0.290862
3.53911e-05
-0.29086
3.54684e-05
-0.290857
3.55466e-05
-0.290855
3.56247e-05
-0.290854
3.57024e-05
-0.290852
3.57801e-05
-0.29085
3.58583e-05
-0.290848
3.59359e-05
-0.290847
3.6014e-05
-0.290845
3.60917e-05
-0.290844
3.61698e-05
-0.290842
3.62474e-05
-0.290841
3.63255e-05
-0.29084
3.64036e-05
-0.290839
3.64812e-05
-0.290838
3.65588e-05
-0.290837
3.66373e-05
-0.290836
3.67144e-05
-0.290835
3.67928e-05
-0.290835
3.68704e-05
-0.290834
3.69484e-05
-0.290834
3.70259e-05
-0.290833
3.71039e-05
-0.290833
3.71819e-05
-0.290833
3.72599e-05
-0.290832
3.73374e-05
-0.290832
3.74153e-05
-0.290832
3.74928e-05
-0.290832
3.75712e-05
-0.290833
3.76486e-05
-0.290833
3.77261e-05
-0.290833
3.78045e-05
-0.290834
3.78819e-05
-0.290834
3.79597e-05
-0.290835
3.80376e-05
-0.290835
3.81155e-05
-0.290836
3.81929e-05
-0.290837
3.82707e-05
-0.290838
3.83485e-05
-0.290839
3.84263e-05
-0.29084
3.85037e-05
-0.290841
3.85819e-05
-0.290842
3.86593e-05
3.8737e-05
-0.290844
-0.278235
2.72892e-05
-0.278231
2.74471e-05
-0.278226
2.76042e-05
-0.278222
2.77611e-05
-0.278218
2.79191e-05
-0.278214
2.80761e-05
-0.27821
2.82336e-05
-0.278206
2.83911e-05
-0.278202
2.85486e-05
-0.278198
2.87061e-05
-0.278194
2.8864e-05
-0.278191
2.9021e-05
-0.278187
2.91789e-05
-0.278184
2.93364e-05
-0.27818
2.94943e-05
-0.278177
2.96517e-05
-0.278174
2.98091e-05
-0.278171
2.99669e-05
-0.278167
3.01247e-05
-0.278164
3.02821e-05
-0.278162
3.04399e-05
-0.278159
3.05977e-05
-0.278156
3.07549e-05
-0.278153
3.09131e-05
-0.278151
3.10704e-05
-0.278148
3.12286e-05
-0.278146
3.13858e-05
-0.278143
3.15435e-05
-0.278141
3.17016e-05
-0.278139
3.18593e-05
-0.278137
3.20169e-05
-0.278135
3.21745e-05
-0.278133
3.23326e-05
-0.278131
3.24901e-05
-0.278129
3.26481e-05
-0.278127
3.28052e-05
-0.278126
3.29637e-05
-0.278124
3.31212e-05
-0.278123
3.32786e-05
-0.278121
3.34366e-05
-0.27812
3.35945e-05
-0.278119
3.37524e-05
-0.278117
3.39098e-05
-0.278116
3.40677e-05
-0.278115
3.42255e-05
-0.278114
3.43833e-05
-0.278113
3.45407e-05
-0.278113
3.46989e-05
-0.278112
3.48563e-05
-0.278111
3.50145e-05
-0.278111
3.51718e-05
-0.27811
3.533e-05
-0.27811
3.54872e-05
-0.27811
3.56454e-05
-0.27811
3.5803e-05
-0.278109
3.59607e-05
-0.278109
3.61183e-05
-0.278109
3.62764e-05
-0.278109
3.6434e-05
-0.27811
3.65916e-05
-0.27811
3.67492e-05
-0.27811
3.69072e-05
-0.278111
3.70648e-05
-0.278111
3.72223e-05
-0.278112
3.73802e-05
-0.278112
3.75377e-05
-0.278113
3.76957e-05
-0.278114
3.78531e-05
-0.278115
3.8011e-05
-0.278116
3.81685e-05
-0.278117
3.83263e-05
-0.278118
3.84841e-05
-0.278119
3.86415e-05
-0.278121
3.87989e-05
-0.278122
3.89567e-05
-0.278124
3.91145e-05
-0.278125
3.92718e-05
-0.278127
3.94295e-05
-0.278128
3.95872e-05
-0.27813
3.97445e-05
-0.278132
3.99022e-05
-0.278134
4.00599e-05
-0.278136
4.0217e-05
-0.278138
4.03747e-05
-0.27814
4.05323e-05
-0.278143
4.06895e-05
-0.278145
4.08475e-05
-0.278147
4.10042e-05
-0.27815
4.11622e-05
4.13198e-05
-0.278152
-0.262201
2.25322e-05
-0.262196
2.27645e-05
-0.262192
2.29963e-05
-0.262187
2.3229e-05
-0.262183
2.34613e-05
-0.262178
2.3694e-05
-0.262174
2.39264e-05
-0.26217
2.41586e-05
-0.262166
2.43914e-05
-0.262161
2.46241e-05
-0.262157
2.48568e-05
-0.262154
2.50891e-05
-0.26215
2.53223e-05
-0.262146
2.55545e-05
-0.262142
2.57876e-05
-0.262139
2.60202e-05
-0.262135
2.62528e-05
-0.262132
2.64858e-05
-0.262128
2.67189e-05
-0.262125
2.69509e-05
-0.262122
2.71843e-05
-0.262118
2.74168e-05
-0.262115
2.76497e-05
-0.262112
2.78826e-05
-0.262109
2.81155e-05
-0.262106
2.83483e-05
-0.262104
2.85811e-05
-0.262101
2.88139e-05
-0.262098
2.90471e-05
-0.262096
2.92798e-05
-0.262093
2.95125e-05
-0.262091
2.97456e-05
-0.262088
2.99783e-05
-0.262086
3.02114e-05
-0.262084
3.0444e-05
-0.262082
3.0677e-05
-0.26208
3.091e-05
-0.262078
3.1143e-05
-0.262076
3.13759e-05
-0.262074
3.16083e-05
-0.262072
3.18417e-05
-0.262071
3.20746e-05
-0.262069
3.23074e-05
-0.262067
3.25402e-05
-0.262066
3.2773e-05
-0.262065
3.30062e-05
-0.262063
3.3239e-05
-0.262062
3.34717e-05
-0.262061
3.37048e-05
-0.26206
3.39375e-05
-0.262059
3.41705e-05
-0.262058
3.44036e-05
-0.262057
3.46362e-05
-0.262056
3.48692e-05
-0.262056
3.51017e-05
-0.262055
3.53346e-05
-0.262054
3.5568e-05
-0.262054
3.58005e-05
-0.262054
3.60329e-05
-0.262053
3.62662e-05
-0.262053
3.6499e-05
-0.262053
3.67318e-05
-0.262053
3.69646e-05
-0.262053
3.71973e-05
-0.262053
3.743e-05
-0.262053
3.76627e-05
-0.262053
3.78954e-05
-0.262053
3.81285e-05
-0.262054
3.83606e-05
-0.262054
3.85937e-05
-0.262055
3.88267e-05
-0.262055
3.90587e-05
-0.262056
3.92917e-05
-0.262057
3.95242e-05
-0.262057
3.97571e-05
-0.262058
3.99895e-05
-0.262059
4.02224e-05
-0.26206
4.04548e-05
-0.262061
4.06871e-05
-0.262062
4.09199e-05
-0.262064
4.11522e-05
-0.262065
4.13849e-05
-0.262066
4.16176e-05
-0.262068
4.18498e-05
-0.262069
4.2082e-05
-0.262071
4.23146e-05
-0.262073
4.25473e-05
-0.262075
4.27794e-05
-0.262076
4.30119e-05
4.32436e-05
-0.262078
-0.247032
1.79284e-05
-0.247028
1.82319e-05
-0.247023
1.85344e-05
-0.247019
1.88379e-05
-0.247014
1.9141e-05
-0.24701
1.94444e-05
-0.247006
1.97478e-05
-0.247002
2.00508e-05
-0.246998
2.03547e-05
-0.246994
2.06576e-05
-0.24699
2.09614e-05
-0.246986
2.12647e-05
-0.246982
2.1568e-05
-0.246979
2.18717e-05
-0.246975
2.21754e-05
-0.246972
2.24787e-05
-0.246968
2.27822e-05
-0.246965
2.30859e-05
-0.246961
2.33895e-05
-0.246958
2.3693e-05
-0.246955
2.39969e-05
-0.246952
2.43004e-05
-0.246949
2.46038e-05
-0.246946
2.49077e-05
-0.246943
2.52115e-05
-0.24694
2.55148e-05
-0.246937
2.58186e-05
-0.246935
2.61228e-05
-0.246932
2.6426e-05
-0.246929
2.67297e-05
-0.246927
2.70337e-05
-0.246925
2.73369e-05
-0.246922
2.76414e-05
-0.24692
2.79444e-05
-0.246918
2.82488e-05
-0.246916
2.85523e-05
-0.246914
2.88557e-05
-0.246912
2.916e-05
-0.24691
2.94633e-05
-0.246908
2.97671e-05
-0.246906
3.00713e-05
-0.246904
3.03745e-05
-0.246903
3.06787e-05
-0.246901
3.09819e-05
-0.2469
3.12864e-05
-0.246898
3.15895e-05
-0.246897
3.18935e-05
-0.246896
3.21975e-05
-0.246894
3.25009e-05
-0.246893
3.28044e-05
-0.246892
3.31087e-05
-0.246891
3.34121e-05
-0.24689
3.37159e-05
-0.24689
3.40197e-05
-0.246889
3.43234e-05
-0.246888
3.46271e-05
-0.246887
3.49308e-05
-0.246887
3.52344e-05
-0.246886
3.5538e-05
-0.246886
3.58415e-05
-0.246886
3.61455e-05
-0.246885
3.6449e-05
-0.246885
3.67525e-05
-0.246885
3.70564e-05
-0.246885
3.73598e-05
-0.246885
3.76636e-05
-0.246885
3.7967e-05
-0.246885
3.82702e-05
-0.246885
3.85744e-05
-0.246886
3.88772e-05
-0.246886
3.91813e-05
-0.246886
3.94844e-05
-0.246887
3.97881e-05
-0.246887
4.00916e-05
-0.246888
4.03947e-05
-0.246889
4.06986e-05
-0.24689
4.10016e-05
-0.24689
4.1305e-05
-0.246891
4.16085e-05
-0.246892
4.19118e-05
-0.246893
4.22147e-05
-0.246894
4.25184e-05
-0.246896
4.28217e-05
-0.246897
4.31244e-05
-0.246898
4.34281e-05
-0.2469
4.37313e-05
-0.246901
4.40339e-05
-0.246903
4.43375e-05
-0.246904
4.46405e-05
4.49435e-05
-0.246906
-0.232379
1.409e-05
-0.232375
1.44599e-05
-0.232372
1.48302e-05
-0.232368
1.52004e-05
-0.232364
1.55706e-05
-0.232361
1.59408e-05
-0.232358
1.63115e-05
-0.232354
1.66816e-05
-0.232351
1.70517e-05
-0.232348
1.74227e-05
-0.232344
1.77928e-05
-0.232341
1.81632e-05
-0.232338
1.85337e-05
-0.232335
1.89045e-05
-0.232332
1.92749e-05
-0.23233
1.96457e-05
-0.232327
2.0016e-05
-0.232324
2.03871e-05
-0.232322
2.07573e-05
-0.232319
2.11279e-05
-0.232316
2.1499e-05
-0.232314
2.18695e-05
-0.232312
2.224e-05
-0.232309
2.26109e-05
-0.232307
2.29818e-05
-0.232305
2.33521e-05
-0.232303
2.37229e-05
-0.232301
2.40941e-05
-0.232299
2.44644e-05
-0.232297
2.48355e-05
-0.232295
2.52061e-05
-0.232293
2.55772e-05
-0.232292
2.59477e-05
-0.23229
2.63187e-05
-0.232289
2.66891e-05
-0.232287
2.70605e-05
-0.232286
2.74308e-05
-0.232284
2.78021e-05
-0.232283
2.81729e-05
-0.232282
2.85436e-05
-0.232281
2.89142e-05
-0.23228
2.92854e-05
-0.232278
2.96559e-05
-0.232278
3.0027e-05
-0.232277
3.03979e-05
-0.232276
3.07684e-05
-0.232275
3.11393e-05
-0.232274
3.15106e-05
-0.232274
3.1881e-05
-0.232273
3.22517e-05
-0.232273
3.26229e-05
-0.232272
3.29931e-05
-0.232272
3.33647e-05
-0.232272
3.37348e-05
-0.232271
3.41059e-05
-0.232271
3.44764e-05
-0.232271
3.48473e-05
-0.232271
3.52182e-05
-0.232271
3.55886e-05
-0.232271
3.59599e-05
-0.232272
3.63302e-05
-0.232272
3.67005e-05
-0.232272
3.70717e-05
-0.232273
3.74424e-05
-0.232273
3.78129e-05
-0.232273
3.81835e-05
-0.232274
3.85541e-05
-0.232275
3.89246e-05
-0.232275
3.92955e-05
-0.232276
3.96659e-05
-0.232277
4.00363e-05
-0.232278
4.04066e-05
-0.232279
4.07774e-05
-0.23228
4.11481e-05
-0.232281
4.15178e-05
-0.232282
4.1889e-05
-0.232284
4.22591e-05
-0.232285
4.26292e-05
-0.232286
4.29997e-05
-0.232288
4.33702e-05
-0.232289
4.37402e-05
-0.232291
4.41106e-05
-0.232293
4.44809e-05
-0.232294
4.48508e-05
-0.232296
4.52215e-05
-0.232298
4.55913e-05
-0.2323
4.5961e-05
-0.232302
4.63316e-05
-0.232304
4.67013e-05
4.7071e-05
-0.232306
-0.218789
-0.218785
1.08692e-05
-0.218781
1.1303e-05
-0.218778
1.17363e-05
-0.218775
1.21694e-05
-0.218771
1.26035e-05
-0.218768
1.30366e-05
-0.218765
1.34706e-05
-0.218762
1.39036e-05
-0.218758
1.43375e-05
-0.218755
1.47713e-05
-0.218753
1.52046e-05
-0.21875
1.56388e-05
-0.218747
1.6072e-05
-0.218744
1.65061e-05
-0.218741
1.69397e-05
-0.218739
1.73732e-05
-0.218736
1.78072e-05
-0.218734
1.82411e-05
-0.218731
1.8675e-05
-0.218729
1.91088e-05
-0.218726
1.9543e-05
-0.218724
1.99767e-05
-0.218722
2.04104e-05
-0.21872
2.08445e-05
-0.218718
2.12785e-05
-0.218716
2.17125e-05
-0.218714
2.2146e-05
-0.218712
2.25804e-05
-0.21871
2.30147e-05
-0.218708
2.34485e-05
-0.218707
2.38822e-05
-0.218705
2.43164e-05
-0.218703
2.47505e-05
-0.218702
2.51846e-05
-0.2187
2.56187e-05
-0.218699
2.60526e-05
-0.218698
2.64866e-05
-0.218697
2.69209e-05
-0.218695
2.73548e-05
-0.218694
2.7789e-05
-0.218693
2.82232e-05
-0.218692
2.8657e-05
-0.218691
2.90911e-05
-0.21869
2.95256e-05
-0.21869
2.99592e-05
-0.218689
3.03936e-05
-0.218688
3.08276e-05
-0.218687
3.12614e-05
-0.218687
3.16957e-05
-0.218686
3.21295e-05
-0.218686
3.25638e-05
-0.218686
3.29979e-05
-0.218685
3.34316e-05
-0.218685
3.38656e-05
-0.218685
3.43001e-05
-0.218685
3.47336e-05
-0.218685
3.5168e-05
-0.218685
3.56014e-05
-0.218685
3.60358e-05
-0.218685
3.647e-05
-0.218685
3.69033e-05
-0.218685
3.73375e-05
-0.218686
3.77716e-05
-0.218686
3.82052e-05
-0.218687
3.86392e-05
-0.218687
3.90732e-05
-0.218688
3.95067e-05
-0.218688
3.99405e-05
-0.218689
4.03744e-05
-0.21869
4.08082e-05
-0.218691
4.12419e-05
-0.218692
4.16756e-05
-0.218693
4.21089e-05
-0.218694
4.25429e-05
-0.218695
4.29765e-05
-0.218696
4.34105e-05
-0.218697
4.38435e-05
-0.218698
4.42774e-05
-0.2187
4.47103e-05
-0.218701
4.51441e-05
-0.218703
4.55778e-05
-0.218704
4.60111e-05
-0.218706
4.64443e-05
-0.218707
4.68775e-05
-0.218709
4.7311e-05
-0.218711
4.77445e-05
-0.218713
4.81771e-05
-0.218715
4.8611e-05
4.90435e-05
-0.218717
-0.205927
7.92926e-06
-0.205924
8.42243e-06
-0.205921
8.91595e-06
-0.205918
9.40944e-06
-0.205915
9.90281e-06
-0.205913
1.03956e-05
-0.20591
1.08894e-05
-0.205908
1.1383e-05
-0.205905
1.18761e-05
-0.205903
1.23697e-05
-0.205901
1.28627e-05
-0.205898
1.33565e-05
-0.205896
1.38504e-05
-0.205894
1.43437e-05
-0.205892
1.48374e-05
-0.20589
1.53305e-05
-0.205888
1.58246e-05
-0.205886
1.63182e-05
-0.205884
1.68116e-05
-0.205882
1.73055e-05
-0.20588
1.77994e-05
-0.205879
1.82927e-05
-0.205877
1.87869e-05
-0.205876
1.92801e-05
-0.205874
1.97742e-05
-0.205873
2.02683e-05
-0.205871
2.07617e-05
-0.20587
2.12557e-05
-0.205869
2.17496e-05
-0.205867
2.22434e-05
-0.205866
2.27372e-05
-0.205865
2.32314e-05
-0.205864
2.3725e-05
-0.205863
2.42186e-05
-0.205862
2.47131e-05
-0.205861
2.52066e-05
-0.205861
2.57005e-05
-0.20586
2.61948e-05
-0.205859
2.66887e-05
-0.205859
2.71824e-05
-0.205858
2.76761e-05
-0.205858
2.81703e-05
-0.205857
2.86643e-05
-0.205857
2.91583e-05
-0.205857
2.96518e-05
-0.205856
3.01462e-05
-0.205856
3.064e-05
-0.205856
3.11338e-05
-0.205856
3.1628e-05
-0.205856
3.21213e-05
-0.205856
3.26158e-05
-0.205856
3.31094e-05
-0.205856
3.36034e-05
-0.205856
3.40969e-05
-0.205857
3.45912e-05
-0.205857
3.50851e-05
-0.205858
3.55784e-05
-0.205858
3.60726e-05
-0.205859
3.65663e-05
-0.205859
3.70604e-05
-0.20586
3.75535e-05
-0.20586
3.8048e-05
-0.205861
3.8541e-05
-0.205862
3.90353e-05
-0.205863
3.95287e-05
-0.205864
4.00225e-05
-0.205865
4.05157e-05
-0.205866
4.10099e-05
-0.205867
4.15031e-05
-0.205868
4.19967e-05
-0.20587
4.24906e-05
-0.205871
4.29836e-05
-0.205872
4.34776e-05
-0.205874
4.39709e-05
-0.205875
4.44642e-05
-0.205877
4.49575e-05
-0.205878
4.54507e-05
-0.20588
4.59444e-05
-0.205882
4.64374e-05
-0.205883
4.6931e-05
-0.205885
4.7424e-05
-0.205887
4.79174e-05
-0.205889
4.84103e-05
-0.205891
4.89032e-05
-0.205893
4.93964e-05
-0.205895
4.98897e-05
-0.205898
5.03824e-05
-0.2059
5.08755e-05
5.13681e-05
-0.205902
-0.19381
5.17544e-06
-0.193808
5.72576e-06
-0.193805
6.27498e-06
-0.193802
6.82464e-06
-0.1938
7.37426e-06
-0.193797
7.92376e-06
-0.193795
8.47374e-06
-0.193793
9.0236e-06
-0.19379
9.57294e-06
-0.193788
1.01232e-05
-0.193786
1.06729e-05
-0.193784
1.12229e-05
-0.193782
1.17725e-05
-0.19378
1.2323e-05
-0.193778
1.28724e-05
-0.193776
1.34227e-05
-0.193774
1.39729e-05
-0.193772
1.45227e-05
-0.19377
1.50729e-05
-0.193769
1.56229e-05
-0.193767
1.61734e-05
-0.193765
1.67229e-05
-0.193764
1.72737e-05
-0.193762
1.78236e-05
-0.193761
1.83738e-05
-0.19376
1.89245e-05
-0.193758
1.94741e-05
-0.193757
2.00247e-05
-0.193756
2.05751e-05
-0.193755
2.11255e-05
-0.193754
2.16754e-05
-0.193753
2.22257e-05
-0.193752
2.27764e-05
-0.193751
2.33266e-05
-0.19375
2.38772e-05
-0.193749
2.44272e-05
-0.193749
2.49777e-05
-0.193748
2.55281e-05
-0.193747
2.60784e-05
-0.193747
2.66287e-05
-0.193746
2.7179e-05
-0.193746
2.77296e-05
-0.193746
2.82802e-05
-0.193745
2.88302e-05
-0.193745
2.93807e-05
-0.193745
2.9931e-05
-0.193745
3.04814e-05
-0.193744
3.10322e-05
-0.193744
3.15819e-05
-0.193744
3.21325e-05
-0.193744
3.26831e-05
-0.193745
3.32332e-05
-0.193745
3.37831e-05
-0.193745
3.4334e-05
-0.193745
3.48844e-05
-0.193746
3.54342e-05
-0.193746
3.59849e-05
-0.193747
3.6535e-05
-0.193747
3.70851e-05
-0.193748
3.76352e-05
-0.193748
3.81856e-05
-0.193749
3.87356e-05
-0.19375
3.92859e-05
-0.19375
3.98362e-05
-0.193751
4.03864e-05
-0.193752
4.09361e-05
-0.193753
4.14862e-05
-0.193754
4.20363e-05
-0.193755
4.25863e-05
-0.193756
4.31367e-05
-0.193758
4.36862e-05
-0.193759
4.42364e-05
-0.19376
4.47857e-05
-0.193762
4.53359e-05
-0.193763
4.5886e-05
-0.193765
4.64356e-05
-0.193766
4.69852e-05
-0.193768
4.75351e-05
-0.193769
4.80845e-05
-0.193771
4.86344e-05
-0.193773
4.91842e-05
-0.193775
4.97334e-05
-0.193776
5.02826e-05
-0.193778
5.08327e-05
-0.19378
5.13818e-05
-0.193782
5.19313e-05
-0.193784
5.24808e-05
-0.193787
5.30296e-05
5.35791e-05
-0.193789
-0.182397
2.99703e-06
-0.182395
3.59923e-06
-0.182393
4.20272e-06
-0.182391
4.80527e-06
-0.182389
5.40818e-06
-0.182387
6.01102e-06
-0.182385
6.61429e-06
-0.182383
7.21701e-06
-0.182382
7.82018e-06
-0.18238
8.42319e-06
-0.182378
9.02668e-06
-0.182377
9.62957e-06
-0.182375
1.02329e-05
-0.182374
1.08362e-05
-0.182372
1.14394e-05
-0.182371
1.20425e-05
-0.182369
1.2646e-05
-0.182368
1.32495e-05
-0.182367
1.38529e-05
-0.182366
1.44562e-05
-0.182365
1.50595e-05
-0.182364
1.56632e-05
-0.182363
1.62668e-05
-0.182362
1.68703e-05
-0.182361
1.74738e-05
-0.18236
1.80772e-05
-0.182359
1.86811e-05
-0.182358
1.92843e-05
-0.182358
1.9888e-05
-0.182357
2.04921e-05
-0.182356
2.10952e-05
-0.182356
2.16991e-05
-0.182355
2.23025e-05
-0.182355
2.29064e-05
-0.182355
2.35101e-05
-0.182354
2.41139e-05
-0.182354
2.47175e-05
-0.182354
2.5321e-05
-0.182354
2.59251e-05
-0.182354
2.65284e-05
-0.182354
2.71328e-05
-0.182354
2.77361e-05
-0.182354
2.83398e-05
-0.182354
2.89435e-05
-0.182354
2.9547e-05
-0.182354
3.01511e-05
-0.182354
3.0755e-05
-0.182355
3.13584e-05
-0.182355
3.19622e-05
-0.182356
3.25655e-05
-0.182356
3.31696e-05
-0.182357
3.37732e-05
-0.182357
3.43768e-05
-0.182358
3.49807e-05
-0.182359
3.55842e-05
-0.182359
3.61875e-05
-0.18236
3.67918e-05
-0.182361
3.7395e-05
-0.182362
3.79987e-05
-0.182363
3.86022e-05
-0.182364
3.92052e-05
-0.182365
3.98092e-05
-0.182366
4.04131e-05
-0.182367
4.10159e-05
-0.182369
4.16196e-05
-0.18237
4.22233e-05
-0.182371
4.2826e-05
-0.182373
4.343e-05
-0.182374
4.4033e-05
-0.182375
4.46364e-05
-0.182377
4.52398e-05
-0.182379
4.58431e-05
-0.18238
4.64459e-05
-0.182382
4.70495e-05
-0.182384
4.76522e-05
-0.182386
4.82556e-05
-0.182387
4.88587e-05
-0.182389
4.94616e-05
-0.182391
5.00645e-05
-0.182393
5.06672e-05
-0.182395
5.12705e-05
-0.182398
5.18731e-05
-0.1824
5.24762e-05
-0.182402
5.30788e-05
-0.182404
5.36813e-05
-0.182407
5.42842e-05
-0.182409
5.48866e-05
-0.182412
5.54894e-05
5.60915e-05
-0.182414
-0.171671
-0.171669
1.75482e-06
-0.171668
2.40817e-06
-0.171666
3.06098e-06
-0.171664
3.71421e-06
-0.171663
4.36742e-06
-0.171661
5.02051e-06
-0.171659
5.67405e-06
-0.171658
6.32748e-06
-0.171656
6.98088e-06
-0.171655
7.63416e-06
-0.171654
8.28789e-06
-0.171652
8.94155e-06
-0.171651
9.59509e-06
-0.17165
1.02486e-05
-0.171649
1.09025e-05
-0.171648
1.15558e-05
-0.171647
1.22095e-05
-0.171646
1.28638e-05
-0.171645
1.35173e-05
-0.171644
1.41709e-05
-0.171643
1.48248e-05
-0.171642
1.54787e-05
-0.171642
1.61329e-05
-0.171641
1.67867e-05
-0.17164
1.74403e-05
-0.17164
1.80944e-05
-0.171639
1.87484e-05
-0.171639
1.94023e-05
-0.171638
2.00566e-05
-0.171638
2.07104e-05
-0.171637
2.13645e-05
-0.171637
2.20187e-05
-0.171637
2.26726e-05
-0.171637
2.33266e-05
-0.171637
2.39805e-05
-0.171637
2.46348e-05
-0.171637
2.5289e-05
-0.171637
2.59427e-05
-0.171637
2.65972e-05
-0.171637
2.72513e-05
-0.171637
2.79052e-05
-0.171637
2.85596e-05
-0.171637
2.92134e-05
-0.171638
2.98676e-05
-0.171638
3.05217e-05
-0.171638
3.11757e-05
-0.171639
3.18302e-05
-0.171639
3.24837e-05
-0.17164
3.3138e-05
-0.171641
3.37923e-05
-0.171641
3.4446e-05
-0.171642
3.51001e-05
-0.171643
3.57542e-05
-0.171644
3.64086e-05
-0.171645
3.70621e-05
-0.171645
3.77164e-05
-0.171646
3.83702e-05
-0.171647
3.90239e-05
-0.171649
3.9678e-05
-0.17165
4.03321e-05
-0.171651
4.09855e-05
-0.171652
4.164e-05
-0.171653
4.22933e-05
-0.171655
4.29471e-05
-0.171656
4.36013e-05
-0.171657
4.42549e-05
-0.171659
4.49084e-05
-0.171661
4.5562e-05
-0.171662
4.62159e-05
-0.171664
4.68693e-05
-0.171665
4.7523e-05
-0.171667
4.81763e-05
-0.171669
4.88304e-05
-0.171671
4.94835e-05
-0.171673
5.01365e-05
-0.171675
5.07904e-05
-0.171677
5.14433e-05
-0.171679
5.20971e-05
-0.171681
5.27498e-05
-0.171683
5.34035e-05
-0.171685
5.40566e-05
-0.171687
5.47092e-05
-0.171689
5.53626e-05
-0.171692
5.60155e-05
-0.171694
5.66684e-05
-0.171697
5.73216e-05
-0.171699
5.79743e-05
5.8627e-05
-0.171702
-0.161597
4.05385e-07
-0.161596
1.10564e-06
-0.161595
1.80628e-06
-0.161594
2.50738e-06
-0.161593
3.20789e-06
-0.161591
3.90929e-06
-0.16159
4.60969e-06
-0.161589
5.31094e-06
-0.161588
6.01163e-06
-0.161587
6.7127e-06
-0.161587
7.41377e-06
-0.161586
8.11517e-06
-0.161585
8.81653e-06
-0.161584
9.5173e-06
-0.161584
1.02185e-05
-0.161583
1.09201e-05
-0.161582
1.16216e-05
-0.161582
1.23226e-05
-0.161581
1.30239e-05
-0.161581
1.37257e-05
-0.16158
1.44269e-05
-0.16158
1.51285e-05
-0.16158
1.58295e-05
-0.16158
1.65315e-05
-0.161579
1.72328e-05
-0.161579
1.79346e-05
-0.161579
1.86363e-05
-0.161579
1.93375e-05
-0.161579
2.00395e-05
-0.161579
2.0741e-05
-0.161579
2.14428e-05
-0.161579
2.21442e-05
-0.161579
2.28459e-05
-0.16158
2.3548e-05
-0.16158
2.42491e-05
-0.16158
2.49511e-05
-0.161581
2.5653e-05
-0.161581
2.63548e-05
-0.161581
2.7056e-05
-0.161582
2.77582e-05
-0.161583
2.84598e-05
-0.161583
2.91618e-05
-0.161584
2.98633e-05
-0.161584
3.05647e-05
-0.161585
3.12669e-05
-0.161586
3.19686e-05
-0.161587
3.26702e-05
-0.161588
3.33718e-05
-0.161589
3.40737e-05
-0.16159
3.47756e-05
-0.161591
3.5477e-05
-0.161592
3.61787e-05
-0.161593
3.68804e-05
-0.161594
3.75824e-05
-0.161595
3.82834e-05
-0.161597
3.89854e-05
-0.161598
3.96868e-05
-0.161599
4.03885e-05
-0.161601
4.10902e-05
-0.161602
4.17914e-05
-0.161604
4.24934e-05
-0.161605
4.31944e-05
-0.161607
4.38958e-05
-0.161608
4.45977e-05
-0.16161
4.52989e-05
-0.161612
4.60001e-05
-0.161614
4.67018e-05
-0.161616
4.74028e-05
-0.161617
4.81043e-05
-0.161619
4.88051e-05
-0.161621
4.95065e-05
-0.161623
5.02077e-05
-0.161625
5.09089e-05
-0.161628
5.161e-05
-0.16163
5.23111e-05
-0.161632
5.3012e-05
-0.161634
5.37129e-05
-0.161637
5.44137e-05
-0.161639
5.51144e-05
-0.161641
5.58156e-05
-0.161644
5.65162e-05
-0.161646
5.72167e-05
-0.161649
5.79172e-05
-0.161651
5.86181e-05
-0.161654
5.93189e-05
-0.161657
6.00192e-05
-0.16166
6.07193e-05
6.14198e-05
-0.161662
-0.15213
-6.07003e-07
-0.152129
1.38549e-07
-0.152128
8.83919e-07
-0.152127
1.62976e-06
-0.152126
2.37553e-06
-0.152125
3.12119e-06
-0.152124
3.86731e-06
-0.152124
4.61327e-06
-0.152123
5.35924e-06
-0.152122
6.10501e-06
-0.152122
6.85133e-06
-0.152121
7.59744e-06
-0.152121
8.34352e-06
-0.15212
9.08948e-06
-0.15212
9.8359e-06
-0.15212
1.05822e-05
-0.152119
1.13284e-05
-0.152119
1.20751e-05
-0.152119
1.28211e-05
-0.152119
1.35676e-05
-0.152119
1.43144e-05
-0.152119
1.50602e-05
-0.152119
1.58075e-05
-0.152119
1.65535e-05
-0.152119
1.73001e-05
-0.152119
1.80465e-05
-0.152119
1.87934e-05
-0.152119
1.95402e-05
-0.152119
2.02864e-05
-0.15212
2.10334e-05
-0.15212
2.178e-05
-0.15212
2.25264e-05
-0.152121
2.32733e-05
-0.152121
2.402e-05
-0.152122
2.47667e-05
-0.152122
2.55138e-05
-0.152123
2.62603e-05
-0.152124
2.70068e-05
-0.152124
2.77536e-05
-0.152125
2.85009e-05
-0.152126
2.9247e-05
-0.152127
2.99942e-05
-0.152128
3.07407e-05
-0.152129
3.14876e-05
-0.15213
3.22345e-05
-0.152131
3.29813e-05
-0.152132
3.37279e-05
-0.152133
3.44746e-05
-0.152134
3.52211e-05
-0.152135
3.59685e-05
-0.152136
3.67144e-05
-0.152138
3.74617e-05
-0.152139
3.82084e-05
-0.15214
3.8955e-05
-0.152142
3.97011e-05
-0.152143
4.04485e-05
-0.152145
4.11949e-05
-0.152146
4.19412e-05
-0.152148
4.2688e-05
-0.152149
4.34346e-05
-0.152151
4.41812e-05
-0.152153
4.49277e-05
-0.152155
4.56741e-05
-0.152156
4.64204e-05
-0.152158
4.71667e-05
-0.15216
4.79134e-05
-0.152162
4.866e-05
-0.152164
4.9406e-05
-0.152166
5.0152e-05
-0.152168
5.08988e-05
-0.15217
5.16446e-05
-0.152173
5.23908e-05
-0.152175
5.3137e-05
-0.152177
5.3883e-05
-0.152179
5.4629e-05
-0.152182
5.53749e-05
-0.152184
5.61213e-05
-0.152187
5.6867e-05
-0.152189
5.76127e-05
-0.152192
5.83583e-05
-0.152194
5.91043e-05
-0.152197
5.98498e-05
-0.1522
6.05957e-05
-0.152202
6.1341e-05
-0.152205
6.20863e-05
-0.152208
6.28324e-05
-0.152211
6.35775e-05
6.43225e-05
-0.152214
-0.143234
-1.1658e-06
-0.143233
-3.7825e-07
-0.143233
4.1032e-07
-0.143232
1.19824e-06
-0.143232
1.9861e-06
-0.143232
2.77486e-06
-0.143231
3.56307e-06
-0.143231
4.35165e-06
-0.143231
5.13962e-06
-0.143231
5.92854e-06
-0.14323
6.71686e-06
-0.14323
7.50559e-06
-0.14323
8.29425e-06
-0.14323
9.08275e-06
-0.14323
9.87171e-06
-0.14323
1.06601e-05
-0.143231
1.14493e-05
-0.143231
1.22381e-05
-0.143231
1.30271e-05
-0.143231
1.38156e-05
-0.143231
1.46045e-05
-0.143232
1.53939e-05
-0.143232
1.61831e-05
-0.143233
1.69717e-05
-0.143233
1.77608e-05
-0.143234
1.85502e-05
-0.143234
1.93391e-05
-0.143235
2.01284e-05
-0.143235
2.09171e-05
-0.143236
2.17067e-05
-0.143237
2.24957e-05
-0.143237
2.32851e-05
-0.143238
2.40744e-05
-0.143239
2.48637e-05
-0.14324
2.56524e-05
-0.143241
2.64425e-05
-0.143242
2.72315e-05
-0.143243
2.80204e-05
-0.143244
2.88102e-05
-0.143245
2.9599e-05
-0.143246
3.03886e-05
-0.143247
3.11781e-05
-0.143249
3.19671e-05
-0.14325
3.27565e-05
-0.143251
3.35458e-05
-0.143253
3.43355e-05
-0.143254
3.51241e-05
-0.143255
3.59137e-05
-0.143257
3.67032e-05
-0.143258
3.74926e-05
-0.14326
3.82813e-05
-0.143262
3.90711e-05
-0.143263
3.98602e-05
-0.143265
4.06492e-05
-0.143267
4.14382e-05
-0.143268
4.22281e-05
-0.14327
4.30169e-05
-0.143272
4.38061e-05
-0.143274
4.45953e-05
-0.143276
4.53843e-05
-0.143278
4.61733e-05
-0.14328
4.69627e-05
-0.143282
4.77515e-05
-0.143284
4.85402e-05
-0.143286
4.93298e-05
-0.143289
5.01179e-05
-0.143291
5.09074e-05
-0.143293
5.16963e-05
-0.143295
5.24851e-05
-0.143298
5.32739e-05
-0.1433
5.40625e-05
-0.143303
5.48511e-05
-0.143305
5.56396e-05
-0.143308
5.64286e-05
-0.14331
5.72174e-05
-0.143313
5.80057e-05
-0.143316
5.87939e-05
-0.143318
5.95825e-05
-0.143321
6.03711e-05
-0.143324
6.11595e-05
-0.143327
6.19473e-05
-0.14333
6.27357e-05
-0.143333
6.35239e-05
-0.143335
6.4312e-05
-0.143339
6.51001e-05
-0.143342
6.58881e-05
-0.143345
6.66755e-05
6.74638e-05
-0.143348
-0.134868
-1.35015e-06
-0.134868
-5.21201e-07
-0.134868
3.0623e-07
-0.134867
1.13508e-06
-0.134867
1.96328e-06
-0.134867
2.79151e-06
-0.134867
3.62002e-06
-0.134868
4.44851e-06
-0.134868
5.27693e-06
-0.134868
6.10567e-06
-0.134868
6.93435e-06
-0.134868
7.763e-06
-0.134869
8.59194e-06
-0.134869
9.4209e-06
-0.134869
1.02497e-05
-0.13487
1.10784e-05
-0.13487
1.19076e-05
-0.134871
1.27366e-05
-0.134871
1.3565e-05
-0.134872
1.43949e-05
-0.134873
1.52236e-05
-0.134873
1.60527e-05
-0.134874
1.68823e-05
-0.134875
1.77108e-05
-0.134875
1.85407e-05
-0.134876
1.93695e-05
-0.134877
2.01991e-05
-0.134878
2.10283e-05
-0.134879
2.18578e-05
-0.13488
2.26872e-05
-0.134881
2.3516e-05
-0.134882
2.43462e-05
-0.134883
2.51749e-05
-0.134884
2.60049e-05
-0.134885
2.68339e-05
-0.134887
2.76638e-05
-0.134888
2.8493e-05
-0.134889
2.93223e-05
-0.134891
3.01518e-05
-0.134892
3.09819e-05
-0.134893
3.18108e-05
-0.134895
3.26406e-05
-0.134896
3.34699e-05
-0.134898
3.42995e-05
-0.134899
3.51291e-05
-0.134901
3.59586e-05
-0.134903
3.6788e-05
-0.134904
3.76178e-05
-0.134906
3.8447e-05
-0.134908
3.92766e-05
-0.13491
4.01057e-05
-0.134912
4.09356e-05
-0.134914
4.1765e-05
-0.134915
4.25943e-05
-0.134917
4.34235e-05
-0.134919
4.42531e-05
-0.134922
4.50826e-05
-0.134924
4.59116e-05
-0.134926
4.67415e-05
-0.134928
4.75702e-05
-0.13493
4.83999e-05
-0.134932
4.92291e-05
-0.134935
5.00585e-05
-0.134937
5.08875e-05
-0.13494
5.17163e-05
-0.134942
5.25461e-05
-0.134944
5.33748e-05
-0.134947
5.42039e-05
-0.134949
5.5033e-05
-0.134952
5.58619e-05
-0.134955
5.66912e-05
-0.134957
5.75195e-05
-0.13496
5.83487e-05
-0.134963
5.91778e-05
-0.134966
6.00059e-05
-0.134968
6.08353e-05
-0.134971
6.16636e-05
-0.134974
6.2492e-05
-0.134977
6.33211e-05
-0.13498
6.41493e-05
-0.134983
6.49778e-05
-0.134986
6.58063e-05
-0.134989
6.66342e-05
-0.134993
6.7463e-05
-0.134996
6.82907e-05
-0.134999
6.91194e-05
-0.135002
6.99474e-05
7.07749e-05
-0.135006
-0.127002
-1.09902e-06
-0.127002
-2.33363e-07
-0.127003
6.32703e-07
-0.127003
1.49861e-06
-0.127003
2.36495e-06
-0.127004
3.23123e-06
-0.127004
4.09744e-06
-0.127005
4.96349e-06
-0.127005
5.83046e-06
-0.127006
6.69681e-06
-0.127006
7.5631e-06
-0.127007
8.42982e-06
-0.127008
9.29642e-06
-0.127009
1.01634e-05
-0.127009
1.10298e-05
-0.12701
1.18966e-05
-0.127011
1.27638e-05
-0.127012
1.36304e-05
-0.127013
1.44974e-05
-0.127014
1.53643e-05
-0.127015
1.62311e-05
-0.127016
1.70983e-05
-0.127017
1.79654e-05
-0.127018
1.88325e-05
-0.127019
1.96994e-05
-0.12702
2.05667e-05
-0.127022
2.1434e-05
-0.127023
2.23011e-05
-0.127024
2.31687e-05
-0.127026
2.40356e-05
-0.127027
2.4903e-05
-0.127028
2.57703e-05
-0.12703
2.66379e-05
-0.127031
2.7505e-05
-0.127033
2.8372e-05
-0.127035
2.92399e-05
-0.127036
3.01072e-05
-0.127038
3.09745e-05
-0.127039
3.18421e-05
-0.127041
3.27096e-05
-0.127043
3.3577e-05
-0.127045
3.44439e-05
-0.127047
3.53122e-05
-0.127048
3.61788e-05
-0.12705
3.70469e-05
-0.127052
3.79139e-05
-0.127054
3.87818e-05
-0.127056
3.96491e-05
-0.127058
4.05163e-05
-0.127061
4.13839e-05
-0.127063
4.2251e-05
-0.127065
4.3119e-05
-0.127067
4.39858e-05
-0.127069
4.48536e-05
-0.127072
4.57208e-05
-0.127074
4.65884e-05
-0.127076
4.74554e-05
-0.127079
4.83228e-05
-0.127081
4.91902e-05
-0.127084
5.00574e-05
-0.127086
5.09246e-05
-0.127089
5.17917e-05
-0.127091
5.26592e-05
-0.127094
5.35261e-05
-0.127097
5.43934e-05
-0.127099
5.52606e-05
-0.127102
5.61273e-05
-0.127105
5.69943e-05
-0.127108
5.78618e-05
-0.127111
5.87282e-05
-0.127114
5.95955e-05
-0.127117
6.04618e-05
-0.12712
6.13294e-05
-0.127123
6.21955e-05
-0.127126
6.30625e-05
-0.127129
6.39294e-05
-0.127132
6.47957e-05
-0.127135
6.56624e-05
-0.127138
6.65291e-05
-0.127141
6.73951e-05
-0.127145
6.82621e-05
-0.127148
6.91281e-05
-0.127151
6.99944e-05
-0.127155
7.08606e-05
-0.127158
7.17268e-05
-0.127162
7.25929e-05
-0.127165
7.34594e-05
7.43247e-05
-0.127169
-0.119602
-4.51169e-07
-0.119603
4.49712e-07
-0.119604
1.35201e-06
-0.119604
2.25325e-06
-0.119605
3.15538e-06
-0.119606
4.0574e-06
-0.119607
4.95886e-06
-0.119608
5.86164e-06
-0.119609