/*--------------------------------*- C++ -*----------------------------------*\
  =========                 |
  \\      /  F ield         | OpenFOAM: The Open Source CFD Toolbox
   \\    /   O peration     | Website:  https://openfoam.org
    \\  /    A nd           | Version:  8
     \\/     M anipulation  |
\*---------------------------------------------------------------------------*/
FoamFile
{
    version     2.0;
    format      ascii;
    class       volScalarField;
    location    "0.11";
    object      p;
}
// * * * * * * * * * * * * * * * * * * * * * * * * * * * * * * * * * * * * * //

dimensions      [0 2 -2 0 0 0 0];

internalField   nonuniform List<scalar> 
112657
(
1.06409
1.05542
1.04783
1.04032
1.03283
1.02525
1.01756
1.00976
1.00185
0.993848
0.985737
0.977526
0.969223
0.96083
0.952356
0.943799
0.935164
0.92646
0.917686
0.908847
0.899944
0.890985
0.881968
0.872899
0.863776
0.854609
0.845394
0.836132
0.826832
0.817491
0.808115
0.798702
0.789253
0.779775
0.770264
0.760724
0.751157
0.74156
0.731941
0.722298
0.712634
0.702947
0.693239
0.68351
0.673763
0.663998
0.654217
0.64442
0.634605
0.624776
0.614932
0.605076
0.595205
0.585323
0.575428
0.565522
0.555603
0.545676
0.535736
0.525786
0.515828
0.505859
0.495879
0.485892
0.475895
0.46589
0.455875
0.445853
0.435823
0.425783
0.415737
0.405681
0.395617
0.385545
0.375465
0.365378
0.35528
0.345177
0.335065
0.324946
0.314816
0.304679
0.294534
0.284382
0.274219
0.264046
0.253869
0.243679
0.233481
0.223274
0.213056
0.202832
0.192596
0.18235
0.172094
0.16183
0.151553
0.141266
0.130968
0.120659
0.110339
0.100008
0.089665
0.0793096
0.0689431
0.058566
0.0481743
0.0377699
0.0273532
0.0169255
0.00648175
-0.00397493
-0.0144448
-0.0249296
-0.0354244
-0.0459387
-0.0564658
-0.0670048
-0.0775602
-0.0881307
-0.098718
-0.109318
-0.119935
-0.130565
-0.141215
-0.151878
-0.162557
-0.173254
-0.183966
-0.194694
-0.205438
-0.216199
-0.226976
-0.237769
-0.248581
-0.259409
-0.270252
-0.281113
-0.291991
-0.302886
-0.313793
-0.32472
-0.335664
-0.346621
-0.357597
-0.368587
-0.379592
-0.390612
-0.401649
-0.412699
-0.423764
-0.434844
-0.445937
-0.457041
-0.468157
-0.479287
-0.490428
-0.501582
-0.512744
-0.523914
-0.535092
-0.546279
-0.557473
-0.568676
-0.57988
-0.591088
-0.602301
-0.613511
-0.624724
-0.635934
-0.647139
-0.658342
-0.669538
-0.680729
-0.691907
-0.70307
-0.714224
-0.725358
-0.736475
-0.747569
-0.758643
-0.769688
-0.780702
-0.791685
-0.802635
-0.813542
-0.824404
-0.835222
-0.845989
-0.856702
-0.867354
-0.87794
-0.888465
-0.898929
-0.909333
-0.919672
-0.929998
-0.940428
-0.951104
-0.963371
1.06779
1.0601
1.05242
1.04479
1.03728
1.02976
1.02214
1.01443
1.0066
0.998658
0.990615
0.98247
0.974228
0.965889
0.957465
0.948957
0.940366
0.9317
0.922961
0.91415
0.905278
0.896338
0.887342
0.878288
0.869179
0.860018
0.850809
0.841548
0.832246
0.822902
0.813515
0.804091
0.794628
0.785132
0.775601
0.766037
0.756443
0.746819
0.737168
0.72749
0.717787
0.708062
0.698312
0.688538
0.678743
0.66893
0.659098
0.649247
0.639377
0.62949
0.619586
0.609668
0.599734
0.589787
0.579823
0.569847
0.559858
0.549857
0.539843
0.529817
0.51978
0.509732
0.499672
0.489602
0.479522
0.46943
0.45933
0.44922
0.4391
0.42897
0.418832
0.408683
0.398525
0.388358
0.378183
0.367997
0.357803
0.3476
0.337389
0.327167
0.316937
0.306697
0.296449
0.286191
0.275924
0.265646
0.255361
0.245065
0.234759
0.224444
0.214118
0.203783
0.193438
0.183081
0.172715
0.162338
0.151951
0.141553
0.131141
0.120722
0.110287
0.0998444
0.0893866
0.0789193
0.0684393
0.0579472
0.0474427
0.0369241
0.0263942
0.015851
0.00529465
-0.0052755
-0.0158592
-0.0264567
-0.0370665
-0.0476926
-0.0583319
-0.0689851
-0.0796524
-0.0903354
-0.101033
-0.111746
-0.122472
-0.133214
-0.143972
-0.154745
-0.165533
-0.176337
-0.187156
-0.197992
-0.208841
-0.219709
-0.23059
-0.241487
-0.2524
-0.263331
-0.274275
-0.285235
-0.296211
-0.307202
-0.318209
-0.32923
-0.340267
-0.351318
-0.362383
-0.373463
-0.384558
-0.395665
-0.406786
-0.417919
-0.429067
-0.440226
-0.451397
-0.462578
-0.473769
-0.48497
-0.496183
-0.507404
-0.518631
-0.529864
-0.541105
-0.552351
-0.563602
-0.574857
-0.586113
-0.597371
-0.608628
-0.61988
-0.631133
-0.642379
-0.653621
-0.664852
-0.676074
-0.68729
-0.698487
-0.709668
-0.720833
-0.731977
-0.743097
-0.754197
-0.765263
-0.776304
-0.787308
-0.798275
-0.809204
-0.820085
-0.83092
-0.841707
-0.852434
-0.863102
-0.873707
-0.884247
-0.894722
-0.905129
-0.915483
-0.9258
-0.9362
-0.946869
-0.957738
-0.968723
1.0714
1.06448
1.05699
1.04934
1.04177
1.03427
1.02673
1.01908
1.01133
1.00346
0.995487
0.987409
0.979227
0.970948
0.962577
0.954118
0.945571
0.936947
0.928244
0.91947
0.910623
0.901712
0.892734
0.883699
0.874603
0.865456
0.856252
0.846997
0.837695
0.828347
0.818954
0.809521
0.800047
0.790535
0.780984
0.7714
0.761782
0.752132
0.74245
0.732739
0.723001
0.713237
0.703448
0.693631
0.683792
0.673929
0.664047
0.654142
0.64422
0.634275
0.624314
0.614332
0.604336
0.594322
0.584293
0.574249
0.564188
0.554113
0.544025
0.533923
0.523809
0.513679
0.503539
0.493386
0.483221
0.473044
0.462856
0.452657
0.442448
0.432226
0.421994
0.411753
0.4015
0.391236
0.380962
0.370679
0.360385
0.350081
0.339768
0.329444
0.31911
0.308764
0.298412
0.288048
0.277674
0.267287
0.256894
0.246489
0.236072
0.225648
0.21521
0.204764
0.194306
0.183837
0.173358
0.162868
0.152365
0.141852
0.131326
0.120792
0.110242
0.0996834
0.0891104
0.0785267
0.0679299
0.0573219
0.0467008
0.0360671
0.0254195
0.0147613
0.00408643
-0.00659817
-0.0172992
-0.0280118
-0.0387371
-0.0494799
-0.0602336
-0.0710027
-0.0817833
-0.0925816
-0.103393
-0.114219
-0.125058
-0.135913
-0.146783
-0.157666
-0.168565
-0.17948
-0.190409
-0.20135
-0.212309
-0.223283
-0.23427
-0.245273
-0.256291
-0.267322
-0.27837
-0.289431
-0.300506
-0.311597
-0.322699
-0.333817
-0.344947
-0.356092
-0.36725
-0.378418
-0.389601
-0.400796
-0.412001
-0.42322
-0.434447
-0.445687
-0.456934
-0.468191
-0.479456
-0.490731
-0.502012
-0.5133
-0.524591
-0.535887
-0.547188
-0.558493
-0.569799
-0.581105
-0.592411
-0.603714
-0.615015
-0.62631
-0.637599
-0.648879
-0.660152
-0.671413
-0.68266
-0.693896
-0.705112
-0.716305
-0.727481
-0.738631
-0.749758
-0.760852
-0.771918
-0.782946
-0.793938
-0.804886
-0.815793
-0.826649
-0.837453
-0.848202
-0.858892
-0.869516
-0.880077
-0.890564
-0.90099
-0.911351
-0.921656
-0.932006
-0.94254
-0.953307
-0.963985
-0.973981
1.0747
1.06855
1.06145
1.0539
1.0463
1.0388
1.0313
1.02372
1.01604
1.00825
1.00035
0.992337
0.98422
0.976003
0.967687
0.95928
0.950785
0.942202
0.93354
0.924801
0.91599
0.907104
0.898152
0.889137
0.880061
0.870926
0.861732
0.852484
0.843185
0.833836
0.82444
0.815
0.805517
0.795989
0.786423
0.776822
0.76718
0.757505
0.747796
0.738054
0.728282
0.718482
0.708652
0.698797
0.688912
0.679003
0.669071
0.659118
0.649139
0.639139
0.629118
0.619078
0.609017
0.598939
0.588845
0.57873
0.568598
0.558452
0.548288
0.53811
0.527917
0.517708
0.507486
0.49725
0.486999
0.476737
0.466459
0.456171
0.445869
0.435556
0.42523
0.414893
0.404544
0.394182
0.383809
0.373427
0.363031
0.352624
0.342208
0.331777
0.321339
0.310887
0.300427
0.289953
0.27947
0.268975
0.25847
0.247953
0.237425
0.226886
0.216335
0.205775
0.195202
0.184618
0.174022
0.163415
0.152796
0.142166
0.131523
0.12087
0.110202
0.0995244
0.0888339
0.0781312
0.0674156
0.0566882
0.0459474
0.0351945
0.0244281
0.0136503
0.00285755
-0.00794809
-0.0187662
-0.0295983
-0.0404427
-0.0513022
-0.062174
-0.0730615
-0.0839598
-0.0948744
-0.105801
-0.116744
-0.127698
-0.138668
-0.149653
-0.160648
-0.171661
-0.182688
-0.193727
-0.204781
-0.215848
-0.226929
-0.238025
-0.249134
-0.260258
-0.271394
-0.282545
-0.293708
-0.304884
-0.316073
-0.327275
-0.338488
-0.349715
-0.360951
-0.372202
-0.383464
-0.394732
-0.406013
-0.417306
-0.428607
-0.439917
-0.451235
-0.462561
-0.473891
-0.48523
-0.496576
-0.507927
-0.519279
-0.530635
-0.541993
-0.553353
-0.564714
-0.576073
-0.587429
-0.598784
-0.61013
-0.621471
-0.632808
-0.644133
-0.655445
-0.666747
-0.678034
-0.689305
-0.700558
-0.71179
-0.722996
-0.734178
-0.745332
-0.756457
-0.767552
-0.778606
-0.789622
-0.800597
-0.811528
-0.822406
-0.833233
-0.844005
-0.854714
-0.865361
-0.875941
-0.886448
-0.896887
-0.907262
-0.91758
-0.927889
-0.938303
-0.948945
-0.959641
-0.969834
-0.978825
1.07829
1.07238
1.06571
1.0584
1.05086
1.04333
1.03585
1.02834
1.02073
1.01301
1.00518
0.997245
0.989198
0.981045
0.972791
0.96444
0.955997
0.947463
0.938845
0.930145
0.921368
0.912517
0.903594
0.894604
0.885548
0.876427
0.867247
0.858009
0.848717
0.839371
0.829974
0.82053
0.811037
0.801501
0.791922
0.782302
0.772642
0.762943
0.753208
0.743438
0.733635
0.723799
0.713931
0.704036
0.694109
0.684155
0.674175
0.664169
0.654138
0.644085
0.634005
0.623906
0.613783
0.60364
0.593478
0.583295
0.573093
0.562873
0.552635
0.542379
0.532108
0.52182
0.511514
0.501193
0.490857
0.480508
0.470142
0.459761
0.449368
0.438961
0.42854
0.418105
0.407658
0.397197
0.386724
0.376238
0.36574
0.355229
0.344705
0.334171
0.323624
0.313063
0.302492
0.291909
0.281315
0.270706
0.260088
0.249457
0.238815
0.22816
0.217493
0.206815
0.196125
0.185422
0.174709
0.163982
0.153244
0.142493
0.13173
0.120956
0.110168
0.0993691
0.0885569
0.0777318
0.0668951
0.0560451
0.0451832
0.0343072
0.0234193
0.0125188
0.00160463
-0.00932286
-0.0202623
-0.031216
-0.0421817
-0.0531627
-0.0641547
-0.0751609
-0.08618
-0.0972148
-0.10826
-0.11932
-0.130393
-0.14148
-0.152579
-0.163693
-0.174819
-0.18596
-0.197112
-0.208279
-0.219459
-0.23065
-0.241854
-0.253073
-0.264304
-0.275545
-0.2868
-0.298067
-0.309346
-0.320635
-0.331935
-0.343247
-0.354569
-0.365901
-0.377244
-0.388596
-0.399955
-0.411325
-0.422703
-0.434086
-0.445479
-0.456874
-0.468277
-0.479685
-0.491096
-0.502512
-0.51393
-0.525346
-0.536767
-0.548187
-0.559603
-0.571017
-0.582428
-0.593835
-0.605235
-0.616625
-0.628006
-0.639377
-0.650737
-0.66208
-0.673408
-0.684719
-0.696008
-0.707276
-0.718519
-0.729738
-0.740924
-0.752078
-0.763199
-0.774284
-0.785326
-0.796329
-0.807283
-0.818188
-0.829038
-0.839831
-0.850563
-0.861232
-0.871831
-0.88236
-0.892816
-0.903206
-0.913534
-0.923827
-0.934166
-0.944673
-0.955315
-0.965747
-0.975404
-0.98412
1.08199
1.07611
1.06976
1.06278
1.05539
1.04789
1.04041
1.03293
1.02539
1.01775
1.01
1.00213
0.994156
0.986073
0.977882
0.969592
0.961205
0.952723
0.944154
0.9355
0.926762
0.917944
0.909054
0.900092
0.89106
0.881959
0.872796
0.863571
0.854289
0.84495
0.835555
0.826108
0.816612
0.807067
0.797477
0.787843
0.778165
0.768444
0.758686
0.748889
0.739057
0.729188
0.719283
0.709349
0.699382
0.689383
0.679357
0.669301
0.659218
0.649111
0.638976
0.628817
0.618632
0.608424
0.598194
0.587944
0.577671
0.567377
0.557066
0.546732
0.536382
0.526012
0.515623
0.505219
0.494796
0.484357
0.473902
0.46343
0.452943
0.442442
0.431924
0.42139
0.410843
0.400283
0.389706
0.379118
0.368513
0.357897
0.347266
0.336622
0.325965
0.315295
0.304611
0.293916
0.283206
0.272483
0.26175
0.251002
0.240242
0.229469
0.218684
0.207886
0.197076
0.186252
0.175417
0.164569
0.153708
0.142836
0.131949
0.121051
0.110139
0.0992164
0.0882788
0.0773305
0.0663688
0.0553936
0.0444073
0.0334059
0.0223939
0.0113671
0.000328962
-0.0107234
-0.0217871
-0.0328658
-0.0439544
-0.0550591
-0.0661754
-0.0773041
-0.088446
-0.0996008
-0.110769
-0.121949
-0.133143
-0.144348
-0.155568
-0.166798
-0.178044
-0.189298
-0.200566
-0.211848
-0.223141
-0.234444
-0.245761
-0.257088
-0.268427
-0.279777
-0.291138
-0.302509
-0.313891
-0.325283
-0.336683
-0.348094
-0.359512
-0.37094
-0.382377
-0.393819
-0.405269
-0.416727
-0.428191
-0.439658
-0.45113
-0.462605
-0.474084
-0.485567
-0.49705
-0.508536
-0.52002
-0.531502
-0.542985
-0.554464
-0.565935
-0.577404
-0.588864
-0.600319
-0.611763
-0.623194
-0.634613
-0.646019
-0.657408
-0.668781
-0.680133
-0.691463
-0.702768
-0.714049
-0.725301
-0.736525
-0.747712
-0.758863
-0.769977
-0.781052
-0.792081
-0.803059
-0.813988
-0.824865
-0.835682
-0.846436
-0.857129
-0.867748
-0.8783
-0.888777
-0.899184
-0.90952
-0.919816
-0.930113
-0.940508
-0.95105
-0.961547
-0.971583
-0.980873
-0.989625
1.08567
1.07976
1.07365
1.067
1.05984
1.05243
1.04497
1.03752
1.03003
1.02246
1.01479
1.007
0.999097
0.991083
0.982963
0.974736
0.966408
0.957985
0.949466
0.940859
0.932165
0.923388
0.914532
0.905602
0.896597
0.88752
0.878377
0.86917
0.859899
0.850568
0.841178
0.831736
0.822237
0.812687
0.803088
0.793442
0.783748
0.77401
0.764229
0.754409
0.744546
0.734647
0.724709
0.714738
0.704731
0.69469
0.684617
0.674514
0.664381
0.654218
0.644026
0.633808
0.623564
0.613292
0.602996
0.592678
0.582334
0.571969
0.561581
0.551171
0.540739
0.530289
0.519817
0.509328
0.498817
0.488289
0.477743
0.467179
0.456597
0.445999
0.435383
0.424752
0.414102
0.40344
0.39276
0.382065
0.371354
0.360629
0.349889
0.339134
0.328366
0.317583
0.306784
0.295973
0.285148
0.274308
0.263456
0.252589
0.241709
0.230815
0.219909
0.208988
0.198055
0.18711
0.176148
0.165178
0.15419
0.143192
0.132179
0.121155
0.110117
0.0990665
0.0880017
0.0769262
0.0658349
0.0547349
0.0436177
0.0324907
0.0213498
0.0101954
-0.000970349
-0.0121501
-0.0233411
-0.0345466
-0.0457632
-0.0569933
-0.0682352
-0.0794898
-0.090758
-0.102037
-0.113328
-0.124632
-0.135949
-0.147276
-0.158617
-0.169968
-0.181331
-0.192705
-0.204092
-0.215488
-0.226896
-0.238314
-0.249744
-0.261183
-0.272632
-0.28409
-0.295561
-0.307036
-0.318523
-0.330016
-0.34152
-0.35303
-0.364547
-0.376069
-0.387601
-0.399134
-0.410675
-0.42222
-0.433768
-0.445319
-0.456874
-0.46843
-0.479985
-0.49154
-0.503097
-0.51465
-0.526201
-0.537746
-0.54929
-0.560824
-0.572354
-0.583873
-0.595383
-0.606882
-0.618368
-0.629838
-0.641293
-0.652731
-0.664149
-0.675544
-0.686918
-0.698266
-0.709585
-0.720875
-0.732133
-0.743357
-0.754545
-0.765687
-0.776792
-0.78785
-0.79886
-0.809815
-0.820718
-0.831558
-0.842338
-0.853052
-0.863696
-0.874269
-0.884766
-0.895191
-0.905545
-0.915845
-0.926121
-0.936442
-0.946875
-0.957358
-0.967598
-0.977244
-0.986286
-0.995162
1.08926
1.08339
1.07741
1.07105
1.06418
1.05693
1.04953
1.04211
1.03466
1.02715
1.01955
1.01184
1.00402
0.996079
0.988029
0.979871
0.971608
0.963242
0.95478
0.946223
0.937578
0.928842
0.920028
0.911131
0.902158
0.893108
0.883989
0.874801
0.865546
0.856228
0.846847
0.837408
0.827912
0.818359
0.808754
0.799098
0.789392
0.779639
0.769838
0.759994
0.750107
0.740178
0.73021
0.720201
0.710157
0.700075
0.689958
0.679808
0.669626
0.65941
0.649162
0.638885
0.628581
0.618248
0.607886
0.5975
0.587086
0.576648
0.566183
0.555697
0.545187
0.534654
0.524099
0.513522
0.502925
0.492306
0.481667
0.47101
0.460332
0.449637
0.438922
0.428189
0.417439
0.406671
0.395885
0.385083
0.374265
0.363429
0.352578
0.34171
0.330827
0.319929
0.309014
0.298085
0.287142
0.276182
0.265209
0.25422
0.243219
0.2322
0.22117
0.210125
0.199066
0.187993
0.176905
0.165806
0.154691
0.143564
0.132422
0.121268
0.1101
0.0989196
0.087725
0.0765177
0.065297
0.0540644
0.0428177
0.0315586
0.020287
0.00900175
-0.00229389
-0.0136057
-0.0249261
-0.0362614
-0.0476079
-0.058968
-0.0703382
-0.0817208
-0.0931172
-0.104523
-0.115942
-0.127372
-0.138813
-0.150266
-0.161729
-0.173203
-0.184688
-0.196183
-0.207688
-0.219204
-0.230729
-0.242263
-0.253807
-0.265359
-0.276921
-0.288491
-0.300067
-0.311653
-0.323244
-0.334843
-0.346448
-0.358056
-0.369674
-0.381294
-0.392918
-0.404544
-0.416176
-0.427809
-0.439441
-0.451076
-0.462713
-0.474348
-0.485979
-0.497608
-0.509235
-0.520857
-0.532471
-0.544081
-0.555682
-0.567274
-0.578855
-0.590425
-0.601983
-0.613524
-0.625049
-0.636556
-0.648045
-0.659512
-0.670955
-0.682374
-0.693765
-0.705127
-0.716457
-0.727754
-0.739013
-0.750237
-0.761416
-0.772552
-0.783638
-0.79468
-0.805664
-0.816594
-0.827461
-0.838269
-0.849006
-0.859674
-0.87027
-0.88079
-0.891233
-0.901603
-0.911911
-0.922182
-0.932456
-0.942799
-0.953223
-0.963552
-0.973461
-0.982775
-0.991704
-1.00061
1.09275
1.08696
1.08107
1.07495
1.06837
1.06135
1.05406
1.04668
1.03928
1.03183
1.02429
1.01666
1.00891
1.00105
0.99308
0.984992
0.976796
0.968495
0.96009
0.951591
0.942994
0.934311
0.925536
0.916679
0.907741
0.898722
0.88963
0.880464
0.871231
0.861926
0.852558
0.843127
0.833634
0.824083
0.814475
0.804811
0.795097
0.78533
0.775513
0.765649
0.755736
0.745782
0.735783
0.725742
0.715661
0.70554
0.69538
0.685186
0.674953
0.664686
0.654385
0.644053
0.633687
0.623293
0.612865
0.60241
0.591927
0.581415
0.570877
0.560314
0.549723
0.539108
0.528469
0.517806
0.50712
0.496411
0.485679
0.474927
0.464152
0.453358
0.442543
0.431707
0.420854
0.409979
0.399087
0.388175
0.377247
0.366299
0.355333
0.344352
0.333351
0.322336
0.311303
0.300253
0.289189
0.278107
0.26701
0.255897
0.244769
0.233626
0.222469
0.211294
0.200107
0.188904
0.177688
0.166456
0.155211
0.143952
0.132678
0.121391
0.11009
0.098776
0.0874471
0.0761069
0.0647524
0.0533844
0.042005
0.0306106
0.0192057
0.00778585
-0.00364493
-0.0150881
-0.0265438
-0.0380113
-0.0494905
-0.0609834
-0.072485
-0.0840001
-0.0955264
-0.107061
-0.118611
-0.130168
-0.141739
-0.153318
-0.164907
-0.176507
-0.188115
-0.199734
-0.21136
-0.222997
-0.234641
-0.246293
-0.257955
-0.269622
-0.281297
-0.292978
-0.304666
-0.316359
-0.328058
-0.339762
-0.351471
-0.363181
-0.374896
-0.386613
-0.398332
-0.410052
-0.421776
-0.433495
-0.445216
-0.456932
-0.468649
-0.480361
-0.49207
-0.50377
-0.515467
-0.527156
-0.538835
-0.550505
-0.562164
-0.573809
-0.585444
-0.597061
-0.608664
-0.620246
-0.631808
-0.643351
-0.654869
-0.666362
-0.677829
-0.689266
-0.700673
-0.712047
-0.723383
-0.734682
-0.745941
-0.75716
-0.768329
-0.77945
-0.790522
-0.801534
-0.812495
-0.823389
-0.834224
-0.844989
-0.855682
-0.866303
-0.876843
-0.887307
-0.897699
-0.908018
-0.918286
-0.928538
-0.938818
-0.949162
-0.959495
-0.969577
-0.97915
-0.988212
-0.997094
-1.00596
1.09613
1.09046
1.08467
1.07872
1.07242
1.06565
1.05853
1.05124
1.04388
1.03648
1.02902
1.02146
1.01379
1.00601
0.998112
0.990097
0.981975
0.97374
0.9654
0.956958
0.948419
0.939785
0.931058
0.922243
0.913344
0.904361
0.895299
0.886161
0.876949
0.867666
0.858311
0.848891
0.839405
0.829858
0.820252
0.810583
0.800861
0.791084
0.781252
0.77137
0.761437
0.751458
0.74143
0.731359
0.721245
0.711084
0.700886
0.690645
0.680367
0.670049
0.659696
0.649307
0.638884
0.628427
0.617935
0.607412
0.596859
0.586277
0.575663
0.565021
0.554352
0.543654
0.53293
0.522179
0.511405
0.500604
0.489779
0.478932
0.468059
0.457163
0.446248
0.435309
0.424347
0.413367
0.402365
0.391344
0.380302
0.369239
0.358159
0.347059
0.335942
0.324806
0.313652
0.302479
0.291291
0.280085
0.268861
0.257621
0.246365
0.235093
0.223805
0.2125
0.20118
0.189846
0.178495
0.16713
0.155751
0.144355
0.132947
0.121524
0.110087
0.0986348
0.0871711
0.0756915
0.0642008
0.0526956
0.041177
0.029647
0.0181033
0.00654672
-0.00502124
-0.0166013
-0.0281935
-0.0397978
-0.0514134
-0.0630405
-0.0746774
-0.0863274
-0.0979862
-0.109657
-0.121336
-0.133026
-0.144725
-0.156436
-0.168154
-0.17988
-0.191615
-0.203358
-0.215111
-0.22687
-0.238634
-0.250408
-0.262188
-0.273971
-0.285761
-0.297557
-0.309355
-0.32116
-0.332966
-0.344777
-0.356588
-0.368402
-0.380218
-0.392031
-0.403845
-0.415659
-0.427473
-0.439282
-0.451087
-0.462888
-0.474683
-0.486474
-0.498256
-0.510031
-0.521794
-0.533551
-0.545291
-0.55702
-0.568736
-0.580434
-0.592117
-0.603781
-0.615426
-0.627048
-0.638645
-0.650221
-0.661766
-0.673282
-0.68477
-0.696223
-0.707644
-0.719022
-0.730363
-0.741662
-0.752917
-0.764124
-0.77528
-0.786384
-0.797432
-0.80842
-0.819346
-0.830207
-0.840999
-0.851721
-0.862362
-0.872932
-0.883419
-0.893825
-0.904161
-0.914438
-0.924674
-0.934914
-0.945189
-0.955484
-0.965646
-0.975444
-0.984705
-0.993613
-1.00244
-1.01121
1.09939
1.09389
1.08821
1.08239
1.07631
1.06981
1.06291
1.05575
1.04847
1.04112
1.03372
1.02623
1.01864
1.01094
1.00312
0.995187
0.987138
0.978976
0.970704
0.962324
0.953845
0.945265
0.93659
0.927822
0.918966
0.910021
0.900994
0.891886
0.882701
0.873439
0.864105
0.854699
0.845225
0.835685
0.826082
0.816412
0.806684
0.796898
0.787057
0.777159
0.767211
0.757206
0.747154
0.737055
0.726906
0.716711
0.706472
0.69619
0.685867
0.6755
0.665095
0.654651
0.64417
0.633652
0.623099
0.612508
0.601886
0.591231
0.580543
0.569823
0.559075
0.548293
0.537485
0.526648
0.515782
0.504888
0.49397
0.483024
0.472055
0.461058
0.450037
0.438995
0.427927
0.416837
0.405725
0.394589
0.383433
0.372256
0.361057
0.349839
0.3386
0.327341
0.316063
0.304767
0.293451
0.282116
0.270765
0.259393
0.248008
0.236602
0.225181
0.213742
0.202288
0.190817
0.179331
0.167828
0.15631
0.144778
0.13323
0.121667
0.11009
0.0984982
0.0868929
0.0752745
0.0636412
0.0519952
0.0403371
0.0286646
0.0169806
0.00528391
-0.00642513
-0.0181466
-0.029877
-0.0416225
-0.0533763
-0.0651422
-0.0769186
-0.0887039
-0.100501
-0.112307
-0.124122
-0.135946
-0.14778
-0.159621
-0.17147
-0.183328
-0.195191
-0.207062
-0.218941
-0.230823
-0.242713
-0.254609
-0.266507
-0.278411
-0.290317
-0.302228
-0.314142
-0.326056
-0.337971
-0.34989
-0.361805
-0.373723
-0.385638
-0.397551
-0.409461
-0.42137
-0.433271
-0.445168
-0.457059
-0.468943
-0.480819
-0.492687
-0.504542
-0.516387
-0.528219
-0.540039
-0.551843
-0.563628
-0.575397
-0.587151
-0.598878
-0.610587
-0.622269
-0.633928
-0.64556
-0.657166
-0.668735
-0.680272
-0.691777
-0.703243
-0.71467
-0.726055
-0.737395
-0.74869
-0.759935
-0.771131
-0.782269
-0.793351
-0.804371
-0.815328
-0.826217
-0.837041
-0.847788
-0.858458
-0.86905
-0.879562
-0.889992
-0.900346
-0.910629
-0.920861
-0.931077
-0.941301
-0.951543
-0.961725
-0.971661
-0.981141
-0.990175
-0.998976
-1.00772
-1.01636
1.10254
1.09723
1.09169
1.08598
1.08008
1.07384
1.06718
1.06019
1.05302
1.04574
1.0384
1.03098
1.02347
1.01585
1.00811
1.00026
0.992286
0.984199
0.975997
0.967688
0.95927
0.950751
0.94213
0.933413
0.924603
0.915703
0.906713
0.897639
0.888485
0.87925
0.869937
0.860551
0.851091
0.841561
0.831962
0.822297
0.812569
0.802779
0.792929
0.78302
0.773052
0.763031
0.752955
0.742828
0.732649
0.722419
0.712143
0.701821
0.691453
0.681041
0.670585
0.660089
0.649549
0.638972
0.628356
0.6177
0.607009
0.596281
0.585519
0.574723
0.563892
0.553031
0.542136
0.531211
0.520254
0.509269
0.498254
0.487212
0.476142
0.465043
0.453919
0.442768
0.431593
0.420392
0.409166
0.397918
0.386644
0.375349
0.36403
0.35269
0.341328
0.329943
0.31854
0.307114
0.295671
0.284205
0.272721
0.261218
0.249696
0.238157
0.226599
0.215023
0.203431
0.191819
0.180195
0.16855
0.156892
0.145216
0.133526
0.12182
0.1101
0.0983649
0.0866157
0.0748519
0.0630755
0.0512839
0.0394822
0.0276644
0.0158365
0.00399498
-0.00785781
-0.0197219
-0.0315983
-0.0434848
-0.0553814
-0.0672903
-0.0792066
-0.0911343
-0.103069
-0.115016
-0.12697
-0.138931
-0.1509
-0.162877
-0.174861
-0.18685
-0.198847
-0.210848
-0.222853
-0.234864
-0.246879
-0.258898
-0.270919
-0.282942
-0.294969
-0.306995
-0.319024
-0.331051
-0.343078
-0.355102
-0.367126
-0.379146
-0.391161
-0.403174
-0.41518
-0.427182
-0.439175
-0.451159
-0.463137
-0.475102
-0.487057
-0.498999
-0.510929
-0.522843
-0.534742
-0.546626
-0.558489
-0.570332
-0.582154
-0.593954
-0.60573
-0.617479
-0.629199
-0.640891
-0.652553
-0.664182
-0.675775
-0.687332
-0.698849
-0.710323
-0.721756
-0.733142
-0.744478
-0.755765
-0.766999
-0.778175
-0.789291
-0.800347
-0.811339
-0.822258
-0.83311
-0.843885
-0.854585
-0.865203
-0.87574
-0.886192
-0.896565
-0.906863
-0.917102
-0.9273
-0.937487
-0.94768
-0.957843
-0.967853
-0.977518
-0.986723
-0.995579
-1.00431
-1.01295
-1.02139
1.10558
1.10048
1.09509
1.08949
1.08375
1.07773
1.07132
1.06455
1.05751
1.05033
1.04306
1.03571
1.02827
1.02073
1.01308
1.00531
0.997416
0.989407
0.981282
0.973043
0.964694
0.956237
0.947676
0.939015
0.930255
0.921401
0.912456
0.903421
0.8943
0.885095
0.875808
0.866444
0.857002
0.847486
0.837896
0.828239
0.818513
0.808722
0.798865
0.788946
0.778966
0.768927
0.758831
0.74868
0.738472
0.728211
0.717901
0.707538
0.69713
0.686671
0.676167
0.665616
0.655024
0.644387
0.633709
0.622988
0.612228
0.60143
0.590595
0.57972
0.56881
0.557866
0.546886
0.535872
0.524826
0.513747
0.502636
0.491494
0.480323
0.469123
0.457891
0.446633
0.435347
0.424034
0.412694
0.401328
0.389936
0.378521
0.36708
0.355615
0.344128
0.332616
0.321084
0.309527
0.29795
0.286353
0.274733
0.263095
0.251436
0.239756
0.228061
0.216342
0.204609
0.192856
0.181086
0.169298
0.157495
0.145673
0.133838
0.121985
0.110118
0.098235
0.0863387
0.0744261
0.0625022
0.0505627
0.0386113
0.0266457
0.0146706
0.00267904
-0.00931948
-0.0213327
-0.0333552
-0.0453877
-0.0574317
-0.0694844
-0.0815459
-0.0936186
-0.105697
-0.117785
-0.129879
-0.141982
-0.154091
-0.166205
-0.178326
-0.190451
-0.202581
-0.214715
-0.226852
-0.238992
-0.251137
-0.26328
-0.275424
-0.287571
-0.299718
-0.311863
-0.324005
-0.336147
-0.348286
-0.360419
-0.372549
-0.384675
-0.396792
-0.408902
-0.421006
-0.433101
-0.445184
-0.457258
-0.469317
-0.481367
-0.493399
-0.505418
-0.517417
-0.529402
-0.541365
-0.55331
-0.565233
-0.57713
-0.589002
-0.600849
-0.612667
-0.624456
-0.636214
-0.647936
-0.659623
-0.671274
-0.682887
-0.694459
-0.705986
-0.717466
-0.7289
-0.740283
-0.751612
-0.762887
-0.774102
-0.785258
-0.796349
-0.807373
-0.818328
-0.829211
-0.840016
-0.850743
-0.861389
-0.871952
-0.882431
-0.892826
-0.903138
-0.913384
-0.923575
-0.933741
-0.943892
-0.954024
-0.964058
-0.973847
-0.983232
-0.99221
-1.00093
-1.00958
-1.01809
-1.02632
1.1085
1.10361
1.09841
1.09295
1.08733
1.0815
1.07533
1.06879
1.06193
1.05487
1.04768
1.04041
1.03305
1.02559
1.01802
1.01033
1.00253
0.9946
0.986553
0.97839
0.970112
0.961724
0.953227
0.944624
0.93592
0.927117
0.918218
0.909225
0.900142
0.890973
0.881717
0.872375
0.862957
0.853457
0.843884
0.834235
0.824515
0.814726
0.804866
0.794941
0.784951
0.774898
0.764784
0.75461
0.744377
0.734087
0.723743
0.713345
0.702897
0.692393
0.681842
0.671241
0.660594
0.649899
0.63916
0.628376
0.617549
0.606681
0.595771
0.58482
0.573831
0.562802
0.551736
0.540635
0.529497
0.518324
0.507117
0.495875
0.484602
0.473296
0.461959
0.45059
0.439192
0.427765
0.416309
0.404824
0.393313
0.381775
0.370208
0.358618
0.347003
0.33536
0.323696
0.312006
0.300295
0.28856
0.276803
0.265026
0.253225
0.241405
0.229564
0.217703
0.205824
0.193925
0.182008
0.170073
0.15812
0.146151
0.134164
0.122161
0.110144
0.098109
0.0860603
0.0739974
0.06192
0.0498298
0.0377253
0.0256087
0.0134801
0.00133851
-0.0108138
-0.0229758
-0.0351509
-0.0473327
-0.0595264
-0.0717288
-0.0839382
-0.096158
-0.108383
-0.120617
-0.132857
-0.145101
-0.157353
-0.169608
-0.181868
-0.194132
-0.206398
-0.218668
-0.230939
-0.243212
-0.255484
-0.267757
-0.280028
-0.292299
-0.304566
-0.316831
-0.329093
-0.341348
-0.353599
-0.365844
-0.378081
-0.390312
-0.402532
-0.414741
-0.42694
-0.439128
-0.451302
-0.463463
-0.475608
-0.487737
-0.499848
-0.511942
-0.524012
-0.536063
-0.54809
-0.560095
-0.572073
-0.584024
-0.595945
-0.607836
-0.619695
-0.631519
-0.64331
-0.655061
-0.666772
-0.678443
-0.690069
-0.701653
-0.713184
-0.724671
-0.736102
-0.747475
-0.758793
-0.770052
-0.781247
-0.792377
-0.803438
-0.814428
-0.825343
-0.836179
-0.846937
-0.857611
-0.868202
-0.878705
-0.889122
-0.899455
-0.909714
-0.919906
-0.930056
-0.940177
-0.950274
-0.960306
-0.970161
-0.979698
-0.988834
-0.997625
-1.00625
-1.01479
-1.02312
-1.03114
1.11128
1.10663
1.10163
1.09633
1.09084
1.08516
1.07921
1.0729
1.06625
1.05934
1.05227
1.04508
1.0378
1.03042
1.02294
1.01534
1.00762
0.999774
0.991812
0.983728
0.975524
0.967206
0.958778
0.950238
0.941595
0.932847
0.923999
0.915052
0.906013
0.896881
0.887659
0.878351
0.868955
0.859478
0.849921
0.840286
0.830575
0.820789
0.810932
0.801004
0.791006
0.780943
0.770813
0.76062
0.750364
0.740048
0.729674
0.719242
0.708754
0.698209
0.687612
0.676964
0.666261
0.655512
0.644712
0.633865
0.622972
0.612033
0.601051
0.590024
0.578954
0.567843
0.556692
0.545501
0.53427
0.523004
0.511698
0.500357
0.488979
0.477568
0.466124
0.454644
0.443132
0.43159
0.420015
0.408412
0.396775
0.385114
0.37342
0.361701
0.349953
0.33818
0.32638
0.314556
0.302704
0.290831
0.278932
0.267012
0.255068
0.243102
0.231115
0.219107
0.207078
0.195029
0.182962
0.170876
0.15877
0.146646
0.134508
0.122349
0.110177
0.0979861
0.0857837
0.0735638
0.0613297
0.049083
0.036824
0.0245503
0.0122659
-3.11963e-05
-0.0123387
-0.0246562
-0.0369854
-0.0493218
-0.0616693
-0.0740225
-0.0863871
-0.0987548
-0.111131
-0.123513
-0.135902
-0.148293
-0.160691
-0.173088
-0.185493
-0.197896
-0.210303
-0.222709
-0.235116
-0.247524
-0.259928
-0.27233
-0.284731
-0.297127
-0.309519
-0.321903
-0.334285
-0.346657
-0.359022
-0.371378
-0.383724
-0.396059
-0.40838
-0.420692
-0.432987
-0.445268
-0.457533
-0.469779
-0.48201
-0.494219
-0.506405
-0.518573
-0.530713
-0.542829
-0.554918
-0.56698
-0.579014
-0.591014
-0.602982
-0.614914
-0.626813
-0.63867
-0.650488
-0.662265
-0.673998
-0.685684
-0.697324
-0.708913
-0.720451
-0.731931
-0.743356
-0.75472
-0.766021
-0.777259
-0.788429
-0.799529
-0.810554
-0.821505
-0.832375
-0.843165
-0.853872
-0.86449
-0.875017
-0.885458
-0.895813
-0.906087
-0.916287
-0.926429
-0.936531
-0.946596
-0.956608
-0.966498
-0.97614
-0.985424
-0.994327
-1.00298
-1.01151
-1.01992
-1.02805
-1.03582
1.11394
1.10953
1.10474
1.09962
1.09427
1.08874
1.08297
1.07689
1.07047
1.06374
1.0568
1.04971
1.04252
1.03523
1.02783
1.02031
1.01268
1.00493
0.99705
0.989049
0.980926
0.972685
0.964327
0.955857
0.947276
0.938589
0.929796
0.920902
0.911909
0.902818
0.893636
0.88436
0.874996
0.865544
0.856008
0.84639
0.836693
0.826915
0.817062
0.807135
0.797132
0.78706
0.776919
0.76671
0.756434
0.746093
0.735692
0.725227
0.714703
0.704119
0.69348
0.682782
0.67203
0.661225
0.650367
0.639458
0.628499
0.617491
0.606436
0.595333
0.584185
0.57299
0.561753
0.550473
0.539152
0.527788
0.516385
0.504942
0.493462
0.481944
0.470388
0.458798
0.447171
0.43551
0.423816
0.41209
0.400329
0.388539
0.376718
0.364866
0.352985
0.341078
0.329139
0.317176
0.305184
0.293167
0.281125
0.269057
0.256967
0.24485
0.232715
0.220554
0.208373
0.196171
0.183948
0.171705
0.159444
0.147164
0.134866
0.122549
0.110219
0.0978686
0.0855049
0.073126
0.0607325
0.0483247
0.0359045
0.0234711
0.0110263
-0.00143064
-0.0138961
-0.0263754
-0.0388606
-0.0513571
-0.0638604
-0.0763714
-0.0888901
-0.101413
-0.113945
-0.126478
-0.139017
-0.15156
-0.164104
-0.17665
-0.1892
-0.201748
-0.214296
-0.226843
-0.23939
-0.251932
-0.264472
-0.277006
-0.289536