/*--------------------------------*- C++ -*----------------------------------*\
  =========                 |
  \\      /  F ield         | OpenFOAM: The Open Source CFD Toolbox
   \\    /   O peration     | Website:  https://openfoam.org
    \\  /    A nd           | Version:  10
     \\/     M anipulation  |
\*---------------------------------------------------------------------------*/
FoamFile
{
    format      ascii;
    class       volScalarField;
    location    "0.003";
    object      nut;
}
// * * * * * * * * * * * * * * * * * * * * * * * * * * * * * * * * * * * * * //

dimensions      [0 2 -1 0 0 0 0];

internalField   nonuniform List<scalar> 
8911
(
2.51848e-08
3.30912e-08
3.75625e-08
4.68833e-08
1.58562e-07
3.67179e-07
5.16929e-07
6.74353e-07
8.21703e-07
9.58419e-07
1.08462e-06
1.20075e-06
1.31009e-06
1.4143e-06
1.51427e-06
1.6097e-06
1.69925e-06
1.78413e-06
1.86428e-06
1.93934e-06
2.00928e-06
2.07397e-06
2.13265e-06
2.18834e-06
2.23901e-06
2.27636e-06
2.28112e-06
2.2503e-06
2.16218e-06
1.92697e-06
1.35352e-06
5.44322e-07
5.23739e-07
5.25224e-07
6.21224e-07
8.28585e-07
1.45936e-05
1.79681e-05
1.94447e-05
2.22112e-05
3.01893e-05
3.61455e-05
4.00917e-05
4.30326e-05
4.54255e-05
4.75061e-05
4.92232e-05
5.06408e-05
5.19047e-05
5.31517e-05
5.44291e-05
5.56818e-05
5.68312e-05
5.78346e-05
5.8679e-05
5.93509e-05
5.98347e-05
6.01393e-05
6.03383e-05
6.05205e-05
6.06484e-05
6.03415e-05
5.85473e-05
5.56395e-05
5.19351e-05
4.80867e-05
4.51856e-05
4.32076e-05
4.65374e-05
5.13691e-05
6.5182e-05
8.75237e-05
0.000114995
0.000128405
0.000132966
0.000134217
0.000135349
0.000136133
0.000136679
0.000137137
0.000137712
0.000138489
0.000138998
0.000139254
0.000139533
0.000140088
0.000140972
0.000141989
0.000142902
0.00014359
0.000144022
0.000144187
0.000144071
0.000143688
0.000143111
0.000142471
0.000141852
0.000141269
0.000140554
0.00013961
0.000138517
0.000137861
0.00013871
0.000142531
0.000149876
0.000161416
0.000178392
0.000192594
0.000200414
0.000208363
0.000210426
0.000210323
0.000210158
0.000210125
0.000210182
0.000210353
0.000210803
0.000211851
0.000212571
0.000212857
0.000213124
0.000213845
0.000215223
0.000216977
0.000218672
0.000220075
0.000221145
0.000221876
0.000222273
0.000222346
0.000222164
0.000221965
0.000222066
0.000222945
0.000224804
0.00022736
0.000230393
0.000234049
0.000238675
0.000244899
0.000252323
0.000261303
0.000273313
0.000282372
0.000271229
0.000276061
0.000277124
0.000277094
0.000277332
0.000277983
0.000278837
0.000279866
0.000281152
0.000283897
0.000286336
0.000287985
0.000289423
0.000291548
0.000295076
0.000299741
0.000304745
0.000309613
0.000314281
0.000318756
0.000323057
0.000327208
0.000331261
0.000335354
0.000339578
0.000344038
0.000348758
0.000353649
0.000358698
0.000363987
0.000369589
0.000375661
0.000381375
0.000385367
0.00038625
0.000380978
0.000335159
0.000338892
0.000340644
0.000342149
0.000344192
0.000347063
0.00035049
0.000354549
0.000358816
0.000367275
0.000376648
0.000385324
0.000393516
0.000401617
0.000409823
0.000418094
0.000426279
0.000434167
0.000441801
0.000449215
0.000456435
0.000463486
0.000470421
0.000477312
0.000484201
0.000491109
0.000498007
0.000504855
0.000511629
0.000518305
0.000524678
0.00053085
0.000535935
0.000538049
0.000534837
0.000522624
0.000396492
0.000401156
0.000405471
0.000410281
0.000416072
0.000424204
0.000435445
0.000451989
0.000467819
0.000483756
0.000498978
0.000513028
0.000526131
0.000538631
0.000550704
0.000562488
0.000574107
0.000585309
0.000596179
0.000606768
0.000617094
0.000627164
0.000637006
0.000646696
0.000656271
0.000665737
0.000675056
0.000684178
0.000693036
0.00070156
0.000709384
0.000716317
0.000721545
0.000722832
0.00071721
0.00070108
0.000458327
0.000466292
0.000475437
0.000486119
0.000499878
0.000525954
0.000553008
0.00057963
0.000603918
0.00062646
0.000647568
0.000666988
0.000685015
0.000702059
0.000718324
0.000733972
0.000749116
0.000763736
0.000777955
0.000791835
0.000805395
0.000818619
0.000831483
0.00084411
0.000856557
0.000868828
0.000880881
0.000892657
0.000904069
0.000914981
0.000924962
0.000933531
0.000939863
0.000941391
0.000934784
0.000916891
0.000523492
0.000537648
0.000554521
0.000576423
0.000615603
0.00065812
0.000697781
0.000734094
0.00076653
0.000795855
0.000822665
0.000847318
0.000870209
0.000891829
0.000912413
0.000932154
0.000951202
0.000969617
0.000987566
0.00100513
0.00102233
0.00103914
0.0010554
0.00107133
0.00108703
0.00110248
0.00111765
0.00113247
0.00114682
0.00116052
0.00117302
0.00118361
0.00119137
0.00119367
0.00118715
0.00116857
0.000594881
0.000618834
0.000647627
0.000699823
0.000760321
0.000818328
0.000869804
0.000915128
0.000955324
0.000991423
0.00102427
0.0010545
0.00108261
0.00110922
0.00113456
0.00115887
0.00118231
0.001205
0.00122717
0.00124889
0.00127025
0.00129125
0.00131136
0.00133105
0.00135043
0.00136951
0.00138821
0.00140647
0.00142414
0.00144101
0.00145647
0.00146959
0.0014791
0.00148258
0.00147646
0.00145747
0.000675552
0.000713891
0.000771591
0.000853059
0.000933787
0.00100594
0.00106864
0.00112319
0.00117148
0.00121483
0.00125427
0.0012906
0.00132446
0.00135661
0.00138728
0.00141673
0.00144512
0.00147262
0.00149954
0.00152596
0.00155198
0.00157793
0.00160241
0.00162634
0.0016499
0.00167305
0.00169573
0.00171783
0.0017392
0.00175958
0.00177842
0.00179479
0.00180632
0.00181131
0.00180575
0.00178554
0.000769372
0.00082867
0.000928729
0.00103786
0.00113755
0.00122408
0.00129855
0.00136302
0.00142004
0.00147123
0.00151786
0.00156086
0.00160099
0.00163911
0.00167551
0.00171047
0.00174415
0.00177677
0.00180865
0.00183986
0.00187046
0.00190045
0.00192948
0.00195783
0.00198571
0.00201302
0.00203965
0.00206542
0.00209009
0.00211331
0.0021346
0.0021536
0.0021656
0.00217051
0.00216441
0.00214379
0.000880627
0.000981118
0.00112079
0.00125633
0.00137573
0.00147777
0.00156499
0.00164017
0.00170647
0.00176592
0.00182004
0.00186989
0.00191639
0.00196047
0.00200251
0.00204281
0.00208159
0.00211903
0.00215548
0.00219102
0.00222567
0.00225942
0.00229214
0.00232388
0.00235478
0.0023847
0.00241346
0.0024408
0.00246639
0.00248977
0.00251022
0.00252674
0.00253692
0.00253963
0.00253103
0.00250865
0.00101354
0.00117091
0.0013487
0.00151187
0.0016527
0.00177053
0.00187002
0.00195538
0.0020305
0.00209778
0.00215899
0.00221533
0.00226777
0.00231731
0.00236443
0.00240947
0.00245267
0.0024942
0.00253438
0.0025733
0.00261099
0.0026474
0.00268245
0.00271606
0.00274827
0.00277893
0.00280777
0.00283451
0.00285876
0.00288
0.00289744
0.00291003
0.00291612
0.00291422
0.00290108
0.00287515
0.0011855
0.00139755
0.00161492
0.00180453
0.00196193
0.00209315
0.00220419
0.00229964
0.00238365
0.00245883
0.0025271
0.00258982
0.00264795
0.00270261
0.00275433
0.00280353
0.00285048
0.0028953
0.00293831
0.0029796
0.00301919
0.00305704
0.00309303
0.00312701
0.00315896
0.00318868
0.0032159
0.0032403
0.0032615
0.00327896
0.00329191
0.0032994
0.00330008
0.00329197
0.00327338
0.00324298
0.00166121
0.00190984
0.00211735
0.00228995
0.00243486
0.00255817
0.00266449
0.00275805
0.00284165
0.00291733
0.00298656
0.00305037
0.00310995
0.00316596
0.00321886
0.00326894
0.00331635
0.00336136
0.0034041
0.00344459
0.00348278
0.00351853
0.00355166
0.0035821
0.00360962
0.00363397
0.00365483
0.00367182
0.00368446
0.00369202
0.0036937
0.00368764
0.00367291
0.00364836
0.00361292
0.00194916
0.00221748
0.00244194
0.00263033
0.00278985
0.00292637
0.0030444
0.00314826
0.00324084
0.00332433
0.00340028
0.00346982
0.00353425
0.00359432
0.00365056
0.00370331
0.00375271
0.00379907
0.00384253
0.00388312
0.0039208
0.00395544
0.00398684
0.0040149
0.0040394
0.00406009
0.00407667
0.00408878
0.00409599
0.00409767
0.00409249
0.0040794
0.00405783
0.00402699
0.00398606
0.00224654
0.00253302
0.00277478
0.00297969
0.0031546
0.00330507
0.00343551
0.00355026
0.00365233
0.00374399
0.00382689
0.00390227
0.00397153
0.00403553
0.00409487
0.00414995
0.00420096
0.00424822
0.00429188
0.00433202
0.00436864
0.00440161
0.00443073
0.00445593
0.00447698
0.00449362
0.00450556
0.00451247
0.00451398
0.00450888
0.00449655
0.00447642
0.00444787
0.00441046
0.00436362
0.00254965
0.00285421
0.00311373
0.00333569
0.00352652
0.00369147
0.00383482
0.00396095
0.00407292
0.00417308
0.00426316
0.00434452
0.00441868
0.00448658
0.00454892
0.00460617
0.00465857
0.0047065
0.00475009
0.00478949
0.00482476
0.0048558
0.00488245
0.00490462
0.0049221
0.00493463
0.0049419
0.00494358
0.0049386
0.00492655
0.00490717
0.00488002
0.00484437
0.00480017
0.00474703
0.0028565
0.00317933
0.0034569
0.00369624
0.00390334
0.00408314
0.00423978
0.00437768
0.00449991
0.00460889
0.00470642
0.00479397
0.00487318
0.00494509
0.00501047
0.00506987
0.00512367
0.00517229
0.00521575
0.00525436
0.00528823
0.00531733
0.00534157
0.00536085
0.00537492
0.00538355
0.00538642
0.00538232
0.00537082
0.00535206
0.00532579
0.00529168
0.00524889
0.00519771
0.0051379
0.00316529
0.00350649
0.00380228
0.0040592
0.00428282
0.00447773
0.00464798
0.004798
0.00493085
0.00504901
0.00515431
0.00524834
0.00533287
0.00540901
0.00547762
0.00553933
0.00559465
0.00564432
0.00568781
0.00572577
0.00575842
0.00578581
0.00580791
0.00582468
0.00583575
0.00584095
0.00583945
0.00582955
0.00581201
0.00578693
0.00575406
0.00571312
0.00566325
0.00560498
0.00553823
0.00347495
0.00383466
0.00414888
0.00442366
0.00466411
0.00487451
0.0050588
0.00522137
0.00536528
0.00549303
0.00560651
0.0057074
0.00579759
0.00587824
0.00595033
0.00601452
0.0060714
0.00612161
0.00616534
0.00620298
0.00623477
0.00626083
0.00628125
0.00629621
0.00630485
0.00630735
0.00630129
0.00628646
0.00626353
0.00623273
0.00619386
0.00614625
0.00608956
0.00602429
0.00595047
0.00378368
0.00416181
0.00449461
0.00478748
0.0050451
0.0052714
0.00547018
0.00564578
0.00580127
0.00593915
0.00606133
0.0061696
0.00626593
0.00635158
0.00642759
0.00649472
0.00655362
0.00660503
0.0066494
0.0066871
0.00671843
0.00674354
0.00676256
0.00677557
0.00678234
0.00678277
0.00677284
0.0067542
0.00672674
0.00669106
0.00664698
0.00659318
0.00653019
0.00645832
0.00637762
0.00408864
0.00448539
0.00483677
0.00514794
0.00542305
0.00566565
0.00587942
0.00606864
0.00623631
0.00638497
0.00651652
0.00663284
0.00673598
0.0068273
0.0069079
0.00697863
0.00704024
0.00709358
0.00713921
0.0071776
0.00720908
0.00723388
0.00725219
0.00726419
0.00726986
0.00726863
0.00725593
0.00723382
0.00720287
0.00716346
0.00711485
0.00705601
0.00698772
0.00691004
0.00682312
0.00437974
0.00480166
0.00517205
0.00550168
0.00579457
0.00605392
0.00628325
0.00648674
0.00666732
0.00682753
0.00696926
0.00709447
0.00720531
0.00730317
0.00738925
0.00746446
0.00752968
0.00758584
0.00763362
0.00767354
0.00770602
0.00773135
0.00774984
0.00776173
0.00776716
0.00776538
0.00775145
0.00772746
0.00769424
0.00765189
0.00759933
0.00753676
0.00746465
0.00738245
0.00729034
0.00509819
0.00549489
0.00584472
0.0061557
0.0064322
0.00667775
0.00689626
0.00709061
0.00726329
0.00741617
0.00755129
0.00767088
0.00777641
0.00786908
0.00794989
0.00801982
0.00807991
0.00813094
0.00817349
0.00820805
0.00823499
0.00825468
0.00826748
0.0082736
0.00827281
0.00825952
0.00823547
0.00820179
0.00815758
0.008103
0.0080382
0.00796332
0.00787835
0.00778245
0.00536329
0.00579086
0.00616829
0.00650164
0.00679568
0.00705827
0.00729267
0.00750174
0.00768797
0.00785313
0.00799935
0.00812895
0.00824358
0.00834415
0.00843188
0.00850785
0.00857323
0.00862885
0.0086754
0.00871336
0.00874318
0.00876534
0.00878026
0.00878826
0.00878958
0.00877931
0.00875733
0.00872473
0.00868107
0.00862672
0.0085618
0.00848634
0.00840027
0.00830318
0.00558876
0.00604702
0.00645731
0.00681946
0.00713882
0.00742023
0.00767152
0.00789641
0.00809745
0.00827621
0.00843486
0.00857577
0.00870052
0.00881042
0.00890658
0.00899013
0.00906233
0.00912413
0.00917637
0.00921929
0.00925354
0.00927967
0.00929814
0.00930936
0.00931368
0.00930882
0.0092915
0.00926226
0.00922174
0.00917021
0.00910778
0.00903446
0.00895012
0.00885454
0.00577739
0.00625934
0.00669699
0.00709326
0.0074434
0.00775252
0.00802654
0.00826852
0.00848596
0.00867975
0.00885244
0.00900633
0.00914304
0.00926399
0.00937029
0.00946314
0.00954384
0.0096134
0.00967261
0.00972212
0.00976251
0.00979445
0.00981815
0.00983413
0.00984275
0.00984427
0.00983432
0.00981162
0.0097772
0.00973146
0.00967454
0.00960642
0.00952689
0.00943551
0.00592006
0.00642802
0.00689011
0.00731053
0.00769266
0.00803543
0.00833851
0.00860757
0.00884649
0.00905671
0.00924535
0.0094141
0.00956467
0.00969861
0.00981699
0.00992108
0.0100123
0.0100916
0.0101598
0.0102178
0.0102661
0.0103053
0.010336
0.0103588
0.0103736
0.0103808
0.0103808
0.0103679
0.0103427
0.010306
0.010258
0.0101985
0.0101275
0.0100443
0.00654301
0.007032
0.00747812
0.00788413
0.00825224
0.00858861
0.00889073
0.00915818
0.00939512
0.00960518
0.00979094
0.00995737
0.0101065
0.010239
0.0103565
0.0104603
0.0105515
0.0106311
0.0106997
0.010758
0.0108067
0.0108464
0.0108776
0.0109008
0.0109158
0.0109232
0.0109233
0.0109108
0.0108865
0.0108508
0.0108037
0.0107451
0.0106746
0.00659568
0.0071115
0.00758578
0.00801932
0.00841257
0.00877209
0.00910047
0.00940053
0.00967003
0.00990841
0.0101209
0.0103103
0.0104783
0.0106267
0.01076
0.0108788
0.0109842
0.0110773
0.011159
0.0112297
0.0112901
0.0113411
0.0113831
0.0114166
0.0114418
0.0114588
0.0114682
0.0114705
0.011462
0.0114421
0.0114107
0.0113682
0.0113143
0.00658927
0.00713327
0.00763165
0.00808795
0.00850763
0.00889297
0.00924674
0.00956958
0.00986376
0.0101336
0.0103782
0.0105967
0.0107917
0.0109653
0.0111198
0.0112565
0.0113781
0.0114873
0.0115844
0.0116698
0.0117446
0.0118093
0.0118646
0.0119109
0.0119485
0.0119777
0.0119985
0.012012
0.0120183
0.0120177
0.0120048
0.0119813
0.0119466
0.00647407
0.00705823
0.00759868
0.00809231
0.00853904
0.00894751
0.00932303
0.00967034
0.00998829
0.0102804
0.0105484
0.0107951
0.011021
0.0112253
0.0114072
0.0115703
0.0117164
0.0118469
0.0119626
0.0120646
0.0121561
0.0122373
0.0123083
0.01237
0.0124226
0.0124666
0.0125019
0.0125289
0.0125487
0.0125615
0.0125673
0.0125666
0.0125535
0.00685023
0.00742971
0.00796676
0.00846059
0.00891385
0.0093274
0.00970164
0.0100423
0.0103546
0.010644
0.0109121
0.0111591
0.0113863
0.011597
0.0117902
0.011966
0.0121238
0.0122658
0.0123932
0.0125072
0.0126086
0.0126975
0.0127767
0.012847
0.0129083
0.0129606
0.0130042
0.0130398
0.0130683
0.0130899
0.0131046
0.0131124
0.00650057
0.00710678
0.0076799
0.00821584
0.00871408
0.00917451
0.00959784
0.00998514
0.0103389
0.0106602
0.0109526
0.0112206
0.011467
0.0116956
0.011909
0.0121068
0.012291
0.0124615
0.0126183
0.0127608
0.0128889
0.0130042
0.0131081
0.0132011
0.0132831
0.013354
0.0134164
0.0134709
0.0135174
0.0135564
0.0135886
0.0136147
0.00601981
0.00662653
0.00721534
0.00777857
0.00831216
0.00881356
0.00928184
0.00971607
0.010118
0.0104898
0.0108331
0.0111497
0.0114396
0.0117028
0.0119414
0.0121603
0.0123626
0.0125503
0.0127251
0.0128904
0.0130457
0.0131895
0.0133218
0.0134428
0.0135518
0.0136498
0.0137376
0.0138157
0.0138839
0.0139418
0.013991
0.0140335
0.00545196
0.00602493
0.00660226
0.00717145
0.00772386
0.00825322
0.00875565
0.00922782
0.00967008
0.0100837
0.0104695
0.0108288
0.0111627
0.0114731
0.0117616
0.0120298
0.0122791
0.0125101
0.0127227
0.0129161
0.0130936
0.0132565
0.0134071
0.0135472
0.0136793
0.0138043
0.013921
0.0140281
0.0141246
0.0142096
0.0142839
0.014348
0.00538345
0.0059088
0.00644842
0.00699034
0.00752469
0.00804406
0.00854196
0.00901638
0.00946654
0.00989178
0.0102922
0.0106676
0.0110191
0.0113484
0.0116569
0.0119456
0.0122156
0.0124673
0.0127019
0.0129218
0.0131286
0.0133225
0.0135034
0.0136712
0.0138246
0.0139654
0.014095
0.014214
0.0143236
0.0144242
0.0145166
0.00482168
0.00524458
0.00570558
0.00619154
0.00669077
0.00719319
0.00768926
0.0081741
0.00864414
0.00909639
0.00952902
0.00994012
0.0103297
0.0106985
0.0110472
0.0113765
0.011687
0.0119791
0.0122537
0.0125126
0.0127568
0.0129869
0.0132038
0.0134075
0.0135984
0.0137776
0.013946
0.0141047
0.0142539
0.0143927
0.01452
0.00476007
0.00509125
0.00546828
0.00588031
0.00631628
0.00676541
0.00722091
0.00767674
0.00812754
0.00856918
0.0089976
0.00941101
0.0098087
0.01019
0.0105544
0.010902
0.0112321
0.0115456
0.0118435
0.0121265
0.0123953
0.0126505
0.0128925
0.0131217
0.0133392
0.0135457
0.0137419
0.0139281
0.0141046
0.0142713
0.00461833
0.00478565
0.00500586
0.00527943
0.00559585
0.00594394
0.00631686
0.0067079
0.0071106
0.00751929
0.00792816
0.00833369
0.00873338
0.00912487
0.00950627
0.00987616
0.0102328
0.010576
0.0109062
0.0112232
0.0115273
0.0118187
0.0120977
0.0123644
0.0126199
0.012865
0.0131003
0.0133264
0.0135438
0.0137533
0.00485947
0.00489372
0.00496925
0.00508688
0.00524678
0.00544571
0.0056855
0.00595968
0.0062605
0.00658245
0.00691983
0.00726829
0.00762462
0.007985
0.00834629
0.00870581
0.00906054
0.00940921
0.00975089
0.0100846
0.0104096
0.0107253
0.0110314
0.0113276
0.0116146
0.011893
0.0121634
0.0124266
0.0126835
0.0129354
0.00540152
0.005364
0.00536397
0.00539243
0.00545341
0.00554838
0.00567439
0.00583329
0.00602071
0.00623714
0.00647797
0.00673847
0.00701573
0.00730591
0.00760592
0.00791228
0.00822362
0.00853755
0.00885217
0.00916582
0.00947716
0.0097849
0.0100881
0.0103869
0.0106812
0.0109714
0.0112583
0.0115433
0.0118285
0.00628738
0.00617885
0.00608847
0.00601831
0.0059712
0.00595044
0.00595841
0.00598875
0.00604532
0.00612848
0.00623402
0.00636408
0.00651699
0.00668996
0.00688314
0.0070926
0.00731641
0.00755354
0.00780071
0.00805598
0.0083175
0.00858368
0.00885343
0.00912643
0.00940176
0.00967921
0.00995942
0.0102441
0.0105366
0.00734704
0.00720892
0.00708156
0.00696718
0.0068671
0.00678322
0.00671658
0.00666865
0.00664051
0.00663711
0.00665249
0.0066843
0.00673652
0.00681035
0.00690005
0.00700659
0.00713059
0.0072705
0.00742481
0.00759202
0.00777202
0.00796163
0.00816195
0.00837278
0.00859247
0.00882124
0.0090609
0.00931559
0.00882401
0.00866073
0.00850328
0.00835322
0.00821082
0.00807701
0.00795283
0.00783939
0.00773811
0.00765008
0.00757572
0.00751544
0.00747009
0.00744017
0.00742761
0.00743283
0.00745136
0.00748198
0.00752586
0.00758781
0.00766297
0.00775002
0.00784892
0.00796079
0.0080853
0.00822263
0.00837407
0.00854273
0.0104107
0.0102365
0.0100685
0.00990499
0.00974582
0.00959165
0.00944332
0.00930216
0.0091685
0.00904275
0.00892544
0.00881717
0.00871854
0.00863052
0.00855342
0.00848729
0.00843213
0.00838776
0.00835514
0.00833481
0.00832916
0.00833611
0.00835357
0.00838098
0.00841722
0.00846946
0.00854044
0.0123087
0.0121184
0.0119319
0.0117495
0.0115713
0.0113988
0.0112354
0.0110785
0.0109267
0.0107797
0.0106377
0.010501
0.0103706
0.0102464
0.0101291
0.0100188
0.00991575
0.00982033
0.00973295
0.00965408
0.00958385
0.00952236
0.00946973
0.00942601
0.00939344
0.0093789
0.0147049
0.0145052
0.0143077
0.0141126
0.0139203
0.013731
0.0135459
0.0133649
0.0131876
0.0130143
0.012845
0.0126799
0.0125199
0.0123655
0.0122184
0.0120776
0.0119422
0.0118114
0.0116855
0.0115645
0.0114484
0.0113376
0.0112325
0.0111336
0.0110426
0.0109636
0.0171819
0.0169813
0.0167819
0.016584
0.0163876
0.0161936
0.016002
0.0158125
0.0156253
0.0154406
0.0152587
0.01508
0.0149046
0.0147325
0.014564
0.0143991
0.0142378
0.0140802
0.0139266
0.0137766
0.0136306
0.0134891
0.0133534
0.0132248
0.0131041
0.0199177
0.0197185
0.01952
0.0193225
0.0191263
0.0189313
0.0187375
0.0185448
0.0183533
0.0181632
0.0179752
0.0177889
0.0176044
0.0174217
0.017241
0.0170624
0.0168862
0.0167124
0.016541
0.016372
0.0162056
0.0160417
0.0158798
0.0157185
0.0230975
0.0229005
0.0227036
0.0225069
0.0223113
0.0221162
0.0219217
0.0217275
0.0215338
0.0213407
0.0211487
0.0209576
0.0207673
0.0205779
0.0203894
0.0202019
0.0200156
0.0198306
0.0196468
0.019464
0.0192823
0.0191013
0.01892
0.0187357
0.0263154
0.0261206
0.0259257
0.0257312
0.0255371
0.0253429
0.0251486
0.0249545
0.0247604
0.0245669
0.0243736
0.0241805
0.0239876
0.0237949
0.0236025
0.0234106
0.0232192
0.023028
0.022837
0.0226459
0.0224541
0.0222598
0.022064
0.0297622
0.029569
0.0293758
0.0291827
0.0289891
0.0287949
0.0286005
0.028406
0.0282116
0.0280171
0.0278222
0.027627
0.0274315
0.0272359
0.0270401
0.0268442
0.0266479
0.0264509
0.0262529
0.0260526
0.0258507
0.0256476
0.0336194
0.0334273
0.033235
0.0330422
0.032849
0.0326548
0.0324601
0.0322649
0.0320698
0.031874
0.0316776
0.0314805
0.0312826
0.0310841
0.030885
0.0306853
0.0304844
0.0302821
0.0300775
0.029871
0.0296636
0.0294548
0.0374879
0.0372961
0.0371037
0.0369106
0.0367163
0.036521
0.0363249
0.0361286
0.0359315
0.0357333
0.0355341
0.0353338
0.0351324
0.0349299
0.0347261
0.0345205
0.0343122
0.0341021
0.0338911
0.0336789
0.0334655
0.0415434
0.0413508
0.0411571
0.0409624
0.0407662
0.040569
0.0403711
0.0401725
0.0399725
0.039771
0.0395681
0.0393636
0.0391573
0.0389489
0.0387374
0.0385244
0.0383104
0.0380952
0.0378789
0.0376613
0.0457633
0.045569
0.0453733
0.0451762
0.0449777
0.0447782
0.0445775
0.0443755
0.0441716
0.0439656
0.0437572
0.0435459
0.0433322
0.0431173
0.042901
0.0426834
0.0424645
0.0422445
0.0420233
0.0501215
0.0499251
0.0497269
0.0495271
0.0493259
0.049123
0.0489181
0.0487111
0.048501
0.0482873
0.0480724
0.0478562
0.0476385
0.0474193
0.0471987
0.0469767
0.0467536
0.0465293
0.0547844
0.0545873
0.0543881
0.0541869
0.0539837
0.0537782
0.0535698
0.0533579
0.0531444
0.0529292
0.0527125
0.0524942
0.0522744
0.0520529
0.0518299
0.0516056
0.0513799
0.0511532
0.059324
0.0591237
0.0589205
0.0587142
0.058505
0.0582942
0.0580817
0.0578676
0.0576516
0.0574338
0.0572145
0.0569934
0.0567705
0.056546
0.0563201
0.0560929
0.0558647
0.0638922
0.0636869
0.0634801
0.0632717
0.0630614
0.0628493
0.0626354
0.0624195
0.0622018
0.0619822
0.0617609
0.0615376
0.0613127
0.0610863
0.0608587
0.0606301
0.0684534
0.0682485
0.0680417
0.0678328
0.067622
0.0674093
0.0671947
0.0669781
0.0667596
0.0665392
0.0663168
0.0660927
0.0658671
0.0656403
0.0654125
0.0731813
0.0729789
0.072775
0.0725689
0.0723606
0.0721502
0.0719379
0.0717237
0.0715076
0.0712895
0.0710694
0.0708475
0.0706241
0.0703994
0.0701739
0.0776325
0.0774324
0.0772304
0.0770261
0.0768195
0.0766108
0.0764002
0.0761878
0.0759734
0.0757569
0.0755387
0.0753189
0.0750978
0.074876
0.0819777
0.0817807
0.0815815
0.0813799
0.0811763
0.0809707
0.0807632
0.0805539
0.0803425
0.0801294
0.0799146
0.0796987
0.0794821
0.086188
0.0859952
0.0857999
0.0856025
0.0854031
0.0852019
0.0849988
0.0847937
0.0845869
0.0843785
0.0841689
0.0839587
0.0904204
0.0902348
0.090047
0.089857
0.0896651
0.0894712
0.0892755
0.0890781
0.0888789
0.0886782
0.0884764
0.088274
0.0942777
0.0940984
0.0939169
0.0937333
0.0935478
0.0933605
0.0931714
0.0929809
0.0927889
0.092596
0.0924025
0.0979357
0.0977633
0.097589
0.0974127
0.0972347
0.097055
0.0968738
0.0966914
0.096508
0.0963243
0.101545
0.101383
0.101218
0.101052
0.100883
0.100713
0.100542
0.10037
0.100197
0.100024
0.104768
0.104613
0.104457
0.104299
0.104139
0.103978
0.103816
0.103654
0.103492
0.107917
0.107773
0.107626
0.107479
0.10733
0.107179
0.107028
0.106876
0.106725
0.110698
0.110562
0.110425
0.110286
0.110146
0.110006
0.109865
0.109724
0.113399
0.113273
0.113146
0.113017
0.112887
0.112757
0.112626
0.112496
0.115767
0.115649
0.11553
0.11541
0.115289
0.115169
0.115049
0.118056
0.117947
0.117837
0.117726
0.117614
0.117503
0.117393
0.12005
0.119949
0.119847
0.119744
0.119642
0.119541
0.121973
0.121879
0.121785
0.121691
0.121597
0.121505
0.123643
0.123556
0.123469
0.123383
0.123299
0.125249
0.125169
0.12509
0.125011
0.124934
0.126712
0.126639
0.126566
0.126494
0.126423
0.12798
0.127913
0.127847
0.127782
0.129201
0.129139
0.129079
0.12902
0.130317
0.130261
0.130205
0.130152
0.131285
0.131234
0.131185
0.132222
0.132176
0.132132
0.133091
0.133049
0.133009
0.133893
0.133855
0.13382
0.134571
0.134541
0.135275
0.135252
0.135875
0.135847
0.13648
0.136455
0.137071
0.137049
0.137584
0.137563
0.138082
0.138548
0.139175
0.139814
8.19396e-07
1.02997e-06
1.04903e-06
1.06809e-06
1.07526e-06
1.05729e-06
1.00038e-06
9.45451e-07
9.27481e-07
9.19461e-07
9.83239e-07
1.26265e-06
1.73219e-06
2.4593e-06
3.53094e-06
4.89028e-06
6.6086e-06
8.65641e-06
1.06909e-05
1.19866e-05
1.20548e-05
9.46358e-06
6.81395e-06
5.82744e-06
7.62005e-05
8.79375e-05
7.78339e-05
8.40746e-05
8.79342e-05
9.20078e-05
9.59144e-05
0.000100325
0.000106831
0.000116406
0.000128523
0.000141294
0.000156099
0.000173229
0.000193252
0.000216079
0.000239538
0.000263639
0.000287412
0.000309098
0.000326243
0.000334438
0.0003329
0.00030384
0.000266685
0.000260875
0.000180858
0.000163075
0.000176208
0.000182884
0.000190788
0.000199404
0.000209565
0.000223102
0.000241904
0.000265465
0.000293557
0.00032558
0.000360514
0.000397152
0.000432602
0.000464036
0.000489021
0.000505371
0.000511055
0.000505066
0.000483862
0.000445399
0.000392732
0.000354049
0.000355867
0.000264655
0.000243826
0.00026672
0.00027659
0.000287817
0.000299805
0.000313523
0.000331758
0.000358469
0.000392462
0.000432847
0.000476062
0.000518772
0.000558495
0.000590958
0.000614436
0.000627385
0.000628151
0.000615092
0.000586454
0.000541766
0.000486318
0.000438048
0.000414236
0.000430769
0.0003579
0.000371138
0.000395566
0.000408941
0.000419285
0.000427052
0.000434276
0.000446298
0.00047241
0.000508352
0.000552727
0.000598006
0.000638598
0.000673131
0.000695693
0.000705726
0.000702592
0.00068513
0.000654203
0.000611907
0.000563369
0.00051984
0.000493183
0.00049643
0.000534531
0.000489895
0.000532475
0.000563834
0.000582121
0.000594761
0.000602143
0.00060538
0.000607074
0.000612253
0.000625811
0.000659055
0.000696489
0.000726806
0.000752327
0.000762044
0.000757013
0.000738732
0.000708101
0.000669618
0.000630831
0.000599585
0.000582123
0.000584772
0.00061331
0.000670054
0.00066385
0.000730466
0.000770456
0.000795377
0.000812133
0.00082114
0.000822496
0.000816882
0.00080742
0.000799118
0.000795516
0.000796087
0.000800971
0.000816658
0.000814739
0.000798412
0.000774061
0.000742451
0.000707409
0.000676473
0.000666511
0.000684903
0.000708504
0.000746978
0.000799931
0.000877219
0.000964594
0.00101393
0.00104721
0.00107011
0.00108347
0.00108649
0.00107839
0.00106081
0.00103694
0.00100967
0.000980688
0.000953829
0.00092944
0.000901953
0.000875236
0.000856006
0.000841886
0.000820373
0.000805979
0.000805171
0.000818423
0.000841649
0.000875997
0.000918625
0.00112846
0.00123794
0.00129676
0.00134001
0.0013705
0.00139005
0.00139697
0.00138917
0.00136724
0.00133379
0.00129212
0.00124527
0.00119594
0.00114726
0.00110074
0.00105865
0.00102283
0.00099089
0.000964241
0.000947789
0.000943634
0.000950877
0.00096767
0.000992938
0.00102298
0.00141947
0.00155361
0.00162106
0.00167213
0.00170396
0.00171943
0.00171798
0.00169896
0.00166397
0.00161578
0.00155778
0.0014933
0.00142574
0.00135845
0.00129397
0.00123545
0.00118379
0.00114018
0.00110623
0.00108356
0.00107261
0.00107255
0.00108045
0.00109458
0.00111157
0.0017527
0.0018927
0.00196146
0.00200821
0.00203215
0.00203741
0.00202425
0.0019929
0.00194514
0.00188333
0.00181067
0.00173045
0.00164621
0.00156161
0.00148018
0.00140531
0.00133933
0.00128407
0.00124067
0.00120949
0.00118979
0.00118002
0.00117801
0.00118055
0.00118481
0.00210933
0.00223747
0.00230084
0.00233734
0.00234985
0.00234296
0.00231758
0.00227428
0.00221455
0.00214044
0.00205495
0.00196085
0.00186166
0.00176124
0.0016637
0.00157301
0.00149236
0.00142397
0.00136885
0.00132677
0.00129641
0.00127569
0.00126204
0.00125265
0.00124507
0.00247042
0.00258256
0.00263579
0.00265865
0.00265781
0.00263768
0.00259985
0.00254479
0.00247369
0.0023886
0.00229181
0.0021858
0.00207387
0.00195984
0.00184794
0.00174248
0.00164713
0.0015645
0.00149575
0.00144058
0.0013975
0.00136427
0.00133825
0.0013169
0.00129811
0.00283263
0.0029267
0.00296605
0.00297288
0.00295681
0.00292245
0.00287156
0.00280456
0.00272265
0.00262753
0.00252092
0.00240512
0.00228309
0.00215836
0.00203488
0.00191687
0.00180814
0.00171153
0.00162848
0.00155897
0.0015018
0.00145491
0.00141593
0.00138258
0.00135304
0.00319576
0.0032699
0.00329214
0.00328047
0.00324737
0.00319743
0.00313255
0.00305328
0.00296084
0.00285632
0.00274131
0.00261786
0.00248859
0.00235653
0.00222504
0.00209786
0.0019786
0.00187013
0.00177404
0.00169078
0.00161963
0.00155906
0.00150715
0.00146203
0.00142213
0.00356037
0.00361258
0.00361453
0.00358191
0.00352978
0.00346261
0.0033826
0.00329066
0.00318748
0.00307408
0.00295193
0.00282287
0.00268911
0.00255321
0.00241763
0.00228532
0.00215943
0.00204274
0.00193684
0.00184253
0.00175955
0.00168698
0.00162347
0.00156761
0.00151814
0.00392727
0.00395549
0.00393351
0.0038779
0.00380445
0.00371825
0.00362202
0.00351645
0.00340226
0.00328035
0.00315218
0.0030193
0.00288319
0.00274583
0.0026097
0.00247695
0.00234943
0.00222889
0.00211745
0.00201625
0.00192521
0.00184396
0.00177162
0.00170723
0.00164986
0.00429756
0.00429934
0.00425033
0.00416946
0.00407244
0.00396547
0.00385137
0.00373116
0.00360561
0.00347549
0.00334151
0.00320508
0.00306794
0.00293164
0.00279785
0.00266802
0.00254334
0.00242492
0.00231359
0.00221006
0.0021152
0.00202935
0.00195178
0.00188194
0.0018192
0.00467274
0.00464512
0.00456678
0.00445852
0.0043358
0.00420583
0.00407222
0.00393636
0.00379835
0.003659
0.0035195
0.00338098
0.00324461
0.0031113
0.00298204
0.0028576
0.00273846
0.0026252
0.00251845
0.00241861
0.00232568
0.00223939
0.00216013
0.00208797
0.00202284
0.00505429
0.00499495
0.00488554
0.00474805
0.00459721
0.00444212
0.00428679
0.00413296
0.00398169
0.00383361
0.00368954
0.00355013
0.00341597
0.00328714
0.00316406
0.00304696
0.00293545
0.0028295
0.00272963
0.00263624
0.00254896
0.00246731
0.0023913
0.00232115
0.00225698
0.00544421
0.00535162
0.00521055
0.00504183
0.00486071
0.00467679
0.00449734
0.00432497
0.00416053
0.00400426
0.00385647
0.00371717
0.00358649
0.00346333
0.00334767
0.00323974
0.00313783
0.0030409
0.00294962
0.00286532
0.00278698
0.00271299
0.00264274
0.00257723
0.00251955
0.00584505
0.00571932
0.00554621
0.00534483
0.00512914
0.00491453
0.00470992
0.00451864
0.00434126
0.00417735
0.00402671
0.00388835
0.00376261
0.00364627
0.00353892
0.00344257
0.00335326
0.00326751
0.00318599
0.00311514
0.00305363
0.00299767
0.00294603
0.00289851
0.00285525
0.00625999
0.00610296
0.00589809
0.0056606
0.00540929
0.00516263
0.004932
0.00472165
0.0045318
0.00436097
0.00420871
0.00407208
0.00395406
0.00384693
0.00374893
0.0036708
0.00360573
0.00354739
0.00349424
0.00344628