/*--------------------------------*- C++ -*----------------------------------*\
  =========                 |
  \\      /  F ield         | OpenFOAM: The Open Source CFD Toolbox
   \\    /   O peration     | Website:  https://openfoam.org
    \\  /    A nd           | Version:  10
     \\/     M anipulation  |
\*---------------------------------------------------------------------------*/
FoamFile
{
    format      ascii;
    class       volVectorField;
    location    "0.003";
    object      U;
}
// * * * * * * * * * * * * * * * * * * * * * * * * * * * * * * * * * * * * * //

dimensions      [0 1 -1 0 0 0 0];

internalField   nonuniform List<vector> 
8911
(
(1.13512 0.125788 5.4225e-17)
(0.67201 0.285454 0)
(-0.107373 0.445933 3.60564e-15)
(-1.21061 0.58314 0)
(-2.51171 0.72697 2.7814e-15)
(-3.73859 0.868878 -1.9071e-17)
(-4.80783 0.991218 -6.45117e-21)
(-5.72481 1.09722 -2.09591e-15)
(-6.51915 1.19201 -9.92714e-16)
(-7.21156 1.27742 -9.49878e-16)
(-7.8176 1.35474 9.02064e-16)
(-8.35462 1.42577 2.78782e-17)
(-8.84107 1.49302 -1.35754e-17)
(-9.2906 1.55761 1.69691e-15)
(-9.70812 1.61951 -1.29756e-17)
(-10.0949 1.67817 -8.1465e-16)
(-10.4514 1.73328 -7.90114e-16)
(-10.7802 1.78607 6.07573e-22)
(-11.0852 1.83654 -7.80875e-16)
(-11.3693 1.88439 7.77904e-16)
(-11.6363 1.93013 -4.54108e-23)
(-11.8902 1.97393 -7.63035e-16)
(-12.1294 2.01441 1.51111e-15)
(-12.3479 2.04935 7.4781e-16)
(-12.539 2.0769 7.44352e-16)
(-12.6881 2.09687 -5.80593e-18)
(-12.7971 2.11209 5.82054e-18)
(-12.9087 2.13314 -2.91989e-18)
(-13.0778 2.17166 -7.51306e-16)
(-13.3436 2.23414 0)
(-13.687 2.30645 -2.88012e-18)
(-14.0722 2.38065 7.29369e-16)
(-14.447 2.40018 3.59368e-16)
(-14.5405 2.32333 -3.58158e-16)
(-13.5396 2.05608 0)
(-11.276 1.50988 3.63144e-16)
(-1.42411 0.393221 0)
(-3.36378 0.747133 -2.47095e-17)
(-5.33186 1.09564 2.16412e-17)
(-7.26376 1.41322 0)
(-9.07886 1.68002 1.73848e-17)
(-10.6504 1.89342 -1.61686e-17)
(-11.9675 2.06879 9.88735e-16)
(-13.0786 2.21954 9.45158e-16)
(-14.0278 2.35166 9.24355e-16)
(-14.848 2.46938 4.50707e-16)
(-15.5656 2.57595 -4.34808e-16)
(-16.201 2.67385 -4.35761e-16)
(-16.7729 2.76531 -4.22601e-16)
(-17.2953 2.85145 -1.32311e-17)
(-17.7756 2.93252 -4.17992e-16)
(-18.2193 3.00892 6.45365e-18)
(-18.63 3.08138 -8.13574e-22)
(-19.0125 3.15074 7.20851e-22)
(-19.3721 3.21755 -4.03314e-16)
(-19.7119 3.28197 -4.00791e-16)
(-20.0349 3.34455 0)
(-20.3434 3.40552 3.10279e-18)
(-20.6362 3.46326 -3.96714e-16)
(-20.9156 3.51723 -3.09201e-18)
(-21.1871 3.56848 -7.89985e-16)
(-21.4531 3.61992 0)
(-21.7114 3.67323 -3.9567e-16)
(-21.9537 3.72769 -3.97426e-16)
(-22.1683 3.78232 0)
(-22.322 3.83018 0)
(-22.3601 3.85414 0)
(-22.255 3.83976 0)
(-22.0318 3.75813 -4.09199e-16)
(-21.5445 3.59552 -2.03112e-16)
(-20.3622 3.16303 0)
(-18.7783 2.35485 -1.81397e-16)
(-3.50317 0.852067 -1.70647e-21)
(-5.97229 1.28183 -1.86946e-21)
(-8.33868 1.68262 -1.03109e-17)
(-10.4545 2.02834 -6.1733e-16)
(-12.2679 2.29784 -1.21313e-15)
(-13.8026 2.5006 0)
(-15.0886 2.6624 -5.79384e-16)
(-16.1745 2.80026 8.93926e-18)
(-17.1053 2.922 -2.83026e-16)
(-17.9139 3.03185 2.71536e-16)
(-18.6253 3.13276 2.78324e-16)
(-19.2571 3.22667 2.77925e-16)
(-19.8252 3.315 2.80918e-16)
(-20.3432 3.39855 -5.5046e-16)
(-20.8192 3.4775 2.69471e-16)
(-21.2598 3.55225 -6.52308e-22)
(-21.6692 3.62355 2.71834e-16)
(-22.0519 3.69227 5.32585e-22)
(-22.4124 3.75865 5.45281e-16)
(-22.7531 3.82276 -5.11007e-23)
(-23.0759 3.88488 -4.22133e-18)
(-23.382 3.94526 -4.22476e-18)
(-23.6696 4.00276 -2.67252e-16)
(-23.9407 4.05597 0)
(-24.1984 4.1045 2.74861e-16)
(-24.4415 4.14833 2.69104e-16)
(-24.6623 4.18998 5.52873e-16)
(-24.8478 4.22893 2.71202e-16)
(-24.9824 4.26222 -2.77247e-16)
(-25.0379 4.28364 2.18331e-18)
(-24.9797 4.27514 0)
(-24.8082 4.21433 2.84232e-16)
(-24.557 4.08813 1.38783e-16)
(-24.1243 3.90955 1.37217e-16)
(-23.2015 3.55591 1.32204e-16)
(-22.09 2.77055 0)
(-4.95012 1.33069 0)
(-7.63883 1.80886 0)
(-10.126 2.21481 -8.95909e-16)
(-12.2682 2.53395 8.722e-16)
(-14.0588 2.76731 4.2945e-16)
(-15.5545 2.9373 0)
(-16.8045 3.07105 8.5326e-16)
(-17.86 3.18595 6.64874e-18)
(-18.7663 3.28954 -6.63199e-18)
(-19.5554 3.38516 6.60731e-18)
(-20.2504 3.47477 -4.28528e-16)
(-20.8672 3.55953 0)
(-21.4207 3.64025 -2.11562e-16)
(-21.9239 3.71737 4.22544e-16)
(-22.3855 3.79088 0)
(-22.8123 3.86097 2.13235e-16)
(-23.2084 3.92777 2.03342e-16)
(-23.578 3.99212 -2.0305e-16)
(-23.9249 4.05487 -4.21851e-16)
(-24.2511 4.11551 -2.09173e-16)
(-24.5578 4.17381 0)
(-24.8453 4.22977 -2.06208e-16)
(-25.1111 4.28256 -3.28855e-18)
(-25.3563 4.32996 3.29698e-18)
(-25.5816 4.37175 -3.30461e-18)
(-25.7847 4.40751 -4.23808e-16)
(-25.9597 4.43891 -4.61093e-23)
(-26.0992 4.46469 0)
(-26.195 4.48405 2.13095e-16)
(-26.2301 4.49258 2.1232e-16)
(-26.1821 4.46983 1.67837e-18)
(-26.0556 4.38989 -1.85557e-21)
(-25.8803 4.24844 0)
(-25.5787 4.05875 4.08163e-19)
(-24.91 3.7235 -1.02775e-16)
(-24.1489 2.98463 1.91983e-19)
(-6.19509 1.83886 3.91494e-16)
(-8.99814 2.33831 0)
(-11.5037 2.71911 3.66578e-16)
(-13.6058 2.99123 -3.54951e-16)
(-15.3373 3.1757 3.46701e-16)
(-16.7714 3.30373 -3.51191e-16)
(-17.9671 3.40322 -6.99962e-16)
(-18.9759 3.49052 3.41538e-16)
(-19.8417 3.57198 -1.70585e-16)
(-20.5953 3.64977 -3.56045e-16)
(-21.2585 3.72463 1.80065e-16)
(-21.8461 3.79694 5.46629e-18)
(-22.3716 3.86691 -1.09104e-17)
(-22.8474 3.93453 -1.68658e-16)
(-23.2815 3.99949 0)
(-23.6808 4.06192 0)
(-24.0498 4.12173 -1.72299e-16)
(-24.3923 4.17899 5.36792e-18)
(-24.712 4.23495 -8.0258e-18)
(-25.0109 4.28913 3.44217e-16)
(-25.2903 4.3409 0)
(-25.5503 4.3901 3.4318e-16)
(-25.7872 4.43593 1.68004e-16)
(-26.0031 4.47573 -1.7071e-16)
(-26.1985 4.5096 2.66764e-18)
(-26.3725 4.53728 -2.6681e-18)
(-26.5241 4.56078 -1.70791e-16)
(-26.6486 4.57845 1.33489e-18)
(-26.7415 4.58936 -2.67466e-18)
(-26.7917 4.58907 -1.70454e-16)
(-26.7824 4.56323 -1.73795e-16)
(-26.7192 4.48039 -1.70135e-16)
(-26.6301 4.33486 8.46306e-17)
(-26.4504 4.14109 0)
(-25.9728 3.81374 0)
(-25.4649 3.10883 8.24166e-17)
(-7.34082 2.36834 -3.18872e-16)
(-10.1748 2.85979 -9.85701e-18)
(-12.6282 3.19209 -9.66111e-18)
(-14.644 3.40462 9.54844e-18)
(-16.2858 3.5347 -3.13527e-16)
(-17.6374 3.6171 6.20837e-16)
(-18.7614 3.67949 2.99413e-16)
(-19.7088 3.73664 -6.10244e-16)
(-20.52 3.79321 1.55338e-16)
(-21.2233 3.85019 1.49299e-16)
(-21.841 3.90758 0)
(-22.3872 3.96502 0)
(-22.8747 4.02214 1.51246e-16)
(-23.315 4.07845 -4.55588e-18)
(-23.7158 4.13342 1.44902e-16)
(-24.0833 4.18688 0)
(-24.4217 4.23862 -4.48973e-18)
(-24.7346 4.28845 4.47214e-18)
(-25.0253 4.33693 1.46945e-16)
(-25.2958 4.38393 -4.43655e-18)
(-25.5473 4.42852 4.42353e-18)
(-25.7803 4.47037 -1.45628e-16)
(-25.9933 4.50929 -2.20944e-18)
(-26.188 4.54265 1.43472e-16)
(-26.3664 4.57091 0)
(-26.5281 4.59416 1.41054e-16)
(-26.6722 4.61302 -1.43253e-16)
(-26.7964 4.62632 2.20506e-18)
(-26.8972 4.633 1.41446e-16)
(-26.9627 4.63024 0)
(-26.9821 4.59782 1.43829e-16)
(-26.9668 4.51284 1.41536e-16)
(-26.9423 4.36362 -7.14272e-17)
(-26.8713 4.16396 -7.00187e-17)
(-26.5252 3.84299 -2.75224e-19)
(-26.2149 3.17887 -6.98169e-17)
(-8.39954 2.9187 -8.99422e-18)
(-11.1899 3.37872 2.86043e-16)
(-13.5359 3.64467 -1.706e-17)
(-15.4311 3.78647 -2.61812e-16)
(-16.9614 3.85527 0)
(-18.2148 3.8881 -2.58352e-16)
(-19.2534 3.91018 -8.29899e-18)
(-20.127 3.93442 2.62127e-16)
(-20.8751 3.96418 -8.09264e-18)
(-21.5237 3.9993 7.99008e-18)
(-22.0935 4.03859 3.94853e-18)
(-22.5973 4.08074 1.21737e-16)
(-23.0469 4.12473 -1.20658e-16)
(-23.4531 4.16965 -1.8418e-22)
(-23.8225 4.21465 -1.26552e-16)
(-24.1608 4.25926 3.81066e-18)
(-24.4716 4.30295 -1.25454e-16)
(-24.7583 4.34543 1.17388e-16)
(-25.0242 4.38673 6.53492e-23)
(-25.2708 4.427 -1.16448e-16)
(-25.5 4.46528 0)
(-25.7128 4.50119 3.73555e-18)
(-25.9085 4.5347 1.15963e-16)
(-26.0889 4.56325 1.19577e-16)
(-26.2562 4.58722 1.86648e-18)
(-26.4103 4.60685 -3.73108e-18)
(-26.5506 4.62229 1.21267e-16)
(-26.6758 4.63201 0)
(-26.7826 4.63496 -1.19788e-16)
(-26.8617 4.62466 -1.19411e-16)
(-26.9037 4.58718 -9.44753e-19)
(-26.917 4.50178 -1.51432e-21)
(-26.9243 4.35339 6.07303e-17)
(-26.9217 4.14893 1.19686e-16)
(-26.6877 3.83442 0)
(-26.5278 3.2191 6.02358e-17)
(-9.35959 3.4854 0)
(-12.0417 3.89021 -4.97118e-16)
(-14.2379 4.07466 0)
(-15.9884 4.1373 4.92357e-16)
(-17.3923 4.1398 -1.24197e-21)
(-18.5361 4.11932 -2.42277e-16)
(-19.484 4.09959 0)
(-20.2842 4.09112 7.11171e-18)
(-20.9728 4.09493 -1.18948e-16)
(-21.5719 4.10906 -1.10342e-16)
(-22.0994 4.1311 0)
(-22.5665 4.15878 -1.08333e-16)
(-22.9836 4.19043 -3.32427e-22)
(-23.3598 4.22457 0)
(-23.7018 4.26006 0)
(-24.0145 4.29615 0)
(-24.3012 4.33212 1.04852e-16)
(-24.5651 4.36754 -1.04469e-16)
(-24.8094 4.40215 3.25113e-18)
(-25.0361 4.43595 -3.23974e-18)
(-25.247 4.46852 0)
(-25.4435 4.49916 1.06339e-16)
(-25.6252 4.5278 -3.22751e-18)
(-25.7939 4.55219 -1.03183e-16)
(-25.9517 4.5725 0)
(-26.0986 4.58905 0)
(-26.2342 4.60098 1.6102e-18)
(-26.3577 4.60715 -3.22273e-18)
(-26.4659 4.60575 -1.03399e-16)
(-26.551 4.59275 1.05516e-16)
(-26.6079 4.55103 0)
(-26.6413 4.46323 -1.03836e-16)
(-26.6723 4.31166 -1.05101e-16)
(-26.6787 4.09645 -1.04055e-16)
(-26.56 3.78759 -5.20574e-17)
(-26.5157 3.21995 -5.24854e-17)
(-10.2046 4.05111 -2.32634e-16)
(-12.7251 4.37658 2.39306e-16)
(-14.7411 4.46919 -6.93828e-18)
(-16.3315 4.45069 -2.1803e-16)
(-17.6 4.38661 6.64446e-18)
(-18.6369 4.3143 2.00487e-16)
(-19.5028 4.25551 0)
(-20.2391 4.21701 6.22258e-18)
(-20.8767 4.1966 9.17405e-17)
(-21.4334 4.19098 9.04054e-17)
(-21.9243 4.19658 5.95425e-18)
(-22.3593 4.21033 5.91982e-18)
(-22.7477 4.2299 1.87711e-16)
(-23.098 4.25348 -5.82015e-18)
(-23.4159 4.2797 0)
(-23.7062 4.30749 0)
(-23.9718 4.33596 5.73691e-18)
(-24.2159 4.36453 -8.5765e-18)
(-24.4415 4.39288 -9.11246e-17)
(-24.6508 4.42065 2.83813e-18)
(-24.8457 4.44775 -2.83008e-18)
(-25.0276 4.47351 -8.47029e-17)
(-25.1966 4.49753 -2.82844e-18)
(-25.354 4.51795 0)
(-25.502 4.53466 0)
(-25.6403 4.548 0)
(-25.7689 4.55661 0)
(-25.8871 4.55901 -9.03908e-17)
(-25.9919 4.55344 1.81258e-16)
(-26.078 4.53382 9.24775e-17)
(-26.1407 4.48684 -1.42889e-18)
(-26.1835 4.39551 9.18242e-17)
(-26.2264 4.24253 1.37346e-16)
(-26.2534 4.02744 1.12168e-21)
(-26.2043 3.72623 9.13026e-17)
(-26.2508 3.2114 1.81e-19)
(-10.9187 4.60012 1.32641e-17)
(-13.2354 4.82852 -2.05478e-16)
(-15.0525 4.82354 -1.26009e-17)
(-16.4769 4.72379 1.22178e-17)
(-17.618 4.59867 0)
(-18.5611 4.48137 1.83229e-16)
(-19.3573 4.38685 1.79697e-16)
(-20.039 4.32018 -5.50201e-18)
(-20.6319 4.27705 5.4092e-18)
(-21.1517 4.25242 0)
(-21.611 4.24204 8.43233e-17)
(-22.0182 4.24215 0)
(-22.3817 4.24997 -8.8343e-17)
(-22.7092 4.2633 8.76781e-17)
(-23.006 4.28041 5.1239e-18)
(-23.2764 4.30004 -8.66155e-17)
(-23.5232 4.32115 0)
(-23.7495 4.34303 0)
(-23.9584 4.36527 7.5791e-17)
(-24.1519 4.38737 5.0364e-18)
(-24.332 4.40898 -8.03581e-17)
(-24.5 4.42988 8.01641e-17)
(-24.6561 4.44933 -7.78049e-17)
(-24.8019 4.46569 -2.50766e-18)
(-24.9387 4.47881 0)
(-25.0668 4.48843 7.76363e-17)
(-25.1861 4.49325 8.26533e-17)
(-25.2957 4.49153 8.02032e-17)
(-25.3937 4.48073 -8.0411e-17)
(-25.4759 4.455 -8.07796e-17)
(-25.5384 4.40304 0)
(-25.5855 4.3084 -8.15357e-17)
(-25.636 4.1549 -6.37197e-19)
(-25.6792 3.94207 6.35799e-19)
(-25.6792 3.64995 -1.92421e-21)
(-25.7908 3.18509 0)
(-11.4856 5.12822 2.06779e-16)
(-13.5714 5.24773 1.8818e-16)
(-15.1856 5.14411 1.14103e-17)
(-16.4524 4.96515 -1.91565e-21)
(-17.4822 4.78308 -1.05404e-17)
(-18.3461 4.6255 -1.63473e-16)
(-19.0815 4.50029 -1.5034e-16)
(-19.7159 4.40676 1.47403e-16)
(-20.2705 4.3416 0)
(-20.7585 4.29872 0)
(-21.1903 4.27283 -8.01396e-17)
(-21.5733 4.25963 4.69183e-18)
(-21.9148 4.25587 4.65201e-18)
(-22.222 4.25897 -4.61836e-18)
(-22.4999 4.267 -7.34324e-17)
(-22.7523 4.27847 7.75956e-17)
(-22.9821 4.29222 -9.11805e-18)
(-23.1921 4.30742 4.54531e-18)
(-23.3854 4.32353 -7.24586e-17)
(-23.5641 4.34 0)
(-23.7299 4.35622 7.20339e-17)
(-23.8841 4.37198 -7.18591e-17)
(-24.0272 4.3867 -7.19964e-17)
(-24.1603 4.39878 0)
(-24.2849 4.40814 -6.96228e-17)
(-24.401 4.41365 -7.63282e-17)
(-24.5089 4.41422 -7.18444e-17)
(-24.6078 4.40773 2.2466e-18)
(-24.6963 4.39133 -2.25244e-18)
(-24.7713 4.35979 3.39385e-18)
(-24.8304 4.30288 -2.27121e-18)
(-24.8785 4.2056 7.42497e-17)
(-24.9331 4.05333 -1.46027e-16)
(-24.9868 3.84565 3.59131e-17)
(-25.0211 3.56547 -3.59569e-17)
(-25.176 3.14738 3.73777e-17)
(-11.8961 5.62909 -1.11944e-17)
(-13.7427 5.63466 -1.61532e-16)
(-15.161 5.4338 -1.64959e-16)
(-16.2886 5.18255 1.67256e-16)
(-17.2239 4.94852 -9.46596e-18)
(-18.018 4.75332 -1.46884e-16)
(-18.7015 4.59922 0)
(-19.2955 4.48132 -1.41489e-16)
(-19.8169 4.39507 -8.70398e-18)
(-20.2771 4.33437 -6.87285e-17)
(-20.6847 4.29315 1.7e-17)
(-21.0461 4.26668 -6.77081e-17)
(-21.368 4.25129 -4.19804e-18)
(-21.6571 4.2441 -7.08679e-17)
(-21.9177 4.24292 -1.56239e-22)
(-22.1537 4.24612 0)
(-22.3677 4.25239 0)
(-22.5625 4.26079 -6.57086e-17)
(-22.741 4.27062 6.9575e-17)
(-22.9053 4.28129 6.12093e-17)
(-23.0569 4.29211 0)
(-23.1973 4.30259 6.49867e-17)
(-23.3267 4.31226 1.30239e-16)
(-23.4465 4.31964 0)
(-23.5576 4.32471 6.50211e-17)
(-23.6607 4.32564 0)
(-23.7556 4.32141 2.03194e-18)
(-23.8421 4.30977 -4.06744e-18)
(-23.919 4.2879 2.03945e-18)
(-23.9847 4.25071 0)
(-24.0381 4.18922 -1.02871e-18)
(-24.0845 4.09003 -6.6246e-17)
(-24.1397 3.9403 1.34656e-16)
(-24.1988 3.73996 -3.36715e-17)
(-24.2558 3.47495 3.26976e-17)
(-24.4354 3.09912 -3.41733e-17)
(-12.1519 6.09712 0)
(-13.763 5.98767 1.57225e-16)
(-15.0037 5.69651 9.32492e-18)
(-16.0132 5.38142 -1.77634e-17)
(-16.8654 5.10151 1.35968e-21)
(-17.5998 4.8703 2.73765e-16)
(-18.2387 4.68805 1.30429e-16)
(-18.7976 4.54791 0)
(-19.2901 4.4413 0)
(-19.7257 4.36288 5.45325e-17)
(-20.1118 4.30629 7.71295e-18)
(-20.4539 4.26642 1.22942e-16)
(-20.7581 4.23922 -7.62583e-18)
(-21.0304 4.2215 7.57741e-18)
(-21.2751 4.21088 5.27491e-17)
(-21.4957 4.20554 1.49991e-17)
(-21.6948 4.20408 -1.12431e-17)
(-21.8749 4.2054 6.35569e-17)
(-22.039 4.20869 -5.96374e-17)
(-22.1889 4.21324 -5.94878e-17)
(-22.3263 4.21839 -3.71043e-18)
(-22.4523 4.22341 3.70433e-18)
(-22.5676 4.22728 -1.18826e-16)
(-22.673 4.22955 -5.93937e-17)
(-22.7698 4.22967 -3.71115e-18)
(-22.8584 4.22554 3.71219e-18)
(-22.939 4.21609 0)
(-23.0113 4.19914 0)
(-23.075 4.17171 1.86734e-18)
(-23.1294 4.12902 5.02375e-23)
(-23.1747 4.0633 -6.4148e-17)
(-23.2164 3.96284 9.49923e-19)
(-23.2683 3.81662 -6.00462e-17)
(-23.3274 3.62494 3.10237e-17)
(-23.3975 3.37616 -3.11173e-17)
(-23.5874 3.03464 0)
(-12.2597 6.52842 0)
(-13.6506 6.30733 0)
(-14.7388 5.93717 1.35334e-16)
(-15.6465 5.56721 -1.20819e-16)
(-16.4275 5.24529 -7.75933e-18)
(-17.1104 4.9808 -2.33796e-16)
(-17.7103 4.7714 -2.52292e-16)
(-18.2383 4.60911 1.24032e-16)
(-18.7052 4.48337 -5.75599e-17)
(-19.1187 4.38718 -7.11284e-18)
(-19.4852 4.31493 -5.63817e-17)
(-19.8095 4.2613 -4.91842e-17)
(-20.0972 4.22191 5.5825e-17)
(-20.3539 4.19327 -5.55045e-17)
(-20.5835 4.1728 0)
(-20.7893 4.15852 -5.50039e-17)
(-20.9738 4.14892 5.50039e-17)
(-21.1396 4.14276 0)
(-21.2892 4.13911 -5.12915e-23)
(-21.4245 4.13716 -3.41674e-18)
(-21.5471 4.13596 -4.77695e-17)
(-21.6584 4.13464 -5.79494e-17)
(-21.7587 4.13231 3.08328e-23)
(-21.8485 4.12896 5.81519e-17)
(-21.9297 4.1236 -3.4226e-18)
(-22.0026 4.11388 5.48266e-17)
(-22.0672 4.09879 5.49289e-17)
(-22.1238 4.07613 0)
(-22.1724 4.04294 0)
(-22.2135 3.99487 -5.56956e-17)
(-22.2479 3.92521 1.12056e-16)
(-22.2814 3.82388 -5.64818e-17)
(-22.3262 3.68173 5.59267e-17)
(-22.3799 3.4994 8.90432e-19)
(-22.4549 3.26794 0)
(-22.6444 2.96076 0)
(-12.2304 6.92144 0)
(-13.4262 6.59845 -1.47118e-16)
(-14.3866 6.16089 1.54223e-17)
(-15.2065 5.74313 -1.17658e-16)
(-15.9265 5.38337 -1.13592e-16)
(-16.5643 5.08799 1.24448e-16)
(-17.1293 4.8523 -1.36248e-17)
(-17.6292 4.66737 -1.0729e-16)
(-18.0727 4.52259 5.29545e-17)
(-18.4658 4.40917 0)
(-18.814 4.32103 5.1956e-17)
(-19.1216 4.25308 0)
(-19.3935 4.20091 -5.79507e-17)
(-19.6352 4.16078 5.76585e-17)
(-19.8501 4.1299 0)
(-20.0414 4.10613 4.45016e-17)
(-20.2114 4.08785 -3.81678e-17)
(-20.3626 4.07368 -1.52051e-22)
(-20.4975 4.06242 -1.38804e-22)
(-20.6179 4.05306 -6.33609e-18)
(-20.7254 4.04464 5.06593e-17)
(-20.8212 4.03633 3.16568e-18)
(-20.9052 4.02766 4.76697e-17)
(-20.9784 4.01795 0)
(-21.0427 4.00645 0)
(-21.0987 3.99055 -1.02212e-16)
(-21.146 3.96921 -5.12585e-17)
(-21.1854 3.94039 4.82361e-17)
(-21.2174 3.90123 3.23444e-18)
(-21.2431 3.84782 5.21541e-17)
(-21.2643 3.77443 -5.25249e-17)
(-21.2867 3.67258 5.30046e-17)
(-21.3207 3.53486 -5.26071e-17)
(-21.3646 3.3621 -8.3884e-19)
(-21.4373 3.14759 -4.21782e-19)
(-21.6179 2.87357 4.41952e-19)
(-13.1101 6.86572 1.34935e-16)
(-13.9618 6.37223 9.9206e-17)
(-14.7072 5.91258 1.08487e-16)
(-15.3735 5.51885 1.31282e-17)
(-15.9709 5.19432 0)
(-16.5038 4.93297 1.01043e-16)
(-16.9776 4.72516 8.71062e-17)
(-17.399 4.56016 1.22932e-17)
(-17.7729 4.42927 -1.21708e-17)
(-18.1038 4.32516 1.20764e-17)
(-18.3952 4.24266 0)
(-18.6519 4.1772 0)
(-18.8789 4.12488 -5.36975e-17)
(-19.0793 4.08289 -4.1617e-17)
(-19.2561 4.04888 4.74258e-17)
(-19.4116 4.02103 -4.74833e-17)
(-19.5482 3.9979 0)
(-19.6681 3.97812 4.14861e-17)
(-19.7733 3.96056 -4.14721e-17)
(-19.8649 3.94437 0)
(-19.9442 3.92867 -5.33701e-17)
(-20.0114 3.91304 5.36204e-17)
(-20.0671 3.89618 0)
(-20.1136 3.87762 2.99306e-18)
(-20.1515 3.85505 4.50435e-17)
(-20.1806 3.82688 3.01515e-18)
(-20.2018 3.79145 -5.15083e-17)
(-20.2161 3.74611 -4.88129e-17)
(-20.2251 3.68736 4.92426e-17)
(-20.2311 3.61039 0)
(-20.2399 3.50825 5.0141e-17)
(-20.2602 3.37516 0)
(-20.2904 3.21199 5.17501e-17)
(-20.3544 3.01397 -8.01549e-19)
(-20.5184 2.77067 0)
(-12.7172 7.11443 1.38647e-17)
(-13.4769 6.57444 -2.05075e-21)
(-14.1576 6.07865 -1.01109e-16)
(-14.7758 5.65382 1.10337e-16)
(-15.3358 5.30138 -1.19752e-17)
(-15.8388 5.01477 9.45572e-17)
(-16.2878 4.78393 -1.0486e-16)
(-16.6882 4.59798 5.75761e-17)
(-17.0435 4.44828 4.56257e-17)
(-17.3576 4.32744 0)
(-17.6335 4.2298 5.65209e-17)
(-17.8754 4.15043 -6.36125e-22)
(-18.0878 4.08523 3.36049e-17)
(-18.2739 4.03132 3.90885e-17)
(-18.4364 3.9862 5.57118e-18)
(-18.5775 3.94795 8.92906e-17)
(-18.6992 3.91502 0)
(-18.804 3.88602 5.57931e-18)
(-18.8934 3.85977 3.90706e-17)
(-18.9689 3.83522 4.46969e-17)
(-19.0313 3.81149 5.03573e-17)
(-19.0811 3.78797 -9.56343e-17)
(-19.119 3.76327 -5.64264e-18)
(-19.1471 3.73673 -8.43767e-24)
(-19.1666 3.70689 -3.98024e-17)
(-19.1772 3.67148 0)
(-19.1799 3.62905 -4.59865e-17)
(-19.176 3.5773 9.26935e-17)
(-19.1674 3.51318 -5.33386e-22)
(-19.1569 3.43273 0)
(-19.1503 3.33042 -4.92185e-17)
(-19.1545 3.20194 4.82823e-17)
(-19.168 3.04818 -4.71051e-17)
(-19.2175 2.86596 0)
(-19.3583 2.64997 -2.60489e-17)
(-12.2581 7.34938 1.29513e-17)
(-12.9402 6.77055 -1.97643e-16)
(-13.5637 6.2432 9.51408e-17)
(-14.1377 5.78956 -1.03982e-16)
(-14.6628 5.4102 1.01649e-16)
(-15.1373 5.09855 -8.92223e-17)
(-15.5626 4.84449 -1.09964e-17)
(-15.9426 4.63707 -3.26134e-17)
(-16.2799 4.46765 -7.53993e-17)
(-16.5777 4.32885 -1.06939e-17)
(-16.8385 4.21488 -4.27157e-17)
(-17.0659 4.12063 4.25079e-17)
(-17.2642 4.04174 0)
(-17.4363 3.97505 0)
(-17.5846 3.91804 -4.21679e-17)
(-17.7113 3.86872 -8.45132e-17)
(-17.8183 3.82539 1.05697e-17)
(-17.9078 3.78648 -5.28639e-17)
(-17.9816 3.75074 5.29168e-18)
(-18.0408 3.71701 -9.01085e-17)
(-18.0865 3.68453 5.31175e-18)
(-18.1192 3.65225 8.01546e-17)
(-18.1394 3.61899 0)
(-18.1495 3.58382 5.38628e-18)
(-18.1507 3.54598 3.7893e-17)
(-18.1433 3.50298 5.44492e-18)
(-18.1278 3.45326 3.56279e-17)
(-18.1059 3.39487 -4.14606e-17)
(-18.0797 3.32532 -2.79315e-18)
(-18.0521 3.2414 -4.08657e-23)
(-18.0289 3.13889 4.27815e-18)
(-18.0155 3.01481 -4.9091e-17)
(-18.0102 2.87007 -4.58443e-17)
(-18.0406 2.70226 2.42214e-17)
(-18.1531 2.50957 5.03466e-17)
(-11.7416 7.57376 -3.76787e-21)
(-12.357 6.9627 7.0155e-17)
(-12.929 6.40742 0)
(-13.4622 5.9269 6.58268e-17)
(-13.9541 5.52151 -6.43815e-17)
(-14.4013 5.18498 0)
(-14.8037 4.90742 0)
(-15.1639 4.678 0)
(-15.4838 4.48813 5.11901e-17)
(-15.7658 4.33044 -1.01654e-17)
(-16.0119 4.19915 4.06044e-17)
(-16.2253 4.08897 -4.04138e-17)
(-16.4099 3.99536 0)
(-16.5683 3.91501 4.01875e-17)
(-16.7029 3.84521 -4.01242e-17)
(-16.8156 3.78393 7.03824e-17)
(-16.9083 3.7293 2.0127e-17)
(-16.9832 3.67963 3.0212e-17)
(-17.0418 3.63353 0)
(-17.0854 3.58981 4.0431e-17)
(-17.1149 3.5477 -4.0538e-17)
(-17.1313 3.50601 -4.07982e-17)
(-17.1351 3.46359 0)
(-17.128 3.41937 0)
(-17.112 3.37283 0)
(-17.0874 3.32176 0)
(-17.0548 3.2645 0)
(-17.0158 3.19935 -2.6469e-18)
(-16.9727 3.12426 -4.01349e-17)
(-16.9285 3.03681 0)
(-16.8886 2.93395 0)
(-16.8571 2.8138 0)
(-16.8319 2.67725 4.47096e-17)
(-16.8406 2.52203 -6.15582e-22)
(-16.921 2.34888 -2.43922e-17)
(-11.1734 7.7904 0)
(-11.7305 7.15241 0)
(-12.2558 6.57221 0)
(-12.7509 6.06653 -8.38641e-17)
(-13.2113 5.63587 0)
(-13.6324 5.27462 0)
(-14.0126 4.97329 5.99339e-17)
(-14.3537 4.72131 3.95026e-17)
(-14.6567 4.51023 9.78605e-18)
(-14.9234 4.33278 -2.91426e-17)
(-15.1554 4.1832 -7.75978e-17)
(-15.3554 4.05611 -9.65422e-18)
(-15.527 3.94676 4.67401e-22)
(-15.6725 3.85173 -2.88086e-17)
(-15.7942 3.76819 2.87685e-17)
(-15.8937 3.69397 -6.72898e-17)
(-15.973 3.62712 -9.62308e-18)
(-16.0342 3.5658 9.63289e-18)
(-16.0788 3.50855 -3.86015e-17)
(-16.1079 3.45414 -9.67492e-18)
(-16.1227 3.40162 4.85203e-17)
(-16.1245 3.34992 0)
(-16.1134 3.29788 0)
(-16.091 3.24423 0)
(-16.0594 3.18836 0)
(-16.0194 3.12883 0)
(-15.9714 3.06375 4.02702e-17)
(-15.9171 2.99172 0)
(-15.8587 2.91108 2.56925e-18)
(-15.7991 2.81999 -2.59669e-18)
(-15.7432 2.71648 -2.62833e-18)
(-15.6944 2.5995 2.66027e-18)
(-15.6499 2.46992 0)
(-15.6361 2.32534 -2.16971e-17)
(-15.6829 2.16838 0)
(-10.5568 8.0017 -2.22258e-17)
(-11.0627 7.34091 4.27628e-17)
(-11.5456 6.73833 -2.06819e-17)
(-12.0051 6.209 1.81254e-16)
(-12.4356 5.75384 7.88264e-17)
(-12.8315 5.36804 -1.94604e-17)
(-13.1903 5.0427 -7.67433e-17)
(-13.513 4.76761 -3.79287e-17)
(-13.7999 4.53459 1.87868e-17)
(-14.0521 4.3365 1.86481e-17)
(-14.2708 4.16769 3.72304e-17)
(-14.4584 4.02268 0)
(-14.618 3.8966 0)
(-14.7517 3.78589 0)
(-14.8616 3.68762 -4.60045e-17)
(-14.9493 3.59954 5.53368e-17)
(-15.0167 3.5196 -2.36311e-22)
(-15.0658 3.44583 -9.24359e-18)
(-15.0981 3.37669 7.40957e-17)
(-15.1148 3.31095 9.28731e-18)
(-15.117 3.24742 -5.5901e-17)
(-15.1062 3.1852 1.87578e-17)
(-15.0826 3.12314 -1.88469e-17)
(-15.0473 3.0597 -2.36849e-17)
(-15.0026 2.99417 1.69464e-24)
(-14.9495 2.92584 1.19554e-23)
(-14.8887 2.85274 -7.73969e-17)
(-14.8215 2.77368 2.87761e-23)
(-14.7503 2.68748 3.4576e-17)
(-14.6776 2.59269 -3.99441e-17)
(-14.6078 2.48806 -2.52715e-18)
(-14.5434 2.37333 2.55505e-18)
(-14.4815 2.24932 -4.12804e-17)
(-14.4463 2.11331 -6.51762e-19)
(-14.4605 1.96966 2.36878e-17)
(-9.89345 8.20957 -8.55634e-17)
(-10.3544 7.52935 0)
(-10.7987 6.90653 -1.99443e-17)
(-11.2252 6.35494 -1.36e-16)
(-11.6275 5.87601 -5.70341e-17)
(-11.9995 5.46588 -1.87657e-17)
(-12.3381 5.11636 5.5486e-17)
(-12.6433 4.8177 5.48295e-17)
(-12.915 4.56205 -3.6201e-17)
(-13.1538 4.3425 -3.59219e-17)
(-13.3603 4.15353 0)
(-13.5367 3.98966 0)
(-13.6856 3.84587 0)
(-13.8091 3.71854 0)
(-13.9089 3.60462 3.54076e-17)
(-13.9867 3.50182 -8.87081e-18)
(-14.0442 3.40799 -1.77599e-17)
(-14.0834 3.32104 1.778e-17)
(-14.1058 3.23939 1.78158e-17)
(-14.1125 3.16175 -1.25177e-22)
(-14.105 3.08678 2.68824e-17)
(-14.0843 3.01362 0)
(-14.051 2.94119 0)
(-14.0061 2.86771 3.00882e-22)
(-13.9513 2.79251 3.66627e-17)
(-13.8882 2.71502 0)
(-13.8178 2.63388 4.65156e-18)
(-13.7411 2.54777 -4.22631e-17)
(-13.6603 2.45592 -3.79886e-17)
(-13.5776 2.35734 3.83985e-17)
(-13.4968 2.2511 -2.42825e-18)
(-13.4199 2.13761 -3.67757e-17)
(-13.3441 2.01764 3.96197e-17)
(-13.2905 1.88843 4.00443e-17)
(-13.2753 1.75548 -2.22728e-17)
(-9.18416 8.41566 8.27437e-17)
(-9.60563 7.71886 9.9728e-17)
(-10.0153 7.07767 -5.79334e-17)
(-10.4115 6.50507 9.40565e-17)
(-10.7877 6.00313 5.52041e-17)
(-11.1373 5.56896 -1.81529e-17)
(-11.4569 5.19518 -5.36536e-17)
(-11.746 4.87257 -3.53306e-17)
(-12.0038 4.59372 6.99507e-17)
(-12.2305 4.35196 -1.73439e-17)
(-12.4264 4.14201 1.72959e-17)
(-12.5931 3.95839 -3.44036e-17)
(-12.7333 3.79601 -3.42757e-17)
(-12.8485 3.65119 -3.41887e-17)
(-12.9404 3.5208 -1.7064e-17)
(-13.0106 3.40252 3.41889e-17)
(-13.0608 3.29411 8.55354e-17)
(-13.0928 3.19339 -3.42474e-17)
(-13.1081 3.0987 -3.43109e-17)
(-13.1079 3.0087 3.44e-17)
(-13.0937 2.92194 2.58765e-17)
(-13.0664 2.83756 -2.60347e-17)
(-13.0269 2.75449 3.48679e-17)
(-12.9759 2.6709 7.00961e-17)
(-12.9149 2.58608 -4.407e-17)
(-12.8456 2.49937 5.32385e-17)
(-12.7692 2.41019 2.68249e-17)
(-12.6869 2.31716 3.61e-17)
(-12.6004 2.21969 4.56134e-18)
(-12.5117 2.11719 -4.60919e-18)
(-12.4239 2.00898 3.49144e-17)
(-12.3385 1.8958 4.22714e-17)
(-12.2532 1.77841 -2.3717e-18)
(-12.1857 1.65463 -7.61123e-17)
(-12.1476 1.53005 -4.378e-17)
(-8.42881 8.62154 -4.01778e-17)
(-8.81587 7.91073 -3.87541e-17)
(-9.19474 7.25282 1.12581e-16)
(-9.56367 6.66039 3.65419e-17)
(-9.91601 6.13619 -1.42932e-16)
(-10.2453 5.67835 7.04435e-17)
(-10.5477 5.28036 -3.46811e-17)
(-10.8222 4.93356 3.42328e-17)
(-11.0678 4.63104 -1.69351e-17)
(-11.2842 4.36648 -1.67855e-17)
(-11.4713 4.13483 3.34485e-17)
(-11.6306 3.93071 3.32493e-17)
(-11.7641 3.74895 6.62189e-17)
(-11.8735 3.58588 6.60208e-17)
(-11.9601 3.43832 0)
(-12.0255 3.30392 -3.29757e-17)
(-12.0713 3.18038 -6.597e-17)
(-12.0993 3.06542 3.3005e-17)
(-12.1108 2.95728 -3.30548e-17)
(-12.1072 2.85457 -4.96942e-17)
(-12.0898 2.75577 -9.98374e-23)
(-12.0597 2.65999 5.00986e-17)
(-12.0177 2.56617 -2.858e-22)
(-11.9646 2.47256 -6.73878e-17)
(-11.9015 2.37825 3.3879e-17)
(-11.8302 2.28261 -4.26149e-17)
(-11.7521 2.18534 8.5851e-18)
(-11.6685 2.08562 0)
(-11.5807 1.9827 0)
(-11.4903 1.87622 0)
(-11.4 1.76579 -5.44199e-22)
(-11.3109 1.65222 0)
(-11.2209 1.53626 2.26532e-18)
(-11.1444 1.41645 3.43371e-17)
(-11.0902 1.29774 8.31868e-17)
(-7.62638 8.8289 1.94337e-21)
(-7.9838 8.10644 -3.78006e-17)
(-8.33575 7.43336 -7.31599e-17)
(-8.68072 6.82223 -3.56033e-17)
(-9.01204 6.27656 1.39141e-16)
(-9.32338 5.79552 -3.42572e-17)
(-9.61074 5.37347 3.37016e-17)
(-9.87287 5.00239 -3.84304e-22)
(-10.1083 4.67589 -3.286e-17)
(-10.3166 4.38805 1.20083e-21)
(-10.4973 4.13415 -3.23925e-17)
(-10.6515 3.9089 3.2178e-17)
(-10.7811 3.70714 -3.20203e-17)
(-10.8873 3.52521 -4.78555e-17)
(-10.9717 3.35991 4.77186e-17)
(-11.0355 3.20887 1.59118e-17)
(-11.0802 3.06977 7.25087e-23)
(-11.1076 2.94019 -4.77194e-17)
(-11.1189 2.81831 3.18436e-17)
(-11.1156 2.70265 0)
(-11.0989 2.59169 0)
(-11.0698 2.48448 -2.6091e-22)
(-11.0294 2.37994 -3.22225e-17)
(-10.9783 2.27651 2.42677e-17)
(-10.9176 2.17298 -2.43857e-17)
(-10.8488 2.06884 4.08703e-17)
(-10.7734 1.96372 -4.93678e-17)
(-10.6928 1.85751 8.29376e-18)
(-10.6082 1.74937 4.18514e-17)
(-10.5208 1.63898 -8.42491e-18)
(-10.4328 1.52615 -3.393e-17)
(-10.3449 1.41168 3.41975e-17)
(-10.2553 1.29626 0)
(-10.1754 1.17891 3.48456e-17)
(-10.1122 1.06379 -3.99864e-17)
(-7.10724 8.30783 3.7034e-17)
(-7.43646 7.62106 3.57841e-17)
(-7.76103 6.99236 3.47869e-17)
(-8.07453 6.42606 -1.01855e-16)
(-8.3708 5.92237 -1.00189e-16)
(-8.6458 5.47653 3.28178e-17)
(-8.89808 5.08122 -9.70103e-17)
(-9.12597 4.73061 3.19377e-17)
(-9.32868 4.4192 0)
(-9.50558 4.14264 0)
(-9.65749 3.8958 3.1172e-17)
(-9.78607 3.67357 -6.19869e-17)
(-9.8924 3.47231 3.08543e-17)
(-9.97778 3.28883 -6.14785e-17)
(-10.0433 3.12079 1.53592e-17)
(-10.0905 2.9658 1.53396e-17)
(-10.121 2.82135 6.13139e-17)
(-10.1359 2.68553 0)
(-10.1367 2.55677 -4.60371e-17)
(-10.1246 2.43368 1.5364e-17)
(-10.1006 2.31512 -3.08434e-17)
(-10.0659 2.20003 3.09214e-17)
(-10.0211 2.08699 -1.55126e-17)
(-9.96713 1.97467 1.55749e-17)
(-9.90527 1.86249 -3.12962e-17)
(-9.83696 1.7501 7.08103e-17)
(-9.76373 1.63754 -7.92209e-18)
(-9.6868 1.52447 -2.39297e-17)
(-9.60699 1.41032 -8.0121e-18)
(-9.52587 1.29499 4.02973e-18)
(-9.44408 1.17925 -6.89825e-17)
(-9.35995 1.06372 2.04515e-18)
(-9.2823 0.947527 -3.50815e-17)
(-9.21717 0.834211 0)
(-6.18267 8.51729 0)
(-6.49382 7.81828 0)
(-6.80207 7.17312 0)
(-7.10136 6.58703 0)
(-7.38584 6.06133 3.26373e-17)
(-7.65157 5.59214 -3.20235e-17)
(-7.89697 5.17279 3.1519e-17)
(-8.12022 4.79809 3.19511e-22)
(-8.32034 4.46298 0)
(-8.49646 4.16353 0)
(-8.64918 3.89481 3.0227e-17)
(-8.77995 3.65178 5.52722e-22)
(-8.88967 3.43087 2.98535e-17)
(-8.97947 3.22891 2.97085e-17)
(-9.05035 3.04359 0)
(-9.10366 2.8725 -2.95806e-17)
(-9.14089 2.71303 -1.47646e-17)
(-9.16327 2.56318 -4.42575e-17)
(-9.17207 2.42133 4.4255e-17)
(-9.16852 2.28613 2.95075e-17)
(-9.15368 2.15643 -1.47911e-17)
(-9.12855 2.03105 -2.96254e-17)
(-9.09407 1.90864 -4.45414e-17)
(-9.05098 1.78802 5.95645e-17)
(-9.00031 1.6683 -2.98885e-17)
(-8.94337 1.54922 -7.50455e-18)
(-8.88163 1.43071 -1.50892e-17)
(-8.81637 1.31294 7.57204e-18)
(-8.74834 1.19521 0)
(-8.67851 1.07736 -3.81603e-18)
(-8.60735 0.960077 7.67618e-18)
(-8.5335 0.843889 2.7047e-17)
(-8.46344 0.728012 3.01786e-17)
(-8.40274 0.615228 3.76191e-17)
(-5.20497 8.73782 1.44583e-16)
(-5.50314 8.02813 -6.94818e-17)
(-5.79978 7.36757 0)
(-6.08908 6.76256 -6.52908e-17)
(-6.36555 6.21553 3.19857e-17)
(-6.6255 5.72348 6.26489e-17)
(-6.86736 5.28045 -3.07766e-17)
(-7.08926 4.88182 6.0624e-17)
(-7.29005 4.52304 -2.99057e-17)
(-7.46865 4.20062 0)
(-7.62548 3.90987 -8.38378e-22)
(-7.76177 3.64584 -5.81881e-17)
(-7.8783 3.40507 2.88941e-17)
(-7.97602 3.18445 0)
(-8.05578 2.98169 2.86176e-17)
(-8.1188 2.79437 -2.85111e-17)
(-8.16651 2.61981 2.84249e-17)
(-8.20006 2.45594 -3.57086e-22)
(-8.22059 2.30108 -5.66626e-17)
(-8.22937 2.1538 0)
(-8.22742 2.01317 -1.41647e-17)
(-8.2157 1.87782 1.41672e-17)
(-8.19519 1.74637 5.67307e-17)
(-8.16671 1.61781 -1.42071e-17)
(-8.13105 1.49111 -1.4239e-17)
(-8.08927 1.36583 2.85573e-17)
(-8.04269 1.24194 -7.16019e-18)
(-7.99273 1.11961 7.16917e-18)
(-7.94011 0.998507 7.18139e-18)
(-7.88538 0.878166 1.60041e-23)
(-7.8288 0.759156 -1.08511e-17)
(-7.76934 0.641927 -5.45406e-17)
(-7.71157 0.525836 -2.92702e-17)
(-7.66094 0.41272 -3.46068e-17)
(-4.16749 8.97329 -7.20655e-17)
(-4.45785 8.25468 6.90437e-17)
(-4.74801 7.57981 -4.26098e-21)
(-5.03225 6.95665 -6.44678e-17)
(-5.30516 6.3889 -6.29345e-17)
(-5.56332 5.87456 5.39498e-21)
(-5.80538 5.40824 3.01287e-17)