/*--------------------------------*- C++ -*----------------------------------*\
  =========                 |
  \\      /  F ield         | OpenFOAM: The Open Source CFD Toolbox
   \\    /   O peration     | Website:  https://openfoam.org
    \\  /    A nd           | Version:  8
     \\/     M anipulation  |
\*---------------------------------------------------------------------------*/
FoamFile
{
    version     2.0;
    format      ascii;
    class       volScalarField;
    location    "0.0404";
    object      p;
}
// * * * * * * * * * * * * * * * * * * * * * * * * * * * * * * * * * * * * * //

dimensions      [0 2 -2 0 0 0 0];

internalField   nonuniform List<scalar> 
334404
(
0.942833
0.947121
0.9488
0.949415
0.951036
0.953408
0.956039
0.958667
0.961128
0.963417
0.965542
0.96756
0.969463
0.971252
0.972949
0.974537
0.976007
0.977366
0.9786
0.979703
0.980667
0.981499
0.982189
0.982731
0.98313
0.983378
0.983474
0.983416
0.983207
0.982841
0.982315
0.981632
0.980787
0.97978
0.978613
0.977282
0.975787
0.97413
0.972309
0.970325
0.968179
0.96587
0.9634
0.960771
0.957982
0.955034
0.95193
0.948672
0.945261
0.941697
0.937988
0.93413
0.930126
0.925982
0.921701
0.91728
0.912727
0.908046
0.903235
0.898301
0.893248
0.888075
0.882789
0.877392
0.871892
0.866284
0.860579
0.854781
0.848887
0.842906
0.836844
0.830698
0.824476
0.818182
0.811822
0.805393
0.798903
0.79236
0.78576
0.779109
0.772413
0.765679
0.758899
0.752086
0.745245
0.738371
0.731474
0.724558
0.71762
0.710667
0.703703
0.696733
0.689752
0.68277
0.675791
0.668809
0.661834
0.654873
0.647915
0.640972
0.634045
0.627138
0.620245
0.613377
0.606538
0.599717
0.592927
0.586167
0.57944
0.572742
0.566082
0.559459
0.55287
0.546322
0.539816
0.533348
0.526926
0.520546
0.514214
0.507923
0.501681
0.49549
0.489342
0.483247
0.477203
0.471205
0.465261
0.459368
0.45353
0.447741
0.442006
0.436327
0.430699
0.425125
0.419606
0.414144
0.408732
0.403377
0.398079
0.392833
0.387642
0.382509
0.377428
0.372402
0.367432
0.362518
0.357655
0.352848
0.348098
0.343398
0.338753
0.334164
0.329625
0.325141
0.32071
0.316332
0.312004
0.307729
0.303508
0.299335
0.295214
0.291145
0.287125
0.283153
0.279233
0.275363
0.271538
0.267763
0.264037
0.260356
0.256724
0.253138
0.249598
0.246102
0.242653
0.239249
0.235888
0.232572
0.2293
0.226069
0.222882
0.219736
0.216633
0.21357
0.210547
0.207567
0.204625
0.201723
0.198859
0.196036
0.193247
0.190498
0.187786
0.18511
0.182471
0.179869
0.177301
0.174768
0.172269
0.169806
0.167374
0.164977
0.162614
0.160281
0.157981
0.155715
0.153477
0.151271
0.149095
0.14695
0.144833
0.142747
0.14069
0.13866
0.13666
0.134687
0.132741
0.130822
0.12893
0.127065
0.125224
0.12341
0.121622
0.119858
0.118119
0.116404
0.114713
0.113045
0.111401
0.10978
0.108181
0.106605
0.105051
0.103518
0.102007
0.100517
0.0990484
0.0975994
0.0961709
0.094763
0.0933741
0.0920051
0.0906549
0.0893242
0.0880108
0.0867165
0.0854406
0.0841817
0.0829408
0.0817178
0.0805112
0.0793214
0.0781482
0.0769918
0.0758505
0.0747257
0.0736171
0.0725226
0.0714442
0.0703814
0.0693319
0.0682976
0.0672777
0.066272
0.0652794
0.0643011
0.0633369
0.062385
0.0614468
0.0605214
0.0596088
0.058708
0.0578204
0.0569449
0.0560805
0.0552288
0.0543888
0.0535596
0.0527421
0.0519356
0.0511401
0.050355
0.0495807
0.0488172
0.0480633
0.0473201
0.0465871
0.0458632
0.0451494
0.0444449
0.0437501
0.043064
0.0423873
0.0417197
0.0410605
0.0404102
0.0397686
0.0391355
0.0385099
0.0378929
0.0372842
0.0366826
0.0360892
0.0355037
0.0349252
0.0343543
0.0337906
0.0332343
0.0326844
0.0321418
0.0316063
0.0310767
0.030554
0.0300383
0.0295282
0.0290246
0.0285273
0.028036
0.02755
0.0270703
0.0265967
0.0261279
0.0256651
0.025208
0.0247559
0.0243086
0.023867
0.0234305
0.0229983
0.0225715
0.0221495
0.0217316
0.021319
0.0209107
0.0205068
0.0201068
0.0197114
0.0193203
0.0189328
0.0185497
0.0181707
0.0177949
0.0174234
0.0170553
0.0166909
0.0163298
0.0159723
0.0156184
0.0152673
0.0149197
0.0145753
0.0142342
0.0138954
0.0135599
0.0132276
0.0128973
0.0125702
0.0122459
0.0119238
0.0116044
0.0112874
0.010973
0.0106603
0.0103502
0.0100427
0.0097365
0.00943265
0.00913111
0.00883091
0.00853293
0.0082368
0.00794231
0.00764902
0.00735767
0.0070682
0.0067795
0.00649249
0.00620708
0.00592293
0.00563939
0.00535751
0.00507678
0.0047965
0.00451769
0.00423985
0.00396216
0.00368582
0.00341017
0.00313512
0.00286025
0.00258609
0.00231252
0.00203878
0.00176576
0.00149286
0.00121978
0.00094623
0.000676052
0.000392171
0.000163703
0.934416
0.938964
0.942953
0.945989
0.948356
0.950489
0.952637
0.954903
0.957206
0.959526
0.961805
0.964041
0.966171
0.968187
0.970103
0.97189
0.973553
0.97511
0.976537
0.977845
0.979024
0.980078
0.980994
0.98177
0.982407
0.982896
0.983236
0.983421
0.983456
0.983335
0.983058
0.982622
0.982026
0.98127
0.98035
0.979269
0.978024
0.976614
0.975038
0.973299
0.971396
0.969326
0.967094
0.964701
0.962142
0.959424
0.956545
0.953511
0.950315
0.946966
0.943467
0.93981
0.936008
0.932058
0.927969
0.92373
0.919356
0.914851
0.910204
0.905432
0.900538
0.895512
0.89037
0.885112
0.879746
0.874261
0.868677
0.862994
0.857204
0.851325
0.84536
0.839299
0.833162
0.826944
0.820655
0.814289
0.807859
0.801369
0.794814
0.788206
0.781545
0.774843
0.768087
0.761296
0.754469
0.747604
0.740712
0.733797
0.726853
0.719893
0.712915
0.705929
0.698925
0.691917
0.684912
0.677896
0.670884
0.663884
0.656883
0.649894
0.642919
0.63596
0.629013
0.622086
0.615188
0.608306
0.601451
0.594626
0.587832
0.581062
0.574331
0.567636
0.56097
0.554348
0.547765
0.541216
0.534716
0.528256
0.521842
0.515468
0.509145
0.502869
0.496636
0.490457
0.484328
0.478244
0.472215
0.466236
0.460311
0.454437
0.448616
0.44285
0.437136
0.431477
0.425871
0.420324
0.414828
0.409388
0.404004
0.398674
0.393401
0.388183
0.38302
0.377913
0.372859
0.367865
0.362922
0.358034
0.353206
0.348428
0.343704
0.339039
0.334424
0.329863
0.325358
0.320906
0.316505
0.312156
0.307864
0.303621
0.299429
0.295291
0.291203
0.287162
0.283176
0.27924
0.275349
0.271511
0.267721
0.263976
0.260283
0.256636
0.253035
0.249481
0.245973
0.242511
0.239093
0.235721
0.232394
0.229108
0.225867
0.222669
0.219513
0.216399
0.213326
0.210295
0.207305
0.204354
0.201442
0.198572
0.195738
0.192943
0.190186
0.187466
0.184784
0.182139
0.179529
0.176955
0.174416
0.171913
0.169442
0.167006
0.164605
0.162235
0.159899
0.157596
0.155322
0.153081
0.150872
0.148693
0.146543
0.144423
0.142335
0.140275
0.138242
0.136239
0.134264
0.132315
0.130395
0.128501
0.126632
0.124791
0.122977
0.121185
0.119421
0.11768
0.115964
0.114272
0.112604
0.110959
0.109336
0.107738
0.106162
0.104607
0.103075
0.101563
0.100073
0.0986043
0.0971556
0.0957274
0.0943202
0.0929319
0.0915625
0.0902138
0.0888829
0.0875709
0.086277
0.0850015
0.0837441
0.0825045
0.0812821
0.0800765
0.0788877
0.0777164
0.0765603
0.0754205
0.0742977
0.0731895
0.0720971
0.0710206
0.0699581
0.0689105
0.0678783
0.0668598
0.0658552
0.0648642
0.0638884
0.0629254
0.0619754
0.0610391
0.0601153
0.0592036
0.058306
0.0574199
0.0565452
0.0556839
0.0548343
0.0539951
0.0531686
0.0523528
0.051548
0.0507546
0.0499717
0.0491993
0.0484371
0.0476862
0.046945
0.046213
0.0454919
0.0447798
0.0440773
0.0433845
0.0427005
0.0420256
0.0413602
0.0407032
0.0400545
0.0394152
0.0387835
0.0381602
0.0375456
0.036938
0.0363389
0.0357474
0.0351638
0.0345874
0.034018
0.0334566
0.0329018
0.0323539
0.0318136
0.0312793
0.0307517
0.0302314
0.0297169
0.0292086
0.0287072
0.0282115
0.0277216
0.0272373
0.0267599
0.0262875
0.0258206
0.0253597
0.0249039
0.0244527
0.0240081
0.0235679
0.023132
0.0227023
0.022277
0.0218556
0.0214402
0.0210287
0.0206214
0.020219
0.0198206
0.0194264
0.0190361
0.0186507
0.0182688
0.0178903
0.0175165
0.0171457
0.0167786
0.0164156
0.0160556
0.015699
0.0153462
0.0149962
0.0146492
0.0143062
0.0139655
0.0136277
0.0132935
0.0129612
0.0126321
0.0123057
0.0119821
0.0116609
0.0113417
0.0110257
0.0107114
0.0103993
0.0100903
0.00978248
0.00947679
0.00917379
0.00887213
0.00857231
0.00827495
0.00797888
0.00768424
0.00739104
0.00710032
0.00681035
0.0065218
0.00623519
0.00594945
0.00566442
0.00538165
0.00509944
0.00481766
0.00453787
0.00425866
0.00397954
0.00370231
0.00342529
0.00314871
0.00287316
0.00259775
0.00232273
0.00204772
0.00177394
0.0014998
0.00122539
0.00095115
0.000679406
0.000395425
0.000162839
0.92806
0.932174
0.93631
0.94026
0.943711
0.946597
0.949098
0.951403
0.953615
0.955841
0.95809
0.96036
0.962598
0.964794
0.96691
0.968911
0.970799
0.972565
0.974195
0.975708
0.977097
0.978354
0.979487
0.980491
0.981352
0.982078
0.982658
0.983086
0.983364
0.983488
0.983457
0.983268
0.98292
0.982412
0.981742
0.980909
0.979912
0.978751
0.977425
0.975931
0.974273
0.972447
0.970454
0.9683
0.965979
0.963492
0.960845
0.958034
0.955063
0.951931
0.948647
0.945203
0.941604
0.937858
0.933961
0.929915
0.92573
0.921401
0.91693
0.91233
0.907595
0.902728
0.897741
0.892629
0.887398
0.882047
0.876593
0.871027
0.865354
0.859587
0.853719
0.847755
0.841711
0.835576
0.829359
0.823072
0.816707
0.81027
0.803776
0.797215
0.790595
0.783929
0.777208
0.770441
0.763631
0.756787
0.749906
0.742991
0.736054
0.729088
0.722101
0.715102
0.708085
0.701054
0.694022
0.686981
0.679936
0.672897
0.66586
0.658826
0.651807
0.644797
0.637803
0.630819
0.623863
0.616924
0.610006
0.603118
0.596256
0.589419
0.58262
0.575851
0.569113
0.562416
0.555757
0.549131
0.542552
0.536012
0.529517
0.523062
0.516658
0.510296
0.503981
0.497718
0.491502
0.485334
0.479222
0.473155
0.467142
0.461185
0.455277
0.449422
0.443626
0.437879
0.432187
0.426553
0.420972
0.415447
0.409978
0.404564
0.399206
0.393904
0.388659
0.383468
0.378334
0.373256
0.368233
0.363265
0.358355
0.353499
0.348698
0.343953
0.339262
0.334625
0.330044
0.325516
0.321044
0.31662
0.312255
0.30794
0.303678
0.299469
0.295312
0.291204
0.28715
0.283145
0.27919
0.275286
0.271432
0.267624
0.263868
0.260159
0.256497
0.252883
0.249316
0.245795
0.24232
0.238891
0.235506
0.232166
0.228872
0.225619
0.22241
0.219244
0.21612
0.213038
0.209999
0.206998
0.204038
0.20112
0.198241
0.195399
0.192597
0.189833
0.187107
0.184418
0.181766
0.17915
0.17657
0.174027
0.171516
0.169041
0.166601
0.164194
0.16182
0.15948
0.157171
0.154895
0.152651
0.150437
0.148255
0.146102
0.143981
0.141888
0.139825
0.137791
0.135786
0.133807
0.131858
0.129935
0.128039
0.12617
0.124328
0.12251
0.120719
0.118953
0.117212
0.115494
0.113802
0.112133
0.110487
0.108866
0.107266
0.105689
0.104136
0.102603
0.101091
0.0996021
0.0981332
0.0966848
0.0952583
0.0938504
0.0924622
0.0910949
0.0897461
0.0884163
0.0871055
0.0858125
0.0845382
0.0832819
0.0820434
0.0808216
0.0796181
0.0784308
0.0772599
0.0761055
0.0749682
0.073846
0.0727399
0.071649
0.0705735
0.0695129
0.0684677
0.0674364
0.0664202
0.065417
0.0644289
0.0634542
0.062493
0.0615451
0.0606107
0.0596883
0.05878
0.0578835
0.0569991
0.0561274
0.0552683
0.0544194
0.0535833
0.0527585
0.0519448
0.0511424
0.0503512
0.0495702
0.0487999
0.0480406
0.0472912
0.0465517
0.045823
0.0451031
0.0443933
0.0436936
0.0430025
0.0423205
0.0416487
0.0409847
0.0403295
0.0396837
0.039046
0.0384166
0.0377962
0.0371824
0.0365778
0.0359806
0.0353915
0.0348096
0.0342356
0.0336683
0.0331086
0.0325559
0.0320107
0.0314717
0.0309398
0.0304142
0.0298956
0.029383
0.028877
0.028377
0.0278838
0.0273951
0.0269136
0.0264375
0.0259669
0.0255022
0.025043
0.024588
0.0241401
0.0236965
0.0232574
0.0228245
0.0223962
0.0219714
0.0215528
0.0211386
0.0207282
0.020323
0.0199222
0.0195249
0.0191321
0.018744
0.0183593
0.0179787
0.0176026
0.0172288
0.0168595
0.0164945
0.0161322
0.0157732
0.0154186
0.0150661
0.0147172
0.0143721
0.0140295
0.0136897
0.0133539
0.0130193
0.0126887
0.0123604
0.012035
0.0117119
0.0113917
0.0110732
0.0107575
0.010444
0.0101333
0.00982406
0.0095172
0.00921196
0.00890933
0.00860815
0.00830902
0.00801142
0.00771624
0.00742119
0.00712911
0.00683797
0.00654818
0.00626023
0.00597349
0.00568703
0.00540298
0.00511962
0.00483679
0.00455593
0.00427573
0.00399508
0.00371683
0.00343894
0.00316103
0.00288438
0.00260831
0.00233188
0.00205616
0.00178125
0.00150586
0.00123091
0.000955979
0.000682443
0.000398075
0.000162634
0.922117
0.92576
0.929594
0.933593
0.937541
0.941204
0.944461
0.947331
0.949883
0.952239
0.954496
0.956725
0.958952
0.961193
0.963406
0.96557
0.967652
0.969632
0.971486
0.97322
0.974819
0.97629
0.977631
0.978844
0.979924
0.980874
0.981683
0.982349
0.982868
0.983235
0.983449
0.983507
0.983406
0.983145
0.982724
0.98214
0.981393
0.98048
0.979403
0.978159
0.976748
0.975168
0.973423
0.971508
0.969427
0.967179
0.964766
0.962188
0.959447
0.956539
0.953474
0.950248
0.946864
0.943324
0.939633
0.935785
0.931791
0.927651
0.923367
0.918941
0.914381
0.90968
0.904851
0.899894
0.894811
0.889607
0.884288
0.878848
0.873303
0.867649
0.861895
0.856039
0.850092
0.844048
0.83792
0.831709
0.82542
0.819054
0.812619
0.806113
0.799546
0.792921
0.786239
0.779508
0.772729
0.765903
0.759038
0.752139
0.745206
0.738244
0.731258
0.724246
0.717219
0.710176
0.70312
0.696057
0.688988
0.681913
0.67484
0.667772
0.660708
0.653652
0.646612
0.639578
0.632565
0.625569
0.618596
0.611644
0.60472
0.597816
0.590948
0.584109
0.577304
0.570531
0.563798
0.557097
0.550439
0.54382
0.537246
0.530712
0.524225
0.517779
0.511384
0.505035
0.498735
0.492483
0.486284
0.480132
0.474033
0.467989
0.461995
0.456055
0.45017
0.444338
0.438561
0.432839
0.427172
0.421562
0.416008
0.410508
0.405065
0.399679
0.394349
0.389075
0.383858
0.378698
0.373593
0.368545
0.363552
0.358618
0.353739
0.348911
0.344145
0.339431
0.334773
0.330168
0.325622
0.321125
0.316685
0.312297
0.307965
0.303684
0.299457
0.295279
0.291157
0.287084
0.283063
0.279092
0.275174
0.271302
0.267481
0.263709
0.259987
0.256311
0.252685
0.249102
0.245571
0.242084
0.238641
0.235247
0.231896
0.228589
0.225326
0.222108
0.218932
0.215799
0.212708
0.209659
0.206651
0.203684
0.200756
0.197869
0.195022
0.192212
0.189441
0.186709
0.184013
0.181355
0.178733
0.176149
0.173599
0.171084
0.168605
0.166159
0.163749
0.16137
0.159026
0.156714
0.154434
0.152185
0.14997
0.147784
0.145629
0.143505
0.141411
0.139344
0.137309
0.135299
0.133321
0.131369
0.129445
0.127547
0.125678
0.123834
0.122016
0.120224
0.118457
0.116715
0.114997
0.113305
0.111636
0.10999
0.108368
0.106769
0.105193
0.103638
0.102105
0.100596
0.0991066
0.0976377
0.0961906
0.0947644
0.0933574
0.0919711
0.0906034
0.0892565
0.0879281
0.0866178
0.0853262
0.084054
0.0827986
0.0815604
0.0803418
0.0791388
0.0779531
0.0767838
0.0756321
0.0744956
0.0733758
0.0722703
0.0711825
0.0701084
0.06905
0.0680059
0.0669776
0.0659625
0.0649621
0.0639755
0.0630036
0.0620441
0.0610985
0.060165
0.0592466
0.0583398
0.0574452
0.056563
0.0556943
0.0548363
0.0539904
0.0531569
0.0523342
0.0515225
0.0507223
0.0499336
0.0491549
0.0483873
0.0476295
0.0468832
0.0461462
0.045419
0.0447018
0.0439951
0.0432969
0.042608
0.0419287
0.0412589
0.0405974
0.0399451
0.0393007
0.0386659
0.0380392
0.0374193
0.0368098
0.0362067
0.0356119
0.0350245
0.0344456
0.0338731
0.0333084
0.0327506
0.0322011
0.0316571
0.0311207
0.03059
0.0300677
0.0295509
0.0290404
0.028536
0.028039
0.0275467
0.027061
0.0265808
0.0261075
0.0256385
0.0251758
0.0247172
0.0242661
0.0238193
0.0233767
0.0229409
0.0225091
0.0220818
0.0216597
0.021243
0.0208301
0.0204216
0.0200177
0.0196186
0.019223
0.0188322
0.0184447
0.0180623
0.0176835
0.0173075
0.0169358
0.0165687
0.0162043
0.0158433
0.0154857
0.0151321
0.0147812
0.0144334
0.0140896
0.013748
0.01341
0.0130734
0.0127416
0.0124115
0.0120843
0.0117592
0.0114379
0.0111178
0.0108005
0.0104853
0.0101736
0.00986258
0.00955449
0.00924715
0.00894386
0.00864143
0.00834066
0.00804147
0.00774539
0.00744936
0.00715582
0.006863
0.00657303
0.00628329
0.00599483
0.00570841
0.00542262
0.00513826
0.00485425
0.00457261
0.00429106
0.00400986
0.00372997
0.00345155
0.00317302
0.00289474
0.00261739
0.00234097
0.00206416
0.00178815
0.00151159
0.00123656
0.000960392
0.00068606
0.000401346
0.00016231
0.916388
0.919836
0.923369
0.927092
0.93098
0.934892
0.93866
0.942159
0.945317
0.948153
0.950713
0.953098
0.95538
0.957625
0.959847
0.962064
0.964251
0.966386
0.968433
0.970377
0.972201
0.973895
0.975453
0.976881
0.978175
0.97934
0.980366
0.981258
0.98201
0.982613
0.983069
0.98337
0.983517
0.983503
0.983329
0.982994
0.982496
0.981833
0.981005
0.980009
0.978847
0.977517
0.976017
0.974349
0.97251
0.970505
0.96833
0.965988
0.963478
0.960804
0.957964
0.95496
0.951797
0.948472
0.944989
0.941348
0.937557
0.933611
0.929518
0.925277
0.920896
0.916372
0.911711
0.906914
0.901991
0.896937
0.89176
0.88646
0.881049
0.875521
0.869885
0.864141
0.858301
0.852361
0.846327
0.840201
0.833998
0.827707
0.821339
0.814901
0.808392
0.801818
0.795179
0.788491
0.781744
0.774951
0.768107
0.761228
0.754309
0.747354
0.74037
0.733361
0.726326
0.719273
0.712199
0.705121
0.698026
0.690926
0.683822
0.676718
0.669618
0.662518
0.655433
0.648356
0.641289
0.63424
0.627211
0.6202
0.613214
0.606248
0.599316
0.592407
0.585532
0.578688
0.57188
0.565109
0.558372
0.551676
0.545023
0.53841
0.531842
0.525313
0.518838
0.512404
0.506019
0.499683
0.493398
0.487164
0.480976
0.474846
0.468767
0.462739
0.456767
0.45085
0.444986
0.439179
0.433423
0.427729
0.422087
0.416503
0.410975
0.405503
0.400089
0.394731
0.389429
0.384188
0.378999
0.373871
0.368795
0.36378
0.358821
0.353915
0.34907
0.344277
0.339543
0.334861
0.330238
0.325669
0.321153
0.316693
0.312286
0.307934
0.303637
0.299388
0.295198
0.291056
0.286967
0.28293
0.278944
0.275009
0.271123
0.267287
0.263503
0.259765
0.256078
0.252436
0.248845
0.2453
0.241799
0.238349
0.234941
0.23158
0.228263
0.224991
0.221763
0.218577
0.215436
0.212336
0.209278
0.206263
0.203286
0.200354
0.197458
0.194604
0.191789
0.189011
0.186273
0.183571
0.180907
0.178282
0.17569
0.173136
0.170618
0.168133
0.165685
0.163268
0.160888
0.158539
0.156224
0.153941
0.15169
0.149472
0.147283
0.145126
0.143001
0.140902
0.138836
0.136796
0.134788
0.132806
0.130854
0.128929
0.127031
0.12516
0.123315
0.121496
0.119705
0.117936
0.116195
0.114477
0.112784
0.111116
0.109469
0.107849
0.106249
0.104673
0.10312
0.101588
0.100079
0.0985896
0.0971225
0.0956774
0.0942506
0.0928459
0.0914596
0.0900942
0.0887489
0.0874207
0.0861128
0.0848229
0.0835519
0.0822971
0.0810623
0.079845
0.0786432
0.0774599
0.0762928
0.0751419
0.0740087
0.0728893
0.0717882
0.0707003
0.0696289
0.0685729
0.0675308
0.0665048
0.0654918
0.0644934
0.0635105
0.062539
0.0615828
0.0606383
0.0597092
0.0587926
0.0578871
0.0569958
0.0561161
0.0552492
0.0543944
0.0535508
0.0527198
0.0518988
0.0510897
0.0502932
0.0495057
0.0487305
0.0479642
0.0472107
0.046465
0.0457308
0.0450068
0.0442921
0.0435877
0.0428915
0.0422051
0.0415296
0.0408608
0.0402027
0.0395518
0.0389112
0.0382785
0.0376527
0.0370377
0.0364287
0.0358286
0.0352364
0.0346512
0.0340746
0.0335043
0.0329416
0.0323879
0.0318387
0.031298
0.0307627
0.030236
0.0297153
0.0291998
0.0286924
0.0281902
0.027695
0.0272048
0.0267209
0.0262445
0.0257713
0.0253053
0.0248434
0.0243887
0.023939
0.0234927
0.0230545
0.0226186
0.0221889
0.0217644
0.0213439
0.0209289
0.0205171
0.0201107
0.0197095
0.0193106
0.0189179
0.0185274
0.0181428
0.0177619
0.0173832
0.0170099
0.01664
0.0162735
0.0159112
0.0155507
0.0151958
0.0148423
0.0144933
0.014147
0.0138036
0.0134641
0.0131255
0.0127926
0.0124601
0.0121314
0.0118054
0.0114816
0.0111606
0.0108414
0.0105248
0.0102121
0.00989903
0.00959002
0.00928119
0.00897644
0.00867326
0.00837043
0.00807084
0.00777271
0.00747569
0.00718155
0.00688691
0.00659642
0.00630492
0.00601557
0.00572868
0.00544083
0.00515629
0.0048707
0.0045887
0.00430532
0.00402352
0.0037432
0.00346295
0.00318425
0.00290476
0.00262642
0.00234976
0.00207125
0.0017953
0.00151738
0.00124177
0.000965281
0.000689576
0.0004057
0.00016141
0.910633
0.914087
0.917527
0.921051
0.9247
0.928487
0.932336
0.936138
0.939768
0.943141
0.946224
0.949021
0.951584
0.95399
0.956289
0.958544
0.960766
0.962971
0.965132
0.967229
0.969246
0.971149
0.972933
0.974584
0.976099
0.977481
0.978724
0.979835
0.980807
0.981638
0.982327
0.982866
0.983256
0.983488
0.983561
0.983474
0.983224
0.98281
0.982231
0.981486
0.980572
0.979491
0.978239
0.976819
0.975228
0.973466
0.971535
0.969432
0.96716
0.964721
0.962112
0.959338
0.956396
0.953294
0.950026
0.946598
0.943015
0.939272
0.935378
0.931329
0.927134
0.922794
0.918308
0.913686
0.908923
0.904029
0.899007
0.893853
0.888582
0.883187
0.87768
0.872062
0.866332
0.860503
0.854571
0.848544
0.842429
0.836221
0.829934
0.823563
0.817121
0.810608
0.804023
0.797381
0.790674
0.783918
0.777107
0.77025
0.763353
0.756411
0.749439
0.74243
0.735397
0.728339
0.721256
0.714162
0.707048
0.699926
0.692799
0.685661
0.678528
0.671392
0.664263
0.657143
0.650029
0.64293
0.635845
0.628779
0.621735
0.614708
0.607713
0.600737
0.593795
0.586884
0.580001
0.573158
0.566348
0.559576
0.552843
0.546152
0.539504
0.532896
0.526337
0.519821
0.513352
0.506934
0.500561
0.494243
0.48797
0.481754
0.475588
0.469474
0.463417
0.45741
0.45146
0.445568
0.439724
0.433943
0.428215
0.422545
0.416932
0.411374
0.405875
0.400432
0.395047
0.389721
0.384449
0.379239
0.374081
0.368984
0.363945
0.358959
0.354034
0.349163
0.34435
0.339591
0.334891
0.330247
0.325655
0.321123
0.316641
0.312217
0.307848
0.303529
0.299267
0.295057
0.290899
0.286795
0.282741
0.278741
0.27479
0.270892
0.267042
0.263242
0.259494
0.255792
0.252139
0.248537
0.244977
0.241469
0.238005
0.234588
0.231217
0.227891
0.224609
0.221371
0.218178
0.215027
0.21192
0.208856
0.20583
0.202849
0.199907
0.197006
0.194146
0.191323
0.188542
0.185796
0.18309
0.180422
0.17779
0.175196
0.172637
0.170113
0.167626
0.165172
0.162754
0.160369
0.158019
0.1557
0.153414
0.151162
0.14894
0.14675
0.144592
0.142462
0.140364
0.138295
0.136256
0.134245
0.132264
0.13031
0.128383
0.126485
0.124613
0.122768
0.120951
0.119156
0.11739
0.115648
0.11393
0.112238
0.11057
0.108925
0.107303
0.105706
0.104131
0.102577
0.101048
0.0995381
0.098051
0.0965861
0.0951405
0.0937166
0.0923124
0.0909281
0.0895648
0.0882193
0.0868945
0.0855875
0.0843007
0.0830293
0.0817786
0.0805457
0.0793286
0.0781305
0.0769491
0.0757834
0.0746358
0.0735032
0.0723879
0.071287
0.0702028
0.0691347
0.0680791
0.0670409
0.0660163
0.0650062
0.0640109
0.0630293
0.0620611
0.0611063
0.0601662
0.0592393
0.0583237
0.0574228
0.0565325
0.0556562
0.0547921
0.0539391
0.0530991
0.0522701
0.0514517
0.0506466
0.0498509
0.0490673
0.0482935
0.0475323
0.0467786
0.046037
0.045306
0.0445835
0.0438721
0.04317
0.0424765
0.041794
0.0411191
0.0404547
0.0397974
0.0391509
0.038512
0.0378809
0.0372597
0.0366454
0.03604
0.0354433
0.0348516
0.0342705
0.0336953
0.0331279
0.0325686
0.0320158
0.0314698
0.0309306
0.0303992
0.0298744
0.0293546
0.0288438
0.0283368
0.0278382
0.0273441
0.0268569
0.0263759
0.0259
0.02543
0.0249654
0.0245069
0.0240539
0.0236049
0.0231634
0.022724
0.0222919
0.0218646
0.0214407
0.0210231
0.0206089
0.0202004
0.0197954
0.0193947
0.0189995
0.0186068
0.0182194
0.017837
0.0174552
0.0170802
0.0167079
0.0163395
0.0159749
0.0156133
0.0152554
0.0149003
0.0145498
0.0142013
0.0138563
0.0135155
0.0131748
0.0128399
0.0125061
0.0121759
0.0118486
0.0115233
0.0112003
0.0108798
0.0105623
0.0102475
0.00993342
0.00962362
0.00931294
0.00900674
0.00870266
0.00839852
0.00809785
0.00779876
0.0075003
0.0072049
0.00690961
0.00661758
0.00632515
0.00603563
0.00574655
0.00545831
0.00517257
0.00488638
0.00460295
0.0043194
0.00403598
0.00375536
0.00347383
0.00319413
0.00291406
0.00263595
0.0023571
0.00207835
0.00180165
0.00152346
0.00124652
0.000970243
0.000693197
0.000410146
0.000160518
0.904763
0.908295
0.911784
0.915267
0.918788
0.922396
0.926107
0.929891
0.933679
0.937375
0.940889
0.944164
0.947175
0.949938
0.952502
0.954917
0.957236
0.959498
0.961722
0.963906
0.966045
0.96811
0.970083
0.971946
0.973684
0.975288
0.976758
0.978088
0.97928
0.980334
0.981247
0.982015
0.982639
0.983111
0.983427
0.983586
0.983585
0.983419
0.983089
0.982593
0.98193
0.981098
0.980096
0.978924
0.97758
0.976065
0.974379
0.972521
0.970491
0.96829
0.965917
0.963375
0.960665
0.957787
0.954743
0.951534
0.948164
0.94463
0.94094
0.937093
0.933092
0.92894
0.924641
0.920194
0.915606
0.910879
0.906016
0.90102
0.895897
0.890644
0.885273
0.879784
0.87418
0.868466
0.862648
0.856723
0.850704
0.844591
0.838387
0.832098
0.825729
0.819279
0.812758
0.806169
0.799513
0.792798
0.786027
0.7792
0.772327
0.765409
0.758449
0.751453
0.744427
0.737364
0.730281
0.723175
0.71605
0.70891
0.70176
0.694597
0.687432
0.680264
0.673097
0.665934
0.65878
0.651631
0.644497
0.637378
0.630276
0.623193
0.616136
0.609097
0.602088
0.595109
0.588159
0.581242
0.574361
0.567512
0.560704
0.553935
0.547207
0.540521
0.533879
0.527283
0.52073
0.514227
0.507772
0.501367
0.495011
0.488708
0.482454
0.476255
0.47011
0.464018
0.45798
0.452
0.446072
0.440202
0.434388
0.428631
0.422932
0.41729
0.411703
0.406176
0.400707
0.395295
0.389941
0.384646
0.379407
0.374227
0.369106
0.364041
0.359034
0.354085
0.349192
0.344356
0.339579
0.334857
0.330191
0.325582
0.321029
0.316529
0.312087
0.307698
0.303364
0.299085
0.294858
0.290685
0.286565
0.282497
0.278481
0.274518
0.270604
0.266741
0.26293
0.259167
0.255454
0.251791
0.248174
0.244606
0.241086
0.237613
0.234186
0.230805
0.227469
0.224179
0.220933
0.217732
0.214573
0.211459
0.208385
0.205354
0.202366
0.199418
0.196512
0.193644
0.190818
0.188029
0.185279
0.182569
0.179896
0.17726
0.174662
0.172098
0.169572
0.16708
0.164624
0.162203
0.159816
0.157462
0.155141
0.152854
0.150598
0.148375
0.146184
0.144022
0.141893
0.139793
0.137723
0.135683
0.133672
0.131689
0.129735
0.127809
0.12591
0.124038
0.122194
0.120375
0.118583
0.116817
0.115074
0.113358
0.111667
0.109998
0.108355
0.106735
0.105138
0.103564
0.102013
0.100483
0.0989756
0.0974905
0.0960263
0.0945828
0.0931602
0.0917575
0.0903759
0.0890137
0.0876711
0.0863479
0.0850437
0.0837566
0.0824897
0.0812408
0.0800093
0.0787956
0.0775998
0.0764196
0.0752572
0.0741115
0.0729821
0.0718686
0.0707711
0.0696897
0.068622
0.0675712
0.0665348
0.065513
0.0645059
0.0635134
0.0625337
0.0615685
0.0606172
0.0596798
0.0587547
0.0578433
0.0569434
0.0560572
0.0551837
0.0543219
0.0534723
0.052635
0.0518082
0.0509939
0.0501904
0.0493984
0.048617
0.0478474
0.0470868
0.0463379
0.045599
0.0448697
0.0441509
0.0434423
0.042742
0.0420526
0.0413722
0.0407011
0.0400375
0.039385
0.03874
0.038104
0.0374766
0.0368571
0.0362459
0.0356437
0.0350477
0.0344608
0.0338814
0.0333093
0.0327445
0.0321874
0.0316367
0.0310937
0.0305577
0.0300285
0.0295053
0.0289895
0.028479
0.0279764
0.0274792
0.0269879
0.0265031
0.0260243
0.02555
0.0250827
0.0246209
0.0241645
0.0237129
0.0232677
0.022826
0.0223905
0.0219602
0.0215343
0.0211134
0.020697
0.0202857
0.0198777
0.0194752
0.0190771
0.0186828
0.0182926
0.0179078
0.0175246
0.0171468
0.0167726
0.0164022
0.0160354
0.0156724
0.015312
0.0149558
0.0146028
0.0142529
0.0139062
0.0135634
0.0132217
0.0128846
0.0125498
0.0122178
0.0118886
0.0115625
0.0112377
0.0109163
0.0105973
0.0102804
0.00996632
0.00965389
0.00934304
0.00903552
0.00872965
0.0084252
0.00812276
0.00782278
0.00752316
0.00722661
0.00693113
0.00663698
0.0063442
0.00605377
0.00576305
0.00547464
0.00518766
0.00490132
0.00461589
0.00433211
0.00404803
0.00376594
0.00348442
0.00320349
0.00292324
0.00264397
0.00236392
0.00208554
0.00180742
0.00152936
0.00125178
0.00097424
0.000697144
0.00041417
0.000159984
0.898803
0.902408
0.905969
0.909506
0.913028
0.916566
0.920156
0.92382
0.927551
0.931308
0.935022
0.938618
0.942031
0.945218
0.948171
0.950907
0.953465
0.95589
0.958223
0.960491
0.962711
0.964881
0.966989
0.969018
0.970949
0.972767
0.974456
0.976012
0.977429
0.978706
0.979842
0.980836
0.981686
0.98239
0.982943
0.983343
0.983585
0.983667
0.983586
0.983339
0.982925
0.982343
0.981591
0.980668
0.979574
0.978308
0.976869
0.975256
0.973471
0.971512
0.96938
0.967075
0.964599
0.961952
0.959135
0.956151
0.952999
0.949683
0.946203
0.942563
0.938764
0.934809
0.9307
0.92644
0.922032
0.917479
0.912785
0.907952
0.902984
0.897885
0.892657
0.887305
0.881834
0.876245
0.870545
0.864735
0.858822
0.852808
0.846698
0.840495
0.834205
0.827832
0.821379
0.814851
0.808252
0.801587
0.794857
0.788071
0.781229
0.774338
0.7674
0.76042
0.753404
0.746349
0.739266
0.732156
0.725022
0.717869
0.7107
0.703518
0.696326
0.689129
0.681928
0.674728
0.667532
0.660341
0.65316
0.64599
0.638835
0.631695
0.624578
0.617481
0.610408
0.603362
0.596345
0.589358
0.582404
0.575484
0.5686
0.561755
0.554949
0.548184
0.541461
0.534784
0.52815
0.521563
0.515024
0.508534
0.502094
0.495704
0.489365
0.48308
0.476846
0.470669
0.464544
0.458475
0.452461
0.446504
0.440603
0.434759
0.428973
0.423244
0.417573
0.41196
0.406405
0.400908
0.39547
0.390091
0.384769
0.379507
0.374302
0.369156
0.364069
0.359039
0.354068
0.349152
0.344297
0.339498
0.334756
0.330071
0.325443
0.320869
0.316354
0.311893
0.307487
0.303137
0.298841
0.294598
0.29041
0.286275
0.282193
0.278163
0.274185
0.270259
0.266384
0.26256
0.258785
0.255061
0.251386
0.247758
0.244181
0.240651
0.237167
0.233732
0.230342
0.226998
0.223699
0.220445
0.217236
0.214071
0.210948
0.207869
0.204832
0.201838
0.198884
0.195972
0.1931
0.190267
0.187474
0.184721
0.182006
0.179329
0.176688
0.174087
0.17152
0.16899
0.166497
0.164038
0.161614
0.159225
0.156868
0.154546
0.152257
0.15
0.147776
0.145583
0.143421
0.14129
0.13919
0.137119
0.135079
0.133067
0.131085
0.129131
0.127204
0.125305
0.123435
0.12159
0.119772
0.117981
0.116214
0.114474
0.112759
0.111068
0.109401
0.107759
0.106141
0.104545
0.102972
0.101423
0.0998951
0.0983898
0.0969061
0.0954437
0.0940024
0.0925817
0.0911817
0.0898021
0.0884415
0.0871021
0.0857806
0.084478
0.0831947
0.0819301
0.0806835
0.0794546
0.0782436
0.0770496
0.0758729
0.0747131
0.0735701
0.0724435
0.0713328
0.0702381
0.0691588
0.0680952
0.0670468
0.0660133
0.0649945
0.0639904
0.0630002
0.0620242
0.0610614
0.0601142
0.0591789
0.058257
0.057348
0.0564521
0.0555689
0.0546981
0.0538395
0.052993
0.0521581
0.0513351
0.0505235
0.0497232
0.0489342
0.0481562
0.0473888
0.046632
0.0458858
0.0451498
0.0444239
0.0437082
0.0430018
0.0423048
0.041619
0.0409415
0.0402719
0.039613
0.0389626
0.0383208
0.0376876
0.0370629
0.0364466
0.0358385
0.0352381
0.0346459
0.0340616
0.0334847
0.0329155
0.0323536
0.0317987
0.0312513
0.0307109
0.0301774
0.0296506
0.0291306
0.028616
0.02811
0.0276089
0.027114
0.0266256
0.0261432
0.0256663
0.0251953
0.0247302
0.0242705
0.0238162