/*--------------------------------*- C++ -*----------------------------------*\
  =========                 |
  \\      /  F ield         | OpenFOAM: The Open Source CFD Toolbox
   \\    /   O peration     | Website:  https://openfoam.org
    \\  /    A nd           | Version:  8
     \\/     M anipulation  |
\*---------------------------------------------------------------------------*/
FoamFile
{
    version     2.0;
    format      ascii;
    class       volScalarField;
    location    "9.4";
    object      p;
}
// * * * * * * * * * * * * * * * * * * * * * * * * * * * * * * * * * * * * * //

dimensions      [0 2 -2 0 0 0 0];

internalField   nonuniform List<scalar> 
262620
(
-1.35613
-1.35634
-1.35702
-1.35804
-1.35937
-1.36102
-1.36295
-1.36516
-1.36762
-1.37032
-1.37325
-1.37637
-1.37969
-1.38319
-1.38685
-1.39066
-1.39461
-1.39868
-1.40287
-1.40715
-1.41153
-1.41599
-1.42053
-1.42512
-1.42977
-1.43447
-1.4392
-1.44397
-1.44876
-1.45356
-1.45838
-1.46321
-1.46803
-1.47286
-1.47767
-1.48247
-1.48725
-1.49202
-1.49675
-1.50146
-1.50614
-1.51079
-1.51539
-1.51996
-1.52449
-1.52898
-1.53342
-1.53782
-1.54217
-1.54647
-1.55072
-1.55492
-1.55907
-1.56316
-1.5672
-1.57119
-1.57513
-1.57901
-1.58283
-1.5866
-1.59031
-1.59397
-1.59758
-1.60113
-1.60462
-1.60806
-1.61145
-1.61478
-1.61806
-1.62128
-1.62445
-1.62757
-1.63064
-1.63365
-1.63661
-1.63953
-1.64239
-1.6452
-1.64797
-1.65068
-1.65335
-1.65597
-1.65854
-1.66107
-1.66356
-1.66599
-1.66839
-1.67074
-1.67305
-1.67532
-1.67754
-1.67973
-1.68187
-1.68398
-1.68604
-1.68807
-1.69006
-1.69202
-1.69393
-1.69582
-1.69766
-1.69948
-1.70125
-1.703
-1.70471
-1.70639
-1.70804
-1.70966
-1.71125
-1.71281
-1.71434
-1.71584
-1.71731
-1.71876
-1.72017
-1.72157
-1.72293
-1.72427
-1.72558
-1.72687
-1.356
-1.35621
-1.35688
-1.3579
-1.35923
-1.36088
-1.36281
-1.36502
-1.36748
-1.37018
-1.3731
-1.37623
-1.37955
-1.38305
-1.38671
-1.39052
-1.39447
-1.39854
-1.40273
-1.40701
-1.41139
-1.41585
-1.42039
-1.42499
-1.42964
-1.43433
-1.43907
-1.44384
-1.44863
-1.45344
-1.45826
-1.46309
-1.46792
-1.47274
-1.47756
-1.48236
-1.48714
-1.49191
-1.49665
-1.50136
-1.50604
-1.51069
-1.5153
-1.51987
-1.52441
-1.5289
-1.53334
-1.53774
-1.54209
-1.5464
-1.55065
-1.55485
-1.559
-1.5631
-1.56714
-1.57114
-1.57507
-1.57896
-1.58278
-1.58656
-1.59027
-1.59394
-1.59754
-1.6011
-1.60459
-1.60804
-1.61143
-1.61476
-1.61804
-1.62127
-1.62444
-1.62756
-1.63063
-1.63365
-1.63661
-1.63953
-1.64239
-1.64521
-1.64798
-1.6507
-1.65337
-1.65599
-1.65857
-1.6611
-1.66358
-1.66603
-1.66842
-1.67078
-1.67309
-1.67536
-1.67758
-1.67977
-1.68192
-1.68403
-1.6861
-1.68813
-1.69012
-1.69208
-1.694
-1.69588
-1.69773
-1.69954
-1.70132
-1.70307
-1.70479
-1.70647
-1.70812
-1.70974
-1.71133
-1.71289
-1.71442
-1.71593
-1.7174
-1.71885
-1.72027
-1.72166
-1.72303
-1.72437
-1.72568
-1.72697
-1.35576
-1.35597
-1.35664
-1.35766
-1.35899
-1.36063
-1.36256
-1.36477
-1.36723
-1.36993
-1.37285
-1.37598
-1.3793
-1.38279
-1.38646
-1.39027
-1.39422
-1.39829
-1.40248
-1.40677
-1.41115
-1.41561
-1.42015
-1.42475
-1.4294
-1.4341
-1.43884
-1.44361
-1.44841
-1.45322
-1.45805
-1.46288
-1.46771
-1.47254
-1.47736
-1.48217
-1.48696
-1.49173
-1.49647
-1.50119
-1.50587
-1.51053
-1.51514
-1.51972
-1.52426
-1.52875
-1.5332
-1.53761
-1.54196
-1.54627
-1.55053
-1.55474
-1.55889
-1.563
-1.56705
-1.57104
-1.57499
-1.57887
-1.58271
-1.58649
-1.59021
-1.59388
-1.59749
-1.60105
-1.60455
-1.608
-1.61139
-1.61473
-1.61801
-1.62124
-1.62442
-1.62755
-1.63062
-1.63364
-1.63661
-1.63953
-1.6424
-1.64522
-1.64799
-1.65072
-1.65339
-1.65602
-1.6586
-1.66113
-1.66362
-1.66607
-1.66847
-1.67083
-1.67314
-1.67542
-1.67765
-1.67984
-1.68199
-1.6841
-1.68617
-1.6882
-1.6902
-1.69216
-1.69408
-1.69597
-1.69782
-1.69964
-1.70142
-1.70317
-1.70489
-1.70658
-1.70823
-1.70986
-1.71145
-1.71301
-1.71455
-1.71605
-1.71753
-1.71898
-1.7204
-1.72179
-1.72316
-1.72451
-1.72583
-1.72712
-1.35541
-1.35562
-1.35628
-1.3573
-1.35862
-1.36026
-1.36219
-1.36439
-1.36685
-1.36955
-1.37247
-1.3756
-1.37892
-1.38241
-1.38608
-1.38989
-1.39384
-1.39792
-1.40211
-1.4064
-1.41078
-1.41525
-1.41979
-1.42439
-1.42905
-1.43376
-1.4385
-1.44327
-1.44808
-1.45289
-1.45773
-1.46256
-1.4674
-1.47224
-1.47706
-1.48188
-1.48667
-1.49145
-1.4962
-1.50093
-1.50562
-1.51028
-1.5149
-1.51949
-1.52403
-1.52853
-1.53299
-1.5374
-1.54177
-1.54608
-1.55035
-1.55457
-1.55873
-1.56284
-1.5669
-1.5709
-1.57485
-1.57875
-1.58259
-1.58637
-1.59011
-1.59378
-1.5974
-1.60097
-1.60448
-1.60793
-1.61133
-1.61468
-1.61797
-1.62121
-1.62439
-1.62753
-1.63061
-1.63364
-1.63661
-1.63954
-1.64242
-1.64524
-1.64802
-1.65075
-1.65343
-1.65607
-1.65865
-1.66119
-1.66369
-1.66614
-1.66855
-1.67091
-1.67323
-1.67551
-1.67775
-1.67995
-1.6821
-1.68422
-1.6863
-1.68834
-1.69034
-1.6923
-1.69423
-1.69612
-1.69798
-1.6998
-1.70159
-1.70335
-1.70507
-1.70676
-1.70842
-1.71005
-1.71165
-1.71321
-1.71475
-1.71626
-1.71774
-1.71919
-1.72062
-1.72202
-1.72339
-1.72474
-1.72606
-1.72736
-1.35495
-1.35515
-1.35581
-1.35682
-1.35814
-1.35977
-1.3617
-1.3639
-1.36635
-1.36905
-1.37197
-1.37509
-1.37841
-1.38191
-1.38558
-1.38939
-1.39334
-1.39742
-1.40161
-1.40591
-1.4103
-1.41477
-1.41931
-1.42392
-1.42859
-1.4333
-1.43805
-1.44283
-1.44764
-1.45246
-1.4573
-1.46215
-1.46699
-1.47184
-1.47667
-1.48149
-1.4863
-1.49109
-1.49585
-1.50058
-1.50528
-1.50995
-1.51458
-1.51918
-1.52373
-1.52825
-1.53272
-1.53714
-1.54151
-1.54584
-1.55011
-1.55434
-1.55851
-1.56264
-1.5667
-1.57072
-1.57468
-1.57858
-1.58243
-1.58623
-1.58997
-1.59366
-1.59729
-1.60086
-1.60438
-1.60785
-1.61126
-1.61461
-1.61791
-1.62116
-1.62436
-1.6275
-1.63059
-1.63363
-1.63661
-1.63955
-1.64243
-1.64527
-1.64806
-1.65079
-1.65348
-1.65613
-1.65872
-1.66127
-1.66377
-1.66623
-1.66865
-1.67102
-1.67335
-1.67563
-1.67788
-1.68008
-1.68225
-1.68437
-1.68645
-1.6885
-1.69051
-1.69248
-1.69442
-1.69631
-1.69818
-1.70001
-1.7018
-1.70356
-1.70529
-1.70699
-1.70865
-1.71029
-1.71189
-1.71346
-1.71501
-1.71652
-1.71801
-1.71947
-1.7209
-1.7223
-1.72368
-1.72503
-1.72636
-1.72766
-1.35438
-1.35458
-1.35522
-1.35622
-1.35754
-1.35917
-1.36109
-1.36328
-1.36574
-1.36843
-1.37135
-1.37447
-1.37779
-1.38129
-1.38496
-1.38877
-1.39273
-1.39681
-1.40101
-1.40531
-1.4097
-1.41418
-1.41873
-1.42334
-1.42801
-1.43273
-1.43749
-1.44228
-1.44709
-1.45193
-1.45678
-1.46163
-1.46649
-1.47134
-1.47619
-1.48102
-1.48584
-1.49063
-1.49541
-1.50015
-1.50487
-1.50955
-1.51419
-1.5188
-1.52337
-1.52789
-1.53237
-1.53681
-1.54119
-1.54553
-1.54982
-1.55406
-1.55825
-1.56238
-1.56646
-1.57049
-1.57446
-1.57838
-1.58224
-1.58605
-1.5898
-1.5935
-1.59714
-1.60073
-1.60426
-1.60774
-1.61116
-1.61453
-1.61784
-1.6211
-1.62431
-1.62747
-1.63057
-1.63362
-1.63661
-1.63956
-1.64246
-1.6453
-1.6481
-1.65085
-1.65355
-1.6562
-1.65881
-1.66137
-1.66388
-1.66635
-1.66877
-1.67116
-1.67349
-1.67579
-1.67804
-1.68026
-1.68243
-1.68456
-1.68665
-1.68871
-1.69073
-1.69271
-1.69465
-1.69656
-1.69843
-1.70027
-1.70207
-1.70384
-1.70558
-1.70728
-1.70895
-1.71059
-1.7122
-1.71378
-1.71533
-1.71686
-1.71835
-1.71981
-1.72125
-1.72266
-1.72405
-1.72541
-1.72674
-1.72804
-1.35371
-1.35389
-1.35453
-1.35552
-1.35683
-1.35845
-1.36036
-1.36255
-1.365
-1.36769
-1.37061
-1.37374
-1.37706
-1.38055
-1.38422
-1.38804
-1.392
-1.39608
-1.40028
-1.40459
-1.40899
-1.41347
-1.41803
-1.42265
-1.42733
-1.43206
-1.43682
-1.44162
-1.44645
-1.45129
-1.45615
-1.46102
-1.46589
-1.47075
-1.47561
-1.48046
-1.48529
-1.4901
-1.49488
-1.49964
-1.50437
-1.50907
-1.51373
-1.51835
-1.52293
-1.52747
-1.53196
-1.53641
-1.54082
-1.54517
-1.54947
-1.55373
-1.55793
-1.56208
-1.56617
-1.57022
-1.5742
-1.57814
-1.58202
-1.58584
-1.58961
-1.59332
-1.59698
-1.60058
-1.60412
-1.60762
-1.61105
-1.61443
-1.61776
-1.62104
-1.62426
-1.62742
-1.63054
-1.6336
-1.63661
-1.63957
-1.64248
-1.64534
-1.64815
-1.65091
-1.65363
-1.65629
-1.65891
-1.66148
-1.66401
-1.66649
-1.66892
-1.67132
-1.67367
-1.67597
-1.67824
-1.68046
-1.68264
-1.68479
-1.68689
-1.68896
-1.69098
-1.69297
-1.69493
-1.69684
-1.69873
-1.70057
-1.70238
-1.70416
-1.70591
-1.70762
-1.7093
-1.71095
-1.71257
-1.71416
-1.71572
-1.71725
-1.71875
-1.72022
-1.72167
-1.72309
-1.72448
-1.72584
-1.72718
-1.72849
-1.35293
-1.3531
-1.35372
-1.35471
-1.356
-1.35762
-1.35953
-1.36171
-1.36416
-1.36684
-1.36976
-1.37288
-1.3762
-1.3797
-1.38337
-1.38719
-1.39115
-1.39524
-1.39945
-1.40376
-1.40816
-1.41265
-1.41722
-1.42185
-1.42654
-1.43128
-1.43605
-1.44087
-1.4457
-1.45056
-1.45543
-1.46031
-1.46519
-1.47007
-1.47495
-1.47981
-1.48465
-1.48948
-1.49428
-1.49905
-1.5038
-1.50851
-1.51319
-1.51782
-1.52242
-1.52698
-1.53149
-1.53596
-1.54038
-1.54475
-1.54907
-1.55334
-1.55756
-1.56173
-1.56584
-1.5699
-1.57391
-1.57786
-1.58175
-1.58559
-1.58938
-1.59311
-1.59678
-1.6004
-1.60396
-1.60747
-1.61092
-1.61432
-1.61767
-1.62096
-1.62419
-1.62738
-1.63051
-1.63359
-1.63661
-1.63959
-1.64251
-1.64539
-1.64821
-1.65099
-1.65371
-1.65639
-1.65903
-1.66161
-1.66415
-1.66665
-1.6691
-1.6715
-1.67386
-1.67618
-1.67846
-1.6807
-1.68289
-1.68505
-1.68717
-1.68924
-1.69128
-1.69328
-1.69525
-1.69718
-1.69907
-1.70093
-1.70275
-1.70454
-1.70629
-1.70802
-1.70971
-1.71137
-1.713
-1.7146
-1.71616
-1.7177
-1.71921
-1.7207
-1.72215
-1.72358
-1.72498
-1.72635
-1.7277
-1.72902
-1.35204
-1.3522
-1.35281
-1.35378
-1.35507
-1.35668
-1.35858
-1.36076
-1.3632
-1.36588
-1.36879
-1.37192
-1.37524
-1.37874
-1.38241
-1.38623
-1.39019
-1.39429
-1.3985
-1.40282
-1.40723
-1.41173
-1.41631
-1.42095
-1.42564
-1.43039
-1.43518
-1.44001
-1.44486
-1.44973
-1.45462
-1.45951
-1.46441
-1.4693
-1.47419
-1.47907
-1.48393
-1.48877
-1.49359
-1.49839
-1.50315
-1.50788
-1.51257
-1.51723
-1.52185
-1.52642
-1.53096
-1.53544
-1.53988
-1.54427
-1.54861
-1.55291
-1.55714
-1.56133
-1.56546
-1.56954
-1.57357
-1.57754
-1.58145
-1.58531
-1.58912
-1.59287
-1.59656
-1.6002
-1.60378
-1.60731
-1.61078
-1.6142
-1.61756
-1.62087
-1.62412
-1.62732
-1.63047
-1.63357
-1.63661
-1.63961
-1.64255
-1.64544
-1.64828
-1.65107
-1.65382
-1.65651
-1.65916
-1.66176
-1.66432
-1.66683
-1.66929
-1.67171
-1.67409
-1.67642
-1.67872
-1.68097
-1.68318
-1.68535
-1.68748
-1.68957
-1.69162
-1.69363
-1.69561
-1.69755
-1.69946
-1.70133
-1.70316
-1.70496
-1.70673
-1.70847
-1.71017
-1.71184
-1.71348
-1.71509
-1.71667
-1.71822
-1.71974
-1.72123
-1.7227
-1.72413
-1.72554
-1.72693
-1.72829
-1.72961
-1.35106
-1.3512
-1.3518
-1.35276
-1.35404
-1.35563
-1.35752
-1.3597
-1.36213
-1.36481
-1.36772
-1.37084
-1.37416
-1.37766
-1.38133
-1.38516
-1.38913
-1.39323
-1.39745
-1.40177
-1.40619
-1.4107
-1.41529
-1.41994
-1.42465
-1.42941
-1.43421
-1.43905
-1.44392
-1.4488
-1.45371
-1.45862
-1.46353
-1.46844
-1.47335
-1.47825
-1.48313
-1.48799
-1.49283
-1.49764
-1.50242
-1.50718
-1.51189
-1.51657
-1.52121
-1.52581
-1.53036
-1.53487
-1.53933
-1.54374
-1.54811
-1.55242
-1.55668
-1.56089
-1.56504
-1.56914
-1.57319
-1.57718
-1.58112
-1.585
-1.58883
-1.5926
-1.59631
-1.59997
-1.60358
-1.60712
-1.61062
-1.61406
-1.61744
-1.62077
-1.62404
-1.62726
-1.63043
-1.63355
-1.63661
-1.63962
-1.64258
-1.6455
-1.64836
-1.65117
-1.65393
-1.65664
-1.65931
-1.66193
-1.6645
-1.66703
-1.66951
-1.67195
-1.67434
-1.67669
-1.679
-1.68127
-1.68349
-1.68568
-1.68782
-1.68993
-1.692
-1.69403
-1.69602
-1.69797
-1.69989
-1.70178
-1.70362
-1.70544
-1.70722
-1.70897
-1.71068
-1.71237
-1.71402
-1.71564
-1.71723
-1.71879
-1.72033
-1.72183
-1.72331
-1.72476
-1.72618
-1.72757
-1.72894
-1.73027
-1.34997
-1.35009
-1.35068
-1.35163
-1.35289
-1.35448
-1.35636
-1.35853
-1.36096
-1.36363
-1.36654
-1.36966
-1.37297
-1.37648
-1.38015
-1.38398
-1.38795
-1.39206
-1.39628
-1.40062
-1.40505
-1.40957
-1.41416
-1.41883
-1.42355
-1.42832
-1.43314
-1.438
-1.44288
-1.44778
-1.4527
-1.45763
-1.46257
-1.4675
-1.47243
-1.47734
-1.48224
-1.48713
-1.49199
-1.49682
-1.50163
-1.5064
-1.51114
-1.51584
-1.5205
-1.52513
-1.5297
-1.53423
-1.53872
-1.54316
-1.54754
-1.55188
-1.55617
-1.5604
-1.56458
-1.5687
-1.57278
-1.57679
-1.58075
-1.58466
-1.58851
-1.5923
-1.59604
-1.59972
-1.60335
-1.60692
-1.61044
-1.6139
-1.61731
-1.62066
-1.62395
-1.6272
-1.63039
-1.63353
-1.63661
-1.63965
-1.64263
-1.64556
-1.64844
-1.65127
-1.65405
-1.65679
-1.65947
-1.66211
-1.6647
-1.66725
-1.66975
-1.67221
-1.67462
-1.67699
-1.67931
-1.6816
-1.68384
-1.68604
-1.68821
-1.69033
-1.69241
-1.69446
-1.69646
-1.69844
-1.70037
-1.70227
-1.70413
-1.70596
-1.70776
-1.70952
-1.71125
-1.71295
-1.71461
-1.71625
-1.71785
-1.71943
-1.72098
-1.72249
-1.72398
-1.72544
-1.72687
-1.72828
-1.72966
-1.73101
-1.34879
-1.34889
-1.34946
-1.35039
-1.35165
-1.35322
-1.3551
-1.35725
-1.35967
-1.36234
-1.36525
-1.36836
-1.37168
-1.37518
-1.37886
-1.38269
-1.38667
-1.39078
-1.39502
-1.39936
-1.4038
-1.40833
-1.41294
-1.41761
-1.42235
-1.42714
-1.43198
-1.43685
-1.44175
-1.44667
-1.45161
-1.45656
-1.46151
-1.46647
-1.47141
-1.47635
-1.48128
-1.48618
-1.49107
-1.49593
-1.50076
-1.50556
-1.51032
-1.51505
-1.51974
-1.52438
-1.52899
-1.53354
-1.53805
-1.54252
-1.54693
-1.5513
-1.55561
-1.55987
-1.56407
-1.56822
-1.57232
-1.57636
-1.58035
-1.58428
-1.58816
-1.59198
-1.59574
-1.59945
-1.60311
-1.6067
-1.61024
-1.61373
-1.61716
-1.62054
-1.62386
-1.62713
-1.63034
-1.6335
-1.63661
-1.63967
-1.64267
-1.64563
-1.64853
-1.65138
-1.65419
-1.65694
-1.65965
-1.66231
-1.66492
-1.66749
-1.67001
-1.67249
-1.67492
-1.67731
-1.67966
-1.68196
-1.68422
-1.68644
-1.68862
-1.69076
-1.69287
-1.69493
-1.69695
-1.69894
-1.70089
-1.70281
-1.70469
-1.70654
-1.70835
-1.71013
-1.71187
-1.71358
-1.71526
-1.71691
-1.71853
-1.72012
-1.72168
-1.72321
-1.72472
-1.72619
-1.72764
-1.72906
-1.73045
-1.7318
-1.34751
-1.34759
-1.34815
-1.34906
-1.3503
-1.35186
-1.35373
-1.35587
-1.35829
-1.36095
-1.36385
-1.36697
-1.37028
-1.37379
-1.37747
-1.3813
-1.38529
-1.38941
-1.39365
-1.398
-1.40245
-1.40699
-1.41161
-1.4163
-1.42106
-1.42586
-1.43071
-1.4356
-1.44052
-1.44546
-1.45042
-1.4554
-1.46037
-1.46535
-1.47032
-1.47528
-1.48023
-1.48516
-1.49007
-1.49496
-1.49982
-1.50464
-1.50943
-1.51419
-1.5189
-1.52358
-1.52821
-1.5328
-1.53733
-1.54183
-1.54627
-1.55066
-1.555
-1.55929
-1.56352
-1.56771
-1.57183
-1.5759
-1.57992
-1.58388
-1.58778
-1.59163
-1.59542
-1.59916
-1.60284
-1.60646
-1.61003
-1.61355
-1.617
-1.62041
-1.62376
-1.62705
-1.63029
-1.63348
-1.63661
-1.63969
-1.64272
-1.6457
-1.64863
-1.65151
-1.65434
-1.65711
-1.65985
-1.66253
-1.66516
-1.66775
-1.6703
-1.6728
-1.67525
-1.67766
-1.68003
-1.68235
-1.68463
-1.68687
-1.68908
-1.69124
-1.69336
-1.69544
-1.69748
-1.69949
-1.70146
-1.70339
-1.70529
-1.70716
-1.70898
-1.71078
-1.71254
-1.71427
-1.71597
-1.71763
-1.71927
-1.72087
-1.72245
-1.72399
-1.72551
-1.727
-1.72846
-1.7299
-1.7313
-1.73267
-1.34614
-1.3462
-1.34674
-1.34763
-1.34886
-1.3504
-1.35226
-1.35439
-1.3568
-1.35946
-1.36235
-1.36547
-1.36878
-1.37229
-1.37597
-1.37981
-1.3838
-1.38793
-1.39217
-1.39654
-1.401
-1.40555
-1.41019
-1.4149
-1.41966
-1.42449
-1.42936
-1.43427
-1.43921
-1.44417
-1.44915
-1.45415
-1.45915
-1.46415
-1.46915
-1.47413
-1.47911
-1.48407
-1.48901
-1.49392
-1.4988
-1.50366
-1.50848
-1.51326
-1.51801
-1.52271
-1.52737
-1.53199
-1.53656
-1.54108
-1.54556
-1.54998
-1.55435
-1.55867
-1.56293
-1.56715
-1.5713
-1.57541
-1.57945
-1.58344
-1.58738
-1.59126
-1.59508
-1.59884
-1.60255
-1.60621
-1.60981
-1.61335
-1.61684
-1.62027
-1.62364
-1.62697
-1.63023
-1.63345
-1.63661
-1.63972
-1.64278
-1.64578
-1.64874
-1.65164
-1.65449
-1.6573
-1.66005
-1.66276
-1.66542
-1.66804
-1.6706
-1.67313
-1.6756
-1.67804
-1.68043
-1.68277
-1.68508
-1.68734
-1.68956
-1.69174
-1.69389
-1.69599
-1.69805
-1.70008
-1.70207
-1.70402
-1.70594
-1.70782
-1.70967
-1.71148
-1.71326
-1.71501
-1.71673
-1.71841
-1.72006
-1.72168
-1.72327
-1.72484
-1.72637
-1.72787
-1.72935
-1.7308
-1.73222
-1.7336
-1.34468
-1.34471
-1.34523
-1.34611
-1.34731
-1.34885
-1.35069
-1.35282
-1.35521
-1.35787
-1.36075
-1.36386
-1.36718
-1.37069
-1.37437
-1.37822
-1.38221
-1.38634
-1.3906
-1.39498
-1.39945
-1.40402
-1.40867
-1.41339
-1.41818
-1.42302
-1.42791
-1.43284
-1.4378
-1.44279
-1.44779
-1.45281
-1.45784
-1.46287
-1.46789
-1.47291
-1.47791
-1.4829
-1.48786
-1.49281
-1.49772
-1.50261
-1.50746
-1.51227
-1.51705
-1.52179
-1.52648
-1.53113
-1.53573
-1.54029
-1.54479
-1.54925
-1.55365
-1.55801
-1.5623
-1.56655
-1.57074
-1.57487
-1.57895
-1.58298
-1.58694
-1.59085
-1.59471
-1.59851
-1.60225
-1.60593
-1.60956
-1.61314
-1.61665
-1.62012
-1.62352
-1.62688
-1.63017
-1.63342
-1.63661
-1.63975
-1.64283
-1.64587
-1.64885
-1.65178
-1.65466
-1.65749
-1.66028
-1.66301
-1.6657
-1.66834
-1.67093
-1.67348
-1.67598
-1.67844
-1.68085
-1.68322
-1.68555
-1.68784
-1.69008
-1.69229
-1.69445
-1.69658
-1.69866
-1.70071
-1.70272
-1.7047
-1.70663
-1.70854
-1.7104
-1.71224
-1.71404
-1.7158
-1.71754
-1.71924
-1.72091
-1.72255
-1.72416
-1.72573
-1.72728
-1.72881
-1.7303
-1.73177
-1.7332
-1.73459
-1.34312
-1.34313
-1.34363
-1.34449
-1.34567
-1.34719
-1.34902
-1.35114
-1.35353
-1.35617
-1.35906
-1.36216
-1.36548
-1.36898
-1.37267
-1.37652
-1.38052
-1.38466
-1.38893
-1.39332
-1.3978
-1.40239
-1.40705
-1.41179
-1.4166
-1.42146
-1.42637
-1.43132
-1.43631
-1.44132
-1.44635
-1.45139
-1.45645
-1.4615
-1.46655
-1.4716
-1.47663
-1.48165
-1.48665
-1.49162
-1.49657
-1.50149
-1.50637
-1.51122
-1.51603
-1.5208
-1.52553
-1.53022
-1.53485
-1.53944
-1.54398
-1.54847
-1.55291
-1.5573
-1.56163
-1.56591
-1.57014
-1.57431
-1.57842
-1.58248
-1.58648
-1.59043
-1.59432
-1.59815
-1.60192
-1.60564
-1.60931
-1.61291
-1.61646
-1.61996
-1.6234
-1.62678
-1.63011
-1.63339
-1.63661
-1.63978
-1.64289
-1.64596
-1.64897
-1.65193
-1.65484
-1.6577
-1.66052
-1.66328
-1.66599
-1.66866
-1.67128
-1.67385
-1.67638
-1.67887
-1.68131
-1.6837
-1.68606
-1.68837
-1.69064
-1.69287
-1.69505
-1.6972
-1.69931
-1.70138
-1.70342
-1.70541
-1.70737
-1.7093
-1.71118
-1.71304
-1.71486
-1.71664
-1.7184
-1.72012
-1.72181
-1.72347
-1.7251
-1.72669
-1.72826
-1.7298
-1.73131
-1.73279
-1.73424
-1.73565
-1.34148
-1.34146
-1.34193
-1.34277
-1.34394
-1.34544
-1.34726
-1.34936
-1.35174
-1.35438
-1.35726
-1.36036
-1.36368
-1.36718
-1.37087
-1.37473
-1.37874
-1.38289
-1.38717
-1.39156
-1.39606
-1.40066
-1.40534
-1.4101
-1.41493
-1.41981
-1.42474
-1.42971
-1.43472
-1.43976
-1.44482
-1.44989
-1.45497
-1.46006
-1.46514
-1.47022
-1.47528
-1.48033
-1.48536
-1.49037
-1.49535
-1.50031
-1.50522
-1.51011
-1.51496
-1.51976
-1.52453
-1.52925
-1.53392
-1.53855
-1.54312
-1.54765
-1.55213
-1.55655
-1.56092
-1.56524
-1.5695
-1.57371
-1.57786
-1.58195
-1.58599
-1.58997
-1.5939
-1.59777
-1.60158
-1.60533
-1.60903
-1.61267
-1.61626
-1.61979
-1.62326
-1.62668
-1.63004
-1.63335
-1.63661
-1.63981
-1.64296
-1.64606
-1.6491
-1.65209
-1.65503
-1.65793
-1.66077
-1.66356
-1.6663
-1.669
-1.67165
-1.67425
-1.67681
-1.67932
-1.68179
-1.68421
-1.68659
-1.68893
-1.69122
-1.69348
-1.69569
-1.69787
-1.7
-1.70209
-1.70415
-1.70617
-1.70815
-1.7101
-1.71201
-1.71389
-1.71573
-1.71754
-1.71931
-1.72106
-1.72277
-1.72444
-1.72609
-1.72771
-1.7293
-1.73085
-1.73238
-1.73389
-1.73535
-1.73678
-1.33974
-1.3397
-1.34015
-1.34097
-1.34212
-1.3436
-1.3454
-1.34749
-1.34986
-1.35249
-1.35537
-1.35847
-1.36178
-1.36529
-1.36898
-1.37284
-1.37686
-1.38101
-1.3853
-1.38971
-1.39423
-1.39884
-1.40354
-1.40832
-1.41316
-1.41807
-1.42302
-1.42802
-1.43306
-1.43812
-1.4432
-1.44831
-1.45342
-1.45853
-1.46365
-1.46876
-1.47386
-1.47894
-1.48401
-1.48905
-1.49407
-1.49906
-1.50401
-1.50893
-1.51382
-1.51866
-1.52346
-1.52822
-1.53294
-1.5376
-1.54222
-1.54679
-1.5513
-1.55576
-1.56017
-1.56453
-1.56883
-1.57308
-1.57727
-1.5814
-1.58548
-1.5895
-1.59346
-1.59737
-1.60122
-1.60501
-1.60874
-1.61242
-1.61604
-1.61961
-1.62312
-1.62657
-1.62997
-1.63332
-1.63661
-1.63985
-1.64303
-1.64616
-1.64924
-1.65226
-1.65524
-1.65816
-1.66103
-1.66386
-1.66663
-1.66936
-1.67204
-1.67467
-1.67726
-1.6798
-1.6823
-1.68475
-1.68716
-1.68952
-1.69185
-1.69413
-1.69637
-1.69857
-1.70073
-1.70285
-1.70493
-1.70697
-1.70898
-1.71095
-1.71289
-1.71479
-1.71665
-1.71848
-1.72028
-1.72204
-1.72378
-1.72547
-1.72714
-1.72878
-1.73039
-1.73197
-1.73352
-1.73504
-1.73652
-1.73796
-1.33793
-1.33785
-1.33828
-1.33907
-1.3402
-1.34167
-1.34345
-1.34553
-1.34789
-1.35051
-1.35338
-1.35647
-1.35979
-1.3633
-1.36699
-1.37086
-1.37488
-1.37905
-1.38335
-1.38777
-1.3923
-1.39693
-1.40165
-1.40644
-1.41131
-1.41624
-1.42122
-1.42624
-1.4313
-1.43639
-1.44151
-1.44664
-1.45178
-1.45693
-1.46208
-1.46722
-1.47236
-1.47748
-1.48258
-1.48766
-1.49272
-1.49774
-1.50274
-1.5077
-1.51262
-1.51751
-1.52235
-1.52715
-1.5319
-1.53661
-1.54126
-1.54587
-1.55043
-1.55493
-1.55938
-1.56378
-1.56812
-1.57241
-1.57664
-1.58081
-1.58493
-1.58899
-1.593
-1.59694
-1.60083
-1.60466
-1.60844
-1.61216
-1.61582
-1.61942
-1.62297
-1.62646
-1.6299
-1.63328
-1.63661
-1.63988
-1.6431
-1.64627
-1.64938
-1.65244
-1.65545
-1.65841
-1.66131
-1.66417
-1.66698
-1.66974
-1.67245
-1.67512
-1.67773
-1.68031
-1.68283
-1.68532
-1.68775
-1.69015
-1.6925
-1.69481
-1.69708
-1.6993
-1.70149
-1.70364
-1.70575
-1.70782
-1.70985
-1.71185
-1.71381
-1.71573
-1.71762
-1.71948
-1.7213
-1.72308
-1.72484
-1.72656
-1.72825
-1.72991
-1.73154
-1.73314
-1.73471
-1.73625
-1.73776
-1.73921
-1.33602
-1.33592
-1.33632
-1.33708
-1.33819
-1.33964
-1.34141
-1.34347
-1.34582
-1.34843
-1.3513
-1.35439
-1.3577
-1.36121
-1.36491
-1.36878
-1.37281
-1.37699
-1.3813
-1.38573
-1.39028
-1.39492
-1.39966
-1.40448
-1.40937
-1.41432
-1.41932
-1.42437
-1.42946
-1.43459
-1.43973
-1.44489
-1.45007
-1.45525
-1.46044
-1.46562
-1.47079
-1.47594
-1.48108
-1.4862
-1.4913
-1.49636
-1.5014
-1.5064
-1.51137
-1.51629
-1.52118
-1.52602
-1.53081
-1.53556
-1.54026
-1.54492
-1.54951
-1.55406
-1.55856
-1.563
-1.56738
-1.57171
-1.57598
-1.5802
-1.58436
-1.58846
-1.59251
-1.5965
-1.60043
-1.6043
-1.60812
-1.61188
-1.61558
-1.61922
-1.62281
-1.62635
-1.62982
-1.63324
-1.63661
-1.63992
-1.64318
-1.64638
-1.64953
-1.65263
-1.65567
-1.65866
-1.66161
-1.6645
-1.66734
-1.67014
-1.67288
-1.67558
-1.67823
-1.68084
-1.6834
-1.68591
-1.68838
-1.6908
-1.69319
-1.69553
-1.69782
-1.70008
-1.7023
-1.70447
-1.70661
-1.70871
-1.71077
-1.71279
-1.71478
-1.71673
-1.71864
-1.72052
-1.72237
-1.72418
-1.72596
-1.7277
-1.72941
-1.7311
-1.73275
-1.73437
-1.73596
-1.73753
-1.73905
-1.74053
-1.33404
-1.3339
-1.33427
-1.33501
-1.3361
-1.33753
-1.33928
-1.34133
-1.34366
-1.34627
-1.34912
-1.35221
-1.35552
-1.35903
-1.36273
-1.36661
-1.37065
-1.37483
-1.37916
-1.3836
-1.38817
-1.39283
-1.39759
-1.40243
-1.40734
-1.41231
-1.41735
-1.42242
-1.42754
-1.4327
-1.43787
-1.44307
-1.44828
-1.4535
-1.45872
-1.46393
-1.46914
-1.47434
-1.47952
-1.48468
-1.48981
-1.49492
-1.5
-1.50505
-1.51005
-1.51502
-1.51995
-1.52484
-1.52968
-1.53447
-1.53922
-1.54391
-1.54856
-1.55315
-1.55769
-1.56217
-1.5666
-1.57098
-1.5753
-1.57956
-1.58376
-1.58791
-1.592
-1.59603
-1.60001
-1.60393
-1.60779
-1.61159
-1.61533
-1.61902
-1.62265
-1.62622
-1.62974
-1.6332
-1.63661
-1.63996
-1.64325
-1.6465
-1.64969
-1.65282
-1.6559
-1.65894
-1.66192
-1.66485
-1.66772
-1.67055
-1.67334
-1.67607
-1.67875
-1.68139
-1.68398
-1.68653
-1.68903
-1.69149
-1.6939
-1.69627
-1.6986
-1.70089
-1.70314
-1.70534
-1.70751
-1.70964
-1.71172
-1.71377
-1.71579
-1.71777
-1.71971
-1.72161
-1.72348
-1.72532
-1.72712
-1.7289
-1.73063
-1.73234
-1.73402
-1.73566
-1.73727
-1.73886
-1.74041
-1.7419
-1.33197
-1.3318
-1.33214
-1.33286
-1.33392
-1.33532
-1.33706
-1.33909
-1.34142
-1.34401
-1.34686
-1.34994
-1.35325
-1.35676
-1.36046
-1.36435
-1.36839
-1.37259
-1.37692
-1.38139
-1.38597
-1.39065
-1.39543
-1.40029
-1.40522
-1.41022
-1.41528
-1.42039
-1.42554
-1.43072
-1.43593
-1.44117
-1.44641
-1.45167
-1.45692
-1.46218
-1.46743
-1.47267
-1.47789
-1.48309
-1.48827
-1.49342
-1.49854
-1.50363
-1.50868
-1.5137
-1.51867
-1.5236
-1.52849
-1.53333
-1.53812
-1.54287
-1.54756
-1.5522
-1.55678
-1.56132
-1.56579
-1.57022
-1.57458
-1.57889
-1.58314
-1.58733
-1.59147
-1.59555
-1.59957
-1.60353
-1.60744
-1.61128
-1.61507
-1.6188
-1.62248
-1.62609
-1.62965
-1.63316
-1.63661
-1.64
-1.64334
-1.64662
-1.64985
-1.65302
-1.65615
-1.65922
-1.66224
-1.6652
-1.66812
-1.67099
-1.67381
-1.67658
-1.6793
-1.68197
-1.6846
-1.68718
-1.68972
-1.69221
-1.69465
-1.69706
-1.69942
-1.70174
-1.70402
-1.70625
-1.70845
-1.71061
-1.71272
-1.7148
-1.71685
-1.71885
-1.72082
-1.72275
-1.72465
-1.72652
-1.72835
-1.73014
-1.73191
-1.73364
-1.73534
-1.73701
-1.73865
-1.74025
-1.74183
-1.74334
-1.32982
-1.32962
-1.32993
-1.33061
-1.33165
-1.33304
-1.33475
-1.33677
-1.33908
-1.34166
-1.3445
-1.34758
-1.35089
-1.3544
-1.35811
-1.36199
-1.36605
-1.37026
-1.3746
-1.37908
-1.38368
-1.38838
-1.39318
-1.39806
-1.40302
-1.40805
-1.41314
-1.41828
-1.42346
-1.42867
-1.43392
-1.43918
-1.44447
-1.44976
-1.45506
-1.46035
-1.46564
-1.47092
-1.47619
-1.48143
-1.48666
-1.49185
-1.49702
-1.50216
-1.50726
-1.51232
-1.51734
-1.52232
-1.52726
-1.53214
-1.53699
-1.54178
-1.54652
-1.55121
-1.55584
-1.56042
-1.56495
-1.56942
-1.57383
-1.57819
-1.58249
-1.58673
-1.59092
-1.59504
-1.59911
-1.60312
-1.60707
-1.61096
-1.6148
-1.61858
-1.6223
-1.62596
-1.62956
-1.63311
-1.6366
-1.64004
-1.64342
-1.64675
-1.65002
-1.65324
-1.6564
-1.65951
-1.66257
-1.66558
-1.66854
-1.67144
-1.6743
-1.67711
-1.67986
-1.68258
-1.68524
-1.68786
-1.69043
-1.69295
-1.69544
-1.69787
-1.70027
-1.70262
-1.70493
-1.7072
-1.70943
-1.71162
-1.71377
-1.71588
-1.71795
-1.71998
-1.72198
-1.72394
-1.72587
-1.72776
-1.72962
-1.73144
-1.73323
-1.73499
-1.73672
-1.73841
-1.74007
-1.74171
-1.7433
-1.74484
-1.32759
-1.32735
-1.32763
-1.32829
-1.3293
-1.33066
-1.33235
-1.33436
-1.33666
-1.33923
-1.34206
-1.34514
-1.34844
-1.35195
-1.35566
-1.35955
-1.36362
-1.36783
-1.37219
-1.37669
-1.3813
-1.38602
-1.39084
-1.39575
-1.40074
-1.40579
-1.41091
-1.41608
-1.42129
-1.42654
-1.43182
-1.43713
-1.44245
-1.44778
-1.45312
-1.45846
-1.46379
-1.46911
-1.47442
-1.47971
-1.48498
-1.49023
-1.49544
-1.50062
-1.50577
-1.51088
-1.51596
-1.52098
-1.52597
-1.53091
-1.5358
-1.54064
-1.54543
-1.55017
-1.55486
-1.55949
-1.56407
-1.56859
-1.57306
-1.57746
-1.58181
-1.58611
-1.59034
-1.59452
-1.59863
-1.60269
-1.60669
-1.61063
-1.61452
-1.61834
-1.62211
-1.62582
-1.62947
-1.63306
-1.6366
-1.64008
-1.64351
-1.64688
-1.6502
-1.65346
-1.65666
-1.65982
-1.66292
-1.66597
-1.66897
-1.67191
-1.67481
-1.67766
-1.68045
-1.6832
-1.68591
-1.68856
-1.69117
-1.69373
-1.69625
-1.69872
-1.70115
-1.70354
-1.70588
-1.70819
-1.71045
-1.71267
-1.71485
-1.71699
-1.7191
-1.72116
-1.72319
-1.72518
-1.72714
-1.72906
-1.73095
-1.7328
-1.73461
-1.7364
-1.73815
-1.73987
-1.74156
-1.74322
-1.74484
-1.74639
-1.32528
-1.32501
-1.32525
-1.32588
-1.32687
-1.3282
-1.32988
-1.33186
-1.33415
-1.33671
-1.33953
-1.3426
-1.3459
-1.34941
-1.35313
-1.35703
-1.3611
-1.36532
-1.3697
-1.37421
-1.37884
-1.38358
-1.38842
-1.39335
-1.39837
-1.40345
-1.4086
-1.4138
-1.41905
-1.42433
-1.42965
-1.43499
-1.44035
-1.44573
-1.45111
-1.45649
-1.46186
-1.46723
-1.47259
-1.47793
-1.48324
-1.48854
-1.4938
-1.49903
-1.50423
-1.50939
-1.51452
-1.5196
-1.52464
-1.52963
-1.53457
-1.53947
-1.54431
-1.5491
-1.55384
-1.55853
-1.56316
-1.56773
-1.57225
-1.57671
-1.58111
-1.58545
-1.58974
-1.59397
-1.59814
-1.60225
-1.6063
-1.61029
-1.61422
-1.6181
-1.62191
-1.62567
-1.62937
-1.63301
-1.6366
-1.64013
-1.6436
-1.64702
-1.65038
-1.65368
-1.65694
-1.66014
-1.66328
-1.66637
-1.66941
-1.6724
-1.67534
-1.67823
-1.68107
-1.68386
-1.6866
-1.68929
-1.69194
-1.69454
-1.6971
-1.69961
-1.70207
-1.70449
-1.70687
-1.70921
-1.71151
-1.71376
-1.71598
-1.71815
-1.72029
-1.72239
-1.72445
-1.72647
-1.72846
-1.73041
-1.73232
-1.7342
-1.73605
-1.73786
-1.73964
-1.74139
-1.74311
-1.74479
-1.74644
-1.74801
-1.3229
-1.32258
-1.3228
-1.32339
-1.32435
-1.32566
-1.32732
-1.32928
-1.33155
-1.3341
-1.33692
-1.33998
-1.34328
-1.34679
-1.35051
-1.35441
-1.35849
-1.36273
-1.36712
-1.37164
-1.37629
-1.38105
-1.38592
-1.39088
-1.39592
-1.40103
-1.40621
-1.41144
-1.41672
-1.42205
-1.4274
-1.43278
-1.43818
-1.4436
-1.44902
-1.45445
-1.45987
-1.46529
-1.47069
-1.47608
-1.48144
-1.48679
-1.4921
-1.49739
-1.50264
-1.50785
-1.51303
-1.51816
-1.52325
-1.5283
-1.5333
-1.53825
-1.54314
-1.54799
-1.55278
-1.55752
-1.56221
-1.56684
-1.57141
-1.57592
-1.58038
-1.58478
-1.58912
-1.5934
-1.59762
-1.60178
-1.60589
-1.60993
-1.61392
-1.61784
-1.62171
-1.62552
-1.62927
-1.63296
-1.6366
-1.64017
-1.64369
-1.64716
-1.65057
-1.65392
-1.65722
-1.66046
-1.66365
-1.66679
-1.66988
-1.67291
-1.67589
-1.67882
-1.6817
-1.68453
-1.68732
-1.69005
-1.69274
-1.69538
-1.69797
-1.70052
-1.70302
-1.70548
-1.7079
-1.71028
-1.71261
-1.7149
-1.71715
-1.71936
-1.72153
-1.72366
-1.72575
-1.7278
-1.72982
-1.7318
-1.73375
-1.73566
-1.73754
-1.73938
-1.74119
-1.74297
-1.74471
-1.74643
-1.7481
-1.74969
-1.32044
-1.32008
-1.32026
-1.32083
-1.32175
-1.32304
-1.32467
-1.32662
-1.32887
-1.33141
-1.33422
-1.33728
-1.34057
-1.34408
-1.3478
-1.35171
-1.3558
-1.36005
-1.36445
-1.36899
-1.37366
-1.37844
-1.38333
-1.38832
-1.39338
-1.39853
-1.40374
-1.409
-1.41432
-1.41968
-1.42508
-1.4305
-1.43594
-1.4414
-1.44687
-1.45234
-1.45781
-1.46327
-1.46873
-1.47416
-1.47958
-1.48497
-1.49034
-1.49568
-1.50099
-1.50625
-1.51148
-1.51667
-1.52182
-1.52692
-1.53198
-1.53698
-1.54194
-1.54684
-1.55169
-1.55649
-1.56123
-1.56591
-1.57054
-1.57511
-1.57962
-1.58408
-1.58847
-1.59281
-1.59709
-1.6013
-1.60546
-1.60956
-1.6136
-1.61758
-1.6215
-1.62536
-1.62916
-1.63291
-1.63659
-1.64022
-1.64379
-1.64731
-1.65076
-1.65417
-1.65751
-1.6608
-1.66404
-1.66722
-1.67036
-1.67343
-1.67646
-1.67943
-1.68236
-1.68523
-1.68806
-1.69084
-1.69356
-1.69624
-1.69888
-1.70147
-1.70401
-1.70651
-1.70896
-1.71138
-1.71374
-1.71607
-1.71836
-1.7206
-1.72281
-1.72497
-1.7271
-1.72919
-1.73124
-1.73325
-1.73523
-1.73717
-1.73908
-1.74095
-1.74279
-1.7446
-1.74637
-1.74811
-1.74981
-1.75143
-1.3179
-1.31751
-1.31765
-1.31818
-1.31908
-1.32034
-1.32195
-1.32388
-1.32611
-1.32864
-1.33144
-1.33449
-1.33778
-1.34129
-1.34501
-1.34893
-1.35302
-1.35728
-1.3617
-1.36626
-1.37095
-1.37575
-1.38066
-1.38567
-1.39077
-1.39594
-1.40119
-1.40649
-1.41184
-1.41724
-1.42268
-1.42814
-1.43363
-1.43913
-1.44464
-1.45016
-1.45568
-1.46119
-1.4667
-1.47219
-1.47766
-1.4831
-1.48853
-1.49392
-1.49928
-1.5046
-1.50989
-1.51514
-1.52034
-1.5255
-1.53061
-1.53568
-1.54069
-1.54565
-1.55056
-1.55541