/*--------------------------------*- C++ -*----------------------------------*\
  =========                 |
  \\      /  F ield         | OpenFOAM: The Open Source CFD Toolbox
   \\    /   O peration     | Website:  https://openfoam.org
    \\  /    A nd           | Version:  10
     \\/     M anipulation  |
\*---------------------------------------------------------------------------*/
FoamFile
{
    format      ascii;
    class       volScalarField;
    location    "0.003";
    object      alphat;
}
// * * * * * * * * * * * * * * * * * * * * * * * * * * * * * * * * * * * * * //

dimensions      [1 -1 -1 0 0 0 0];

internalField   nonuniform List<scalar> 
8918
(
2.70548e-07
2.64583e-07
2.60721e-07
2.53702e-07
2.20075e-07
7.20453e-08
7.11579e-08
7.03412e-08
6.96184e-08
6.90063e-08
6.85224e-08
6.81692e-08
6.79171e-08
6.75543e-08
6.67753e-08
2.30708e-07
2.1003e-07
6.80331e-08
6.81786e-08
6.83358e-08
6.85052e-08
6.85341e-08
6.78218e-08
2.29851e-07
2.12618e-07
6.94677e-08
6.96798e-08
6.99022e-08
7.01534e-08
7.0409e-08
7.06849e-08
7.09743e-08
7.12742e-08
7.15986e-08
7.19226e-08
7.2214e-08
7.19888e-08
2.28865e-07
2.16826e-07
7.32798e-08
2.18391e-07
7.4237e-08
2.18686e-07
7.57846e-08
7.58826e-08
2.28722e-07
2.27608e-07
2.27539e-07
2.27451e-07
2.27354e-07
2.27228e-07
2.2706e-07
2.26851e-07
2.26574e-07
2.26202e-07
2.25724e-07
2.25132e-07
2.24397e-07
2.23362e-07
2.16248e-07
9.032e-08
9.14063e-08
9.20479e-08
2.1707e-07
2.15175e-07
2.13945e-07
2.12596e-07
2.11079e-07
2.05296e-07
9.77984e-08
9.84548e-08
9.91506e-08
9.98457e-08
1.00188e-07
1.90696e-07
1.01784e-07
1.02247e-07
1.02385e-07
1.76782e-07
1.03339e-07
1.73655e-07
1.6863e-07
1.64561e-07
1.60527e-07
1.56542e-07
1.52659e-07
1.48825e-07
1.45083e-07
1.38992e-07
1.06321e-07
1.06488e-07
1.0657e-07
1.31906e-07
1.29638e-07
1.2658e-07
1.08171e-07
1.08552e-07
1.08927e-07
1.09282e-07
1.09623e-07
1.09947e-07
1.10287e-07
1.10609e-07
1.10975e-07
1.11327e-07
1.11743e-07
1.12141e-07
1.12611e-07
1.13078e-07
1.13305e-07
1.48649e-07
1.15297e-07
1.16028e-07
1.16994e-07
1.17947e-07
1.19047e-07
1.20125e-07
1.213e-07
1.22372e-07
1.22559e-07
2.32249e-07
2.24683e-07
1.27461e-07
1.28545e-07
1.28961e-07
2.60868e-07
1.32165e-07
2.80534e-07
1.13211e-05
1.11566e-05
1.10047e-05
1.08122e-05
1.03793e-05
9.30847e-06
9.26811e-06
9.23846e-06
9.22009e-06
9.21306e-06
9.21722e-06
9.23717e-06
9.27207e-06
9.33029e-06
9.47789e-06
1.02184e-05
1.02609e-05
9.61525e-06
9.70305e-06
9.7937e-06
9.88897e-06
9.99401e-06
1.01687e-05
1.09766e-05
1.10627e-05
1.04023e-05
1.0516e-05
1.06331e-05
1.07565e-05
1.0885e-05
1.10176e-05
1.11567e-05
1.12988e-05
1.14501e-05
1.16049e-05
1.1773e-05
1.20037e-05
1.29749e-05
1.31453e-05
1.25605e-05
1.35551e-05
1.29698e-05
1.39929e-05
1.3368e-05
1.36659e-05
1.47593e-05
1.50317e-05
1.53232e-05
1.56302e-05
1.59554e-05
1.62987e-05
1.66606e-05
1.70441e-05
1.74502e-05
1.78763e-05
1.83244e-05
1.87995e-05
1.93028e-05
1.98354e-05
2.03812e-05
2.00981e-05
2.07162e-05
2.13676e-05
2.28095e-05
2.34183e-05
2.40514e-05
2.46967e-05
2.53515e-05
2.59992e-05
2.58709e-05
2.65595e-05
2.72555e-05
2.79636e-05
2.87045e-05
3.00799e-05
3.0073e-05
3.07758e-05
3.15015e-05
3.27664e-05
3.28862e-05
3.40985e-05
3.47275e-05
3.53391e-05
3.59392e-05
3.65274e-05
3.71021e-05
3.76661e-05
3.82113e-05
3.87161e-05
3.89201e-05
3.93938e-05
3.98491e-05
4.04742e-05
4.08473e-05
4.11865e-05
4.1343e-05
4.16303e-05
4.18698e-05
4.20432e-05
4.21752e-05
4.22671e-05
4.23177e-05
4.2336e-05
4.2314e-05
4.22569e-05
4.21485e-05
4.19851e-05
4.17454e-05
4.14636e-05
4.11754e-05
4.11106e-05
4.04558e-05
4.00825e-05
3.96911e-05
3.9282e-05
3.88715e-05
3.84481e-05
3.80147e-05
3.75411e-05
3.7096e-05
3.72226e-05
3.66986e-05
3.55125e-05
3.50152e-05
3.46004e-05
3.48601e-05
3.36091e-05
3.38895e-05
9.06617e-05
9.09293e-05
9.11993e-05
9.14769e-05
9.17614e-05
9.1971e-05
9.22957e-05
9.26616e-05
9.30578e-05
9.34742e-05
9.39015e-05
9.43617e-05
9.48506e-05
9.53503e-05
9.58827e-05
9.6495e-05
9.70446e-05
9.75243e-05
9.81161e-05
9.87134e-05
9.93258e-05
9.9961e-05
0.000100598
0.000101283
0.000101953
0.000102569
0.000103277
0.000103997
0.000104742
0.000105515
0.000106304
0.000107131
0.000107971
0.000108853
0.000109754
0.000110697
0.000111669
0.000112637
0.000113672
0.000114783
0.00011582
0.000117004
0.000118097
0.000119381
0.000120649
0.000121845
0.000123201
0.000124611
0.000126078
0.000127609
0.000129203
0.000130859
0.000132586
0.000134387
0.000136247
0.000138171
0.000140178
0.000142267
0.000144442
0.000146705
0.000149312
0.000151664
0.00015399
0.000155903
0.000158138
0.000160411
0.00016269
0.000164966
0.000167234
0.000169862
0.000172101
0.000174328
0.000176542
0.000178715
0.000180475
0.000182946
0.000184994
0.000186996
0.000188634
0.000190925
0.000192484
0.000194313
0.000196061
0.000197762
0.000199415
0.000201014
0.00020257
0.000204064
0.00020547
0.000206943
0.00020812
0.000209214
0.000210122
0.000211111
0.000212019
0.000212958
0.000213659
0.000214248
0.000214676
0.000215004
0.000215238
0.00021537
0.000215429
0.00021539
0.000215269
0.000215024
0.000214649
0.000214086
0.000213423
0.000212677
0.000211711
0.000211056
0.000210155
0.000209215
0.000208227
0.000207229
0.000206191
0.00020512
0.000203923
0.000202621
0.000200961
0.000199629
0.000198697
0.000197345
0.000196048
0.00019431
0.000193316
0.000191491
0.000174599
0.000175006
0.000175421
0.000175858
0.000176351
0.000177045
0.000177524
0.000178044
0.000178598
0.000179176
0.000179772
0.000180408
0.000181076
0.000181753
0.000182454
0.000183035
0.000183779
0.00018469
0.000185491
0.000186294
0.000187115
0.000187955
0.000188777
0.000189444
0.000190324
0.000191388
0.000192321
0.000193264
0.000194239
0.000195248
0.000196278
0.000197354
0.000198449
0.000199596
0.000200765
0.000201986
0.000203234
0.000204285
0.000205624
0.000207249
0.000208397
0.00021009
0.000211313
0.000213125
0.000214735
0.000216103
0.000217831
0.00021963
0.000221499
0.00022345
0.000225479
0.000227586
0.000229783
0.000232074
0.000234435
0.000236872
0.000239414
0.000242065
0.000244826
0.000247692
0.000250953
0.000253902
0.000256783
0.000259172
0.000261805
0.000264428
0.000267034
0.000269614
0.000272146
0.000274951
0.000277405
0.000279828
0.000282219
0.000284548
0.000286513
0.000288953
0.000291052
0.000293088
0.000294833
0.000296999
0.000298619
0.000300348
0.000301954
0.000303484
0.000304941
0.000306324
0.00030764
0.000308864
0.000309953
0.000310983
0.000311763
0.000312443
0.000312975
0.000313494
0.000313909
0.000314282
0.000314445
0.000314453
0.000314254
0.000313935
0.000313506
0.000312967
0.000312345
0.000311623
0.000310811
0.000309863
0.00030876
0.000307438
0.000306008
0.00030452
0.000302898
0.000301424
0.000299812
0.000298178
0.000296508
0.000294853
0.00029317
0.000291469
0.000289626
0.000287693
0.000285594
0.000283614
0.000281898
0.000279963
0.000278135
0.00027603
0.000274294
0.000272122
0.000260047
0.00026058
0.000261124
0.000261696
0.000262307
0.000263041
0.000263669
0.000264337
0.000265042
0.000265771
0.000266515
0.000267303
0.000268122
0.00026895
0.000269811
0.000270615
0.000271508
0.000272518
0.000273487
0.000274459
0.000275454
0.000276465
0.000277454
0.000278369
0.000279409
0.000280571
0.000281686
0.000282814
0.000283983
0.000285191
0.000286429
0.000287721
0.000289039
0.000290419
0.000291829
0.000293302
0.000294815
0.000296251
0.000297854
0.000299653
0.000301194
0.000303054
0.000304686
0.000306677
0.000308615
0.000310451
0.000312527
0.00031469
0.000316935
0.000319281
0.000321725
0.000324259
0.000326904
0.000329663
0.000332502
0.000335424
0.000338473
0.000341657
0.000344975
0.000348401
0.000352056
0.000355551
0.000358911
0.000361831
0.000364686
0.000367455
0.000370172
0.000372826
0.000375374
0.000377981
0.00038039
0.00038274
0.000385026
0.000387214
0.000389133
0.000391142
0.000392939
0.000394644
0.000396156
0.000397773
0.000399064
0.000400261
0.000401268
0.00040216
0.000402946
0.000403632
0.000404224
0.000404684
0.00040496
0.000405042
0.00040491
0.000404672
0.00040432
0.000403886
0.000403335
0.00040269
0.000401863
0.000400847
0.00039959
0.000398211
0.000396727
0.000395146
0.000393494
0.000391764
0.000389951
0.000388014
0.000385912
0.000383572
0.000381134
0.000378678
0.000376169
0.00037373
0.000371234
0.000368752
0.000366254
0.000363814
0.000361366
0.000358933
0.000356341
0.000353669
0.000350983
0.000348295
0.000345801
0.000343212
0.000340794
0.000338225
0.000335773
0.000333168
0.000346573
0.000347226
0.00034789
0.000348582
0.000349306
0.000350092
0.000350851
0.000351651
0.00035249
0.000353354
0.000354233
0.000355156
0.000356112
0.000357077
0.000358081
0.000359086
0.000360128
0.00036124
0.000362368
0.000363504
0.000364664
0.000365839
0.000366979
0.000368113
0.000369312
0.000370577
0.000371863
0.000373167
0.000374522
0.000375924
0.000377365
0.000378871
0.00038041
0.000382024
0.000383674
0.0003854
0.000387177
0.000388972
0.000390853
0.000392856
0.000394763
0.000396818
0.000398827
0.000401034
0.000403295
0.000405561
0.00040799
0.000410523
0.000413151
0.000415901
0.000418768
0.000421741
0.000424845
0.000428086
0.000431413
0.000434823
0.000438384
0.000442107
0.000445983
0.000449974
0.000454081
0.00045808
0.00046183
0.000465058
0.000467932
0.000470606
0.000473176
0.000475626
0.000477896
0.000480074
0.000482107
0.000484041
0.000485867
0.00048754
0.00048895
0.000490215
0.000491305
0.000492273
0.000493077
0.000493817
0.000494309
0.000494582
0.000494601
0.000494479
0.000494237
0.000493888
0.000493431
0.000492825
0.000492004
0.000490905
0.000489603
0.000488208
0.000486729
0.000485152
0.000483464
0.000481667
0.000479708
0.000477542
0.00047511
0.000472569
0.000469941
0.000467238
0.00046449
0.000461689
0.000458826
0.000455855
0.00045272
0.000449323
0.000445844
0.000442386
0.000438929
0.000435537
0.000432135
0.000428784
0.000425436
0.000422193
0.000418962
0.00041579
0.000412435
0.000409
0.000405642
0.000402234
0.000399032
0.000395768
0.000392755
0.00038964
0.000386556
0.000383457
0.000436378
0.000437132
0.000437897
0.000438686
0.000439508
0.000440371
0.000441238
0.000442141
0.00044309
0.000444069
0.000445057
0.000446089
0.000447164
0.000448247
0.000449368
0.000450526
0.000451706
0.000452933
0.000454207
0.000455494
0.000456804
0.000458134
0.000459397
0.000460689
0.000462031
0.000463415
0.000464851
0.000466314
0.000467835
0.000469414
0.000471041
0.000472748
0.000474496
0.000476332
0.000478211
0.000480179
0.000482206
0.000484302
0.000486455
0.000488699
0.000490912
0.000493188
0.000495506
0.000497961
0.000500523
0.000503144
0.000505908
0.000508793
0.000511785
0.000514923
0.000518199
0.000521591
0.000525134
0.000528837
0.000532626
0.000536489
0.000540523
0.000544742
0.000549131
0.000553629
0.00055817
0.000562557
0.000566528
0.000569761
0.000572341
0.000574569
0.000576624
0.00057849
0.000580089
0.000581491
0.00058274
0.000583855
0.000584819
0.000585579
0.000586036
0.000586214
0.000586222
0.00058609
0.000585804
0.000585385
0.000584735
0.000583797
0.000582557
0.000581173
0.000579678
0.000578088
0.0005764
0.000574562
0.000572501
0.000570102
0.000567509
0.00056485
0.000562139
0.000559343
0.000556449
0.000553457
0.00055032
0.000546966
0.000543321
0.000539589
0.000535794
0.000531948
0.000528086
0.000524201
0.000520279
0.000516268
0.000512103
0.000507638
0.000503109
0.000498641
0.000494215
0.000489879
0.000485561
0.000481335
0.000477127
0.000473076
0.000469053
0.000465155
0.000461033
0.000456822
0.000452768
0.000448623
0.000444751
0.000440791
0.000437205
0.000433519
0.000429848
0.000426274
0.00053086
0.000531673
0.000532498
0.000533338
0.000534213
0.000535134
0.000536065
0.000537024
0.000538035
0.000539092
0.000540146
0.00054124
0.000542397
0.000543562
0.000544758
0.000546019
0.000547303
0.000548622
0.00055001
0.000551419
0.000552844
0.000554305
0.00055565
0.000557034
0.000558478
0.000559954
0.0005615
0.000563081
0.000564727
0.000566446
0.000568222
0.000570096
0.000572017
0.000574042
0.000576118
0.000578298
0.000580543
0.000582887
0.000585282
0.000587757
0.000590217
0.000592688
0.000595243
0.000597921
0.000600742
0.000603645
0.000606695
0.000609888
0.000613196
0.000616672
0.00062031
0.00062407
0.000627998
0.000632108
0.000636297
0.000640533
0.000644958
0.000649585
0.000654388
0.000659282
0.000664143
0.000668743
0.000672705
0.000675614
0.000677522
0.000678895
0.000680028
0.000680903
0.000681425
0.000681673
0.000681754
0.00068168
0.000681431
0.000680943
0.00068011
0.000678917
0.000677561
0.000676072
0.000674442
0.000672665
0.000670665
0.000668339
0.000665674
0.000662882
0.000660002
0.000657058
0.000654037
0.000650884
0.00064751
0.000643748
0.000639801
0.000635823
0.000631831
0.000627776
0.000623643
0.000619433
0.000615097
0.000610541
0.000605661
0.000600718
0.000595743
0.000590736
0.00058575
0.000580768
0.000575783
0.000570729
0.000565543
0.000559998
0.000554408
0.000548918
0.000543508
0.000538224
0.000532981
0.000527873
0.000522789
0.000517927
0.000513101
0.000508508
0.000503837
0.00049915
0.000494695
0.000490143
0.00048594
0.000481655
0.00047786
0.000473995
0.000470193
0.00063059
0.000631395
0.000632216
0.000633035
0.000633888
0.000634808
0.000635741
0.000636681
0.000637682
0.000638759
0.000639818
0.000640899
0.000642081
0.000643274
0.000644479
0.00064578
0.00064712
0.000648472
0.000649924
0.00065141
0.000652896
0.000654455
0.000655818
0.000657218
0.000658702
0.000660213
0.000661805
0.000663446
0.000665153
0.000666957
0.000668823
0.00067081
0.000672851
0.000675014
0.000677237
0.000679576
0.000681992
0.000684527
0.000687113
0.000689779
0.000692425
0.000695028
0.000697742
0.00070058
0.000703593
0.000706702
0.000709967
0.000713401
0.000716953
0.000720697
0.000724627
0.000728678
0.00073291
0.000737349
0.00074185
0.000746354
0.000751056
0.000755973
0.000761061
0.000766205
0.000771229
0.000775842
0.000779553
0.000781816
0.000782679
0.000782807
0.000782639
0.000782164
0.000781257
0.000780025
0.000778628
0.000777078
0.000775351
0.000773375
0.000771021
0.000768248
0.000765338
0.00076232
0.000759187
0.00075592
0.000752448
0.000748627
0.00074443
0.000740138
0.000735793
0.00073142
0.000727004
0.000722485
0.000717759
0.000712587
0.000707241
0.000701903
0.000696593
0.000691247
0.000685844
0.000680396
0.000674844
0.000669077
0.000662937
0.000656762
0.000650588
0.000644399
0.000638272
0.000632175
0.00062612
0.000620017
0.000613832
0.000607461
0.000601131
0.000594951
0.0005889
0.000583026
0.000577234
0.00057163
0.000566081
0.000560827
0.000555662
0.000550849
0.000546094
0.000541421
0.000537057
0.000532657
0.000528669
0.000524693
0.000521284
0.000517908
0.000514702
0.00073556
0.000736261
0.000736993
0.000737693
0.000738415
0.000739248
0.0007401
0.000740919
0.000741805
0.000742831
0.000743816
0.000744778
0.000745911
0.000747065
0.000748185
0.000749451
0.000750784
0.000752087
0.000753534
0.000755043
0.000756511
0.000758142
0.000759442
0.000760763
0.000762211
0.000763677
0.000765237
0.000766865
0.000768552
0.000770372
0.000772252
0.000774288
0.000776379
0.000778616
0.000780923
0.000783358
0.000785882
0.000788545
0.000791263
0.000794064
0.000796834
0.000799484
0.000802273
0.000805188
0.000808318
0.000811547
0.000814944
0.000818542
0.000822254
0.000826182
0.000830324
0.00083458
0.000839024
0.000843703
0.000848423
0.000853074
0.000857931
0.000863009
0.000868248
0.000873495
0.000878522
0.000882965
0.000886214
0.000887562
0.000887059
0.00088561
0.000883833
0.000881724
0.000879117
0.000876153
0.000873045
0.00086981
0.000866416
0.000862785
0.000858756
0.000854255
0.000849658
0.000844992
0.000840248
0.000835398
0.000830374
0.000824987
0.000819178
0.000813316
0.000807442
0.000801581
0.000795718
0.000789792
0.000783688
0.000777063
0.000770272
0.00076353
0.000756862
0.000750193
0.000743487
0.000736777
0.000729994
0.000723136
0.000716094
0.000709062
0.000702073
0.000695094
0.000688232
0.000681445
0.000674763
0.00066808
0.000661393
0.000654652
0.000648041
0.00064165
0.000635467
0.000629532
0.000623756
0.000618231
0.000612835
0.000607808
0.000602992
0.000598621
0.000594456
0.000590522
0.000586943
0.000583476
0.000580403
0.000577552
0.000575235
0.000573125
0.000571318
0.000845351
0.000845824
0.000846371
0.000846828
0.000847268
0.000847903
0.000848587
0.000849157
0.000849784
0.000850682
0.000851511
0.000852206
0.000853202
0.00085425
0.000855159
0.000856296
0.000857565
0.000858708
0.000860067
0.000861549
0.00086289
0.000864596
0.00086574
0.000866869
0.0008682
0.000869529
0.000870966
0.000872503
0.000874075
0.000875837
0.000877643
0.000879657
0.000881722
0.000883961
0.000886284
0.000888744
0.000891311
0.000894038
0.000896825
0.000899703
0.000902546
0.00090515
0.000907931
0.000910832
0.000914
0.000917268
0.000920708
0.000924396
0.000928182
0.000932209
0.000936488
0.000940863
0.000945426
0.000950264
0.000955118
0.000959802
0.000964697
0.000969817
0.000975085
0.000980309
0.000985205
0.000989341
0.00099198
0.000992221
0.000990102
0.000986811
0.000983188
0.000979234
0.000974723
0.000969833
0.000964842
0.000959765
0.000954567
0.000949163
0.000943352
0.000937004
0.000930617
0.000924209
0.000917765
0.000911259
0.000904625
0.000897616
0.000890121
0.000882622
0.000875156
0.000867749
0.000860388
0.000853016
0.000845525
0.00083774
0.000829914
0.00082219
0.000814597
0.000807054
0.000799513
0.000792023
0.000784521
0.000777084
0.000769621
0.000762231
0.000754942
0.000747711
0.000740668
0.000733778
0.000727076
0.000720451
0.000713909
0.000707423
0.000701155
0.000695189
0.000689527
0.000684181
0.000679087
0.000674278
0.000669679
0.000665472
0.000661624
0.000658236
0.000655177
0.000652487
0.000650135
0.000648034
0.000646222
0.000644857
0.000643961
0.000643465
0.000643411
0.000963733
0.000963815
0.000963951
0.000963995
0.000964019
0.000964212
0.000964441
0.000964555
0.00096472
0.000965133
0.000965472
0.000965681
0.000966177
0.000966717
0.00096712
0.000967745
0.000968499
0.000969126
0.000969969
0.000970939
0.000971752
0.000972868
0.000973774
0.000974574
0.000975714
0.000976808
0.000978023
0.000979399
0.000980746
0.00098238
0.000984016
0.00098594
0.0009879
0.000990071
0.000992343
0.000994757
0.000997302
0.00100003
0.00100283
0.00100574
0.00100863
0.00101109
0.00101379
0.00101658
0.00101972
0.00102295
0.00102635
0.00103006
0.00103384
0.00103789
0.00104224
0.00104666
0.00105126
0.00105619
0.00106112
0.00106574
0.00107057
0.00107563
0.00108083
0.00108594
0.00109061
0.00109436
0.00109632
0.00109535
0.00109142
0.00108608
0.00108043
0.00107447
0.0010679
0.00106093
0.00105392
0.00104687
0.00103976
0.00103249
0.00102482
0.00101652
0.00100824
0.00100001
0.000991785
0.000983551
0.00097526
0.000966771
0.000958054
0.000949396
0.000940824
0.000932368
0.000924025
0.000915747
0.000907442
0.000899023
0.000890672
0.000882497
0.000874533
0.000866694
0.000858923
0.000851268
0.000843694
0.000836317
0.000829057
0.000821952
0.000815004
0.000808165
0.000801575
0.000795224
0.000789124
0.000783168
0.000777335
0.000771604
0.000766118
0.000760974
0.00075618
0.000751716
0.000747542
0.000743619
0.00073991
0.000736558
0.000733668
0.000731221
0.000729193
0.000727637
0.000726415
0.000725524
0.00072485
0.000724814
0.000725354
0.000726527
0.000728359
0.00109456
0.00109421
0.00109388
0.00109348
0.00109305
0.00109272
0.0010924
0.001092
0.00109162
0.00109141
0.00109113
0.00109076
0.0010906
0.00109045
0.00109021
0.00109013
0.00109015
0.00109007
0.00109016
0.00109034
0.0010904
0.0010907
0.00109093
0.00109105
0.0010915
0.0010919
0.00109242
0.0010931
0.00109375
0.0010947
0.00109564
0.00109689
0.00109819
0.0010997
0.00110133
0.00110312
0.00110505
0.00110718
0.00110941
0.00111176
0.00111418
0.0011164
0.00111896
0.00112155
0.00112461
0.00112774
0.00113102
0.00113471
0.00113841
0.00114241
0.00114679
0.00115119
0.00115575
0.00116074
0.00116571
0.00117017
0.00117486
0.00117978
0.00118485
0.00118978
0.00119418
0.00119752
0.00119882
0.00119662
0.00119075
0.00118317
0.00117534
0.00116727
0.00115851
0.00114932
0.00114016
0.00113103
0.0011219
0.0011127
0.00110326
0.00109354
0.00108393
0.00107442
0.00106499
0.00105561
0.00104628
0.00103692
0.00102753
0.00101828
0.00100918
0.00100027
0.00099157
0.000983034
0.000974583
0.000966166
0.00095791
0.000949921
0.000942229
0.000934743
0.000927392
0.000920195
0.000913163
0.000906409
0.000899873
0.000893538
0.000887353
0.000881269
0.000875418
0.000869842
0.000864509
0.000859317
0.000854198
0.000849126
0.000844239
0.000839686
0.000835477
0.000831575
0.000827958
0.000824546
0.000821283
0.000818356
0.00081598
0.000814103
0.000812749
0.000811987
0.000811657
0.000811718
0.000812
0.00081314
0.000815195
0.000818207
0.000822209
0.00123959
0.00123884
0.00123807
0.00123724
0.00123637
0.00123554
0.00123469
0.00123377
0.00123286
0.00123202
0.00123112
0.00123017
0.00122932
0.00122847
0.00122755
0.00122673
0.00122595
0.00122511
0.00122438
0.0012237
0.00122293
0.00122233
0.00122168
0.00122098
0.0012205
0.00121999
0.00121956
0.00121925
0.00121894
0.00121886
0.00121881
0.00121901
0.00121925
0.0012197
0.00122027
0.00122098
0.00122183
0.00122288
0.00122403
0.00122532
0.00122672
0.00122806
0.00122977
0.00123152
0.00123376
0.0012361
0.0012386
0.00124156
0.00124454
0.00124784
0.00125157
0.00125533
0.00125927
0.0012637
0.00126822
0.00127245
0.00127693
0.00128166
0.00128654
0.00129127
0.0012954
0.00129837
0.00129913
0.00129576
0.00128784
0.00127787
0.00126773
0.00125746
0.00124682
0.00123603
0.00122535
0.00121479
0.00120431
0.00119385
0.00118333
0.00117278
0.00116244
0.00115229
0.0011423
0.00113244
0.00112274
0.00111318
0.00110375
0.00109454
0.00108555
0.00107684
0.00106842
0.00106026
0.00105228
0.00104443
0.00103676
0.00102943
0.00102244
0.00101568
0.00100907
0.00100257
0.000996244
0.000990194
0.000984381
0.000978743
0.000973165
0.000967585
0.000962153
0.000956981
0.000952006
0.000947128
0.00094223
0.000937265
0.000932392
0.000927857
0.000923669
0.000919795
0.000916221
0.000912857
0.000909541
0.000906593
0.000904317
0.000902699
0.000901748
0.000901567
0.000902053
0.000903003
0.00090421
0.000906528
0.000910354
0.000915601
0.00139955
0.00139843
0.00139727
0.00139605
0.00139479
0.0013935
0.00139216
0.00139077
0.00138936
0.00138795
0.00138648
0.00138497
0.00138349
0.00138197
0.00138042
0.00137889
0.00137737
0.0013758
0.00137428
0.00137276
0.00137119
0.0013697
0.00136817
0.00136662
0.00136518
0.00136369
0.00136226
0.00136089
0.00135952
0.00135832
0.00135713
0.00135613
0.00135517
0.00135437
0.00135366
0.00135308
0.0013526
0.00135229
0.00135205
0.00135194
0.00135193
0.00135196
0.0013523
0.00135271
0.00135358
0.00135455
0.00135571
0.00135731
0.00135895
0.00136091
0.00136331
0.00136577
0.00136843
0.00137163
0.00137499
0.00137824
0.00138177
0.00138557
0.00138955
0.0013934
0.00139664
0.00139873
0.00139858
0.00139406
0.00138457
0.00137293
0.00136123
0.00134954
0.00133775
0.001326
0.00131447
0.00130316
0.00129203
0.00128103
0.00127013
0.0012594
0.00124898
0.00123884
0.00122892
0.00121922
0.00120977
0.00120059
0.00119166
0.00118298
0.00117455
0.00116642
0.00115864
0.00115115
0.00114387
0.0011367
0.00112965
0.00112294
0.00111655
0.00111036
0.00110425
0.0010981
0.00109207
0.00108627
0.00108068
0.00107521
0.00106968
0.00106398
0.00105834
0.00105295
0.00104774
0.0010426
0.00103738
0.00103195
0.00102652
0.00102149
0.00101686
0.00101261
0.00100872
0.00100513
0.00100143
0.000998167
0.000995753
0.000994243
0.000993586
0.000993952
0.000995405
0.000998163
0.00100233
0.00100843
0.00101748
0.00102992
0.00157595
0.0015746
0.00157316
0.00157164
0.00157007
0.00156844
0.00156673
0.00156496
0.00156314
0.00156128
0.00155935
0.00155736
0.00155535
0.00155329
0.00155117
0.00154903
0.00154687
0.00154466
0.00154243
0.0015402
0.00153792
0.00153562
0.00153332
0.00153097
0.00152862
0.00152627
0.00152388
0.00152147
0.00151908
0.00151669
0.00151438
0.00151209
0.0015099
0.00150773
0.00150567
0.00150366
0.00150174
0.00149989
0.00149814
0.00149642
0.00149479
0.00149323
0.00149172
0.00149046
0.00148928
0.00148845
0.00148773
0.00148719
0.001487
0.00148688
0.00148705
0.00148759
0.0014882
0.00148904
0.00149037
0.00149191
0.00149348
0.00149532
0.00149744
0.00149974
0.00150191
0.00150353
0.00150406
0.00150251
0.00149673
0.00148612
0.00147352
0.00146102
0.00144867
0.00143642
0.00142438
0.00141265
0.00140124
0.00139011
0.0013792
0.00136851
0.00135811
0.00134809
0.00133841
0.00132898
0.00131978
0.00131087
0.00130228
0.00129398
0.0012859
0.00127799
0.00127035
0.00126303
0.00125599
0.00124912
0.00124225
0.00123533
0.00122873
0.0012224
0.00121621
0.00121001
0.00120359
0.00119718
0.00119099
0.00118499
0.00117908
0.00117303
0.00116661
0.00116016
0.00115402
0.00114811
0.0011423
0.00113638
0.00113012
0.00112374
0.00111789
0.00111254
0.00110767
0.0011033
0.00109951
0.0010963
0.00109406
0.00109308
0.00109347
0.00109531
0.00109893
0.00110474
0.0011136
0.00112589
0.00114131
0.00115971
0.00118068
0.00176624
0.0017646
0.00176284
0.00176099
0.00175908
0.00175709
0.001755
0.00175282
0.00175059
0.00174829
0.00174589
0.00174342
0.00174093
0.00173834
0.00173568
0.001733
0.00173026
0.00172744
0.0017246
0.00172172
0.00171877
0.0017158
0.00171278
0.0017097
0.00170662
0.00170347
0.00170025
0.00169696
0.00169362
0.00169029
0.00168696
0.00168364
0.00168035
0.00167706
0.00167383
0.00167059
0.00166742
0.00166425
0.00166114
0.00165801
0.0016549
0.0016518
0.00164875
0.00164584
0.00164302
0.00164043
0.00163792
0.00163556
0.00163344
0.00163139
0.00162956
0.00162796
0.00162644
0.00162512
0.0016242
0.00162347
0.00162282
0.00162243
0.00162226
0.00162221
0.00162202
0.0016213
0.00161961
0.00161608
0.00160888
0.00159754
0.00158464
0.00157198
0.00155959
0.00154745
0.00153561
0.00152414
0.00151305
0.00150229
0.00149181
0.00148156
0.00147165
0.00146213
0.00145293
0.00144395
0.00143512
0.00142654
0.00141828
0.00141027
0.00140238
0.00139453
0.00138685
0.00137944
0.00137226
0.00136519
0.00135799
0.00135051
0.00134334
0.00133641
0.0013296
0.00132271
0.0013154
0.001308
0.00130085
0.00129394
0.00128714
0.00128019
0.0012726
0.00126493
0.00125769
0.0012508
0.00124411
0.00123741
0.0012307
0.00122451
0.00121911
0.00121444
0.00121049
0.00120732
0.00120524
0.00120448
0.00120546
0.00120857
0.00121411
0.00122238
0.00123383
0.00124857
0.00126657
0.00128754
0.00131121
0.00133745
0.00136573
0.00197112
0.00196917
0.00196709
0.00196489
0.00196262
0.00196027
0.00195778
0.00195519
0.00195255
0.00194981
0.00194695
0.00194401
0.00194104
0.00193795
0.00193477
0.00193157
0.00192827
0.00192488
0.00192148
0.00191799
0.00191442
0.00191084
0.00190717
0.00190342
0.00189968
0.00189582
0.00189186
0.00188776
0.00188357
0.00187937
0.00187511
0.00187084
0.00186655
0.00186224
0.00185794
0.0018536
0.00184929
0.00184494
0.00184058
0.00183616
0.0018317
0.00182717
0.00182266
0.00181821
0.00181382
0.00180954
0.00180531
0.0018012
0.00179719
0.00179323
0.00178938
0.00178564
0.00178193
0.00177837
0.00177505
0.00177187
0.0017688
0.00176589
0.00176311
0.00176033
0.00175734
0.00175381
0.00174941
0.00174347
0.00173469
0.00172289
0.00171009
0.00169763
0.00168552
0.00167372
0.00166222
0.00165108
0.00164033
0.00162991
0.00161972
0.00160972
0.00160001
0.00159064
0.00158154
0.00157256
0.00156358
0.00155478
0.00154625
0.00153791
0.00152959
0.00152113
0.00151271
0.00150452
0.00149657
0.00148867
0.00148055
0.00147183
0.00146346
0.0014554
0.00144749
0.0014395
0.00143084
0.00142197
0.00141346
0.0014053
0.00139736
0.00138944
0.00138136
0.0013736
0.00136648
0.00135996
0.00135383
0.00134788
0.00134217
0.00133757
0.0013342
0.00133193
0.0013308
0.00133096
0.00133302
0.00133749
0.00134495
0.0013558
0.00137015
0.00138736
0.00140713
0.0014297
0.00145513
0.00148322
0.00151383
0.00154693
0.00219007
0.00218776
0.0021853
0.00218271
0.00218005
0.00217728
0.00217437
0.00217134
0.00216824
0.00216504
0.00216169
0.00215826
0.00215479
0.00215118
0.00214747
0.00214373
0.00213989
0.00213593
0.00213196
0.00212789
0.00212372
0.00211954
0.00211525
0.00211088
0.00210651
0.002102
0.00209738
0.00209252
0.00208752
0.0020825
0.00207738
0.00207223
0.00206703
0.00206177
0.0020565
0.00205116
0.00204581
0.00204039
0.00203492
0.00202934
0.00202368
0.00201784
0.00201199
0.00200612
0.00200028
0.00199446
0.00198864
0.00198289
0.00197714
0.0019714
0.00196567
0.00195991
0.0019541
0.00194836
0.00194272
0.00193715
0.00193163
0.00192619
0.00192074
0.00191516
0.00190924
0.00190274
0.00189544
0.00188692
0.00187649
0.00186425
0.00185159
0.00183931
0.00182737
0.00181572
0.00180431
0.00179317
0.00178239
0.00177189
0.00176153
0.00175123
0.00174112
0.0017313
0.00172168
0.00171206
0.00170225
0.00169254
0.00168306
0.00167374
0.00166438
0.00165465
0.00164484
0.00163528
0.00162599
0.0016168
0.00160736
0.00159682
0.00158681
0.0015772
0.00156789
0.00155866
0.00154927
0.00154001
0.00153132
0.00152317
0.00151546
0.00150799
0.00150069
0.00149401
0.00148827
0.0014835
0.00147946
0.00147577
0.00147243
0.00147097
0.00147138
0.00147355
0.00147754
0.00148361
0.00149265
0.00150521
0.0015214
0.00154084
0.00156332
0.00158795
0.00161415
0.00164298
0.00167451
0.00170869
0.00174549
0.00178505
0.00242242
0.00241966
0.00241676
0.00241371
0.00241056
0.00240731
0.00240391
0.00240037
0.00239675
0.00239302
0.00238914
0.00238516
0.00238112
0.00237696
0.00237267
0.00236835
0.00236392
0.00235937
0.00235479
0.00235012
0.00234534
0.00234053
0.00233563
0.00233063
0.00232563
0.00232051
0.00231531
0.0023097
0.00230391
0.00229807
0.00229212
0.00228612
0.00228004
0.0022739
0.00226771
0.00226143
0.00225512
0.00224871
0.00224223
0.00223562
0.00222887
0.00222183
0.00221472
0.00220755
0.00220037
0.00219314
0.00218587
0.00217862
0.00217129
0.00216392
0.00215648
0.00214887
0.00214111
0.00213334
0.00212555
0.00211773
0.00210992
0.00210206
0.00209407
0.00208582
0.0020771
0.00206773
0.00205761
0.00204656
0.00203445
0.0020216
0.00200874
0.00199624
0.00198404
0.00197206
0.00196018
0.00194845
0.00193702
0.00192581
0.00191465
0.00190336
0.00189216
0.00188121
0.00187042
0.00185956
0.00184826
0.00183698
0.00182595
0.00181512
0.00180424
0.00179273
0.001781
0.00176959
0.00175856
0.00174778
0.001737
0.00172596
0.00171544
0.0017055
0.00169606
0.00168696
0.00167805
0.00166947
0.00166167
0.00165468
0.0016484
0.00164264
0.00163718
0.0016326
0.00162936
0.00162766
0.00162717
0.00162729
0.00162749
0.00163088
0.00163719
0.00164611
0.00165772
0.00167182
0.00168907
0.0017096
0.00173314
0.00175935
0.0017883
0.00181926
0.00185258
0.00188829
0.00192671
0.00196788
0.00201194
0.00205909
0.00266741
0.00266409
0.00266063
0.00265702
0.00265329