/*--------------------------------*- C++ -*----------------------------------*\
  =========                 |
  \\      /  F ield         | OpenFOAM: The Open Source CFD Toolbox
   \\    /   O peration     | Website:  https://openfoam.org
    \\  /    A nd           | Version:  10
     \\/     M anipulation  |
\*---------------------------------------------------------------------------*/
FoamFile
{
    format      ascii;
    class       volScalarField;
    location    "0.003";
    object      nuTilda;
}
// * * * * * * * * * * * * * * * * * * * * * * * * * * * * * * * * * * * * * //

dimensions      [0 2 -1 0 0 0 0];

internalField   nonuniform List<scalar> 
8918
(
1.48125e-05
1.47715e-05
1.47229e-05
1.46554e-05
1.47007e-05
2.73908e-05
2.72429e-05
2.71498e-05
2.70617e-05
2.69837e-05
2.69204e-05
2.68647e-05
2.68158e-05
2.67253e-05
2.58184e-05
1.43874e-05
1.44992e-05
2.67504e-05
2.66852e-05
2.66718e-05
2.66564e-05
2.66037e-05
2.58789e-05
1.44996e-05
1.45913e-05
2.66289e-05
2.65608e-05
2.65442e-05
2.65272e-05
2.65092e-05
2.64926e-05
2.64739e-05
2.64569e-05
2.64376e-05
2.64186e-05
2.63813e-05
2.58673e-05
1.4825e-05
1.49136e-05
2.58992e-05
1.49713e-05
2.58785e-05
1.50464e-05
2.62535e-05
2.57844e-05
1.51251e-05
1.51803e-05
1.5229e-05
1.52803e-05
1.53346e-05
1.53917e-05
1.54514e-05
1.55145e-05
1.55809e-05
1.56499e-05
1.57219e-05
1.57976e-05
1.58771e-05
1.59606e-05
1.6084e-05
2.53928e-05
2.52308e-05
2.49245e-05
1.63728e-05
1.64389e-05
1.65022e-05
1.65659e-05
1.66299e-05
1.67123e-05
2.45603e-05
2.44253e-05
2.43207e-05
2.41642e-05
2.37682e-05
1.71444e-05
2.37159e-05
2.34787e-05
2.30628e-05
1.74438e-05
2.27123e-05
1.75603e-05
1.7643e-05
1.77157e-05
1.77885e-05
1.78611e-05
1.79333e-05
1.80056e-05
1.80773e-05
1.81731e-05
2.086e-05
2.06636e-05
2.04054e-05
1.83815e-05
1.8441e-05
1.85128e-05
2.01228e-05
2.00468e-05
2.00045e-05
1.99888e-05
1.99904e-05
2.00083e-05
2.0049e-05
2.01013e-05
2.01798e-05
2.02705e-05
2.03936e-05
2.0536e-05
2.07218e-05
2.09195e-05
2.09516e-05
1.85383e-05
2.17533e-05
2.19981e-05
2.23163e-05
2.26351e-05
2.29731e-05
2.33082e-05
2.36563e-05
2.39892e-05
2.3834e-05
1.81375e-05
1.82153e-05
2.541e-05
2.55806e-05
2.54436e-05
1.81773e-05
2.60477e-05
1.81887e-05
5.82524e-05
5.82596e-05
5.82637e-05
5.83197e-05
5.88329e-05
6.3167e-05
6.28398e-05
6.25454e-05
6.22925e-05
6.20939e-05
6.19547e-05
6.18739e-05
6.18507e-05
6.18566e-05
6.17288e-05
5.90905e-05
5.94893e-05
6.22924e-05
6.24418e-05
6.26002e-05
6.27634e-05
6.29219e-05
6.29465e-05
6.03408e-05
6.07398e-05
6.36382e-05
6.38191e-05
6.40117e-05
6.42116e-05
6.44181e-05
6.46301e-05
6.48509e-05
6.50766e-05
6.53115e-05
6.55497e-05
6.57932e-05
6.59391e-05
6.33926e-05
6.38288e-05
6.67889e-05
6.44056e-05
6.73851e-05
6.50293e-05
6.8114e-05
6.83501e-05
6.59206e-05
6.63033e-05
6.66987e-05
6.71109e-05
6.75431e-05
6.79943e-05
6.84647e-05
6.89575e-05
6.94733e-05
7.00079e-05
7.05637e-05
7.11455e-05
7.17546e-05
7.23935e-05
7.31379e-05
7.62351e-05
7.68712e-05
7.74662e-05
7.57856e-05
7.64543e-05
7.71331e-05
7.78164e-05
7.85033e-05
7.92446e-05
8.20018e-05
8.26325e-05
8.32695e-05
8.38968e-05
8.44655e-05
8.33343e-05
8.57313e-05
8.6304e-05
8.68304e-05
8.59294e-05
8.79649e-05
8.71222e-05
8.77294e-05
8.83046e-05
8.88663e-05
8.94143e-05
8.99472e-05
9.0468e-05
9.09707e-05
9.14783e-05
9.26082e-05
9.2942e-05
9.32374e-05
9.30076e-05
9.33463e-05
9.36738e-05
9.43654e-05
9.45707e-05
9.47473e-05
9.4878e-05
9.49801e-05
9.50547e-05
9.51018e-05
9.51266e-05
9.51254e-05
9.50995e-05
9.50402e-05
9.49422e-05
9.47929e-05
9.46112e-05
9.43718e-05
9.34541e-05
9.39882e-05
9.37359e-05
9.34855e-05
9.32197e-05
9.29537e-05
9.26754e-05
9.23883e-05
9.20605e-05
9.16084e-05
8.95844e-05
8.92771e-05
9.06482e-05
9.02444e-05
8.97967e-05
8.75074e-05
8.90489e-05
8.66037e-05
0.000127265
0.000127474
0.000127698
0.000127954
0.000128401
0.000129945
0.00013012
0.000130309
0.00013052
0.000130751
0.000130999
0.000131272
0.00013157
0.000131872
0.000132129
0.000131578
0.000132001
0.000133267
0.000133661
0.00013405
0.000134447
0.00013485
0.000135197
0.000134652
0.000135141
0.000136547
0.000137014
0.000137481
0.000137963
0.000138464
0.000138974
0.000139509
0.000140053
0.000140623
0.000141204
0.000141805
0.000142375
0.000141946
0.000142658
0.000144387
0.000144048
0.000145823
0.000145523
0.000147406
0.000148177
0.000147892
0.000148768
0.000149684
0.000150639
0.000151637
0.000152676
0.000153757
0.000154888
0.000156068
0.000157289
0.000158555
0.000159877
0.000161258
0.000162701
0.000164236
0.000166863
0.000168405
0.000169911
0.000170346
0.000171846
0.000173378
0.000174918
0.000176462
0.000178025
0.000180516
0.000182022
0.000183524
0.000185018
0.000186468
0.000187114
0.000189368
0.000190762
0.000192111
0.000192793
0.000194809
0.000195478
0.000196769
0.000198005
0.000199209
0.000200383
0.00020152
0.000202629
0.000203697
0.000204712
0.000205947
0.000206773
0.000207535
0.000208041
0.000208754
0.000209414
0.000210192
0.000210689
0.000211109
0.000211416
0.000211652
0.000211822
0.000211921
0.000211967
0.000211945
0.000211865
0.000211697
0.000211437
0.000211046
0.000210583
0.000210053
0.000209217
0.000208938
0.00020831
0.000207657
0.000206971
0.000206279
0.00020556
0.000204818
0.000203988
0.000203062
0.00020152
0.000200607
0.000200378
0.00019944
0.000198523
0.000196858
0.000196643
0.000194905
0.000183091
0.000183366
0.000183655
0.000183964
0.000184337
0.000185106
0.000185432
0.000185778
0.000186148
0.000186535
0.000186937
0.000187367
0.000187821
0.000188282
0.000188753
0.000188942
0.000189456
0.000190294
0.000190852
0.000191406
0.000191974
0.000192553
0.000193115
0.000193351
0.000193962
0.000194931
0.000195585
0.000196241
0.00019692
0.000197624
0.000198343
0.000199095
0.000199862
0.000200665
0.000201486
0.000202342
0.000203211
0.000203704
0.00020465
0.000206042
0.000206614
0.000208056
0.000208685
0.00021022
0.000211363
0.00021209
0.000213323
0.000214614
0.000215958
0.000217363
0.000218829
0.000220354
0.000221949
0.000223615
0.000225338
0.000227121
0.000228985
0.000230935
0.000232973
0.000235098
0.000237715
0.000239903
0.000242044
0.000243649
0.000245624
0.000247598
0.000249564
0.000251515
0.000253437
0.000255712
0.000257577
0.00025942
0.000261242
0.000263017
0.000264408
0.000266394
0.000268005
0.000269568
0.000270824
0.000272584
0.000273756
0.000275099
0.000276349
0.000277541
0.000278678
0.000279758
0.000280788
0.000281746
0.000282602
0.000283446
0.000284056
0.000284588
0.00028498
0.000285391
0.000285722
0.000286037
0.000286168
0.000286178
0.000286027
0.000285782
0.000285452
0.000285035
0.000284555
0.000283997
0.000283369
0.000282635
0.000281783
0.00028076
0.000279655
0.000278504
0.000277221
0.000276118
0.000274877
0.00027362
0.000272337
0.000271067
0.000269778
0.000268476
0.000267067
0.00026559
0.000263914
0.000262403
0.000261176
0.000259707
0.000258322
0.000256635
0.000255416
0.000253687
0.000244293
0.000244689
0.000245096
0.000245523
0.000245983
0.000246586
0.000247058
0.000247558
0.000248086
0.000248632
0.000249191
0.000249783
0.000250399
0.000251022
0.000251673
0.00025224
0.00025291
0.000253713
0.000254448
0.000255184
0.000255939
0.000256706
0.000257458
0.000258109
0.000258897
0.000259825
0.000260677
0.000261537
0.000262429
0.000263352
0.000264299
0.000265288
0.000266299
0.000267358
0.00026844
0.000269572
0.000270738
0.000271796
0.00027303
0.00027447
0.000275612
0.000277102
0.000278319
0.000279912
0.00028142
0.000282801
0.000284417
0.000286106
0.000287861
0.000289698
0.000291613
0.000293604
0.000295685
0.000297858
0.000300099
0.000302409
0.000304824
0.00030735
0.000309986
0.000312714
0.000315667
0.000318459
0.000321148
0.000323455
0.000325748
0.000327976
0.000330165
0.000332305
0.000334363
0.000336498
0.000338448
0.000340351
0.000342204
0.00034398
0.000345517
0.000347173
0.000348635
0.000350025
0.000351241
0.000352577
0.000353617
0.000354597
0.000355423
0.000356155
0.000356802
0.000357368
0.000357856
0.000358237
0.000358468
0.000358549
0.000358447
0.000358258
0.000357973
0.000357625
0.000357182
0.000356666
0.000355998
0.000355177
0.00035416
0.000353045
0.000351843
0.000350564
0.000349229
0.00034783
0.000346366
0.000344801
0.000343105
0.000341217
0.000339252
0.000337274
0.000335248
0.000333294
0.00033129
0.000329299
0.000327297
0.000325343
0.000323386
0.000321442
0.000319374
0.000317245
0.000315092
0.000312953
0.000310988
0.000308936
0.000307022
0.000304969
0.000303053
0.00030098
0.000311204
0.000311722
0.00031225
0.0003128
0.000313374
0.000314008
0.000314613
0.00031525
0.000315918
0.000316607
0.000317307
0.000318044
0.000318807
0.000319578
0.000320381
0.000321178
0.000322009
0.000322905
0.00032381
0.000324719
0.000325649
0.000326593
0.000327508
0.000328411
0.000329373
0.000330397
0.000331432
0.000332482
0.000333573
0.000334702
0.000335864
0.000337079
0.000338322
0.000339625
0.000340959
0.000342355
0.000343794
0.000345239
0.000346763
0.000348397
0.000349936
0.000351615
0.00035324
0.000355044
0.000356886
0.000358724
0.000360704
0.000362772
0.000364919
0.000367167
0.000369514
0.000371949
0.000374494
0.000377154
0.000379887
0.000382691
0.000385622
0.000388689
0.000391886
0.00039518
0.000398581
0.000401889
0.000404995
0.000407666
0.000410052
0.000412274
0.000414411
0.00041645
0.00041834
0.000420161
0.000421856
0.00042347
0.000424995
0.000426394
0.00042757
0.000428634
0.000429549
0.000430361
0.000431035
0.000431662
0.000432077
0.000432311
0.000432335
0.000432242
0.000432048
0.000431765
0.000431392
0.000430895
0.000430219
0.000429313
0.000428237
0.000427084
0.00042586
0.000424556
0.000423159
0.000421674
0.000420054
0.000418262
0.000416249
0.000414149
0.000411976
0.000409743
0.000407473
0.000405161
0.000402798
0.000400348
0.000397764
0.000394966
0.000392102
0.000389258
0.000386416
0.000383632
0.000380841
0.000378094
0.000375353
0.0003727
0.000370059
0.000367468
0.000364731
0.000361931
0.000359194
0.000356421
0.000353823
0.000351174
0.000348733
0.000346206
0.000343715
0.000341208
0.000383902
0.00038452
0.000385149
0.000385797
0.000386472
0.000387183
0.000387896
0.000388639
0.00038942
0.000390226
0.000391039
0.000391889
0.000392775
0.000393667
0.000394592
0.000395546
0.000396518
0.000397532
0.000398584
0.000399646
0.000400728
0.000401827
0.000402872
0.000403938
0.000405048
0.000406194
0.000407383
0.000408594
0.000409854
0.000411162
0.000412511
0.000413926
0.000415376
0.000416899
0.000418459
0.000420094
0.000421778
0.000423518
0.000425309
0.000427177
0.000429017
0.000430914
0.000432843
0.00043489
0.000437027
0.000439212
0.000441518
0.000443927
0.000446426
0.000449048
0.000451788
0.000454626
0.000457592
0.000460693
0.000463869
0.000467108
0.000470492
0.000474034
0.00047772
0.000481501
0.00048532
0.000489012
0.000492357
0.000495083
0.000497261
0.000499143
0.000500882
0.000502461
0.000503816
0.000505007
0.000506068
0.000507016
0.000507837
0.000508487
0.00050888
0.000509041
0.000509057
0.000508955
0.000508723
0.00050838
0.000507841
0.00050706
0.000506025
0.000504869
0.000503618
0.000502289
0.000500876
0.000499338
0.000497612
0.000495602
0.000493429
0.000491201
0.000488931
0.000486588
0.000484165
0.00048166
0.000479033
0.000476225
0.000473175
0.000470052
0.000466879
0.000463663
0.000460437
0.000457192
0.000453919
0.000450572
0.000447098
0.000443377
0.000439605
0.000435886
0.000432204
0.0004286
0.000425015
0.000421507
0.000418018
0.000414661
0.000411331
0.000408107
0.0004047
0.000401223
0.000397877
0.000394459
0.000391271
0.000388013
0.000385066
0.000382038
0.000379027
0.000376096
0.000462311
0.000462991
0.00046368
0.000464383
0.000465115
0.000465886
0.000466666
0.000467469
0.000468315
0.0004692
0.000470083
0.000470999
0.000471969
0.000472945
0.000473948
0.000475005
0.000476082
0.000477188
0.000478353
0.000479535
0.000480731
0.000481957
0.000483087
0.000484249
0.000485462
0.000486703
0.000488002
0.000489331
0.000490715
0.000492161
0.000493655
0.000495231
0.000496847
0.000498552
0.0005003
0.000502136
0.000504027
0.000506002
0.00050802
0.000510107
0.000512181
0.000514266
0.000516422
0.000518682
0.000521063
0.000523515
0.000526091
0.000528789
0.000531585
0.000534524
0.0005376
0.000540781
0.000544105
0.000547584
0.000551131
0.000554721
0.00055847
0.000562393
0.000566466
0.000570618
0.000574744
0.00057865
0.000582018
0.000584493
0.000586122
0.000587297
0.000588267
0.000589021
0.000589474
0.000589696
0.000589776
0.000589724
0.000589523
0.000589121
0.000588425
0.000587424
0.000586285
0.000585033
0.000583661
0.000582165
0.00058048
0.000578518
0.000576269
0.000573913
0.000571483
0.000568998
0.000566449
0.000563788
0.00056094
0.000557764
0.000554433
0.000551076
0.000547708
0.000544287
0.000540801
0.000537251
0.000533595
0.000529755
0.000525643
0.000521479
0.000517289
0.000513075
0.000508879
0.000504689
0.000500498
0.000496251
0.000491895
0.00048724
0.000482549
0.000477946
0.000473412
0.000468987
0.000464599
0.000460328
0.000456079
0.000452019
0.000447991
0.000444161
0.000440268
0.000436365
0.000432658
0.000428872
0.000425381
0.000421823
0.000418675
0.000415471
0.000412321
0.000546211
0.000546891
0.000547584
0.000548276
0.000548998
0.000549775
0.000550563
0.000551358
0.000552204
0.000553115
0.00055401
0.000554925
0.000555924
0.000556934
0.000557953
0.000559055
0.000560188
0.000561333
0.000562562
0.00056382
0.000565079
0.000566399
0.000567555
0.00056874
0.000569998
0.000571278
0.000572628
0.000574019
0.000575467
0.000576997
0.000578579
0.000580264
0.000581995
0.000583831
0.000585717
0.000587703
0.000589754
0.000591906
0.000594101
0.000596366
0.000598614
0.000600825
0.000603132
0.000605544
0.000608106
0.000610749
0.000613525
0.000616447
0.000619468
0.000622654
0.000625998
0.000629447
0.00063305
0.00063683
0.000640665
0.000644502
0.000648509
0.000652701
0.000657039
0.000661426
0.000665713
0.000669651
0.000672822
0.000674761
0.000675508
0.000675629
0.000675498
0.000675106
0.000674345
0.000673309
0.000672132
0.000670824
0.000669366
0.000667695
0.000665702
0.000663354
0.000660888
0.000658331
0.000655676
0.000652906
0.000649962
0.000646722
0.000643162
0.000639522
0.000635837
0.000632129
0.000628384
0.000624553
0.000620545
0.00061616
0.000611627
0.000607103
0.000602602
0.000598072
0.000593495
0.000588881
0.000584179
0.000579298
0.0005741
0.000568875
0.000563653
0.000558419
0.000553241
0.000548089
0.000542975
0.000537823
0.000532604
0.000527229
0.000521893
0.000516685
0.000511589
0.000506645
0.000501773
0.000497061
0.000492398
0.000487986
0.000483651
0.000479614
0.000475628
0.000471712
0.000468058
0.000464376
0.000461041
0.000457717
0.000454869
0.000452049
0.000449374
0.000635203
0.0006358
0.000636421
0.000637016
0.00063763
0.000638337
0.000639061
0.000639758
0.000640511
0.000641384
0.000642221
0.000643039
0.000644003
0.000644985
0.000645937
0.000647014
0.000648149
0.000649258
0.000650489
0.000651773
0.000653023
0.000654412
0.000655519
0.000656644
0.000657878
0.000659126
0.000660455
0.000661842
0.00066328
0.000664831
0.000666433
0.000668168
0.00066995
0.000671857
0.000673824
0.0006759
0.000678053
0.000680324
0.000682642
0.000685031
0.000687394
0.000689656
0.000692037
0.000694525
0.000697196
0.000699954
0.000702854
0.000705927
0.000709097
0.000712452
0.00071599
0.000719627
0.000723424
0.000727423
0.000731457
0.000735434
0.000739588
0.000743931
0.000748413
0.000752902
0.000757205
0.000761011
0.000763798
0.000764962
0.000764546
0.000763322
0.000761818
0.000760031
0.000757818
0.000755301
0.000752662
0.000749913
0.000747029
0.000743943
0.000740517
0.000736688
0.000732778
0.000728809
0.000724773
0.000720648
0.000716374
0.000711791
0.000706848
0.00070186
0.000696863
0.000691878
0.000686891
0.000681852
0.000676661
0.000671027
0.000665253
0.000659521
0.000653854
0.000648186
0.000642488
0.000636789
0.000631028
0.000625205
0.000619227
0.000613259
0.000607329
0.00060141
0.000595592
0.00058984
0.000584178
0.000578518
0.000572856
0.000567149
0.000561557
0.000556151
0.000550925
0.00054591
0.000541032
0.000536367
0.000531814
0.000527574
0.000523513
0.00051983
0.000516322
0.000513009
0.000509997
0.00050708
0.000504495
0.000502098
0.000500151
0.000498378
0.000496861
0.000728707
0.00072911
0.000729576
0.000729965
0.000730341
0.000730882
0.000731465
0.000731951
0.000732486
0.000733252
0.000733959
0.000734552
0.000735403
0.000736297
0.000737073
0.000738044
0.000739127
0.000740103
0.000741263
0.000742529
0.000743674
0.000745131
0.000746109
0.000747073
0.000748211
0.000749347
0.000750575
0.000751889
0.000753233
0.000754738
0.000756283
0.000758004
0.00075977
0.000761684
0.00076367
0.000765773
0.000767969
0.0007703
0.000772685
0.000775147
0.000777579
0.000779807
0.000782187
0.00078467
0.000787381
0.000790179
0.000793124
0.000796281
0.000799522
0.00080297
0.000806634
0.000810381
0.000814289
0.000818433
0.000822592
0.000826606
0.000830801
0.00083519
0.000839706
0.000844186
0.000848386
0.000851936
0.000854208
0.000854429
0.000852631
0.00084983
0.000846747
0.000843379
0.000839537
0.000835369
0.000831116
0.000826789
0.000822359
0.000817753
0.0008128
0.000807387
0.00080194
0.000796477
0.000790983
0.000785436
0.00077978
0.000773805
0.000767414
0.000761021
0.000754657
0.000748343
0.000742069
0.000735787
0.000729404
0.000722771
0.000716104
0.000709525
0.000703058
0.000696636
0.000690215
0.00068384
0.000677456
0.000671128
0.000664779
0.000658494
0.000652296
0.000646148
0.000640164
0.000634309
0.000628616
0.00062299
0.000617436
0.000611932
0.000606614
0.000601553
0.000596752
0.000592221
0.000587904
0.000583831
0.000579936
0.000576374
0.000573117
0.000570251
0.000567665
0.00056539
0.000563402
0.000561628
0.000560098
0.000558946
0.000558192
0.000557775
0.000557733
0.000829809
0.000829878
0.000829994
0.000830031
0.000830051
0.000830217
0.000830412
0.000830509
0.00083065
0.000831003
0.000831293
0.000831472
0.000831896
0.000832359
0.000832703
0.000833239
0.000833884
0.000834421
0.000835143
0.000835972
0.000836669
0.000837625
0.000838401
0.000839086
0.000840063
0.000841
0.00084204
0.000843219
0.000844374
0.000845773
0.000847175
0.000848823
0.000850502
0.000852362
0.000854309
0.000856376
0.000858557
0.000860895
0.000863297
0.000865785
0.000868263
0.000870373
0.000872685
0.000875082
0.000877772
0.000880543
0.000883459
0.000886642
0.000889885
0.000893356
0.000897089
0.000900879
0.000904823
0.000909056
0.000913284
0.000917245
0.000921392
0.000925738
0.000930203
0.000934588
0.000938604
0.000941828
0.000943522
0.000942708
0.000939362
0.000934802
0.000929978
0.000924896
0.000919287
0.000913333
0.000907346
0.00090133
0.000895257
0.000889051
0.0008825
0.000875409
0.000868346
0.000861312
0.000854291
0.000847261
0.000840182
0.000832934
0.000825492
0.0008181
0.000810783
0.000803566
0.000796445
0.000789382
0.000782295
0.000775112
0.000767987
0.000761015
0.000754222
0.000747538
0.000740912
0.000734386
0.000727931
0.000721644
0.000715458
0.000709405
0.000703486
0.000697662
0.000692051
0.000686644
0.000681453
0.000676384
0.000671422
0.000666547
0.00066188
0.000657507
0.000653432
0.000649637
0.000646091
0.000642759
0.000639609
0.000636762
0.000634309
0.000632234
0.000630514
0.000629196
0.000628161
0.000627409
0.00062684
0.000626813
0.000627276
0.000628278
0.000629839
0.000941744
0.000941446
0.000941162
0.000940814
0.000940446
0.000940167
0.000939893
0.000939545
0.000939225
0.000939044
0.000938807
0.000938491
0.000938349
0.000938226
0.000938018
0.000937953
0.000937966
0.000937898
0.000937977
0.000938136
0.000938188
0.000938449
0.000938642
0.000938752
0.000939139
0.000939484
0.00093993
0.000940513
0.000941074
0.000941885
0.000942699
0.000943771
0.00094488
0.000946182
0.000947582
0.000949113
0.000950771
0.000952602
0.000954515
0.000956536
0.00095861
0.000960521
0.000962713
0.000964943
0.000967563
0.000970252
0.000973067
0.000976237
0.000979419
0.00098285
0.000986613
0.000990393
0.000994309
0.00099859
0.00100286
0.00100669
0.00101072
0.00101496
0.00101931
0.00102355
0.00102734
0.00103021
0.00103134
0.00102948
0.00102446
0.00101799
0.00101129
0.00100439
0.000996909
0.000989048
0.000981219
0.000973416
0.000965614
0.000957744
0.000949676
0.000941363
0.00093315
0.000925023
0.000916961
0.000908949
0.000900971
0.000892971
0.000884948
0.000877041
0.000869266
0.000861659
0.000854225
0.000846934
0.000839716
0.000832527
0.000825477
0.000818655
0.000812088
0.000805698
0.000799423
0.000793281
0.00078728
0.000781517
0.000775941
0.000770537
0.000765261
0.000760072
0.000755084
0.000750329
0.000745783
0.000741357
0.000736994
0.000732672
0.000728507
0.000724628
0.000721043
0.000717719
0.00071464
0.000711734
0.000708957
0.000706466
0.000704445
0.00070285
0.0007017
0.000701055
0.00070078
0.000700836
0.000701081
0.000702058
0.000703815
0.000706388
0.000709805
0.00106599
0.00106534
0.00106468
0.00106396
0.00106322
0.00106251
0.00106178
0.00106099
0.00106021
0.00105949
0.00105873
0.00105791
0.00105718
0.00105645
0.00105566
0.00105496
0.0010543
0.00105358
0.00105295
0.00105237
0.00105171
0.0010512
0.00105065
0.00105005
0.00104964
0.0010492
0.00104884
0.00104857
0.00104831
0.00104825
0.0010482
0.00104838
0.00104859
0.00104898
0.00104947
0.00105008
0.00105082
0.00105172
0.00105271
0.00105382
0.00105502
0.00105619
0.00105765
0.00105916
0.00106109
0.0010631
0.00106525
0.0010678
0.00107036
0.00107319
0.00107641
0.00107964
0.00108302
0.00108684
0.00109072
0.00109436
0.00109821
0.00110228
0.00110648
0.00111055
0.00111411
0.00111668
0.00111734
0.00111448
0.00110771
0.00109917
0.0010905
0.00108171
0.00107261
0.00106337
0.00105424
0.0010452
0.00103624
0.00102729
0.00101829
0.00100927
0.00100043
0.000991743
0.000983194
0.000974765
0.000966469
0.00095829
0.000950233
0.000942357
0.000934672
0.000927223
0.000920026
0.000913051
0.000906232
0.000899518
0.000892966
0.000886702
0.000880729
0.000874959
0.000869314
0.000863758
0.000858353
0.000853186
0.000848222
0.000843409
0.000838646
0.000833881
0.000829244
0.000824828
0.000820582
0.000816418
0.000812237
0.000807999
0.00080384
0.000799969
0.000796396
0.000793091
0.000790042
0.000787172
0.000784344
0.00078183
0.000779891
0.000778513
0.000777706
0.000777557
0.000777977
0.000778794
0.00077983
0.000781815
0.00078509
0.000789579
0.00120312
0.00120217
0.00120117
0.00120012
0.00119904
0.00119793
0.00119678
0.0011956
0.00119439
0.00119318
0.00119191
0.00119062
0.00118935
0.00118805
0.00118672
0.00118541
0.0011841
0.00118276
0.00118146
0.00118016
0.00117881
0.00117754
0.00117623
0.0011749
0.00117366
0.00117239
0.00117117
0.00116999
0.00116883
0.00116779
0.00116678
0.00116593
0.00116511
0.00116443
0.00116382
0.00116333
0.00116293
0.00116266
0.00116246
0.00116237
0.00116237
0.0011624
0.0011627
0.00116306
0.00116381
0.00116466
0.00116566
0.00116704
0.00116845
0.00117015
0.00117222
0.00117433
0.00117663
0.00117938
0.00118228
0.00118508
0.00118812
0.0011914
0.00119483
0.00119815
0.00120095
0.00120276
0.00120265
0.00119879
0.00119067
0.0011807
0.00117069
0.00116068
0.00115059
0.00114053
0.00113067
0.00112098
0.00111146
0.00110205
0.00109272
0.00108353
0.00107462
0.00106594
0.00105745
0.00104915
0.00104107
0.00103321
0.00102557
0.00101815
0.00101094
0.00100399
0.000997331
0.000990928
0.000984707
0.000978577
0.000972546
0.000966811
0.000961346
0.000956053
0.00095083
0.000945578
0.000940422
0.000935465
0.00093069
0.000926013
0.000921287
0.000916417
0.000911592
0.000906987
0.000902535
0.000898145
0.000893676
0.000889039
0.0008844
0.000880102
0.000876144
0.000872506
0.000869184
0.000866119
0.00086296
0.000860171
0.000858111
0.000856824
0.000856267
0.000856585
0.000857834
0.000860199
0.000863769
0.000869
0.000876749
0.000887403
0.00135445
0.00135329
0.00135205
0.00135075
0.0013494
0.001348
0.00134654
0.00134502
0.00134346
0.00134186
0.0013402
0.00133849
0.00133677
0.001335
0.00133319
0.00133135
0.0013295
0.00132761
0.0013257
0.00132378
0.00132182
0.00131985
0.00131788
0.00131587
0.00131385
0.00131184
0.00130979
0.00130773
0.00130568
0.00130364
0.00130166
0.00129969
0.00129782
0.00129597
0.00129421
0.00129248
0.00129084
0.00128926
0.00128776
0.0012863
0.00128491
0.00128357
0.00128229
0.00128121
0.00128021
0.0012795
0.00127889
0.00127844
0.00127829
0.0012782
0.00127835
0.00127882
0.00127936
0.00128009
0.00128125
0.00128259
0.00128394
0.00128554
0.00128737
0.00128936
0.00129125
0.00129265
0.00129313
0.00129182
0.00128688
0.0012778
0.00126701
0.0012563
0.00124573
0.00123524
0.00122493
0.00121489
0.00120512
0.00119559
0.00118626
0.00117711
0.0011682
0.00115963
0.00115134
0.00114327
0.0011354
0.00112777
0.00112042
0.00111332
0.00110641
0.00109964
0.00109311
0.00108685
0.00108082
0.00107495
0.00106907
0.00106316
0.00105751
0.00105209
0.0010468
0.00104149
0.001036
0.00103052
0.00102522
0.0010201
0.00101504
0.00100986
0.00100437
0.000998851
0.000993598
0.000988541
0.00098357
0.000978508
0.000973145
0.000967684
0.00096268
0.000958105
0.00095394
0.000950204
0.000946959
0.000944211
0.000942298
0.000941463
0.000941805
0.000943387
0.000946493
0.000951484
0.000959078
0.000969615
0.000982845
0.000998622
0.00101661
0.00151775
0.00151634
0.00151483
0.00151324
0.0015116
0.00150989
0.0015081
0.00150622
0.00150431
0.00150234
0.00150028
0.00149816
0.00149602
0.0014938
0.00149152
0.00148922
0.00148687
0.00148445
0.00148202
0.00147954
0.00147701
0.00147447
0.00147188
0.00146924
0.0014666
0.0014639
0.00146113
0.00145832
0.00145546
0.0014526
0.00144975
0.0014469
0.00144408
0.00144126
0.00143849
0.00143573
0.00143301
0.0014303
0.00142763
0.00142495
0.00142229
0.00141963
0.00141703
0.00141454
0.00141213
0.00140991
0.00140777
0.00140576
0.00140395
0.0014022
0.00140064
0.00139928
0.00139799
0.00139687
0.00139609
0.00139548
0.00139494
0.00139462
0.00139449
0.00139447
0.00139433
0.00139373
0.0013923
0.00138929
0.00138313
0.00137342
0.00136237
0.00135153
0.00134093
0.00133053
0.00132039
0.00131057
0.00130107
0.00129186
0.00128289
0.00127412
0.00126563
0.00125748
0.00124961
0.00124192
0.00123436
0.00122702
0.00121995
0.0012131
0.00120635
0.00119963
0.00119306
0.00118671
0.00118057
0.00117453
0.00116836
0.00116196
0.00115582
0.00114989
0.00114406
0.00113817
0.00113191
0.00112557
0.00111945
0.00111353
0.00110772
0.00110177
0.00109526
0.0010887
0.00108249
0.0010766
0.00107087
0.00106513
0.00105939
0.00105408
0.00104946
0.00104547
0.00104208
0.00103938
0.00103759
0.00103695
0.0010378
0.00104047
0.00104523
0.00105232
0.00106215
0.0010748
0.00109025
0.00110825
0.00112856
0.00115109
0.00117536
0.00169361
0.00169194
0.00169015
0.00168826
0.00168631
0.00168429
0.00168216
0.00167993
0.00167767
0.00167532
0.00167286
0.00167034
0.00166779
0.00166514
0.00166241
0.00165966
0.00165683
0.00165393
0.001651
0.00164801
0.00164495
0.00164188
0.00163873
0.00163552
0.00163231
0.00162899
0.0016256
0.00162209
0.00161849
0.00161489
0.00161124
0.00160758
0.0016039
0.00160021
0.00159652
0.00159281
0.00158911
0.00158538
0.00158165
0.00157786
0.00157404
0.00157016
0.0015663
0.00156249
0.00155873
0.00155507
0.00155145
0.00154792
0.00154449
0.00154111
0.00153782
0.00153462
0.00153145
0.00152841
0.00152558
0.00152287
0.00152024
0.00151776
0.00151539
0.00151303
0.00151048
0.00150748
0.00150373
0.00149865
0.00149114
0.00148103
0.00147006
0.00145939
0.00144902
0.00143891
0.00142907
0.00141953
0.00141032
0.0014014
0.00139269
0.00138412
0.00137581
0.00136779
0.00136
0.00135231
0.00134463
0.00133709
0.00132979
0.00132265
0.00131553
0.00130829
0.00130108
0.00129407
0.00128726
0.0012805
0.00127355
0.00126608
0.00125891
0.001252
0.00124523
0.00123839
0.00123097
0.00122337
0.00121608
0.00120909
0.00120229
0.0011955
0.00118858
0.00118193
0.00117583
0.00117025
0.001165
0.0011599
0.00115501
0.00115108
0.00114818
0.00114625
0.00114529
0.00114543
0.0011472
0.00115105
0.00115746
0.00116678
0.0011791
0.00119388
0.00121086
0.00123023
0.00125207
0.0012762
0.00130249
0.00133091
0.00188159
0.0018796
0.0018775
0.00187527
0.00187298
0.00187061
0.00186811
0.0018655
0.00186284
0.0018601
0.00185722
0.00185427
0.0018513
0.0018482
0.00184501
0.00184181
0.00183851
0.00183511
0.0018317
0.00182821
0.00182464
0.00182105
0.00181737
0.00181362
0.00180987
0.001806
0.00180204
0.00179787
0.00179358
0.00178928
0.00178489
0.00178047
0.00177601
0.00177151
0.00176698
0.00176241
0.00175782
0.00175317
0.00174849
0.00174371
0.00173886
0.00173385
0.00172884
0.00172381
0.00171881
0.00171382
0.00170884
0.00170391
0.00169899
0.00169407
0.00168917
0.00168423
0.00167926
0.00167435
0.00166953
0.00166476
0.00166005
0.00165539
0.00165073
0.00164596
0.0016409
0.00163535
0.0016291
0.00162181
0.00161288
0.0016024
0.00159155
0.00158103
0.00157082
0.00156084
0.00155107
0.00154153
0.0015323
0.0015233
0.00151444
0.00150562
0.00149696
0.00148855
0.00148032
0.00147208
0.00146369
0.00145537
0.00144725
0.00143927
0.00143125
0.00142292
0.00141452
0.00140633
0.00139837
0.0013905
0.00138241
0.00137338
0.0013648
0.00135657
0.00134859
0.00134068
0.00133263
0.0013247
0.00131725
0.00131027
0.00130366
0.00129726
0.001291
0.00128528
0.00128036
0.00127628
0.00127282
0.00126966
0.0012668
0.00126556
0.00126592
0.00126779
0.00127123
0.00127645
0.00128421
0.00129501
0.00130892
0.00132562
0.00134493
0.00136609
0.0013886
0.00141336
0.00144045
0.00146982
0.00150144
0.00153542
0.0020811
0.00207873
0.00207623
0.00207361
0.00207091
0.00206812
0.0020652
0.00206216
0.00205905
0.00205585
0.00205251
0.00204909
0.00204563
0.00204205
0.00203838
0.00203466
0.00203086
0.00202696
0.00202303
0.00201902
0.00201492
0.0020108
0.00200659
0.0020023
0.00199801
0.00199362
0.00198916
0.00198434
0.00197938
0.00197437
0.00196927
0.00196412
0.00195891
0.00195364
0.00194833
0.00194295
0.00193754
0.00193205
0.00192649
0.00192082
0.00191504
0.001909
0.00190291
0.00189676
0.00189061
0.00188441
0.00187819
0.00187197
0.00186569
0.00185938
0.001853
0.00184649
0.00183984
0.00183319
0.00182651
0.00181982
0.00181313
0.00180641
0.00179957
0.0017925
0.00178504
0.00177702
0.00176835
0.00175889
0.00174852
0.00173752
0.0017265
0.00171579
0.00170535
0.00169508
0.00168491
0.00167487
0.00166508
0.00165548
0.00164592
0.00163625
0.00162666
0.00161728
0.00160804
0.00159874
0.00158906
0.0015794
0.00156995
0.00156067
0.00155135
0.00154149
0.00153144
0.00152166
0.00151221
0.00150297
0.00149372
0.00148426
0.00147525
0.00146673
0.00145864
0.00145084
0.0014432
0.00143585
0.00142917
0.00142318
0.0014178
0.00141286
0.00140818
0.00140427
0.0014015
0.00140004
0.00139964
0.00139975
0.00139994
0.00140285
0.00140828
0.00141595
0.00142593
0.00143805