/*--------------------------------*- C++ -*----------------------------------*\
  =========                 |
  \\      /  F ield         | OpenFOAM: The Open Source CFD Toolbox
   \\    /   O peration     | Website:  https://openfoam.org
    \\  /    A nd           | Version:  10
     \\/     M anipulation  |
\*---------------------------------------------------------------------------*/
FoamFile
{
    format      ascii;
    class       volVectorField;
    location    "0.003";
    object      U;
}
// * * * * * * * * * * * * * * * * * * * * * * * * * * * * * * * * * * * * * //

dimensions      [0 1 -1 0 0 0 0];

internalField   nonuniform List<vector> 
8918
(
(3.86926 0.579571 5.39631e-15)
(3.86182 0.575804 -2.69369e-15)
(3.85354 0.571852 2.66332e-15)
(3.84574 0.567662 -4.11343e-17)
(3.84091 0.563863 -2.52856e-15)
(3.85584 0.563054 -5.18262e-15)
(3.84534 0.558304 2.49972e-15)
(3.83641 0.553729 3.92338e-17)
(3.82784 0.549326 3.88783e-17)
(3.82012 0.545045 -2.50237e-15)
(3.81403 0.540784 -4.84774e-15)
(3.80911 0.536702 0)
(3.80457 0.532762 0)
(3.80087 0.528724 0)
(3.79661 0.5245 -4.65108e-15)
(3.78129 0.519082 2.32815e-15)
(3.78515 0.516458 2.25436e-15)
(3.79997 0.514903 0)
(3.7997 0.511364 0)
(3.80058 0.507958 3.36119e-17)
(3.80196 0.504535 -6.62417e-17)
(3.80258 0.50118 -4.18962e-15)
(3.80197 0.497366 3.21027e-17)
(3.78873 0.492019 4.10731e-15)
(3.79522 0.489449 -3.13709e-17)
(3.81403 0.487816 -3.95092e-15)
(3.81667 0.483918 3.90473e-15)
(3.82038 0.480208 0)
(3.82497 0.476479 3.74411e-15)
(3.82954 0.472837 0)
(3.83507 0.4691 0)
(3.84082 0.465456 0)
(3.84722 0.461685 -3.48975e-15)
(3.85416 0.457999 6.91615e-15)
(3.86135 0.454186 -3.39389e-15)
(3.8691 0.450302 -2.59515e-17)
(3.87557 0.44612 -3.19759e-15)
(3.86698 0.440273 -2.51606e-17)
(3.8799 0.436976 -2.45699e-17)
(3.9076 0.434775 1.2516e-22)
(3.90157 0.428941 -3.00471e-15)
(3.93136 0.426747 -2.31257e-17)
(3.92714 0.420898 2.93793e-15)
(3.95977 0.418752 -2.84013e-15)
(3.97236 0.414066 0)
(3.96846 0.407904 -2.14089e-17)
(3.9863 0.403729 -2.68829e-15)
(4.00475 0.399386 2.05426e-17)
(4.02446 0.394974 4.01733e-17)
(4.04579 0.390412 4.95908e-15)
(4.06838 0.38577 3.84656e-17)
(4.09245 0.381006 0)
(4.11833 0.376042 0)
(4.14578 0.370927 -3.59231e-17)
(4.17473 0.365596 3.50312e-17)
(4.20551 0.359989 0)
(4.23822 0.35412 4.27386e-15)
(4.273 0.347891 -3.25808e-17)
(4.31011 0.341341 4.09892e-15)
(4.35042 0.334549 3.99264e-15)
(4.40933 0.328176 -2.99655e-17)
(4.44946 0.319774 -2.92035e-17)
(4.48942 0.310577 3.64147e-15)
(4.5119 0.299577 -3.54139e-15)
(4.55472 0.288846 1.76395e-15)
(4.59909 0.277362 -2.76429e-17)
(4.64445 0.265367 2.77247e-17)
(4.69106 0.252767 -1.77961e-15)
(4.73965 0.239587 -3.54192e-15)
(4.80405 0.226284 1.78046e-15)
(4.85234 0.211521 1.75784e-15)
(4.90191 0.196011 0)
(4.95184 0.179796 -2.80821e-17)
(5.00175 0.162853 -8.73504e-16)
(5.03951 0.145191 -9.0912e-16)
(5.10439 0.127035 -4.54064e-16)
(5.15521 0.107533 4.55725e-16)
(5.20624 0.0870178 -1.42958e-17)
(5.24719 0.0661631 2.88184e-17)
(5.31001 0.0451216 -1.4412e-17)
(5.35116 0.0228458 0)
(5.4035 -0.000465223 1.31268e-16)
(5.45495 -0.0240664 2.19767e-16)
(5.50622 -0.0488775 1.47192e-17)
(5.55766 -0.0743965 -1.47897e-17)
(5.6092 -0.100768 -9.85831e-23)
(5.66033 -0.127568 -4.7809e-16)
(5.71131 -0.155226 9.76264e-16)
(5.76212 -0.183957 -1.51029e-17)
(5.81555 -0.213163 9.70841e-16)
(5.86294 -0.243034 1.95385e-15)
(5.91018 -0.274026 0)
(5.95315 -0.304944 2.16574e-22)
(6.00049 -0.337199 0)
(6.04754 -0.370167 0)
(6.09625 -0.403861 2.21282e-22)
(6.14136 -0.438507 1.03558e-15)
(6.18461 -0.473287 2.05758e-15)
(6.2267 -0.509221 -1.05263e-15)
(6.26782 -0.545598 1.63576e-17)
(6.3082 -0.582775 -1.64927e-17)
(6.34856 -0.620953 2.11616e-15)
(6.38792 -0.659606 3.3634e-17)
(6.42771 -0.699535 -3.34561e-22)
(6.46606 -0.739778 -2.21447e-15)
(6.50448 -0.781419 2.22033e-15)
(6.54033 -0.823192 0)
(6.57529 -0.866309 2.28847e-15)
(6.6083 -0.909712 -2.33518e-15)
(6.64216 -0.954724 2.32582e-15)
(6.67046 -0.999421 1.84347e-17)
(6.71141 -1.04795 2.38458e-15)
(6.74504 -1.09595 0)
(6.78102 -1.14611 0)
(6.81579 -1.19683 -2.47591e-15)
(6.85364 -1.25033 0)
(6.89005 -1.30428 -5.07846e-15)
(6.92851 -1.361 -2.58745e-15)
(6.9639 -1.41799 0)
(6.99863 -1.47756 -2.67932e-15)
(7.02148 -1.53564 2.10467e-17)
(7.0603 -1.59899 2.72009e-15)
(7.11599 -1.66955 2.16284e-17)
(7.15333 -1.73719 2.82596e-15)
(7.19523 -1.80975 -2.23436e-17)
(7.21902 -1.87793 2.89225e-15)
(7.27903 -1.96107 -2.30084e-17)
(7.29992 -2.03528 3.49676e-17)
(10.1481 1.52307 -2.85525e-15)
(10.1407 1.51513 0)
(10.1322 1.50607 -1.40617e-15)
(10.1232 1.49661 1.41519e-15)
(10.1126 1.48692 2.7445e-15)
(10.0957 1.47577 1.38467e-15)
(10.0867 1.46537 -1.39273e-15)
(10.0783 1.45531 -1.31827e-15)
(10.0696 1.44522 -2.0781e-17)
(10.0608 1.43508 1.34065e-15)
(10.0524 1.42465 2.60716e-15)
(10.0439 1.41412 2.02089e-17)
(10.0353 1.40356 -2.00452e-17)
(10.0274 1.39285 -1.26676e-15)
(10.0203 1.38185 1.9598e-17)
(10.0174 1.37194 -1.26892e-15)
(10.0101 1.36168 -1.21284e-15)
(9.99796 1.34981 -1.89228e-17)
(9.99051 1.33847 0)
(9.98429 1.32738 0)
(9.97861 1.31622 1.82437e-17)
(9.97326 1.30527 2.29313e-15)
(9.96879 1.29395 0)
(9.96995 1.28357 -2.27808e-15)
(9.96577 1.27285 2.24755e-15)
(9.95638 1.2604 -2.1805e-15)
(9.95263 1.24837 -2.18973e-15)
(9.95012 1.23658 3.31106e-17)
(9.94847 1.22465 0)
(9.94712 1.21275 2.05846e-15)
(9.94677 1.20051 2.02268e-15)
(9.94687 1.18824 -1.99551e-15)
(9.94775 1.17572 3.91076e-15)
(9.94934 1.16322 -1.92975e-15)
(9.95154 1.15052 0)
(9.95503 1.13768 0)
(9.95923 1.12459 3.67349e-15)
(9.97087 1.11231 -2.82296e-17)
(9.97638 1.09945 0)
(9.97574 1.08505 0)
(9.98919 1.07207 -1.69619e-15)
(9.99058 1.05756 -2.58733e-17)
(10.0061 1.04419 -1.60358e-15)
(10.0094 1.0294 1.89154e-22)
(10.0207 1.01452 1.55281e-15)
(10.0409 1.00065 2.38206e-17)
(10.0554 0.985892 1.46913e-15)
(10.0705 0.970598 -1.45639e-15)
(10.087 0.955056 -1.4204e-15)
(10.1052 0.939117 -1.409e-15)
(10.1246 0.9228 1.3727e-15)
(10.1457 0.906091 1.31553e-15)
(10.1686 0.888862 2.58386e-15)
(10.193 0.871116 2.47654e-15)
(10.2189 0.852783 -2.42379e-15)
(10.2466 0.833756 0)
(10.2761 0.814005 -2.28848e-15)
(10.3073 0.793399 1.73555e-17)
(10.3398 0.771843 -1.68339e-17)
(10.3735 0.749362 2.07039e-15)
(10.4007 0.724949 3.14086e-17)
(10.4364 0.69967 -1.96247e-15)
(10.4728 0.672889 0)
(10.5173 0.64497 1.8364e-15)
(10.5559 0.615035 0)
(10.5958 0.583794 0)
(10.6368 0.551672 -9.09633e-16)
(10.6789 0.518595 3.02257e-22)
(10.722 0.484526 1.79308e-15)
(10.7597 0.449112 1.38003e-17)
(10.8056 0.41287 -1.37597e-17)
(10.853 0.375476 -4.39155e-16)
(10.9012 0.337037 -4.38126e-16)
(10.9504 0.297343 -1.36634e-17)
(11.0056 0.256693 4.51565e-16)
(11.0504 0.21484 -2.0429e-16)
(11.1017 0.171915 2.17631e-16)
(11.1542 0.127746 9.51316e-17)
(11.2116 0.0823231 -9.53196e-17)
(11.2606 0.0356248 -8.14629e-17)
(11.3188 -0.0119615 1.36085e-17)
(11.3732 -0.0607995 0)
(11.4278 -0.111155 -1.08978e-16)
(11.483 -0.162076 2.1819e-16)
(11.5395 -0.214265 0)
(11.5967 -0.268002 -4.37721e-16)
(11.6542 -0.322698 1.37065e-17)
(11.7128 -0.37841 -4.67102e-16)
(11.7718 -0.435705 -4.2708e-16)
(11.8291 -0.493779 0)
(11.8899 -0.553141 -4.43708e-16)
(11.9521 -0.614347 -4.45698e-16)
(12.0161 -0.676353 8.96599e-16)
(12.0803 -0.739774 0)
(12.1454 -0.80479 0)
(12.2106 -0.870667 4.55397e-16)
(12.2785 -0.938767 7.16038e-18)
(12.3469 -1.00772 -4.61878e-16)
(12.417 -1.07871 4.64953e-16)
(12.4883 -1.15126 -7.33404e-18)
(12.5614 -1.22533 7.39124e-18)
(12.6367 -1.3018 -9.63105e-16)
(12.7134 -1.37949 -9.56854e-16)
(12.7927 -1.46005 -7.61289e-18)
(12.8734 -1.54181 9.84719e-16)
(12.9566 -1.62679 -4.58892e-22)
(13.0409 -1.71306 -7.87191e-18)
(13.1278 -1.80281 -1.01974e-15)
(13.2163 -1.8942 2.08362e-15)
(13.3083 -1.98953 -1.62286e-22)
(13.4042 -2.08701 -1.66089e-17)
(13.4996 -2.18833 8.41015e-18)
(13.5988 -2.29211 -1.09165e-15)
(13.7022 -2.40073 8.65903e-18)
(13.8075 -2.51179 1.11419e-15)
(13.9173 -2.62846 0)
(14.0287 -2.74798 2.32005e-15)
(14.1442 -2.87317 1.16103e-15)
(14.261 -3.00215 9.29621e-18)
(14.3821 -3.13706 1.21669e-15)
(14.5109 -3.27869 1.24348e-15)
(14.6371 -3.42431 -9.82874e-18)
(14.7614 -3.57651 9.95697e-18)
(14.8933 -3.73525 -1.30336e-15)
(15.0307 -3.9033 0)
(15.1758 -4.07848 0)
(15.3121 -4.26037 -1.36565e-15)
(15.4641 -4.45468 0)
(12.4694 1.87316 1.26484e-17)
(12.4552 1.86148 -8.01789e-16)
(12.4407 1.84953 7.91957e-16)
(12.4259 1.83722 1.31488e-22)
(12.4096 1.8244 -7.73851e-16)
(12.3904 1.81117 0)
(12.3752 1.79847 0)
(12.36 1.78546 7.44314e-16)
(12.3444 1.77237 7.24917e-16)
(12.3287 1.75921 1.13772e-17)
(12.3132 1.74569 -7.15609e-16)
(12.2974 1.73201 7.07476e-16)
(12.2814 1.71834 0)
(12.2659 1.70446 6.76669e-16)
(12.2508 1.69039 6.77844e-16)
(12.2377 1.67674 1.04738e-17)
(12.2227 1.66263 -2.05858e-17)
(12.2061 1.6479 6.78241e-24)
(12.1915 1.63342 1.99768e-17)
(12.1776 1.61887 1.2356e-15)
(12.164 1.60409 3.85917e-17)
(12.1506 1.58949 -1.90358e-17)
(12.1382 1.57482 1.8642e-17)
(12.1283 1.56029 -1.83859e-17)
(12.1161 1.54544 -1.1576e-15)
(12.1025 1.52994 1.1499e-15)
(12.0912 1.51469 -1.74363e-17)
(12.0808 1.49934 -1.70675e-17)
(12.071 1.48379 1.07347e-15)
(12.0616 1.46826 1.64642e-17)
(12.0531 1.45238 -2.06282e-15)
(12.0449 1.43647 1.03018e-15)
(12.0375 1.42021 -1.02076e-15)
(12.0307 1.40386 9.73932e-16)
(12.0245 1.38731 1.48309e-17)
(12.0192 1.37058 0)
(12.0147 1.35373 -4.45736e-23)
(12.0135 1.33699 -8.9377e-16)
(12.01 1.31972 -1.35909e-17)
(12.005 1.30198 1.33233e-17)
(12.0058 1.28451 8.30381e-16)
(12.0026 1.26638 1.26944e-17)
(12.0054 1.24844 -7.78474e-23)
(12.0042 1.2298 1.5331e-15)
(12.0067 1.21109 -7.54361e-16)
(12.0133 1.19248 0)
(12.0185 1.17322 -7.16299e-16)
(12.0246 1.15357 6.96776e-16)
(12.0322 1.13364 1.34431e-15)
(12.0414 1.11326 1.03093e-17)
(12.0519 1.09244 0)
(12.064 1.07116 -6.31703e-16)
(12.0779 1.0493 -1.20895e-15)
(12.0933 1.02684 -2.34785e-15)
(12.1104 1.00372 1.14578e-15)
(12.1293 0.979809 -8.61063e-18)
(12.1501 0.955077 1.07667e-15)
(12.1727 0.929387 0)
(12.1967 0.902617 0)
(12.222 0.874694 -1.93638e-15)
(12.2462 0.845171 0)
(12.2738 0.814364 -9.04994e-16)
(12.3024 0.781839 8.75083e-16)
(12.3348 0.747579 8.46382e-16)
(12.3666 0.711359 6.49377e-18)
(12.4 0.673854 -1.29488e-17)
(12.4348 0.635403 4.19644e-16)
(12.4713 0.595933 0)
(12.5092 0.55533 -4.11141e-16)
(12.5467 0.513569 0)
(12.5882 0.470802 0)
(12.6313 0.426704 1.08095e-22)
(12.6756 0.381454 4.08368e-16)
(12.7212 0.334976 2.03966e-16)
(12.7696 0.287331 0)
(12.8155 0.238398 1.01893e-16)
(12.8646 0.188238 -1.08256e-16)
(12.9151 0.136647 6.37003e-18)
(12.9678 0.0838419 5.0975e-17)
(13.0186 0.030048 6.38032e-18)
(13.0731 -0.0250129 1.27725e-17)
(13.1273 -0.0816133 -1.40098e-22)
(13.182 -0.139395 5.13012e-17)
(13.2379 -0.19838 -1.02876e-16)
(13.2953 -0.258622 -6.44882e-18)
(13.3538 -0.320408 1.03523e-16)
(13.413 -0.383299 6.49377e-18)
(13.4737 -0.447347 -1.30391e-17)
(13.5353 -0.51314 4.25669e-16)
(13.597 -0.579933 -2.17281e-16)
(13.6614 -0.648043 2.18459e-16)
(13.7274 -0.718174 4.19527e-16)
(13.7948 -0.789268 -2.07747e-16)
(13.864 -0.862011 0)
(13.9345 -0.936581 6.79263e-18)
(14.0065 -1.01221 -1.3787e-22)
(14.081 -1.09024 -6.89673e-18)
(14.1566 -1.16939 6.96095e-18)
(14.2347 -1.25083 2.105e-16)
(14.3146 -1.33417 2.34082e-16)
(14.3972 -1.41927 0)
(14.4824 -1.50715 -4.63378e-16)
(14.5699 -1.59651 2.34552e-22)
(14.6605 -1.68917 4.66324e-16)
(14.7534 -1.78336 -4.71859e-16)
(14.8495 -1.88125 -4.77603e-16)
(14.9478 -1.98084 -7.68346e-18)
(15.0495 -2.0845 0)
(15.1539 -2.19023 -1.01542e-15)
(15.2623 -2.30048 4.00632e-18)
(15.3743 -2.41326 4.06778e-18)
(15.4891 -2.531 -4.12978e-18)
(15.6075 -2.65147 5.32563e-16)
(15.7302 -2.77753 8.5463e-23)
(15.8562 -2.90671 -5.49286e-16)
(15.9867 -3.04222 5.64169e-16)
(16.1201 -3.18144 -5.71237e-16)
(16.258 -3.32707 5.79593e-16)
(16.3986 -3.47763 -5.89963e-16)
(16.5442 -3.63481 6.13861e-16)
(16.6944 -3.79932 -6.16715e-16)
(16.8469 -3.97018 0)
(17.0016 -4.1494 0)
(17.1616 -4.33549 0)
(17.3263 -4.53185 6.62756e-16)
(17.4957 -4.73622 0)
(17.6663 -4.95124 1.37627e-15)
(17.843 -5.17731 -5.43974e-18)
(13.5938 2.04268 5.43732e-16)
(13.5758 2.02946 5.54738e-16)
(13.5577 2.01604 -5.38439e-16)
(13.5394 2.00225 -5.38787e-16)
(13.5205 1.98811 -1.06498e-23)
(13.5008 1.97392 8.09894e-18)
(13.4821 1.95977 5.25866e-16)
(13.4632 1.94525 -5.18218e-16)
(13.444 1.93066 -4.96329e-16)
(13.4249 1.91601 -4.89898e-16)
(13.4059 1.901 -4.80367e-16)
(13.3868 1.88582 -4.88993e-16)
(13.3676 1.87066 1.46247e-17)
(13.3489 1.85528 4.59143e-16)
(13.3303 1.83966 0)
(13.3123 1.82422 0)
(13.2945 1.80857 0)
(13.2767 1.79257 4.29986e-16)
(13.2592 1.77661 0)
(13.2422 1.7605 -8.181e-16)
(13.2255 1.7441 -1.27586e-17)
(13.209 1.7278 -1.25732e-17)
(13.1932 1.71138 1.22925e-17)
(13.1783 1.69488 0)
(13.1633 1.67834 -7.48697e-16)
(13.1485 1.6614 -1.16245e-17)
(13.1343 1.64449 1.14471e-17)
(13.1208 1.62743 6.938e-16)
(13.1078 1.61013 -6.81174e-16)
(13.0953 1.59285 -7.11071e-16)
(13.0835 1.57524 6.84722e-16)
(13.0721 1.55762 -6.52184e-16)
(13.0615 1.53967 -2.01806e-17)
(13.0515 1.5216 -1.27009e-15)
(13.0421 1.5033 -6.08567e-16)
(13.0334 1.48476 -9.49093e-18)
(13.0253 1.46606 -5.91308e-16)
(13.0186 1.44722 1.16008e-15)
(13.012 1.42811 5.72926e-16)
(13.0058 1.40874 0)
(13.0014 1.38919 5.37984e-16)
(12.997 1.36936 0)
(12.9946 1.3493 -8.01454e-18)
(12.9924 1.32895 -4.92974e-16)
(12.9915 1.30828 0)
(12.9925 1.28744 0)
(12.9944 1.26617 7.23937e-18)
(12.9974 1.2445 -7.04162e-18)
(13.002 1.22252 -6.84631e-18)
(13.0081 1.20006 4.33476e-16)
(13.0156 1.17714 -6.47881e-18)
(13.0249 1.15372 1.2578e-17)
(13.0359 1.12968 3.85189e-16)
(13.0485 1.10501 1.89053e-22)
(13.0629 1.07963 0)
(13.0792 1.05342 5.58181e-18)
(13.0975 1.02633 -7.0381e-16)
(13.1177 0.998235 6.7168e-16)
(13.1395 0.968999 7.85553e-23)
(13.1629 0.938555 6.29522e-16)
(13.1873 0.906565 8.23296e-23)
(13.2131 0.873059 5.90136e-16)
(13.24 0.837705 -5.66774e-16)
(13.2689 0.800373 -8.2466e-16)
(13.2996 0.761093 -4.24748e-18)
(13.332 0.720462 0)
(13.3662 0.678832 4.24079e-18)
(13.4022 0.636129 -8.47803e-18)
(13.44 0.592243 9.27464e-23)
(13.4794 0.547199 8.48733e-18)
(13.521 0.50101 -9.4368e-23)
(13.5643 0.453426 2.67556e-16)
(13.609 0.40465 -1.36027e-16)
(13.6551 0.354623 -1.36191e-16)
(13.7029 0.303307 4.25923e-18)
(13.7514 0.250649 -7.26208e-17)
(13.8018 0.196685 0)
(13.8535 0.141229 0)
(13.9065 0.0844704 4.30227e-18)
(13.9601 0.0265113 -8.63909e-18)
(14.0155 -0.0326754 0)
(14.0718 -0.0934989 0)
(14.1288 -0.15561 -3.49646e-17)
(14.1872 -0.21894 0)
(14.2473 -0.283655 -4.41571e-18)
(14.3087 -0.349992 9.47069e-23)
(14.371 -0.417443 7.59421e-17)
(14.4349 -0.486211 4.49517e-18)
(14.5001 -0.556818 -1.4482e-16)
(14.566 -0.628553 2.82783e-16)
(14.6342 -0.701707 4.59606e-18)
(14.7041 -0.776978 -8.09943e-23)
(14.7754 -0.853292 0)
(14.8491 -0.931421 -1.50759e-16)
(14.9244 -1.01149 0)
(15.0018 -1.09279 0)
(15.0814 -1.1766 -1.60006e-16)
(15.1626 -1.26168 -1.47106e-16)
(15.2465 -1.34923 -4.95211e-18)
(15.3325 -1.43884 1.60492e-16)
(15.4215 -1.53041 -5.0701e-18)
(15.5133 -1.62493 3.33905e-16)
(15.6078 -1.72114 6.60318e-16)
(15.7056 -1.82086 -6.74373e-16)
(15.8061 -1.92232 6.88752e-16)
(15.91 -2.02774 -5.41173e-18)
(16.0166 -2.13512 5.49249e-18)
(16.1269 -2.24685 0)
(16.2404 -2.36095 3.62426e-16)
(16.358 -2.47987 0)
(16.4792 -2.60155 3.73913e-16)
(16.6044 -2.7287 0)
(16.7331 -2.85883 0)
(16.8662 -2.99491 -3.86922e-16)
(17.0031 -3.13451 3.92858e-16)
(17.1446 -3.28084 -8.14105e-16)
(17.2895 -3.43133 -6.44448e-18)
(17.4391 -3.58877 -4.15536e-16)
(17.5918 -3.75178 4.2324e-16)
(17.7496 -3.92205 -8.71333e-16)
(17.9108 -4.09974 -3.45988e-18)
(18.0766 -4.28473 7.30975e-23)
(18.246 -4.47894 3.60493e-18)
(18.4195 -4.68033 0)
(18.5973 -4.89256 2.23446e-22)
(18.779 -5.11326 0)
(18.9653 -5.34631 -5.00161e-16)
(19.1543 -5.59035 0)
(14.3718 2.16056 -4.18267e-16)
(14.3517 2.1464 -1.33349e-17)
(14.3316 2.13203 4.33502e-16)
(14.3114 2.11729 4.00949e-16)
(14.2908 2.10226 0)
(14.27 2.08721 1.26254e-17)
(14.2494 2.07208 -4.09596e-16)
(14.2287 2.05661 3.91185e-16)
(14.2077 2.04106 3.98272e-16)
(14.187 2.02545 3.57222e-16)
(14.1664 2.00947 7.58429e-16)
(14.1457 1.99332 0)
(14.1251 1.97719 -3.63525e-16)
(14.1049 1.96084 -3.45335e-16)
(14.0848 1.94422 -1.09633e-17)
(14.065 1.92775 3.35081e-16)
(14.0459 1.9111 2.12062e-17)
(14.0269 1.89413 -3.43844e-16)
(14.0081 1.87718 6.67626e-16)
(13.9897 1.86005 -1.00645e-17)
(13.9717 1.84263 0)
(13.9538 1.82527 -6.2348e-16)
(13.9365 1.80772 0)
(13.9198 1.79002 -9.36564e-18)
(13.9034 1.77239 5.98318e-16)
(13.8875 1.75439 5.76066e-16)
(13.872 1.73636 0)
(13.857 1.71816 8.66405e-18)
(13.8426 1.69972 -8.50649e-18)
(13.8287 1.6813 5.33877e-16)
(13.8155 1.66252 0)
(13.8028 1.64374 1.01806e-15)
(13.7907 1.62464 7.81328e-18)
(13.7792 1.60547 4.91838e-16)
(13.7684 1.58603 4.78828e-16)
(13.7583 1.56635 0)
(13.7488 1.54648 -4.65314e-16)
(13.7403 1.52636 -4.4263e-16)
(13.7324 1.50603 -4.44228e-16)
(13.7253 1.48547 6.70847e-18)
(13.7192 1.46462 -4.17403e-16)
(13.7139 1.44357 4.02568e-16)
(13.7098 1.42218 6.22339e-18)
(13.7067 1.40057 -6.07703e-18)
(13.7047 1.37859 5.93526e-18)
(13.704 1.35637 0)
(13.7048 1.33374 3.54884e-16)
(13.7067 1.31071 5.48243e-18)
(13.7102 1.28734 -6.77381e-16)
(13.7153 1.26347 -3.37943e-16)
(13.7219 1.23911 0)
(13.7303 1.21423 -3.19159e-16)
(13.7405 1.1887 -3.0098e-16)
(13.7524 1.16251 5.94544e-16)
(13.7661 1.13558 0)
(13.782 1.10777 0)
(13.7998 1.07904 0)
(13.8196 1.04926 -5.27279e-16)
(13.8413 1.0183 3.99434e-18)
(13.8647 0.98608 -3.86899e-18)
(13.8896 0.952272 -3.74951e-18)
(13.9158 0.916855 6.64343e-23)
(13.9432 0.879493 3.52181e-18)
(13.9725 0.840021 4.37009e-16)
(14.004 0.798519 0)
(14.0376 0.755591 -2.15576e-16)
(14.073 0.711611 0)
(14.1104 0.666501 0)
(14.1499 0.620154 0)
(14.1913 0.572595 -2.2065e-16)
(14.2347 0.523813 3.40265e-18)
(14.2801 0.473577 -3.41208e-18)
(14.327 0.422092 3.4228e-18)
(14.3755 0.369253 -1.06474e-16)
(14.4254 0.315038 -3.44688e-18)
(14.4768 0.25948 5.541e-17)
(14.5299 0.202535 0)
(14.5845 0.144031 2.79703e-17)
(14.6404 0.0841541 -1.40555e-17)
(14.6974 0.0229874 1.86727e-24)
(14.7559 -0.039475 -3.55483e-18)
(14.8157 -0.103646 3.57811e-18)
(14.8764 -0.169206 0)
(14.9386 -0.236046 3.6301e-18)
(15.0027 -0.304369 -3.65813e-18)
(15.0681 -0.374414 5.8999e-17)
(15.1346 -0.445674 -1.18982e-16)
(15.203 -0.518333 0)
(15.2727 -0.592921 0)
(15.3435 -0.668736 -2.40806e-16)
(15.4166 -0.746103 -1.27409e-16)
(15.4916 -0.825683 -1.24842e-16)
(15.568 -0.906397 1.2621e-16)
(15.6471 -0.989072 1.27539e-16)
(15.728 -1.07379 4.03228e-18)
(15.8112 -1.15988 -1.30546e-16)
(15.8967 -1.24861 1.27963e-16)
(15.9841 -1.33875 1.33864e-16)
(16.0744 -1.43154 -1.3123e-16)
(16.167 -1.52652 -5.54173e-16)
(16.2627 -1.62364 4.35111e-18)
(16.3613 -1.72387 -4.41667e-18)
(16.463 -1.82598 -2.82125e-16)
(16.568 -1.93177 5.81811e-16)
(16.6759 -2.03951 -2.99898e-16)
(16.7875 -2.15142 3.04443e-16)
(16.9021 -2.26552 2.99917e-16)
(17.0205 -2.38422 0)
(17.1423 -2.50552 0)
(17.2683 -2.63189 0)
(17.3981 -2.76128 -3.2584e-16)
(17.5321 -2.89642 5.179e-18)
(17.6697 -3.03481 -5.26944e-18)
(17.8118 -3.17947 3.43495e-16)
(17.9579 -3.32815 0)
(18.1086 -3.48383 7.07057e-16)
(18.263 -3.6441 3.66949e-16)
(18.4221 -3.81174 -5.78158e-18)
(18.5847 -3.98538 5.84614e-18)
(18.7524 -4.16689 3.83851e-16)
(18.9233 -4.35599 -6.07841e-18)
(19.0992 -4.55284 6.2181e-18)
(19.2787 -4.75939 0)
(19.4623 -4.97367 0)
(19.6501 -5.1993 -8.46112e-16)
(19.8416 -5.43398 4.3079e-16)
(20.0379 -5.68179 -3.43737e-18)
(20.2364 -5.9411 0)
(14.9907 2.2548 3.503e-16)
(14.9694 2.23994 3.68488e-16)
(14.948 2.22485 0)
(14.9266 2.20939 1.08256e-17)
(14.9049 2.19366 3.31479e-16)
(14.8831 2.1779 0)
(14.8614 2.16202 0)
(14.8396 2.14582 1.02233e-17)
(14.8177 2.12954 -3.33042e-16)
(14.7961 2.11319 0)
(14.7746 2.09647 9.75477e-18)
(14.753 2.07959 -9.62537e-18)
(14.7316 2.06271 -6.82206e-23)
(14.7106 2.0456 -9.31177e-18)
(14.6897 2.02822 9.16407e-18)
(14.6691 2.01098 -2.89177e-16)
(14.6492 1.99354 8.86433e-18)
(14.6294 1.97581 -2.87408e-16)
(14.6099 1.95807 -5.49484e-16)
(14.5908 1.94014 -8.41282e-18)
(14.5719 1.92193 -5.20643e-16)
(14.5534 1.90377 5.21223e-16)
(14.5354 1.88539 -5.01498e-16)
(14.5178 1.86679 -7.83221e-18)
(14.5006 1.84828 7.69875e-18)
(14.484 1.82943 -4.96794e-16)
(14.4677 1.81053 -4.67063e-16)
(14.452 1.79146 -9.27635e-16)
(14.4368 1.77214 0)
(14.4221 1.75282 3.2909e-23)
(14.4081 1.73314 6.82537e-18)
(14.3946 1.71346 2.30924e-24)
(14.3818 1.69344 6.54067e-18)
(14.3696 1.67334 -4.24696e-16)
(14.3581 1.65299 0)
(14.3473 1.63243 -3.9419e-16)
(14.3371 1.61166 3.71868e-16)
(14.3278 1.59063 1.17795e-17)
(14.3192 1.56934 -1.1461e-17)
(14.3116 1.5478 -3.48765e-16)
(14.3047 1.52595 3.61142e-16)
(14.2989 1.50391 -3.53867e-16)
(14.2941 1.48149 0)
(14.2906 1.45886 -3.26571e-16)
(14.2881 1.43583 0)
(14.2868 1.41254 -3.19967e-16)
(14.2871 1.38884 -5.96879e-16)
(14.2887 1.36472 0)
(14.2918 1.34023 2.96301e-16)
(14.2966 1.31523 2.71452e-16)
(14.303 1.28972 -2.72552e-16)
(14.3112 1.26366 2.73179e-16)
(14.3214 1.23693 2.57883e-16)
(14.3333 1.20953 -2.58706e-16)
(14.3471 1.18133 -7.6066e-18)
(14.3631 1.15223 1.47799e-17)
(14.3813 1.12217 4.52301e-16)
(14.4015 1.09103 0)
(14.4237 1.05867 0)
(14.4478 1.025 -4.19588e-16)
(14.4737 0.989702 0)
(14.501 0.95273 -3.94575e-16)
(14.5298 0.913732 -5.98199e-18)
(14.5606 0.872521 -1.85862e-16)
(14.594 0.829182 5.73251e-18)
(14.6295 0.784349 8.01357e-23)
(14.667 0.73841 1.78746e-16)
(14.7068 0.691287 1.90926e-16)
(14.7486 0.64287 0)
(14.7926 0.593184 3.67482e-16)
(14.8388 0.54221 1.30326e-22)
(14.8871 0.489723 -1.88335e-16)
(14.937 0.43593 -8.28165e-17)
(14.9886 0.380712 8.92172e-17)
(15.0419 0.324059 9.57198e-17)
(15.0967 0.265991 0)
(15.1534 0.206453 -4.84964e-17)
(15.2118 0.145282 -1.8315e-17)
(15.2715 0.0826792 4.03523e-24)
(15.3326 0.0187245 9.29697e-18)
(15.3953 -0.0466233 0)
(15.4594 -0.113757 0)
(15.5246 -0.182358 -2.54412e-17)
(15.5915 -0.252338 6.42117e-18)
(15.6603 -0.323892 -6.48454e-18)
(15.7306 -0.397248 -9.82533e-17)
(15.8022 -0.471908 3.97115e-17)
(15.8758 -0.548075 1.13723e-16)
(15.9508 -0.626263 0)
(16.0272 -0.705777 1.09528e-16)
(16.1061 -0.786981 0)
(16.1869 -0.870493 3.50766e-18)
(16.2693 -0.955242 -2.30965e-16)
(16.3544 -1.04209 0)
(16.4415 -1.13109 3.64647e-18)
(16.5311 -1.2216 1.14567e-16)
(16.6232 -1.31489 -3.74601e-18)
(16.7173 -1.40971 -1.17891e-16)
(16.8145 -1.50736 -3.85491e-18)
(16.9141 -1.60734 5.09407e-16)
(17.017 -1.70964 -3.97527e-18)
(17.1228 -1.81519 4.04116e-18)
(17.2318 -1.9228 -4.10357e-18)
(17.3442 -2.03427 -2.6694e-16)
(17.4597 -2.14788 -4.23934e-18)
(17.579 -2.26585 1.35234e-23)
(17.7015 -2.38621 -2.76263e-16)
(17.8279 -2.5114 2.81002e-16)
(17.9579 -2.63941 -2.86288e-16)
(18.0921 -2.77273 0)
(18.2301 -2.90929 0)
(18.3724 -3.05191 -3.06933e-16)
(18.5183 -3.19815 4.88363e-18)
(18.6687 -3.35086 -4.9782e-18)
(18.8231 -3.50803 5.06267e-18)
(18.9821 -3.67241 -3.30952e-16)
(19.145 -3.8418 -5.24688e-18)
(19.3125 -4.01884 -3.44075e-16)
(19.4837 -4.20218 0)
(19.6599 -4.39382 -3.57287e-16)
(19.8393 -4.59334 0)
(20.0235 -4.80107 0)
(20.2111 -5.01883 3.83718e-16)
(20.4027 -5.24486 -3.9061e-16)
(20.5982 -5.48264 7.88687e-16)
(20.7971 -5.73001 -3.98578e-16)
(21.0005 -5.99106 -4.03765e-16)
(21.2058 -6.26406 4.0878e-16)
(15.5196 2.33577 9.84117e-18)
(15.4975 2.32031 1.03366e-22)
(15.4754 2.30462 3.06512e-16)
(15.4532 2.28857 -3.11163e-16)
(15.4308 2.27226 1.86287e-17)
(15.4083 2.2559 -9.20052e-18)
(15.386 2.23941 0)
(15.3636 2.2226 0)
(15.3412 2.20572 -8.79305e-18)
(15.3189 2.18874 1.73511e-17)
(15.2969 2.1714 8.20672e-23)
(15.2749 2.1539 -8.38914e-18)
(15.253 2.1364 2.64902e-16)
(15.2315 2.11864 2.51655e-16)
(15.2102 2.10063 2.63681e-16)
(15.1892 2.08274 -7.88107e-18)
(15.1687 2.06463 1.57954e-24)
(15.1485 2.04624 2.50713e-16)
(15.1285 2.02784 -4.79408e-16)
(15.109 2.00923 -1.46821e-17)
(15.0897 1.99035 4.61606e-16)
(15.0708 1.97151 -4.40763e-16)
(15.0523 1.95243 8.89599e-16)
(15.0342 1.93311 4.37773e-16)
(15.0166 1.91382 0)
(14.9995 1.89424 4.2088e-16)
(14.9828 1.87462 4.14633e-16)
(14.9666 1.8548 -4.9172e-23)
(14.951 1.83473 0)
(14.9359 1.81466 -3.78438e-16)
(14.9215 1.79422 -1.19405e-17)
(14.9075 1.77376 -7.5142e-16)
(14.8943 1.75296 1.14481e-17)
(14.8817 1.73207 3.49237e-16)
(14.8697 1.71092 -3.51114e-16)
(14.8585 1.68957 3.45248e-16)
(14.848 1.66801 -1.05091e-17)
(14.8383 1.64621 3.40681e-16)
(14.8294 1.62414 -3.11477e-16)
(14.8215 1.60177 3.05814e-16)
(14.8143 1.57907 -6.24003e-16)
(14.8083 1.55615 1.88181e-17)
(14.8032 1.53287 -3.02734e-16)
(14.7994 1.50934 5.73521e-16)
(14.7967 1.48541 0)
(14.7954 1.46121 5.3685e-16)
(14.7955 1.43658 2.74889e-16)
(14.797 1.41151 2.51534e-16)
(14.8001 1.38606 2.6073e-16)
(14.805 1.36008 -2.46676e-16)
(14.8114 1.33357 4.37383e-23)
(14.8199 1.30648 0)
(14.8302 1.27871 -2.27332e-16)
(14.8425 1.25023 2.21253e-16)
(14.8568 1.22094 4.29577e-16)
(14.8733 1.19071 0)
(14.8921 1.15949 -8.11807e-16)
(14.9131 1.12716 0)
(14.9362 1.09358 3.82856e-16)
(14.9614 1.05865 3.7135e-16)
(14.9887 1.02205 0)
(15.0176 0.983724 3.4425e-16)
(15.0483 0.943298 5.30725e-18)
(15.0813 0.900566 0)
(15.117 0.85561 5.1001e-18)
(15.1551 0.809093 1.58802e-16)
(15.1954 0.761418 -1.64703e-16)
(15.238 0.712504 -1.65549e-16)
(15.2829 0.662241 1.66481e-16)
(15.3301 0.610648 -1.62261e-16)
(15.3797 0.557706 7.89938e-17)
(15.4314 0.503193 1.6963e-16)
(15.485 0.447315 9.0746e-17)
(15.5405 0.389949 -5.37747e-18)
(15.5977 0.331084 -8.67146e-17)
(15.6567 0.270723 5.46552e-18)
(15.7177 0.20881 8.26939e-17)
(15.7805 0.145192 -2.78138e-17)
(15.8447 0.0800776 -5.61475e-18)
(15.9105 0.0135347 -5.66924e-18)
(15.9781 -0.0544936 -5.72609e-18)
(16.0472 -0.124391 0)
(16.1176 -0.195832 5.85164e-18)
(16.1898 -0.268756 -1.28417e-22)
(16.264 -0.343351 -5.9884e-18)
(16.3398 -0.419826 2.36765e-23)
(16.417 -0.497693 9.81465e-17)
(16.4964 -0.577185 -9.93727e-17)
(16.5775 -0.658793 0)
(16.6601 -0.741833 0)
(16.7452 -0.826702 0)
(16.8322 -0.91397 -6.55729e-18)
(16.9212 -1.00259 1.06454e-16)
(17.0129 -1.09345 6.74657e-18)
(17.1066 -1.18656 -1.02725e-16)
(17.2029 -1.28133 1.1121e-16)
(17.3019 -1.37901 -1.41102e-17)
(17.4032 -1.47837 1.21924e-16)
(17.5076 -1.58073 2.25678e-16)
(17.6145 -1.68554 -2.22287e-16)
(17.7247 -1.79286 2.33312e-16)
(17.838 -1.90357 0)
(17.9544 -2.01651 2.41405e-16)
(18.0743 -2.13346 7.92388e-18)
(18.1975 -2.25275 -2.57988e-16)
(18.3245 -2.37659 -5.01376e-23)
(18.4548 -2.503 -2.67365e-16)
(18.5891 -2.63447 -2.72207e-16)
(18.7271 -2.76904 2.77574e-16)
(18.8692 -2.90913 2.82657e-16)
(19.0151 -3.05279 0)
(19.1651 -3.20268 -4.58775e-18)
(19.3189 -3.35656 9.34984e-18)
(19.477 -3.51705 3.00397e-16)
(19.639 -3.68225 4.85199e-18)
(19.8056 -3.85489 -4.95834e-18)
(19.9759 -4.03286 -3.17104e-16)
(20.1509 -4.21879 6.55183e-16)
(20.3296 -4.41134 -3.34145e-16)
(20.5131 -4.61258 3.48372e-16)
(20.6996 -4.82195 -5.43603e-18)
(20.8906 -5.03997 0)
(21.0846 -5.26826 -3.68469e-16)
(21.2823 -5.50529 3.75088e-16)
(21.4834 -5.75438 -3.78582e-16)
(21.6874 -6.01355 -3.88595e-16)
(21.8952 -6.28677 3.99711e-16)
(22.1042 -6.57225 -4.0454e-16)
(15.9912 2.40828 0)
(15.9686 2.39232 8.68008e-18)
(15.946 2.37611 -2.73626e-16)
(15.9234 2.35955 -8.41945e-18)
(15.9006 2.34273 -5.40717e-16)
(15.8777 2.32585 -9.40714e-24)
(15.8549 2.30882 -2.50486e-16)
(15.8322 2.29149 7.95969e-18)
(15.8094 2.27407 2.43671e-16)
(15.7869 2.25654 -2.48229e-16)
(15.7646 2.23866 -2.43291e-16)
(15.7423 2.22061 0)
(15.7202 2.20255 0)
(15.6985 2.18422 7.05992e-23)
(15.6769 2.16564 -4.43555e-16)
(15.6556 2.14718 2.11748e-16)
(15.6349 2.12848 1.38532e-17)
(15.6145 2.10951 -1.36159e-17)
(15.5943 2.09051 -1.34284e-17)
(15.5745 2.07129 2.63273e-17)
(15.555 2.05182 -4.26921e-16)
(15.5358 2.03237 4.20902e-16)
(15.5171 2.01266 -1.24732e-17)
(15.4988 1.99273 -3.92976e-16)
(15.481 1.97277 0)
(15.4636 1.9525 -3.78055e-16)
(15.4466 1.93223 -1.16426e-17)
(15.4302 1.91176 3.75786e-16)
(15.4144 1.89102 1.11886e-17)
(15.399 1.87027 -3.51361e-16)
(15.3843 1.84915 -1.07433e-17)
(15.3702 1.828 3.27582e-16)
(15.3567 1.80651 2.06144e-17)
(15.3439 1.78492 -1.01462e-17)
(15.3317 1.76305 6.32663e-16)
(15.3203 1.74098 0)
(15.3096 1.71869 -3.03182e-16)
(15.2998 1.69617 -5.95877e-16)
(15.2907 1.6734 -2.85429e-24)
(15.2827 1.65032 2.75991e-16)
(15.2754 1.62689 2.86026e-16)
(15.2693 1.60318 0)
(15.2642 1.57911 2.65263e-16)
(15.2604 1.55478 -2.59221e-16)
(15.2578 1.53004 -2.61391e-16)
(15.2564 1.50501 -2.39005e-16)
(15.2567 1.47953 -2.41278e-16)
(15.2583 1.45361 -4.70251e-16)
(15.2616 1.42729 -2.29055e-16)
(15.2667 1.40041 -2.16594e-16)
(15.2735 1.37299 4.35334e-16)
(15.2823 1.34498 -6.61738e-18)
(15.2931 1.31625 0)
(15.3059 1.28681 0)
(15.3209 1.25653 -3.90314e-16)
(15.3381 1.22527 3.79625e-16)
(15.3578 1.193 3.63465e-16)
(15.3798 1.15958 5.60808e-18)
(15.4042 1.12488 -3.48702e-16)
(15.4308 1.08882 0)
(15.4598 1.05103 0)
(15.4907 1.01148 0)
(15.5238 0.969758 0)
(15.5594 0.925642 0)
(15.598 0.879208 1.49577e-16)
(15.6392 0.831146 1.50488e-16)
(15.6828 0.781872 1.51462e-16)
(15.729 0.731304 0)
(15.7775 0.679329 -1.53639e-16)
(15.8285 0.625965 0)
(15.882 0.571186 -7.80412e-17)
(15.9378 0.514776 -7.86972e-17)
(15.9957 0.456941 -8.43525e-17)
(16.0556 0.397549 8.51285e-17)
(16.1174 0.336589 -4.04494e-17)
(16.1811 0.274054 0)
(16.247 0.209886 -8.25888e-17)
(16.3147 0.143939 2.08707e-17)
(16.384 0.0764247 1.05515e-17)
(16.455 0.00739747 5.3359e-18)
(16.5281 -0.0632083 5.39857e-18)
(16.6028 -0.135768 0)
(16.6789 -0.209955 2.21418e-17)
(16.7569 -0.285727 -5.60814e-18)
(16.837 -0.363272 -4.54633e-17)
(16.9188 -0.44278 9.79163e-17)
(17.0022 -0.523775 -8.75845e-17)
(17.0879 -0.606518 -1.24857e-22)
(17.1753 -0.691472 9.00809e-17)
(17.2645 -0.777967 9.7543e-17)
(17.3563 -0.866432 0)
(17.45 -0.957389 0)
(17.5458 -1.04981 1.08565e-16)
(17.6443 -1.14463 -1.10218e-16)
(17.745 -1.24179 1.05427e-16)
(17.8484 -1.34077 -1.13819e-16)
(17.9546 -1.44279 1.35821e-22)
(18.0632 -1.54664 6.92365e-18)
(18.175 -1.65365 -2.3217e-16)
(18.2894 -1.76324 -2.22213e-16)
(18.4071 -1.87551 -2.33224e-16)
(18.5278 -1.99131 7.42509e-18)
(18.6518 -2.1095 -2.49321e-16)
(18.7792 -2.23187 0)
(18.91 -2.35675 5.01436e-16)
(19.0445 -2.4864 -5.10575e-16)
(19.1825 -2.61894 2.68344e-16)
(19.3245 -2.75668 -8.2844e-18)
(19.4701 -2.89783 0)
(19.6198 -3.04463 2.76795e-23)
(19.7732 -3.19536 -2.89899e-16)
(19.9306 -3.35234 5.81989e-16)