/*--------------------------------*- C++ -*----------------------------------*\
  =========                 |
  \\      /  F ield         | OpenFOAM: The Open Source CFD Toolbox
   \\    /   O peration     | Website:  https://openfoam.org
    \\  /    A nd           | Version:  9
     \\/     M anipulation  |
\*---------------------------------------------------------------------------*/
FoamFile
{
    format      ascii;
    class       volScalarField;
    location    "0.0025";
    object      nuTilda;
}
// * * * * * * * * * * * * * * * * * * * * * * * * * * * * * * * * * * * * * //

dimensions      [0 2 -1 0 0 0 0];

internalField   nonuniform List<scalar> 
5373
(
2.3832e-05
2.17056e-05
7.41195e-05
7.19521e-05
8.69638e-05
0.000102684
2.05366e-05
2.45985e-05
2.61885e-05
2.67005e-05
2.8206e-05
2.90163e-05
2.88371e-05
2.79039e-05
2.6762e-05
2.51669e-05
2.30682e-05
2.06979e-05
1.84762e-05
1.6744e-05
1.54915e-05
1.44847e-05
1.35496e-05
1.29762e-05
1.24587e-05
1.17475e-05
7.08988e-05
7.7287e-05
8.06185e-05
8.44847e-05
8.77273e-05
8.99094e-05
9.05895e-05
8.99948e-05
8.81812e-05
8.47905e-05
7.91474e-05
7.27217e-05
6.64068e-05
6.01836e-05
5.41713e-05
4.84774e-05
4.3003e-05
3.80116e-05
3.34856e-05
2.91563e-05
9.0412e-05
9.29685e-05
9.7437e-05
0.000100617
0.000103437
0.000105586
0.000106865
0.000107356
0.000107176
0.000106173
0.000103931
9.99996e-05
9.42195e-05
8.79578e-05
8.12996e-05
7.43508e-05
6.72202e-05
5.98562e-05
5.24447e-05
4.50496e-05
0.000103808
0.000105782
0.000107553
0.000109977
0.00011177
0.0001132
0.000114137
0.000114594
0.000114661
0.000114243
0.000113317
0.000111645
0.00010853
0.000103534
9.77794e-05
9.13938e-05
8.43339e-05
7.6468e-05
6.80643e-05
5.9456e-05
0.000112823
0.000113862
0.000115047
0.000115925
0.000116857
0.000117381
0.000117617
0.000117599
0.000117348
0.000116878
0.000116208
0.000115286
0.000113749
0.000110832
0.000106387
0.000101248
9.52207e-05
8.80817e-05
7.99635e-05
7.11449e-05
0.000119797
0.000119545
0.000119743
0.000119753
0.000119531
0.000119219
0.000118615
0.000117925
0.000117153
0.000116374
0.000115588
0.000114751
0.000113649
0.000112001
0.000109184
0.000105631
0.000101026
9.52605e-05
8.81123e-05
7.98559e-05
0.000123193
0.000122183
0.000121208
0.000119984
0.000118714
0.000117452
0.000116158
0.000114878
0.00011369
0.000112641
0.000111738
0.000110851
0.000109726
0.000107914
0.000105587
0.00010264
9.8619e-05
9.29784e-05
8.59396e-05
0.000122062
0.000120132
0.000118311
0.000116328
0.000114363
0.000112391
0.000110494
0.000108804
0.000107372
0.000106165
0.000105222
0.000104517
0.000103773
0.000102755
0.000101219
9.87661e-05
9.49568e-05
8.95639e-05
0.000117271
0.000114618
0.000111973
0.000109305
0.000106599
0.000104132
0.000102084
0.000100446
9.92076e-05
9.84076e-05
9.79887e-05
9.78659e-05
9.78349e-05
9.75928e-05
9.66624e-05
9.45395e-05
9.0994e-05
0.000112427
0.000108891
0.000105731
0.000102889
0.000100316
9.80572e-05
9.61386e-05
9.45527e-05
9.32657e-05
9.23509e-05
9.19001e-05
9.18874e-05
9.21613e-05
9.26035e-05
9.28787e-05
9.22801e-05
9.07452e-05
0.000103054
0.000100044
9.74377e-05
9.52058e-05
9.33261e-05
9.16951e-05
9.02185e-05
8.88978e-05
8.78267e-05
8.71397e-05
8.67933e-05
8.68752e-05
8.74112e-05
8.81487e-05
8.86055e-05
8.87916e-05
9.80308e-05
9.56292e-05
9.3606e-05
9.1893e-05
9.04988e-05
8.92496e-05
8.80052e-05
8.66754e-05
8.5304e-05
8.40018e-05
8.30314e-05
8.25628e-05
8.26849e-05
8.32451e-05
8.40852e-05
8.50189e-05
9.29875e-05
9.17686e-05
9.0659e-05
8.9598e-05
8.85611e-05
8.74759e-05
8.61554e-05
8.45376e-05
8.24594e-05
8.06117e-05
7.92588e-05
7.84689e-05
7.84322e-05
7.9165e-05
8.03658e-05
9.02117e-05
8.92275e-05
8.81849e-05
8.70931e-05
8.59306e-05
8.46445e-05
8.31641e-05
8.12992e-05
7.90546e-05
7.61223e-05
7.42116e-05
7.34563e-05
7.38696e-05
7.50117e-05
8.77095e-05
8.6686e-05
8.56437e-05
8.45571e-05
8.33667e-05
8.20391e-05
8.0515e-05
7.83773e-05
7.51457e-05
7.1329e-05
6.88303e-05
6.77103e-05
6.79162e-05
6.88644e-05
8.43828e-05
8.33481e-05
8.22319e-05
8.10358e-05
7.95485e-05
7.77083e-05
7.54649e-05
7.25369e-05
6.82333e-05
6.44957e-05
6.20922e-05
6.09936e-05
6.09567e-05
6.1533e-05
7.78373e-05
7.62266e-05
7.45188e-05
7.26511e-05
7.04337e-05
6.7873e-05
6.48711e-05
6.1166e-05
5.7822e-05
5.53614e-05
5.37315e-05
5.27656e-05
5.26649e-05
6.87905e-05
6.72753e-05
6.58995e-05
6.47818e-05
6.32438e-05
6.15948e-05
5.97147e-05
5.73792e-05
5.46486e-05
4.99972e-05
4.54472e-05
4.28381e-05
4.16885e-05
5.78171e-05
5.6212e-05
5.61375e-05
5.44418e-05
5.26104e-05
5.05913e-05
4.82018e-05
4.52921e-05
3.97871e-05
3.31017e-05
2.94352e-05
2.7519e-05
1.38405e-05
1.3116e-05
1.95313e-05
2.07883e-05
2.09293e-05
2.06604e-05
2.02198e-05
1.95506e-05
1.16111e-05
1.00445e-05
1.04052e-05
9.43299e-06
1.157e-05
1.14611e-05
1.14087e-05
1.13688e-05
1.13637e-05
1.15154e-05
1.17251e-05
1.19514e-05
1.21862e-05
1.24364e-05
1.27071e-05
1.30181e-05
1.33287e-05
1.36876e-05
1.41702e-05
1.49435e-05
1.61716e-05
1.78328e-05
2.03102e-05
2.1377e-05
2.82667e-05
2.71704e-05
2.59746e-05
2.52437e-05
2.49037e-05
2.4639e-05
2.4342e-05
2.399e-05
2.35313e-05
2.29977e-05
2.24431e-05
2.19149e-05
2.14508e-05
2.1115e-05
2.10355e-05
2.14588e-05
2.27702e-05
2.47503e-05
2.79144e-05
3.12785e-05
4.29764e-05
4.09801e-05
3.9226e-05
3.76595e-05
3.62984e-05
3.48821e-05
3.34142e-05
3.19372e-05
3.0454e-05
2.89701e-05
2.74948e-05
2.60447e-05
2.46358e-05
2.32937e-05
2.20397e-05
2.11935e-05
2.2056e-05
2.31481e-05
2.53222e-05
2.72777e-05
5.71719e-05
5.47471e-05
5.23707e-05
5.00546e-05
4.78603e-05
4.5842e-05
4.40161e-05
4.21918e-05
4.03003e-05
3.83602e-05
3.63857e-05
3.43938e-05
3.23977e-05
3.04228e-05
2.84752e-05
2.66809e-05
2.52481e-05
2.4343e-05
2.40589e-05
2.51005e-05
6.88668e-05
6.64078e-05
6.38663e-05
6.12626e-05
5.86536e-05
5.6127e-05
5.37501e-05
5.15459e-05
4.94751e-05
4.73092e-05
4.50655e-05
4.27621e-05
4.04103e-05
3.80385e-05
3.56473e-05
3.33348e-05
3.10408e-05
2.92051e-05
2.74118e-05
2.79663e-05
7.75315e-05
7.51858e-05
7.2784e-05
7.02325e-05
6.75736e-05
6.48805e-05
6.22269e-05
5.96775e-05
5.72782e-05
5.5008e-05
5.26258e-05
5.01463e-05
4.75787e-05
4.49479e-05
4.22571e-05
3.95976e-05
3.68892e-05
3.45417e-05
3.20313e-05
3.22541e-05
8.37224e-05
8.14662e-05
7.91697e-05
7.68207e-05
7.43166e-05
7.17018e-05
6.90308e-05
6.63632e-05
6.37608e-05
6.127e-05
5.88398e-05
5.6277e-05
5.35862e-05
5.07876e-05
4.78886e-05
4.49758e-05
4.19944e-05
3.93173e-05
3.65019e-05
3.65604e-05
8.754e-05
8.54722e-05
8.33381e-05
8.11541e-05
7.89019e-05
7.65004e-05
7.39792e-05
7.13785e-05
6.87489e-05
6.61461e-05
6.36057e-05
6.1028e-05
5.82794e-05
5.53766e-05
5.2334e-05
4.92326e-05
4.6064e-05
4.31445e-05
4.03178e-05
4.04474e-05
8.91776e-05
8.73643e-05
8.54794e-05
8.35242e-05
8.14922e-05
7.93597e-05
7.70713e-05
7.46465e-05
7.21144e-05
6.95197e-05
6.69169e-05
6.43134e-05
6.1541e-05
5.85723e-05
5.543e-05
5.219e-05
4.89004e-05
4.57973e-05
4.3313e-05
4.23441e-05
8.91842e-05
8.75867e-05
8.5912e-05
8.41452e-05
8.23061e-05
8.03927e-05
7.83491e-05
7.61378e-05
7.37572e-05
7.12425e-05
6.86544e-05
6.59978e-05
6.32159e-05
6.02012e-05
5.69909e-05
5.36591e-05
5.03094e-05
4.70791e-05
4.4622e-05
4.18279e-05
8.73801e-05
8.59546e-05
8.45033e-05
8.29693e-05
8.13467e-05
7.96301e-05
7.78025e-05
7.57873e-05
7.35975e-05
7.12352e-05
6.87002e-05
6.60002e-05
6.31011e-05
6.00072e-05
5.67599e-05
5.33983e-05
5.00598e-05
4.67826e-05
4.41141e-05
4.05313e-05
8.3849e-05
8.26165e-05
8.13271e-05
7.99707e-05
7.85107e-05
7.69305e-05
7.52112e-05
7.33231e-05
7.12488e-05
6.89779e-05
6.6504e-05
6.38314e-05
6.09624e-05
5.79077e-05
5.47096e-05
5.14044e-05
4.81581e-05
4.4938e-05
4.23047e-05
3.82475e-05
7.91997e-05
7.7986e-05
7.67335e-05
7.54254e-05
7.40254e-05
7.25129e-05
7.08648e-05
6.90581e-05
6.70738e-05
6.48968e-05
6.25157e-05
5.9932e-05
5.71566e-05
5.42072e-05
5.11311e-05
4.79616e-05
4.48808e-05
4.18144e-05
3.93056e-05
3.51304e-05
7.37655e-05
7.24855e-05
7.11848e-05
6.98227e-05
6.83822e-05
6.68455e-05
6.51911e-05
6.33985e-05
6.14539e-05
5.93417e-05
5.70478e-05
5.45745e-05
5.19333e-05
4.91448e-05
4.62565e-05
4.32995e-05
4.04591e-05
3.76448e-05
3.53358e-05
3.14523e-05
6.74865e-05
6.60966e-05
6.46802e-05
6.32117e-05
6.16753e-05
6.00597e-05
5.83485e-05
5.65261e-05
5.4587e-05
5.25219e-05
5.03143e-05
4.79709e-05
4.55033e-05
4.29322e-05
4.03017e-05
3.76406e-05
3.51349e-05
3.26959e-05
3.07151e-05
2.76071e-05
6.00171e-05
5.85128e-05
5.69781e-05
5.53993e-05
5.37574e-05
5.20578e-05
5.02906e-05
4.84458e-05
4.65284e-05
4.45363e-05
4.24556e-05
4.02957e-05
3.80706e-05
3.58001e-05
3.35235e-05
3.12733e-05
2.92675e-05
2.74044e-05
2.60308e-05
2.41867e-05
5.09886e-05
4.93463e-05
4.77051e-05
4.60384e-05
4.43401e-05
4.26189e-05
4.08711e-05
3.909e-05
3.72918e-05
3.5479e-05
3.3647e-05
3.18026e-05
2.99642e-05
2.81502e-05
2.63972e-05
2.47713e-05
2.36929e-05
2.27899e-05
2.26933e-05
2.21486e-05
3.98951e-05
3.81455e-05
3.64312e-05
3.47602e-05
3.31369e-05
3.15758e-05
3.00719e-05
2.86101e-05
2.72036e-05
2.58589e-05
2.45759e-05
2.3361e-05
2.22315e-05
2.11968e-05
2.03068e-05
1.97866e-05
2.09904e-05
2.14799e-05
2.38566e-05
2.29393e-05
2.60381e-05
2.4459e-05
2.30212e-05
2.17133e-05
2.06704e-05
2.00692e-05
1.97103e-05
1.94808e-05
1.93206e-05
1.91967e-05
1.91099e-05
1.90747e-05
1.91295e-05
1.9324e-05
1.97197e-05
2.05365e-05
2.20678e-05
2.2652e-05
2.66525e-05
2.87113e-05
1.05703e-05
1.10058e-05
1.11147e-05
1.10487e-05
1.09014e-05
1.07611e-05
1.06834e-05
1.0699e-05
1.08123e-05
1.10343e-05
1.13674e-05
1.17692e-05
1.22681e-05
1.29135e-05
1.3726e-05
1.48264e-05
1.61296e-05
1.80909e-05
2.02699e-05
2.26081e-05
0.0140222
0.0140221
0.0140221
0.014022
0.0140219
0.0140219
0.0140218
0.0140217
0.0140217
0.0140133
0.0140133
0.0140133
0.0140133
0.0140133
0.0140134
0.0140134
0.0140134
0.0140134
0.0139947
0.0139946
0.0139945
0.0139944
0.0139942
0.0139941
0.013994
0.0139938
0.0139937
0.0139796
0.0139797
0.0139798
0.0139799
0.01398
0.0139801
0.0139802
0.0139803
0.0139804
0.0139592
0.0139593
0.0139595
0.0139596
0.0139598
0.0139599
0.0139601
0.0139602
0.0139604
0.0139304
0.0139305
0.0139307
0.0139308
0.013931
0.0139311
0.0139312
0.0139314
0.0139315
0.0138742
0.0138737
0.0138733
0.0138729
0.0138724
0.013872
0.0138716
0.0138712
0.0138708
0.0138362
0.0138356
0.013835
0.0138344
0.0138338
0.0138333
0.0138327
0.0138322
0.0138318
0.0137911
0.0137903
0.0137895
0.0137887
0.0137879
0.0137871
0.0137864
0.0137858
0.0137365
0.0137354
0.0137343
0.0137332
0.0137321
0.013731
0.01373
0.0137293
0.0136693
0.0136678
0.0136663
0.0136648
0.0136633
0.0136618
0.0136604
0.0136593
0.0135858
0.0135837
0.0135816
0.0135795
0.0135774
0.0135754
0.0135734
0.0135719
0.0134809
0.0134779
0.013475
0.013472
0.0134691
0.0134662
0.0134634
0.0134612
0.0133464
0.0133422
0.0133379
0.0133337
0.0133295
0.0133253
0.0133214
0.0133182
0.013168
0.0131617
0.0131555
0.0131493
0.0131432
0.0131371
0.0131313
0.0131264
0.0129204
0.012911
0.0129017
0.0128924
0.0128831
0.012874
0.0128655
0.0128585
0.0125632
0.01255
0.012537
0.0125242
0.0125116
0.0124995
0.0124884
0.0124798
0.0120859
0.0120739
0.0120628
0.0120526
0.0120436
0.0120359
0.0120297
0.0120263
0.0116916
0.0117027
0.0117147
0.0117271
0.0117391
0.0117514
0.0117648
0.0117785
0.0119179
0.0120051
0.0120957
0.0121875
0.0122798
0.0123712
0.0124598
0.0125392
0.0141388
0.0143553
0.0145726
0.0147902
0.0150082
0.0152246
0.015433
0.0156173
0.0191401
0.01953
0.0199101
0.0202786
0.0206323
0.0209648
0.0212642
0.0215073
0.0252945
0.0256898
0.026067
0.0264201
0.0267417
0.0270208
0.0272406
0.027374
0.029678
0.0299392
0.0301618
0.030347
0.0304946
0.0306023
0.0306666
0.0306824
0.031565
0.0316794
0.0317627
0.0318142
0.0318332
0.0318189
0.031771
0.0316897
0.0316893
0.0316942
0.0316694
0.031615
0.0315306
0.0314162
0.031272
0.0310981
0.0306032
0.0305184
0.030404
0.0302603
0.0300881
0.0298888
0.0296649
0.0294201
0.0286733
0.0285057
0.0283076
0.0280795
0.0278227
0.0275403
0.027236
0.0269159
0.0261457
0.0258897
0.0256009
0.0252796
0.0249288
0.0245553
0.0241593
0.0237437
0.0231892
0.0228276
0.0224337
0.0220032
0.0215476
0.0211442
0.0208119
0.0205245
0.0199855
0.0195289
0.0191214
0.0187656
0.018439
0.0181583
0.0179442
0.017806
0.0169876
0.0165941
0.0162689
0.015994
0.0157621
0.0155853
0.0154887
0.0154782
0.0145201
0.0141463
0.0138608
0.013636
0.0134661
0.0133649
0.013349
0.0134312
0.0126646
0.0122205
0.0119094
0.0116799
0.0115228
0.0114407
0.0114551
0.0115763
0.0113937
0.0109384
0.0105117
0.0101795
0.00996631
0.00982986
0.00980212
0.00989508
0.0104103
0.0100184
0.00963458
0.00927366
0.0089248
0.00861265
0.00847334
0.0084341
0.00957591
0.0092549
0.00892653
0.00859387
0.00825343
0.00791672
0.00760802
0.00729069
0.00880784
0.00855646
0.00828551
0.00799237
0.0076741
0.00733482
0.00697566
0.00657315
0.00804725
0.00786193
0.00764843
0.00739922
0.00710938
0.00677815
0.0063999
0.00596351
0.00727165
0.00714034
0.00697554
0.00676975
0.00651279
0.00619919
0.00582272
0.00536806
0.00646924
0.00638597
0.0062658
0.00609833
0.00587198
0.00557982
0.00521705
0.00477998
0.00563405
0.00559316
0.00551406
0.00538467
0.00519246
0.00493043
0.00459796
0.00419948
0.0047665
0.00476355
0.00472301
0.00463205
0.00447776
0.00425406
0.00396582
0.00362648
0.00386812
0.00389952
0.00389657
0.00384596
0.00373458
0.00355778
0.00332691
0.00306652
0.00293837
0.0029983
0.00303229
0.0030262
0.00296529
0.00284516
0.00268441
0.00252149
0.00199765
0.00205857
0.00211533
0.00215524
0.00215611
0.00210498
0.0020263
0.00198133
0.00124567
0.00128129
0.00131142
0.00132757
0.0013198
0.00129228
0.00128915
0.0014212
0.000683333
0.000702303
0.000718231
0.00072776
0.00072841
0.000727412
0.000752434
0.000851922
0.000302798
0.000318223
0.000347397
0.000393176
0.000438053
0.000465338
0.000505389
0.00056506
7.48833e-05
7.05992e-05
6.81182e-05
7.5646e-05
9.14203e-05
0.000130642
0.000175944
0.000240601
0.0140237
0.0140456
0.0140295
0.0139599
0.0139375
0.013914
0.0138839
0.01385
0.0138147
0.0137782
0.0137404
0.0137015
0.0136617
0.0136212
0.0135805
0.0135404
0.0135018
0.0134657
0.0134337
0.0134071
0.0133868
0.0133733
0.0133664
0.0133658
0.0133706
0.01338
0.0133931
0.013409
0.0134269
0.0134461
0.013466
0.0134863
0.0135064
0.0135262
0.0135454
0.0135637
0.0135811
0.0135974
0.0136126
0.0136266
0.0136395
0.0136513
0.0136621
0.0136718
0.0136807
0.0136886
0.0136958
0.0137023
0.0137081
0.0137133
0.0140205
0.0140428
0.0140336
0.0139561
0.013939
0.0139139
0.0138803
0.0138418
0.0138023
0.0137615
0.0137189
0.0136745
0.0136283
0.0135806
0.013532
0.0134833
0.0134364
0.0133935
0.0133572
0.0133302
0.0133143
0.0133105
0.0133188
0.013338
0.0133665
0.0134025
0.0134441
0.0134894
0.013537
0.0135856
0.0136339
0.0136813
0.013727
0.0137707
0.0138119
0.0138507
0.0138868
0.0139202
0.0139511
0.0139794
0.0140053
0.0140289
0.0140503
0.0140698
0.0140873
0.0141031
0.0141174
0.0141303
0.0141419
0.0141524
0.0140187
0.0140422
0.0140299
0.0139556
0.0139416
0.0139149
0.0138752
0.0138322
0.0137891
0.0137442
0.0136968
0.0136466
0.0135936
0.013538
0.0134804
0.013422
0.0133655
0.013315
0.0132756
0.0132524
0.0132495
0.0132687
0.0133096
0.0133703
0.0134471
0.0135361
0.0136338
0.0137367
0.0138414
0.0139451
0.0140461
0.0141428
0.0142345
0.0143205
0.0144006
0.0144746
0.0145427
0.014605
0.0146618
0.0147134
0.0147601
0.0148024
0.0148404
0.0148747
0.0149055
0.0149332
0.0149581
0.0149805
0.0150006
0.0150186
0.0140207
0.0140425
0.0140275
0.0139559
0.0139449
0.0139166
0.01387
0.0138231
0.0137769
0.0137282
0.0136762
0.0136203
0.0135604
0.0134965
0.0134291
0.01336
0.0132931
0.0132354
0.0131962
0.013185
0.0132096
0.0132732
0.0133747
0.0135113
0.013675
0.0138581
0.0140527
0.014252
0.0144503
0.0146431
0.0148273
0.0150007
0.0151621
0.0153109
0.0154472
0.0155713
0.0156838
0.0157852
0.0158765
0.0159584
0.0160317
0.0160973
0.0161558
0.016208
0.0162546
0.0162961
0.0163332
0.0163662
0.0163957
0.0164221
0.0140205
0.0140455
0.014024
0.0139568
0.0139488
0.0139189
0.0138652
0.0138149
0.0137661
0.0137139
0.0136574
0.0135959
0.013529
0.0134566
0.0133789
0.0132982
0.0132201
0.0131558
0.0131212
0.013134
0.0132075
0.0133485
0.0135527
0.0138097
0.0141064
0.0144284
0.0147625
0.0150969
0.0154226
0.0157332
0.0160243
0.0162934
0.0165396
0.0167629
0.0169642
0.0171447
0.0173059
0.0174494
0.0175769
0.0176898
0.0177897
0.017878
0.017956
0.0180248
0.0180856
0.0181392
0.0181866
0.0182285
0.0182654
0.0182982
0.0140195
0.0140454
0.0140206
0.0139582
0.0139529
0.0139215
0.013861
0.0138078
0.0137567
0.0137013
0.0136407
0.0135739
0.0135003
0.0134194
0.0133312
0.0132382
0.0131481
0.0130781
0.0130547
0.013108
0.0132612
0.013518
0.0138689
0.0142942
0.0147697
0.0152709
0.0157769
0.0162709
0.0167412
0.0171801
0.0175833
0.0179494
0.0182786
0.0185725
0.0188334
0.0190639
0.0192669
0.0194452
0.0196015
0.0197383
0.0198579
0.0199624
0.0200535
0.020133
0.0202024
0.0202628
0.0203154
0.0203612
0.0204011
0.0204358
0.0140184
0.0140446
0.0140171
0.0139599
0.0139572
0.0139246
0.013858
0.0138021
0.013749
0.0136907
0.0136265
0.013555
0.0134753
0.0133867
0.0132885
0.013183
0.0130803
0.0130053
0.0129997
0.013112
0.0133757
0.0137903
0.0143342
0.0149695
0.0156546
0.016353
0.0170362
0.0176848
0.018287
0.0188367
0.0193319
0.0197735
0.0201644
0.0205082
0.0208091
0.0210716
0.0212998
0.0214979
0.0216694
0.0218176
0.0219455
0.0220558
0.0221507
0.0222323
0.0223023
0.0223622
0.0224134
0.022457
0.022494
0.0225252
0.0140175
0.0140433
0.0140137
0.0139619
0.0139613
0.0139278
0.0138565
0.0137979
0.0137431
0.0136828
0.013616
0.0135412
0.0134566
0.0133604
0.0132516
0.0131322
0.0130153
0.0129348
0.0129529
0.0131463
0.0135523
0.0141662
0.0149403
0.0158078
0.0167054
0.0175851
0.0184159
0.0191809
0.0198728
0.0204905
0.0210367
0.0215161
0.0219344
0.0222977
0.022612
0.022883
0.0231161
0.023316
0.0234871
0.0236331
0.0237574
0.0238629
0.0239522
0.0240275
0.0240905
0.0241431
0.0241866
0.0242223
0.0242511
0.024274
0.0140168
0.0140416
0.0140105
0.0139639
0.0139652
0.013931
0.0138559
0.0137957
0.0137396
0.0136787
0.0136103
0.013532
0.0134418
0.0133377
0.0132181
0.0130846
0.0129522
0.0128656
0.0129122
0.0132028
0.0137846
0.014633
0.0156585
0.0167551
0.0178371
0.0188512
0.0197714
0.0205905
0.0213108
0.0219396
0.0224858
0.0229583
0.0233658
0.023716
0.0240162
0.0242726
0.024491
0.0246764
0.0248331
0.0249651
0.0250757
0.0251678
0.025244
0.0253063
0.0253568
0.0253969
0.0254282
0.0254517
0.0254686
0.0254796
0.0140164
0.0140396
0.0140075
0.0139659
0.0139677
0.0139342
0.0138556
0.0137955
0.013739
0.0136776
0.013607
0.0135251
0.0134297
0.0133183
0.0131884
0.0130406
0.0128918
0.0127975
0.0128755
0.0132782
0.0140626
0.0151692
0.0164485
0.0177483
0.0189644
0.0200468
0.020984
0.021785
0.0224663
0.0230459
0.0235397
0.023961
0.0243205
0.024627
0.024888
0.0251093
0.0252961
0.0254532
0.0255844
0.0256932
0.0257825
0.025855
0.0259128
0.0259579
0.025992
0.0260165
0.0260328
0.0260418
0.0260446
0.026042
0.0140165
0.0140375
0.0140048
0.0139681
0.0139694
0.0139373
0.0138557
0.0137963
0.01374
0.0136778
0.0136053
0.0135203
0.0134203
0.0133022
0.0131625
0.0130008
0.0128346
0.0127303
0.0128399
0.0133637
0.0143699
0.0157469
0.0172684
0.0187326
0.020024
0.0211055
0.0219875
0.0227007
0.0232791
0.0237527
0.0241453
0.024474
0.0247515
0.0249868
0.0251864
0.0253555
0.0254979
0.0256168
0.0257152
0.0257956
0.0258602
0.0259109
0.0259493
0.0259767
0.0259947
0.0260041
0.0260061
0.0260016
0.0259914
0.0259762
0.0140176
0.0140354
0.0140025
0.0139702
0.0139703
0.0139403
0.013856
0.0137978
0.0137418
0.013679
0.013605
0.0135174
0.0134133
0.0132893
0.0131406
0.0129655
0.0127814
0.0126641
0.0128031
0.013449
0.0146877
0.0163382
0.0180831
0.019671
0.0209831
0.0220031
0.0227689
0.0233358
0.0237572
0.0240766
0.0243256
0.0245265
0.0246935
0.0248356
0.0249575
0.0250618
0.0251507
0.0252254
0.025287
0.0253365
0.0253747
0.0254025
0.0254208
0.0254305
0.0254332
0.0254281
0.0254168
0.0253999
0.0253781
0.025352
0.0140187
0.0140332
0.0140005
0.0139722
0.0139708
0.0139427
0.0138564
0.0137996
0.0137441
0.0136809
0.0136058
0.0135161
0.0134087
0.0132794
0.0131225
0.0129348
0.0127328
0.012599
0.0127585
0.0135232
0.0149982
0.0169194
0.0188677
0.0205447
0.0218348
0.0227486
0.023354
0.0237327
0.023958
0.0240874
0.024162
0.0242075
0.0242391
0.0242653
0.0242897
0.0243133
0.0243358
0.0243561
0.0243733
0.0243865
0.0243962
0.0244019
0.0244037
0.0243978
0.0243851
0.0243672
0.0243446
0.0243176
0.0242864
0.0242513
0.0140196
0.0140311
0.0139988
0.0139741
0.0139709
0.0139435
0.0138569
0.0138017
0.0137467
0.0136834
0.0136074
0.0135161
0.013406
0.0132722
0.0131081
0.0129088
0.0126891
0.0125359
0.0127046
0.0135791
0.015287
0.0174727
0.0196071
0.0213474
0.0225876
0.023368
0.0237882
0.0239549
0.0239601
0.0238748
0.0237468
0.0236082
0.0234769
0.0233618
0.0232656
0.0231877
0.0231255
0.0230757
0.0230352
0.023001
0.0229707
0.0229422
0.0229139
0.0228848
0.0228541
0.0228214
0.0227863
0.0227485
0.0227079
0.0226645
0.01402
0.0140291
0.0139975
0.0139758
0.0139708
0.0139435
0.0138576
0.013804
0.0137495
0.0136862
0.0136098
0.0135173
0.013405
0.0132675
0.0130971
0.0128872
0.0126506
0.012476
0.0126423
0.0136122
0.0155439
0.0179854
0.0202924
0.0220801
0.0232557
0.0238925
0.0241222
0.024073
0.0238596
0.0235622
0.0232354
0.0229134
0.0226148
0.0223486
0.0221177
0.0219216
0.0217595
0.0216241
0.0215103
0.0214138
0.0213321
0.0212605
0.0211962
0.0211369
0.0210811
0.0210276
0.0209757
0.0209245
0.0208738
0.0208231
0.01402
0.0140271
0.0139964
0.0139774
0.0139705
0.0139433
0.0138584
0.0138062
0.0137524
0.0136893
0.0136126
0.0135193
0.0134053
0.0132648
0.0130891
0.0128698
0.0126174
0.0124203
0.0125729
0.0136208
0.0157629
0.0184498
0.0209196
0.0227463
0.0238521
0.0243447
0.0243881
0.0241408
0.023734
0.0232593
0.0227778
0.0223237
0.0219076
0.0215288
0.0211876
0.0208837
0.0206157
0.020381
0.0201765
0.0199986
0.0198438
0.0197085
0.0195898
0.0194848
0.0193911
0.0193067
0.0192301
0.0191598
0.0190947
0.0190341
0.0140201
0.0140253
0.0139956
0.0139789
0.0139701
0.0139429
0.0138592
0.0138085
0.0137553
0.0136925
0.0136157
0.013522
0.0134068
0.0132639
0.0130837
0.0128561
0.0125891
0.0123697
0.0124988
0.0136066
0.0159425
0.0188626
0.021489
0.0233525
0.0243899
0.0247445
0.0246082
0.0241778
0.0236005
0.0229781
0.0223994
0.0218414
0.0213094
0.0208099
0.0203483
0.0199281
0.0195503
0.0192141
0.0189172
0.0186567
0.0184288
0.01823
0.0180565
0.017905
0.0177725
0.0176561
0.0175536
0.0174629
0.0173824
0.0173106
0.0140201
0.0140236
0.0139949
0.0139803
0.0139696
0.0139423
0.0138601
0.0138107
0.0137582
0.0136957
0.013619
0.0135251
0.013409
0.0132644
0.0130804
0.0128457
0.0125654
0.0123246
0.0124229
0.0135727
0.0160839
0.019225
0.0220045
0.023907
0.0248795
0.0250994
0.024797
0.0242034
0.0234912
0.0227821
0.0220819
0.0213944
0.02073
0.0200999
0.0195131
0.0189752
0.018489
0.0180544
0.0176695
0.0173311
0.0170352
0.0167776
0.016554
0.0163602
0.0161923
0.0160471
0.0159213
0.0158124
0.015718
0.0156362
0.0140201
0.014022
0.0139943
0.0139815
0.013969
0.0139417
0.0138609
0.0138128
0.0137609
0.0136988
0.0136224
0.0135284
0.0134119
0.0132659
0.013079
0.0128381
0.0125458
0.0122854
0.012356
0.0135305
0.0161919
0.0195411
0.0224728
0.0244202
0.0253349
0.025422
0.0249582
0.0242086
0.023379
0.0225553
0.0217278
0.0209068
0.0201088
0.01935
0.0186426
0.0179945
0.0174093
0.0168873
0.0164261
0.016022
0.0156701
0.0153652
0.0151021
0.0148757
0.0146813
0.0145147
0.0143722
0.0142505
0.0141466
0.0140581
0.0140201
0.0140206
0.0139938
0.0139826
0.0139684
0.013941
0.0138618
0.0138148
0.0137634
0.0137017
0.0136257
0.0135319
0.0134151
0.0132682
0.013079
0.0128328
0.0125299
0.0122515
0.0122952
0.0134808
0.0162711
0.0198169
0.0229007
0.0249017
0.0257722
0.0257272
0.0251012
0.0241888
0.0232517
0.0223057
0.0213461
0.0203891
0.0194575
0.0185752
0.0177561
0.0170091
0.016338
0.0157427
0.0152202
0.0147654
0.0143722
0.0140342
0.0137448
0.013498
0.013288
0.0131098
0.0129589
0.0128314
0.0127239
0.0126336
0.0140201
0.0140193
0.0139935
0.0139835
0.0139678
0.0139404
0.0138626
0.0138166
0.0137657
0.0137045
0.0136288
0.0135353
0.0134186
0.013271
0.01308
0.0128295
0.012517
0.0122226
0.0122389
0.0134242
0.0163254
0.0200575
0.0232932
0.0253556
0.0261912
0.0260388
0.0252425
0.0241299
0.0231051
0.0220389
0.020951
0.0198687
0.0188185
0.0178246
0.0169052
0.0160715
0.015328
0.0146742
0.0141059
0.0136164
0.0131979
0.0128421
0.012541
0.0122871
0.0120736
0.0118945
0.0117446
0.0116195
0.0115153
0.0114288
0.0140201
0.0140181
0.0139932
0.0139838
0.0139672
0.0139397
0.0138633
0.0138182
0.0137679
0.0137071
0.0136319
0.0135387
0.0134221
0.0132742
0.0130818
0.0128278
0.0125069
0.0121978
0.0121878
0.0133641
0.0163598
0.0202694
0.0236563
0.025789
0.0266067
0.0263646
0.0254332
0.0241773
0.0230236
0.0218307
0.0206178
0.0194109
0.0182424
0.0171414
0.0161294
0.0152193
0.0144159
0.0137177
0.0131186
0.0126098
0.0121812
0.0118224
0.0115233
0.011275
0.0110694
0.0108994
0.0107593
0.0106441
0.0105496
0.0104724
0.0140202
0.014017
0.013993
0.0139838
0.0139666
0.013939
0.013864
0.0138198
0.0137699
0.0137095
0.0136347
0.0135419
0.0134255
0.0132775
0.0130841
0.0128272
0.0124989
0.0121766
0.0121423
0.0133029
0.0163783
0.0204578
0.0239941
0.0262031
0.0270159
0.0267003
0.0256558
0.0242952
0.022991
0.0216728
0.0203393
0.0190171
0.0177418
0.0165463
0.0154548
0.0144819
0.0136325
0.0129038
0.0122877
0.011773
0.0113468
0.0109963
0.0107095
0.0104757
0.0102855
0.0101311
0.010006
0.00990497
0.00982358
0.00975834
0.0140202
0.0140161
0.0139928
0.0139837
0.013966
0.0139383
0.0138647
0.0138212
0.0137717
0.0137117
0.0136373
0.013545
0.0134289
0.0132809
0.0130868
0.0128276
0.0124926
0.0121591
0.012102
0.0132427
0.0163846
0.0206277
0.0243098
0.0265977
0.0274147
0.0270355
0.0258732
0.024369
0.0229601
0.0215451
0.0201165
0.0187016
0.0173391
0.0160657
0.0149091
0.0138856
0.0130009
0.0122512
0.0116267
0.0111134
0.0106959
0.010359
0.0100885
0.00987214
0.00969953
0.00956207
0.00945282
0.00936623
0.00929787
0.00924424
0.0140202
0.0140154
0.0139927
0.0139835
0.0139654
0.0139377
0.0138653
0.0138224
0.0137733
0.0137137
0.0136398
0.0135478
0.0134321
0.0132843
0.0130897
0.0128286
0.0124878
0.0121444
0.0120664
0.0131863
0.0163814
0.020784
0.0246084
0.0269757
0.0278041
0.0273727
0.0260952
0.024421
0.022956
0.0214756
0.0199775
0.018491
0.0170584
0.0157204
0.0145083
0.0134411
0.0125254
0.0117573
0.0111255
0.0106137
0.0102043
0.00987961
0.00962365
0.00942266
0.00926525
0.00914221
0.00904624
0.00897164
0.00891393
0.00886967
0.0140203
0.0140149
0.0139926
0.0139834
0.0139649
0.0139371
0.0138659
0.0138235
0.0137748
0.0137156
0.013642
0.0135504
0.0134351
0.0132875
0.0130927
0.01283
0.0124843
0.0121302
0.0120356
0.0131342
0.0163709
0.020928
0.0248908
0.0273372
0.0281838
0.0277146
0.0263403
0.0245074
0.0230055
0.021486
0.0199383
0.0183958
0.0169062
0.015513
0.0142508
0.0131415
0.0121934
0.0114033
0.0107591
0.0102431
0.00983565
0.00951712
0.00926986
0.0090788
0.00893158
0.00881841
0.00873164
0.00866537
0.00861508
0.00857732
0.0140204
0.0140145
0.0139925
0.0139832
0.0139645
0.0139366
0.0138664
0.0138245
0.0137761
0.0137172
0.013644
0.0135529
0.0134379
0.0132906
0.0130957
0.0128317
0.0124816
0.0121176
0.0120091
0.0130857
0.0163539
0.0210602
0.0251573
0.0276805
0.0285503
0.0280577
0.0266125
0.0246615
0.0231105
0.0215571
0.0199788
0.0184017
0.0168689
0.0154284
0.0141196
0.0129675
0.0119826
0.0111634
0.0104979
0.00996831
0.0095535
0.00923248
0.00898611
0.00879807
0.00865507
0.00854663
0.00846464
0.00840295
0.00835687
0.00832287
0.0140204
0.0140142
0.0139925
0.013983
0.013964
0.0139361
0.0138669
0.0138254
0.0137773
0.0137187
0.0136458
0.013555
0.0134405
0.0132935
0.0130985
0.0128336
0.0124797
0.0121078
0.0119865
0.0130391
0.016331
0.0211811
0.0254079
0.0280044
0.0288993
0.0283932
0.0268973
0.0248528
0.0232476
0.0216651
0.0200655
0.0184673
0.0169103
0.0154386
0.0140905
0.0128954
0.0118692
0.0110128
0.0103162
0.00976205
0.00932925
0.00899592
0.00874178
0.00854936
0.00840435
0.00829545
0.00821397
0.00815332
0.00810855
0.00807593
0.0140206
0.0140139
0.0139925
0.0139828
0.0139636
0.0139356
0.0138673
0.0138262
0.0137784
0.01372
0.0136474
0.013557
0.0134429
0.0132962
0.0131013
0.0128356
0.0124784
0.0120993
0.011967
0.0129944
0.0163029
0.0212902
0.0256422
0.0283072
0.0292263
0.0287129
0.0271804
0.0250575
0.023397
0.0217845
0.0201736
0.0185678
0.016999
0.0155078
0.0141319
0.0129008
0.0118318
0.0109318
0.0101948
0.00960562
0.009144
0.00878818
0.00851723
0.00831269
0.00815923
0.00804461
0.00795938
0.00789635
0.00785012
0.00781666
0.0140207
0.0140137
0.0139925
0.0139826
0.0139633
0.0139351
0.0138677
0.0138269
0.0137793
0.0137211
0.0136489
0.0135588
0.013445
0.0132986
0.0131038
0.0128376
0.0124776
0.0120921
0.0119504
0.0129521
0.0162705
0.0213867
0.025859
0.0285873
0.0295281
0.0290106
0.0274529
0.0252739
0.023518
0.0218797
0.0202738
0.0186765
0.0171104
0.0156123
0.0142178
0.0129568
0.0118493
0.010904
0.0101205
0.00948751
0.00898727
0.00859913
0.00830226
0.00807764
0.00790898
0.00778308
0.00768955
0.00762045
0.00756979
0.00753307
0.0140208
0.0140136
0.0139925
0.0139824
0.0139629
0.0139347
0.013868
0.0138276
0.0137801
0.0137222
0.0136502
0.0135604
0.0134469
0.0133009
0.0131062
0.0128395
0.0124771
0.0120857
0.0119359
0.0129122
0.0162348
0.0214695
0.0260574
0.0288438
0.0298029
0.0292817
0.0277094
0.0255169
0.0235747
0.0219297
0.020344
0.0187708
0.0172219
0.015729
0.0143268
0.0130444
0.0119033
0.0109156
0.0100833
0.00940098
0.00885443
0.00842531
0.00809391
0.00784125
0.00765045
0.00750739
0.00740073
0.00732165
0.0072634
0.00722091
0.0140209
0.0140135
0.0139926
0.0139822
0.0139626
0.0139344
0.0138683
0.0138281
0.0137809
0.0137231
0.0136514
0.0135619
0.0134487
0.0133029
0.0131084
0.0128414
0.0124768
0.01208
0.0119234
0.012875
0.0161968
0.0215384
0.0262369
0.0290762
0.0300499
0.0295235
0.0279344
0.0257069
0.0235126
0.0219392
0.0203812
0.0188368
0.0173138
0.0158368
0.0144368
0.0131427
0.0119762
0.0109511
0.010073
0.0093402
0.00874303
0.00826666
0.0078935
0.00760549
0.00738574
0.0072195
0.00709457
0.00700121
0.00693185
0.00688069
0.014021
0.0140134
0.0139926
0.0139821
0.0139624
0.013934
0.0138686
0.0138286
0.0137815
0.0137239
0.0136524
0.0135631
0.0134503
0.0133048
0.0131105
0.0128432
0.0124767
0.0120749
0.0119125
0.0128405
0.0161575
0.021594
0.0263981
0.0292854
0.0302697
0.0297363
0.0281274
0.0258571
0.0235145
0.0219317
0.0203897
0.018869
0.0173723
0.0159169
0.0145285
0.0132319
0.0120492
0.0109951
0.0100775
0.00929731
0.00864933
0.00812272
0.00770301
0.00737397
0.00711941
0.00692448
0.00677636
0.00666448