/*--------------------------------*- C++ -*----------------------------------*\
  =========                 |
  \\      /  F ield         | OpenFOAM: The Open Source CFD Toolbox
   \\    /   O peration     | Website:  https://openfoam.org
    \\  /    A nd           | Version:  9
     \\/     M anipulation  |
\*---------------------------------------------------------------------------*/
FoamFile
{
    format      ascii;
    class       volScalarField;
    location    "0.0025";
    object      nuTilda;
}
// * * * * * * * * * * * * * * * * * * * * * * * * * * * * * * * * * * * * * //

dimensions      [0 2 -1 0 0 0 0];

internalField   nonuniform List<scalar> 
5057
(
0.000856436
0.00014569
6.66655e-05
4.36939e-05
3.34183e-05
2.77022e-05
2.52813e-05
2.50037e-05
2.43354e-05
2.32324e-05
2.70891e-05
3.10456e-05
2.18841e-05
3.23213e-05
3.30529e-05
0.00241908
0.000666588
0.000337604
0.000225849
0.000173234
0.00014294
0.000130986
0.000130875
0.000126262
0.000118019
0.00010982
0.000102648
9.48468e-05
9.04494e-05
8.69596e-05
0.00379753
0.00123622
0.000639471
0.000417629
0.000308908
0.000244145
0.000201121
0.000180995
0.000163244
0.000146491
0.000132034
0.00012029
0.000111753
0.00010493
0.000101694
0.00500224
0.00183806
0.0009523
0.00061153
0.000441145
0.00033818
0.000266482
0.00021871
0.000185223
0.000160441
0.000141792
0.000128634
0.0001232
0.000119268
0.000116244
0.00602638
0.00241053
0.00125406
0.000795021
0.000561255
0.000417601
0.000324515
0.000262658
0.000220449
0.000190675
0.000168893
0.000152641
0.000143915
0.000136365
0.000129367
0.00685517
0.00291128
0.00152666
0.000956949
0.000661686
0.000488689
0.000379855
0.000308282
0.000259593
0.000224896
0.000198748
0.00017739
0.000160841
0.000147865
0.000137644
0.00746197
0.0033031
0.00175193
0.00108483
0.000744638
0.000549452
0.000427997
0.000348091
0.00029334
0.000253297
0.000221814
0.000196786
0.000177082
0.000161529
0.000149061
0.00779517
0.00352756
0.00187111
0.0011478
0.00078575
0.00058076
0.0004532
0.000368371
0.000309629
0.00026598
0.000232322
0.000206093
0.000185363
0.000168349
0.000154302
0.00768311
0.00345578
0.00183594
0.00112371
0.00076772
0.000568003
0.000443313
0.000359915
0.000301866
0.000259499
0.000226527
0.00020082
0.000180505
0.000164139
0.000150446
0.00734706
0.00325228
0.00173113
0.00105852
0.000720753
0.00053184
0.00041616
0.000337901
0.000282806
0.000242614
0.000212224
0.000188524
0.000169692
0.000154715
0.000141499
0.00674845
0.002908
0.00156144
0.000958817
0.000649327
0.000475981
0.000370705
0.000301977
0.000253833
0.000217023
0.000189126
0.000167515
0.000150719
0.000137182
0.000126233
0.00588981
0.002403
0.0012962
0.000813414
0.00055175
0.000400784
0.000308113
0.000248602
0.000208683
0.000180113
0.000158895
0.000140616
0.000125661
0.000115299
0.000109575
0.00474352
0.00174975
0.000943215
0.000604886
0.000426485
0.000315265
0.000240528
0.000190927
0.000158001
0.000134696
0.000117954
0.000105292
9.57429e-05
9.11723e-05
8.36052e-05
0.00324282
0.00102555
0.000536893
0.000352677
0.00025954
0.000202363
0.000163306
0.000138253
0.000125843
0.000110737
9.70177e-05
8.52902e-05
7.56489e-05
6.63664e-05
6.80456e-05
0.00126107
0.000244422
0.000112564
7.19216e-05
5.26883e-05
4.12811e-05
3.36099e-05
2.84964e-05
2.56664e-05
2.30896e-05
2.11448e-05
2.04947e-05
2.80325e-05
3.04628e-05
3.22663e-05
3.33714e-05
3.75183e-05
3.89768e-05
3.86597e-05
3.80826e-05
3.57255e-05
3.16335e-05
2.84299e-05
2.6176e-05
2.4299e-05
2.26426e-05
2.09907e-05
1.92773e-05
1.78098e-05
1.65951e-05
8.68189e-05
8.98513e-05
9.27929e-05
9.46431e-05
9.52063e-05
9.43248e-05
9.16832e-05
8.30524e-05
7.4499e-05
6.68051e-05
5.96763e-05
5.29801e-05
4.69529e-05
4.15426e-05
3.65386e-05
0.000103497
0.000106267
0.000108519
0.000110373
0.00011137
0.000111216
0.000109728
0.000106004
9.95181e-05
9.27374e-05
8.55515e-05
7.80983e-05
7.03299e-05
6.2388e-05
5.43972e-05
0.00011651
0.000116764
0.000117989
0.000118628
0.000118816
0.000118363
0.000117175
0.000114692
0.000110296
0.000105343
9.96927e-05
9.33203e-05
8.59958e-05
7.79256e-05
6.94453e-05
0.00012614
0.000125463
0.000124304
0.000123545
0.000122583
0.000121262
0.00011942
0.000116944
0.000113776
0.0001103
0.000106202
0.000101263
9.53222e-05
8.83248e-05
8.04837e-05
0.000133814
0.000130832
0.00012815
0.000125745
0.000123046
0.000120439
0.000117773
0.000115015
0.000112429
0.00010978
0.000106937
0.000103608
9.94222e-05
9.39609e-05
8.73687e-05
0.00014166
0.000135245
0.000129906
0.000124899
0.00012052
0.000116563
0.000113045
0.000110027
0.00010754
0.00010542
0.000103484
0.000101529
9.89559e-05
9.53966e-05
9.05837e-05
0.000143955
0.000135156
0.00012773
0.000121267
0.00011568
0.000110785
0.000106618
0.000103185
0.000100405
9.82892e-05
9.67735e-05
9.56846e-05
9.455e-05
9.29452e-05
9.02716e-05
0.000139333
0.000129744
0.000121527
0.000114401
0.000108193
0.00010282
9.82771e-05
9.45407e-05
9.1599e-05
8.95033e-05
8.82157e-05
8.75091e-05
8.718e-05
8.69469e-05
8.62937e-05
0.000129933
0.000119937
0.000111361
0.000104108
9.80208e-05
9.2926e-05
8.86611e-05
8.50636e-05
8.21532e-05
8.00445e-05
7.86055e-05
7.79191e-05
7.79652e-05
7.86079e-05
7.92858e-05
0.000115559
0.000106424
9.89368e-05
9.28707e-05
8.79403e-05
8.38288e-05
8.02231e-05
7.65334e-05
7.31255e-05
7.04567e-05
6.86517e-05
6.779e-05
6.79061e-05
6.89386e-05
7.02421e-05
9.96839e-05
9.24853e-05
8.75407e-05
8.39169e-05
8.08993e-05
7.79812e-05
7.4581e-05
6.99489e-05
6.56957e-05
6.24148e-05
6.01109e-05
5.87271e-05
5.83592e-05
5.8829e-05
5.97452e-05
7.71734e-05
7.58278e-05
7.5292e-05
7.47038e-05
7.38152e-05
7.2487e-05
7.03762e-05
6.76723e-05
6.42538e-05
6.06612e-05
5.69916e-05
5.31624e-05
5.01444e-05
4.84794e-05
4.79259e-05
6.85219e-05
6.86339e-05
6.8949e-05
6.87028e-05
6.79522e-05
6.66987e-05
6.33047e-05
6.07055e-05
5.75049e-05
5.38731e-05
4.9931e-05
4.5565e-05
3.92316e-05
3.558e-05
3.32077e-05
3.46561e-05
3.45613e-05
3.36976e-05
3.25685e-05
3.13738e-05
2.97166e-05
1.67798e-05
1.54862e-05
1.51445e-05
1.46697e-05
1.4086e-05
1.34949e-05
1.2667e-05
1.64171e-05
1.28464e-05
1.64251e-05
1.59533e-05
1.55592e-05
1.5262e-05
1.51697e-05
1.52417e-05
1.53742e-05
1.55615e-05
1.56028e-05
1.56938e-05
1.62844e-05
1.72836e-05
3.52829e-05
3.34758e-05
3.15471e-05
2.98597e-05
2.9102e-05
2.85529e-05
2.80052e-05
2.74027e-05
2.66294e-05
2.57269e-05
2.52434e-05
2.53166e-05
5.17254e-05
4.91167e-05
4.68384e-05
4.4797e-05
4.25288e-05
4.02042e-05
3.78545e-05
3.54986e-05
3.31443e-05
3.07777e-05
2.8581e-05
2.65074e-05
6.65853e-05
6.34937e-05
6.04517e-05
5.75478e-05
5.48483e-05
5.22093e-05
4.93864e-05
4.64158e-05
4.33371e-05
4.01454e-05
3.69919e-05
3.37147e-05
7.77447e-05
7.47112e-05
7.15158e-05
6.82552e-05
6.50528e-05
6.20223e-05
5.90561e-05
5.58542e-05
5.24439e-05
4.8822e-05
4.51105e-05
4.12128e-05
8.47222e-05
8.20035e-05
7.90381e-05
7.58779e-05
7.26055e-05
6.93432e-05
6.61786e-05
6.2937e-05
5.93986e-05
5.55595e-05
5.15074e-05
4.72256e-05
8.80818e-05
8.55719e-05
8.29772e-05
8.01469e-05
7.70989e-05
7.39043e-05
7.0655e-05
6.73925e-05
6.38253e-05
5.98838e-05
5.56252e-05
5.11193e-05
8.81203e-05
8.58923e-05
8.35623e-05
8.10634e-05
7.83218e-05
7.53472e-05
7.21787e-05
6.88669e-05
6.5313e-05
6.13353e-05
5.69817e-05
5.24029e-05
8.4441e-05
8.254e-05
8.0519e-05
7.83073e-05
7.58617e-05
7.31406e-05
7.01191e-05
6.67993e-05
6.31741e-05
5.92189e-05
5.49294e-05
5.04767e-05
7.75478e-05
7.57893e-05
7.39294e-05
7.19098e-05
6.96842e-05
6.72058e-05
6.4432e-05
6.13313e-05
5.79008e-05
5.41612e-05
5.01256e-05
4.59833e-05
6.85809e-05
6.68542e-05
6.50444e-05
6.30969e-05
6.09731e-05
5.86424e-05
5.60721e-05
5.32297e-05
5.01074e-05
4.67363e-05
4.31463e-05
3.95161e-05
5.80133e-05
5.62369e-05
5.43862e-05
5.24152e-05
5.03062e-05
4.80577e-05
4.56627e-05
4.31145e-05
4.04108e-05
3.75851e-05
3.46866e-05
3.18572e-05
4.594e-05
4.39555e-05
4.1957e-05
3.99194e-05
3.78502e-05
3.57735e-05
3.37366e-05
3.17548e-05
2.98302e-05
2.79793e-05
2.62751e-05
2.4806e-05
3.12091e-05
2.91408e-05
2.7217e-05
2.54377e-05
2.38264e-05
2.30607e-05
2.28138e-05
2.27463e-05
2.27378e-05
2.27427e-05
2.30095e-05
2.36858e-05
1.32278e-05
1.31672e-05
1.33984e-05
1.36186e-05
1.37723e-05
1.3929e-05
1.41288e-05
1.43587e-05
1.44936e-05
1.44723e-05
1.51718e-05
1.65499e-05
0.0140575
0.0140576
0.0140577
0.0140578
0.0140579
0.014058
0.0140581
0.0140581
0.0140582
0.0140583
0.0140584
0.0140585
0.0140586
0.0140587
0.0140588
0.0140589
0.014059
0.014059
0.0140591
0.0140592
0.0140593
0.0140594
0.0140595
0.0140595
0.0140596
0.0140596
0.0140596
0.0140597
0.0140597
0.0140597
0.0140597
0.0140597
0.0140597
0.0140597
0.0140597
0.0140597
0.0140597
0.0140597
0.0140597
0.0140597
0.0140597
0.0140597
0.0140598
0.0140598
0.0140598
0.0140598
0.0140599
0.0140599
0.01406
0.01406
0.0140601
0.0140603
0.0140604
0.0140605
0.0140606
0.0140608
0.0140609
0.0140611
0.0140612
0.0140614
0.0140616
0.0140617
0.0140619
0.0140621
0.0140623
0.0140624
0.0140626
0.0140628
0.014063
0.0140632
0.0140634
0.0140635
0.0140637
0.0140756
0.0140763
0.014077
0.0140777
0.0140784
0.0140791
0.0140798
0.0140805
0.0140811
0.0140818
0.0140824
0.014083
0.0140836
0.0140843
0.0140849
0.0140855
0.014086
0.0140866
0.0140872
0.0140877
0.0140883
0.0140888
0.0140894
0.0140899
0.0140904
0.0140909
0.0140915
0.014092
0.0140925
0.014093
0.0140934
0.0140939
0.0140944
0.0140949
0.0140953
0.0140958
0.0140962
0.0140967
0.0140971
0.0140976
0.014098
0.0140984
0.0140988
0.0140993
0.0140997
0.0141001
0.0141005
0.0141009
0.0141013
0.0141017
0.0141021
0.0141024
0.0141028
0.0141032
0.0141035
0.0141039
0.0141042
0.0141045
0.0141048
0.0141051
0.0141054
0.0141057
0.014106
0.0141062
0.0141065
0.0141067
0.014107
0.0141072
0.0141075
0.0141077
0.0141079
0.0141081
0.0141083
0.0140467
0.014047
0.0140473
0.0140476
0.0140479
0.0140482
0.0140485
0.0140488
0.0140491
0.0140494
0.0140497
0.0140501
0.0140504
0.0140507
0.014051
0.0140513
0.0140516
0.0140519
0.0140522
0.0140525
0.0140528
0.0140531
0.0140534
0.0140537
0.0140541
0.0140544
0.0140547
0.014055
0.0140553
0.0140556
0.0140559
0.0140562
0.0140565
0.0140568
0.0140571
0.0140574
0.0140577
0.014058
0.0140583
0.0140586
0.0140588
0.0140591
0.0140594
0.0140597
0.01406
0.0140602
0.0140605
0.0140608
0.014061
0.0140613
0.0140616
0.0140618
0.0140621
0.0140624
0.0140626
0.0140629
0.0140631
0.0140634
0.0140636
0.0140638
0.0140641
0.0140643
0.0140646
0.0140648
0.014065
0.0140652
0.0140655
0.0140657
0.0140659
0.0140661
0.0140664
0.0140666
0.0140668
0.0140252
0.0140256
0.014026
0.0140263
0.0140266
0.014027
0.0140273
0.0140276
0.0140279
0.0140282
0.0140285
0.0140287
0.014029
0.0140293
0.0140295
0.0140297
0.01403
0.0140302
0.0140304
0.0140305
0.0140307
0.0140309
0.014031
0.0140311
0.0140312
0.0140313
0.0140314
0.0140315
0.0140315
0.0140315
0.0140315
0.0140315
0.0140315
0.0140314
0.0140312
0.0140309
0.0140306
0.0140303
0.0140301
0.0140298
0.0140295
0.0140292
0.014029
0.0140287
0.0140285
0.0140282
0.0140279
0.0140277
0.0140274
0.0140272
0.0140269
0.0140267
0.0140264
0.0140262
0.0140259
0.0140257
0.0140254
0.0140252
0.0140249
0.0140247
0.0140246
0.0140245
0.0140244
0.0140244
0.0140243
0.0140243
0.0140243
0.0140242
0.0140242
0.0140242
0.0140242
0.0140243
0.0140243
0.0140047
0.0140049
0.014005
0.0140051
0.0140052
0.0140053
0.0140054
0.0140055
0.0140057
0.0140057
0.0140058
0.0140059
0.014006
0.0140061
0.0140062
0.0140062
0.0140063
0.0140064
0.0140065
0.0140065
0.0140066
0.0140067
0.0140067
0.0140068
0.0140068
0.0140069
0.014007
0.014007
0.0140071
0.0140072
0.0140072
0.0140073
0.0140073
0.0140074
0.0140075
0.0140075
0.0140076
0.0140077
0.0140077
0.0140078
0.0140079
0.0140079
0.014008
0.0140081
0.0140082
0.0140082
0.0140083
0.0140084
0.0140084
0.0140085
0.0140086
0.0140086
0.0140087
0.0140088
0.0140088
0.0140089
0.014009
0.014009
0.0140091
0.0140092
0.0140092
0.0140093
0.0140094
0.0140094
0.0140095
0.0140096
0.0140097
0.0140097
0.0140098
0.0140099
0.01401
0.0140101
0.0140102
0.0139871
0.0139872
0.0139872
0.0139873
0.0139873
0.0139874
0.0139873
0.0139873
0.0139873
0.0139872
0.013987
0.0139868
0.0139865
0.0139861
0.0139857
0.0139853
0.0139849
0.0139845
0.0139842
0.0139838
0.0139834
0.0139831
0.0139827
0.0139823
0.013982
0.0139816
0.0139812
0.0139809
0.0139805
0.0139802
0.0139799
0.0139795
0.0139792
0.0139788
0.0139785
0.0139782
0.0139779
0.0139775
0.0139772
0.0139769
0.0139766
0.0139763
0.013976
0.0139757
0.0139754
0.0139751
0.0139748
0.0139746
0.0139743
0.013974
0.0139737
0.0139734
0.0139732
0.0139729
0.0139727
0.0139724
0.0139721
0.0139719
0.0139717
0.0139714
0.0139712
0.0139709
0.0139707
0.0139705
0.0139703
0.0139701
0.0139701
0.0139702
0.0139703
0.0139704
0.0139705
0.0139706
0.0139708
0.013958
0.0139577
0.0139575
0.0139573
0.013957
0.0139568
0.0139566
0.0139564
0.0139561
0.013956
0.013956
0.013956
0.0139561
0.0139562
0.0139563
0.0139565
0.0139566
0.0139568
0.013957
0.0139571
0.0139573
0.0139575
0.0139577
0.0139579
0.0139582
0.0139584
0.0139586
0.0139588
0.0139591
0.0139593
0.0139596
0.0139598
0.0139601
0.0139603
0.0139606
0.0139608
0.0139611
0.0139613
0.0139616
0.0139619
0.0139621
0.0139624
0.0139627
0.0139629
0.0139632
0.0139635
0.0139637
0.013964
0.0139643
0.0139645
0.0139648
0.0139651
0.0139654
0.0139656
0.0139659
0.0139662
0.0139664
0.0139667
0.013967
0.0139673
0.0139675
0.0139678
0.0139681
0.0139684
0.0139686
0.0139689
0.0139692
0.0139695
0.0139697
0.01397
0.0139703
0.0139706
0.0139709
0.013964
0.0139638
0.0139635
0.0139633
0.0139631
0.0139628
0.0139626
0.0139623
0.0139621
0.0139618
0.0139616
0.0139614
0.0139611
0.0139609
0.0139606
0.0139604
0.0139602
0.0139599
0.0139597
0.0139595
0.0139592
0.013959
0.0139588
0.0139586
0.0139584
0.0139582
0.0139579
0.0139577
0.0139575
0.0139573
0.0139572
0.013957
0.0139568
0.0139566
0.0139564
0.0139562
0.0139561
0.0139559
0.0139557
0.0139555
0.0139551
0.0139547
0.0139543
0.013954
0.0139539
0.0139539
0.0139538
0.0139538
0.0139539
0.0139539
0.013954
0.013954
0.0139541
0.0139542
0.0139543
0.0139545
0.0139546
0.0139548
0.0139549
0.0139551
0.0139552
0.0139554
0.0139556
0.0139558
0.013956
0.0139562
0.0139564
0.0139566
0.0139568
0.013957
0.0139573
0.0139575
0.0139577
0.0139471
0.0139467
0.0139463
0.0139459
0.0139454
0.013945
0.0139446
0.0139441
0.0139437
0.0139432
0.0139428
0.0139423
0.0139419
0.0139415
0.013941
0.0139406
0.0139401
0.0139396
0.0139392
0.0139391
0.0139389
0.0139389
0.0139388
0.0139388
0.0139388
0.0139388
0.0139388
0.0139388
0.0139388
0.0139389
0.0139389
0.013939
0.0139391
0.0139392
0.0139393
0.0139393
0.0139395
0.0139396
0.0139397
0.0139398
0.0139399
0.01394
0.0139402
0.0139403
0.0139404
0.0139406
0.0139407
0.0139409
0.013941
0.0139411
0.0139413
0.0139414
0.0139416
0.0139417
0.0139419
0.0139421
0.0139422
0.0139424
0.0139425
0.0139427
0.0139428
0.0139429
0.013943
0.0139431
0.0139431
0.0139431
0.0139431
0.0139431
0.013943
0.0139429
0.0139428
0.0139427
0.0139426
0.0139251
0.0139247
0.0139242
0.0139238
0.0139234
0.0139229
0.0139225
0.0139221
0.0139216
0.0139212
0.0139207
0.0139203
0.0139198
0.0139194
0.0139189
0.0139185
0.013918
0.0139175
0.0139171
0.0139166
0.0139162
0.0139157
0.0139153
0.0139149
0.0139144
0.013914
0.0139136
0.0139131
0.0139125
0.0139119
0.0139112
0.0139107
0.0139104
0.0139102
0.01391
0.0139099
0.0139098
0.0139097
0.0139096
0.0139095
0.0139095
0.0139095
0.0139094
0.0139094
0.0139094
0.0139094
0.0139094
0.0139094
0.0139094
0.0139094
0.0139094
0.0139094
0.0139094
0.0139094
0.0139094
0.0139095
0.0139095
0.0139095
0.0139095
0.0139095
0.0139095
0.0139094
0.0139094
0.0139093
0.0139092
0.013909
0.0139089
0.0139087
0.0139084
0.0139082
0.0139079
0.0139076
0.0139073
0.0138911
0.0138904
0.0138898
0.0138891
0.0138884
0.0138878
0.0138871
0.0138865
0.0138858
0.0138851
0.0138845
0.0138838
0.0138831
0.0138824
0.0138818
0.0138811
0.0138804
0.0138797
0.0138791
0.0138784
0.0138778
0.0138775
0.0138773
0.0138772
0.0138771
0.013877
0.0138769
0.0138769
0.0138769
0.0138769
0.0138769
0.0138769
0.0138769
0.0138769
0.0138768
0.0138767
0.0138765
0.0138763
0.013876
0.0138756
0.013875
0.0138743
0.0138735
0.0138727
0.0138719
0.0138712
0.0138704
0.0138696
0.0138689
0.0138681
0.0138673
0.0138666
0.0138658
0.013865
0.0138643
0.0138635
0.0138627
0.0138619
0.0138612
0.0138604
0.0138596
0.0138588
0.013858
0.0138573
0.0138565
0.0138557
0.0138549
0.0138541
0.0138533
0.0138525
0.0138518
0.013851
0.0138504
0.0138616
0.0138609
0.0138601
0.0138594
0.0138586
0.0138579
0.0138572
0.0138564
0.0138557
0.0138549
0.0138542
0.0138534
0.0138527
0.0138519
0.0138511
0.0138504
0.0138496
0.0138488
0.0138481
0.0138473
0.0138465
0.0138458
0.013845
0.0138442
0.0138434
0.0138427
0.0138421
0.0138419
0.0138417
0.0138415
0.0138414
0.0138413
0.0138412
0.0138411
0.013841
0.0138408
0.0138405
0.0138402
0.0138398
0.0138393
0.0138385
0.0138377
0.0138368
0.0138358
0.0138349
0.013834
0.0138331
0.0138322
0.0138313
0.0138304
0.0138295
0.0138286
0.0138277
0.0138268
0.0138259
0.013825
0.0138241
0.0138232
0.0138222
0.0138213
0.0138204
0.0138195
0.0138185
0.0138176
0.0138167
0.0138158
0.0138148
0.0138139
0.013813
0.013812
0.0138111
0.0138102
0.0138094
0.0138354
0.0138346
0.0138337
0.0138329
0.013832
0.0138311
0.0138302
0.0138294
0.0138285
0.0138276
0.0138267
0.0138259
0.013825
0.0138241
0.0138232
0.0138223
0.0138214
0.0138205
0.0138196
0.0138187
0.0138178
0.0138169
0.013816
0.0138151
0.0138142
0.0138133
0.0138123
0.0138114
0.0138105
0.0138096
0.0138087
0.0138077
0.0138068
0.0138059
0.013805
0.013804
0.0138031
0.0138022
0.0138012
0.0138003
0.0137994
0.0137984
0.0137975
0.0137965
0.0137956
0.0137946
0.0137937
0.0137927
0.0137918
0.0137908
0.0137898
0.0137889
0.0137879
0.0137869
0.0137859
0.013785
0.013784
0.013783
0.013782
0.013781
0.01378
0.013779
0.013778
0.013777
0.013776
0.0137749
0.0137739
0.0137729
0.0137719
0.0137709
0.0137698
0.0137689
0.013768
0.0138097
0.0138087
0.0138077
0.0138068
0.0138058
0.0138047
0.0138037
0.0138027
0.0138017
0.0138007
0.0137997
0.0137987
0.0137976
0.0137966
0.0137956
0.0137946
0.0137935
0.0137925
0.0137915
0.0137904
0.0137894
0.0137883
0.0137873
0.0137862
0.0137851
0.0137841
0.013783
0.013782
0.0137809
0.0137798
0.0137787
0.0137776
0.0137766
0.0137755
0.0137744
0.0137733
0.0137722
0.0137711
0.01377
0.0137689
0.0137678
0.0137667
0.0137656
0.0137644
0.0137633
0.0137622
0.0137611
0.0137599
0.0137588
0.0137577
0.0137565
0.0137554
0.0137542
0.0137531
0.0137519
0.0137507
0.0137496
0.0137484
0.0137472
0.0137461
0.0137449
0.0137437
0.0137425
0.0137413
0.0137401
0.0137389
0.0137377
0.0137365
0.0137353
0.0137341
0.0137329
0.0137317
0.0137307
0.01373
0.0137834
0.0137822
0.0137811
0.0137799
0.0137787
0.0137776
0.0137764
0.0137752
0.0137741
0.0137729
0.0137717
0.0137705
0.0137693
0.0137681
0.013767
0.0137658
0.0137646
0.0137633
0.0137621
0.0137609
0.0137597
0.0137585
0.0137573
0.013756
0.0137548
0.0137536
0.0137523
0.0137511
0.0137498
0.0137486
0.0137473
0.013746
0.0137448
0.0137435
0.0137422
0.013741
0.0137397
0.0137384
0.0137371
0.0137358
0.0137345
0.0137332
0.0137319
0.0137306
0.0137293
0.013728
0.0137266
0.0137253
0.013724
0.0137226
0.0137213
0.0137199
0.0137186
0.0137172
0.0137159
0.0137145
0.0137132
0.0137118
0.0137104
0.013709
0.0137076
0.0137062
0.0137048
0.0137034
0.013702
0.0137006
0.0136992
0.0136978
0.0136964
0.0136949
0.0136935
0.0136921
0.0136908
0.0136898
0.0137559
0.0137545
0.0137532
0.0137519
0.0137505
0.0137492
0.0137478
0.0137465
0.0137451
0.0137437
0.0137424
0.013741
0.0137396
0.0137382
0.0137368
0.0137354
0.013734
0.0137326
0.0137312
0.0137298
0.0137284
0.013727
0.0137255
0.0137241
0.0137227
0.0137212
0.0137198
0.0137183
0.0137169
0.0137154
0.0137139
0.0137125
0.013711
0.0137095
0.013708
0.0137065
0.013705
0.0137035
0.013702
0.0137005
0.0136989
0.0136974
0.0136959
0.0136943
0.0136928
0.0136912
0.0136897
0.0136881
0.0136865
0.013685
0.0136834
0.0136818
0.0136802
0.0136786
0.013677
0.0136754
0.0136738
0.0136722
0.0136705
0.0136689
0.0136673
0.0136656
0.0136639
0.0136623
0.0136606
0.013659
0.0136573
0.0136556
0.0136539
0.0136522
0.0136505
0.0136488
0.0136473
0.0136461
0.0137263
0.0137248
0.0137232
0.0137217
0.0137201
0.0137185
0.013717
0.0137154
0.0137138
0.0137122
0.0137106
0.013709
0.0137074
0.0137058
0.0137041
0.0137025
0.0137009
0.0136992
0.0136976
0.0136959
0.0136943
0.0136926
0.0136909
0.0136893
0.0136876
0.0136859
0.0136842
0.0136825
0.0136808
0.013679
0.0136773
0.0136756
0.0136738
0.0136721
0.0136703
0.0136686
0.0136668
0.013665
0.0136632
0.0136615
0.0136597
0.0136578
0.013656
0.0136542
0.0136524
0.0136506
0.0136487
0.0136469
0.013645
0.0136431
0.0136413
0.0136394
0.0136375
0.0136356
0.0136337
0.0136318
0.0136299
0.0136279
0.013626
0.0136241
0.0136221
0.0136201
0.0136182
0.0136162
0.0136142
0.0136122
0.0136102
0.0136082
0.0136062
0.0136041
0.0136021
0.0136001
0.0135982
0.0135968
0.0136943
0.0136925
0.0136907
0.0136889
0.0136871
0.0136852
0.0136834
0.0136816
0.0136797
0.0136778
0.013676
0.0136741
0.0136722
0.0136703
0.0136684
0.0136665
0.0136646
0.0136627
0.0136607
0.0136588
0.0136568
0.0136549
0.0136529
0.0136509
0.013649
0.013647
0.013645
0.013643
0.0136409
0.0136389
0.0136369
0.0136348
0.0136328
0.0136307
0.0136286
0.0136266
0.0136245
0.0136224
0.0136202
0.0136181
0.013616
0.0136139
0.0136117
0.0136095
0.0136074
0.0136052
0.013603
0.0136008
0.0135986
0.0135964
0.0135941
0.0135919
0.0135896
0.0135874
0.0135851
0.0135828
0.0135805
0.0135782
0.0135759
0.0135736
0.0135712
0.0135689
0.0135665
0.0135641
0.0135617
0.0135593
0.0135569
0.0135545
0.0135521
0.0135496
0.0135472
0.0135448
0.0135425
0.0135407
0.0136591
0.013657
0.0136549
0.0136528
0.0136506
0.0136485
0.0136463
0.0136442
0.013642
0.0136398
0.0136376
0.0136354
0.0136332
0.013631
0.0136288
0.0136265
0.0136243
0.013622
0.0136197
0.0136174
0.0136151
0.0136128
0.0136105
0.0136082
0.0136058
0.0136035
0.0136011
0.0135987
0.0135964
0.013594
0.0135915
0.0135891
0.0135867
0.0135842
0.0135818
0.0135793
0.0135768
0.0135743
0.0135718
0.0135693
0.0135667
0.0135642
0.0135616
0.013559
0.0135564
0.0135538
0.0135512
0.0135486
0.0135459
0.0135433
0.0135406
0.0135379
0.0135352
0.0135325
0.0135297
0.013527
0.0135242
0.0135214
0.0135187
0.0135158
0.013513
0.0135102
0.0135073
0.0135045
0.0135016
0.0134987
0.0134958
0.0134928
0.0134899
0.0134869
0.0134839
0.013481
0.0134782
0.013476
0.0136202
0.0136177
0.0136152
0.0136127
0.0136102
0.0136077
0.0136052
0.0136027
0.0136001
0.0135976
0.013595
0.0135924
0.0135898
0.0135872
0.0135845
0.0135819
0.0135792
0.0135766
0.0135739
0.0135712
0.0135685
0.0135657
0.013563
0.0135602
0.0135574
0.0135546
0.0135518
0.013549
0.0135462
0.0135433
0.0135404
0.0135376
0.0135347
0.0135317
0.0135288
0.0135258
0.0135229
0.0135199
0.0135169
0.0135138
0.0135108
0.0135077
0.0135047
0.0135016
0.0134985
0.0134953
0.0134922
0.013489
0.0134858
0.0134826
0.0134794
0.0134761
0.0134729
0.0134696
0.0134663
0.0134629
0.0134596
0.0134562
0.0134528
0.0134494
0.013446
0.0134425
0.0134391
0.0134356
0.0134321
0.0134285
0.013425
0.0134214
0.0134178
0.0134142
0.0134105
0.0134069
0.0134035
0.0134008
0.0135767
0.0135739
0.013571
0.013568
0.0135651
0.0135621
0.0135592
0.0135562
0.0135532
0.0135502
0.0135471
0.0135441
0.013541
0.0135379
0.0135348
0.0135317
0.0135285
0.0135254
0.0135222
0.013519
0.0135157
0.0135125
0.0135092
0.013506
0.0135027
0.0134993
0.013496
0.0134926
0.0134892
0.0134858
0.0134824
0.0134789
0.0134754
0.0134719
0.0134684
0.0134649
0.0134613
0.0134577
0.0134541
0.0134505
0.0134468
0.0134431
0.0134394
0.0134357
0.0134319
0.0134281
0.0134243
0.0134204
0.0134166
0.0134127
0.0134088
0.0134048
0.0134009
0.0133969
0.0133928
0.0133888
0.0133847
0.0133806
0.0133765
0.0133723
0.0133681
0.0133639
0.0133596
0.0133553
0.013351
0.0133467
0.0133423
0.0133379
0.0133335
0.013329
0.0133245
0.0133201
0.0133159
0.0133125
0.0135282
0.0135248
0.0135214
0.0135179
0.0135145
0.013511
0.0135075
0.013504
0.0135004
0.0134969
0.0134933
0.0134897
0.013486
0.0134824
0.0134787
0.013475
0.0134712
0.0134675
0.0134637
0.0134599
0.013456
0.0134522
0.0134483
0.0134444
0.0134404
0.0134364
0.0134324
0.0134284
0.0134243
0.0134203
0.0134161
0.013412
0.0134078
0.0134036
0.0133994
0.0133951
0.0133908
0.0133864
0.0133821
0.0133777
0.0133732
0.0133688
0.0133643
0.0133597
0.0133552
0.0133506
0.0133459
0.0133412
0.0133365
0.0133318
0.013327
0.0133222
0.0133173
0.0133124
0.0133075
0.0133025
0.0132975
0.0132925
0.0132874
0.0132823
0.0132771
0.0132719
0.0132667
0.0132614
0.013256
0.0132507
0.0132453
0.0132398
0.0132343
0.0132288
0.0132232
0.0132177
0.0132125
0.0132082
0.0134737
0.0134697
0.0134657
0.0134616
0.0134576
0.0134535
0.0134493
0.0134452
0.013441
0.0134367
0.0134325
0.0134282
0.0134239
0.0134196
0.0134152
0.0134108
0.0134063
0.0134018
0.0133973
0.0133928
0.0133882
0.0133836
0.0133789
0.0133742
0.0133695
0.0133647
0.0133599
0.0133551
0.0133502
0.0133453
0.0133403
0.0133353
0.0133303
0.0133252
0.01332
0.0133149
0.0133097
0.0133044
0.0132991
0.0132938
0.0132884
0.0132829
0.0132774
0.0132719
0.0132663
0.0132607
0.013255
0.0132493
0.0132436
0.0132377
0.0132319
0.0132259
0.01322
0.013214
0.0132079
0.0132017
0.0131956
0.0131893
0.013183
0.0131767
0.0131703
0.0131638
0.0131573
0.0131507
0.0131441
0.0131374
0.0131307
0.0131239
0.013117
0.0131101
0.0131031
0.0130962
0.0130896
0.0130843
0.0134125
0.0134078
0.013403
0.0133983
0.0133935
0.0133886
0.0133837
0.0133788
0.0133739
0.0133689
0.0133638
0.0133587
0.0133536
0.0133484
0.0133432
0.013338
0.0133327
0.0133273
0.0133219
0.0133165
0.013311
0.0133055
0.0132999
0.0132943
0.0132886
0.0132829
0.0132771
0.0132712
0.0132653
0.0132594
0.0132534
0.0132473
0.0132412
0.0132351
0.0132288
0.0132226
0.0132162
0.0132098
0.0132034
0.0131968
0.0131902
0.0131836
0.0131769
0.0131701
0.0131633
0.0131564
0.0131494
0.0131423
0.0131352
0.013128
0.0131208
0.0131135
0.0131061
0.0130986
0.0130911
0.0130835
0.0130758
0.013068
0.0130602
0.0130523
0.0130443
0.0130362
0.013028
0.0130198
0.0130115
0.0130031
0.0129946
0.012986
0.0129773
0.0129686
0.0129598
0.0129511
0.0129427
0.012936
0.0133437
0.0133382
0.0133326
0.013327
0.0133213
0.0133156
0.0133098
0.013304
0.0132981
0.0132922
0.0132862
0.0132801
0.0132741
0.0132679
0.0132617
0.0132554
0.0132491
0.0132427
0.0132363
0.0132297
0.0132232
0.0132165
0.0132098
0.013203
0.0131962
0.0131893
0.0131823
0.0131752
0.0131681
0.0131609
0.0131536
0.0131463
0.0131389
0.0131313
0.0131238
0.0131161
0.0131083
0.0131005
0.0130926
0.0130846
0.0130765
0.0130683
0.01306
0.0130517
0.0130432
0.0130347
0.0130261
0.0130173
0.0130085
0.0129996
0.0129906
0.0129815
0.0129722
0.0129629
0.0129535
0.012944
0.0129343
0.0129246
0.0129147
0.0129048
0.0128947
0.0128845
0.0128742
0.0128638
0.0128532
0.0128426
0.0128318
0.0128209
0.0128099
0.0127988
0.0127876
0.0127764
0.0127657
0.0127571
0.0132666
0.0132601
0.0132535
0.0132469
0.0132402
0.0132334
0.0132266
0.0132197
0.0132127
0.0132056
0.0131985
0.0131913
0.0131841
0.0131767
0.0131693
0.0131618
0.0131543
0.0131466
0.0131389
0.0131311
0.0131231
0.0131151
0.0131071
0.0130989
0.0130906
0.0130822
0.0130738
0.0130652
0.0130566
0.0130478
0.0130389
0.0130299
0.0130209
0.0130117
0.0130024
0.012993
0.0129834
0.0129738
0.012964
0.0129541
0.0129441
0.012934
0.0129238
0.0129134
0.0129029
0.0128923
0.0128815
0.0128706
0.0128596
0.0128484
0.0128371
0.0128256
0.012814
0.0128023
0.0127904
0.0127784
0.0127662
0.0127538
0.0127413
0.0127287
0.0127159
0.0127029
0.0126898
0.0126765
0.0126631
0.0126495
0.0126357
0.0126217
0.0126076
0.0125933
0.0125789
0.0125645
0.0125507
0.0125396
0.0131802
0.0131725
0.0131647
0.0131568
0.0131489
0.0131409
0.0131328
0.0131246
0.0131163
0.0131079
0.0130994
0.0130908
0.0130822
0.0130734
0.0130645
0.0130555
0.0130465
0.0130373
0.0130279
0.0130185
0.013009
0.0129993
0.0129895
0.0129796
0.0129696
0.0129594
0.0129491
0.0129386
0.0129281
0.0129173
0.0129065
0.0128954
0.0128843
0.012873
0.0128615
0.0128499
0.0128381
0.0128261
0.012814
0.0128017
0.0127893
0.0127767
0.0127639
0.0127509
0.0127377
0.0127244
0.0127108
0.0126971
0.0126832
0.0126691
0.0126548
0.0126403
0.0126256
0.0126107
0.0125956
0.0125803
0.0125648
0.0125491
0.0125331
0.0125169
0.0125006
0.0124839
0.0124671
0.01245
0.0124328
0.0124152
0.0123975
0.0123795
0.0123613
0.0123428
0.0123242
0.0123056
0.0122878
0.0122734
0.0130826
0.0130735
0.0130643
0.013055
0.0130456
0.013036
0.0130264
0.0130167
0.0130068
0.0129968
0.0129867
0.0129765
0.0129661
0.0129556
0.0129449
0.0129341
0.0129232
0.0129121
0.0129009
0.0128895
0.0128779
0.0128662
0.0128543
0.0128423
0.01283
0.0128176
0.012805
0.0127922
0.0127793
0.0127661
0.0127527
0.0127391
0.0127253
0.0127113
0.0126971
0.0126827
0.012668
0.0126532
0.0126381
0.0126227
0.0126071
0.0125913
0.0125752
0.0125589
0.0125423
0.0125255
0.0125084
0.012491
0.0124734
0.0124555
0.0124373
0.0124189
0.0124001
0.0123811
0.0123618
0.0123422
0.0123224
0.0123022
0.0122818
0.012261
0.0122399
0.0122186
0.0121969
0.0121749
0.0121527
0.0121301
0.0121071
0.0120839
0.0120604
0.0120365
0.0120124
0.0119884
0.0119653
0.0119466
0.012972
0.0129613
0.0129504
0.0129394
0.0129282
0.0129169
0.0129055
0.0128939
0.0128821
0.0128702
0.0128581
0.0128459
0.0128335
0.0128209
0.0128081
0.0127951
0.0127819
0.0127685
0.012755
0.0127412
0.0127272
0.0127129
0.0126985
0.0126838
0.0126688
0.0126536
0.0126382
0.0126225
0.0126066
0.0125903
0.0125738
0.0125571
0.01254
0.0125226
0.012505
0.012487
0.0124687
0.0124501
0.0124312
0.0124119
0.0123924
0.0123724
0.0123522
0.0123316
0.0123106
0.0122893
0.0122676
0.0122456
0.0122232
0.0122004
0.0121772
0.0121536
0.0121297
0.0121054
0.0120807
0.0120556
0.0120301
0.0120042
0.0119779
0.0119513
0.0119242
0.0118967
0.0118688
0.0118405
0.0118118
0.0117827
0.0117532
0.0117232
0.0116929
0.0116622
0.0116312
0.0116002
0.0115704
0.0115463
0.0128466
0.0128339
0.012821
0.012808
0.0127948
0.0127814
0.0127678
0.012754
0.01274
0.0127258
0.0127114
0.0126967
0.0126819
0.0126667
0.0126514
0.0126358
0.0126199
0.0126038
0.0125873
0.0125706
0.0125536
0.0125364
0.0125188
0.0125008
0.0124826
0.012464
0.0124451
0.0124258
0.0124062
0.0123862
0.0123658
0.0123451
0.0123239
0.0123023
0.0122804
0.012258
0.0122351
0.0122119
0.0121881
0.012164
0.0121393
0.0121142
0.0120887
0.0120626
0.012036
0.012009
0.0119815
0.0119534
0.0119249
0.0118958
0.0118662
0.0118362
0.0118056
0.0117744
0.0117428
0.0117107
0.011678
0.0116448
0.0116111
0.0115769
0.0115421
0.0115069
0.0114711
0.0114349
0.0113981
0.0113609
0.0113231
0.0112849
0.0112462
0.011207
0.0111675
0.011128
0.01109
0.0110593
0.0127043
0.0126893
0.0126741
0.0126587
0.0126431