/*--------------------------------*- C++ -*----------------------------------*\
  =========                 |
  \\      /  F ield         | OpenFOAM: The Open Source CFD Toolbox
   \\    /   O peration     | Website:  https://openfoam.org
    \\  /    A nd           | Version:  9
     \\/     M anipulation  |
\*---------------------------------------------------------------------------*/
FoamFile
{
    format      ascii;
    class       surfaceScalarField;
    location    "0.0025";
    object      phi;
}
// * * * * * * * * * * * * * * * * * * * * * * * * * * * * * * * * * * * * * //

dimensions      [1 0 -1 0 0 0 0];

internalField   nonuniform List<scalar> 
10523
(
0.00108245
0.000255606
0.000550014
0.000532421
0.00203235
0.000602991
0.00197936
0.000521024
0.00248237
0.00269863
0.00040538
0.000127032
0.000472192
-6.68204e-05
0.000712081
-0.000239894
0.00104614
-0.00033406
0.00140593
-0.000359799
0.0017469
-0.00034097
0.00204056
-0.000293659
0.00227263
-0.000232073
0.00246701
-0.000194382
0.00261231
-0.0001453
0.00270141
-8.90954e-05
0.00273581
-3.44052e-05
0.00271806
1.77488e-05
0.00264906
6.90012e-05
0.00253016
0.000118904
0.00237436
0.000155791
0.00218441
0.000189956
0.00196498
0.000219429
0.00173598
0.000229001
0.000230659
0.00150532
0.00198644
0.000119957
0.00207361
-0.000153997
0.00218377
-0.000350058
0.00231785
-0.000468141
0.00246586
-0.00050781
0.00262016
-0.000495275
0.00277424
-0.00044774
0.00291346
-0.000371287
0.00301651
-0.000297435
0.00308795
-0.00021674
0.00312733
-0.000128477
0.00313278
-3.98574e-05
0.00310291
4.76188e-05
0.00303735
0.000134562
0.0029361
0.000220151
0.00278779
0.000304103
0.00259885
0.000378893
0.00237281
0.000445474
0.00211378
0.000488024
0.000541515
0.00180293
0.00248191
0.00012042
0.0025222
-0.000194289
0.00258404
-0.000411909
0.0026638
-0.000547902
0.00276332
-0.000607328
0.00287347
-0.000605421
0.00298055
-0.000554824
0.00308221
-0.000472952
0.0031651
-0.000380327
0.00322022
-0.000271854
0.00324849
-0.000156752
0.00324852
-3.98866e-05
0.00321764
7.85021e-05
0.00315457
0.000197629
0.00305894
0.00031578
0.00292983
0.000433219
0.00275871
0.000550007
0.00254508
0.000659109
0.00229291
0.000740187
0.000829513
0.00200491
0.0027343
8.47442e-05
0.00277188
-0.000231876
0.00281435
-0.000454374
0.00286369
-0.000597246
0.00292341
-0.00066705
0.00298884
-0.000670848
0.00306066
-0.000626649
0.00313317
-0.000545458
0.00319298
-0.000440142
0.00323495
-0.000313829
0.00325831
-0.000180104
0.00326087
-4.24558e-05
0.0032386
0.000100778
0.0031883
0.000247924
0.00310778
0.000396306
0.00299523
0.000545768
0.00284816
0.000697071
0.00265524
0.000852036
0.00241788
0.00097754
0.00110399
0.00214341
0.00284484
3.25756e-05
0.00288431
-0.000271342
0.00291734
-0.000487407
0.00295017
-0.000630084
0.00298584
-0.000702722
0.00302801
-0.000713015
0.00307487
-0.000673512
0.00312263
-0.000593224
0.00316217
-0.000479683
0.00319537
-0.000347026
0.00321723
-0.000201967
0.00322408
-4.93077e-05
0.00321143
0.000113435
0.00317568
0.000283669
0.00311431
0.000457682
0.0030239
0.000636179
0.00290072
0.00082025
0.00273982
0.00101293
0.00252829
0.00118907
0.00136644
0.00226583
0.0028852
0.00292727
-0.000313416
0.00295788
-0.000518018
0.00298166
-0.000653866
0.00300241
-0.000723475
0.0030238
-0.000734408
0.00304631
-0.000696024
0.00307067
-0.000617583
0.00309736
-0.000506367
0.0031224
-0.000372067
0.00314269
-0.000222262
0.0031539
-6.05157e-05
0.00315175
0.000115586
0.00313049
0.000304925
0.0030883
0.000499874
0.00302164
0.000702833
0.00292593
0.000915967
0.00279588
0.00114298
0.00261881
0.00136613
0.00160347
0.00238179
0.00292661
0.00294845
-0.000539856
0.00296145
-0.000666866
0.00296988
-0.000731909
0.00297738
-0.00074191
0.00298656
-0.00070521
0.00299867
-0.00062969
0.00301425
-0.000521945
0.00303181
-0.000389633
0.0030494
-0.000239856
0.00306164
-7.27507e-05
0.00306558
0.000111643
0.00305806
0.00031245
0.00303481
0.000523125
0.0029918
0.000745834
0.00292466
0.000983111
0.00282716
0.00124049
0.00268871
0.00150458
0.00180497
0.00248721
0.00292102
0.00292441
-0.00067026
0.00292272
-0.000730212
0.00291924
-0.000738434
0.00291701
-0.000702982
0.00291785
-0.000630529
0.00292278
-0.000526878
0.00293093
-0.000397788
0.00293962
-0.000248546
0.00295001
-8.31425e-05
0.00295959
0.000102062
0.00296413
0.000307919
0.00295912
0.000528128
0.00294058
0.000764377
0.00290196
0.00102173
0.00283775
0.0013047
0.00273872
0.00160361
0.00196259
0.0025811
0.00287837
-0.000663289
0.00286664
-0.000718489
0.0028527
-0.000724495
0.00283939
-0.000689665
0.00282893
-0.000620073
0.00282288
-0.000520833
0.00282202
-0.000396923
0.00282659
-0.000253116
0.00283638
-9.29332e-05
0.00284961
8.88267e-05
0.00286248
0.00029505
0.00287169
0.000518918
0.00287311
0.000762959
0.00286174
0.0010331
0.00283038
0.00133606
0.00276984
0.00166414
0.00206893
0.00266349
0.00283069
0.00280809
-0.000695885
0.00278384
-0.000700251
0.00276055
-0.000666375
0.00274063
-0.000600159
0.00272604
-0.000506238
0.00271808
-0.000388963
0.00271712
-0.000252157
0.00272321
-9.90238e-05
0.0027366
7.54348e-05
0.00275476
0.000276887
0.0027752
0.000498475
0.00279416
0.000743998
0.00280724
0.00102002
0.00280829
0.00133501
0.00278625
0.00168618
0.00212364
0.00273155
0.0027533
-0.000662548
0.00271884
-0.00066579
0.00268566
-0.000633194
0.002656
-0.000570503
0.00263198
-0.000482223
0.00261551
-0.000372487
0.00260782
-0.000244468
0.0026096
-0.000100813
0.00262185
6.31925e-05
0.00264323
0.000255506
0.00267218
0.000469525
0.00270587
0.000710303
0.0027409
0.000984994
0.00277138
0.00130453
0.0027894
0.00166816
0.0021285
0.00278454
0.00269972
0.00265388
-0.00061995
0.00261023
-0.000589549
0.00257074
-0.000531019
0.00253753
-0.000449009
0.00251272
-0.000347676
0.00249811
-0.000229866
0.00249493
-9.76296e-05
0.00250473
5.33875e-05
0.00252775
0.000232491
0.00256323
0.000434041
0.00260931
0.000664226
0.00266371
0.000930593
0.0027221
0.00124613
0.00277905
0.00161122
0.0020854
0.00282215
0.00258521
0.00253026
-0.000534603
0.002481
-0.000481764
0.00243882
-0.000406829
0.00240607
-0.000314922
0.00238493
-0.000208731
0.00237705
-8.97451e-05
0.00238411
4.63234e-05
0.00240778
0.000208817
0.00244826
0.000393561
0.00250481
0.000607673
0.00257653
0.00085888
0.00266074
0.00116192
0.00275344
0.00151852
0.00199202
0.00284682
0.00245039
-0.000468278
0.00238918
-0.000420554
0.00233706
-0.00035471
0.00229564
-0.000273508
0.00226696
-0.000180053
0.00225364
-7.64218e-05
0.00225793
4.20315e-05
0.00228224
0.000184504
0.00232702
0.000348785
0.00239256
0.000542125
0.00247966
0.000771779
0.00258746
0.00105412
0.00271451
0.00139147
0.00184908
0.00285746
0.00236173
-0.000394027
0.00229251
-0.000351338
0.0022318
-0.000294001
0.00218259
-0.000224302
0.00214712
-0.00014459
0.00212737
-5.66713e-05
0.00212656
4.28419e-05
0.00215034
0.000160724
0.002199
0.000300124
0.00227264
0.000468481
0.0023734
0.000671023
0.00250271
0.000924813
0.00266221
0.00123196
0.00165657
0.00285472
0.00225319
0.00217756
-0.000275703
0.00211135
-0.000227798
0.00205763
-0.000170583
0.00201886
-0.000105819
0.00199704
-3.48574e-05
0.00199384
4.6041e-05
0.00201288
0.000141687
0.00206312
0.000249881
0.0021439
0.000387705
0.00225739
0.00055753
0.00240667
0.000775533
0.00259616
0.00104247
0.00141298
0.00283975
0.00203292
-0.000196129
0.00196382
-0.000158708
0.00190818
-0.000114944
0.00186844
-6.60812e-05
0.00184669
-1.31018e-05
0.00184469
4.8041e-05
0.00186601
0.00012036
0.00191357
0.000202322
0.00199983
0.00030144
0.00212523
0.000432135
0.00229402
0.000606735
0.00251164
0.000824853
0.00111876
0.00280586
0.00183207
0.00176452
-9.11596e-05
0.00171149
-6.19212e-05
0.00167527
-2.98672e-05
0.00165809
4.07827e-06
0.00166176
4.43676e-05
0.00169009
9.20377e-05
0.0017459
0.000146511
0.00183803
0.000209308
0.00197804
0.000292119
0.0021689
0.000415883
0.00241202
0.000581731
0.000779549
0.00275123
0.00147055
-3.21351e-05
0.00142658
-1.79546e-05
0.00139987
-3.15948e-06
0.00139224
1.16989e-05
0.00140553
3.10761e-05
0.00144313
5.44426e-05
0.00150846
8.1174e-05
0.00160463
0.00011314
0.00174456
0.00015219
0.0019652
0.000195235
0.00224523
0.000301704
0.000362274
0.00266251
0.000923998
0.000906043
0.000902883
0.000914581
0.000945657
0.0010001
0.00108127
0.00119441
0.0013466
0.00154184
0.00184354
0.00220582
0.00160278
-9.74594e-05
0.00167213
-6.93475e-05
0.00172876
-5.66324e-05
0.00176456
-3.58006e-05
0.00178691
-2.23462e-05
0.00180082
-1.39145e-05
0.00180879
-7.96499e-06
0.00181229
-3.50575e-06
0.00181136
9.29844e-07
0.00180651
4.85307e-06
0.0017972
9.30977e-06
0.00178306
1.41406e-05
0.00176256
2.04964e-05
0.00173645
2.61152e-05
0.0016996
3.68511e-05
0.00165602
4.35847e-05
0.00158279
7.32261e-05
0.00151412
6.8667e-05
0.00132004
0.000194081
-0.000644149
0.00196418
0.00188543
-0.000179962
0.00194757
-0.000131485
0.00200976
-0.000118825
0.00206449
-9.05266e-05
0.00211009
-6.79454e-05
0.00214941
-5.32402e-05
0.00218301
-4.15605e-05
0.00221233
-3.28298e-05
0.00223879
-2.55246e-05
0.00226321
-1.95718e-05
0.00228622
-1.36974e-05
0.0023085
-8.14174e-06
0.0023299
-8.99269e-07
0.00235099
5.02281e-06
0.00236936
1.84814e-05
0.00238767
2.52821e-05
0.00238734
7.35545e-05
0.00238941
6.65965e-05
0.00232694
0.000256541
-0.000901931
0.00258472
0.00207492
-0.000249963
0.00213335
-0.000189919
0.00218462
-0.000170096
0.0022297
-0.000135605
0.00226586
-0.000104107
0.00229569
-8.30721e-05
0.00232104
-6.69092e-05
0.00234312
-5.49077e-05
0.00236371
-4.61125e-05
0.00238366
-3.95283e-05
0.00240389
-3.39214e-05
0.00242534
-2.95899e-05
0.00244829
-2.38468e-05
0.00247428
-2.09665e-05
0.00250137
-8.61195e-06
0.00253547
-8.81843e-06
0.00255754
5.14899e-05
0.00259912
2.50142e-05
0.0025813
0.000274354
-0.00105952
0.00273888
0.00218724
-0.000293792
0.00222444
-0.000227126
0.00225482
-0.000200473
0.00228278
-0.00016356
0.00230683
-0.000128163
0.00232783
-0.000104073
0.00234717
-8.62493e-05
0.00236528
-7.30199e-05
0.00238303
-6.38591e-05
0.00240107
-5.75687e-05
0.00242024
-5.30901e-05
0.00244146
-5.08095e-05
0.00246511
-4.7496e-05
0.00249228
-4.81309e-05
0.00252122
-3.75547e-05
0.00255727
-4.48633e-05
0.00258345
2.53092e-05
0.00263527
-2.68105e-05
0.00262997
0.000279651
-0.00119397
0.00276442
0.0022955
-0.000323454
0.00232165
-0.00025328
0.00234277
-0.000221589
0.0023625
-0.000183292
0.0023797
-0.000145367
0.00239396
-0.000118329
0.0024066
-9.88926e-05
0.00241827
-8.46887e-05
0.00242973
-7.53207e-05
0.00244181
-6.96423e-05
0.00245531
-6.65938e-05
0.00247102
-6.65184e-05
0.00248947
-6.59496e-05
0.00251137
-7.00232e-05
0.00253591
-6.21004e-05
0.00256718
-7.61298e-05
0.00259213
3.58227e-07
0.00264121
-7.58896e-05
0.00263767
0.000283189
-0.00131817
0.00276187
0.00239805
-0.000339713
0.00241134
-0.000266573
0.00242015
-0.000230397
0.00242847
-0.000191618
0.00243607
-0.000152966
0.00244232
-0.000124575
0.00244831
-0.000104883
0.0024546
-9.09845e-05
0.00246155
-8.22691e-05
0.00246964
-7.7726e-05
0.0024795
-7.64535e-05
0.00249172
-7.87411e-05
0.00250679
-8.10155e-05
0.00252519
-8.84248e-05
0.00254658
-8.34932e-05
0.00257375
-0.000103301
0.00259736
-2.32458e-05
0.00264185
-0.000120378
0.00263987
0.000285162
-0.0014323
0.00275399
0.00249028
-0.000342776
0.00249237
-0.00026867
0.00249173
-0.000229751
0.00249171
-0.000191598
0.00249227
-0.00015353
0.00249258
-0.000124885
0.00249325
-0.000105548
0.00249469
-9.2428e-05
0.00249712
-8.46933e-05
0.00250091
-8.15252e-05
0.00250667
-8.22125e-05
0.00251488
-8.69512e-05
0.00252604
-9.21691e-05
0.00254041
-0.0001028
0.00255813
-0.00010121
0.00258081
-0.000125974
0.00260256
-4.49987e-05
0.00264171
-0.000159533
0.00264363
0.000283241
-0.00153569
0.00274701
0.00257172
-0.000333391
0.00256421
-0.000261166
0.00255547
-0.000221012
0.00254807
-0.000184191
0.00254225
-0.000147716
0.00253719
-0.000119826
0.00253311
-0.000101467
0.00253033
-8.96493e-05
0.00252894
-8.32976e-05
0.00252919
-8.17732e-05
0.00253157
-8.45961e-05
0.00253642
-9.18028e-05
0.00254418
-9.99322e-05
0.00255496
-0.000113576
0.00256934
-0.000115587
0.00258765
-0.000144288
0.00260807
-6.54137e-05
0.00264035
-0.000191818
0.00265288
0.000270717
-0.00162856
0.00274575
0.0026422
-0.000312098
0.00262643
-0.000245398
0.00261099
-0.000205574
0.00259746
-0.000170655
0.00258649
-0.000136744
0.0025772
-0.000110541
0.00256942
-9.36818e-05
0.00256329
-8.35186e-05
0.00255879
-7.88046e-05
0.00255607
-7.90451e-05
0.00255554
-8.40675e-05
0.00255741
-9.36733e-05
0.00256208
-0.000104606
0.0025695
-0.00012099
0.0025807
-0.000126788
0.00259465
-0.00015824
0.00261431
-8.50752e-05
0.00263664
-0.000214143
0.0026732
0.000234149
-0.00171187
0.00275651
0.00270127
-0.000281826
0.00267883
-0.000222951
0.00265812
-0.000184871
0.00263982
-0.000152347
0.00262481
-0.00012174
0.00261224
-9.79659e-05
0.00260157
-8.30154e-05
0.00259281
-7.47598e-05
0.00258586
-7.18511e-05
0.00258073
-7.39113e-05
0.00257781
-8.11531e-05
0.00257718
-9.30441e-05
0.00257918
-0.000106603
0.00258361
-0.000125418
0.00259186
-0.000135041
0.00260173
-0.000168109
0.00262074
-0.000104088
0.0026315
-0.0002249
0.00270097
0.000164677
-0.00178365
0.00277274
0.00274901
-0.000246299
0.00272147
-0.000195405
0.00269675
-0.000160157
0.00267494
-0.000130532
0.00265692
-0.000103723
0.00264195
-8.29909e-05
0.00262925
-7.03184e-05
0.00261869
-6.42032e-05
0.00261002
-6.31811e-05
0.00260311
-6.69946e-05
0.00259834
-7.63821e-05
0.00259566
-9.03705e-05
0.00259538
-0.000106316
0.00259719
-0.000127235
0.00260267
-0.000140514
0.0026091
-0.000174535
0.0026261
-0.000121094
0.00263133
-0.000230131
0.00270584
9.0167e-05
-0.00183607
0.00275826
0.00278428
-0.00020843
0.00275332
-0.000164447
0.00272621
-0.000133049
0.00270242
-0.000106738
0.00268261
-8.39108e-05
0.00266621
-6.65891e-05
0.00265229
-5.64051e-05
0.00264059
-5.24967e-05
0.00263088
-5.34763e-05
0.00262286
-5.89737e-05
0.0026168
-7.03249e-05
0.00261259
-8.61592e-05
0.00261045
-0.000104176
0.00261006
-0.000126844
0.00261298
-0.000143433
0.00261651
-0.000178062
0.00263071
-0.000135297
0.0026338
-0.000233215
0.00270378
2.01783e-05
-0.00185935
0.00272706
0.00280751
-0.000169125
0.00277437
-0.000131306
0.00274592
-0.000104595
0.00272131
-8.21349e-05
0.00270096
-6.35558e-05
0.00268429
-4.99177e-05
0.0026704
-4.25219e-05
0.0026585
-4.05911e-05
0.00264829
-4.32689e-05
0.00263979
-5.04687e-05
0.00263305
-6.35921e-05
0.0026278
-8.09052e-05
0.00262426
-0.00010064
0.00262207
-0.000124644
0.00262271
-0.000144081
0.00262374
-0.000179092
0.00263501
-0.000146565
0.00263634
-0.00023455
0.00270221
-4.56859e-05
-0.00184198
0.00268484
0.002818
-0.000129671
0.00278524
-9.85397e-05
0.00275669
-7.60488e-05
0.00273224
-5.76831e-05
0.0027122
-4.35179e-05
0.00269587
-3.3588e-05
0.00268253
-2.91843e-05
0.00267184
-2.99018e-05
0.00266211
-3.35329e-05
0.00265365
-4.20101e-05
0.00264692
-5.68658e-05
0.00264113
-7.51161e-05
0.00263668
-9.61807e-05
0.0026331
-0.000121067
0.00263181
-0.000142787
0.00263066
-0.000177945
0.00263908
-0.000154982
0.00263847
-0.000233946
0.0027007
-0.000107918
-0.00176934
0.00262806
0.00281655
-9.15001e-05
0.00278507
-6.7058e-05
0.00275777
-4.87522e-05
0.00273479
-3.47e-05
0.0027164
-2.5127e-05
0.00270158
-1.87693e-05
0.00268967
-1.72736e-05
0.0026804
-2.06329e-05
0.00267255
-2.56839e-05
0.00266478
-3.424e-05
0.00265862
-5.07052e-05
0.00265287
-6.93596e-05
0.00264788
-9.11925e-05
0.0026433
-0.000116484
0.00264036
-0.000139852
0.0026373
-0.000174885
0.00264298
-0.000160661
0.00264041
-0.00023138
0.00269877
-0.000166278
-0.0016226
0.00255203
0.00280331
-5.50597e-05
0.0027743
-3.80557e-05
0.00274923
-2.36735e-05
0.00272857
-1.40439e-05
0.00271275
-9.3105e-06
0.00270042
-6.43739e-06
0.00269098
-7.82781e-06
0.00268406
-1.37206e-05
0.0026783
-1.99183e-05
0.00267275
-2.86949e-05
0.00266747
-4.5419e-05
0.00266251
-6.44039e-05
0.00265755
-8.62268e-05
0.00265246
-0.000111401
0.00264837
-0.000135754
0.00264377
-0.000170286
0.00264689
-0.000163782
0.00264251
-0.000226999
0.00269526
-0.000219028
-0.00138807
0.00246072
0.0027761
-2.52992e-05
0.00275279
-1.47484e-05
0.00273279
-3.67092e-06
0.00271684
1.90642e-06
0.00270436
3.17133e-06
0.00269516
2.75842e-06
0.0026885
-1.16877e-06
0.00268437
-9.58744e-06
0.00268121
-1.67529e-05
0.00267894
-2.64252e-05
0.0026751
-4.15813e-05
0.00267137
-6.06792e-05
0.00266692
-8.17669e-05
0.00266159
-0.000106072
0.00265663
-0.000130794
0.00265042
-0.000164082
0.00265036
-0.000163722
0.00264232
-0.000218953
0.00268694
-0.000263651
-0.00104927
0.00234814
0.00272908
-3.14571e-06
0.00271329
1.03886e-06
0.00270061
9.0068e-06
0.00269155
1.09691e-05
0.00268539
9.32567e-06
0.00268179
6.35968e-06
0.00267935
1.2763e-06
0.00267837
-8.61497e-06
0.00267844
-1.68216e-05
0.00267897
-2.69496e-05
0.0026783
-4.09122e-05
0.00267615
-5.85302e-05
0.0026727
-7.83139e-05
0.00266652
-9.98959e-05
0.00265896
-0.000123232
0.00264637
-0.000151487
0.00263701
-0.000154366
0.00261455
-0.000196497
0.00263679
-0.000285889
-0.000603613
0.00219114
0.0026508
8.56333e-06
0.00264036
1.14774e-05
0.00263509
1.42769e-05
0.00263394
1.21193e-05
0.00263514
8.12301e-06
0.00263821
3.28813e-06
0.00264229
-2.80196e-06
0.00264457
-1.08976e-05
0.00264593
-1.81763e-05
0.00264643
-2.74504e-05
0.00264261
-3.70946e-05
0.00263301
-4.8932e-05
0.00261823
-6.3524e-05
0.00259586
-7.75271e-05
0.00256698
-9.43505e-05
0.00252244
-0.000106948
0.00249469
-0.000126616
0.00242591
-0.000127716
0.00235203
-0.000212013
-0.000136253
0.00188467
0.00221438
0.00222586
0.00224013
0.00225225
0.00226038
0.00226366
0.00226086
0.00224996
0.00223179
0.00220434
0.00216724
0.00211831
0.00205479
0.00197726
0.00188291
0.00177596
0.00164935
0.00152163
0.00130962
0.00117336
4.70808
-0.00218193
4.70758
-0.00218567
4.70708
-0.00218944
4.70659
-0.0021932
4.7061
-0.00219695
4.70562
-0.0022007
4.70514
-0.00220442
4.70466
-0.00220806
-0.00221116
4.70419
3.91827
-0.00206392
3.91816
-0.00206974
3.91804
-0.00207555
3.91793
-0.00208134
3.91782
-0.00208709
3.91771
-0.00209282
3.91761
-0.00209849
3.9175
-0.00210404
-0.00210902
3.9174
3.4117
-0.00218513
3.41182
-0.00219017
3.41194
-0.0021952
3.41206
-0.00220022
3.41218
-0.00220523
3.41229
-0.00221021
3.41241
-0.00221517
3.41253
-0.00222006
-0.00222478
3.41264
2.94398
-0.00220837
2.94401
-0.00221448
2.94403
-0.00222056
2.94406
-0.00222663
2.94409
-0.00223268
2.94412
-0.00223871
2.94414
-0.0022447
2.94418
-0.00225061
-0.002256
2.94421
2.53956
-0.00233441
2.53969
-0.00234125
2.53982
-0.00234804
2.53994
-0.00235481
2.54007
-0.00236155
2.5402
-0.00236827
2.54033
-0.00237494
2.54046
-0.0023815
-0.0023877
2.5406
2.194
-0.0024436
2.19411
-0.0024517
2.19422
-0.00245972
2.19433
-0.0024677
2.19445
-0.00247565
2.19456
-0.00248356
2.19468
-0.00249144
2.1948
-0.00249923
-0.00250673
2.19492
1.89258
-0.00260681
1.89275
-0.00261641
1.89291
-0.00262589
1.89308
-0.00263529
1.89325
-0.00264465
1.89342
-0.00265395
1.89359
-0.00266321
1.89377
-0.00267242
-0.00268173
1.89394
1.63417
1.63436
-0.00280038
1.63454
-0.00281136
1.63473
-0.00282219
1.63492
-0.00283292
1.63511
-0.00284357
1.6353
-0.00285414
1.63549
-0.00286465
-0.00287516
1.63568
1.41017
-0.00303472
1.41041
-0.00304726
1.41065
-0.00305953
1.41089
-0.00307165
1.41113
-0.00308364
1.41137
-0.00309552
1.41161
-0.00310729
-0.00311914
1.41185
1.21715
-0.0033103
1.21743
-0.00332394
1.21771
-0.00333722
1.21799
-0.00335028
1.21827
-0.00336316
1.21855
-0.00337586
1.21883
-0.00338841
-0.00340099
1.21911
1.05058
-0.00364081
1.05091
-0.0036547
1.05125
-0.0036681
1.05158
-0.0036812
1.05191
-0.00369405
1.05224
-0.00370665
1.05257
-0.00371902
-0.00373145
1.0529
0.907443
-0.00402485
0.907826
-0.00403727
0.908207
-0.00404904
0.908586
-0.00406042
0.908963
-0.00407146
0.909339
-0.00408216
0.909712
-0.00409258
-0.00410301
0.910084
0.784653
-0.00446579
0.78509
-0.00447381
0.785522
-0.00448107
0.785949
-0.00448785
0.786372
-0.0044942
0.78679
-0.00450018
0.787203
-0.00450582
-0.00451149
0.787612
0.679734
-0.00495801
0.680218
-0.00495728
0.680692
-0.0049557
0.681158
-0.00495354
0.681615
-0.00495091
0.682062
-0.00494783
0.682501
-0.00494433
-0.00494089
0.68293
0.59043
-0.00548802
0.590944
-0.00547146
0.591442
-0.00545402
0.591925
-0.0054361
0.592392
-0.00541785
0.592843
-0.00539934
0.59328
-0.00538065
-0.00536228
0.593701
0.514656
-0.00602926
0.515172
-0.00598718
0.515662
-0.00594457
0.516128
-0.00590186
0.516569
-0.00585931
0.516987
-0.00581708
0.517382
-0.00577535
-0.00573456
0.517754
0.450638
-0.00654013
0.451111
-0.00646011
0.451547
-0.00638066
0.451947
-0.00630239
0.452313
-0.00622562
0.452647
-0.0061506
0.452949
-0.00607754
-0.00600682
0.453221
0.396756
-0.00701544
0.397181
-0.00688541
0.397558
-0.00675755
0.397888
-0.00663197
0.398171
-0.00650891
0.398409
-0.00638863
0.398604
-0.00627216
-0.00616058
0.398758
0.352915
-0.00743269
0.353256
-0.00722676
0.35352
-0.00702115
0.353703
-0.00681546
0.35381
-0.00661548
0.35384
-0.00641879
0.353801
-0.00623288
-0.0060629
0.353703
0.316166
-0.00743687
0.316029
-0.00709043
0.315776
-0.00676775
0.315412
-0.00645197
0.314946
-0.00614904
0.31438
-0.00585308
0.313715
-0.00556735
-0.0052943
0.312946
0.276435
-0.00633377
0.275153
-0.00580895
0.273704
-0.00531857
0.272101
-0.00484857
0.270352
-0.00440065
0.268471
-0.00397169
0.266462
-0.00355898
-0.00316639
0.264335
0.214633
-0.00343271
0.211681
-0.00285668
0.208677
-0.00231458
0.205633
-0.00180496
0.20256
-0.00132759
0.199471
-0.000882232
0.19638
-0.000468638
-0.000106679
0.19332
0.138398
-0.000225285
0.135247
0.000295036
0.132154
0.000777781
0.129125
0.00122378
0.126166
0.00163217
0.123282
0.00200124
0.120486
0.00232707
0.0025896
0.11779
0.0767627
0.00222569
0.0743673
0.00269046
0.072025
0.00312006
0.0697352
0.00351365
0.0674989
0.00386839
0.0653196
0.00418059
0.0632018
0.00444484
0.00464624
0.0611452
0.0353747
0.00405241
0.0335816
0.0044836
0.0318216
0.00488003
0.030096
0.00523925
0.0284072
0.00555717
0.0267585
0.00582935
0.0251524
0.0060509
0.00621554
0.0235831
0.00915849
0.00538978
0.00783768
0.00580441
0.00653404
0.00618366
0.00525008
0.00652321
0.00398992
0.00681733
0.00275894
0.00706033
0.00156086
0.00724899
0.00738172
0.00039467
-0.00647704
0.00633372
-0.00741589
0.00674326
-0.00834834
0.00711611
-0.00927071
0.00744558
-0.010177
0.00772357
-0.0110584
0.00794177
-0.0119039
0.00809452
0.00818413
-0.0127063
-0.015055
0.00693947
-0.0156636
0.00735189
-0.0162736
0.00772607
-0.0168804
0.00805237
-0.0174761
0.00831928
-0.0180481
0.0085138
-0.0185778
0.00862426
0.00865775
-0.0190515
-0.0190786
0.00724514
-0.0193927
0.00766602
-0.019714
0.00804731
-0.0200374
0.00837586
-0.0203535
0.00863529
-0.0206447
0.00880501
-0.0208906
0.00887016
0.00882389
-0.0210567
-0.0202907
0.00727953
-0.0203371
0.00771234
-0.0203941
0.00810437
-0.0204568
0.00843856
-0.0205143
0.00869273
-0.0205386
0.0088293
-0.0205027
0.00883432
0.00868753
-0.0203664
-0.0198776
0.00706262
-0.0196742
0.00750899
-0.0194828
0.00791296
-0.0192972
0.00825288
-0.0191036
0.00849921
-0.01888
0.00860565
-0.018596
0.00855029
0.00829674
-0.0182052
-0.0186448
0.00660674
-0.0182059
0.00707005
-0.0177827
0.00748981
-0.0173691
0.00783928
-0.0169526
0.00808265
-0.0165258
0.00817885
-0.016061
0.00808556
0.0077409
-0.0155052
-0.0171723
0.00592245
-0.0165108
0.00640863
-0.0158753
0.0068543
-0.0152635
0.00722746
-0.0146675
0.00748665
-0.0140798
0.00759111
-0.0134828
0.00748863
0.00707854
-0.0128205
-0.015898
0.00502484
-0.0150246
0.00553525
-0.014187
0.00601667
-0.0133911
0.00643153
-0.0126335
0.00672905
-0.0119106
0.00686822
-0.0112208
0.00679883
0.00634671
-0.0104889
-0.0151327
0.00394682
-0.0140674
0.00446998
-0.0130352
0.00498447
-0.0120549
0.00545123
-0.0111317
0.00580584
-0.0102708
0.00600726
-0.00949571
0.00602378
0.00554937
-0.00869837
-0.0150297
0.00274671
-0.0138169
0.00325726
-0.0126182
0.00378573
-0.0114622
0.00429521
-0.0103629
0.00470655
-0.0093391
0.00498348
-0.00845121
0.00513589
0.00464502
-0.00754685
-0.0155693
0.00151008
-0.0142823
0.00197027
-0.012973
0.00247642
-0.0116766
0.00299881
-0.0104147
0.00344461
-0.00921514
0.00378393
-0.00817289
0.00409364
0.00355538
-0.00708324
-0.0165781
0.000339329
-0.0153159
0.000707978
-0.0139837
0.00114428
-0.0126155
0.00163064
-0.0112356
0.00206471
-0.00987399
0.00242228
-0.00864941
0.00286906
0.00221187
-0.00730589
-0.0177921
-0.000666353
-0.0166625
-0.00042161
-0.0154176
-0.000100642
-0.0140799
0.000292918
-0.0126673
0.000652131
-0.0111964
0.000951328
-0.00977723
0.00144994
0.000585631
-0.00815098
-0.0189337
-0.00142961
-0.0180335
-0.00132185
-0.0169885
-0.00114558
-0.0158025
-0.000893114
-0.0144781
-0.000672309
-0.0130008
-0.000525939
-0.0114185
-0.000132412
-0.00128933
-0.00954348
-0.0197715
-0.00191027
-0.0191658
-0.00192758
-0.0184131
-0.00189826
-0.0174966
-0.00180968
-0.0163982
-0.00177065
-0.0150632
-0.00186093
-0.0134355
-0.00176012
-0.00331645
-0.0114084
-0.0201587
-0.0021105
-0.0198671
-0.0022191
-0.0194558
-0.0023096
-0.018893
-0.00237253
-0.0181429
-0.0025207
-0.0171114
-0.00289244
-0.0156261
-0.0032454
-0.00533047
-0.0136121
-0.0200411
-0.00206758
-0.0200377
-0.00222258
-0.019963
-0.00238423
-0.0197821
-0.00255347
-0.0194511
-0.00285173
-0.0188487
-0.00349477
-0.0176974
-0.00439669
-0.00709995
-0.015928
-0.0194433
-0.00184411
-0.0196659
-0.00199992
-0.019874
-0.00217619
-0.0200405
-0.00238695
-0.0201275
-0.00276475
-0.0200108
-0.00361141
-0.0193354
-0.0050721
-0.00836907
-0.0180663
-0.0184465
-0.00151208
-0.0188129
-0.00163357
-0.0192136
-0.00177547
-0.0196383
-0.00196225
-0.0200687
-0.00233434
-0.0204107
-0.00326945
-0.0202885
-0.00519426
-0.00891877
-0.0197388
-0.0171567
-0.00113605
-0.0175832
-0.00120709
-0.0180714
-0.00128731
-0.0186297
-0.00140391
-0.0192704
-0.00169371
-0.0199626
-0.0025772
-0.0203935
-0.00476338
-0.00860193
-0.0207103
-0.0156268
-0.000767248
-0.0160436
-0.000790243
-0.0165253
-0.000805687
-0.0170939
-0.000835232
-0.0177909
-0.00099674
-0.0186673
-0.00170076
-0.0195652
-0.00386548
-0.00740301
-0.0207642
-0.0138222
-0.000449636
-0.0141667
-0.00044584
-0.0145493
-0.000422994
-0.0149945
-0.000390112
-0.0155658
-0.000425413
-0.0164199
-0.000846621
-0.0177013
-0.00258417
-0.00540627
-0.019698
-0.0116021
-0.000214158
-0.0118313
-0.000216662
-0.0120517
-0.000202613
-0.0122768
-0.000164975
-0.0125666
-0.000135658
-0.0131625
-0.000250722
-0.0146253
-0.00112137
-0.00283321
-0.0171983
-0.00800225
-0.00821891
-0.00842152
-0.0085865
-0.00872215
-0.00897288
-0.0100942
-0.0129275
-0.0971567
-3.6312
0.0179913
-3.07543
0.118672
-2.69504
0.205328
-2.33876
0.280094
-2.0317
0.344951
-1.7644
0.401181
-1.5325
0.45003
-1.33121
0.492488
-1.15643
0.529409
-1.00465
0.561526
-0.872794
0.589463
-0.758234
0.613762
-0.658695
0.6349
-0.57221
0.653284
-0.497063
0.669277
-0.431778
0.683202
-0.375071
0.695322
-0.325804
0.705872
-0.283002
0.715054
-0.245821
0.723044
-0.213522
0.729997
-0.185465
0.736046
-0.161093
0.741308
-0.139923
0.745886
-0.121534
0.749866
-0.105561
0.753327
-0.0916866
0.756336
-0.0796354
0.758951
-0.0691679
0.761224
-0.0600761
0.7632
-0.0521793
0.764916
-0.0453205
0.766408
-0.0393633
0.767705
-0.0341893
0.768831
-0.0296953
0.76981
-0.0257921
0.770661
-0.0224019
0.7714
-0.0194573
0.772043
-0.0168997
0.772601
-0.0146783
0.773086
-0.0127488
0.773507
-0.0110729
0.773873
-0.00961724
0.77419
-0.00835292
0.774466
-0.00725478
0.774706
-0.00630098
0.774915
-0.00547255
0.775095
-0.00475302
0.775253
-0.00412809
-0.0035853
0.775389
-0.0839807
-3.75502
0.0167859
-3.1762
0.105171
-2.78342
0.180654
-2.41424
0.246014
-2.09706
0.302541
-1.82093
0.3516
-1.58156
0.394256
-1.37387
0.431391
-1.19357
0.463745
-1.037
0.491945
-0.900993
0.516531
-0.78282
0.537969
-0.680134
0.556659
-0.5909
0.572954
-0.513357
0.587152
-0.445977
0.599509
-0.387428
0.610261
-0.336556
0.619614
-0.292356
0.627748
-0.253955
0.634819
-0.220594
0.640967
-0.191612
0.64631
-0.166437
0.650954
-0.144567
0.654991
-0.125571
0.6585
-0.10907
0.661549
-0.0947358
0.664198
-0.0822842
0.666499
-0.0714682
0.668496
-0.0620732
0.670229
-0.0539128
0.671734
-0.046825
0.673039
-0.0406689
0.674172
-0.0353222
0.675155
-0.0306785
0.676009
-0.0266453
0.676749
-0.0231424
0.677392
-0.0200999
0.677949
-0.0174575
0.678434
-0.0151624
0.678854
-0.013169
0.679218
-0.0114376
0.679535
-0.00993383
0.67981
-0.00862771
0.680048
-0.00749329
0.680255
-0.006508
0.680435
-0.00565223
0.680591
-0.00490897
0.680726
-0.00426343
-0.00370277
0.680844
-0.0720266
-3.864
0.0162792
-3.2645
0.0936688
-2.86081
0.159565
-2.48014
0.216637
-2.15413
0.265852
-1.87014
0.308525
-1.62424
0.345587
-1.41093
0.377818
-1.2258
0.405865
-1.06505
0.43028
-0.925408
0.451536
-0.804076
0.470043
-0.698642
0.48616
-0.607016
0.500193
-0.52739
0.512412
-0.458196
0.523051
-0.398067
0.532315
-0.345819
0.54038
-0.300421
0.547401
-0.260975
0.55351
-0.226703
0.558825
-0.196928
0.563448
-0.171059
0.567465
-0.148584
0.57095
-0.129057
0.573969
-0.112089
0.576579
-0.0973452
0.578829
-0.084535
0.580767
-0.0734061
0.582433
-0.0637392
0.583864
-0.0553435
0.585092
-0.0480529
0.586146
-0.0417226
0.58705
-0.0362265
0.587826
-0.031455
0.588494
-0.0273125
0.589067
-0.0237161
0.589561
-0.0205937
0.589986
-0.0178828
0.590353
-0.015529
0.590669
-0.0134853
0.590942
-0.0117106
0.591178
-0.0101696
0.591382
-0.0088315
0.591558
-0.00766948
0.591711
-0.00666039
0.591842
-0.00578408
0.591957
-0.00502309
0.592055
-0.00436223
-0.00378831
0.592141
-0.0613308
-3.96017
0.0162279
-3.34206
0.0839137
-2.9285
0.141366
-2.53759
0.191002
-2.20376
0.23368
-1.91282
0.270621
-1.66118
0.302658
-1.44297
0.330506
-1.25365
0.354729
-1.08927
0.375816
-0.946496
0.394192
-0.822452
0.410216
-0.714665
0.42419
-0.62099
0.436376
-0.539577
0.447002
-0.468822
0.456265
-0.40733
0.464337
-0.353892
0.47137
-0.307454
0.477496
-0.267101
0.482828
-0.232036
0.487464
-0.201563
0.491482
-0.175078
0.494951
-0.152053
0.497927
-0.132033
0.500462
-0.114625
0.502608
-0.0994911
0.504412
-0.0863389
0.50592
-0.0749139
0.507175
-0.0649939
0.508215
-0.0563843
0.509077
-0.0489148
0.509791
-0.042436
0.510382
-0.0368173
0.510872
-0.031945
0.511279
-0.0277198
0.511618
-0.0240555
0.511902
-0.0208773
0.512139
-0.0181204
0.512339
-0.0157287
0.512507
-0.0136536
0.51265
-0.0118529
0.51277
-0.0102901
0.512872
-0.00893384
0.512959
-0.00775659
0.513034
-0.00673467
0.513097
-0.00584755
0.513152
-0.0050774
0.513198
-0.00440877
-0.00382825
0.513238
-0.0518278
-4.04502
0.016208
-3.4101
0.0754418
-2.98773
0.125525
-2.58767
0.168647
-2.24689
0.205566
-1.94974
0.237398
-1.69301
0.264952
-1.47052