/*--------------------------------*- C++ -*----------------------------------*\
  =========                 |
  \\      /  F ield         | OpenFOAM: The Open Source CFD Toolbox
   \\    /   O peration     | Website:  https://openfoam.org
    \\  /    A nd           | Version:  9
     \\/     M anipulation  |
\*---------------------------------------------------------------------------*/
FoamFile
{
    format      ascii;
    class       volVectorField;
    location    "0.0025";
    object      U;
}
// * * * * * * * * * * * * * * * * * * * * * * * * * * * * * * * * * * * * * //

dimensions      [0 1 -1 0 0 0 0];

internalField   nonuniform List<vector> 
7864
(
(4.14457 -0.0154445 1.86501e-17)
(4.02599 0.0187167 -6.95203e-17)
(3.85299 0.0325756 0)
(3.6734 0.0388999 0)
(3.49769 0.0460935 0)
(3.32435 0.0524487 0)
(3.16641 0.0543172 -1.33873e-15)
(3.0419 0.0537272 1.37591e-15)
(2.93361 0.0555128 0)
(2.82423 0.0601737 0)
(2.70517 0.0647847 0)
(2.57148 0.067079 0)
(2.40453 0.0642602 0)
(2.15722 0.0607281 0)
(1.63453 0.000901333 0)
(4.17807 0.0170569 0)
(4.16432 0.0291511 0)
(4.14136 0.0317039 -2.01919e-16)
(4.11293 0.0328213 2.71073e-16)
(4.08292 0.0334714 -6.52939e-16)
(4.05192 0.0329367 7.47317e-16)
(4.01309 0.0307049 0)
(3.96292 0.0275715 -8.37359e-16)
(3.90924 0.026325 8.72501e-16)
(3.85653 0.0270661 0)
(3.80379 0.0292084 0)
(3.74777 0.0343063 0)
(3.6765 0.0458836 -2.09872e-15)
(3.59479 0.0817301 2.10826e-15)
(3.32738 0.129442 -2.03747e-15)
(4.18256 0.0145758 -5.83205e-18)
(4.19474 0.0260381 -1.74018e-17)
(4.20701 0.0304263 6.183e-17)
(4.21519 0.0321767 0)
(4.22161 0.0335968 0)
(4.22664 0.0341729 0)
(4.22735 0.0340558 0)
(4.21755 0.0335415 0)
(4.20087 0.0334957 0)
(4.18216 0.0347142 -1.467e-15)
(4.16314 0.0377472 1.57139e-15)
(4.14413 0.0448391 0)
(4.11889 0.0555492 0)
(4.09354 0.0884116 0)
(4.00463 0.147631 0)
(4.18405 0.0115897 0)
(4.20502 0.0221086 2.50618e-17)
(4.23095 0.026952 -4.53033e-17)
(4.2543 0.0287233 0)
(4.27627 0.0301173 0)
(4.29661 0.0310911 4.12244e-16)
(4.31473 0.03206 -4.84385e-16)
(4.32763 0.0324743 0)
(4.33574 0.0326831 0)
(4.34089 0.0334467 1.32279e-15)
(4.34428 0.0354196 -1.42628e-15)
(4.34684 0.0410347 1.51011e-15)
(4.34578 0.049859 -3.08801e-15)
(4.34156 0.0768272 1.54138e-15)
(4.31327 0.132732 -1.46717e-15)
(4.1845 0.00885676 4.00411e-18)
(4.20859 0.0174274 -1.00094e-17)
(4.24036 0.0215873 0)
(4.27087 0.0232793 0)
(4.3006 0.0246768 0)
(4.32899 0.0257387 0)
(4.35573 0.0267926 4.25831e-16)
(4.37984 0.027303 -4.89428e-16)
(4.40111 0.027766 -5.46927e-16)
(4.41986 0.0285886 5.98609e-16)
(4.43638 0.0301914 -1.2895e-15)
(4.45141 0.0349918 1.36735e-15)
(4.46372 0.0431289 0)
(4.47354 0.0621153 1.42743e-15)
(4.47268 0.109886 -1.39382e-15)
(4.1845 0.00622312 3.64221e-18)
(4.20936 0.012359 -8.61015e-18)
(4.24343 0.0154635 0)
(4.27735 0.0171302 -9.47434e-17)
(4.3109 0.0185823 1.28194e-16)
(4.34347 0.0197379 0)
(4.37455 0.0207445 0)
(4.40374 0.0213275 0)
(4.43098 0.0219641 0)
(4.45612 0.0228607 0)
(4.47906 0.0243362 0)
(4.50045 0.0283458 0)
(4.52034 0.0353223 0)
(4.53954 0.0492974 0)
(4.55529 0.0839765 0)
(4.18434 0.0035335 0)
(4.20895 0.00709534 0)
(4.24342 0.00907932 0)
(4.27877 0.0105474 8.75136e-17)
(4.31434 0.0120327 1.19782e-16)
(4.349 0.0133419 -3.03663e-16)
(4.38201 0.0143514 -3.64434e-16)
(4.41317 0.014996 4.20015e-16)
(4.44257 0.0157346 0)
(4.47025 0.0167079 1.02758e-15)
(4.49622 0.0180487 -1.11028e-15)
(4.5208 0.021197 0)
(4.54451 0.02675 0)
(4.56826 0.036964 0)
(4.59234 0.0598846 -1.33387e-15)
(4.18417 0.000875183 3.42135e-18)
(4.20804 0.00168359 -7.64982e-18)
(4.24187 0.00257874 -5.54731e-17)
(4.27733 0.00372591 8.57048e-17)
(4.31366 0.00516054 2.35616e-16)
(4.34938 0.00664993 -5.97467e-16)
(4.38343 0.00769881 3.58342e-16)
(4.41567 0.00849647 0)
(4.44624 0.00938109 -4.62036e-16)
(4.47515 0.0104527 5.06593e-16)
(4.50242 0.0117713 -1.09636e-15)
(4.52827 0.0143192 2.0367e-21)
(4.55332 0.0186425 1.23997e-15)
(4.57858 0.0257988 0)
(4.60546 0.0411269 0)
(4.18402 -0.00171334 3.53741e-18)
(4.20691 -0.00371976 -7.932e-18)
(4.23949 -0.00387748 5.73831e-17)
(4.27368 -0.00317354 -1.77567e-16)
(4.30931 -0.00188149 3.66165e-16)
(4.34469 -0.000242636 -3.08848e-16)
(4.37857 0.000891145 0)
(4.41082 0.00189247 4.25408e-16)
(4.4416 0.00294594 -4.75751e-16)
(4.47092 0.00413469 1.04271e-15)
(4.49882 0.00547936 -1.12732e-15)
(4.52538 0.00764546 0)
(4.55105 0.0109922 0)
(4.57674 0.0158961 0)
(4.60338 0.0253553 -1.39017e-15)
(4.18392 -0.00420651 3.79201e-18)
(4.20556 -0.00886495 -8.6497e-18)
(4.23626 -0.0101488 0)
(4.26813 -0.00987799 0)
(4.30109 -0.00878048 2.62862e-16)
(4.33399 -0.00709897 -3.31729e-16)
(4.3657 -0.00585301 0)
(4.39608 -0.00469264 0)
(4.42523 -0.00350657 0)
(4.45316 -0.00221439 0)
(4.47996 -0.00082776 0)
(4.50569 0.00111338 0)
(4.5306 0.00378024 0)
(4.55543 0.00721291 0)
(4.58109 0.0123349 0)
(4.18382 -0.00656183 0)
(4.20376 -0.0136575 0)
(4.23164 -0.0160582 7.05079e-17)
(4.25973 -0.0161315 -1.07253e-16)
(4.2885 -0.0151652 0)
(4.31729 -0.0134953 0)
(4.34528 -0.0121373 0)
(4.37239 -0.0108476 0)
(4.39851 -0.0095349 -5.55999e-16)
(4.42367 -0.00814574 6.07449e-16)
(4.448 -0.00672662 -1.309e-15)
(4.4717 -0.00485277 1.39784e-15)
(4.49483 -0.0025558 0)
(4.51782 0.00021779 0)
(4.5406 0.00216177 1.61502e-15)
(4.18361 -0.00884646 4.89887e-18)
(4.20082 -0.0179508 -1.22039e-17)
(4.224 -0.021132 0)
(4.24595 -0.0214369 0)
(4.26793 -0.0205613 0)
(4.28991 -0.0190174 0)
(4.31157 -0.0175905 0)
(4.333 -0.0161492 0)
(4.35368 -0.0146784 0)
(4.3737 -0.013187 0)
(4.39336 -0.0117194 0)
(4.41292 -0.00989257 0)
(4.43243 -0.00771821 0)
(4.45143 -0.00577701 0)
(4.47022 -0.00513699 1.81735e-15)
(4.18307 -0.0112235 6.10385e-18)
(4.1949 -0.0214174 1.66885e-17)
(4.20853 -0.024746 -5.76563e-17)
(4.21985 -0.0249869 -1.64908e-16)
(4.23029 -0.0241367 2.13591e-16)
(4.24031 -0.0228633 0)
(4.25018 -0.0214981 0)
(4.26019 -0.0197681 0)
(4.26838 -0.0179773 0)
(4.27639 -0.0163698 0)
(4.2852 -0.0148531 0)
(4.29491 -0.0127039 0)
(4.3053 -0.0104284 0)
(4.31609 -0.00691325 0)
(4.32563 -0.00594371 0)
(4.18132 -0.0129178 0)
(4.17862 -0.0235014 -5.48975e-17)
(4.16984 -0.0250864 9.32604e-17)
(4.15816 -0.0251366 0)
(4.1451 -0.0244305 0)
(4.13062 -0.0237178 7.31315e-16)
(4.11485 -0.022961 -8.29934e-16)
(4.0976 -0.0223188 0)
(4.07533 -0.0220523 -9.76597e-16)
(4.05211 -0.0220726 1.04524e-15)
(4.02929 -0.0224112 -2.22319e-15)
(4.00706 -0.022395 2.34671e-15)
(3.9855 -0.0221452 0)
(3.96712 -0.0219974 0)
(3.94067 -0.0242602 2.58332e-15)
(4.16252 0.0054876 0)
(4.09998 -0.0111435 0)
(4.00323 -0.0127399 0)
(3.8963 -0.00960165 0)
(3.78681 -0.00483851 1.12694e-15)
(3.67434 -0.000403443 -1.23366e-15)
(3.55688 0.0049371 -1.32972e-15)
(3.43534 0.0115753 1.41375e-15)
(3.31696 0.0175835 0)
(3.1935 0.0229729 0)
(3.06266 0.0286153 0)
(2.92469 0.0353523 0)
(2.7794 0.0435553 3.58509e-15)
(2.62776 0.0546214 -3.74694e-15)
(2.49767 0.0625004 -3.85626e-15)
(1.32081 -0.0537479 5.56655e-15)
(1.37786 -0.0197043 -1.06498e-14)
(1.57326 0.136442 2.87253e-15)
(1.79395 0.392053 0)
(1.99768 0.69493 -2.00225e-15)
(2.19707 1.06349 0)
(2.43721 1.50331 0)
(2.70317 1.99576 0)
(2.9831 2.51818 -1.21222e-20)
(3.26728 3.06226 -3.88373e-16)
(3.55184 3.65003 3.92618e-16)
(3.87168 4.29714 0)
(4.26406 5.01457 -2.13708e-16)
(4.82563 5.81554 -2.29171e-16)
(5.65986 6.62852 -4.95241e-16)
(3.15654 0.210074 2.69611e-15)
(3.15251 0.311858 -3.88978e-15)
(3.21537 0.482971 4.88292e-15)
(3.30627 0.70588 -1.17202e-15)
(3.40516 0.976302 1.14494e-15)
(3.51071 1.30534 -1.13882e-15)
(3.65053 1.69967 0)
(3.83061 2.16536 0)
(4.04514 2.69744 0)
(4.29605 3.30677 0)
(4.58166 4.00911 0)
(4.90486 4.82817 0)
(5.29783 5.78336 0)
(5.86425 6.91206 -4.48416e-16)
(6.68429 8.151 4.85731e-16)
(3.94278 0.221439 5.15811e-16)
(3.94099 0.318434 2.01637e-15)
(3.96809 0.473284 -1.95248e-15)
(4.01144 0.67801 9.61584e-16)
(4.0668 0.933898 -1.92634e-15)
(4.13966 1.24749 1.95501e-15)
(4.2484 1.63191 -5.0108e-16)
(4.40827 2.08605 5.223e-16)
(4.61948 2.60461 0)
(4.88789 3.19452 5.60637e-16)
(5.22795 3.87099 2.79969e-16)
(5.64542 4.66148 2.83072e-16)
(6.14591 5.59735 -4.35714e-16)
(6.82088 6.69185 8.37635e-16)
(7.76366 7.91154 -4.02575e-16)
(4.2998 0.202976 1.36294e-15)
(4.31455 0.293268 1.78982e-15)
(4.34531 0.423775 -8.7985e-16)
(4.38645 0.597578 -8.80312e-16)
(4.44034 0.822743 8.93684e-16)
(4.51669 1.1062 0)
(4.62962 1.46098 -9.50588e-16)
(4.79633 1.88242 4.97904e-16)
(5.02514 2.37077 -5.27145e-16)
(5.32371 2.9367 -1.0519e-15)
(5.70413 3.59443 0)
(6.19271 4.36115 -3.87877e-16)
(6.80527 5.26465 7.8148e-16)
(7.58223 6.33292 -6.70069e-16)
(8.60045 7.58532 5.57758e-16)
(4.48034 0.17555 2.1191e-15)
(4.50361 0.25553 -2.50682e-15)
(4.53988 0.365065 -1.08277e-21)
(4.58763 0.512611 0)
(4.65029 0.708329 0)
(4.73775 0.96033 8.92497e-16)
(4.86402 1.278 -9.33377e-16)
(5.04542 1.66013 1.47345e-15)
(5.29518 2.11038 -5.20355e-16)
(5.62536 2.6407 1.02381e-15)
(6.05171 3.26627 -2.49513e-16)
(6.60006 4.00467 1.22456e-16)
(7.31028 4.88009 -4.84084e-16)
(8.23573 5.90662 4.25574e-16)
(9.34939 7.18131 -3.09999e-16)
(4.57506 0.139998 4.03581e-16)
(4.60339 0.2132 8.0101e-16)
(4.64312 0.310385 8.08386e-16)
(4.69587 0.437737 -1.6507e-15)
(4.76697 0.605151 0)
(4.86528 0.823265 -4.5789e-21)
(5.00465 1.09909 -9.36126e-16)
(5.20102 1.43799 -1.48353e-15)
(5.47036 1.8462 1.04871e-15)
(5.82921 2.3316 -5.11584e-16)
(6.29668 2.91093 0)
(6.90192 3.6075 -4.77556e-16)
(7.68585 4.44671 -1.16068e-16)
(8.7474 5.41986 -1.14081e-16)
(10.0309 6.64008 2.83449e-17)
(4.62012 0.103188 1.34534e-15)
(4.6536 0.168655 0)
(4.69629 0.254139 0)
(4.75241 0.363939 0)
(4.82859 0.507742 0)
(4.93384 0.694606 9.03441e-16)
(5.08176 0.93261 0)
(5.28981 1.22611 1.51772e-15)
(5.57459 1.58116 -1.58847e-20)
(5.95635 2.00842 -2.6139e-16)
(6.46004 2.52938 -2.4989e-16)
(7.11809 3.17059 3.5833e-16)
(7.97124 3.95737 2.28721e-16)
(9.12381 4.89819 3.85981e-16)
(10.6016 6.03108 -5.33932e-17)
(4.63743 0.0709771 -3.73012e-16)
(4.67561 0.126011 -7.71465e-16)
(4.72049 0.198833 0)
(4.7777 0.292717 8.37116e-16)
(4.85548 0.415299 -8.79546e-16)
(4.96338 0.572933 -5.40568e-21)
(5.11366 0.771391 -1.48158e-15)
(5.32449 1.01678 1.16183e-20)
(5.61654 1.31698 1.59049e-20)
(6.01349 1.68708 9.35284e-21)
(6.54512 2.14552 0)
(7.24892 2.71764 1.22377e-16)
(8.17738 3.43554 5.38896e-21)
(9.40508 4.31854 -1.09405e-16)
(11.0564 5.39095 2.06944e-16)
(4.63606 0.0469765 3.35931e-15)
(4.6767 0.0898356 -7.8268e-16)
(4.72278 0.148347 2.46488e-15)
(4.7795 0.226393 -1.72962e-15)
(4.8556 0.328373 0)
(4.96145 0.458455 1.94617e-15)
(5.11017 0.622427 -1.03816e-15)
(5.31975 0.829789 -1.10928e-15)
(5.61218 1.08647 0)
(6.01474 1.40321 0)
(6.56319 1.79753 2.72197e-16)
(7.29896 2.29373 -3.83641e-16)
(8.29015 2.92582 -2.38709e-16)
(9.60205 3.71179 1.66827e-16)
(11.4076 4.72525 -5.1528e-17)
(4.61306 0.0284532 -1.92432e-16)
(4.65459 0.0623399 0)
(4.70121 0.108297 -8.60578e-16)
(4.75656 0.171489 -9.10674e-16)
(4.82915 0.255801 1.93537e-15)
(4.93 0.363892 5.77152e-21)
(5.07291 0.500418 5.51771e-16)
(5.27645 0.672349 2.94012e-21)
(5.56377 0.884924 -6.31471e-16)
(5.96536 1.14726 0)
(6.5224 1.47725 5.80449e-16)
(7.28051 1.89603 0)
(8.32125 2.43629 2.51587e-16)
(9.70845 3.11375 2.31353e-16)
(11.6633 4.01275 -2.10538e-16)
(4.56847 0.0136542 -1.63837e-15)
(4.60629 0.0408429 0)
(4.64931 0.0758207 -2.29967e-15)
(4.70006 0.125058 2.92122e-15)
(4.76504 0.193318 -1.03534e-15)
(4.85536 0.281386 -1.10516e-15)
(4.98634 0.392661 0)
(5.1784 0.532788 6.34952e-16)
(5.45603 0.706535 1.35562e-15)
(5.85275 0.921222 0)
(6.4138 1.1923 -6.25184e-16)
(7.18836 1.53673 -1.46227e-16)
(8.27024 1.98319 2.24451e-20)
(9.71905 2.54946 -1.22735e-16)
(11.8169 3.30738 0)
(4.49198 0.00299206 -1.80274e-15)
(4.52103 0.0248588 -1.90124e-15)
(4.55217 0.0520922 2.49512e-15)
(4.58785 0.0904173 -1.57817e-15)
(4.63424 0.143532 1.11737e-15)
(4.70322 0.212807 0)
(4.8129 0.300888 -6.39789e-16)
(4.98633 0.410733 6.88557e-16)
(5.25046 0.544453 -7.27334e-16)
(5.64018 0.710264 0)
(6.20562 0.921156 3.39879e-16)
(6.99811 1.18931 -1.59446e-16)
(8.12438 1.53354 -5.87368e-16)
(9.63599 1.96979 2.65767e-16)
(11.8814 2.56005 -1.17959e-16)
(4.32855 0.00165476 0)
(4.32989 0.0179251 2.66887e-16)
(4.32778 0.0381062 0)
(4.32589 0.0680195 1.1695e-15)
(4.33502 0.107721 -1.24403e-15)
(4.37048 0.160743 -1.32898e-15)
(4.45317 0.229135 1.42463e-15)
(4.60668 0.314755 0)
(4.86053 0.417874 7.87683e-16)
(5.2497 0.547975 -1.16465e-15)
(5.82505 0.713365 3.7446e-16)
(6.63745 0.927743 -3.52852e-16)
(7.80728 1.19726 1.63049e-16)
(9.3815 1.54029 7.34147e-17)
(11.77 1.95746 3.24144e-17)
(3.87948 -0.013477 -2.45493e-15)
(3.80406 -0.00178496 -3.205e-16)
(3.72817 0.0125961 0)
(3.6651 0.0323221 -7.1816e-16)
(3.63183 0.0576633 0)
(3.64197 0.0914666 1.64703e-15)
(3.7137 0.132716 -2.63533e-15)
(3.87104 0.181015 9.20844e-16)
(4.13863 0.237143 0)
(4.55072 0.307397 4.60164e-16)
(5.16507 0.394158 -4.44794e-16)
(6.0327 0.500501 2.09279e-16)
(7.28068 0.624339 0)
(8.95149 0.795048 -1.703e-16)
(11.5202 0.97163 -7.44267e-17)
(2.29963 0.0857122 3.67487e-15)
(2.12225 0.105973 0)
(2.00331 0.125414 -4.31984e-15)
(1.93432 0.148312 2.32175e-15)
(1.91048 0.174381 2.47925e-15)
(1.9415 0.211043 0)
(2.03448 0.263052 1.34157e-15)
(2.1959 0.32957 -1.33947e-15)
(2.44402 0.416414 -1.31098e-15)
(2.81838 0.525413 1.25713e-15)
(3.38663 0.660007 0)
(4.18889 0.803221 0)
(5.4705 0.95608 0)
(6.86688 1.10161 1.07445e-16)
(10.0078 1.09272 4.64291e-17)
(6.98678 7.41518 0)
(8.89637 8.30631 0)
(10.949 9.16751 0)
(13.2956 9.88875 -9.00903e-16)
(16.0833 10.4895 8.81965e-16)
(19.4745 11.0057 -6.47704e-16)
(23.6839 11.4308 4.21869e-16)
(28.9312 11.7247 2.05767e-16)
(35.5812 11.81 0)
(43.7895 11.6007 -1.90471e-16)
(54.2054 11.0156 3.6402e-16)
(65.6477 9.65629 -8.59269e-17)
(80.3803 7.52411 -8.04269e-17)
(85.7518 4.65688 0)
(92.5798 0.900847 1.40226e-17)
(8.0321 9.34482 0)
(9.93001 10.4713 0)
(12.1922 11.6045 1.2878e-17)
(14.9139 12.6455 3.93249e-16)
(18.2706 13.6102 -1.99248e-16)
(22.4413 14.5606 1.93562e-16)
(27.7015 15.5078 1.47492e-18)
(34.4123 16.4187 0)
(43.1577 17.2658 -1.79353e-16)
(54.4341 17.8477 -1.72247e-16)
(69.482 17.9324 -1.64009e-16)
(87.7647 17.2724 3.14775e-19)
(112.638 15.4867 7.05839e-17)
(132.64 12.4931 0)
(160.14 2.66438 8.39945e-21)
(9.27265 8.91714 2.32167e-17)
(11.2504 9.77088 1.63364e-16)
(13.6116 10.6132 0)
(16.3893 11.4102 5.74658e-18)
(19.7877 12.1739 -1.88441e-16)
(24.0042 12.9458 -1.807e-16)
(29.3236 13.72 3.39233e-19)
(36.1251 14.4591 1.74481e-16)
(44.9963 15.1044 1.70765e-16)
(56.5421 15.5962 1.65292e-16)
(71.9795 15.7499 -7.89347e-17)
(91.255 15.223 7.35186e-17)
(117.208 13.2893 -6.81185e-17)
(141.787 11.4346 1.14183e-19)
(171.288 0.254577 -9.87961e-18)
(10.0978 8.58885 0)
(11.9625 9.42209 -1.50717e-16)
(14.22 10.2433 -2.16211e-17)
(16.8934 11.032 0)
(20.2058 11.7895 0)
(24.3695 12.5402 -1.34672e-18)
(29.6576 13.2824 -1.70415e-16)
(36.4459 13.9801 -1.14481e-20)
(45.3128 14.5898 0)
(56.8692 14.9932 -1.60408e-16)
(72.3821 14.9913 3.04623e-19)
(91.69 14.3848 -2.87922e-19)
(117.771 12.5379 6.63761e-17)
(142.394 10.7523 0)
(173.577 -0.678526 4.653e-18)
(10.8841 8.11343 0)
(12.7215 8.82916 2.01053e-17)
(14.9736 9.51314 1.32085e-16)
(17.6457 10.1639 1.74463e-16)
(20.9526 10.7965 1.65201e-16)
(25.1103 11.4296 1.649e-16)
(30.383 12.0644 -3.18947e-19)
(37.1423 12.6672 -1.60961e-16)
(45.9702 13.1875 0)
(57.4635 13.531 1.53836e-16)
(72.9084 13.5023 8.8113e-21)
(92.028 12.9562 7.09498e-17)
(118.253 11.1874 -3.19084e-17)
(141.631 9.64145 1.12344e-19)
(176.576 -1.90847 -4.39632e-18)
(11.6187 7.52051 -5.61227e-17)
(13.4131 8.17107 3.83482e-17)
(15.6235 8.78612 -3.30642e-16)
(18.2556 9.38024 -3.09906e-16)
(21.5204 9.97193 -3.24769e-16)
(25.6442 10.5624 2.48042e-18)
(30.89 11.148 -1.57124e-16)
(37.6257 11.6956 1.55075e-16)
(46.4313 12.1538 1.5173e-16)
(57.8902 12.4394 -7.40303e-17)
(73.3064 12.3624 7.0755e-17)
(92.2606 11.7996 -6.88548e-17)
(118.754 10.0907 3.10666e-17)
(140.373 8.58565 0)
(181.4 -2.87399 0)
(12.265 6.86357 1.45612e-16)
(14.018 7.44851 1.86648e-17)
(16.1952 7.9828 -9.48706e-18)
(18.8088 8.49658 1.43829e-16)
(22.0574 9.01304 1.56944e-16)
(26.1694 9.52334 -2.41491e-18)
(31.4057 10.0251 1.53207e-16)
(38.1277 10.4942 -1.50931e-16)
(46.9132 10.882 -1.47562e-16)
(58.338 11.1083 2.85567e-19)
(73.7169 11.0002 -4.16289e-21)
(92.5206 10.4579 -2.63858e-19)
(119.197 8.87534 1.15764e-19)
(139.336 7.3874 -1.13437e-19)
(184.925 -3.87182 0)
(12.8174 6.15251 -1.26398e-16)
(14.5418 6.65909 -7.05185e-21)
(16.6884 7.11921 1.22261e-16)
(19.2873 7.56514 9.50513e-18)
(22.522 8.02192 0)
(26.6199 8.47566 0)
(31.8461 8.91577 2.95386e-19)
(38.5603 9.31576 -2.91678e-19)
(47.3342 9.63731 -7.2871e-17)
(58.7381 9.80534 7.09247e-17)
(74.0851 9.66695 -2.62768e-19)
(92.7886 9.13683 -3.26881e-17)
(119.499 7.68216 -3.0183e-17)
(138.873 6.18211 1.16121e-19)
(186.025 -5.05468 0)
(13.2609 5.39426 0)
(14.9707 5.82176 1.67751e-16)
(17.0936 6.21784 -1.89542e-17)
(19.6823 6.60127 0)
(22.9136 6.98862 0)
(27.0075 7.3719 -7.67915e-17)
(32.2279 7.74907 -2.96922e-19)
(38.9391 8.08053 2.9323e-19)
(47.7102 8.32762 7.35708e-17)
(59.1034 8.43299 -2.61299e-21)
(74.4238 8.26594 3.387e-17)
(93.0541 7.75307 6.56782e-17)
(119.729 6.43914 3.04033e-17)
(138.682 4.95738 0)
(186.274 -5.90114 0)
(13.5983 4.58922 7.45545e-17)
(15.3004 4.95276 -1.33215e-16)
(17.4059 5.29913 -9.67819e-18)
(19.9849 5.62744 -1.46449e-17)
(23.2149 5.94567 2.45442e-18)
(27.315 6.25266 8.07069e-17)
(32.545 6.53907 -7.72928e-17)
(39.2574 6.80414 -2.98937e-19)
(48.0295 6.98291 -7.47271e-17)
(59.4201 7.02421 7.25911e-17)
(74.7236 6.83389 2.64887e-19)
(93.2928 6.34408 -3.36166e-17)
(119.943 5.18771 -1.16398e-19)
(138.445 3.74842 -1.46946e-17)
(186.791 -6.41889 1.95573e-18)
(13.8247 3.80666 -5.7668e-17)
(15.5243 4.12132 -7.2437e-21)
(17.6174 4.42562 -1.99075e-17)
(20.1868 4.70464 8.032e-17)
(23.415 4.96196 8.05704e-17)
(27.5182 5.19701 0)
(32.7657 5.38332 -2.05992e-22)
(39.4966 5.56494 0)
(48.2787 5.68775 7.66481e-17)
(59.6779 5.67009 -7.40262e-17)
(74.9792 5.45239 -3.57921e-17)
(93.5072 4.97853 -3.38403e-17)
(120.143 3.97714 0)
(138.252 2.58204 1.45887e-17)
(187.347 -6.60544 -2.01926e-18)
(13.9695 2.94837 5.97491e-17)
(15.6747 3.18676 4.05024e-17)
(17.7665 3.41421 -3.08034e-17)
(20.3308 3.62779 -7.23714e-17)
(23.5562 3.83072 -8.27906e-17)
(27.6627 3.99983 -1.28704e-18)
(32.9234 4.1185 8.29097e-17)
(39.6819 4.19503 1.56444e-19)
(48.4848 4.24071 -1.53331e-19)
(59.9003 4.17472 2.94148e-19)
(75.2143 3.952 -1.80706e-17)
(93.7378 3.52648 3.39331e-17)
(120.362 2.71165 -1.57943e-17)
(138.343 1.38992 1.69981e-19)
(187.337 -6.33045 -3.45276e-20)
(13.9318 2.26563 5.27552e-21)
(15.6471 2.48665 2.09696e-17)
(17.7511 2.68923 2.11369e-17)
(20.3316 2.8609 4.76968e-17)
(23.5665 3.03213 -5.29931e-18)
(27.6805 3.1741 0)
(32.9576 3.23894 -3.24132e-19)
(39.7538 3.18971 3.19023e-19)
(48.6054 3.14205 0)
(60.0717 3.00746 2.97317e-19)
(75.4272 2.7198 3.64804e-17)
(93.9408 2.26336 -2.70974e-19)
(120.438 1.56696 2.37336e-17)
(137.805 0.332451 0)
(185.921 -4.74062 1.25265e-18)
(13.8034 1.02723 -4.32703e-17)
(15.5374 1.10261 2.17102e-17)
(17.6369 1.16815 -7.60941e-17)
(20.2189 1.22031 -3.25514e-17)
(23.4607 1.29246 0)
(27.5625 1.37035 -1.33584e-18)
(32.8027 1.42548 1.31746e-18)
(39.5499 1.41033 2.06377e-17)
(48.2977 1.3342 0)
(59.5004 1.22604 0)
(74.2838 1.07291 -2.7985e-17)
(91.7163 0.789194 8.83163e-18)
(116.1 0.43962 -4.27555e-18)
(129.035 -0.574866 2.04216e-18)
(172.402 -2.73434 -1.6957e-18)
(11.7242 1.04289 -2.47386e-17)
(13.5018 1.07152 -9.02279e-21)
(15.5148 1.09583 -5.50433e-21)
(17.9068 1.11668 -2.38395e-17)
(20.8422 1.12928 2.94541e-18)
(24.4564 1.11465 -2.90812e-18)
(28.9187 1.05582 3.57469e-19)
(34.4502 0.897757 -2.29088e-17)
(41.3487 0.485452 0)
(49.7935 -0.114929 0)
(59.9201 -0.846163 1.08745e-17)
(70.513 -1.61786 -1.08406e-17)
(83.3447 -2.19906 -4.60892e-18)
(82.9722 -2.39569 -2.36529e-18)
(99.678 -1.69982 0)
(25.7315 -2.04623 0)
(25.7234 -2.04607 0)
(25.7154 -2.04604 0)
(25.7075 -2.04612 0)
(25.6997 -2.04629 0)
(25.6921 -2.04657 0)
(25.6846 -2.04693 0)
(25.6772 -2.04739 0)
(25.67 -2.04794 0)
(25.6628 -2.04858 0)
(25.6558 -2.0493 0)
(25.6488 -2.05011 0)
(25.642 -2.051 0)
(25.6353 -2.05197 0)
(25.6287 -2.05301 0)
(25.6222 -2.05414 0)
(25.6158 -2.05533 0)
(25.6095 -2.0566 0)
(25.6032 -2.05794 0)
(25.5971 -2.05934 0)
(25.5911 -2.06082 0)
(25.5852 -2.06236 0)
(25.5793 -2.06396 0)
(25.5735 -2.06562 0)
(25.5679 -2.06735 0)
(25.5623 -2.06913 0)
(25.5568 -2.07098 0)
(25.5513 -2.07287 0)
(25.546 -2.07483 0)
(25.5407 -2.07683 0)
(25.5355 -2.07889 0)
(25.5304 -2.081 0)
(25.5253 -2.08315 0)
(25.5203 -2.08536 0)
(25.5154 -2.08761 0)
(25.5105 -2.08991 0)
(25.5058 -2.09225 0)
(25.501 -2.09464 0)
(25.4964 -2.09706 0)
(25.4918 -2.09953 0)
(25.4873 -2.10204 0)
(25.4828 -2.10459 0)
(25.4784 -2.10718 0)
(25.4741 -2.1098 0)
(25.4698 -2.11246 0)
(25.4656 -2.11516 0)
(25.4614 -2.11789 0)
(25.4573 -2.12065 0)
(25.4532 -2.12345 0)
(25.4492 -2.12627 0)
(25.4452 -2.12913 0)
(25.4413 -2.13202 0)
(25.4375 -2.13493 0)
(25.4337 -2.13788 0)
(25.4299 -2.14085 0)
(25.4262 -2.14385 0)
(25.4225 -2.14687 0)
(25.4189 -2.14992 0)
(25.4153 -2.15299 0)
(25.4118 -2.15608 0)
(25.4083 -2.1592 0)
(25.4048 -2.16234 0)
(25.4014 -2.1655 0)
(25.3981 -2.16868 0)
(25.3947 -2.17187 0)
(25.3915 -2.17509 0)
(25.3882 -2.17833 0)
(25.385 -2.18159 0)
(25.3818 -2.18486 0)
(25.3787 -2.18815 0)
(25.3756 -2.19145 0)
(25.3725 -2.19477 0)
(25.3695 -2.19811 0)
(25.3665 -2.20146 0)
(25.3635 -2.20482 0)
(25.3606 -2.2082 0)
(25.3577 -2.21159 0)
(25.3548 -2.21499 0)
(25.3519 -2.21841 0)
(25.3491 -2.22184 0)
(25.3463 -2.22527 0)
(25.3436 -2.22872 0)
(25.3409 -2.23218 0)
(25.3382 -2.23564 0)
(25.3355 -2.23912 0)
(25.3329 -2.2426 0)
(25.3303 -2.24607 0)
(25.3277 -2.24943 0)
(25.3245 -2.25218 0)
(24.2924 -1.4695 0)
(24.2919 -1.47882 0)
(24.2914 -1.48819 0)
(24.2909 -1.49749 0)
(24.2905 -1.5067 0)
(24.2901 -1.51582 0)
(24.2898 -1.52484 0)
(24.2895 -1.53378 0)
(24.2892 -1.54263 0)
(24.2889 -1.55139 0)
(24.2887 -1.56007 0)
(24.2886 -1.56867 0)
(24.2885 -1.57718 0)
(24.2884 -1.58562 0)
(24.2883 -1.59398 0)
(24.2882 -1.60227 0)
(24.2882 -1.61048 0)
(24.2883 -1.61862 0)
(24.2883 -1.62669 0)
(24.2884 -1.6347 0)
(24.2885 -1.64263 0)
(24.2886 -1.6505 0)
(24.2887 -1.65831 0)
(24.2889 -1.66605 0)
(24.2891 -1.67373 0)
(24.2893 -1.68135 0)
(24.2895 -1.6889 0)
(24.2898 -1.69641 0)
(24.2901 -1.70385 0)
(24.2904 -1.71124 0)
(24.2907 -1.71857 0)
(24.291 -1.72585 0)
(24.2913 -1.73308 0)
(24.2917 -1.74025 0)
(24.2921 -1.74738 0)
(24.2925 -1.75445 0)
(24.2929 -1.76148 0)
(24.2933 -1.76845 0)
(24.2938 -1.77538 0)
(24.2942 -1.78234 0)
(24.2947 -1.78927 0)
(24.2951 -1.79617 0)
(24.2956 -1.80301 0)
(24.2961 -1.80981 0)
(24.2966 -1.81655 0)
(24.2972 -1.82325 0)
(24.2977 -1.8299 0)
(24.2982 -1.8365 0)
(24.2988 -1.84305 0)
(24.2993 -1.84956 0)
(24.2999 -1.85603 0)
(24.3005 -1.86245 0)
(24.3011 -1.86884 0)
(24.3017 -1.87518 0)
(24.3023 -1.88148 0)
(24.3029 -1.88775 0)
(24.3035 -1.89398 0)
(24.3041 -1.90017 0)
(24.3047 -1.90632 0)
(24.3054 -1.91244 0)
(24.306 -1.91852 0)
(24.3066 -1.92457 0)
(24.3073 -1.93059 0)
(24.3079 -1.93657 0)
(24.3086 -1.94252 0)
(24.3093 -1.94843 0)
(24.3099 -1.95432 0)
(24.3106 -1.96017 0)
(24.3113 -1.96599 0)
(24.3119 -1.97178 0)
(24.3126 -1.97754 0)
(24.3133 -1.98327 0)
(24.314 -1.98897 0)
(24.3147 -1.99464 0)
(24.3154 -2.00028 0)
(24.3161 -2.0059 0)
(24.3168 -2.01148 0)
(24.3175 -2.01704 0)
(24.3182 -2.02256 0)
(24.3189 -2.02806 0)
(24.3196 -2.03354 0)
(24.3203 -2.03898 0)
(24.321 -2.0444 0)
(24.3217 -2.04979 0)
(24.3224 -2.05516 0)
(24.3231 -2.06049 0)
(24.3238 -2.0658 0)
(24.3245 -2.07103 0)
(24.3253 -2.07579 0)
(24.5802 -1.96685 0)
(24.5804 -1.97011 0)
(24.5805 -1.97339 0)
(24.5805 -1.97679 0)
(24.5806 -1.98022 0)
(24.5806 -1.98366 0)
(24.5807 -1.98711 0)
(24.5807 -1.99056 0)
(24.5806 -1.99401 0)
(24.5806 -1.99747 0)
(24.5806 -2.00094 0)
(24.5805 -2.00441 0)
(24.5804 -2.00788 0)
(24.5803 -2.01136 0)
(24.5802 -2.01485 0)
(24.5801 -2.01834 0)
(24.58 -2.02184 0)
(24.5798 -2.02534 0)
(24.5797 -2.02885 0)
(24.5795 -2.03236 0)
(24.5794 -2.03588 0)
(24.5792 -2.03941 0)
(24.579 -2.04294 0)
(24.5788 -2.04648 0)
(24.5787 -2.05002 0)
(24.5785 -2.05357 0)
(24.5783 -2.05712 0)
(24.5781 -2.06068 0)
(24.5779 -2.06424 0)
(24.5777 -2.06782 0)
(24.5775 -2.07139 0)
(24.5773 -2.07497 0)
(24.5771 -2.07856 0)
(24.5768 -2.08216 0)
(24.5766 -2.08575 0)
(24.5764 -2.08936 0)
(24.5762 -2.09297 0)
(24.576 -2.09658 0)
(24.5758 -2.1002 0)
(24.5756 -2.10383 0)
(24.5754 -2.10746 0)
(24.5752 -2.11109 0)
(24.575 -2.11473 0)
(24.5748 -2.11837 0)
(24.5746 -2.12202 0)
(24.5744 -2.12567 0)
(24.5742 -2.12933 0)
(24.574 -2.13299 0)
(24.5738 -2.13665 0)
(24.5737 -2.14031 0)
(24.5735 -2.14398 0)
(24.5734 -2.14765 0)
(24.5732 -2.15133 0)
(24.5731 -2.15501 0)
(24.5729 -2.15869 0)
(24.5728 -2.16237 0)
(24.5727 -2.16606 0)
(24.5726 -2.16975 0)
(24.5724 -2.17344 0)
(24.5724 -2.17713 0)
(24.5723 -2.18083 0)
(24.5722 -2.18452 0)
(24.5721 -2.18822 0)
(24.5721 -2.19192 0)
(24.572 -2.19562 0)
(24.572 -2.19932 0)
(24.572 -2.20303 0)
(24.5719 -2.20673 0)
(24.5719 -2.21044 0)
(24.5719 -2.21415 0)
(24.572 -2.21785 0)
(24.572 -2.22156 0)
(24.572 -2.22527 0)
(24.5721 -2.22898 0)
(24.5721 -2.23269 0)
(24.5722 -2.23639 0)
(24.5723 -2.2401 0)
(24.5724 -2.24381 0)
(24.5725 -2.24752 0)
(24.5726 -2.25123 0)
(24.5728 -2.25493 0)
(24.5729 -2.25864 0)
(24.5731 -2.26234 0)
(24.5733 -2.26604 0)
(24.5735 -2.26975 0)
(24.5737 -2.27345 0)
(24.5739 -2.27727 0)
(24.5741 -2.28088 0)
(24.5743 -2.28532 0)
(24.2851 -1.52107 0)
(24.2836 -1.52854 0)
(24.282 -1.53601 0)
(24.2805 -1.54346 0)
(24.2791 -1.5509 0)
(24.2777 -1.55833 0)
(24.2763 -1.56573 0)
(24.2749 -1.57312 0)
(24.2736 -1.58049 0)
(24.2724 -1.58785 0)
(24.2711 -1.59519 0)
(24.2699 -1.6025 0)
(24.2687 -1.6098 0)
(24.2676 -1.61706 0)
(24.2665 -1.62429 0)
(24.2654 -1.6315 0)
(24.2643 -1.63869 0)
(24.2633 -1.64586 0)
(24.2623 -1.65301 0)
(24.2614 -1.66014 0)
(24.2604 -1.66725 0)
(24.2595 -1.67434 0)
(24.2587 -1.68142 0)
(24.2578 -1.68847 0)
(24.257 -1.6955 0)
(24.2563 -1.70251 0)
(24.2555 -1.70949 0)
(24.2548 -1.71646 0)
(24.2541 -1.7234 0)
(24.2534 -1.73032 0)
(24.2528 -1.73722 0)
(24.2522 -1.7441 0)
(24.2516 -1.75095 0)
(24.2511 -1.75777 0)
(24.2505 -1.76457 0)
(24.25 -1.77135 0)
(24.2496 -1.7781 0)
(24.2491 -1.78482 0)
(24.2487 -1.79151 0)
(24.2483 -1.79818 0)
(24.2479 -1.80481 0)
(24.2476 -1.81144 0)
(24.2472 -1.81816 0)
(24.2469 -1.82488 0)
(24.2467 -1.83158 0)
(24.2464 -1.83827 0)
(24.2462 -1.84494 0)
(24.246 -1.85158 0)
(24.2458 -1.85821 0)
(24.2456 -1.86482 0)
(24.2454 -1.87141 0)
(24.2453 -1.87799 0)
(24.2452 -1.88454 0)
(24.2451 -1.89107 0)
(24.2451 -1.89759 0)
(24.245 -1.90409 0)
(24.245 -1.91056 0)
(24.245 -1.91702 0)
(24.245 -1.92346 0)
(24.245 -1.92988 0)
(24.2451 -1.93629 0)
(24.2451 -1.94267 0)
(24.2452 -1.94904 0)
(24.2453 -1.95538 0)
(24.2455 -1.96171 0)
(24.2456 -1.96802 0)
(24.2458 -1.97431 0)
(24.2459 -1.98059 0)
(24.2461 -1.98684 0)
(24.2463 -1.99308 0)
(24.2465 -1.9993 0)
(24.2468 -2.0055 0)
(24.247 -2.01169 0)
(24.2473 -2.01785 0)
(24.2476 -2.024 0)
(24.2479 -2.03013 0)
(24.2482 -2.03624 0)
(24.2485 -2.04233 0)
(24.2489 -2.04841 0)
(24.2492 -2.05447 0)
(24.2496 -2.06051 0)
(24.25 -2.06654 0)
(24.2504 -2.07255 0)
(24.2508 -2.07854 0)
(24.2512 -2.08452 0)
(24.2517 -2.09047 0)
(24.2521 -2.09642 0)
(24.2526 -2.10234 0)
(24.253 -2.10818 0)
(24.1546 -1.83643 0)
(24.1556 -1.84224 0)
(24.1565 -1.84804 0)
(24.1575 -1.85384 0)
(24.1584 -1.85962 0)
(24.1594 -1.86539 0)
(24.1603 -1.87114 0)
(24.1612 -1.87688 0)
(24.1621 -1.8826 0)
(24.1631 -1.88831 0)
(24.164 -1.89401 0)
(24.1649 -1.8997 0)
(24.1658 -1.90537 0)
(24.1667 -1.91103 0)
(24.1676 -1.91667 0)
(24.1685 -1.9223 0)
(24.1694 -1.92792 0)
(24.1703 -1.93353 0)
(24.1712 -1.93912 0)
(24.1722 -1.9447 0)
(24.1731 -1.95026 0)
(24.174 -1.95582 0)
(24.1749 -1.96136 0)
(24.1758 -1.96689 0)
(24.1767 -1.9724 0)
(24.1776 -1.9779 0)
(24.1786 -1.98339 0)
(24.1795 -1.98886 0)
(24.1804 -1.99432 0)
(24.1814 -1.99977 0)
(24.1823 -2.0052 0)
(24.1833 -2.01062 0)
(24.1842 -2.01603 0)
(24.1852 -2.02142 0)
(24.1862 -2.0268 0)
(24.1872 -2.03216 0)
(24.1882 -2.0375 0)
(24.1892 -2.04282 0)
(24.1902 -2.04811 0)
(24.1912 -2.05339 0)
(24.1922 -2.05866 0)
(24.1932 -2.06391 0)
(24.1943 -2.06915 0)
(24.1953 -2.07438 0)
(24.1964 -2.07959 0)
(24.1975 -2.08479 0)
(24.1985 -2.08997 0)
(24.1996 -2.09514 0)
(24.2007 -2.10029 0)
(24.2018 -2.10544 0)
(24.2029 -2.11056 0)
(24.204 -2.11568 0)
(24.2051 -2.12078 0)
(24.2063 -2.12586 0)
(24.2074 -2.13094 0)
(24.2086 -2.13599 0)
(24.2097 -2.14104 0)
(24.2109 -2.14607 0)
(24.2121 -2.15108 0)
(24.2132 -2.15608 0)
(24.2144 -2.16107 0)
(24.2156 -2.16604 0)
(24.2168 -2.171 0)
(24.2181 -2.17594 0)
(24.2193 -2.18087 0)
(24.2205 -2.18579 0)
(24.2218 -2.19069 0)
(24.2231 -2.19558 0)
(24.2244 -2.20046 0)
(24.2256 -2.20532 0)
(24.2269 -2.21017 0)
(24.2283 -2.215 0)
(24.2296 -2.21982 0)
(24.2309 -2.22462 0)
(24.2323 -2.22941 0)
(24.2336 -2.23418 0)
(24.235 -2.23894 0)
(24.2363 -2.24368 0)
(24.2377 -2.24841 0)
(24.2391 -2.25313 0)
(24.2405 -2.25782 0)
(24.2419 -2.2625 0)
(24.2434 -2.26717 0)
(24.2448 -2.27182 0)
(24.2462 -2.27645 0)
(24.2477 -2.28107 0)
(24.2491 -2.28566 0)
(24.2506 -2.29018 0)
(24.2521 -2.29418 0)
(24.0253 -1.60392 0)
(24.0244 -1.61088 0)
(24.0236 -1.61784 0)
(24.0227 -1.62482 0)
(24.0219 -1.63179 0)
(24.0212 -1.63877 0)
(24.0204 -1.64575 0)
(24.0197 -1.65272 0)
(24.019 -1.6597 0)
(24.0184 -1.66667 0)
(24.0177 -1.67364 0)
(24.0171 -1.68061 0)
(24.0166 -1.68757 0)
(24.016 -1.69453 0)
(24.0155 -1.70148 0)
(24.015 -1.70842 0)
(24.0145 -1.71535 0)
(24.0141 -1.72227 0)
(24.0136 -1.72918 0)
(24.0133 -1.73607 0)
(24.0129 -1.74307 0)
(24.0126 -1.75011 0)
(24.0123 -1.75715 0)
(24.012 -1.76419 0)
(24.0117 -1.77122 0)
(24.0115 -1.77825 0)
(24.0113 -1.78528 0)
(24.0111 -1.79231 0)
(24.0109 -1.79932 0)
(24.0108 -1.80634 0)
(24.0107 -1.81335 0)
(24.0106 -1.82035 0)
(24.0106 -1.82735 0)
(24.0105 -1.83433 0)
(24.0105 -1.84132 0)
(24.0106 -1.84829 0)
(24.0106 -1.85526 0)
(24.0107 -1.86222 0)
(24.0108 -1.86918 0)
(24.0109 -1.87612 0)
(24.011 -1.88306 0)
(24.0112 -1.88998 0)
(24.0114 -1.8969 0)
(24.0116 -1.9038 0)
(24.0119 -1.9107 0)
(24.0121 -1.91759 0)
(24.0124 -1.92446 0)
(24.0128 -1.93133 0)
(24.0131 -1.93818 0)
(24.0135 -1.94502 0)
(24.0139 -1.95185 0)
(24.0143 -1.95866 0)