/*--------------------------------*- C++ -*----------------------------------*\
  =========                 |
  \\      /  F ield         | OpenFOAM: The Open Source CFD Toolbox
   \\    /   O peration     | Website:  https://openfoam.org
    \\  /    A nd           | Version:  9
     \\/     M anipulation  |
\*---------------------------------------------------------------------------*/
FoamFile
{
    format      ascii;
    class       volVectorField;
    location    "0.0025";
    object      U;
}
// * * * * * * * * * * * * * * * * * * * * * * * * * * * * * * * * * * * * * //

dimensions      [0 1 -1 0 0 0 0];

internalField   nonuniform List<vector> 
5057
(
(4.17531 -0.0156491 1.86296e-17)
(4.05551 0.0188323 -6.92312e-17)
(3.88094 0.0328547 0)
(3.69979 0.0392323 0)
(3.5226 0.0464855 0)
(3.34781 0.0528678 0)
(3.18879 0.0547106 -1.32972e-15)
(3.06345 0.0541123 1.36663e-15)
(2.95443 0.0559205 0)
(2.84428 0.0606814 0)
(2.7247 0.065417 0)
(2.59069 0.0673753 0)
(2.42128 0.0644449 0)
(2.17107 0.0613466 0)
(1.64352 0.00120773 0)
(4.20928 0.0172629 0)
(4.19542 0.0294469 0)
(4.17227 0.0319853 -2.01014e-16)
(4.14361 0.0330959 2.69645e-16)
(4.11338 0.0337472 -6.49214e-16)
(4.08215 0.033196 7.42831e-16)
(4.04295 0.0309287 0)
(3.99236 0.0277644 -8.31789e-16)
(3.93825 0.0265102 8.66638e-16)
(3.88512 0.027264 0)
(3.8318 0.0294653 0)
(3.77513 0.0345642 0)
(3.70383 0.0462219 -2.08579e-15)
(3.62179 0.08248 2.0961e-15)
(3.35174 0.130535 -2.02478e-15)
(4.21384 0.0147509 -5.82874e-18)
(4.22616 0.0262972 -1.73556e-17)
(4.23856 0.0306939 6.15781e-17)
(4.24681 0.0324487 0)
(4.25331 0.0338769 0)
(4.25842 0.0344461 0)
(4.2591 0.0343192 0)
(4.2492 0.0337926 0)
(4.23237 0.0337424 0)
(4.21349 0.0349719 -1.45718e-15)
(4.19427 0.038039 1.56078e-15)
(4.17506 0.0451999 0)
(4.14964 0.0559723 0)
(4.12423 0.0891224 0)
(4.03472 0.148833 0)
(4.21536 0.011728 0)
(4.23655 0.0223261 2.50033e-17)
(4.26272 0.0271887 -4.51323e-17)
(4.28628 0.0289641 0)
(4.30845 0.0303636 0)
(4.32896 0.0313417 4.09862e-16)
(4.34723 0.0323126 -4.81431e-16)
(4.36022 0.0327206 0)
(4.36838 0.0329265 0)
(4.37356 0.0336979 1.31405e-15)
(4.37695 0.0356906 -1.4168e-15)
(4.37953 0.0413659 1.49982e-15)
(4.37841 0.0502494 -3.06614e-15)
(4.37413 0.0774484 1.53055e-15)
(4.34566 0.133798 -1.45691e-15)
(4.21582 0.00896304 4.00252e-18)
(4.24016 0.0175991 -9.98855e-18)
(4.27222 0.0217781 0)
(4.303 0.0234735 0)
(4.33298 0.0248779 0)
(4.36161 0.0259453 0)
(4.38857 0.0270047 4.23265e-16)
(4.41286 0.0275121 -4.86363e-16)
(4.43429 0.0279748 -5.43413e-16)
(4.45318 0.0288053 5.94694e-16)
(4.46982 0.0304233 -1.28098e-15)
(4.48495 0.0352766 1.35813e-15)
(4.49733 0.0434846 0)
(4.50719 0.0626261 1.41748e-15)
(4.5063 0.11078 -1.38406e-15)
(4.21582 0.0062986 3.64096e-18)
(4.24094 0.0124814 -8.59383e-18)
(4.27533 0.015601 0)
(4.30954 0.0172729 -9.43288e-17)
(4.34337 0.0187335 1.2754e-16)
(4.37621 0.0198964 0)
(4.40753 0.0209091 0)
(4.43696 0.0214919 0)
(4.4644 0.02213 0)
(4.48973 0.0230345 0)
(4.51285 0.0245237 0)
(4.5344 0.0285779 0)
(4.55442 0.0356241 0)
(4.57376 0.0497131 0)
(4.58959 0.084679 0)
(4.21567 0.0035773 0)
(4.24052 0.00716554 0)
(4.27532 0.00916058 0)
(4.31098 0.0106349 8.71422e-17)
(4.34684 0.0121305 1.19184e-16)
(4.38178 0.0134496 -3.01988e-16)
(4.41505 0.014466 -3.6229e-16)
(4.44646 0.0151122 4.17436e-16)
(4.47609 0.0158534 0)
(4.50398 0.0168347 1.02095e-15)
(4.53014 0.0181877 -1.10301e-15)
(4.55491 0.0213705 0)
(4.57879 0.0269838 0)
(4.60272 0.0372881 0)
(4.62696 0.0604005 -1.3247e-15)
(4.21549 0.000887444 3.42035e-18)
(4.23961 0.00170018 -7.63683e-18)
(4.27376 0.00260212 -5.53019e-17)
(4.30952 0.00375602 8.53474e-17)
(4.34615 0.00520223 2.34453e-16)
(4.38216 0.00670449 -5.94197e-16)
(4.41648 0.00776131 3.56245e-16)
(4.44897 0.00856287 0)
(4.47978 0.00945171 -4.59125e-16)
(4.50891 0.0105315 5.03331e-16)
(4.53639 0.0118617 -1.08919e-15)
(4.56243 0.0144368 2.05267e-21)
(4.58768 0.0188101 1.23166e-15)
(4.61312 0.026038 0)
(4.64019 0.0414983 0)
(4.21534 -0.00173199 3.53638e-18)
(4.23846 -0.00375666 -7.91857e-18)
(4.27135 -0.00391217 5.7207e-17)
(4.30584 -0.0032018 -1.76829e-16)
(4.34176 -0.00189724 3.64359e-16)
(4.37743 -0.000242782 -3.07157e-16)
(4.41157 0.0009004 0)
(4.44408 0.00190805 4.22806e-16)
(4.4751 0.00296749 -4.7275e-16)
(4.50464 0.00416484 1.03599e-15)
(4.53275 0.00552084 -1.11994e-15)
(4.55952 0.00770922 0)
(4.58539 0.0110969 0)
(4.61127 0.0160582 0)
(4.6381 0.0256083 -1.38067e-15)
(4.21523 -0.00425517 3.79088e-18)
(4.2371 -0.00895358 -8.63484e-18)
(4.26809 -0.0102402 0)
(4.30024 -0.00996352 0)
(4.33348 -0.00885289 2.61558e-16)
(4.36664 -0.00715351 -3.29903e-16)
(4.3986 -0.00589659 0)
(4.42922 -0.0047278 0)
(4.45859 -0.00353416 0)
(4.48673 -0.00223306 0)
(4.51374 -0.000835241 0)
(4.53967 0.00112431 0)
(4.56477 0.00382391 0)
(4.5898 0.00730381 0)
(4.61564 0.0124854 0)
(4.21513 -0.00663907 0)
(4.23528 -0.0137947 0)
(4.26343 -0.0162031 7.02859e-17)
(4.29177 -0.0162707 -1.068e-16)
(4.32078 -0.0152905 0)
(4.3498 -0.0136007 0)
(4.37801 -0.0122306 0)
(4.40533 -0.0109306 0)
(4.43165 -0.00960858 -5.52479e-16)
(4.457 -0.00820997 6.03525e-16)
(4.48153 -0.00677964 -1.30041e-15)
(4.50541 -0.00488934 1.38857e-15)
(4.52872 -0.00256574 0)
(4.55189 0.000251072 0)
(4.57485 0.00222937 1.60406e-15)
(4.21491 -0.00895179 4.89714e-18)
(4.23231 -0.0181316 -1.21809e-17)
(4.25571 -0.0213256 0)
(4.27786 -0.0216224 0)
(4.30002 -0.0207321 0)
(4.32219 -0.0191674 0)
(4.34402 -0.0177272 0)
(4.36562 -0.0162737 0)
(4.38646 -0.0147921 0)
(4.40663 -0.0132909 0)
(4.42644 -0.0118122 0)
(4.44616 -0.00997137 0)
(4.46582 -0.00777144 0)
(4.48497 -0.00579983 0)
(4.50392 -0.00513072 1.80493e-15)
(4.21436 -0.011359 6.10129e-18)
(4.22633 -0.0216388 1.66532e-17)
(4.24009 -0.024974 -5.74588e-17)
(4.25152 -0.0252044 -1.64178e-16)
(4.26205 -0.0243381 2.12492e-16)
(4.27215 -0.0230447 0)
(4.28211 -0.0216639 0)
(4.29219 -0.0199173 0)
(4.30043 -0.0181137 0)
(4.30851 -0.0164948 0)
(4.31741 -0.0149679 0)
(4.32724 -0.0128024 0)
(4.3377 -0.010508 0)
(4.34856 -0.00693695 0)
(4.35819 -0.0059433 0)
(4.21258 -0.0130754 0)
(4.20985 -0.0237546 -5.47598e-17)
(4.20101 -0.0253299 9.29067e-17)
(4.18923 -0.0253626 0)
(4.17606 -0.024637 0)
(4.16146 -0.0239116 7.27053e-16)
(4.14557 -0.0231437 -8.24863e-16)
(4.12815 -0.0224946 0)
(4.10569 -0.0222263 -9.7017e-16)
(4.08229 -0.022242 1.0383e-15)
(4.0594 -0.0225773 -2.2094e-15)
(4.03721 -0.0226137 2.33384e-15)
(4.01543 -0.0223927 0)
(3.99689 -0.0222021 0)
(3.9702 -0.0244316 2.56536e-15)
(4.19352 0.00556583 0)
(4.13028 -0.0112235 0)
(4.03258 -0.012852 0)
(3.92466 -0.00969313 0)
(3.81421 -0.00489126 1.11999e-15)
(3.70079 -0.00041733 -1.22575e-15)
(3.58236 0.00497874 -1.32103e-15)
(3.4599 0.0116709 1.40422e-15)
(3.34061 0.0177283 0)
(3.2162 0.0232129 0)
(3.08416 0.0289803 0)
(2.94469 0.035708 0)
(2.79834 0.0438659 3.56292e-15)
(2.64558 0.0550264 -3.72247e-15)
(2.51458 0.0629873 -3.83068e-15)
(1.3274 -0.0540694 5.53561e-15)
(1.38563 -0.0200664 -1.05887e-14)
(1.58325 0.136912 2.85476e-15)
(1.8061 0.394375 0)
(2.01172 0.699492 -1.9887e-15)
(2.21278 1.07085 0)
(2.45485 1.51401 0)
(2.72291 2.01021 0)
(3.00503 2.53662 -1.22137e-20)
(3.29142 3.08485 -3.85596e-16)
(3.57818 3.67708 3.89797e-16)
(3.90046 4.32909 0)
(4.29583 5.05193 -2.12164e-16)
(4.86164 5.85893 -2.27513e-16)
(5.70216 6.67803 -4.9165e-16)
(3.17926 0.211641 2.67834e-15)
(3.17531 0.314062 -3.86357e-15)
(3.23891 0.48634 4.84899e-15)
(3.33071 0.71086 -1.16375e-15)
(3.43051 0.983275 1.13678e-15)
(3.53693 1.31476 -1.13065e-15)
(3.67782 1.71204 0)
(3.85925 2.18122 0)
(4.07539 2.71731 0)
(4.32817 3.33123 0)
(4.61591 4.03885 0)
(4.94152 4.86408 0)
(5.33745 5.82646 0)
(5.90811 6.96364 -4.4517e-16)
(6.7343 8.2119 4.82211e-16)
(3.97238 0.223194 5.12212e-16)
(3.9706 0.320873 2.00225e-15)
(3.99797 0.476791 -1.93859e-15)
(4.0417 0.682976 9.54688e-16)
(4.09751 0.940726 -1.91247e-15)
(4.17092 1.25664 1.94091e-15)
(4.28043 1.64391 -4.97464e-16)
(4.44144 2.10145 5.18522e-16)
(4.65418 2.62391 0)
(4.92456 3.21827 5.56619e-16)
(5.26713 3.89982 2.77957e-16)
(5.68771 4.69625 2.81032e-16)
(6.19193 5.63914 -4.32569e-16)
(6.87194 6.74185 8.31579e-16)
(7.82178 7.97069 -3.9966e-16)
(4.33212 0.204584 1.35331e-15)
(4.347 0.295538 1.77719e-15)
(4.37803 0.426973 -8.73575e-16)
(4.41953 0.602023 -8.73998e-16)
(4.47386 0.828819 8.87254e-16)
(4.55079 1.11435 0)
(4.66455 1.47175 -9.43737e-16)
(4.83246 1.89634 4.94314e-16)
(5.06293 2.38836 -5.23346e-16)
(5.3637 2.95855 -1.04439e-15)
(5.74693 3.62122 0)
(6.23914 4.3937 -3.8509e-16)
(6.85626 5.30398 7.7585e-16)
(7.63903 6.38027 -6.65233e-16)
(8.66486 7.64206 5.53725e-16)
(4.51402 0.176945 2.10412e-15)
(4.53748 0.257518 -2.48911e-15)
(4.57405 0.367847 -1.09022e-21)
(4.62219 0.516454 0)
(4.68535 0.713588 0)
(4.77349 0.96743 8.86079e-16)
(4.9007 1.28745 -9.26661e-16)
(5.08343 1.67242 1.46285e-15)
(5.33502 2.12605 -5.16614e-16)
(5.66763 2.66035 1.01651e-15)
(6.09714 3.29062 -2.47728e-16)
(6.64956 4.03457 1.21578e-16)
(7.36508 4.91656 -4.80604e-16)
(8.29744 5.95079 4.22508e-16)
(9.41943 7.23505 -3.07762e-16)
(4.60949 0.141127 4.00758e-16)
(4.63804 0.214866 7.95374e-16)
(4.67807 0.312757 8.02653e-16)
(4.73124 0.441029 -1.63894e-15)
(4.8029 0.60966 0)
(4.90196 0.829368 -4.6137e-21)
(5.04239 1.10723 -9.29401e-16)
(5.24021 1.44866 -1.47287e-15)
(5.51153 1.85992 1.04118e-15)
(5.87302 2.34898 -5.0794e-16)
(6.34395 2.93267 0)
(6.95369 3.63446 -4.74136e-16)
(7.74346 4.47996 -1.15235e-16)
(8.81295 5.46041 -1.1326e-16)
(10.1061 6.68978 2.81406e-17)
(4.65493 0.104043 1.33606e-15)
(4.68864 0.169993 0)
(4.73165 0.2561 0)
(4.7882 0.366693 0)
(4.86497 0.511537 0)
(4.97103 0.699766 8.96974e-16)
(5.12007 0.939528 0)
(5.32967 1.23522 1.50683e-15)
(5.61656 1.59295 -1.60042e-20)
(6.00114 2.02343 -2.59529e-16)
(6.50856 2.5483 -2.48106e-16)
(7.17149 3.19431 3.55765e-16)
(8.03099 3.98699 2.2708e-16)
(9.19219 4.93485 3.83206e-16)
(10.681 6.07623 -5.30088e-17)
(4.67239 0.071589 -3.70455e-16)
(4.71083 0.127035 -7.66106e-16)
(4.75604 0.200386 0)
(4.81368 0.294941 8.312e-16)
(4.89205 0.418401 -8.73291e-16)
(5.00078 0.577178 -5.44751e-21)
(5.1522 0.777106 -1.47096e-15)
(5.36462 1.02435 1.17053e-20)
(5.65884 1.32682 1.60246e-20)
(6.05873 1.6997 9.42315e-21)
(6.59429 2.16158 0)
(7.30332 2.73799 1.215e-16)
(8.23869 3.46127 5.42953e-21)
(9.47556 4.35089 -1.08618e-16)
(11.1392 5.43132 2.05454e-16)
(4.67101 0.0474016 3.33632e-15)
(4.71194 0.0905906 -7.77255e-16)
(4.75835 0.149529 2.44763e-15)
(4.81548 0.228126 -1.71742e-15)
(4.89216 0.330825 0)
(4.99882 0.461837 1.93224e-15)
(5.14868 0.627021 -1.0307e-15)
(5.35985 0.83595 -1.1013e-15)
(5.65447 1.09458 0)
(6.06 1.41371 0)
(6.61252 1.811 2.70244e-16)
(7.35374 2.31092 -3.80885e-16)
(8.35231 2.94775 -2.36992e-16)
(9.67401 3.73961 1.65626e-16)
(11.493 4.76065 -5.11568e-17)
(4.64784 0.0287378 -1.91116e-16)
(4.68966 0.062891 0)
(4.73661 0.109188 -8.54556e-16)
(4.79236 0.172826 -9.04244e-16)
(4.86549 0.257724 1.92156e-15)
(4.96711 0.366566 5.81654e-21)
(5.11112 0.504084 5.47771e-16)
(5.31621 0.67732 2.96272e-21)
(5.60568 0.891524 -6.26889e-16)
(6.01025 1.15586 0)
(6.57141 1.48833 5.76258e-16)
(7.33515 1.91026 0)
(8.38365 2.45457 2.49771e-16)
(9.7812 3.1371 2.29683e-16)
(11.7506 4.04284 -2.09017e-16)
(4.60291 0.0138262 -1.62713e-15)
(4.641 0.0412321 0)
(4.68432 0.0764742 -2.2835e-15)
(4.73542 0.126056 2.90047e-15)
(4.80085 0.194781 -1.02786e-15)
(4.89183 0.283434 -1.09708e-15)
(5.0238 0.395495 0)
(5.2173 0.536684 6.30259e-16)
(5.497 0.711766 1.34568e-15)
(5.89667 0.928083 0)
(6.46189 1.20121 -6.20637e-16)
(7.24223 1.54824 -1.45165e-16)
(8.33219 1.99807 2.26125e-20)
(9.79184 2.56859 -1.21845e-16)
(11.9054 3.33219 0)
(4.52584 0.00307429 -1.79024e-15)
(4.55509 0.0251202 -1.88787e-15)
(4.58644 0.0525631 2.4774e-15)
(4.62233 0.0911601 -1.56681e-15)
(4.66893 0.144623 1.10903e-15)
(4.73833 0.214321 0)
(4.84881 0.303002 -6.35012e-16)
(5.0235 0.413702 6.8339e-16)
(5.28959 0.548475 -7.21965e-16)
(5.68223 0.715544 0)
(6.2519 0.928024 3.37402e-16)
(7.05034 1.19821 -1.58287e-16)
(8.18508 1.54503 -5.83108e-16)
(9.70803 1.98457 2.63837e-16)
(11.9703 2.57926 -1.17103e-16)
(4.36113 0.00173192 0)
(4.36246 0.0181423 2.64989e-16)
(4.3603 0.0384891 0)
(4.35827 0.0686408 1.16087e-15)
(4.36692 0.108598 -1.23345e-15)
(4.40254 0.161884 -1.31881e-15)
(4.48609 0.230697 1.41497e-15)
(4.64091 0.316966 0)
(4.89672 0.420916 7.82284e-16)
(5.28879 0.552028 -1.15656e-15)
(5.86842 0.718687 3.7183e-16)
(6.68688 0.934695 -3.5035e-16)
(7.8655 1.20628 1.61901e-16)
(9.45152 1.55186 7.28877e-17)
(11.858 1.97216 3.21802e-17)
(3.90845 -0.0135408 -2.43777e-15)
(3.8324 -0.00172983 -3.18237e-16)
(3.75594 0.0127782 0)
(3.69226 0.0325783 -7.12592e-16)
(3.65769 0.0582976 0)
(3.66827 0.0923641 1.63371e-15)
(3.74164 0.13371 -2.62202e-15)
(3.90072 0.182213 9.16165e-16)
(4.17052 0.238656 0)
(4.58564 0.309387 4.57474e-16)
(5.2044 0.396811 -4.42017e-16)
(6.07829 0.50401 2.07907e-16)
(7.33548 0.628781 0)
(9.01867 0.800827 -1.69125e-16)
(11.6064 0.9788 -7.38995e-17)
(2.31524 0.0864096 3.65007e-15)
(2.13691 0.10683 0)
(2.01754 0.126437 -4.28941e-15)
(1.94894 0.149225 2.30384e-15)
(1.92826 0.175192 2.45259e-15)
(1.9595 0.212546 0)
(2.051 0.265287 1.33371e-15)
(2.21234 0.332307 -1.33159e-15)
(2.46162 0.419723 -1.30296e-15)
(2.83871 0.529408 1.2491e-15)
(3.41109 0.664907 0)
(4.21938 0.80914 0)
(5.51056 0.963194 0)
(6.91745 1.10977 1.06691e-16)
(10.0822 1.10076 4.60974e-17)
(7.03905 7.47061 0)
(8.96299 8.36847 0)
(11.0311 9.23618 0)
(13.3954 9.96288 -8.94337e-16)
(16.2042 10.5682 8.75526e-16)
(19.6211 11.0884 -6.42964e-16)
(23.8631 11.517 4.18768e-16)
(29.15 11.8131 2.04246e-16)
(35.8557 11.8999 0)
(44.1251 11.6886 -1.89021e-16)
(54.6528 11.1028 3.61209e-16)
(66.1336 9.72709 -8.52207e-17)
(8.09222 9.4147 0)
(10.0044 10.5497 0)
(12.2836 11.6915 1.27842e-17)
(15.0258 12.7403 3.90385e-16)
(18.4078 13.7124 -1.97794e-16)
(22.61 14.67 1.92147e-16)
(27.9106 15.6246 1.46386e-18)
(34.6723 16.5425 0)
(43.4885 17.3971 -1.78018e-16)
(54.8465 17.9836 -1.70935e-16)
(70.0472 18.0738 -1.62749e-16)
(88.4028 17.4022 3.12411e-19)
(9.34208 8.98386 2.30481e-17)
(11.3347 9.84404 1.62178e-16)
(13.7136 10.6927 0)
(16.5122 11.4957 5.70473e-18)
(19.9364 12.2653 -1.87068e-16)
(24.1847 13.0431 -1.7938e-16)
(29.5449 13.8233 3.36611e-19)
(36.398 14.5681 1.73198e-16)
(45.3408 15.2191 1.69486e-16)
(56.9708 15.7138 1.64046e-16)
(72.5633 15.8755 -7.83188e-17)
(91.9173 15.3344 7.29061e-17)
(10.1734 8.65314 0)
(12.0521 9.49265 -1.49625e-16)
(14.3266 10.3201 -2.14644e-17)
(17.0201 11.1148 0)
(20.3576 11.878 0)
(24.5529 12.6345 -1.33677e-18)
(29.8815 13.3824 -1.69168e-16)
(36.7213 14.0855 -1.15385e-20)
(45.6602 14.7009 0)
(57.2992 15.1061 -1.59208e-16)
(72.9743 15.1122 3.02434e-19)
(92.3337 14.4846 -2.85566e-19)
(10.9657 8.17417 0)
(12.8169 8.89529 1.99599e-17)
(15.0859 9.58443 1.31129e-16)
(17.7781 10.2401 1.732e-16)
(21.11 10.8775 1.64003e-16)
(25.2993 11.5155 1.63702e-16)
(30.6124 12.1552 -3.16614e-19)
(37.423 12.7626 -1.59782e-16)
(46.3227 13.2879 0)
(57.8977 13.6322 1.52678e-16)
(73.5086 13.6135 8.92645e-21)
(92.6551 13.0378 7.03225e-17)
(11.7058 7.57682 -5.57178e-17)
(13.5136 8.23227 3.80715e-17)
(15.7407 8.85197 -3.28255e-16)
(18.3926 9.45059 -3.07666e-16)
(21.6821 10.0468 -3.22419e-16)
(25.8372 10.6417 2.46246e-18)
(31.1232 11.2319 -1.55981e-16)
(37.9101 11.7837 1.53941e-16)
(46.7871 12.2465 1.50614e-16)
(58.3293 12.5322 -7.34715e-17)
(73.9043 12.4656 7.02506e-17)
(92.9128 11.8691 -6.82098e-17)
(12.3569 6.91497 1.44562e-16)
(14.123 7.50432 1.85302e-17)
(16.3166 8.04264 -9.4187e-18)
(18.95 8.56031 1.42791e-16)
(22.2232 9.0807 1.5581e-16)
(26.3664 9.5949 -2.39745e-18)
(31.6428 10.1006 1.52094e-16)
(38.4161 10.5733 -1.49829e-16)
(47.2723 10.9649 -1.4648e-16)
(58.7827 11.1914 2.83493e-19)
(74.3094 11.0915 -4.20349e-21)
(93.2155 10.5219 -2.61434e-19)
(12.9134 6.1986 -1.25486e-16)
(14.6508 6.70899 -7.10533e-21)
(16.8136 7.17258 1.2138e-16)
(19.4321 7.62189 9.43658e-18)
(22.6912 8.08215 0)
(26.8202 8.53936 0)
(32.0866 8.98293 2.93236e-19)
(38.8521 9.38599 -2.89557e-19)
(47.6963 9.71071 -7.23369e-17)
(59.187 9.87896 7.0392e-17)
(74.6764 9.74649 -2.60845e-19)
(93.5055 9.19603 -3.2391e-17)
(13.3603 5.43468 0)
(15.0829 5.8654 1.66541e-16)
(17.2218 6.26447 -1.88174e-17)
(19.83 6.6508 0)
(23.0857 7.0411 0)
(27.2107 7.42732 -7.62351e-17)
(32.4712 7.80747 -2.94758e-19)
(39.2337 8.14149 2.91094e-19)
(48.0751 8.39105 7.30306e-17)
(59.5554 8.49645 -2.63404e-21)
(75.0169 8.3338 3.36249e-17)
(93.7777 7.80448 6.50983e-17)
(13.7002 4.62363 7.40153e-17)
(15.4151 4.98991 -1.32252e-16)
(17.5364 5.33887 -9.60826e-18)
(20.1348 5.66967 -1.45389e-17)
(23.3893 5.99031 2.43668e-18)
(27.5205 6.29967 8.01206e-17)
(32.7907 6.58834 -7.67296e-17)
(39.5545 6.85549 -2.96754e-19)
(48.3968 7.0361 -7.41763e-17)
(59.8748 7.07718 7.20456e-17)
(75.3192 6.88993 2.62823e-19)
(94.0197 6.38698 -3.33268e-17)
(13.9283 3.83522 -5.725e-17)
(15.6406 4.15224 -7.29834e-21)
(17.7495 4.45883 -1.97631e-17)
(20.3383 4.73996 7.97368e-17)
(23.591 4.99924 7.99846e-17)
(27.7253 5.23609 0)
(33.013 5.42387 -2.07009e-22)
(39.7955 5.60698 0)
(48.6479 5.73111 7.60809e-17)
(60.1347 5.71295 -7.34687e-17)
(75.5772 5.49713 -3.55263e-17)
(94.2359 5.01312 -3.3554e-17)
(14.0741 2.97048 5.93152e-17)
(15.7921 3.21067 4.02082e-17)
(17.8997 3.43983 -3.05795e-17)
(20.4834 3.65503 -7.18447e-17)
(23.7331 3.85952 -8.21872e-17)
(27.8708 4.02992 -1.27762e-18)
(33.1719 4.14954 8.2302e-17)
(39.9822 4.22672 1.55285e-19)
(48.8557 4.27304 -1.52197e-19)
(60.3589 4.20633 2.91901e-19)
(75.8145 3.98449 -1.79348e-17)
(94.4681 3.55154 3.3651e-17)
(14.0361 2.28263 5.31506e-21)
(15.7642 2.50531 2.08171e-17)
(17.884 2.70942 2.0983e-17)
(20.484 2.88239 4.73492e-17)
(23.7435 3.05493 -5.26067e-18)
(27.8887 3.198 0)
(33.2064 3.26338 -3.21745e-19)
(40.0547 3.2138 3.16675e-19)
(48.9773 3.16601 0)
(60.5316 3.03032 2.95043e-19)
(76.0301 2.74217 3.6204e-17)
(94.6705 2.28018 -2.68797e-19)
(13.9067 1.03485 -4.29575e-17)
(15.6538 1.11084 2.15528e-17)
(17.769 1.17688 -7.55412e-17)
(20.3705 1.22946 -3.23143e-17)
(23.6369 1.30218 0)
(27.7698 1.38068 -1.32605e-18)
(33.0504 1.43627 1.3078e-18)
(39.8494 1.42103 2.04853e-17)
(48.6674 1.34441 0)
(59.9567 1.23538 0)
(74.881 1.08252 -2.77716e-17)
(92.4297 0.794511 8.75958e-18)
(11.8116 1.05059 -2.45593e-17)
(13.6027 1.07946 -9.09069e-21)
(15.631 1.10399 -5.54571e-21)
(18.041 1.12503 -2.36657e-17)
(20.9988 1.13775 2.92386e-18)
(24.6406 1.12303 -2.88684e-18)
(29.1375 1.06379 3.54832e-19)
(34.7118 0.904567 -2.27392e-17)
(41.667 0.488874 0)
(50.1774 -0.11606 0)
(60.4099 -0.853098 1.07897e-17)
(71.0833 -1.63086 -1.07506e-17)
(25.4581 -2.17105 0)
(25.4498 -2.17231 0)
(25.4416 -2.17367 0)
(25.4336 -2.17515 0)
(25.4258 -2.17677 0)
(25.4182 -2.17851 0)
(25.4107 -2.18037 0)
(25.4033 -2.18234 0)
(25.3961 -2.18443 0)
(25.389 -2.18663 0)
(25.3821 -2.18894 0)
(25.3753 -2.19134 0)
(25.3687 -2.19385 0)
(25.3622 -2.19645 0)
(25.3557 -2.19915 0)
(25.3495 -2.20194 0)
(25.3433 -2.20481 0)
(25.3373 -2.20777 0)
(25.3313 -2.21081 0)
(25.3255 -2.21394 0)
(25.3198 -2.21713 0)
(25.3141 -2.22041 0)
(25.3086 -2.22375 0)
(25.3032 -2.22716 0)
(25.2979 -2.23064 0)
(25.2927 -2.23419 0)
(25.2875 -2.2378 0)
(25.2825 -2.24146 0)
(25.2775 -2.24519 0)
(25.2726 -2.24898 0)
(25.2679 -2.25282 0)
(25.2631 -2.25671 0)
(25.2585 -2.26065 0)
(25.254 -2.26464 0)
(25.2495 -2.26868 0)
(25.2451 -2.27276 0)
(25.2407 -2.27689 0)
(25.2365 -2.28107 0)
(25.2323 -2.28528 0)
(25.2281 -2.28953 0)
(25.2241 -2.29382 0)
(25.2201 -2.29815 0)
(25.2161 -2.30251 0)
(25.2123 -2.3069 0)
(25.2085 -2.31133 0)
(25.2047 -2.31579 0)
(25.201 -2.32028 0)
(25.1973 -2.3248 0)
(25.1938 -2.32934 0)
(25.1902 -2.33392 0)
(25.1867 -2.33851 0)
(25.1833 -2.34314 0)
(25.1799 -2.34778 0)
(25.1766 -2.35245 0)
(25.1733 -2.35714 0)
(25.1701 -2.36185 0)
(25.1669 -2.36658 0)
(25.1637 -2.37133 0)
(25.1606 -2.37609 0)
(25.1576 -2.38087 0)
(25.1545 -2.38567 0)
(25.1516 -2.39049 0)
(25.1486 -2.39532 0)
(25.1458 -2.40016 0)
(25.1429 -2.40501 0)
(25.1401 -2.40988 0)
(25.1373 -2.41476 0)
(25.1346 -2.41964 0)
(25.1319 -2.42454 0)
(25.1292 -2.42945 0)
(25.1266 -2.43436 0)
(25.124 -2.43929 0)
(25.1214 -2.4442 0)
(24.4073 -1.7098 0)
(24.4066 -1.72079 0)
(24.406 -1.73163 0)
(24.4055 -1.74234 0)
(24.405 -1.75293 0)
(24.4046 -1.7634 0)
(24.4042 -1.77376 0)
(24.4039 -1.784 0)
(24.4036 -1.79414 0)
(24.4033 -1.80417 0)
(24.4031 -1.8141 0)
(24.403 -1.82393 0)
(24.4028 -1.83367 0)
(24.4028 -1.84331 0)
(24.4027 -1.85286 0)
(24.4027 -1.86233 0)
(24.4027 -1.87171 0)
(24.4028 -1.881 0)
(24.4028 -1.89022 0)
(24.403 -1.89935 0)
(24.4031 -1.90841 0)
(24.4033 -1.91739 0)
(24.4035 -1.9263 0)
(24.4037 -1.93513 0)
(24.4039 -1.9439 0)
(24.4042 -1.9526 0)
(24.4045 -1.96124 0)
(24.4048 -1.9698 0)
(24.4051 -1.97831 0)
(24.4055 -1.98676 0)
(24.4058 -1.99514 0)
(24.4062 -2.00347 0)
(24.4066 -2.01174 0)
(24.407 -2.01995 0)
(24.4075 -2.02811 0)
(24.4079 -2.03622 0)
(24.4084 -2.04427 0)
(24.4089 -2.05227 0)
(24.4093 -2.06023 0)
(24.4098 -2.06813 0)
(24.4104 -2.07599 0)
(24.4109 -2.0838 0)
(24.4114 -2.09156 0)
(24.412 -2.09928 0)
(24.4125 -2.10696 0)
(24.4131 -2.11459 0)
(24.4136 -2.12218 0)
(24.4142 -2.12973 0)
(24.4148 -2.13724 0)
(24.4154 -2.1447 0)
(24.416 -2.15213 0)
(24.4166 -2.15953 0)
(24.4172 -2.16691 0)
(24.4178 -2.17427 0)
(24.4184 -2.18159 0)
(24.4191 -2.18888 0)
(24.4197 -2.19612 0)
(24.4203 -2.20333 0)
(24.421 -2.2105 0)
(24.4216 -2.21763 0)
(24.4223 -2.22472 0)
(24.4229 -2.23178 0)
(24.4236 -2.2388 0)
(24.4242 -2.24579 0)
(24.4249 -2.25274 0)
(24.4255 -2.25966 0)
(24.4262 -2.26655 0)
(24.4268 -2.2734 0)
(24.4275 -2.28022 0)
(24.4281 -2.28701 0)
(24.4288 -2.29376 0)
(24.4295 -2.30048 0)
(24.4301 -2.30718 0)
(24.5633 -2.10736 0)
(24.5634 -2.11214 0)
(24.5634 -2.11689 0)
(24.5634 -2.12164 0)
(24.5634 -2.1264 0)
(24.5633 -2.13117 0)
(24.5632 -2.13595 0)
(24.5631 -2.14074 0)
(24.563 -2.14554 0)
(24.5629 -2.15035 0)
(24.5627 -2.15517 0)
(24.5626 -2.15999 0)
(24.5624 -2.16483 0)
(24.5622 -2.16968 0)
(24.562 -2.17454 0)
(24.5618 -2.17941 0)
(24.5616 -2.18429 0)
(24.5614 -2.18918 0)
(24.5611 -2.19408 0)
(24.5609 -2.19899 0)
(24.5607 -2.20391 0)
(24.5604 -2.20883 0)
(24.5602 -2.21377 0)
(24.5599 -2.21872 0)
(24.5597 -2.22367 0)
(24.5594 -2.22864 0)
(24.5592 -2.23361 0)
(24.5589 -2.2386 0)
(24.5587 -2.24359 0)
(24.5585 -2.24859 0)
(24.5582 -2.25359 0)
(24.558 -2.25861 0)
(24.5577 -2.26363 0)
(24.5575 -2.26866 0)
(24.5573 -2.2737 0)
(24.5571 -2.27874 0)
(24.5568 -2.28379 0)
(24.5566 -2.28884 0)
(24.5564 -2.2939 0)
(24.5562 -2.29896 0)
(24.5561 -2.30403 0)
(24.5559 -2.30911 0)
(24.5557 -2.31419 0)
(24.5556 -2.31927 0)
(24.5554 -2.32436 0)
(24.5553 -2.32945 0)
(24.5552 -2.33455 0)
(24.5551 -2.33964 0)
(24.555 -2.34474 0)
(24.5549 -2.34985 0)
(24.5548 -2.35495 0)
(24.5548 -2.36006 0)
(24.5547 -2.36517 0)
(24.5547 -2.37028 0)
(24.5547 -2.37539 0)
(24.5547 -2.38051 0)
(24.5547 -2.38562 0)
(24.5547 -2.39073 0)
(24.5547 -2.39585 0)
(24.5547 -2.40096 0)
(24.5548 -2.40608 0)
(24.5548 -2.41119 0)
(24.5549 -2.41631 0)
(24.555 -2.42142 0)
(24.5551 -2.42653 0)
(24.5552 -2.43164 0)
(24.5554 -2.43675 0)
(24.5555 -2.44186 0)
(24.5557 -2.44696 0)
(24.5558 -2.45206 0)
(24.556 -2.45716 0)
(24.5562 -2.46226 0)
(24.5564 -2.46736 0)
(24.3264 -1.74488 0)
(24.3245 -1.75396 0)
(24.3227 -1.76298 0)
(24.3209 -1.77198 0)
(24.3191 -1.78095 0)
(24.3174 -1.7899 0)
(24.3158 -1.79883 0)
(24.3141 -1.80773 0)
(24.3126 -1.8166 0)
(24.311 -1.82545 0)
(24.3096 -1.83427 0)
(24.3081 -1.84306 0)
(24.3067 -1.85183 0)
(24.3053 -1.86057 0)
(24.304 -1.86929 0)
(24.3028 -1.87797 0)
(24.3015 -1.88663 0)
(24.3003 -1.89526 0)
(24.2992 -1.90386 0)
(24.298 -1.91243 0)
(24.297 -1.92097 0)
(24.2959 -1.92948 0)
(24.2949 -1.93797 0)
(24.2939 -1.94642 0)
(24.293 -1.95484 0)
(24.2921 -1.96323 0)
(24.2912 -1.97159 0)
(24.2904 -1.97992 0)
(24.2896 -1.98821 0)
(24.2888 -1.99647 0)
(24.2881 -2.0047 0)
(24.2874 -2.01289 0)
(24.2868 -2.02105 0)
(24.2861 -2.02917 0)
(24.2855 -2.03725 0)
(24.285 -2.04538 0)
(24.2844 -2.05355 0)
(24.2839 -2.0617 0)
(24.2835 -2.06984 0)
(24.283 -2.07794 0)
(24.2826 -2.08602 0)
(24.2822 -2.09407 0)
(24.2819 -2.1021 0)
(24.2815 -2.11009 0)
(24.2812 -2.11806 0)
(24.281 -2.126 0)
(24.2807 -2.13392 0)
(24.2805 -2.1418 0)
(24.2803 -2.14966 0)
(24.2801 -2.15749 0)
(24.28 -2.16529 0)
(24.2798 -2.17307 0)
(24.2798 -2.18082 0)
(24.2797 -2.18854 0)
(24.2796 -2.19622 0)
(24.2796 -2.20387 0)
(24.2796 -2.21149 0)
(24.2796 -2.21908 0)
(24.2797 -2.22665 0)
(24.2797 -2.23419 0)
(24.2798 -2.2417 0)
(24.2799 -2.24918 0)
(24.2801 -2.25664 0)
(24.2802 -2.26407 0)
(24.2804 -2.27147 0)
(24.2806 -2.27884 0)
(24.2808 -2.28619 0)
(24.281 -2.29351 0)
(24.2813 -2.3008 0)
(24.2815 -2.30807 0)
(24.2818 -2.31531 0)
(24.2821 -2.32252 0)
(24.2824 -2.3297 0)
(24.1461 -1.98935 0)
(24.1469 -1.99666 0)
(24.1477 -2.0039 0)
(24.1485 -2.01112 0)
(24.1492 -2.01831 0)
(24.15 -2.02549 0)
(24.1508 -2.03265 0)
(24.1515 -2.03979 0)
(24.1522 -2.04692 0)
(24.153 -2.05402 0)
(24.1537 -2.06111 0)
(24.1545 -2.06819 0)
(24.1552 -2.07524 0)
(24.1559 -2.08228 0)
(24.1566 -2.08931 0)
(24.1573 -2.09633 0)
(24.1581 -2.10333 0)
(24.1588 -2.11031 0)
(24.1595 -2.11728 0)
(24.1602 -2.12423 0)
(24.161 -2.13117 0)
(24.1617 -2.13809 0)
(24.1624 -2.145 0)
(24.1632 -2.15189 0)
(24.1639 -2.15876 0)
(24.1647 -2.16562 0)
(24.1655 -2.17247 0)
(24.1662 -2.1793 0)
(24.167 -2.18611 0)
(24.1678 -2.19291 0)
(24.1686 -2.19969 0)
(24.1694 -2.20646 0)
(24.1702 -2.21322 0)
(24.171 -2.21996 0)
(24.1719 -2.22668 0)
(24.1727 -2.23339 0)
(24.1736 -2.24007 0)
(24.1744 -2.24674 0)
(24.1753 -2.2534 0)
(24.1762 -2.26004 0)
(24.1771 -2.26666 0)
(24.1779 -2.27327 0)
(24.1789 -2.27986 0)
(24.1798 -2.28644 0)
(24.1807 -2.293 0)
(24.1816 -2.29955 0)
(24.1826 -2.30608 0)
(24.1835 -2.31259 0)
(24.1845 -2.31909 0)
(24.1855 -2.32557 0)
(24.1865 -2.33204 0)
(24.1875 -2.33849 0)
(24.1885 -2.34492 0)
(24.1895 -2.35134 0)
(24.1906 -2.35774 0)
(24.1916 -2.36413 0)
(24.1927 -2.3705 0)
(24.1938 -2.37685 0)
(24.1949 -2.38319 0)
(24.196 -2.38951 0)
(24.1971 -2.39581 0)
(24.1982 -2.4021 0)
(24.1994 -2.40836 0)
(24.2005 -2.41461 0)
(24.2017 -2.42085 0)
(24.2029 -2.42707 0)
(24.2041 -2.43327 0)
(24.2053 -2.43946 0)
(24.2066 -2.44563 0)
(24.2079 -2.45179 0)
(24.2091 -2.45792 0)
(24.2104 -2.46405 0)
(24.2117 -2.47014 0)
(24.0108 -1.80426 0)
(24.0098 -1.81269 0)
(24.0088 -1.82109 0)
(24.0079 -1.82949 0)
(24.007 -1.83788 0)
(24.0061 -1.84628 0)
(24.0053 -1.85467 0)
(24.0045 -1.86305 0)
(24.0037 -1.87142 0)
(24.003 -1.87978 0)
(24.0023 -1.88814 0)
(24.0016 -1.89648 0)
(24.001 -1.90481 0)
(24.0004 -1.91324 0)
(23.9998 -1.92172 0)
(23.9993 -1.93021 0)
(23.9988 -1.9387 0)
(23.9984 -1.94719 0)
(23.9979 -1.95568 0)
(23.9975 -1.96416 0)
(23.9972 -1.97263 0)
(23.9969 -1.9811 0)
(23.9966 -1.98956 0)
(23.9963 -1.99802 0)
(23.9961 -2.00647 0)
(23.9959 -2.01491 0)
(23.9957 -2.02335 0)
(23.9956 -2.03177 0)
(23.9955 -2.04019 0)
(23.9954 -2.04859 0)
(23.9954 -2.05699 0)
(23.9954 -2.06537 0)
(23.9954 -2.07375 0)
(23.9955 -2.08211 0)
(23.9956 -2.09046 0)
(23.9957 -2.0988 0)
(23.9958 -2.10713 0)
(23.996 -2.11544 0)
(23.9962 -2.12374 0)
(23.9965 -2.13202 0)
(23.9967 -2.14029 0)
(23.997 -2.14855 0)
(23.9974 -2.15679 0)
(23.9977 -2.16502 0)
(23.9981 -2.17323 0)
(23.9985 -2.18142 0)
(23.999 -2.18959 0)
(23.9994 -2.19775 0)
(23.9999 -2.2059 0)
(24.0004 -2.21402 0)
(24.001 -2.22212 0)
(24.0016 -2.23021 0)
(24.0022 -2.23828 0)
(24.0028 -2.24633 0)
(24.0035 -2.25436 0)
(24.0042 -2.26237 0)
(24.0049 -2.27036 0)
(24.0056 -2.27833 0)
(24.0064 -2.28628 0)
(24.0072 -2.29421 0)
(24.008 -2.30212 0)
(24.0089 -2.31001 0)
(24.0097 -2.31788 0)
(24.0106 -2.32574 0)
(24.0115 -2.33365 0)
(24.0125 -2.34156 0)
(24.0135 -2.34945 0)
(24.0144 -2.35732 0)
(24.0155 -2.36515 0)
(24.0165 -2.37296 0)
(24.0175 -2.38073 0)
(24.0186 -2.38847 0)
(24.0197 -2.39619 0)
(23.8045 -1.92788 0)
(23.8051 -1.93662 0)
(23.8056 -1.94531 0)
(23.8062 -1.95398 0)
(23.8068 -1.96263 0)
(23.8075 -1.97127 0)
(23.8082 -1.97989 0)
(23.8089 -1.98849 0)
(23.8096 -1.99716 0)
(23.8103 -2.00583 0)
(23.8111 -2.01449 0)
(23.8119 -2.02313 0)
(23.8127 -2.03174 0)
(23.8136 -2.04033 0)
(23.8145 -2.04888 0)
(23.8154 -2.05741 0)
(23.8163 -2.06592 0)
(23.8173 -2.0744 0)
(23.8183 -2.08287 0)
(23.8193 -2.0913 0)
(23.8203 -2.09972 0)
(23.8213 -2.10811 0)
(23.8224 -2.11649 0)
(23.8235 -2.12483 0)
(23.8246 -2.13316 0)
(23.8258 -2.14146 0)
(23.8269 -2.14974 0)
(23.8281 -2.158 0)
(23.8294 -2.16623 0)
(23.8306 -2.17445 0)
(23.8319 -2.18263 0)
(23.8331 -2.1908 0)
(23.8345 -2.19894 0)
(23.8358 -2.20706 0)
(23.8372 -2.21515 0)
(23.8385 -2.22322 0)
(23.8399 -2.23126 0)
(23.8414 -2.23929 0)
(23.8428 -2.24728 0)
(23.8443 -2.25526 0)
(23.8458 -2.26321 0)
(23.8474 -2.27114 0)
(23.8489 -2.27905 0)
(23.8505 -2.28694 0)
(23.8521 -2.2948 0)
(23.8537 -2.30264 0)
(23.8554 -2.31046 0)
(23.8571 -2.31825 0)
(23.8588 -2.32602 0)
(23.8606 -2.33376 0)
(23.8623 -2.34148 0)
(23.8641 -2.34918 0)
(23.8659 -2.35685 0)
(23.8678 -2.3645 0)
(23.8696 -2.37212 0)
(23.8715 -2.37972 0)
(23.8734 -2.38729 0)
(23.8754 -2.39483 0)
(23.8773 -2.40235 0)
(23.8793 -2.40985 0)
(23.8813 -2.41732 0)
(23.8833 -2.42476 0)
(23.8854 -2.43218 0)
(23.8874 -2.43956 0)
(23.8895 -2.44693 0)
(23.8916 -2.45426 0)
(23.8937 -2.46157 0)
(23.8959 -2.46885 0)
(23.898 -2.4761 0)
(23.9002 -2.48333 0)
(23.9024 -2.49053 0)
(23.9046 -2.4977 0)
(23.9068 -2.50486 0)
(23.6838 -1.83968 0)
(23.6834 -1.84898 0)
(23.6832 -1.85825 0)
(23.6829 -1.86751 0)
(23.6827 -1.87678 0)
(23.6825 -1.88606 0)
(23.6824 -1.89533 0)
(23.6823 -1.90461 0)
(23.6823 -1.91388 0)
(23.6822 -1.92316 0)
(23.6823 -1.93244 0)
(23.6823 -1.94172 0)
(23.6824 -1.95099 0)
(23.6825 -1.96027 0)
(23.6827 -1.96954 0)
(23.6829 -1.9788 0)
(23.6832 -1.98807 0)
(23.6835 -1.99733 0)
(23.6838 -2.00659 0)
(23.6842 -2.01585 0)
(23.6846 -2.02511 0)
(23.685 -2.03436 0)
(23.6856 -2.0436 0)
(23.6861 -2.05284 0)
(23.6867 -2.06207 0)
(23.6873 -2.07129 0)
(23.688 -2.08051 0)
(23.6887 -2.08971 0)
(23.6894 -2.09891 0)
(23.6902 -2.1081 0)
(23.691 -2.11727 0)
(23.6919 -2.12644 0)
(23.6928 -2.13559 0)
(23.6938 -2.14473 0)
(23.6948 -2.15386 0)
(23.6958 -2.16297 0)
(23.6969 -2.17207 0)
(23.698 -2.18115 0)
(23.6991 -2.19022 0)
(23.7003 -2.19929 0)
(23.7015 -2.20843 0)
(23.7028 -2.21759 0)
(23.704 -2.22672 0)
(23.7054 -2.23584 0)
(23.7067 -2.24492 0)
(23.7081 -2.25397 0)