/*--------------------------------*- C++ -*----------------------------------*\
  =========                 |
  \\      /  F ield         | OpenFOAM: The Open Source CFD Toolbox
   \\    /   O peration     | Website:  https://openfoam.org
    \\  /    A nd           | Version:  9
     \\/     M anipulation  |
\*---------------------------------------------------------------------------*/
FoamFile
{
    format      ascii;
    class       volVectorField;
    location    "0.0025";
    object      U;
}
// * * * * * * * * * * * * * * * * * * * * * * * * * * * * * * * * * * * * * //

dimensions      [0 1 -1 0 0 0 0];

internalField   nonuniform List<vector> 
5373
(
(2.59009 0.0671516 0)
(1.91155 -0.0211698 0)
(4.32506 0.0913439 3.69193e-16)
(3.95089 0.159382 -3.43617e-16)
(4.86632 0.167766 -2.61976e-16)
(5.36768 0.144483 -1.15176e-16)
(1.50245 -0.0961666 8.73975e-16)
(1.61034 -0.19981 -4.79345e-16)
(1.89244 -0.139385 -7.70298e-16)
(2.16077 0.0407393 2.93785e-16)
(2.39239 0.329949 2.32342e-16)
(2.59487 0.666822 0)
(2.76466 1.02313 -8.4701e-17)
(2.92117 1.40568 -2.31456e-16)
(3.10647 1.84923 1.43648e-16)
(3.32183 2.33488 1.36735e-16)
(3.55344 2.84388 1.00312e-21)
(3.79602 3.37065 1.32025e-16)
(4.04873 3.91694 1.3247e-16)
(4.30875 4.48348 -3.34156e-17)
(4.57153 5.06854 -3.43157e-17)
(4.83502 5.69513 7.18072e-17)
(5.12801 6.37712 3.81583e-17)
(5.48556 7.09788 0)
(6.00358 7.86244 2.83745e-17)
(6.75967 8.56216 -3.47216e-17)
(3.72426 0.252589 2.42771e-16)
(3.72223 0.331218 -5.92602e-17)
(3.81443 0.441112 -2.79988e-16)
(3.93905 0.589446 3.20605e-16)
(4.06163 0.787217 0)
(4.17535 1.03172 3.84913e-22)
(4.27889 1.31853 -9.93141e-17)
(4.37724 1.65295 -1.97459e-16)
(4.49429 2.03791 1.47851e-16)
(4.64309 2.47551 -4.98566e-17)
(4.82044 2.96346 5.11059e-17)
(5.02151 3.49699 1.05797e-16)
(5.24492 4.08009 -2.71069e-17)
(5.49309 4.72304 5.48204e-17)
(5.77379 5.43865 -1.02059e-21)
(6.07922 6.23638 1.44183e-17)
(6.41046 7.13406 -6.03463e-17)
(6.7926 8.15817 1.60132e-17)
(7.34748 9.33544 -1.73601e-17)
(8.06473 10.5708 1.91909e-17)
(4.77337 0.242813 1.57855e-16)
(4.7731 0.310247 0)
(4.81939 0.408018 2.62773e-16)
(4.88842 0.542836 -3.06833e-22)
(4.96051 0.726224 -8.48652e-17)
(5.02971 0.953041 6.81699e-22)
(5.09709 1.22133 0)
(5.16864 1.53713 1.70372e-16)
(5.25698 1.90576 -4.30879e-17)
(5.37532 2.33123 -1.32171e-21)
(5.52935 2.81013 -9.05985e-17)
(5.71831 3.33659 -9.43059e-17)
(5.94253 3.91471 2.40266e-17)
(6.20417 4.55417 -7.25856e-17)
(6.50959 5.26744 -7.36463e-17)
(6.87179 6.06877 0)
(7.29579 6.98111 0)
(7.7774 8.02906 0)
(8.42323 9.21758 3.62155e-18)
(9.25784 10.5126 9.74594e-18)
(5.33182 0.220599 1.74652e-16)
(5.34567 0.29333 -3.86537e-17)
(5.38736 0.386839 -1.54072e-16)
(5.44445 0.505779 1.53329e-16)
(5.50651 0.658841 -3.54876e-22)
(5.5692 0.850028 4.45931e-22)
(5.63304 1.08618 7.81202e-17)
(5.70287 1.37142 -7.94358e-17)
(5.78917 1.70799 8.10749e-17)
(5.90265 2.10308 -4.16581e-17)
(6.05308 2.55289 0)
(6.24441 3.0558 4.48452e-17)
(6.47982 3.61689 -6.77425e-17)
(6.76087 4.24656 -2.24757e-17)
(7.09436 4.95417 9.01546e-17)
(7.49217 5.75314 1.13815e-17)
(7.98024 6.66247 -2.31722e-17)
(8.55919 7.70315 -1.19207e-17)
(9.28056 8.8993 -3.12583e-18)
(10.163 10.27 -3.802e-17)
(5.67703 0.186778 1.43089e-16)
(5.6967 0.253011 -1.06511e-16)
(5.73699 0.334418 -1.42902e-16)
(5.79072 0.437127 7.17901e-17)
(5.85125 0.569466 -7.2392e-17)
(5.91489 0.736851 7.34058e-17)
(5.98256 0.945343 -1.49574e-16)
(6.05837 1.19861 -7.65477e-17)
(6.15077 1.50339 1.57479e-16)
(6.27035 1.86538 4.06945e-17)
(6.42717 2.28196 -8.44538e-17)
(6.62813 2.75557 8.80606e-17)
(6.87905 3.29131 2.19957e-17)
(7.18466 3.89804 -1.28592e-21)
(7.55282 4.58988 -6.42771e-17)
(7.9962 5.37958 3.201e-17)
(8.53852 6.28703 -2.13953e-17)
(9.2055 7.33057 3.2418e-17)
(10.0476 8.53437 2.77321e-18)
(10.9825 9.97152 1.86965e-17)
(5.90787 0.147709 2.70601e-16)
(5.93069 0.210269 -1.00631e-16)
(5.96786 0.285452 0)
(6.01627 0.377395 1.37613e-16)
(6.07245 0.492355 -2.0956e-16)
(6.13548 0.637785 -7.12679e-17)
(6.20663 0.818592 2.19244e-16)
(6.28974 1.04008 -1.50584e-16)
(6.39082 1.3106 -7.79038e-17)
(6.51958 1.6336 2.02148e-16)
(6.68658 2.01208 -8.41871e-17)
(6.90045 2.45097 0)
(7.16934 2.95627 4.38453e-17)
(7.50115 3.53473 0)
(7.9041 4.19953 -4.17812e-17)
(8.39406 4.9705 -1.02677e-17)
(8.99799 5.86481 -3.04242e-17)
(9.74303 6.90628 0)
(10.7155 8.09668 0)
(11.768 9.55084 0)
(6.08713 0.166051 -2.90557e-16)
(6.12183 0.232681 1.31931e-16)
(6.16527 0.313653 -6.7227e-17)
(6.21784 0.415443 6.86929e-17)
(6.27942 0.542286 0)
(6.35172 0.699623 0)
(6.43859 0.893409 0)
(6.54591 1.1306 -7.80382e-17)
(6.68209 1.41676 4.66177e-22)
(6.85792 1.75796 1.27325e-16)
(7.08471 2.15644 -4.44797e-17)
(7.37167 2.61874 -2.2203e-17)
(7.72897 3.15673 -4.29047e-17)
(8.16799 3.78602 2.07828e-17)
(8.70274 4.52639 -3.02737e-17)
(9.36496 5.401 3.27802e-22)
(10.1853 6.43084 -9.60641e-18)
(11.2745 7.61219 2.36916e-18)
(12.4851 9.06068 1.52619e-17)
(6.22131 0.183411 -3.19789e-22)
(6.26218 0.253957 6.65727e-17)
(6.31154 0.343088 -1.36761e-16)
(6.37082 0.454117 7.04996e-17)
(6.44245 0.591442 -7.29697e-17)
(6.53053 0.760399 -7.58224e-17)
(6.64103 0.96707 3.6847e-22)
(6.78207 1.2171 4.1335e-17)
(6.96311 1.51544 -8.66685e-17)
(7.19672 1.86714 4.55689e-17)
(7.49681 2.28306 -2.28312e-17)
(7.87623 2.77748 -1.27932e-21)
(8.34906 3.36487 2.10322e-17)
(8.9314 4.06459 1.00933e-17)
(9.65381 4.90743 -1.93994e-17)
(10.5475 5.91633 2.80246e-17)
(11.7359 7.09043 -1.81122e-17)
(13.1252 8.51107 -1.86544e-17)
(6.32222 0.199143 -6.6683e-17)
(6.36967 0.27554 0)
(6.42648 0.371215 0)
(6.49598 0.489403 0)
(6.58267 0.634708 4.32009e-22)
(6.69263 0.812462 8.10408e-17)
(6.83412 1.02834 8.50303e-17)
(7.01764 1.28872 -8.93861e-17)
(7.25555 1.60273 9.41338e-17)
(7.56334 1.97879 2.36871e-17)
(7.95779 2.42845 -2.2637e-17)
(8.45698 2.96785 0)
(9.08093 3.61762 3.07319e-17)
(9.86245 4.40885 1.45768e-21)
(10.8363 5.37548 9.23503e-18)
(12.1098 6.53413 1.76185e-17)
(13.6848 7.92466 -1.04563e-18)
(6.35452 0.15291 -6.75399e-17)
(6.40067 0.215866 0)
(6.4548 0.296486 7.29522e-17)
(6.521 0.397143 -1.52171e-16)
(6.6044 0.521793 -3.57712e-22)
(6.7114 0.675342 -1.66868e-16)
(6.85034 0.863383 4.38021e-22)
(7.03216 1.09215 -1.34573e-22)
(7.27015 1.36867 -9.73159e-17)
(7.58105 1.702 2.46424e-17)
(7.98491 2.10453 -2.35008e-17)
(8.50368 2.59333 0)
(9.16214 3.18952 1.05096e-17)
(9.99554 3.92358 -1.97591e-17)
(11.0521 4.83208 9.26422e-18)
(12.4131 5.94669 0)
(14.1635 7.3182 0)
(6.40895 0.167514 0)
(6.45929 0.234733 7.4822e-17)
(6.52015 0.319969 1.56285e-16)
(6.59746 0.426329 8.17894e-17)
(6.69832 0.557768 8.57893e-17)
(6.83151 0.719248 -1.0882e-21)
(7.00838 0.916968 -1.10822e-21)
(7.24302 1.15788 5.01505e-17)
(7.55321 1.45113 -2.55671e-17)
(7.96165 1.80822 -1.29469e-21)
(8.49416 2.24566 -4.62219e-17)
(9.18086 2.78497 3.25873e-17)
(10.0597 3.45578 1.01408e-17)
(11.1918 4.29787 -1.88301e-17)
(12.6469 5.33909 2.18159e-18)
(14.5668 6.68443 -1.90205e-17)
(6.39158 0.129558 7.35434e-17)
(6.43601 0.184067 -7.6647e-17)
(6.48944 0.254672 -8.00291e-17)
(6.55812 0.344248 -8.37451e-17)
(6.64996 0.455902 4.39106e-17)
(6.77452 0.593554 9.23014e-17)
(6.94378 0.762868 -4.54223e-22)
(7.17256 0.970419 -5.13534e-17)
(7.47922 1.22488 5.26817e-17)
(7.88856 1.53751 -5.05381e-17)
(8.43008 1.92413 0)
(9.13926 2.40555 -1.12759e-17)
(10.0578 3.00947 -2.09875e-17)
(11.2581 3.77778 4.83885e-17)
(12.807 4.73592 2.21851e-18)
(14.8952 6.01276 -1.00477e-18)
(6.37772 0.141861 0)
(6.42201 0.199322 8.16734e-17)
(6.48024 0.273231 -1.70855e-16)
(6.56072 0.366885 1.34393e-16)
(6.67399 0.483072 0)
(6.83317 0.626603 0)
(7.05417 0.803564 0)
(7.35546 1.02169 8.09482e-17)
(7.76349 1.29155 -1.73064e-21)
(8.31071 1.62807 -2.49019e-17)
(9.03751 2.05151 1.17528e-17)
(9.98999 2.5868 -3.28402e-17)
(11.2531 3.27586 -2.01135e-17)
(12.8875 4.14016 -1.83005e-17)
(15.1481 5.30881 1.53427e-17)
(6.31859 0.155779 0)
(6.36394 0.216091 0)
(6.43079 0.292931 0)
(6.52988 0.388977 -4.83375e-17)
(6.67508 0.50823 5.09592e-17)
(6.88356 0.655724 0)
(7.17663 0.839079 -2.77396e-17)
(7.58225 1.06867 -2.69633e-17)
(8.13313 1.35773 0)
(8.87418 1.72429 0)
(9.85551 2.18978 2.30859e-17)
(11.1764 2.79549 2.11702e-17)
(12.8887 3.5572 1.91383e-17)
(15.3174 4.60575 -1.05855e-18)
(6.16575 0.120237 0)
(6.19582 0.169321 -4.52523e-17)
(6.24775 0.231591 2.38053e-16)
(6.33256 0.310306 5.01829e-17)
(6.46433 0.408537 -1.05945e-16)
(6.66075 0.530188 5.59654e-17)
(6.9433 0.680793 -5.77289e-17)
(7.34144 0.869586 2.83114e-17)
(7.89353 1.11326 -2.75455e-17)
(8.64689 1.42559 -1.32087e-17)
(9.65347 1.82102 1.23755e-17)
(11.0273 2.34002 -2.26457e-17)
(12.8118 2.99136 0)
(15.403 3.90247 7.81612e-18)
(5.94068 0.0917838 0)
(5.95408 0.130881 -1.43071e-16)
(5.99083 0.180767 1.00619e-16)
(6.06201 0.244054 5.31474e-17)
(6.18161 0.323387 5.62253e-17)
(6.3675 0.422493 2.97698e-17)
(6.64158 0.544966 -6.80209e-22)
(7.03479 0.699493 0)
(7.58574 0.897105 2.9999e-17)
(8.34784 1.15593 0)
(9.37704 1.48407 0)
(10.8005 1.91613 -6.17291e-18)
(12.6505 2.45589 5.52482e-18)
(15.4041 3.21276 -9.62584e-18)
(5.60338 0.101875 -1.56009e-16)
(5.62565 0.140837 -5.50777e-17)
(5.68442 0.190342 -5.83668e-17)
(5.79334 0.252702 -6.18525e-17)
(5.97025 0.331078 -3.27704e-17)
(6.23809 0.427915 -3.36014e-17)
(6.62828 0.551772 -6.7062e-17)
(7.18199 0.70688 -3.31764e-17)
(7.95578 0.90777 3.20593e-17)
(9.00625 1.16658 -3.01527e-17)
(10.4798 1.5071 0)
(12.3965 1.91715 0)
(15.3049 2.49336 9.32642e-18)
(5.07143 0.0803771 -5.99683e-17)
(5.081 0.109875 1.27271e-16)
(5.12964 0.147893 0)
(5.2299 0.196082 -7.1204e-17)
(5.40055 0.257552 7.49343e-17)
(5.66628 0.333705 3.80019e-17)
(6.05884 0.432052 3.78845e-17)
(6.61985 0.556871 3.73432e-17)
(7.41068 0.713238 -3.61756e-17)
(8.48832 0.917401 3.43654e-17)
(10.0118 1.19583 -7.8935e-18)
(11.997 1.51999 7.02007e-18)
(15.0418 1.90866 -1.97257e-17)
(4.20919 0.071779 2.04207e-17)
(4.25198 0.0966062 -1.72634e-16)
(4.34822 0.127898 9.03969e-17)
(4.51863 0.166229 -9.3655e-17)
(4.78564 0.213583 -1.17817e-17)
(5.1826 0.272923 0)
(5.75263 0.344885 0)
(6.56508 0.429504 0)
(7.68587 0.527508 0)
(9.28811 0.650619 -9.62059e-18)
(11.3749 0.798794 4.19794e-18)
(14.6235 0.941858 8.99995e-18)
(2.35767 0.20019 -5.48383e-16)
(2.39503 0.237858 2.67656e-16)
(2.47969 0.287995 1.37014e-16)
(2.61907 0.3533 -2.75965e-16)
(2.83347 0.436369 2.21909e-16)
(3.15693 0.540728 -1.32893e-16)
(3.63156 0.668156 1.27095e-16)
(4.32988 0.823671 -5.96729e-17)
(5.30333 0.995185 -2.75557e-17)
(6.82549 1.16719 3.74811e-17)
(8.56534 1.29361 -1.08086e-17)
(12.3928 1.2315 2.31449e-18)
(8.01651 9.21926 5.64559e-17)
(9.72164 10.0762 -2.22755e-17)
(11.4678 10.9336 -3.07299e-18)
(13.3669 11.6822 1.49773e-18)
(15.4823 12.331 -1.47019e-18)
(17.8667 12.9066 0)
(20.6192 13.4249 0)
(23.8263 13.8924 0)
(27.5919 14.2932 2.20335e-17)
(32.0372 14.6143 4.31793e-17)
(37.313 14.8281 -2.05422e-20)
(43.6021 14.8945 1.67256e-20)
(51.0754 14.7541 3.86016e-20)
(60.0074 14.349 -3.7622e-20)
(70.3763 13.5296 -9.0911e-18)
(82.7689 12.2081 -3.41496e-20)
(95.1838 10.2423 0)
(110.822 7.73591 6.96658e-21)
(116.447 4.55641 -6.91379e-21)
(126.751 0.519947 -6.58471e-19)
(9.30655 11.7726 -2.2232e-17)
(11.0427 12.9548 2.18564e-17)
(13.0179 14.1544 0)
(15.2713 15.2714 -2.22692e-17)
(17.889 16.3077 1.28686e-18)
(20.9336 17.3079 0)
(24.4961 18.3005 1.98402e-17)
(28.6952 19.2906 -1.94788e-17)
(33.6964 20.2934 -1.91063e-17)
(39.7058 21.2937 -1.86906e-17)
(46.9838 22.2557 -1.77551e-20)
(55.8717 23.1263 -1.77176e-17)
(66.7562 23.82 1.71593e-17)
(80.1855 24.2026 0)
(96.4875 24.1101 3.00912e-20)
(116.744 23.3353 -2.91173e-20)
(139.541 21.55 6.73568e-18)
(168.025 18.4909 1.24975e-20)
(190.428 14.1871 1.33707e-18)
(222.05 3.02739 2.08893e-21)
(10.6668 11.5669 -1.67531e-17)
(12.5072 12.4939 1.90876e-17)
(14.5992 13.4322 0)
(16.9256 14.3315 3.85408e-17)
(19.604 15.192 1.73907e-17)
(22.7101 16.0511 -1.86681e-17)
(26.3411 16.9204 -1.79137e-17)
(30.628 17.7938 1.79907e-17)
(35.7416 18.6634 3.54729e-17)
(41.9016 19.5266 -1.74412e-17)
(49.387 20.3665 0)
(58.5656 21.1472 0)
(69.869 21.8009 -3.2582e-17)
(83.9062 22.2524 7.84031e-18)
(101.156 22.2772 2.87897e-20)
(122.697 21.5962 -2.7857e-20)
(147.753 19.9938 -6.42457e-18)
(178.803 17.0287 5.51186e-21)
(207.385 14.0196 -1.24433e-18)
(241.686 1.517 0)
(11.5445 11.357 1.92262e-17)
(13.2783 12.2796 -1.72539e-17)
(15.272 13.2083 0)
(17.4908 14.1001 -1.62426e-17)
(20.0755 14.9535 -1.8468e-17)
(23.1176 15.7985 1.70893e-17)
(26.7057 16.6479 1.7284e-17)
(30.9672 17.4967 1.74265e-17)
(36.0667 18.3471 -1.69846e-17)
(42.2238 19.1926 3.3523e-17)
(49.7207 20.0092 -1.60502e-20)
(58.9283 20.7507 1.58079e-20)
(70.2902 21.3525 1.57231e-17)
(84.4223 21.682 -7.59424e-18)
(101.805 21.5979 2.808e-20)
(123.517 20.8588 -2.72604e-20)
(148.833 19.3712 3.20168e-18)
(180.185 16.3355 -6.29917e-21)
(209.793 13.4955 -7.29803e-21)
(244.518 0.752551 1.83046e-21)
(12.3883 11.0164 1.94627e-18)
(14.1076 11.8405 1.9693e-18)
(16.1073 12.6527 1.48467e-17)
(18.3334 13.4265 1.49672e-17)
(20.9213 14.1726 1.60821e-17)
(23.9675 14.9183 0)
(27.5536 15.6762 -8.64897e-22)
(31.8039 16.4414 -1.60538e-17)
(36.8859 17.2122 0)
(43.0198 17.9786 -1.57564e-17)
(50.4872 18.7181 -1.51232e-20)
(59.6571 19.3913 1.49358e-20)
(70.9703 19.9325 -7.45113e-18)
(85.0396 20.2461 0)
(102.343 20.1763 -6.94922e-18)
(123.971 19.4728 -2.6206e-20)
(149.176 18.0238 -3.14726e-18)
(180.498 15.0426 5.35895e-21)
(209.805 12.5685 -4.95124e-21)
(244.713 -0.367926 -4.3904e-19)
(13.222 10.5711 -1.451e-17)
(14.9076 11.3409 0)
(16.8706 12.0954 -1.38898e-17)
(19.0547 12.8176 -1.58942e-17)
(21.5965 13.5258 -1.5566e-17)
(24.6031 14.2372 2.37362e-19)
(28.1568 14.957 -1.49455e-17)
(32.3803 15.6805 0)
(37.4418 16.4052 1.50318e-17)
(43.5588 17.1241 0)
(51.0091 17.8155 1.42608e-20)
(60.1604 18.4396 -1.40844e-20)
(71.4474 18.9386 7.03319e-18)
(85.4834 19.2007 0)
(102.735 19.0954 6.64893e-18)
(124.299 18.3576 6.28451e-18)
(149.383 16.9293 0)
(180.677 13.9493 2.76491e-18)
(209.562 11.7504 -2.26031e-21)
(244.815 -1.31642 4.2683e-19)
(13.9981 10.0678 2.93604e-17)
(15.6506 10.7869 0)
(17.5875 11.4733 -1.41288e-17)
(19.7515 12.1249 1.51509e-17)
(22.2748 12.7691 -8.98842e-19)
(25.267 13.4172 -2.2541e-19)
(28.8091 14.0717 2.25692e-19)
(33.0197 14.7313 0)
(38.0668 15.3941 -1.42719e-17)
(44.1667 16.0538 0)
(51.5962 16.6887 6.93517e-18)
(60.721 17.2607 -6.77098e-18)
(71.9738 17.7131 -2.60652e-20)
(85.965 17.9405 0)
(103.153 17.8262 6.29634e-18)
(124.643 17.1001 -6.01387e-18)
(149.585 15.7657 -1.16659e-20)
(180.881 12.823 -2.65533e-18)
(209.245 10.8982 -1.18192e-18)
(245.29 -1.85365 0)
(14.7162 9.49973 -1.17149e-17)
(16.3399 10.1649 -1.18594e-17)
(18.2489 10.7841 1.2842e-17)
(20.3927 11.3754 -1.46815e-17)
(22.8962 11.9699 1.39115e-17)
(25.87 12.571 0)
(29.3963 13.1774 1.39222e-17)
(33.5926 13.7885 -1.38447e-17)
(38.6265 14.4011 6.85704e-18)
(44.7136 15.0081 0)
(52.1289 15.5895 1.23602e-20)
(61.2357 16.1104 6.48207e-18)
(72.4635 16.518 -6.35886e-18)
(86.4189 16.7126 -6.12937e-18)
(103.552 16.5859 2.18882e-20)
(124.982 15.8739 -3.36762e-20)
(149.768 14.6254 1.11963e-20)
(181.152 11.7368 4.80054e-21)
(208.702 10.0338 1.15158e-18)
(246.755 -2.61554 0)
(15.3725 8.88396 1.64486e-18)
(16.9678 9.49083 1.49742e-17)
(18.847 10.0474 -1.43009e-17)
(20.9738 10.5826 -5.35573e-22)
(23.4629 11.1261 -8.53537e-19)
(26.4233 11.6761 0)
(29.9393 12.2294 -1.36087e-17)
(34.1273 12.7867 2.02561e-17)
(39.1534 13.3449 -6.67473e-18)
(45.2323 13.8963 0)
(52.6378 14.4214 -1.2897e-17)
(61.7311 14.8895 -6.27444e-18)
(72.9384 15.2508 6.12063e-18)
(86.8634 15.4114 1.18774e-17)
(103.946 15.2718 -5.74472e-18)
(125.325 14.5838 -2.19453e-20)
(149.935 13.4173 -1.03067e-20)
(181.53 10.6693 1.00325e-20)
(207.706 9.11336 -1.14483e-18)
(250.256 -3.203 1.96629e-19)
(15.9543 8.22738 0)
(17.5286 8.76975 1.32183e-17)
(19.381 9.26801 1.33697e-17)
(21.4942 9.75034 0)
(23.973 10.2431 -1.35377e-17)
(26.9227 10.7428 0)
(30.4306 11.2451 0)
(34.6125 11.7506 -6.67013e-18)
(39.6335 12.2565 0)
(45.7071 12.7542 6.47112e-18)
(53.1066 13.2232 6.32354e-18)
(62.1912 13.6362 1.26741e-20)
(73.3841 13.9478 0)
(87.2851 14.0719 -5.82649e-18)
(104.324 13.9166 2.17709e-20)
(125.66 13.2567 2.68651e-18)
(150.098 12.1652 1.06281e-20)
(181.948 9.62452 1.2348e-18)
(206.387 8.1084 -6.876e-21)
(255.297 -3.7846 -3.81839e-19)
(16.4581 7.52879 1.64236e-18)
(18.0198 8.00785 -1.16025e-17)
(19.8507 8.45316 -8.38924e-19)
(21.952 8.88611 -7.60206e-18)
(24.4224 9.32959 0)
(27.3636 9.78012 0)
(30.8654 10.2319 0)
(35.0444 10.685 0)
(40.0644 11.1357 -6.57886e-18)
(46.137 11.5766 -6.46334e-18)
(53.5343 11.9883 -6.3251e-18)
(62.6145 12.3448 1.23369e-17)
(73.798 12.6038 0)
(87.6804 12.6888 0)
(104.685 12.5154 2.17555e-20)
(125.977 11.8857 -2.73994e-18)
(150.288 10.8687 0)
(182.214 8.55976 -1.22656e-18)
(205.808 7.03629 1.75176e-18)
(256.483 -4.37101 1.90886e-19)
(16.8765 6.78998 -1.66411e-18)
(18.4313 7.21428 6.71234e-18)
(20.248 7.60948 8.48633e-19)
(22.342 7.99229 1.36841e-17)
(24.8085 8.38405 -8.15698e-18)
(27.7447 8.7836 4.29216e-19)
(31.2429 9.18455 0)
(35.4201 9.58793 0)
(40.44 9.98871 6.66605e-18)
(46.5149 10.3726 0)
(53.9146 10.7242 6.40462e-18)
(62.9946 11.0241 -6.25277e-18)
(74.1737 11.2291 0)
(88.0431 11.2734 2.96297e-18)
(105.02 11.081 2.89731e-18)
(126.27 10.4822 -3.24854e-20)
(150.488 9.54477 5.2187e-22)
(182.381 7.4666 1.00344e-20)
(205.635 5.94857 2.8915e-23)
(256.317 -4.89577 0)
(17.2173 6.01807 1.6976e-18)
(18.7665 6.39123 -6.84875e-18)
(20.5692 6.74245 6.93115e-18)
(22.6548 7.08355 -6.11353e-18)
(25.1188 7.42915 6.1385e-18)
(28.054 7.77938 0)
(31.5541 8.12703 0)
(35.7373 8.46803 6.92002e-18)
(40.7605 8.81372 -6.83506e-18)
(46.8377 9.14614 0)
(54.2431 9.43572 -1.28512e-20)
(63.3273 9.67773 1.26464e-20)
(74.5068 9.82963 0)
(88.3687 9.83379 -3.06064e-18)
(105.326 9.62432 -2.94585e-18)
(126.539 9.05933 -2.25894e-20)
(150.679 8.2074 0)
(182.521 6.35863 4.77895e-21)
(205.494 4.86988 -7.37648e-21)
(256.261 -5.31346 -9.59715e-20)
(17.4692 5.24234 8.71076e-18)
(19.0171 5.56888 0)
(20.8141 5.88019 -6.22918e-18)
(22.894 6.18252 -8.9779e-19)
(25.355 6.48418 7.21529e-18)
(28.2888 6.78658 0)
(31.7891 7.08154 0)
(35.9804 7.35997 3.4764e-23)
(41.0185 7.6309 2.4969e-23)
(47.1033 7.90916 -3.48786e-18)
(54.516 8.14428 -3.41468e-18)
(63.6093 8.3276 3.34549e-18)
(74.7942 8.42859 -2.54566e-20)
(88.6547 8.39385 2.50831e-20)
(105.6 8.16939 2.37907e-20)
(126.784 7.64011 1.44469e-18)
(150.857 6.87828 1.13521e-20)
(182.65 5.25649 4.90534e-21)
(205.35 3.81591 -6.31821e-19)
(256.254 -5.39038 1.01422e-19)
(17.6339 4.47175 -5.39511e-18)
(19.1811 4.76206 -1.81527e-18)
(20.9746 5.03365 9.19986e-19)
(23.0533 5.28971 1.85537e-18)
(25.5168 5.53784 -8.39454e-18)
(28.4554 5.78282 -2.3344e-19)
(31.961 6.01939 2.33246e-19)
(36.1579 6.24152 -7.41636e-18)
(41.2111 6.44501 7.35356e-18)
(47.3154 6.63998 3.63448e-18)
(54.739 6.82481 3.57762e-18)
(63.8447 6.94929 -1.70307e-22)
(75.0399 7.00088 0)
(88.9043 6.93385 -3.33207e-18)
(105.844 6.70202 2.47856e-20)
(127.007 6.2174 -1.55968e-18)
(151.027 5.55538 1.11187e-20)
(182.772 4.16208 -5.76502e-21)
(205.229 2.77995 -5.0959e-21)
(256.281 -5.28578 0)
(17.7202 3.68756 0)
(19.2692 3.93268 3.77223e-18)
(21.0584 4.17227 3.81971e-18)
(23.1323 4.4031 0)
(25.5937 4.63001 0)
(28.5355 4.84455 3.88228e-18)
(32.0488 5.03853 0)
(36.2584 5.20278 0)
(41.326 5.34433 0)
(47.4558 5.44229 0)
(54.901 5.57477 1.45157e-20)
(64.0243 5.6533 -7.3571e-18)
(75.2379 5.65355 2.80142e-20)
(89.1159 5.55188 5.19307e-18)
(106.062 5.30482 2.56566e-20)
(127.22 4.85206 1.55662e-18)
(151.209 4.28018 0)
(182.908 3.09877 6.83587e-19)
(205.207 1.77358 0)
(256.309 -4.84548 0)
(17.7165 2.81332 1.95186e-18)
(19.2916 2.97091 -1.96753e-18)
(21.1016 3.12892 -5.96858e-18)
(23.1895 3.28613 1.00111e-18)
(25.6577 3.45238 -1.00506e-18)
(28.6 3.62148 -4.02316e-18)
(32.1117 3.7892 0)
(36.3231 3.93842 0)
(41.3993 4.04599 0)
(47.5514 4.10622 0)
(55.0284 4.1565 1.90983e-18)
(64.1735 4.19757 1.90037e-18)
(75.4107 4.16204 0)
(89.3134 4.05192 -2.24581e-22)
(106.281 3.83031 0)
(127.46 3.44367 -1.61275e-18)
(151.433 2.99067 0)
(183.044 2.01618 -6.86456e-19)
(205.184 0.767253 -7.39494e-21)
(256.066 -4.09025 1.898e-21)
(17.5165 2.18874 -2.04646e-18)
(19.105 2.36983 -4.11446e-18)
(20.9326 2.53478 3.10009e-18)
(23.042 2.66782 -3.10762e-18)
(25.5369 2.7884 -2.07216e-18)
(28.5085 2.90869 -2.06968e-18)
(32.046 3.02318 -2.57844e-19)
(36.2735 3.137 2.3036e-18)
(41.3651 3.20136 2.02617e-18)
(47.538 3.19006 1.99855e-18)
(55.0517 3.12717 -1.97803e-18)
(64.2361 3.09714 1.93385e-18)
(75.5046 2.99332 -9.32973e-19)
(89.4251 2.79354 -2.7036e-18)
(106.358 2.5075 0)
(127.45 2.11147 -1.2476e-20)
(151.032 1.7169 3.95054e-19)
(182.208 0.980429 5.24954e-21)
(203.039 -0.165495 -1.59928e-19)
(253.359 -2.91692 6.63109e-20)
(17.2366 0.939353 4.29095e-18)
(18.8443 0.990508 0)
(20.6606 1.0446 2.14412e-18)
(22.7544 1.0875 2.14105e-18)
(25.239 1.13367 -4.22373e-22)
(28.1969 1.18218 2.12876e-18)
(31.7192 1.22688 -1.05827e-18)
(35.9149 1.28634 -1.04681e-18)
(40.9359 1.33813 -2.06851e-18)
(47.0017 1.37295 -2.03827e-18)
(54.3599 1.35537 0)
(63.2891 1.30186 -3.05104e-20)
(74.1323 1.27934 9.86938e-19)
(87.3884 1.19129 4.6442e-19)
(103.269 1.03471 0)
(122.818 0.811058 0)
(143.464 0.57609 -4.01841e-19)
(173.8 0.204633 1.86778e-19)
(186.456 -0.661671 8.35287e-20)
(229.797 -1.18902 -8.1498e-20)
(14.1483 1.11522 -4.20195e-22)
(15.7645 1.09822 2.50271e-18)
(17.486 1.09399 -2.47763e-18)
(19.399 1.09495 1.22567e-18)
(21.6248 1.10247 1.21364e-18)
(24.2153 1.10705 0)
(27.2204 1.09938 1.19101e-18)
(30.7027 1.06983 -1.17856e-18)
(34.7633 1.01022 -3.64096e-20)
(39.5137 0.919305 3.61511e-20)
(45.084 0.691935 -1.77917e-20)
(51.6089 0.259027 1.76786e-20)
(59.1766 -0.202976 0)
(67.9228 -0.756717 5.44817e-19)
(77.7356 -1.38374 0)
(88.8991 -1.99562 -1.56949e-20)
(99.4717 -2.49765 1.56376e-20)
(113.227 -2.5926 -2.32394e-19)
(112.137 -2.34696 1.08187e-19)
(133.775 -0.76707 0)
(30.7188 -1.56768 0)
(30.7155 -1.56724 0)
(30.7123 -1.56685 0)
(30.709 -1.56647 0)
(30.7058 -1.56612 0)
(30.7026 -1.56578 0)
(30.6995 -1.56547 0)
(30.6963 -1.56517 0)
(30.6928 -1.56487 0)
(29.435 -1.01215 0)
(29.4341 -1.01661 0)
(29.4332 -1.02107 0)
(29.4324 -1.02551 0)
(29.4315 -1.02991 0)
(29.4307 -1.03429 0)
(29.4299 -1.03863 0)
(29.4291 -1.04286 0)
(29.4282 -1.04672 0)
(29.5055 -1.36725 0)
(29.5065 -1.36972 0)
(29.5076 -1.37218 0)
(29.5086 -1.37464 0)
(29.5096 -1.37709 0)
(29.5107 -1.37953 0)
(29.5117 -1.38195 0)
(29.5127 -1.38432 0)
(29.5138 -1.38646 0)
(29.3153 -1.19257 0)
(29.3156 -1.1959 0)
(29.3158 -1.19922 0)
(29.3161 -1.20253 0)
(29.3164 -1.20584 0)
(29.3166 -1.20913 0)
(29.3169 -1.21242 0)
(29.3172 -1.21567 0)
(29.3175 -1.21877 0)
(29.1139 -1.36685 0)
(29.1154 -1.37063 0)
(29.1169 -1.37437 0)
(29.1183 -1.37811 0)
(29.1198 -1.38184 0)
(29.1213 -1.38555 0)
(29.1228 -1.38923 0)
(29.1243 -1.39285 0)
(29.1257 -1.39618 0)
(28.9596 -1.35493 0)
(28.9611 -1.35909 0)
(28.9625 -1.36322 0)
(28.964 -1.36733 0)
(28.9655 -1.37143 0)
(28.967 -1.37551 0)
(28.9686 -1.37957 0)
(28.9702 -1.38355 0)
(28.9716 -1.38726 0)
(28.7609 -1.48217 0)
(28.7634 -1.48738 0)
(28.7659 -1.49253 0)
(28.7685 -1.49766 0)
(28.7711 -1.50275 0)
(28.7737 -1.50783 0)
(28.7763 -1.51288 0)
(28.7789 -1.51791 0)
(28.7814 -1.52295 0)
(28.5922 -1.5505 0)
(28.5955 -1.55641 0)
(28.5987 -1.56224 0)
(28.602 -1.56803 0)
(28.6053 -1.57378 0)
(28.6086 -1.5795 0)
(28.612 -1.58518 0)
(28.6154 -1.59083 0)
(28.6185 -1.59651 0)
(28.4062 -1.69562 0)
(28.411 -1.70251 0)
(28.4158 -1.70927 0)
(28.4206 -1.71596 0)
(28.4255 -1.72259 0)
(28.4304 -1.72917 0)
(28.4353 -1.73569 0)
(28.44 -1.74225 0)
(28.228 -1.83021 0)
(28.2345 -1.83787 0)
(28.2409 -1.84535 0)
(28.2474 -1.85272 0)
(28.2539 -1.86002 0)
(28.2605 -1.86723 0)
(28.2671 -1.87437 0)
(28.2734 -1.88155 0)
(28.0513 -2.01254 0)
(28.0602 -2.02075 0)
(28.069 -2.0287 0)
(28.0779 -2.03652 0)
(28.0868 -2.0442 0)
(28.0957 -2.05177 0)
(28.1047 -2.05924 0)
(28.1132 -2.06674 0)
(27.8951 -2.21392 0)
(27.907 -2.22192 0)
(27.9187 -2.22959 0)
(27.9305 -2.23707 0)
(27.9422 -2.24437 0)
(27.9539 -2.25152 0)
(27.9655 -2.25851 0)
(27.9767 -2.26554 0)
(27.7696 -2.45641 0)
(27.7852 -2.46298 0)
(27.8007 -2.46915 0)
(27.816 -2.47505 0)
(27.8311 -2.48073 0)
(27.8461 -2.4862 0)
(27.861 -2.49148 0)
(27.8753 -2.4968 0)
(27.6959 -2.72541 0)
(27.7159 -2.72846 0)
(27.7355 -2.73104 0)
(27.7548 -2.73332 0)
(27.7738 -2.73534 0)
(27.7923 -2.73712 0)
(27.8105 -2.7387 0)
(27.8281 -2.74034 0)
(27.6971 -3.02699 0)
(27.7219 -3.02357 0)
(27.7457 -3.01961 0)
(27.7688 -3.0153 0)
(27.7913 -3.01072 0)
(27.813 -3.00586 0)
(27.8339 -3.00074 0)
(27.8548 -2.99576 0)
(27.7965 -3.34132 0)
(27.8253 -3.32637 0)
(27.8526 -3.31094 0)
(27.8785 -3.29528 0)
(27.9032 -3.2795 0)
(27.9266 -3.26367 0)
(27.9486 -3.24786 0)
(27.9696 -3.2324 0)
(28.0245 -3.6574 0)
(28.0553 -3.6247 0)
(28.0837 -3.59182 0)
(28.1098 -3.55906 0)
(28.1338 -3.52657 0)
(28.1557 -3.49448 0)
(28.1754 -3.46291 0)
(28.1939 -3.43221 0)
(28.411 -3.93749 0)
(28.4435 -3.87903 0)
(28.4722 -3.82141 0)
(28.4976 -3.765 0)
(28.5196 -3.70999 0)
(28.5383 -3.65652 0)
(28.5535 -3.60471 0)
(28.5677 -3.55487 0)
(29.1021 -4.21435 0)
(29.1335 -4.1236 0)
(29.1588 -4.03415 0)
(29.177 -3.94596 0)
(29.1888 -3.8595 0)
(29.1942 -3.77518 0)
(29.1932 -3.6938 0)
(29.1895 -3.61602 0)
(30.044 -4.42019 0)
(30.0377 -4.27597 0)
(30.0169 -4.13159 0)
(29.9882 -3.9864 0)
(29.9479 -3.84558 0)
(29.9013 -3.70562 0)
(29.8412 -3.57425 0)
(29.771 -3.45715 0)
(30.3193 -4.26936 0)
(30.188 -4.0158 0)
(30.0378 -3.78766 0)
(29.8698 -3.56732 0)
(29.6863 -3.35712 0)
(29.4881 -3.15392 0)
(29.2762 -2.95462 0)
(29.0112 -2.75687 0)
(27.2429 -3.18662 0)
(26.8728 -2.83709 0)
(26.4973 -2.5032 0)
(26.1153 -2.18474 0)
(25.7289 -1.88176 0)
(25.3402 -1.5937 0)
(24.9576 -1.3195 0)
(24.4787 -1.06523 0)
(20.3261 -0.999923 0)
(19.8631 -0.673673 0)
(19.4096 -0.370752 0)
(18.9641 -0.0899217 0)
(18.5288 0.169181 0)
(18.1069 0.406454 0)
(17.6987 0.620403 0)
(17.1674 0.796758 0)
(13.0374 0.630971 0)
(12.6316 0.915233 0)
(12.2355 1.17871 0)
(11.8475 1.4213 0)
(11.4693 1.64179 0)
(11.1042 1.83837 0)
(10.7438 2.00795 0)
(10.2636 2.1398 0)
(6.98544 1.87672 0)
(6.6366 2.13608 0)
(6.2944 2.37512 0)
(5.95824 2.593 0)
(5.63031 2.7877 0)
(5.31375 2.95674 0)
(4.99576 3.09698 0)
(4.56924 3.20256 0)
(2.17806 2.78986 0)
(1.88326 3.03476 0)
(1.59217 3.25936 0)
(1.30484 3.46175 0)
(1.02386 3.6392 0)
(0.752444 3.78891 0)
(0.476417 3.90874 0)
(0.106747 3.99638 0)
(-1.53346 3.45415 0)
(-1.77376 3.69328 0)
(-2.01279 3.91149 0)
(-2.25009 4.10569 0)
(-2.48261 4.2721 0)
(-2.70597 4.40703 0)
(-2.93569 4.50825 0)
(-3.23128 4.57589 0)
(-4.33691 3.90703 0)
(-4.51528 4.1457 0)
(-4.69454 4.36253 0)
(-4.87401 4.55291 0)
(-5.0503 4.71134 0)
(-5.21814 4.8319 0)
(-5.38969 4.91003 0)
(-5.59958 4.94905 0)
(-6.40637 4.17432 0)
(-6.51109 4.41649 0)
(-6.61875 4.63596 0)
(-6.7286 4.82627 0)
(-6.83728 4.97961 0)
(-6.93847 5.08714 0)
(-7.03439 5.14128 0)
(-7.15104 5.14403 0)
(-7.9016 4.2756 0)
(-7.91714 4.52416 0)
(-7.93747 4.7493 0)
(-7.96169 4.94219 0)
(-7.98635 5.09181 0)
(-8.0039 5.18414 0)
(-8.00595 5.20889 0)
(-7.99225 5.15765 0)
(-8.96852 4.22547 0)
(-8.87422 4.48148 0)
(-8.78606 4.71332 0)
(-8.70244 4.91023 0)
(-8.61881 5.0575 0)
(-8.52952 5.12502 0)
(-8.41905 5.10787 0)
(-8.27597 4.99232 0)
(-9.74993 4.03229 0)
(-9.51879 4.29656 0)
(-9.29671 4.53554 0)
(-9.08175 4.73499 0)
(-8.86891 4.87534 0)
(-8.65334 4.93275 0)
(-8.42987 4.88781 0)
(-8.16474 4.71174 0)
(-10.4156 3.70249 0)
(-10.0149 3.97841 0)
(-9.62959 4.22862 0)
(-9.25966 4.43648 0)
(-8.90153 4.57985 0)
(-8.55279 4.63475 0)
(-8.20727 4.57297 0)
(-7.82958 4.35143 0)
(-11.19 3.24122 0)
(-10.5819 3.53222 0)
(-9.99529 3.80159 0)
(-9.43674 4.02879 0)
(-8.90521 4.18718 0)
(-8.3999 4.25271 0)
(-7.92583 4.19572 0)
(-7.44588 3.94362 0)
(-12.3492 2.66073 0)
(-11.5015 2.96461 0)
(-10.6721 3.25605 0)
(-9.8785 3.51229 0)
(-9.12687 3.7005 0)
(-8.41927 3.79535 0)
(-7.78944 3.77148 0)
(-7.20784 3.50254 0)
(-14.1779 1.98739 0)
(-13.0793 2.29335 0)
(-11.9809 2.60078 0)
(-10.9118 2.88756 0)
(-9.88494 3.11206 0)
(-8.90473 3.24899 0)
(-8.05908 3.29135 0)
(-7.34985 3.01886 0)
(-16.9033 1.26345 0)
(-15.5815 1.55286 0)
(-14.2201 1.86052 0)
(-12.8592 2.16652 0)
(-11.5184 2.42069 0)
(-10.1988 2.60124 0)
(-9.05758 2.7342 0)
(-8.16246 2.45531 0)
(-20.628 0.546084 0)
(-19.1629 0.79439 0)
(-17.5982 1.07653 0)
(-15.9777 1.37844 0)
(-14.3223 1.64322 0)
(-12.619 1.85212 0)
(-11.1056 2.07725 0)
(-9.94332 1.76524 0)
(-25.3027 -0.103455 0)
(-23.8248 0.0808781 0)
(-22.1781 0.308848 0)
(-20.3997 0.574161 0)
(-18.4986 0.816095 0)
(-16.4276 1.01819 0)
(-14.4931 1.30731 0)
(-12.9583 0.912601 0)
(-30.7379 -0.631027 0)
(-29.4138 -0.525118 0)
(-27.8623 -0.375209 0)
(-26.1013 -0.179486 0)
(-24.1134 0.000368547 0)
(-21.7912 0.146989 0)
(-19.4641 0.438024 0)
(-17.4672 -0.109464 0)
(-36.6436 -1.00012 0)
(-35.6469 -0.974193 0)
(-34.3985 -0.912644 0)
(-32.8899 -0.809191 0)
(-31.0651 -0.725523 0)
(-28.7354 -0.690415 0)
(-26.1949 -0.508931 0)
(-23.765 -1.2566 0)
(-42.69 -1.20011 0)
(-42.1645 -1.24042 0)
(-41.4152 -1.26021 0)
(-40.4095 -1.25306 0)
(-39.0531 -1.28174 0)
(-37.0706 -1.40105 0)
(-34.6713 -1.44578 0)
(-32.0534 -2.45033 0)
(-48.5592 -1.24492 0)
(-48.5921 -1.32557 0)
(-48.48 -1.40383 0)
(-48.1864 -1.47587 0)
(-47.5926 -1.6087 0)
(-46.3518 -1.89711 0)
(-44.556 -2.2502 0)
(-42.211 -3.57928 0)
(-53.9878 -1.16118 0)
(-54.5878 -1.25658 0)
(-55.1609 -1.36078 0)
(-55.6907 -1.4784 0)
(-56.0652 -1.683 0)
(-55.9041 -2.11506 0)
(-55.1829 -2.79576 0)
(-53.7412 -4.53951 0)
(-58.7967 -0.995234 0)
(-59.8897 -1.07955 0)
(-61.0842 -1.17681 0)
(-62.4059 -1.29911 0)
(-63.7886 -1.52705 0)
(-64.8828 -2.05021 0)
(-65.617 -3.04208 0)
(-65.8195 -5.15427 0)
(-62.8744 -0.784024 0)
(-64.3275 -0.842986 0)
(-65.9752 -0.912053 0)
(-67.8947 -1.00727 0)
(-70.1021 -1.21033 0)
(-72.3652 -1.75141 0)
(-74.7176 -2.97191 0)
(-77.2974 -5.29881 0)
(-65.9306 -0.5591 0)
(-67.5751 -0.587052 0)
(-69.4436 -0.617038 0)
(-71.6576 -0.664591 0)
(-74.3234 -0.80687 0)
(-77.3842 -1.30096 0)
(-81.156 -2.61392 0)
(-86.5816 -4.87847 0)
(-67.2241 -0.355669 0)
(-68.8286 -0.359242 0)
(-70.5751 -0.35369 0)
(-72.583 -0.346938 0)
(-75.0196 -0.403542 0)
(-78.0617 -0.774165 0)
(-82.6484 -1.95391 0)
(-91.3463 -3.9083 0)
(-65.11 -0.184198 0)
(-66.4185 -0.177733 0)
(-67.6615 -0.162515 0)