/*--------------------------------*- C++ -*----------------------------------*\
  =========                 |
  \\      /  F ield         | OpenFOAM: The Open Source CFD Toolbox
   \\    /   O peration     | Website:  https://openfoam.org
    \\  /    A nd           | Version:  8
     \\/     M anipulation  |
\*---------------------------------------------------------------------------*/
FoamFile
{
    version     2.0;
    format      ascii;
    class       surfaceScalarField;
    location    "0.23";
    object      phi;
}
// * * * * * * * * * * * * * * * * * * * * * * * * * * * * * * * * * * * * * //

dimensions      [0 3 -1 0 0 0 0];

internalField   nonuniform List<scalar> 
225079
(
-0.00341332
0.0262121
-0.00812981
0.0707155
-0.0117136
0.115183
-0.0165386
0.159625
-0.0213841
0.204045
-0.025018
0.248434
-0.0286445
0.291627
-0.0322638
0.336019
-0.0358786
0.379215
-0.0394903
0.424812
-0.0418992
0.466809
-0.0455067
0.511207
-0.0491129
0.555606
-0.0527182
0.597605
-0.0539226
0.640804
-0.0575265
0.685204
-0.06113
0.727203
-0.0635331
0.770403
-0.0659358
0.812403
-0.0671383
0.854402
-0.0707405
0.897602
-0.0719426
0.938402
-0.0743444
0.980402
-0.075546
1.0224
-0.0779475
1.0632
-0.0791489
1.104
-0.0815501
1.146
-0.0827512
1.1844
-0.0839522
1.2252
-0.0863531
1.266
-0.0875538
1.3044
-0.0887545
1.344
-0.089955
1.3824
-0.0899554
1.4208
-0.0911558
1.4592
-0.091156
1.4964
-0.0923563
1.5348
-0.0935564
1.572
-0.0935564
1.608
-0.0947564
1.644
-0.0947564
1.68
-0.0947564
1.716
-0.0947563
1.7496
-0.0947563
1.7856
-0.0947562
1.8192
-0.094756
1.8528
-0.0947559
1.8864
-0.0935557
1.9188
-0.0935556
1.9512
-0.0935554
1.9836
-0.0923552
2.0136
-0.092355
2.046
-0.0911547
2.0748
-0.0905545
2.10564
-0.0897143
2.13468
-0.088754
2.16336
-0.0877937
2.19168
-0.0868335
2.2194
-0.0856332
2.24652
-0.0844329
2.27304
-0.0832326
2.2992
-0.0819123
2.32464
-0.080472
2.34948
-0.0790317
2.37384
-0.0775913
2.3976
-0.076031
2.42076
-0.0743506
2.4432
-0.0727902
2.46528
-0.0711099
2.48664
-0.0693095
2.50728
-0.0675091
2.52744
-0.0655888
2.54688
-0.0636684
2.56572
-0.061628
2.58396
-0.0595876
2.6016
-0.0576672
2.61864
-0.0555068
2.63484
-0.0533465
2.65044
-0.0511861
2.66556
-0.0489058
2.67984
-0.0467455
2.69364
-0.0445851
2.7066
-0.0421848
2.71884
-0.0399045
2.73072
-0.0375042
2.74164
-0.0351039
2.75196
-0.0327036
2.76168
-0.0303034
2.77068
-0.0279031
2.77896
-0.0253828
2.78652
-0.0228625
2.79348
-0.0203423
2.79972
-0.0178221
2.80536
-0.0151819
2.81004
-0.0127816
2.81436
-0.0102014
2.8178
-0.00764521
2.82058
-0.005077
2.82266
-0.00250882
2.82404
5.93889e-05
2.82475
0.00262756
2.82475
0.00519576
2.82404
0.00776392
2.82266
0.0103201
2.82058
0.0129003
2.8178
0.0153004
2.81436
0.0179406
2.81004
0.0204608
2.80536
0.0229809
2.79972
0.025501
2.79348
0.0280212
2.78652
0.0304214
2.77896
0.0328216
2.77068
0.0352217
2.76168
0.0376219
2.75196
0.0400221
2.74164
0.0423023
2.73072
0.0447024
2.71884
0.0468625
2.7066
0.0490225
2.69364
0.0513025
2.67984
0.0534624
2.66556
0.0556222
2.65044
0.0577819
2.63484
0.0597016
2.61864
0.0617412
2.6016
0.0637808
2.58396
0.0657004
2.56572
0.06762
2.54688
0.0694195
2.52744
0.0712192
2.50728
0.0728988
2.48664
0.0744584
2.46528
0.076138
2.4432
0.0776978
2.42076
0.0791375
2.3976
0.0805772
2.37384
0.082017
2.34948
0.0833368
2.32464
0.0845367
2.2992
0.0857366
2.27304
0.0869364
2.24652
0.0878964
2.2194
0.0888563
2.19168
0.0898163
2.16336
0.0906563
2.13468
0.0912563
2.10564
0.0924563
2.0748
0.0924563
2.046
0.0936563
2.0136
0.0936564
1.9836
0.0936564
1.9512
0.0948564
1.9188
0.0948564
1.8864
0.0948563
1.8528
0.0948564
1.8192
0.0948564
1.7856
0.0948564
1.7496
0.0948565
1.716
0.0948565
1.68
0.0936566
1.644
0.0936567
1.608
0.0924567
1.572
0.0912569
1.5348
0.091257
1.4964
0.0900571
1.4592
0.0900573
1.4208
0.0888575
1.3824
0.0876577
1.344
0.0864581
1.3044
0.0840584
1.266
0.0828588
1.2252
0.0816593
1.1844
0.0792599
1.146
0.0780606
1.104
0.0756614
1.0632
0.0744623
1.0224
0.0720634
0.980399
0.0708646
0.938399
0.067266
0.897599
0.0660675
0.854399
0.0636694
0.812399
0.0612715
0.770398
0.057674
0.727198
0.0540768
0.685198
0.05288
0.640797
0.0492839
0.597597
0.0456884
0.555596
0.0420938
0.511195
0.0397
0.466794
0.0361079
0.424793
0.0325175
0.379191
0.0289295
0.335989
0.0253452
0.291585
0.0217646
0.248381
0.0169892
0.203976
0.0121993
0.159591
0.00858118
0.115219
0.00371959
0.0708629
0.0265203
-0.00456504
0.0307769
-0.00920962
0.07536
-0.0128471
0.118821
-0.0176715
0.16445
-0.0213208
0.207695
-0.0237577
0.250872
-0.0285914
0.296461
-0.0322163
0.339645
-0.0358363
0.382835
-0.039452
0.428428
-0.0430647
0.470422
-0.0466752
0.514818
-0.0478836
0.556815
-0.0514909
0.601213
-0.0550973
0.644411
-0.0575026
0.687609
-0.0599071
0.729608
-0.0623111
0.772807
-0.0647147
0.814806
-0.0683179
0.858005
-0.0695206
0.898805
-0.073123
0.942004
-0.0743251
0.981604
-0.076727
1.0248
-0.0779287
1.0644
-0.0803301
1.1064
-0.0815313
1.1472
-0.0839323
1.1868
-0.0851331
1.2264
-0.0851338
1.266
-0.0863344
1.3056
-0.0875348
1.3452
-0.088735
1.3836
-0.0899351
1.422
-0.0911351
1.4604
-0.0923351
1.4976
-0.0923349
1.5348
-0.0923346
1.572
-0.0935343
1.6092
-0.0935338
1.644
-0.0947333
1.6812
-0.0935327
1.7148
-0.0947321
1.7508
-0.0947315
1.7856
-0.0947309
1.8192
-0.0947302
1.8528
-0.0947295
1.8864
-0.0935288
1.9176
-0.093528
1.9512
-0.0923272
1.9824
-0.0935263
2.0148
-0.0911255
2.0436
-0.0911247
2.0748
-0.0905238
2.10504
-0.0896829
2.13384
-0.088842
2.16252
-0.0877612
2.1906
-0.0866803
2.21832
-0.0855994
2.24544
-0.0845186
2.27196
-0.0831977
2.29788
-0.0818768
2.32332
-0.0804359
2.34804
-0.0791151
2.37252
-0.0775543
2.39604
-0.0759933
2.4192
-0.0744324
2.44164
-0.0727515
2.4636
-0.0709506
2.48484
-0.0691497
2.50548
-0.0673488
2.52564
-0.0654278
2.54496
-0.0636269
2.56392
-0.061706
2.58204
-0.0596651
2.59956
-0.0575042
2.61648
-0.0554633
2.6328
-0.0534225
2.6484
-0.0511416
2.66328
-0.0489808
2.67768
-0.0467
2.69136
-0.0444193
2.70432
-0.0421385
2.71656
-0.0397378
2.72832
-0.0374571
2.73936
-0.0350564
2.74956
-0.0326557
2.75928
-0.030135
2.76816
-0.0277345
2.77656
-0.0253338
2.78412
-0.0228132
2.79096
-0.0202927
2.7972
-0.0177722
2.80284
-0.0152516
2.80752
-0.0127311
2.81184
-0.0101385
2.81521
-0.00758208
2.81802
-0.00501363
2.8201
-0.00245724
2.82149
0.000111191
2.82218
0.00267958
2.82218
0.00523599
2.82149
0.00780436
2.8201
0.0103607
2.81802
0.012953
2.81521
0.0154733
2.81184
0.0179935
2.80752
0.0205139
2.80284
0.0230341
2.7972
0.0255544
2.79096
0.0279546
2.78412
0.0303549
2.77656
0.032875
2.76816
0.0352753
2.75928
0.0376755
2.74956
0.0399557
2.73936
0.0423559
2.72832
0.044636
2.71656
0.0469161
2.70432
0.049196
2.69136
0.0513559
2.67768
0.0536357
2.66328
0.0556754
2.6484
0.0577151
2.6328
0.0598745
2.61648
0.0619141
2.59956
0.0638335
2.58204
0.065633
2.56392
0.0675523
2.54496
0.0693517
2.52564
0.071151
2.50548
0.0729504
2.48484
0.0746299
2.4636
0.0761893
2.44164
0.0777487
2.4192
0.0793082
2.39604
0.0806277
2.37252
0.0820671
2.34804
0.0833866
2.32332
0.0847061
2.29788
0.0857856
2.27196
0.0868651
2.24544
0.0879446
2.21832
0.0890241
2.1906
0.0898636
2.16252
0.0907032
2.13384
0.0913027
2.10504
0.0913022
2.0748
0.0937018
2.0436
0.0925013
2.0148
0.0937008
1.9824
0.0937002
1.9512
0.0948997
1.9176
0.0948992
1.8864
0.0948986
1.8528
0.094898
1.8192
0.0948975
1.7856
0.093697
1.7508
0.0948964
1.7148
0.0936959
1.6812
0.0936954
1.644
0.0924949
1.6092
0.0924944
1.572
0.092494
1.5348
0.0912935
1.4976
0.0900931
1.4604
0.0888927
1.422
0.0876923
1.3836
0.086492
1.3452
0.0852918
1.3056
0.0852916
1.266
0.0840915
1.2264
0.0816916
1.1868
0.0804917
1.1472
0.078092
1.1064
0.0768924
1.0644
0.074493
1.0248
0.0732937
0.981599
0.0696947
0.941998
0.0684959
0.898798
0.0648974
0.857998
0.0624992
0.814797
0.0601013
0.772796
0.0577039
0.729596
0.055307
0.687595
0.0517109
0.644394
0.0481153
0.601193
0.0469205
0.556791
0.0433271
0.514789
0.0397349
0.470387
0.0361444
0.428384
0.0325563
0.38278
0.0289709
0.339575
0.02419
0.296367
0.0218101
0.250762
0.0182358
0.207551
0.013445
0.164383
0.00985804
0.118808
0.00495036
0.0757719
0.031472
-0.00469033
0.0354655
-0.00799958
0.0786681
-0.0127925
0.123613
-0.0163973
0.168054
-0.0200459
0.211344
-0.0248898
0.255715
-0.0285316
0.300103
-0.0321641
0.343277
-0.0357907
0.386462
-0.0382116
0.430849
-0.043029
0.475239
-0.0454427
0.517232
-0.0490543
0.560426
-0.0526641
0.604822
-0.0550722
0.646818
-0.0574792
0.690016
-0.0610853
0.733214
-0.0634905
0.775212
-0.0658949
0.81721
-0.0670987
0.859209
-0.0707021
0.902408
-0.0719051
0.943207
-0.0755077
0.985206
-0.0767098
1.026
-0.0791116
1.0668
-0.0803131
1.1076
-0.0815144
1.1484
-0.0827154
1.188
-0.0839163
1.2276
-0.0863169
1.2684
-0.0875173
1.3068
-0.0887175
1.3464
-0.0899176
1.3848
-0.0911175
1.4232
-0.0911173
1.4604
-0.0923169
1.4988
-0.0923163
1.5348
-0.0935157
1.5732
-0.0935149
1.6092
-0.0947141
1.6452
-0.0935132
1.68
-0.0947122
1.716
-0.0947111
1.7508
-0.0947099
1.7856
-0.0947087
1.8192
-0.0947075
1.8528
-0.0935062
1.8852
-0.0947048
1.9188
-0.0935035
1.95
-0.0935021
1.9824
-0.0923006
2.0136
-0.0922991
2.0436
-0.0922977
2.0748
-0.0904962
2.10324
-0.0896546
2.133
-0.0886932
2.16156
-0.0877318
2.18964
-0.0867702
2.21736
-0.0855688
2.24424
-0.0843673
2.27076
-0.0830458
2.29656
-0.0817244
2.32199
-0.0805229
2.34683
-0.0789614
2.37095
-0.0775199
2.39459
-0.0759584
2.41763
-0.074277
2.43996
-0.0725954
2.46192
-0.0709139
2.48316
-0.0692323
2.5038
-0.0673108
2.52372
-0.0655093
2.54316
-0.0634677
2.56188
-0.0615463
2.58012
-0.0596248
2.59764
-0.0575833
2.61444
-0.0554219
2.63064
-0.0532605
2.64624
-0.0510991
2.66112
-0.0489378
2.67552
-0.0466565
2.68908
-0.0443752
2.70204
-0.0420939
2.71428
-0.0398127
2.72604
-0.0374115
2.73696
-0.0350103
2.74716
-0.0326092
2.75688
-0.0302082
2.76576
-0.027687
2.77404
-0.0251661
2.7816
-0.0227651
2.78856
-0.0202441
2.79468
-0.0177232
2.80032
-0.0152023
2.805
-0.0126815
2.80932
-0.0101008
2.81263
-0.00754404
2.81546
-0.00497533
2.81753
-0.00240656
2.81892
0.000162113
2.81961
0.00273074
2.81961
0.00529927
2.81892
0.00786786
2.81753
0.0104244
2.81546
0.013005
2.81263
0.0155255
2.80932
0.0180459
2.805
0.0205662
2.80032
0.0230866
2.79468
0.0254869
2.78856
0.0280073
2.7816
0.0305275
2.77404
0.0329278
2.76576
0.0353281
2.75688
0.0377282
2.74716
0.0401285
2.73696
0.0424087
2.72604
0.0446887
2.71428
0.0469687
2.70204
0.0492486
2.68908
0.0514085
2.67552
0.053568
2.66112
0.0557277
2.64624
0.0578872
2.63064
0.0599265
2.61444
0.0618458
2.59764
0.0637651
2.58012
0.0658042
2.56188
0.0676034
2.54316
0.0695225
2.52372
0.0712016
2.5038
0.0728808
2.48316
0.0745598
2.46192
0.076239
2.43996
0.0777981
2.41764
0.0792372
2.3946
0.0807962
2.37096
0.0819953
2.34684
0.0833144
2.322
0.0846335
2.29656
0.0858325
2.27076
0.0870316
2.24424
0.0879906
2.21736
0.0889497
2.18964
0.0899088
2.16156
0.0907478
2.133
0.0925468
2.10324
0.0925459
2.0748
0.0925448
2.0436
0.0937438
2.0136
0.0937427
1.9824
0.0949417
1.95
0.0937405
1.9188
0.0949394
1.8852
0.0949383
1.8528
0.0949372
1.8192
0.094936
1.7856
0.0949349
1.7508
0.0937338
1.716
0.0949328
1.68
0.0937317
1.6452
0.0937307
1.6092
0.0925296
1.5732
0.0925286
1.5348
0.0913276
1.4988
0.0913266
1.4604
0.0901258
1.4232
0.0889249
1.3848
0.0877241
1.3464
0.0865233
1.3068
0.0841227
1.2684
0.0829222
1.2276
0.0817219
1.188
0.0805216
1.1484
0.0793215
1.1076
0.0769215
1.0668
0.0757218
1.026
0.0721223
0.985199
0.0709231
0.943198
0.0673242
0.902397
0.0661256
0.859197
0.0637274
0.817196
0.0613297
0.775195
0.0577326
0.733193
0.0553362
0.689992
0.0529405
0.64679
0.0493459
0.604788
0.0457524
0.560385
0.0433601
0.517182
0.0385701
0.475178
0.0361819
0.430772
0.0325968
0.386365
0.0290147
0.343157
0.0254371
0.299945
0.0206597
0.25554
0.0170828
0.211129
0.0134782
0.167988
0.00866343
0.123624
0.00487498
0.0795617
0.0363476
-0.00357832
0.0390441
-0.00813092
0.0832209
-0.0128617
0.128344
-0.0164328
0.171626
-0.0212603
0.216172
-0.0248939
0.25935
-0.028532
0.303741
-0.032164
0.34691
-0.0357912
0.39009
-0.039413
0.434471
-0.0418305
0.477657
-0.0454449
0.520846
-0.0490567
0.564038
-0.0514664
0.607232
-0.0550747
0.650427
-0.0574815
0.692423
-0.0598874
0.735619
-0.0622923
0.777617
-0.0658966
0.820814
-0.0683001
0.861612
-0.0695031
0.903611
-0.0719055
0.945609
-0.0743076
0.987608
-0.0755092
1.02721
-0.0779105
1.06921
-0.0791115
1.1088
-0.0815123
1.1508
-0.0827127
1.1892
-0.0851129
1.23
-0.0863129
1.2696
-0.0875127
1.308
-0.0875122
1.3464
-0.0887117
1.386
-0.0899109
1.4244
-0.09111
1.4616
-0.0911089
1.4988
-0.0935077
1.5372
-0.0935063
1.5732
-0.0935048
1.6092
-0.0935032
1.6452
-0.0947015
1.6812
-0.0946998
1.716
-0.0946979
1.75079
-0.094696
1.78559
-0.094694
1.81919
-0.0946919
1.85279
-0.0946898
1.88519
-0.0934877
1.91759
-0.0934855
1.94999
-0.0934832
1.98239
-0.0922811
2.01239
-0.0922788
2.04359
-0.0910764
2.07359
-0.0904741
2.10263
-0.0896319
2.13215
-0.0886696
2.16059
-0.0878274
2.18879
-0.0866252
2.21615
-0.0855429
2.24315
-0.0843408
2.26955
-0.0831385
2.29535
-0.0818163
2.32067
-0.0803741
2.34539
-0.078932
2.36951
-0.0774897
2.39315
-0.0758075
2.41595
-0.0743653
2.43851
-0.0726831
2.46023
-0.0708808
2.48135
-0.0690785
2.50199
-0.0672763
2.52191
-0.0654742
2.54135
-0.0635519
2.55995
-0.0615098
2.57807
-0.0594676
2.59559
-0.0574256
2.61239
-0.0553835
2.62859
-0.0532215
2.64407
-0.0511796
2.65907
-0.0488975
2.67323
-0.0466156
2.68679
-0.0443339
2.69975
-0.0421721
2.71211
-0.0397703
2.72364
-0.0373685
2.73456
-0.0349669
2.74476
-0.0325654
2.75448
-0.0301638
2.76336
-0.0276423
2.77152
-0.0252409
2.7792
-0.0227195
2.78604
-0.0201981
2.79216
-0.0176768
2.7978
-0.0151556
2.80248
-0.0125144
2.80668
-0.0100533
2.81017
-0.00748411
2.81289
-0.00492711
2.81497
-0.00235815
2.81635
0.000210787
2.81705
0.00277967
2.81705
0.00534853
2.81635
0.00790535
2.81497
0.010474
2.81289
0.0129347
2.81017
0.0155753
2.80668
0.018096
2.80248
0.0206164
2.7978
0.0231369
2.79216
0.0256573
2.78604
0.0280577
2.7792
0.030578
2.77152
0.0329784
2.76336
0.0353787
2.75448
0.0377789
2.74476
0.040179
2.73456
0.0425791
2.72364
0.0447392
2.71212
0.0470192
2.69976
0.049299
2.6868
0.0515785
2.67324
0.0536181
2.65908
0.0557775
2.64408
0.0578167
2.6286
0.059856
2.6124
0.0618949
2.5956
0.0639339
2.57808
0.0658528
2.55996
0.0676516
2.54136
0.0694505
2.52192
0.0712492
2.502
0.0730478
2.48136
0.0747266
2.46024
0.0761653
2.43852
0.077844
2.41596
0.0792825
2.39316
0.0807213
2.36952
0.0821599
2.3454
0.0834784
2.32068
0.0846769
2.29536
0.0858755
2.26956
0.0869539
2.24316
0.0881524
2.21616
0.0889909
2.1888
0.0899493
2.1606
0.0907878
2.13216
0.0913861
2.10264
0.0925844
2.0736
0.0925827
2.0436
0.0937811
2.0124
0.0937792
1.98241
0.0937774
1.95001
0.0949756
1.91761
0.0949736
1.88521
0.0949717
1.85281
0.0949698
1.81921
0.0949678
1.78561
0.0949659
1.75081
0.0949641
1.71601
0.0937621
1.68121
0.0937602
1.64521
0.0937583
1.60921
0.0937564
1.57321
0.0913544
1.53721
0.0913526
1.4988
0.0901507
1.4616
0.0889487
1.4244
0.087747
1.386
0.0877453
1.3464
0.0865436
1.308
0.0853421
1.2696
0.0829406
1.23
0.0817392
1.1892
0.079338
1.1508
0.078137
1.1088
0.0757361
1.0692
0.0745355
1.0272
0.072135
0.987599
0.0697347
0.945599
0.068535
0.903597
0.0661354
0.861596
0.0625364
0.820795
0.0601378
0.777594
0.0577399
0.735592
0.0553425
0.692389
0.051746
0.650387
0.0493505
0.607184
0.0457563
0.56398
0.0421636
0.520775
0.0397725
0.477569
0.0361837
0.434362
0.0325977
0.389952
0.0290137
0.346742
0.0254322
0.303527
0.0218471
0.259126
0.0170564
0.21592
0.0134307
0.171615
0.00858006
0.128475
0.00361769
0.0845253
0.0399666
-0.00478715
0.0438292
-0.00944067
0.0878731
-0.012936
0.131839
-0.0164828
0.175172
-0.0200829
0.219772
-0.0249034
0.26417
-0.0285347
0.307373
-0.0321648
0.35054
-0.035792
0.393717
-0.0394144
0.438093
-0.0430328
0.481276
-0.0466477
0.524461
-0.0490597
0.56645
-0.0526698
0.610842
-0.055078
0.652835
-0.058685
0.696029
-0.0610907
0.738025
-0.0634956
0.780021
-0.0646995
0.822018
-0.0683028
0.865215
-0.0707054
0.906013
-0.0731076
0.948011
-0.0743092
0.988809
-0.0767105
1.02961
-0.0779113
1.07041
-0.0803119
1.1112
-0.081512
1.152
-0.0827119
1.1904
-0.0839115
1.2312
-0.0851109
1.2708
-0.0863101
1.3092
-0.0887091
1.3488
-0.0899078
1.3872
-0.0899065
1.4244
-0.0911049
1.4628
-0.0923031
1.5
-0.0923013
1.53719
-0.0922993
1.57319
-0.0934971
1.61039
-0.0934948
1.64519
-0.0934923
1.68119
-0.0946898
1.71719
-0.0946871
1.75079
-0.0946845
1.78559
-0.0946817
1.81919
-0.093479
1.85159
-0.0934761
1.88519
-0.0946731
1.91879
-0.0934701
1.94879
-0.0922671
1.98119
-0.092264
2.01239
-0.0910609
2.04239
-0.0910579
2.07359
-0.0904548
2.10203
-0.0896117
2.13131
-0.0887687
2.15975
-0.0876856
2.18771
-0.0866027
2.21507
-0.0855197
2.24207
-0.0843168
2.26835
-0.0831138
2.29415
-0.0817909
2.31935
-0.080348
2.34395
-0.079025
2.36819
-0.0774621
2.39159
-0.0758991
2.41439
-0.0742162
2.43683
-0.0725333
2.45855
-0.0708504
2.47967
-0.0691674
2.50031
-0.0673645
2.52011
-0.0653217
2.53931
-0.0635189
2.55815
-0.0615958
2.57615
-0.0595532
2.59355
-0.0575104
2.61035
-0.0553478
2.62643
-0.0531851
2.64191
-0.0510225
2.65691
-0.0488599
2.67107
-0.0465776
2.68451
-0.0442951
2.69747
-0.0420127
2.70983
-0.0396103
2.72123
-0.0373282
2.73227
-0.0349261
2.74235
-0.0325239
2.75207
-0.0300018
2.76083
-0.0277199
2.76923
-0.025078
2.77655
-0.0226762
2.78363
-0.0201545
2.78963
-0.0176328
2.79527
-0.0151113
2.79995
-0.0125896
2.80415
-0.00999623
2.80758
-0.00745087
2.81035
-0.00488142
2.8124
-0.00231216
2.81378
0.000257053
2.81448
0.0028262
2.81448
0.00539531
2.81378
0.00796421
2.8124
0.0105092
2.81035
0.0131022
2.80758
0.0156229
2.80416
0.0181437
2.79996
0.0206643
2.79528
0.023185
2.78964
0.0255856
2.78364
0.028226
2.77656
0.0305065
2.76924
0.0330269
2.76084
0.0354271
2.75208
0.0378274
2.74236
0.0401076
2.73228
0.0425076
2.72124
0.0447875
2.70984
0.0470673
2.69748
0.0493471
2.68452
0.0515066
2.67108
0.053666
2.65692
0.055825
2.64192
0.0579843
2.62644
0.0600231
2.61036
0.062062
2.59356
0.0639805
2.57616
0.0657791
2.55816
0.0678178
2.53932
0.0696162
2.52012
0.0712945
2.50032
0.072973
2.47968
0.0746513
2.45856
0.0763296
2.43684
0.0778878
2.4144
0.079446
2.3916
0.0807641
2.3682
0.0822022
2.34396
0.0835203
2.31936
0.0847183
2.29416
0.0859163
2.26837
0.0869942
2.24209
0.0880722
2.21509
0.08915
2.18773
0.0899878
2.15977
0.0908255
2.13133
0.0914232
2.10205
0.091421
2.07361
0.0926186
2.04241
0.092616
2.01241
0.0938136
1.98121
0.095011
1.94881
0.0938083
1.91881
0.0938057
1.88521
0.0950031
1.85161
0.0950004
1.81921
0.0949977
1.78561
0.0949949
1.75081
0.093792
1.71721
0.0937893
1.68121
0.0937865
1.64521
0.0925837
1.61041
0.092581
1.57321
0.0925783
1.53721
0.0913755
1.50001
0.0901726
1.46281
0.09017
1.42441
0.0889671
1.38721
0.0865645
1.34881
0.0853619
1.30921
0.0841593
1.27081
0.0829568
1.23121
0.0817546
1.1904
0.0805524
1.152
0.0781504
1.1112
0.0769486
1.0704
0.0745471
1.0296
0.0733457
0.988801
0.0709446
0.948
0.0685438
0.905999
0.0649432
0.865197
0.0637433
0.821995
0.0613439
0.779993
0.058945
0.737991
0.0553469
0.695988
0.0529496
0.652785
0.0493533
0.610781
0.0469582
0.566376
0.0433646
0.524369
0.0397729
0.481162
0.0361831
0.437952
0.0325954
0.39354
0.0290087
0.350329
0.0254213
0.307115
0.0206265
0.263921
0.0170184
0.219529
0.0133775
0.175256
0.00970673
0.132147
0.0048068
0.0894266
0.0447739
-0.00477106
0.0486009
-0.00829925
0.0914017
-0.0129861
0.136526
-0.0177201
0.179907
-0.0212974
0.22335
-0.0249041
0.267778
-0.0285279
0.310997
-0.0321557
0.354169
-0.0369832
0.398545
-0.0394065
0.440517
-0.0430264
0.484896
-0.0454425
0.526878
-0.0490559
0.570064
-0.0514668
0.613253
-0.055076
0.656444
-0.0574833
0.698437
-0.0598894
0.740431
-0.0634946
0.783626
-0.0658987
0.824422
-0.0671021
0.866419
-0.0695049
0.908416
-0.0719069
0.950413
-0.0743085
0.991211
-0.0767096
1.03201
-0.0779102
1.07161
-0.0803105
1.1136
-0.0815103
1.1532
-0.0839099
1.1928
-0.0851092
1.2324
-0.0863082
1.272
-0.087507
1.3104
-0.0887055
1.35
-0.0887038
1.3872
-0.0899019
1.42559
-0.0910998
1.46399
-0.0922976
1.50119
-0.0922951
1.53719
-0.0934925
1.57439
-0.0934898
1.61039
-0.0946868
1.64639
-0.0946838
1.68119
-0.0946807
1.71719
-0.0946775
1.75079
-0.0946741
1.78559
-0.0946707
1.81919
-0.0946671
1.85159
-0.0946636
1.88519
-0.0934599
1.91759
-0.0934562
1.94879
-0.0934524
1.98119
-0.0922487
2.01119
-0.0922448
2.04239
-0.091041
2.07239
-0.0904372
2.10143
-0.0895934
2.13047
-0.0886296
2.15879
-0.0876659
2.18675
-0.0867021
2.2141
-0.0854984
2.24086
-0.0842947
2.26714
-0.0830912
2.29294
-0.0817676
2.31802
-0.080444
2.34262
-0.0788802
2.36662
-0.0773168
2.39002
-0.0758731
2.41294
-0.0743093
2.43526
-0.0726257
2.45686
-0.070942
2.47798
-0.0690185
2.49839
-0.067215
2.51831
-0.0654113
2.53751
-0.0634878
2.55623
-0.0614444
2.57411
-0.0594009
2.59151
-0.0573575
2.60831
-0.0553142
2.62439
-0.053271
2.63987
-0.0509878
2.65463
-0.0487048
2.66879
-0.0465415
2.68235
-0.0443785
2.69531
-0.0419757
2.70743
-0.0396929
2.71895
-0.0371703
2.72975
-0.0348875
2.74007
-0.0324849
2.74967
-0.0300825
2.75843
-0.02756
2.76671
-0.0251577
2.77415
-0.0225154
2.78099
-0.0201132
2.78723
-0.0175912
2.79275
-0.015069
2.79743
-0.0125473
2.80163
-0.00996522
2.80499
-0.00739553
2.80778
-0.0048379
2.80984
-0.00226835
2.81121
0.000301151
2.81191
0.00287058
2.81191
0.00543995
2.81121
0.00799725
2.80984
0.0105665
2.80778
0.0131473
2.805
0.0156685
2.80164
0.0181892
2.79744
0.0207101
2.79276
0.0231108
2.78724
0.0257515
2.781
0.0281521
2.77416
0.0306726
2.76672
0.0330731
2.75844
0.0354735
2.74968
0.0377536
2.74008
0.0402739
2.72976
0.0425541
2.71896
0.0449541
2.70744
0.0471138
2.69532
0.0492732
2.68236
0.0515527
2.6688
0.053832
2.65464
0.055871
2.63988
0.0579099
2.6244
0.0599486
2.60832
0.0619871
2.59152
0.0640256
2.57412
0.065944
2.55624
0.0677419
2.53752
0.0695402
2.51832
0.0714584
2.4984
0.0731364
2.478
0.0748143
2.45688
0.076372
2.43528
0.0778099
2.41297
0.0793678
2.39005
0.0809254
2.36665
0.0822431
2.34265
0.0835606
2.31805
0.0847583
2.29297
0.0859557
2.26717
0.0871532
2.24089
0.0881103
2.21413
0.0890677
2.18677
0.0900249
2.15881
0.0908621
2.13049
0.0914593
2.10145
0.0926563
2.07241
0.0926532
2.04241
0.0938502
2.01121
0.093847
1.98121
0.0938437
1.94881
0.0950404
1.91761
0.0950371
1.88521
0.0950336
1.85161
0.0950302
1.81921
0.0950267
1.78561
0.0950233
1.75081
0.0950198
1.71721
0.0950164
1.68121
0.0938127
1.64641
0.0938092
1.61041
0.0926055
1.57441
0.092602
1.53721
0.0913984
1.50121
0.0901947
1.46401
0.0889911
1.42561
0.0889877
1.38721
0.087784
1.35001
0.0865806
1.31041
0.0853773
1.27201
0.0841741
1.23241
0.081771
1.19281
0.080568
1.15321
0.0781651
1.11361
0.0769625
1.07161
0.0745601
1.032
0.0721579
0.991204
0.0697561
0.950402
0.0673546
0.9084
0.0661537
0.866398
0.0637531
0.824396
0.0601529
0.783594
0.0577535
0.740391
0.0553548
0.698387
0.051757
0.656383
0.0493604
0.613178
0.045765
0.569971
0.0433711
0.526764
0.039779
0.484754
0.0373884
0.440343
0.0325992
0.39833
0.0290093
0.35392
0.0254159
0.310709
0.0218113
0.267527
0.0181886
0.223153
0.0133397
0.180106
0.00846359
0.137024
0.00481279
0.0930786
0.0495881
-0.00356256
0.0521611
-0.00832883
0.0961665
-0.0118267
0.140023
-0.0165555
0.184635
-0.0213157
0.22811
-0.0249077
0.27137
-0.0285225
0.314612
-0.0321463
0.357792
-0.0357727
0.402171
-0.0393971
0.444141
-0.0418181
0.487317
-0.0454359
0.530495
-0.0490508
0.573678
-0.0526629
0.616865
-0.0550729
0.658854
-0.0574811
0.700845
-0.0610879
0.744038
-0.0622934
0.784831
-0.065898
0.828026
-0.0683016
0.868822
-0.0707045
0.910818
-0.0719067
0.951615
-0.0743082
0.993612
-0.0755093
1.03321
-0.0791099
1.07521
-0.07911
1.1136
-0.0815097
1.1556
-0.082709
1.194
-0.083908
1.2336
-0.0851067
1.2732
-0.0875051
1.3128
-0.0875033
1.34999
-0.0899012
1.38959
-0.0910989
1.42679
-0.0910964
1.46399
-0.0910937
1.50119
-0.0922908
1.53839
-0.0934876
1.57559
-0.0934843
1.61039
-0.093481
1.64639
-0.0946773
1.68239
-0.0934736
1.71598
-0.0946697
1.75198
-0.0946657
1.78558
-0.0934617
1.81798
-0.0946575
1.85278
-0.0946532
1.88518
-0.0934489
1.91638
-0.0934445
1.94878
-0.0934401
1.98118
-0.0934356
2.01118
-0.0922311
2.04118
-0.0910266
2.07118
-0.090422
2.10082
-0.0894575
2.1295
-0.088613
2.15794
-0.0876485
2.18578
-0.0865642
2.21302
-0.0854798
2.23978
-0.0842754
2.26594
-0.083071
2.29174
-0.0817467
2.3167
-0.0803023
2.34118
-0.0788581
2.36518
-0.0774137
2.38858
-0.0758494
2.41138
-0.0741652
2.43358
-0.0726008
2.4553
-0.0707965
2.47618
-0.0691121
2.4967
-0.0671878
2.51638
-0.0653837
2.5357
-0.0633394
2.55418
-0.0614153
2.57218
-0.0594913
2.58958
-0.0573273
2.60614
-0.0552832
2.62234
-0.0531194
2.6377
-0.0509556
2.65246
-0.0487918
2.66662
-0.0466283
2.68018
-0.0442247
2.69291
-0.0419413
2.70515
-0.0395379
2.71655
-0.0372545
2.72747
-0.0348514
2.73767
-0.0324483
2.74727
-0.0300453
2.75603
-0.0275222
2.76419
-0.0251196
2.77175
-0.0225969
2.77847
-0.0200742
2.78471
-0.0175517
2.79023
-0.0150294
2.79491
-0.012387
2.79899
-0.00992487
2.80253
-0.00736664
2.80522
-0.00479668
2.80727
-0.00222682
2.80864
0.000342982
2.80934
0.0029127
2.80934
0.00548235
2.80864
0.00805191
2.80727
0.0106092
2.80522
0.0130705
2.80253
0.0157117
2.799
0.0182329
2.79492
0.0207538
2.79024
0.0232746
2.78472
0.0257954
2.77848
0.0281963
2.77176
0.0307167
2.7642
0.0331173
2.75604
0.0355178
2.74728
0.0379182
2.73768
0.0401983
2.72748
0.0425982
2.71656
0.0448782
2.70516
0.0472779
2.69292
0.0494375
2.6802
0.0515968
2.66664
0.0537559
2.65248
0.0559148
2.63772
0.0579533
2.62236
0.0601118
2.60616
0.0620302
2.5896
0.0639485
2.5722
0.0659865
2.5542
0.0677845
2.53572
0.0697023
2.5164
0.07138
2.49673
0.0731776
2.47621
0.0747352
2.45533
0.0764129
2.43361
0.0779703
2.41141
0.0794076
2.38861
0.0808451
2.36521
0.0822821
2.34121
0.0835993
2.31673
0.0847962
2.29177
0.0859931
2.26597
0.0870701
2.23981
0.088147
2.21305
0.0891037
2.18581
0.0899403
2.15797
0.0908969
2.12953
0.0914934
2.10085
0.0926899
2.07121
0.0938863
2.04122
0.0938826
2.01122
0.0938787
1.98122
0.0938748
1.94882
0.095071
1.91642
0.0950668
1.88522
0.0938626
1.85282
0.0950586
1.81802
0.0950545
1.78562
0.0938501
1.75202
0.095046
1.71602
0.0938416
1.68242
0.0938375
1.64642
0.0938332
1.61042
0.0926288
1.57562
0.0914243
1.53842
0.09142
1.50122
0.0914157
1.46402
0.0902114
1.42682
0.0878069
1.38962
0.0878027
1.35002
0.0853983
1.31281
0.0841942
1.27321
0.0829902
1.23361
0.0817863
1.19401
0.0793825
1.15561
0.0793791
1.11361
0.0757757
1.07521
0.0745728
1.03321
0.0721699
0.993607
0.0709675
0.951605
0.0685654
0.910803
0.0661637
0.8688
0.0625625
0.827998
0.0613621
0.784795
0.0577621
0.743991
0.0553632
0.700786
0.0529652
0.658781
0.0493682
0.616775
0.0457728
0.573567
0.0421786
0.530358
0.0397859
0.487147
0.0361944
0.443935
0.0326031
0.401922
0.0290094
0.357514
0.0254092
0.31431
0.0217949
0.271141
0.0169613
0.227987
0.0121096
0.184959
0.00844044
0.140695
0.00361747
0.0979029
0.0532061
-0.00476506
0.0569271
-0.00954607
0.100948
-0.0130693
0.143547
-0.0165962
0.188163
-0.0201429
0.231657
-0.0237214
0.274949
-0.0285253
0.319417
-0.0321428
0.36141
-0.0357665
0.405796
-0.0393905
0.447766
-0.0430127
0.490939
-0.0466318
0.534115
-0.0490476
0.576095
-0.0514608
0.619278
-0.0550718
0.662465
-0.0574807
0.703254
-0.0598882
0.746445
-0.0634944
0.788437
-0.0646992
0.829231
-0.0683032
0.872426
-0.0695062
0.912021
-0.0731086
0.955217
-0.0743102
0.994813
-0.0767113
1.03561
-0.0779117
1.07641
-0.0803117
1.116
-0.0815113
1.1568
-0.0827105
1.1952
-0.0851092
1.236
-0.0863077
1.2744
-0.0863058
1.31279
-0.0887036
1.35239
-0.0887011
1.38959
-0.0898984
1.42799
-0.0910955
1.46519
-0.0922924
1.50239
-0.0922889
1.53838
-0.0922854
1.57558
-0.0934816
1.61158
-0.0946775
1.64758
-0.0934735
1.68118
-0.0946691
1.71718
-0.0946647
1.75198
-0.0946601
1.78558
-0.0946555
1.81798
-0.0946506
1.85278
-0.0934458
1.88398
-0.0946406
1.91758
-0.0934356
1.94758
-0.0922305
1.97998
-0.0922253
2.01118
-0.09222
2.04118
-0.0910149
2.06998
-0.0904095
2.10022
-0.0895644
2.12866
-0.0887192
2.1571
-0.087634
2.18469
-0.0866689
2.21205
-0.0854638
2.23857
-0.0843786
2.26485
-0.0829336
2.29029
-0.0816086
2.31537
-0.0802836
2.33985
-0.0789585
2.36385
-0.0773935
2.38701
-0.0758285
2.40981
-0.0742634
2.43201
-0.0724584
2.45349
-0.0707735
2.47449
-0.0689685
2.49489
-0.0671635
2.51458
-0.0652386
2.53378
-0.0634337
2.55238
-0.0615089
2.57026
-0.0593441
2.58742
-0.0574194
2.60422
-0.0552549
2.62018
-0.0530904
2.63554
-0.0509261
2.6503
-0.0487616
2.66446
-0.0464775
2.6779
-0.0441933
2.69062
-0.0419092
2.70286
-0.0396253
2.71426
-0.0372214
2.72506
-0.0348177
2.73526
-0.0324141
2.74486
-0.0298905
2.7535
-0.0274873
2.76178
-0.0249638
2.76922
-0.0225606
2.77607
-0.0200377
2.78219
-0.0175147
2.78771
-0.014992
2.79239
-0.0124692
2.79647
-0.00987471
2.79994
-0.00731631
2.80266
-0.00475779
2.80471
-0.00218759
2.80607
0.000382522
2.80677
0.00295254
2.80677
0.00552247
2.80607
0.00808007
2.80472
0.0106378
2.80266
0.0132314
2.79994
0.0157527
2.79647
0.0182741
2.79239
0.0207953
2.78772
0.0233165
2.7822
0.0257174
2.77608
0.028238
2.76924
0.030639
2.7618
0.0331594
2.75352
0.0355599
2.74488
0.0379604
2.73528
0.0403605
2.72508
0.0426406
2.71428
0.0449204
2.70288
0.0472
2.69064
0.0494796
2.67792
0.0516385
2.66448
0.0537977
2.65032
0.0559564
2.63556
0.058115
2.6202
0.0600333
2.60424
0.0621913
2.58744
0.0641093
2.57029
0.065907
2.55241
0.0678248
2.53381
0.0696222
2.51461
0.0714196
2.49493
0.0730971
2.47453
0.0748944
2.45353
0.0764515
2.43205
0.0780085
2.40985
0.0795655
2.38705
0.0808822
2.36389
0.082199
2.33989
0.0835157
2.31541
0.0849524
2.29033
0.0860287
2.26489
0.087225
2.23862
0.0881814
2.2121
0.0892576
2.18474
0.0900937
2.15714
0.0909298
2.1287
0.0915256
2.10026
0.0927216
2.07002
0.0927171
2.04122
0.0927127
2.01122
0.0939084
1.98002
0.095104
1.94762
0.093899
1.91762
0.0950945
1.88402
0.0950896
1.85282
0.0950848
1.81802
0.0950799
1.78562
0.0950751
1.75202
0.09387
1.71722
0.0950653
1.68122
0.09386
1.64762
0.092655
1.61162
0.0926499
1.57562
0.0926448
1.53842
0.0914397
1.50242
0.0902345
1.46522
0.0890293
1.42802
0.0890242
1.38962
0.086619
1.35242
0.0866142
1.31282
0.0854093
1.27442
0.0830043
1.23602
0.0817998
1.19522
0.0805955
1.15682
0.0781912
1.11601
0.0769872
1.07641
0.0745833
1.03561
0.0733801
0.99481
0.0697767
0.955208
0.0685742
0.912006
0.0649718
0.872403
0.0637703
0.8292
0.0601693
0.788396
0.0577691
0.746392
0.0553698
0.703186
0.0517713
0.66238
0.0493741
0.619173
0.0469782
0.575964
0.0433836
0.533953
0.0397903
0.490741
0.0361973
0.447529
0.0326029
0.405517
0.0290041
0.361114
0.0241963
0.319118
0.0205735