/*--------------------------------*- C++ -*----------------------------------*\
  =========                 |
  \\      /  F ield         | OpenFOAM: The Open Source CFD Toolbox
   \\    /   O peration     | Website:  https://openfoam.org
    \\  /    A nd           | Version:  8
     \\/     M anipulation  |
\*---------------------------------------------------------------------------*/
FoamFile
{
    version     2.0;
    format      ascii;
    class       volVectorField;
    location    "0.23";
    object      U;
}
// * * * * * * * * * * * * * * * * * * * * * * * * * * * * * * * * * * * * * //

dimensions      [0 1 -1 0 0 0 0];

internalField   nonuniform List<vector> 
112642
(
(15.0001 -5.79604e-06 3.79776e-21)
(15.0003 -0.000198746 1.28947e-20)
(15.0002 -0.000298075 3.16928e-20)
(15.0002 -0.000265941 -4.54943e-21)
(15.0001 -0.000250507 -3.78614e-20)
(15.0001 -0.000207312 1.92852e-20)
(15.0001 -0.000178031 4.00666e-22)
(15 -0.00014947 -2.37334e-21)
(15 -0.000128817 -4.66689e-21)
(15 -0.000111322 4.78855e-21)
(15 -9.7137e-05 8.63161e-23)
(15 -8.47517e-05 -3.32904e-21)
(15 -7.38796e-05 -1.31882e-21)
(15 -6.49579e-05 -6.78342e-22)
(15 -5.65198e-05 5.51154e-23)
(15 -4.8529e-05 2.61793e-22)
(15 -4.14374e-05 -9.31718e-22)
(15 -3.47267e-05 1.96513e-21)
(15 -2.84774e-05 -1.72546e-21)
(15 -2.25412e-05 -3.1677e-21)
(15 -1.6568e-05 -6.32075e-21)
(14.9999 -1.1172e-05 -2.89273e-21)
(14.9999 -5.70798e-06 -3.22384e-21)
(14.9999 -4.48016e-07 -1.79437e-21)
(14.9999 4.64706e-06 2.02289e-21)
(14.9999 9.66908e-06 4.19841e-21)
(14.9999 1.46231e-05 -6.65791e-21)
(14.9999 1.94163e-05 9.59782e-21)
(14.9999 2.42358e-05 -8.37311e-23)
(14.9999 2.90513e-05 5.33022e-21)
(14.9999 3.376e-05 5.42802e-21)
(14.9999 3.84291e-05 6.77554e-23)
(14.9999 4.30384e-05 5.85305e-21)
(14.9999 4.76661e-05 6.17957e-21)
(14.9999 5.20817e-05 -6.34854e-21)
(14.9999 5.66216e-05 7.17377e-23)
(14.9999 6.10481e-05 -1.06791e-20)
(14.9999 6.54992e-05 6.7189e-21)
(14.9999 6.99908e-05 -2.47371e-21)
(14.9999 7.43166e-05 1.39783e-20)
(14.9999 7.8749e-05 -1.41778e-20)
(14.9999 8.30823e-05 1.20234e-20)
(14.9999 8.72768e-05 2.25641e-21)
(14.9999 9.15635e-05 -8.68353e-23)
(14.9999 9.58439e-05 7.38872e-21)
(14.9999 0.000100004 1.9132e-21)
(14.9999 0.000104253 7.42374e-21)
(14.9999 0.000108386 -1.31504e-20)
(14.9999 0.000112381 -7.53916e-21)
(14.9999 0.000116542 1.9501e-20)
(14.9999 0.000120569 6.17943e-21)
(14.9999 0.000124684 1.49476e-20)
(14.9999 0.000128678 1.49555e-20)
(14.9999 0.000132753 -6.55532e-21)
(14.9999 0.000136688 -6.7344e-21)
(14.9999 0.000140571 -7.39767e-21)
(14.9999 0.000144389 -1.47133e-20)
(14.9999 0.000148209 7.05756e-21)
(14.9999 0.000151808 7.30299e-21)
(14.9999 0.000155445 -7.21544e-21)
(14.9999 0.000158981 7.16873e-21)
(14.9999 0.000162319 -5.17686e-23)
(14.9999 0.000165716 6.97663e-21)
(14.9999 0.000169006 -6.81595e-23)
(14.9999 0.000172299 6.75641e-21)
(14.9999 0.000175564 -1.45678e-20)
(14.9999 0.000178717 0)
(14.9999 0.000182018 -6.33095e-21)
(14.9999 0.000185176 6.20073e-21)
(14.9999 0.000188311 6.06237e-21)
(14.9999 0.000191418 1.43907e-20)
(14.9999 0.000194478 -8.50923e-21)
(14.9999 0.000197491 -1.13333e-20)
(14.9999 0.000200472 1.43186e-20)
(14.9999 0.000203474 -1.77671e-20)
(14.9999 0.000206373 8.91338e-21)
(14.9999 0.000209092 1.9097e-20)
(14.9999 0.000211953 -4.38006e-21)
(14.9999 0.000214591 0)
(14.9999 0.000217208 0)
(14.9999 0.000219656 0)
(14.9999 0.000222165 -4.10349e-21)
(14.9999 0.000224544 0)
(14.9999 0.000226898 -5.96135e-21)
(14.9999 0.000229056 1.94651e-20)
(15 0.000231147 6.69063e-21)
(15 0.000233289 -3.2879e-20)
(15 0.000235217 7.07421e-21)
(15 0.00023712 7.37846e-21)
(15 0.000238926 -1.01122e-20)
(15 0.000240688 -2.26575e-21)
(15 0.000242386 2.04517e-21)
(15 0.00024393 1.79563e-21)
(15 0.000245409 1.91852e-20)
(15 0.000246769 2.22243e-20)
(15 0.000248096 -9.3709e-21)
(15 0.000249315 -2.11e-20)
(15 0.00025051 0)
(15 0.000251573 3.89638e-22)
(15 0.000252587 1.07049e-20)
(15 0.000253526 -9.45827e-23)
(15 0.000254394 -1.04298e-20)
(15 0.00025521 0)
(15 0.000255894 2.16787e-20)
(15 0.000256554 -4.4204e-21)
(15 0.000257102 -9.52053e-21)
(15 0.000257623 -3.24869e-21)
(15 0.000258027 -1.09373e-20)
(15 0.000258374 -1.31117e-20)
(15 0.000258574 4.82496e-21)
(15 0.000258736 2.64718e-21)
(15 0.000258888 1.10446e-20)
(15 0.000258979 -3.25102e-21)
(15 0.000259085 1.11206e-20)
(15.0001 0.00025899 -7.57317e-21)
(15.0001 0.000258973 -6.98363e-21)
(15.0001 0.000258872 -1.54774e-20)
(15.0001 0.000258503 4.65612e-21)
(15.0001 0.000258028 2.84627e-20)
(15.0001 0.000257291 -1.62343e-20)
(15.0001 0.000256486 -1.10892e-20)
(15.0001 0.000255328 1.12527e-20)
(15.0001 0.000253987 1.11024e-20)
(15.0001 0.000252235 4.87619e-21)
(15.0001 0.000250533 -3.48765e-20)
(15.0001 0.000248518 6.75662e-21)
(15.0001 0.000246313 3.94877e-21)
(15.0001 0.000244111 -2.17584e-20)
(15.0001 0.000241859 2.57416e-20)
(15.0001 0.000239557 3.0541e-21)
(15.0001 0.000237225 -1.07206e-20)
(15.0001 0.000234883 -5.61463e-21)
(15.0001 0.000232531 1.90483e-20)
(15.0001 0.00023002 -1.93282e-20)
(15.0001 0.00022772 7.34279e-21)
(15.0001 0.000225283 1.05893e-20)
(15.0001 0.000222825 1.04448e-20)
(15.0001 0.000220396 -2.01878e-20)
(15.0001 0.000217844 -3.07979e-20)
(15.0001 0.000215423 1.08122e-22)
(15.0001 0.000212784 1.03229e-20)
(15.0001 0.000210065 0)
(15.0001 0.00020747 1.097e-20)
(15.0002 0.000204634 0)
(15.0002 0.00020184 -1.02186e-20)
(15.0002 0.000198996 1.18241e-20)
(15.0002 0.000196077 -1.94834e-21)
(15.0002 0.000192918 1.22098e-20)
(15.0002 0.000189827 1.00181e-20)
(15.0002 0.000186485 -2.54368e-20)
(15.0002 0.000183167 -6.83758e-21)
(15.0002 0.000179553 3.37519e-21)
(15.0002 0.000176077 2.31428e-20)
(15.0002 0.00017231 -3.91594e-21)
(15.0002 0.000168313 0)
(15.0002 0.000164435 4.31342e-21)
(15.0002 0.000160335 2.37584e-20)
(15.0002 0.000156201 2.34525e-20)
(15.0002 0.00015214 -2.37221e-20)
(15.0002 0.000147847 5.36132e-21)
(15.0002 0.000143308 1.52331e-22)
(15.0002 0.000138875 8.98865e-21)
(15.0002 0.000134048 -9.02581e-21)
(15.0002 0.000129247 1.80485e-20)
(15.0002 0.000124403 1.80962e-21)
(15.0002 0.000119302 -3.27689e-20)
(15.0002 0.000114371 -8.45439e-21)
(15.0002 0.000109056 -7.13617e-21)
(15.0002 0.000103738 -1.87743e-22)
(15.0002 9.83538e-05 2.06446e-22)
(15.0002 9.27818e-05 7.97054e-21)
(15.0002 8.71139e-05 -1.40439e-23)
(15.0002 8.13673e-05 -4.76101e-20)
(15.0002 7.56664e-05 2.4384e-20)
(15.0002 6.97712e-05 -2.42972e-20)
(15.0002 6.36534e-05 2.3405e-20)
(15.0002 5.76242e-05 -2.34775e-20)
(15.0002 5.12896e-05 1.70803e-21)
(15.0002 4.49251e-05 2.28517e-20)
(15.0002 3.84207e-05 -1.8656e-21)
(15.0002 3.15816e-05 -1.57629e-20)
(15.0002 2.47651e-05 1.56531e-20)
(15.0002 1.77507e-05 6.25254e-21)
(15.0002 1.01841e-05 -8.62948e-21)
(15.0002 2.54147e-06 -3.60685e-20)
(15.0002 -5.66307e-06 1.76677e-20)
(15.0002 -1.42865e-05 -1.42501e-20)
(15.0002 -2.2998e-05 8.236e-21)
(15.0002 -3.31765e-05 1.92823e-20)
(15.0002 -4.40432e-05 -8.61704e-21)
(15.0002 -5.58381e-05 3.00054e-21)
(15.0001 -6.96435e-05 1.21764e-20)
(15.0001 -8.49243e-05 -1.5473e-20)
(15.0001 -0.000104352 1.04438e-20)
(15.0001 -0.000123316 5.22098e-21)
(15.0001 -0.000149041 7.5342e-21)
(15 -0.00015761 -2.8811e-21)
(15 -0.000173449 -6.76249e-22)
(15 -0.000109043 -1.96001e-22)
(15 -1.14998e-06 2.30332e-22)
(15.0008 0.000198027 -1.70882e-20)
(15.0009 0.00134742 3.11268e-20)
(15.0008 0.00175088 3.18218e-21)
(15.0007 0.00156861 3.86501e-20)
(15.0006 0.00144026 -2.7308e-20)
(15.0004 0.00119444 1.38465e-20)
(15.0003 0.00102772 1.44884e-20)
(15.0003 0.000878505 -4.08662e-22)
(15.0002 0.000768991 4.55523e-22)
(15.0002 0.000681136 -4.09787e-22)
(15.0002 0.000610378 -1.43631e-21)
(15.0001 0.000555156 1.13351e-21)
(15.0001 0.000507884 -4.23267e-21)
(15.0001 0.000471271 5.13857e-21)
(15.0001 0.000439023 -4.06895e-21)
(15.0001 0.000412666 -6.25653e-21)
(15 0.000390035 -3.15981e-22)
(15 0.000370934 6.0203e-21)
(15 0.000354971 5.00867e-21)
(15 0.000341356 9.2842e-24)
(15 0.000329407 -2.87294e-21)
(15 0.000319978 -3.42311e-21)
(15 0.000311506 -7.88514e-22)
(14.9999 0.000304665 -7.48045e-24)
(14.9999 0.000299077 -3.4904e-21)
(14.9999 0.00029495 7.27553e-21)
(14.9999 0.000291598 6.06791e-23)
(14.9999 0.000289165 -5.47799e-21)
(14.9999 0.00028765 1.3464e-21)
(14.9999 0.000286653 -4.22047e-21)
(14.9999 0.000286749 4.33903e-21)
(14.9999 0.000287127 7.86098e-23)
(14.9999 0.000288295 -8.53927e-21)
(14.9998 0.0002899 2.17803e-20)
(14.9998 0.000292058 4.95861e-21)
(14.9998 0.000294621 4.45285e-21)
(14.9998 0.000297691 -1.03838e-20)
(14.9998 0.000301061 -7.97243e-23)
(14.9998 0.000305083 5.04321e-21)
(14.9998 0.000309238 1.56566e-20)
(14.9998 0.000314062 1.10589e-20)
(14.9998 0.000318777 -6.39885e-21)
(14.9998 0.000323961 5.4439e-21)
(14.9998 0.000329236 0)
(14.9998 0.000334785 -5.72275e-22)
(14.9998 0.00034044 -6.35502e-21)
(14.9998 0.000346431 1.86102e-20)
(14.9998 0.000352374 -4.9623e-21)
(14.9998 0.000358512 -1.92159e-20)
(14.9998 0.000364858 6.73145e-21)
(14.9998 0.000371345 6.00108e-21)
(14.9998 0.000377776 -2.21261e-21)
(14.9998 0.000384236 2.6158e-20)
(14.9998 0.000390868 1.33024e-20)
(14.9998 0.00039733 -4.59153e-23)
(14.9998 0.000403706 8.92413e-21)
(14.9998 0.00041006 -7.51087e-21)
(14.9998 0.000416317 -1.53876e-20)
(14.9998 0.000422358 1.96912e-20)
(14.9998 0.000428439 1.19259e-20)
(14.9998 0.000434445 -2.06711e-21)
(14.9998 0.000440255 0)
(14.9998 0.00044621 5.8025e-21)
(14.9998 0.000452062 -5.72574e-21)
(14.9998 0.000457944 1.39307e-20)
(14.9998 0.000463877 2.91933e-23)
(14.9998 0.000469801 -3.97009e-23)
(14.9998 0.000475871 -1.38583e-20)
(14.9998 0.000481824 -1.73248e-20)
(14.9998 0.000487795 2.24121e-24)
(14.9998 0.000493729 1.75993e-20)
(14.9998 0.000499672 1.78418e-20)
(14.9998 0.000505536 -8.9885e-21)
(14.9998 0.000511271 2.06994e-22)
(14.9998 0.000517064 -9.13924e-21)
(14.9998 0.000522703 -1.36365e-20)
(14.9998 0.000528143 4.25532e-21)
(14.9998 0.000533699 9.39006e-21)
(14.9998 0.000538976 1.34559e-20)
(14.9999 0.000544163 -3.81402e-21)
(14.9999 0.000549152 1.32894e-20)
(14.9999 0.000554128 3.53241e-21)
(14.9999 0.000558949 -2.29084e-20)
(14.9999 0.000563699 -9.86041e-21)
(14.9999 0.000568211 9.91108e-21)
(14.9999 0.000572588 1.57271e-20)
(14.9999 0.000576958 -1.69207e-24)
(14.9999 0.000581131 1.01155e-20)
(14.9999 0.000585153 1.86451e-23)
(14.9999 0.00058905 -1.24142e-20)
(14.9999 0.000592908 -1.22811e-20)
(14.9999 0.000596554 -2.25199e-20)
(14.9999 0.000600008 1.92028e-20)
(14.9999 0.000603342 2.09586e-20)
(15 0.000606573 3.67759e-21)
(15 0.000609773 3.10237e-21)
(15 0.000612738 -1.14883e-20)
(15 0.00061562 -1.06981e-20)
(15 0.00061825 -3.37678e-24)
(15 0.000620821 1.05757e-20)
(15 0.000623328 1.08563e-20)
(15 0.000625777 -1.46924e-24)
(15 0.000628161 -1.09124e-20)
(15 0.000630287 -2.19062e-20)
(15 0.000632323 9.30877e-21)
(15 0.00063411 9.93068e-21)
(15.0001 0.000635862 -1.2298e-20)
(15.0001 0.000637506 -1.46111e-23)
(15.0001 0.000639028 9.37326e-21)
(15.0001 0.00064036 2.22304e-20)
(15.0001 0.000641489 -2.44958e-20)
(15.0001 0.000642622 -1.11371e-20)
(15.0001 0.000643671 -1.11262e-23)
(15.0001 0.000644614 2.91803e-21)
(15.0001 0.000645398 4.96522e-21)
(15.0001 0.000646213 6.74674e-21)
(15.0001 0.0006469 -1.13237e-20)
(15.0002 0.000647284 3.86013e-21)
(15.0002 0.000647519 3.20479e-21)
(15.0002 0.000647461 -4.28787e-21)
(15.0002 0.000647246 2.72676e-20)
(15.0002 0.000646623 -5.89623e-23)
(15.0002 0.000645705 -2.26895e-20)
(15.0002 0.000644267 -1.65126e-20)
(15.0002 0.000642801 2.59063e-23)
(15.0002 0.000640954 2.24182e-20)
(15.0002 0.0006388 -5.79021e-21)
(15.0002 0.000636643 1.12898e-20)
(15.0002 0.000634258 1.24395e-20)
(15.0003 0.000631717 -1.76402e-20)
(15.0003 0.000629148 -2.23992e-20)
(15.0003 0.000626467 2.93695e-20)
(15.0003 0.000623729 2.20861e-20)
(15.0003 0.000620745 -7.31339e-21)
(15.0003 0.000617839 -8.19868e-23)
(15.0003 0.000614806 -3.07397e-21)
(15.0003 0.000611694 -8.19494e-21)
(15.0003 0.000608507 -3.04367e-20)
(15.0003 0.000605066 -2.37886e-21)
(15.0003 0.000601742 2.86824e-20)
(15.0003 0.000598123 1.99933e-20)
(15.0004 0.000594341 1.68222e-21)
(15.0004 0.000590656 -7.07575e-23)
(15.0004 0.000586714 -1.11067e-21)
(15.0004 0.00058267 0)
(15.0004 0.000578622 -6.89171e-22)
(15.0004 0.000574474 1.09633e-20)
(15.0004 0.000569997 1.06908e-20)
(15.0004 0.00056569 -2.15812e-20)
(15.0004 0.000561187 -1.686e-22)
(15.0004 0.000556434 1.05873e-20)
(15.0004 0.000551525 8.01427e-22)
(15.0004 0.000546671 1.25273e-20)
(15.0004 0.000541688 -1.16886e-20)
(15.0004 0.000536314 2.11222e-20)
(15.0004 0.000531174 -1.22116e-20)
(15.0005 0.000525881 2.29674e-20)
(15.0005 0.000520697 -2.31676e-20)
(15.0005 0.000515455 2.54156e-21)
(15.0005 0.000510426 1.25193e-20)
(15.0005 0.000504943 1.57303e-20)
(15.0005 0.00049996 1.01046e-20)
(15.0005 0.000494563 2.95405e-21)
(15.0005 0.00048956 1.02494e-20)
(15.0005 0.000484505 9.71016e-21)
(15.0005 0.000479445 -2.32422e-20)
(15.0005 0.000474532 -2.33515e-20)
(15.0005 0.000469655 9.89337e-21)
(15.0005 0.000464872 -4.22899e-21)
(15.0005 0.000460605 1.66609e-22)
(15.0005 0.00045621 -4.34852e-21)
(15.0005 0.000452558 -4.61786e-20)
(15.0005 0.000449057 2.97616e-22)
(15.0005 0.000446115 1.78945e-20)
(15.0005 0.00044362 1.41365e-20)
(15.0005 0.000441398 1.73421e-20)
(15.0005 0.000440325 -3.58384e-20)
(15.0005 0.000439814 1.35553e-20)
(15.0005 0.000440516 4.88267e-21)
(15.0005 0.000441437 1.3512e-20)
(15.0005 0.000444299 1.63276e-20)
(15.0004 0.000448091 -5.09081e-21)
(15.0004 0.000453477 -8.00136e-21)
(15.0004 0.000460741 -2.02691e-20)
(15.0004 0.000470506 -9.62232e-21)
(15.0004 0.000482681 -7.97365e-21)
(15.0004 0.000498465 -1.82922e-20)
(15.0004 0.000516893 6.52288e-21)
(15.0004 0.000542146 -6.49267e-21)
(15.0004 0.000571584 6.55269e-21)
(15.0003 0.000610631 -3.0301e-22)
(15.0003 0.000658374 -1.14742e-20)
(15.0003 0.000718513 2.91641e-21)
(15.0002 0.000799267 1.82627e-20)
(15.0002 0.000887048 2.97199e-21)
(15.0001 0.00101447 -1.89858e-22)
(15 0.00106391 -4.39267e-21)
(15 0.00113234 3.79644e-22)
(15 0.00083313 -2.90351e-22)
(15 0.000122216 -5.25813e-21)
(15.0013 0.000199676 -1.87466e-20)
(15.0014 0.000499138 -3.85908e-21)
(15.0014 0.00248324 -1.28235e-20)
(15.0012 0.00217537 1.96056e-20)
(15.001 0.00218907 1.11008e-20)
(15.0007 0.0018292 -2.28686e-20)
(15.0006 0.00159477 2.28367e-21)
(15.0005 0.00135653 0)
(15.0004 0.00118524 5.13271e-21)
(15.0003 0.00104088 -3.32411e-21)
(15.0003 0.000929389 -1.61844e-22)
(15.0002 0.000838822 9.24315e-22)
(15.0002 0.000763815 1.15727e-21)
(15.0002 0.000704285 -3.66746e-21)
(15.0001 0.000652502 2.76038e-21)
(15.0001 0.00061035 1.95202e-21)
(15.0001 0.000574609 -7.76145e-21)
(15 0.000544339 -8.47543e-21)
(15 0.00051906 2.22053e-21)
(15 0.00049749 2.50011e-21)
(15 0.00047951 1.07103e-20)
(14.9999 0.00046456 2.99018e-21)
(14.9999 0.000452043 2.97069e-21)
(14.9999 0.000441701 -6.40458e-21)
(14.9999 0.000433397 3.47873e-21)
(14.9999 0.000427249 -1.37401e-20)
(14.9999 0.000422451 1.42386e-20)
(14.9998 0.00041907 3.83146e-21)
(14.9998 0.000417045 4.07927e-21)
(14.9998 0.000416037 -4.15971e-21)
(14.9998 0.000416338 -8.04736e-21)
(14.9998 0.000417264 1.26348e-20)
(14.9998 0.000419205 -2.20272e-20)
(14.9997 0.000421988 -1.34101e-20)
(14.9997 0.000425488 1.84449e-20)
(14.9997 0.000429731 1.72837e-20)
(14.9997 0.000434708 8.74684e-21)
(14.9997 0.000440295 -5.28575e-21)
(14.9997 0.000446752 3.42786e-21)
(14.9997 0.000453572 -1.78699e-20)
(14.9997 0.000461193 2.36776e-20)
(14.9997 0.000469026 5.87866e-21)
(14.9997 0.000477574 9.04182e-21)
(14.9997 0.000486338 9.05683e-21)
(14.9996 0.00049549 0)
(14.9996 0.000504981 -6.30799e-21)
(14.9996 0.000514844 3.70387e-21)
(14.9996 0.00052494 1.57807e-20)
(14.9996 0.000535234 -1.34835e-20)
(14.9996 0.000545826 -8.96371e-21)
(14.9996 0.000556613 1.09362e-20)
(14.9996 0.000567457 -1.59408e-20)
(14.9996 0.000578277 -1.04997e-20)
(14.9996 0.000589187 2.48137e-20)
(14.9996 0.000599946 7.34858e-21)
(14.9996 0.000610618 8.70211e-21)
(14.9996 0.000621136 1.80325e-20)
(14.9996 0.000631579 8.00984e-22)
(14.9996 0.000641785 -1.56023e-20)
(14.9996 0.000651992 1.61203e-20)
(14.9996 0.000662104 2.4254e-20)
(14.9996 0.000672036 8.06203e-21)
(14.9996 0.000682116 8.14972e-21)
(14.9996 0.000692206 5.40164e-23)
(14.9996 0.000702316 -2.37376e-20)
(14.9996 0.000712469 1.50452e-20)
(14.9996 0.000722651 8.50982e-21)
(14.9997 0.000733001 7.25055e-21)
(14.9997 0.000743239 -1.57933e-20)
(14.9997 0.000753467 -9.68653e-24)
(14.9997 0.000763692 2.17879e-21)
(14.9997 0.000773906 -8.90355e-21)
(14.9997 0.000783989 -1.18508e-20)
(14.9997 0.000793871 1.52767e-20)
(14.9997 0.000803702 1.52126e-20)
(14.9997 0.000813425 -5.76939e-21)
(14.9997 0.000822893 -5.57445e-21)
(14.9997 0.000832277 -2.02057e-20)
(14.9997 0.000841402 4.34281e-21)
(14.9998 0.000850374 -4.88629e-21)
(14.9998 0.000859002 -1.94628e-20)
(14.9998 0.00086761 2.41177e-20)
(14.9998 0.000875996 1.22562e-21)
(14.9998 0.00088419 -1.98948e-20)
(14.9998 0.000891988 -3.0613e-23)
(14.9998 0.000899635 2.20688e-23)
(14.9998 0.000907177 -1.36308e-20)
(14.9998 0.000914443 1.02066e-20)
(14.9998 0.000921468 1.75586e-20)
(14.9999 0.000928243 2.80153e-21)
(14.9999 0.000934822 2.52819e-21)
(14.9999 0.000941124 1.31074e-23)
(14.9999 0.000947168 -1.26097e-20)
(14.9999 0.000952998 -1.93519e-20)
(14.9999 0.000958594 -1.06685e-20)
(14.9999 0.00096401 3.21043e-20)
(14.9999 0.000969074 9.68437e-21)
(15 0.00097393 -1.08074e-20)
(15 0.000978512 1.02848e-20)
(15 0.000982975 3.21533e-22)
(15 0.000987237 -1.09029e-20)
(15 0.000991302 2.09541e-22)
(15 0.000995237 0)
(15 0.000998888 7.34614e-22)
(15.0001 0.00100231 -1.00913e-20)
(15.0001 0.00100536 -1.27075e-21)
(15.0001 0.00100822 1.27128e-20)
(15.0001 0.00101082 -1.48472e-20)
(15.0001 0.0010132 -1.12077e-20)
(15.0001 0.00101531 1.03117e-24)
(15.0001 0.00101716 -9.35995e-24)
(15.0002 0.00101883 2.26212e-20)
(15.0002 0.0010203 1.12909e-20)
(15.0002 0.00102157 -1.13406e-20)
(15.0002 0.0010226 1.13906e-20)
(15.0002 0.00102355 1.54987e-20)
(15.0002 0.00102435 -2.28989e-20)
(15.0003 0.00102465 -1.81947e-20)
(15.0003 0.00102466 6.52139e-21)
(15.0003 0.00102427 2.81759e-20)
(15.0003 0.00102366 5.46666e-21)
(15.0003 0.00102243 -1.72492e-20)
(15.0003 0.00102079 0)
(15.0003 0.0010186 1.1493e-20)
(15.0004 0.00101606 1.80366e-20)
(15.0004 0.00101303 -1.14423e-20)
(15.0004 0.0010097 -1.13769e-20)
(15.0004 0.00100616 1.14059e-20)
(15.0004 0.00100224 -1.55164e-20)
(15.0004 0.000998029 -1.13008e-20)
(15.0004 0.000993695 1.13287e-20)
(15.0005 0.000989208 1.98796e-20)
(15.0005 0.000984528 -2.90993e-20)
(15.0005 0.000979526 -1.98716e-21)
(15.0005 0.000974476 -7.78327e-21)
(15.0005 0.000969225 9.73606e-21)
(15.0005 0.000963752 -2.124e-20)
(15.0005 0.000958028 1.11837e-20)
(15.0006 0.000952049 2.18027e-20)
(15.0006 0.000946048 1.10225e-20)
(15.0006 0.000939643 -1.09529e-20)
(15.0006 0.000932961 -1.09247e-20)
(15.0006 0.000926207 3.394e-20)
(15.0006 0.000919132 -9.63662e-23)
(15.0006 0.000911951 -1.0943e-20)
(15.0006 0.000904527 0)
(15.0007 0.000896992 2.60581e-20)
(15.0007 0.000889134 -2.66277e-20)
(15.0007 0.00088133 0)
(15.0007 0.000873152 1.38569e-20)
(15.0007 0.000864758 -1.4123e-20)
(15.0007 0.00085618 1.0849e-20)
(15.0007 0.000847558 3.70225e-21)
(15.0007 0.000838679 1.9222e-20)
(15.0007 0.000829535 -1.36783e-22)
(15.0007 0.0008205 -3.05498e-20)
(15.0008 0.000811347 1.0472e-20)
(15.0008 0.000802213 -3.68811e-20)
(15.0008 0.000793063 2.63967e-20)
(15.0008 0.000784184 -1.62158e-20)
(15.0008 0.000775084 -1.03329e-20)
(15.0008 0.000766374 -1.64476e-20)
(15.0008 0.000757306 6.3927e-21)
(15.0008 0.000748634 2.75301e-20)
(15.0008 0.00074001 -7.58376e-21)
(15.0008 0.000731323 -4.69279e-20)
(15.0008 0.00072295 -3.46715e-20)
(15.0008 0.000714586 2.7221e-20)
(15.0008 0.000706514 -3.53587e-20)
(15.0008 0.000698987 0)
(15.0008 0.000691589 -2.74221e-20)
(15.0008 0.00068493 -8.27507e-21)
(15.0008 0.000678795 3.62367e-20)
(15.0008 0.00067339 -1.80155e-20)
(15.0008 0.000668661 2.70563e-20)
(15.0008 0.000664515 -3.58074e-20)
(15.0008 0.000661868 1.82538e-20)
(15.0008 0.000660182 2.64266e-20)
(15.0008 0.000659849 2.65561e-20)
(15.0008 0.000660786 2.61116e-20)
(15.0008 0.00066365 1.12849e-21)
(15.0007 0.000668748 4.90954e-22)
(15.0007 0.000676171 -1.01428e-20)
(15.0007 0.000686546 9.7485e-21)
(15.0007 0.00070042 0)
(15.0007 0.000718254 -2.43452e-20)
(15.0007 0.000741938 3.32059e-20)
(15.0007 0.000769973 -1.6484e-20)
(15.0006 0.000807672 -8.30727e-21)
(15.0006 0.000853745 5.66199e-21)
(15.0006 0.000911842 -4.03341e-20)
(15.0005 0.000987546 6.22994e-21)
(15.0005 0.00107779 1.63319e-20)
(15.0004 0.00120148 1.59317e-21)
(15.0003 0.00131921 3.77584e-22)
(15.0002 0.00149562 -3.43939e-21)
(15.0001 0.00144446 1.68559e-21)
(15 0.0015639 -2.80147e-22)
(15 0.000279638 -7.03703e-21)
(15 0.000117832 4.98271e-21)
(15.0017 1.12922e-05 1.01678e-20)
(15.0019 -0.00136584 -1.54802e-20)
(15.0019 0.00198117 0)
(15.0017 0.00176502 0)
(15.0014 0.00210914 5.48559e-21)
(15.0011 0.00179885 4.58396e-21)
(15.0008 0.00161166 4.45428e-21)
(15.0006 0.00136436 6.13308e-22)
(15.0005 0.00118919 1.40019e-21)
(15.0004 0.0010339 2.70179e-22)
(15.0003 0.000916169 -1.15181e-21)
(15.0003 0.000819065 -8.17283e-22)
(15.0002 0.000741767 -2.35463e-21)
(15.0002 0.000679754 1.28549e-23)
(15.0001 0.000627753 -9.37028e-21)
(15.0001 0.000585833 6.90219e-21)
(15.0001 0.000551171 1.98395e-21)
(15 0.00052249 4.0235e-21)
(15 0.000499298 -8.89481e-21)
(15 0.000480441 4.42509e-21)
(14.9999 0.000465531 -1.45481e-20)
(14.9999 0.000453656 1.25316e-22)
(14.9999 0.000444927 2.87368e-21)
(14.9998 0.000438158 -4.75919e-21)
(14.9998 0.000433917 8.24576e-21)
(14.9998 0.000431947 1.19594e-22)
(14.9998 0.000431521 -1.62202e-20)
(14.9997 0.000432569 -9.15713e-21)
(14.9997 0.000435199 4.07359e-21)
(14.9997 0.000438926 1.76542e-23)
(14.9997 0.000443846 0)
(14.9997 0.000449615 9.74892e-21)
(14.9996 0.000456475 1.44027e-20)
(14.9996 0.000464221 -9.9349e-21)
(14.9996 0.000472673 -9.76701e-21)
(14.9996 0.000482043 -1.02734e-20)
(14.9996 0.00049222 -1.01372e-20)
(14.9996 0.000503142 -1.04192e-20)
(14.9995 0.000514929 5.09517e-22)
(14.9995 0.000527187 -2.06965e-20)
(14.9995 0.000540268 -1.61889e-20)
(14.9995 0.000553729 4.63243e-21)
(14.9995 0.000567846 4.41396e-21)
(14.9995 0.000582283 6.06611e-21)
(14.9995 0.000597265 1.04907e-20)
(14.9995 0.000612565 -8.94826e-23)
(14.9995 0.000628318 6.51778e-21)
(14.9995 0.000644293 2.05996e-20)
(14.9995 0.000660528 1.02309e-20)
(14.9995 0.000677064 -6.8031e-21)
(14.9995 0.000693731 1.00174e-20)
(14.9995 0.00071044 -5.9116e-21)
(14.9995 0.000727161 -7.09345e-21)
(14.9995 0.00074385 -7.43649e-21)
(14.9995 0.000760303 7.47262e-21)
(14.9995 0.000776583 1.1877e-20)
(14.9995 0.00079261 -7.67161e-21)
(14.9995 0.000808477 1.71905e-20)
(14.9995 0.000824098 -1.46941e-21)
(14.9995 0.000839587 -2.63975e-20)
(14.9995 0.000854959 -8.08707e-21)
(14.9995 0.000870153 8.13641e-21)
(14.9995 0.000885417 8.29762e-21)
(14.9995 0.000900598 2.52885e-20)
(14.9995 0.000915806 -8.29977e-21)
(14.9995 0.000931089 -1.72031e-20)
(14.9995 0.000946345 5.08385e-22)
(14.9995 0.000961679 7.97987e-21)
(14.9995 0.000976965 -8.78061e-21)
(14.9995 0.000992224 7.54761e-21)
(14.9995 0.00100737 1.79871e-20)
(14.9995 0.00102239 1.44602e-20)
(14.9996 0.00103728 -2.53373e-20)
(14.9996 0.00105189 -1.60716e-20)
(14.9996 0.00106635 9.32496e-21)
(14.9996 0.00108066 3.08399e-21)
(14.9996 0.00109462 9.48689e-21)
(14.9996 0.0011084 3.67692e-21)
(14.9996 0.00112177 -1.14391e-20)
(14.9996 0.00113498 1.24365e-21)
(14.9997 0.0011478 -2.03909e-20)
(14.9997 0.00116041 1.4749e-20)
(14.9997 0.00117264 -5.0934e-21)
(14.9997 0.00118462 -3.02065e-20)
(14.9997 0.00119618 5.80049e-21)
(14.9997 0.00120745 2.04127e-20)
(14.9997 0.00121844 2.0343e-23)
(14.9998 0.00122905 6.71414e-21)
(14.9998 0.00123934 -1.03495e-20)
(14.9998 0.00124927 -2.83626e-20)
(14.9998 0.00125884 2.82084e-21)
(14.9998 0.0012681 2.322e-24)
(14.9998 0.00127701 1.06561e-20)
(14.9999 0.00128552 1.07285e-20)
(14.9999 0.00129367 5.48364e-21)
(14.9999 0.0013015 7.85683e-21)
(14.9999 0.00130889 -9.66885e-21)
(14.9999 0.00131595 -1.09549e-20)
(15 0.0013226 -1.09987e-20)
(15 0.00132907 -1.0669e-20)
(15 0.0013352 3.33982e-20)
(15 0.00134099 1.11342e-20)
(15 0.00134659 -1.1634e-20)
(15.0001 0.00135176 -1.12072e-20)
(15.0001 0.00135658 -1.22711e-20)
(15.0001 0.00136092 1.26112e-20)
(15.0001 0.00136494 -2.5901e-20)
(15.0001 0.00136855 -1.13193e-20)
(15.0002 0.00137175 3.63275e-20)
(15.0002 0.0013746 2.27619e-20)
(15.0002 0.00137714 -1.99999e-20)
(15.0002 0.00137934 -5.09671e-21)
(15.0003 0.00138122 -2.90303e-23)
(15.0003 0.00138281 2.38403e-23)
(15.0003 0.00138405 2.30675e-20)
(15.0003 0.00138499 -4.42501e-21)
(15.0003 0.00138561 -1.6263e-20)
(15.0004 0.00138568 -6.59274e-21)
(15.0004 0.00138534 1.70028e-20)
(15.0004 0.00138436 2.3219e-20)
(15.0004 0.0013829 0)
(15.0004 0.0013807 -1.16362e-20)
(15.0005 0.001378 -5.05658e-21)
(15.0005 0.00137453 0)
(15.0005 0.00137052 -7.15176e-21)
(15.0005 0.00136584 -7.45806e-21)
(15.0005 0.00136077 -7.75799e-21)
(15.0006 0.0013553 -1.1549e-20)
(15.0006 0.00134928 -8.33037e-21)
(15.0006 0.00134293 1.14409e-20)
(15.0006 0.00133624 -1.14892e-20)
(15.0006 0.00132918 5.01116e-23)
(15.0007 0.00132183 1.31063e-20)
(15.0007 0.00131415 9.92441e-21)
(15.0007 0.00130621 8.39096e-23)
(15.0007 0.00129787 -2.13568e-20)
(15.0008 0.00128925 -1.12538e-20)
(15.0008 0.00128027 0)
(15.0008 0.00127082 -1.28463e-23)
(15.0008 0.00126114 -6.6266e-22)
(15.0008 0.00125097 -2.4619e-20)
(15.0008 0.00124043 3.65005e-20)
(15.0009 0.00122958 1.26905e-20)
(15.0009 0.00121835 -4.86135e-20)
(15.0009 0.00120691 0)
(15.0009 0.00119505 1.11615e-20)
(15.0009 0.00118295 2.89957e-21)
(15.001 0.00117039 3.56748e-21)
(15.001 0.00115763 1.09274e-20)
(15.001 0.00114454 -1.50296e-20)
(15.001 0.00113107 0)
(15.001 0.00111726 1.09578e-20)
(15.001 0.00110323 -5.11082e-21)
(15.001 0.0010889 5.3227e-21)
(15.0011 0.00107416 -3.79065e-20)
(15.0011 0.00105946 1.68389e-20)
(15.0011 0.00104445 -1.67128e-22)
(15.0011 0.00102949 -1.70393e-20)
(15.0011 0.00101448 1.03986e-20)
(15.0011 0.000999561 -1.05662e-20)
(15.0011 0.000984389 -1.03344e-20)
(15.0011 0.000969481 3.8923e-20)
(15.0011 0.000954157 9.93906e-21)
(15.0011 0.000938984 8.4783e-21)
(15.0011 0.000923795 -2.89143e-20)
(15.0012 0.00090851 -3.88313e-20)
(15.0012 0.000893462 2.91472e-20)
(15.0012 0.000878318 -9.71807e-21)
(15.0012 0.000863399 1.99434e-22)
(15.0012 0.000848964 9.45509e-21)
(15.0012 0.000834715 0)
(15.0012 0.000820965 3.91863e-20)
(15.0012 0.000807755 -1.96686e-20)
(15.0011 0.000795318 -1.97129e-20)
(15.0011 0.000783498 -3.94444e-20)
(15.0011 0.000772295 -1.06941e-20)
(15.0011 0.000762508 2.83734e-20)
(15.0011 0.00075391 -1.95918e-20)
(15.0011 0.000746299 -8.53248e-21)
(15.0011 0.000740448 -1.92166e-20)
(15.0011 0.000736421 -3.08742e-20)
(15.0011 0.000734655 3.0451e-20)
(15.0011 0.000735459 3.1461e-22)
(15.001 0.000739482 -3.38695e-22)
(15.001 0.000747152 1.89888e-20)
(15.001 0.000759125 2.53326e-20)
(15.001 0.000776932 1.08026e-20)
(15.0009 0.000800382 3.95856e-21)
(15.0009 0.000832788 -1.64037e-20)
(15.0009 0.000875854 -1.67862e-20)
(15.0008 0.000930176 4.50103e-22)
(15.0007 0.00100353 1.92762e-20)
(15.0007 0.00108679 -2.54876e-20)
(15.0006 0.00120372 1.08152e-20)
(15.0004 0.00128227 4.12174e-23)
(15.0003 0.00141493 0)
(15.0001 0.00115747 -1.43481e-21)
(15 0.00121869 -4.40856e-21)
(15 -0.000900421 1.1565e-21)
(15.0001 -7.82851e-07 9.16997e-21)
(15.002 -0.000295086 1.11407e-20)
(15.0023 -0.00257266 2.1042e-20)
(15.0024 0.00123709 0)
(15.0022 0.00127415 -1.92754e-20)
(15.0018 0.00194013 -6.10902e-21)
(15.0014 0.0017273 8.59091e-21)
(15.0011 0.00161686 1.02619e-20)
(15.0009 0.00137586 2.21226e-21)
(15.0007 0.00120109 -1.29562e-21)
(15.0006 0.00103531 1.7773e-21)
(15.0005 0.000908442 -6.67831e-23)
(15.0004 0.000804009 -6.02282e-22)
(15.0003 0.000721382 2.85739e-21)
(15.0003 0.000655376 -1.03436e-23)
(15.0002 0.000601751 2.09517e-21)
(15.0001 0.000558268 -1.64998e-21)
(15.0001 0.000523713 9.09977e-21)
(15.0001 0.000495518 7.00946e-21)
(15 0.000473512 -2.08882e-21)
(15 0.000456075 -1.91043e-22)
(14.9999 0.00044322 -3.50781e-21)
(14.9999 0.000433916 -2.83652e-21)
(14.9998 0.000427916 -6.93798e-21)
(14.9998 0.00042425 -3.05536e-21)
(14.9998 0.000423447 -7.61011e-21)
(14.9997 0.000424906 1.47143e-20)
(14.9997 0.000428276 -4.38809e-21)
(14.9997 0.000433123 -8.31699e-21)
(14.9997 0.000439982 -8.51299e-21)
(14.9996 0.000447928 -1.27594e-20)
(14.9996 0.000457207 -4.30887e-21)
(14.9996 0.000467499 0)
(14.9995 0.00047897 -1.37209e-20)
(14.9995 0.000491227 -9.43625e-21)
(14.9995 0.000504456 2.2013e-22)
(14.9995 0.000518641 -4.58329e-21)
(14.9995 0.000533725 -9.7149e-21)
(14.9994 0.000549587 -1.50236e-20)
(14.9994 0.000566461 -9.94799e-21)
(14.9994 0.000583896 1.98935e-20)
(14.9994 0.000602238 -1.46775e-21)
(14.9994 0.000621165 -1.58498e-20)
(14.9994 0.000640709 -4.06937e-21)
(14.9994 0.000660688 9.11782e-23)
(14.9993 0.000681228 -8.22561e-23)
(14.9993 0.000702146 -9.91325e-21)
(14.9993 0.000723539 9.8867e-21)
(14.9993 0.000745326 -9.85883e-21)
(14.9993 0.000767325 9.84232e-21)
(14.9993 0.000789648 9.4553e-23)
(14.9993 0.00081219 6.86644e-21)
(14.9993 0.00083467 9.93578e-21)
(14.9993 0.000857136 2.35013e-21)
(14.9993 0.000879502 -2.25005e-21)
(14.9993 0.000901653 2.13469e-21)
(14.9993 0.00092352 9.40034e-21)
(14.9993 0.000945078 -9.31285e-21)
(14.9993 0.000966407 -9.36545e-21)
(14.9993 0.000987393 1.71221e-20)
(14.9993 0.00100821 0)
(14.9993 0.00102885 -8.95981e-21)
(14.9993 0.00104936 -1.76516e-20)
(14.9993 0.00106978 8.68458e-21)
(14.9993 0.00109014 -8.54088e-21)
(14.9993 0.00111051 1.68045e-20)
(14.9993 0.00113094 8.57794e-21)
(14.9994 0.00115126 8.1277e-21)
(14.9994 0.00117161 -9.38523e-22)
(14.9994 0.00119189 -8.86075e-21)
(14.9994 0.00121214 -1.51311e-20)
(14.9994 0.00123225 7.40868e-21)
(14.9994 0.00125211 7.11232e-21)
(14.9994 0.00127176 2.32153e-21)
(14.9994 0.0012912 -6.77128e-21)
(14.9995 0.00131034 -3.71814e-21)
(14.9995 0.00132922 -6.31658e-21)
(14.9995 0.0013477 -6.19938e-21)
(14.9995 0.0013659 1.56453e-20)
(14.9995 0.00138366 -1.95216e-20)
(14.9995 0.00140116 -7.26592e-23)
(14.9996 0.00141815 1.00063e-20)
(14.9996 0.00143475 -1.00365e-20)
(14.9996 0.00145097 9.63944e-21)
(14.9996 0.00146688 -9.17597e-21)