/*--------------------------------*- C++ -*----------------------------------*\
  =========                 |
  \\      /  F ield         | OpenFOAM: The Open Source CFD Toolbox
   \\    /   O peration     | Website:  https://openfoam.org
    \\  /    A nd           | Version:  8
     \\/     M anipulation  |
\*---------------------------------------------------------------------------*/
FoamFile
{
    version     2.0;
    format      ascii;
    class       volScalarField;
    location    "17";
    object      nut;
}
// * * * * * * * * * * * * * * * * * * * * * * * * * * * * * * * * * * * * * //

dimensions      [0 2 -1 0 0 0 0];

internalField   nonuniform List<scalar> 
277560
(
0.139656
0.138982
0.138314
0.137642
0.136962
0.136269
0.135563
0.134841
0.134106
0.133358
0.132599
0.131831
0.131056
0.130278
0.1295
0.128724
0.127953
0.127191
0.126442
0.125708
0.124992
0.124297
0.123627
0.122984
0.122371
0.12179
0.121244
0.120735
0.120264
0.119834
0.119446
0.1191
0.118797
0.118539
0.118324
0.118153
0.118026
0.11794
0.117897
0.117893
0.117927
0.117998
0.118103
0.118241
0.118409
0.118605
0.118826
0.11907
0.119335
0.119618
0.119917
0.12023
0.120555
0.12089
0.121232
0.121581
0.121934
0.12229
0.122648
0.123006
0.123363
0.123718
0.124071
0.124421
0.124766
0.125107
0.125443
0.125773
0.126098
0.126417
0.126729
0.127035
0.127335
0.127628
0.127914
0.128194
0.128467
0.128735
0.128995
0.12925
0.129498
0.129741
0.129977
0.130208
0.130434
0.130654
0.130868
0.131078
0.131282
0.131482
0.131677
0.131868
0.132054
0.132236
0.132413
0.132587
0.132757
0.132922
0.133085
0.133244
0.133399
0.133551
0.1337
0.133845
0.133988
0.134127
0.134264
0.134398
0.13453
0.134658
0.134784
0.134908
0.135029
0.135148
0.135265
0.135379
0.135491
0.135602
0.13571
0.135816
0.139659
0.13899
0.138325
0.137656
0.136977
0.136285
0.135579
0.134857
0.134122
0.133373
0.132613
0.131845
0.131069
0.13029
0.129511
0.128733
0.127962
0.127199
0.126449
0.125713
0.124997
0.124301
0.12363
0.122987
0.122373
0.121792
0.121245
0.120735
0.120264
0.119834
0.119445
0.119099
0.118796
0.118537
0.118323
0.118152
0.118024
0.11794
0.117896
0.117893
0.117928
0.117999
0.118105
0.118244
0.118413
0.11861
0.118833
0.119078
0.119345
0.119629
0.11993
0.120245
0.120572
0.120908
0.121253
0.121603
0.121958
0.122316
0.122676
0.123036
0.123395
0.123752
0.124107
0.124458
0.124806
0.125148
0.125485
0.125817
0.126143
0.126463
0.126777
0.127084
0.127385
0.127679
0.127966
0.128247
0.128521
0.128789
0.12905
0.129305
0.129554
0.129797
0.130034
0.130266
0.130491
0.130711
0.130926
0.131136
0.13134
0.13154
0.131735
0.131926
0.132111
0.132293
0.13247
0.132644
0.132813
0.132979
0.13314
0.133299
0.133453
0.133605
0.133753
0.133897
0.134039
0.134178
0.134313
0.134446
0.134577
0.134704
0.134829
0.134951
0.135071
0.135188
0.135303
0.135416
0.135526
0.135635
0.135741
0.135845
0.139665
0.139005
0.138347
0.137683
0.137006
0.136316
0.13561
0.134889
0.134153
0.133403
0.132642
0.131871
0.131094
0.130313
0.129532
0.128752
0.127979
0.127214
0.126462
0.125725
0.125007
0.12431
0.123637
0.122992
0.122377
0.121795
0.121247
0.120736
0.120265
0.119833
0.119444
0.119097
0.118794
0.118535
0.118321
0.11815
0.118023
0.117939
0.117896
0.117894
0.11793
0.118003
0.118111
0.118252
0.118423
0.118622
0.118847
0.119096
0.119365
0.119653
0.119958
0.120276
0.120607
0.120947
0.121295
0.12165
0.122009
0.12237
0.122734
0.123098
0.123461
0.123822
0.12418
0.124535
0.124885
0.125231
0.125571
0.125906
0.126235
0.126557
0.126874
0.127183
0.127486
0.127782
0.128071
0.128353
0.128629
0.128898
0.129161
0.129417
0.129667
0.129911
0.130149
0.130381
0.130607
0.130827
0.131042
0.131252
0.131457
0.131657
0.131852
0.132042
0.132227
0.132409
0.132585
0.132758
0.132927
0.133091
0.133252
0.133409
0.133563
0.133713
0.133859
0.134003
0.134143
0.13428
0.134414
0.134545
0.134672
0.134798
0.13492
0.13504
0.135157
0.135271
0.135383
0.135492
0.135599
0.135704
0.135806
0.135906
0.139675
0.13903
0.138381
0.137722
0.13705
0.136361
0.135656
0.134935
0.134198
0.133447
0.132684
0.131911
0.131131
0.130347
0.129563
0.128781
0.128004
0.127237
0.126482
0.125742
0.125021
0.124322
0.123648
0.123001
0.122384
0.1218
0.121251
0.120738
0.120265
0.119833
0.119443
0.119096
0.118792
0.118533
0.118319
0.118148
0.118022
0.117939
0.117897
0.117896
0.117934
0.11801
0.11812
0.118264
0.118438
0.118641
0.11887
0.119123
0.119397
0.11969
0.12
0.120323
0.120659
0.121005
0.121359
0.121719
0.122084
0.122452
0.122821
0.123191
0.123559
0.123926
0.124289
0.124649
0.125005
0.125355
0.1257
0.126039
0.126372
0.126699
0.127018
0.127331
0.127637
0.127936
0.128228
0.128513
0.128791
0.129062
0.129326
0.129584
0.129835
0.130081
0.130319
0.130552
0.130779
0.131001
0.131217
0.131427
0.131632
0.131832
0.132026
0.132216
0.132402
0.132582
0.132758
0.13293
0.133098
0.133262
0.133421
0.133577
0.133729
0.133877
0.134022
0.134163
0.134301
0.134436
0.134567
0.134695
0.134821
0.134943
0.135062
0.135178
0.135291
0.135402
0.135509
0.135614
0.135716
0.135816
0.135912
0.136006
0.139691
0.139064
0.138426
0.137775
0.137107
0.136422
0.135718
0.134996
0.134258
0.133505
0.132739
0.131963
0.13118
0.130392
0.129604
0.128818
0.128037
0.127266
0.126508
0.125765
0.125041
0.124339
0.123662
0.123012
0.122393
0.121807
0.121256
0.120742
0.120267
0.119834
0.119442
0.119094
0.11879
0.118531
0.118317
0.118147
0.118021
0.117939
0.117899
0.1179
0.117941
0.118019
0.118133
0.118281
0.11846
0.118667
0.118902
0.11916
0.11944
0.119739
0.120056
0.120386
0.12073
0.121083
0.121445
0.121813
0.122185
0.122561
0.122937
0.123315
0.123691
0.124064
0.124435
0.124802
0.125164
0.125521
0.125872
0.126217
0.126555
0.126887
0.127212
0.127529
0.127839
0.128142
0.128437
0.128725
0.129005
0.129278
0.129544
0.129804
0.130056
0.130302
0.130541
0.130774
0.131001
0.131222
0.131437
0.131647
0.131851
0.132049
0.132243
0.132431
0.132615
0.132794
0.132968
0.133138
0.133303
0.133464
0.133621
0.133774
0.133924
0.134069
0.134211
0.134349
0.134483
0.134615
0.134743
0.134867
0.134988
0.135106
0.135221
0.135333
0.135442
0.135548
0.135651
0.135751
0.135848
0.135942
0.136033
0.136122
0.13971
0.139106
0.138484
0.137842
0.137179
0.136496
0.135794
0.135071
0.134332
0.133576
0.132807
0.132027
0.131239
0.130447
0.129654
0.128863
0.128078
0.127303
0.12654
0.125793
0.125065
0.124359
0.123679
0.123026
0.122404
0.121816
0.121262
0.120747
0.12027
0.119835
0.119443
0.119094
0.118789
0.11853
0.118315
0.118146
0.118022
0.117941
0.117903
0.117907
0.11795
0.118032
0.11815
0.118302
0.118487
0.1187
0.118941
0.119206
0.119494
0.119801
0.120126
0.120465
0.120817
0.12118
0.121551
0.121929
0.122311
0.122696
0.123083
0.12347
0.123855
0.124238
0.124618
0.124993
0.125363
0.125727
0.126084
0.126434
0.126777
0.127112
0.12744
0.12776
0.128072
0.128376
0.128673
0.128962
0.129243
0.129517
0.129784
0.130043
0.130295
0.130541
0.13078
0.131012
0.131238
0.131458
0.131672
0.13188
0.132082
0.132279
0.132471
0.132657
0.132838
0.133015
0.133187
0.133354
0.133516
0.133675
0.133829
0.133979
0.134125
0.134267
0.134405
0.13454
0.134671
0.134798
0.134922
0.135042
0.135159
0.135273
0.135384
0.135492
0.135596
0.135697
0.135796
0.135891
0.135983
0.136073
0.136159
0.136243
0.139728
0.139149
0.138545
0.137916
0.137263
0.136585
0.135884
0.135161
0.134419
0.13366
0.132887
0.132103
0.13131
0.130512
0.129713
0.128917
0.128127
0.127346
0.126578
0.125826
0.125094
0.124384
0.1237
0.123044
0.122419
0.121827
0.121271
0.120753
0.120275
0.119838
0.119444
0.119094
0.118789
0.118529
0.118315
0.118146
0.118023
0.117944
0.117908
0.117915
0.117962
0.118048
0.118171
0.118329
0.118519
0.11874
0.118988
0.119261
0.119558
0.119875
0.120209
0.120559
0.120922
0.121296
0.121679
0.122068
0.122463
0.12286
0.123258
0.123655
0.12405
0.124442
0.124828
0.12521
0.125584
0.125952
0.126313
0.126667
0.127012
0.12735
0.12768
0.128001
0.128315
0.12862
0.128918
0.129207
0.129489
0.129763
0.13003
0.130289
0.130541
0.130786
0.131024
0.131255
0.13148
0.131698
0.131911
0.132117
0.132317
0.132512
0.132702
0.132886
0.133064
0.133238
0.133407
0.133571
0.133731
0.133886
0.134037
0.134184
0.134326
0.134464
0.134599
0.13473
0.134857
0.13498
0.1351
0.135216
0.135329
0.135439
0.135545
0.135649
0.135749
0.135846
0.13594
0.13603
0.136118
0.136203
0.136286
0.136365
0.139743
0.13919
0.138606
0.137992
0.137349
0.13668
0.135984
0.135263
0.13452
0.133758
0.13298
0.13219
0.131391
0.130587
0.129781
0.128978
0.128182
0.127395
0.126621
0.125864
0.125127
0.124412
0.123724
0.123064
0.122435
0.12184
0.121281
0.120761
0.12028
0.119841
0.119446
0.119095
0.118789
0.118529
0.118315
0.118147
0.118025
0.117948
0.117915
0.117925
0.117976
0.118067
0.118195
0.118359
0.118557
0.118785
0.119042
0.119325
0.119632
0.11996
0.120306
0.120668
0.121044
0.121431
0.121828
0.122231
0.122637
0.123045
0.123453
0.123858
0.12426
0.124658
0.125049
0.125435
0.125813
0.126185
0.126549
0.126905
0.127253
0.127592
0.127924
0.128247
0.128561
0.128868
0.129166
0.129456
0.129738
0.130012
0.130278
0.130537
0.130788
0.131032
0.131269
0.131499
0.131722
0.131939
0.132149
0.132354
0.132552
0.132745
0.132932
0.133113
0.133289
0.13346
0.133626
0.133787
0.133944
0.134095
0.134243
0.134386
0.134524
0.134659
0.13479
0.134917
0.13504
0.135159
0.135275
0.135387
0.135496
0.135601
0.135704
0.135802
0.135898
0.135991
0.13608
0.136167
0.136251
0.136332
0.13641
0.136485
0.139757
0.139228
0.138663
0.138065
0.137436
0.136776
0.136087
0.135371
0.13463
0.133866
0.133084
0.132288
0.131482
0.13067
0.129857
0.129047
0.128243
0.127449
0.126669
0.125906
0.125163
0.124444
0.123751
0.123087
0.122454
0.121856
0.121294
0.12077
0.120287
0.119846
0.119449
0.119097
0.11879
0.11853
0.118316
0.118149
0.118028
0.117953
0.117923
0.117937
0.117992
0.118088
0.118223
0.118394
0.118599
0.118837
0.119104
0.119397
0.119716
0.120056
0.120416
0.120792
0.121182
0.121584
0.121994
0.122408
0.122824
0.123241
0.123656
0.124067
0.124474
0.124876
0.125272
0.125662
0.126044
0.126418
0.126785
0.127143
0.127493
0.127834
0.128167
0.128492
0.128807
0.129114
0.129413
0.129703
0.129985
0.130259
0.130525
0.130783
0.131033
0.131276
0.131512
0.131741
0.131963
0.132178
0.132386
0.132588
0.132784
0.132975
0.133159
0.133338
0.133511
0.133679
0.133842
0.133999
0.134152
0.134301
0.134445
0.134584
0.134719
0.13485
0.134977
0.1351
0.135219
0.135334
0.135445
0.135553
0.135658
0.135759
0.135857
0.135952
0.136043
0.136132
0.136217
0.136299
0.136379
0.136455
0.136529
0.1366
0.13977
0.139264
0.138717
0.138135
0.137519
0.13687
0.13619
0.13548
0.134743
0.13398
0.133196
0.132395
0.131582
0.130763
0.129941
0.129122
0.12831
0.127509
0.126722
0.125952
0.125203
0.124479
0.12378
0.123112
0.122475
0.121873
0.121308
0.120781
0.120295
0.119852
0.119453
0.119099
0.118792
0.118531
0.118318
0.118151
0.118032
0.11796
0.117933
0.11795
0.11801
0.118112
0.118253
0.118432
0.118646
0.118894
0.119171
0.119477
0.119808
0.120163
0.120537
0.120929
0.121333
0.121748
0.122168
0.122591
0.123015
0.123438
0.123859
0.124276
0.124688
0.125094
0.125494
0.125887
0.126272
0.126649
0.127019
0.127379
0.127731
0.128074
0.128408
0.128734
0.129051
0.129358
0.129657
0.129948
0.13023
0.130503
0.130769
0.131026
0.131276
0.131518
0.131752
0.13198
0.1322
0.132413
0.132619
0.132819
0.133013
0.133201
0.133382
0.133558
0.133728
0.133893
0.134053
0.134207
0.134357
0.134502
0.134642
0.134777
0.134909
0.135036
0.135158
0.135277
0.135392
0.135503
0.135611
0.135715
0.135815
0.135912
0.136006
0.136096
0.136183
0.136267
0.136348
0.136426
0.136501
0.136574
0.136643
0.13671
0.139782
0.139296
0.138768
0.138202
0.137599
0.136961
0.13629
0.135587
0.134855
0.134096
0.133312
0.132509
0.13169
0.130862
0.130032
0.129204
0.128383
0.127573
0.126778
0.126001
0.125246
0.124516
0.123813
0.123139
0.122498
0.121892
0.121323
0.120793
0.120305
0.119859
0.119458
0.119103
0.118795
0.118533
0.11832
0.118155
0.118037
0.117967
0.117943
0.117965
0.11803
0.118138
0.118287
0.118474
0.118697
0.118955
0.119245
0.119564
0.119909
0.120278
0.120668
0.121073
0.12149
0.121914
0.122343
0.122774
0.123205
0.123634
0.12406
0.124481
0.124898
0.125308
0.125712
0.126108
0.126497
0.126877
0.127248
0.127611
0.127965
0.12831
0.128646
0.128973
0.12929
0.129599
0.129898
0.130189
0.130471
0.130744
0.131009
0.131266
0.131515
0.131756
0.131989
0.132214
0.132433
0.132644
0.132848
0.133046
0.133237
0.133422
0.133601
0.133774
0.133941
0.134103
0.134259
0.134411
0.134557
0.134698
0.134834
0.134966
0.135093
0.135216
0.135335
0.13545
0.135561
0.135668
0.135771
0.13587
0.135967
0.136059
0.136148
0.136234
0.136317
0.136397
0.136474
0.136548
0.136618
0.136686
0.136752
0.136814
0.139792
0.139327
0.138816
0.138264
0.137674
0.137047
0.136386
0.135691
0.134964
0.134209
0.133428
0.132624
0.131802
0.130968
0.130128
0.12929
0.128459
0.127641
0.126838
0.126054
0.125292
0.124555
0.123847
0.123168
0.122523
0.121913
0.12134
0.120807
0.120316
0.119868
0.119465
0.119108
0.118798
0.118537
0.118323
0.118159
0.118043
0.117975
0.117955
0.117981
0.118051
0.118166
0.118322
0.118518
0.118752
0.119021
0.119323
0.119656
0.120016
0.1204
0.120804
0.121221
0.121647
0.12208
0.122516
0.122953
0.12339
0.123824
0.124256
0.124682
0.125103
0.125517
0.125925
0.126325
0.126716
0.127099
0.127473
0.127839
0.128195
0.128541
0.128879
0.129207
0.129525
0.129835
0.130135
0.130426
0.130708
0.130981
0.131245
0.131501
0.131749
0.131989
0.132221
0.132445
0.132661
0.132871
0.133073
0.133268
0.133457
0.13364
0.133816
0.133986
0.13415
0.134308
0.134461
0.134609
0.134751
0.134889
0.135021
0.135149
0.135273
0.135392
0.135507
0.135617
0.135724
0.135827
0.135926
0.136021
0.136113
0.136201
0.136286
0.136368
0.136446
0.136521
0.136594
0.136663
0.13673
0.136793
0.136854
0.136912
0.139802
0.139355
0.138861
0.138323
0.137746
0.13713
0.136477
0.13579
0.13507
0.134319
0.13354
0.132737
0.131914
0.131075
0.130228
0.129381
0.12854
0.127712
0.1269
0.126108
0.12534
0.124597
0.123883
0.123199
0.122549
0.121935
0.121358
0.120822
0.120328
0.119877
0.119472
0.119113
0.118802
0.11854
0.118327
0.118164
0.118049
0.117984
0.117967
0.117997
0.118074
0.118195
0.118359
0.118564
0.118808
0.119089
0.119405
0.119752
0.120127
0.120525
0.120939
0.121366
0.121801
0.122241
0.122684
0.123127
0.12357
0.12401
0.124446
0.124877
0.125302
0.125721
0.126132
0.126535
0.12693
0.127316
0.127693
0.128061
0.128419
0.128767
0.129106
0.129436
0.129755
0.130065
0.130366
0.130657
0.130939
0.131213
0.131477
0.131732
0.131979
0.132218
0.132448
0.132671
0.132885
0.133093
0.133293
0.133486
0.133672
0.133852
0.134025
0.134193
0.134354
0.134509
0.134658
0.134803
0.134941
0.135075
0.135204
0.135328
0.135448
0.135563
0.135673
0.13578
0.135882
0.135981
0.136075
0.136166
0.136254
0.136338
0.136418
0.136495
0.136569
0.13664
0.136708
0.136773
0.136835
0.136894
0.136951
0.137005
0.139811
0.139381
0.138902
0.138379
0.137813
0.137207
0.136564
0.135884
0.13517
0.134424
0.133649
0.132847
0.132023
0.131182
0.130329
0.129474
0.128623
0.127785
0.126964
0.126165
0.125389
0.12464
0.12392
0.123231
0.122576
0.121958
0.121378
0.120838
0.12034
0.119887
0.11948
0.119119
0.118807
0.118545
0.118332
0.118169
0.118056
0.117993
0.117979
0.118014
0.118096
0.118224
0.118396
0.118611
0.118866
0.119159
0.119489
0.11985
0.120239
0.120648
0.121072
0.121507
0.12195
0.122396
0.122846
0.123295
0.123743
0.124188
0.124629
0.125065
0.125495
0.125917
0.126333
0.126739
0.127138
0.127527
0.127906
0.128277
0.128637
0.128988
0.129328
0.129659
0.12998
0.130291
0.130592
0.130884
0.131166
0.131439
0.131703
0.131958
0.132204
0.132442
0.132671
0.132892
0.133105
0.133311
0.133509
0.133699
0.133883
0.13406
0.134231
0.134395
0.134553
0.134705
0.134851
0.134992
0.135127
0.135257
0.135382
0.135502
0.135618
0.135729
0.135835
0.135938
0.136036
0.13613
0.13622
0.136307
0.13639
0.136469
0.136546
0.136618
0.136688
0.136754
0.136818
0.136878
0.136936
0.13699
0.137042
0.137092
0.13982
0.139405
0.138941
0.13843
0.137876
0.13728
0.136645
0.135973
0.135265
0.134524
0.133753
0.132953
0.132129
0.131286
0.130429
0.129567
0.128707
0.127859
0.127029
0.126222
0.125439
0.124683
0.123958
0.123264
0.122605
0.121982
0.121398
0.120855
0.120354
0.119898
0.119489
0.119126
0.118813
0.11855
0.118337
0.118174
0.118063
0.118003
0.117992
0.118031
0.118119
0.118254
0.118434
0.118658
0.118925
0.11923
0.119573
0.119948
0.120348
0.120767
0.1212
0.121643
0.122092
0.122545
0.123001
0.123456
0.12391
0.12436
0.124806
0.125246
0.125681
0.126107
0.126526
0.126937
0.127339
0.127731
0.128114
0.128486
0.128849
0.129202
0.129545
0.129877
0.130199
0.130511
0.130813
0.131106
0.131388
0.131661
0.131925
0.132179
0.132424
0.132661
0.132889
0.133108
0.13332
0.133524
0.13372
0.133908
0.13409
0.134264
0.134432
0.134593
0.134748
0.134897
0.13504
0.135177
0.135309
0.135435
0.135556
0.135672
0.135784
0.135891
0.135993
0.136091
0.136185
0.136275
0.136361
0.136443
0.136522
0.136597
0.136669
0.136737
0.136802
0.136864
0.136923
0.136978
0.137031
0.137082
0.137129
0.137174
0.139827
0.139428
0.138977
0.138478
0.137935
0.137349
0.136722
0.136057
0.135355
0.134619
0.133851
0.133053
0.13223
0.131386
0.130526
0.129658
0.12879
0.127933
0.127095
0.126279
0.125489
0.124728
0.123997
0.123298
0.122634
0.122007
0.121419
0.120873
0.120369
0.11991
0.119498
0.119134
0.118819
0.118555
0.118342
0.11818
0.11807
0.118012
0.118005
0.118048
0.118141
0.118283
0.118472
0.118705
0.118983
0.119301
0.119657
0.120043
0.120453
0.120881
0.121321
0.121771
0.122227
0.122687
0.123148
0.123609
0.124068
0.124524
0.124975
0.12542
0.125859
0.12629
0.126713
0.127128
0.127533
0.127929
0.128314
0.12869
0.129055
0.12941
0.129755
0.130089
0.130413
0.130726
0.131029
0.131322
0.131605
0.131878
0.132141
0.132395
0.13264
0.132876
0.133103
0.133321
0.133531
0.133733
0.133927
0.134113
0.134292
0.134464
0.134629
0.134788
0.134939
0.135085
0.135225
0.135358
0.135486
0.135609
0.135727
0.135839
0.135947
0.136049
0.136148
0.136242
0.136331
0.136417
0.136498
0.136576
0.13665
0.136721
0.136788
0.136852
0.136912
0.136969
0.137024
0.137075
0.137123
0.137169
0.137212
0.137252
0.139835
0.139448
0.13901
0.138523
0.137989
0.137412
0.136793
0.136135
0.135439
0.134707
0.133942
0.133147
0.132325
0.131481
0.130618
0.129746
0.128872
0.128006
0.127159
0.126336
0.125539
0.124772
0.124035
0.123332
0.122664
0.122033
0.121441
0.120891
0.120385
0.119923
0.119508
0.119142
0.118826
0.118561
0.118347
0.118186
0.118077
0.118021
0.118017
0.118065
0.118163
0.118311
0.118508
0.118751
0.119039
0.11937
0.119737
0.120134
0.120552
0.120988
0.121436
0.121893
0.122355
0.122821
0.123288
0.123755
0.12422
0.12468
0.125137
0.125587
0.12603
0.126466
0.126893
0.127311
0.12772
0.12812
0.128509
0.128887
0.129255
0.129613
0.129959
0.130295
0.130621
0.130935
0.13124
0.131533
0.131817
0.13209
0.132353
0.132607
0.132851
0.133086
0.133312
0.133529
0.133738
0.133938
0.13413
0.134314
0.134491
0.134661
0.134823
0.134979
0.135127
0.13527
0.135406
0.135537
0.135661
0.13578
0.135894
0.136002
0.136106
0.136205
0.136299
0.136389
0.136474
0.136555
0.136633
0.136706
0.136776
0.136842
0.136904
0.136963
0.137019
0.137072
0.137121
0.137168
0.137212
0.137253
0.137291
0.137326
0.139841
0.139468
0.139041
0.138564
0.13804
0.137471
0.13686
0.136208
0.135517
0.134789
0.134028
0.133235
0.132414
0.131569
0.130705
0.129829
0.12895
0.128077
0.127222
0.126391
0.125589
0.124816
0.124074
0.123366
0.122694
0.122059
0.121464
0.120911
0.120401
0.119936
0.119519
0.119151
0.118833
0.118567
0.118353
0.118192
0.118084
0.118029
0.118028
0.11808
0.118184
0.118338
0.118542
0.118795
0.119094
0.119435
0.119813
0.120218
0.120645
0.121088
0.121543
0.122006
0.122475
0.122947
0.12342
0.123893
0.124363
0.124829
0.12529
0.125745
0.126194
0.126634
0.127066
0.127488
0.127901
0.128304
0.128696
0.129078
0.129449
0.129809
0.130158
0.130496
0.130823
0.131139
0.131445
0.131739
0.132024
0.132297
0.132561
0.132814
0.133058
0.133293
0.133518
0.133734
0.133941
0.13414
0.13433
0.134512
0.134687
0.134854
0.135014
0.135167
0.135313
0.135452
0.135585
0.135712
0.135833
0.135949
0.136059
0.136163
0.136263
0.136358
0.136448
0.136533
0.136614
0.136691
0.136764
0.136833
0.136898
0.13696
0.137018
0.137072
0.137123
0.137172
0.137217
0.137258
0.137298
0.137334
0.137367
0.137398
0.139847
0.139485
0.139069
0.138602
0.138087
0.137526
0.136921
0.136275
0.135589
0.134866
0.134107
0.133317
0.132497
0.131652
0.130786
0.129907
0.129023
0.128144
0.127282
0.126445
0.125637
0.124859
0.124113
0.123401
0.122725
0.122086
0.121488
0.120931
0.120418
0.119951
0.119531
0.119161
0.118841
0.118573
0.118358
0.118197
0.11809
0.118037
0.118039
0.118094
0.118202
0.118363
0.118574
0.118836
0.119144
0.119496
0.119883
0.120297
0.120731
0.121181
0.121642
0.122112
0.122587
0.123065
0.123544
0.124022
0.124498
0.124969
0.125436
0.125896
0.126349
0.126794
0.127231
0.127657
0.128074
0.128481
0.128877
0.129262
0.129636
0.129999
0.130351
0.130691
0.13102
0.131338
0.131645
0.131941
0.132226
0.1325
0.132764
0.133018
0.133261
0.133495
0.13372
0.133935
0.134141
0.134338
0.134527
0.134707
0.13488
0.135045
0.135202
0.135352
0.135495
0.135632
0.135762
0.135885
0.136003
0.136115
0.136221
0.136322
0.136418
0.136509
0.136595
0.136676
0.136753
0.136825
0.136894
0.136958
0.137019
0.137076
0.137129
0.137179
0.137226
0.137269
0.137309
0.137347
0.137381
0.137412
0.137441
0.137467
0.139853
0.139502
0.139095
0.138637
0.13813
0.137576
0.136977
0.136336
0.135655
0.134935
0.13418
0.133391
0.132572
0.131727
0.130861
0.129979
0.129091
0.128207
0.127339
0.126497
0.125683
0.124901
0.124151
0.123435
0.122755
0.122113
0.121511
0.120952
0.120436
0.119966
0.119543
0.119171
0.118849
0.11858
0.118364
0.118203
0.118096
0.118044
0.118048
0.118106
0.118219
0.118385
0.118604
0.118873
0.119191
0.119552
0.119946
0.120368
0.120809
0.121265
0.121733
0.122209
0.12269
0.123174
0.123659
0.124143
0.124624
0.125102
0.125574
0.126039
0.126497
0.126947
0.127388
0.12782
0.128241
0.128652
0.129051
0.12944
0.129817
0.130183
0.130538
0.130881
0.131212
0.131532
0.13184
0.132137
0.132423
0.132699
0.132963
0.133217
0.133461
0.133694
0.133918
0.134132
0.134337
0.134533
0.134721
0.134899
0.13507
0.135233
0.135388
0.135535
0.135676
0.135809
0.135936
0.136057
0.136171
0.13628
0.136382
0.13648
0.136571
0.136658
0.13674
0.136817
0.13689
0.136958
0.137022
0.137082
0.137138
0.137191
0.137239
0.137285
0.137327
0.137365
0.137401
0.137433
0.137463
0.137489
0.137513
0.137534
0.139858
0.139517
0.139119
0.138669
0.138169
0.137621
0.137028
0.136392
0.135715
0.134999
0.134246
0.133459
0.132641
0.131796
0.130928
0.130045
0.129153
0.128265
0.127393
0.126545
0.125728
0.124941
0.124188
0.123469
0.122786
0.122141
0.121536
0.120973
0.120454
0.119981
0.119557
0.119182
0.118858
0.118587
0.11837
0.118208
0.118101
0.118051
0.118056
0.118117
0.118234
0.118405
0.118629
0.118906
0.119232
0.119601
0.120003
0.120431
0.120879
0.121342
0.121816
0.122298
0.122785
0.123275
0.123766
0.124256
0.124743
0.125226
0.125704
0.126174
0.126638
0.127093
0.127539
0.127975
0.1284
0.128815
0.129219
0.129612
0.129992
0.130362
0.130719
0.131064
0.131398
0.13172
0.13203
0.132329
0.132617
0.132893
0.133158
0.133412
0.133656
0.13389
0.134113
0.134327
0.134531
0.134726
0.134912
0.135089
0.135258
0.135419
0.135572
0.135717
0.135855
0.135986
0.13611
0.136227
0.136338
0.136443
0.136542
0.136636
0.136724
0.136807
0.136885
0.136958
0.137026
0.13709
0.13715
0.137205
0.137257
0.137305
0.137349
0.137389
0.137426
0.13746
0.137491
0.137518
0.137543
0.137565
0.137584
0.1376
0.139863
0.13953
0.139141
0.138698
0.138204
0.137663
0.137075
0.136443
0.13577
0.135056
0.134306
0.13352
0.132703
0.131857
0.130989
0.130103
0.129209
0.128318
0.127442
0.126591
0.12577
0.124981
0.124224
0.123502
0.122817
0.122169
0.121561
0.120995
0.120474
0.119998
0.119571
0.119193
0.118867
0.118594
0.118376
0.118213
0.118106
0.118056
0.118063
0.118126
0.118246
0.118421
0.118651
0.118935
0.119268
0.119644
0.120053
0.120488
0.120942
0.121411
0.121891
0.122379
0.122872
0.123368
0.123865
0.12436
0.124853
0.125342
0.125825
0.126302
0.12677
0.127231
0.127682
0.128122
0.128553
0.128972
0.12938
0.129777
0.130161
0.130534
0.130894
0.131243
0.131579
0.131904
0.132216
0.132517
0.132806
0.133083
0.133349
0.133604
0.133849
0.134082
0.134306
0.134519
0.134722
0.134917
0.135101
0.135277
0.135445
0.135603
0.135754
0.135897
0.136033
0.136161
0.136282
0.136396
0.136504
0.136606
0.136702
0.136792
0.136876
0.136955
0.137029
0.137098
0.137162
0.137221
0.137277
0.137328
0.137375
0.137418
0.137457
0.137493
0.137526
0.137554
0.13758
0.137603
0.137623
0.137639
0.137653
0.137664
0.139867
0.139542
0.13916
0.138724
0.138236
0.1377
0.137116
0.136488
0.135818
0.135107
0.134359
0.133574
0.132757
0.131912
0.131042
0.130155
0.129259
0.128365
0.127486
0.126633
0.12581
0.125019
0.12426
0.123536
0.122848
0.122197
0.121587
0.121018
0.120494
0.120016
0.119586
0.119205
0.118877
0.118602
0.118382
0.118218
0.11811
0.11806
0.118068
0.118133
0.118255
0.118434
0.118669
0.118958
0.119298
0.11968
0.120095
0.120536
0.120996
0.121471
0.121957
0.122451
0.12295
0.123452
0.123955
0.124456
0.124955
0.12545
0.125939
0.126421
0.126895
0.127361
0.127817
0.128263
0.128698
0.129122
0.129535
0.129935
0.130324
0.1307
0.131064
0.131416
0.131755
0.132082
0.132397
0.1327
0.13299
0.133269
0.133537
0.133793
0.134038
0.134272
0.134495
0.134708
0.134912
0.135105
0.135289
0.135464
0.135629
0.135787
0.135935
0.136076
0.136209
0.136335
0.136454
0.136565
0.13667
0.136768
0.136861
0.136947
0.137028
0.137103
0.137173
0.137238
0.137298
0.137353
0.137404
0.13745
0.137493
0.137531
0.137566
0.137597
0.137625
0.137649
0.137669
0.137687
0.137702
0.137713
0.137722
0.137728
0.139871
0.139553
0.139177
0.138747
0.138264
0.137732
0.137153
0.136529
0.135861
0.135152
0.134405
0.133622
0.132805
0.131959
0.131089
0.1302
0.129302
0.128407
0.127526
0.126672
0.125848
0.125055
0.124295
0.123569
0.122879
0.122226
0.121614
0.121042
0.120515
0.120034
0.119601
0.119219
0.118888
0.118611
0.118389
0.118223
0.118114
0.118063
0.118071
0.118137
0.118261
0.118443
0.118682
0.118976
0.119321
0.119709
0.12013
0.120576
0.121042
0.121523
0.122014
0.122514
0.123019
0.123528
0.124036
0.124544
0.125049
0.125549
0.126044
0.126532
0.127012
0.127483
0.127945
0.128396
0.128837
0.129266
0.129683
0.130088
0.130481
0.130861
0.131229
0.131584
0.131926
0.132256
0.132574
0.132879
0.133171
0.133452
0.133721
0.133978
0.134224
0.134459
0.134682
0.134896
0.135099
0.135291
0.135475
0.135648
0.135813
0.135969
0.136116
0.136255
0.136386
0.136509
0.136625
0.136734
0.136836
0.136931
0.13702
0.137103
0.13718
0.137251
0.137317
0.137378
0.137434
0.137485
0.137531
0.137574
0.137611
0.137645
0.137675
0.137701
0.137724
0.137743
0.137759
0.137771
0.137781
0.137787
0.137791
0.137792
0.139874
0.139563
0.139193
0.138767
0.138289
0.137761
0.137185
0.136563
0.135898
0.135191
0.134445
0.133662
0.132846
0.131999
0.131128
0.130238
0.129339
0.128443
0.127562
0.126708
0.125884
0.12509
0.124329
0.123602
0.12291
0.122256
0.121641
0.121068
0.120538
0.120054
0.119619
0.119233
0.118899
0.11862
0.118395
0.118227
0.118117
0.118066
0.118073
0.118139
0.118265
0.118449
0.118691
0.118989
0.119339
0.119732
0.120158
0.120609
0.12108
0.121566
0.122064
0.122569
0.123081
0.123595
0.124109
0.124623
0.125134
0.125641
0.126142
0.126636
0.127122
0.127598
0.128066
0.128522
0.128968
0.129402
0.129824
0.130234
0.130631
0.131016
0.131388
0.131746
0.132092
0.132425
0.132746
0.133053
0.133348
0.133631
0.133902
0.13416
0.134407
0.134643
0.134867
0.135081
0.135284
0.135476
0.135659
0.135832
0.135995
0.13615
0.136296
0.136433
0.136562
0.136683
0.136796
0.136902
0.137002
0.137094
0.13718
0.137259
0.137333
0.1374
0.137462
0.137519
0.137571
0.137618
0.13766
0.137698
0.137731
0.13776
0.137785
0.137806
0.137824
0.137838
0.137849
0.137856
0.137861
0.137862
0.13786
0.137855
0.139877
0.139571
0.139206
0.138785
0.138311
0.137786
0.137213
0.136593
0.135929
0.135224
0.134479
0.133696
0.13288
0.132033
0.131161
0.13027
0.12937
0.128474
0.127595
0.126741
0.125918
0.125125
0.124363
0.123636
0.122943
0.122287
0.12167
0.121094
0.120562
0.120076
0.119637
0.119249
0.118912
0.11863
0.118402
0.118232
0.11812
0.118067
0.118073
0.118139
0.118265
0.118451
0.118694
0.118996
0.119349
0.119747
0.120177
0.120634
0.12111
0.121602
0.122105
0.122616
0.123133
0.123653
0.124174
0.124694
0.125211
0.125724
0.126231
0.126731
0.127223
0.127706
0.128179
0.128641
0.129092
0.129532
0.129959
0.130374
0.130776
0.131165
0.131541
0.131904
0.132253
0.13259
0.132913
0.133224
0.133521
0.133806
0.134079
0.134339
0.134588
0.134825
0.13505
0.135264
0.135467
0.13566
0.135842
0.136015
0.136177
0.136331
0.136475
0.136611
0.136738
0.136857
0.136968
0.137072
0.137168
0.137257
0.13734
0.137416
0.137486
0.13755
0.137609
0.137662
0.137709
0.137752
0.13779
0.137823
0.137851
0.137876
0.137896
0.137912
0.137925
0.137934
0.13794
0.137942
0.137941
0.137937
0.137929
0.137919
0.13988
0.139578
0.139217
0.1388
0.138329
0.137806
0.137235
0.136618
0.135955
0.135251
0.134506
0.133723
0.132907
0.132059
0.131186
0.130295
0.129395
0.1285
0.127623
0.126772
0.12595
0.125158
0.124398
0.123669
0.122976
0.122319
0.1217
0.121123
0.120588
0.120099
0.119657
0.119266
0.118926
0.11864
0.11841
0.118237
0.118123
0.118068
0.118072
0.118138
0.118263
0.118449
0.118694
0.118997
0.119354
0.119755
0.120189
0.120651
0.121132
0.121629
0.122137
0.122654
0.123177
0.123703
0.12423
0.124756
0.12528
0.125799
0.126312
0.126818
0.127316
0.127805
0.128284
0.128753
0.12921
0.129655
0.130087
0.130507
0.130914
0.131308
0.131689
0.132056
0.132409
0.13275
0.133076
0.13339
0.133691
0.133978
0.134253
0.134516
0.134766
0.135004
0.13523
0.135445
0.135649
0.135842
0.136024
0.136196
0.136358
0.136511
0.136654
0.136788
0.136914
0.137031
0.13714
0.137241
0.137335
0.137422
0.137501
0.137574
0.137641
0.137702
0.137756
0.137805
0.137849
0.137887
0.137921
0.137949
0.137973
0.137993
0.138008
0.13802
0.138027
0.138031
0.138031
0.138028
0.138022
0.138012
0.138
0.137984
0.139882
0.139584
0.139227
0.138812
0.138343
0.137823
0.137254
0.136637
0.135976
0.135272
0.134527
0.133744
0.132927
0.132079
0.131205
0.130314
0.129415
0.128523
0.127649
0.126802
0.125982
0.125192
0.124432
0.123704
0.12301
0.122352
0.121732
0.121153
0.120616
0.120124
0.119679
0.119285
0.118942
0.118653
0.118419
0.118243
0.118126
0.118068
0.11807
0.118134
0.118258
0.118443
0.118689
0.118993
0.119352
0.119756
0.120194
0.12066
0.121146
0.121647
0.122161
0.122684
0.123213