/*--------------------------------*- C++ -*----------------------------------*\
  =========                 |
  \\      /  F ield         | OpenFOAM: The Open Source CFD Toolbox
   \\    /   O peration     | Website:  https://openfoam.org
    \\  /    A nd           | Version:  10
     \\/     M anipulation  |
\*---------------------------------------------------------------------------*/
FoamFile
{
    format      ascii;
    class       volScalarField;
    location    "0.0001";
    object      p;
}
// * * * * * * * * * * * * * * * * * * * * * * * * * * * * * * * * * * * * * //

dimensions      [1 -1 -2 0 0 0 0];

internalField   nonuniform List<scalar> 
13320
(
102640
102600
102538
102491
102492
102501
102487
102414
102269
102078
101867
101656
101454
101264
101084
100913
100749
100592
100440
100293
100151
100015
99885.7
99764.5
99653.4
99557.4
99479.4
99415.6
99360.9
99312.6
99269.5
99230.6
99195.6
99163.9
99134.9
99108.8
99084.9
99063.3
99043.7
99026.8
99015.1
99015
99040.4
99100.8
99196.3
99274.9
99333.8
99348.2
99392.6
99399.9
102645
102623
102579
102511
102502
102508
102504
102448
102315
102128
101916
101701
101494
101298
101113
100939
100772
100612
100457
100308
100164
100025
99894
99772.2
99660.7
99563.8
99484
99418.4
99362.1
99312.5
99268.2
99228.3
99192
99159.1
99129
99101.8
99076.9
99054.3
99033.9
99016.1
99003.1
99000.8
99022.3
99076.8
99169
99250.8
99317.8
99336.5
99383.4
99390.3
102654
102629
102582
102518
102499
102506
102501
102450
102320
102135
101922
101705
101496
101299
101114
100939
100772
100613
100458
100309
100166
100027
99896
99774
99661.9
99564.1
99483.7
99417.7
99361.1
99311.2
99266.5
99226.2
99189.5
99156.3
99126.1
99098.7
99073.7
99051.1
99030.6
99012.7
98999.4
98996.3
99016.6
99068.8
99160.2
99243.5
99312.1
99332.7
99379.1
99390.9
102631
102616
102581
102526
102517
102529
102543
102501
102382
102200
101985
101762
101546
101342
101151
100971
100800
100636
100478
100326
100179
100038
99904.1
99780
99666.7
99568.2
99487.7
99421.7
99365.3
99315.7
99271.4
99231.4
99195.2
99162.4
99132.7
99105.7
99081.1
99058.7
99038.6
99020.8
99007.2
99003
99021.1
99071.8
99158.8
99240.2
99310.6
99333.2
99374.3
99388.4
102628
102618
102599
102556
102545
102549
102549
102501
102388
102206
101991
101767
101549
101344
101152
100972
100802
100638
100480
100328
100181
100041
99908.3
99784
99670.2
99570.9
99489.6
99423
99366.2
99316.1
99271.4
99231
99194.4
99161
99130.7
99103
99077.8
99054.7
99033.8
99015.2
99000.4
98993.9
99007
99049.5
99134.3
99218.1
99293.5
99321
99358.6
99373.7
102611
102611
102609
102590
102595
102612
102626
102584
102469
102284
102058
101822
101595
101384
101187
101000
100824
100658
100498
100343
100194
100052
99916.2
99789.2
99673.2
99572.3
99490.1
99422.9
99365.8
99315.6
99270.8
99230.5
99194
99161
99131
99103.8
99079.1
99056.6
99036.2
99018.1
99003.2
98995.4
99004.3
99039.1
99119.8
99207.2
99289.6
99322.7
99354.3
99369.1
102535
102542
102551
102543
102567
102608
102653
102636
102534
102355
102131
101891
101657
101436
101230
101038
100857
100685
100520
100361
100209
100062
99922.1
99793.8
99677.9
99577.3
99496.1
99430.4
99375.1
99327
99284.4
99246.3
99212
99181
99152.9
99127.5
99104.4
99083.4
99064.5
99047.4
99033.2
99024.6
99029.9
99060.7
99131
99218.5
99307.3
99350.8
99378.3
99390.9
102562
102565
102565
102530
102534
102560
102598
102588
102508
102345
102132
101899
101668
101447
101240
101047
100865
100692
100526
100368
100215
100068
99932.2
99806.2
99690.5
99591
99510.9
99446.2
99391.2
99342.9
99299.5
99260.1
99224.1
99191.1
99160.8
99132.9
99107.3
99083.9
99062.4
99042.9
99025.9
99013.5
99011.3
99028.5
99081.9
99163.1
99258.8
99317.8
99356.5
99376.1
102910
102890
102883
102812
102763
102722
102690
102631
102526
102346
102122
101882
101647
101428
101224
101034
100855
100685
100522
100367
100218
100075
99941.7
99813.7
99693.9
99590.7
99505.2
99433.9
99371.5
99315.5
99264.5
99217.7
99174.7
99135.2
99098.8
99065.6
99035.1
99007.3
98981.8
98958.8
98938.1
98921.2
98912
98916.4
98948.6
99006.1
99098.9
99173.5
99237.8
99278.6
103227
103184
103212
103189
103172
103142
103095
102998
102835
102601
102332
102055
101791
101549
101326
101121
100928
100746
100572
100405
100250
100099
99951.6
99811.1
99682.3
99567.8
99472.7
99394.5
99327.6
99269
99217.2
99170.9
99129.5
99092.5
99059.4
99029.7
99003.3
98979.5
98958
98938.9
98921.8
98907.5
98898.1
98898.9
98918
98958
99023.9
99095.2
99171.1
99224.9
102927
102868
102948
103030
103134
103222
103267
103233
103086
102863
102588
102295
102009
101740
101491
101261
101046
100844
100652
100469
100291
100125
99962.1
99811.5
99677.5
99563.2
99473.7
99404.9
99350.3
99305.7
99268.7
99237.8
99212
99190
99171.2
99155.1
99141.2
99129.2
99118.9
99109.8
99102
99095.6
99091.4
99092.8
99104.2
99129.5
99173.2
99226.1
99289.1
99338.9
101996
101940
102032
102169
102352
102546
102703
102780
102748
102626
102431
102195
101946
101699
101463
101240
101030
100831
100641
100460
100286
100125
99975.8
99840.2
99725
99634.7
99571.8
99529.3
99499.8
99478.9
99463.7
99452.5
99444.2
99438.2
99434
99431.1
99429.1
99427.7
99426.9
99426.4
99426.1
99426.2
99427
99429.8
99437.1
99451.3
99475.4
99506.7
99545.9
99579.7
101020
100983
101044
101154
101309
101492
101666
101797
101857
101838
101756
101627
101470
101301
101130
100962
100800
100644
100496
100355
100221
100098
99988.1
99892.3
99816.6
99762.9
99730.2
99712.4
99703.3
99699.2
99698.1
99698.7
99700.5
99702.9
99705.6
99708.5
99711.3
99714.1
99716.7
99719.2
99721.5
99723.6
99725.8
99728.4
99732.5
99739.2
99749.9
99764.4
99782.9
99800.1
100395
100376
100404
100460
100544
100651
100763
100864
100934
100962
100949
100904
100834
100750
100658
100564
100470
100379
100291
100207
100128
100058
99995.7
99944.3
99906.1
99882.1
99870.5
99866.4
99866.3
99868.2
99871
99874.2
99877.5
99880.7
99883.7
99886.5
99889.1
99891.4
99893.6
99895.5
99897.2
99898.8
99900.2
99901.7
99903.5
99906
99909.8
99914.9
99921.6
99928.1
100118
100110
100120
100140
100172
100215
100264
100313
100353
100378
100385
100377
100356
100325
100289
100249
100209
100168
100129
100091
100056
100025
99998.9
99977.8
99963.3
99955.3
99952.5
99952.6
99954
99955.9
99957.8
99959.8
99961.6
99963.3
99964.8
99966.1
99967.3
99968.4
99969.3
99970.1
99970.8
99971.5
99972.1
99972.6
99973.2
99974
99975
99976.4
99978.3
99980.2
100028
100025
100028
100033
100042
100054
100070
100086
100101
100113
100119
100119
100115
100107
100096
100084
100071
100057
100043
100031
100019
100008
99999.8
99993.2
99989
99987
99986.6
99987
99987.8
99988.6
99989.4
99990.1
99990.7
99991.2
99991.7
99992.2
99992.5
99992.8
99993.1
99993.4
99993.6
99993.8
99993.9
99994.1
99994.2
99994.4
99994.6
99994.9
99995.3
99995.7
100005
100005
100005
100006
100008
100011
100014
100018
100022
100026
100028
100029
100029
100027
100025
100022
100018
100015
100011
100008
100005
100002
100000
99998.4
99997.4
99997.1
99997.1
99997.2
99997.5
99997.7
99997.9
99998.1
99998.2
99998.4
99998.5
99998.6
99998.7
99998.7
99998.8
99998.8
99998.9
99998.9
99999
99999
99999
99999.1
99999.1
99999.1
99999.2
99999.3
100001
100001
100001
100001
100001
100002
100002
100003
100004
100005
100005
100006
100006
100005
100005
100004
100004
100003
100002
100002
100001
100000
100000
99999.7
99999.5
99999.5
99999.5
99999.5
99999.6
99999.6
99999.7
99999.7
99999.7
99999.8
99999.8
99999.8
99999.8
99999.8
99999.8
99999.8
99999.8
99999.9
99999.9
99999.9
99999.9
99999.9
99999.9
99999.9
99999.9
99999.9
100000
100000
100000
100000
100000
100000
100000
100000
100001
100001
100001
100001
100001
100001
100001
100001
100001
100000
100000
100000
100000
100000
100000
100000
99999.9
99999.9
99999.9
99999.9
99999.9
100000
100000
100000
100000
100000
100000
100000
100000
100000
100000
100000
100000
100000
100000
100000
100000
100000
100000
100000
100000
100000
100000
100000
100000
100000
100000
100000
100000
100000
100000
100000
100000
100000
100000
100000
100000
100000
100000
100000
100000
100000
100000
100000
100000
100000
100000
100000
100000
100000
100000
100000
100000
100000
100000
100000
100000
100000
100000
100000
100000
100000
100000
100000
100000
100000
100000
100000
100000
100000
100000
100000
100000
100000
100000
100000
100000
100000
100000
100000
100000
100000
100000
100000
100000
100000
100000
100000
100000
100000
100000
100000
100000
100000
100000
100000
100000
100000
100000
100000
100000
100000
100000
100000
100000
100000
100000
100000
100000
100000
100000
100000
100000
100000
100000
100000
100000
100000
100000
100000
100000
100000
100000
100000
100000
100000
100000
100000
100000
100000
100000
100000
100000
100000
100000
100000
100000
100000
100000
100000
100000
100000
100000
100000
100000
100000
100000
100000
100000
100000
100000
100000
100000
100000
100000
100000
100000
100000
100000
100000
100000
100000
100000
100000
100000
100000
100000
100000
100000
100000
100000
100000
100000
100000
100000
100000
100000
100000
100000
100000
100000
100000
100000
100000
100000
100000
100000
100000
100000
100000
100000
100000
100000
100000
100000
100000
100000
100000
100000
100000
100000
100000
100000
100000
100000
100000
100000
100000
100000
100000
100000
100000
100000
100000
100000
100000
100000
100000
100000
100000
100000
100000
100000
100000
100000
100000
100000
100000
100000
100000
100000
100000
100000
100000
100000
100000
100000
100000
100000
100000
100000
100000
100000
100000
100000
100000
100000
100000
100000
100000
100000
100000
100000
100000
100000
100000
100000
100000
100000
100000
100000
100000
100000
100000
100000
100000
100000
100000
100000
100000
100000
100000
100000
100000
100000
100000
100000
100000
100000
100000
100000
100000
100000
100000
100000
100000
100000
100000
100000
100000
100000
100000
100000
100000
100000
100000
100000
100000
100000
100000
100000
100000
100000
100000
100000
100000
100000
100000
100000
100000
100000
100000
100000
100000
100000
100000
100000
100000
100000
100000
100000
100000
100000
100000
100000
100000
100000
100000
100000
100000
100000
100000
100000
100000
100000
100000
100000
100000
100000
100000
100000
100000
100000
100000
100000
100000
100000
100000
100000
100000
100000
100000
100000
100000
100000
100000
100000
100000
100000
100000
100000
100000
100000
100000
100000
100000
100000
100000
100000
100000
100000
100000
100000
100000
100000
100000
100000
100000
100000
100000
100000
100000
100000
100000
100000
100000
100000
100000
100000
100000
100000
100000
100000
100000
100000
100000
100000
100000
100000
100000
100000
100000
100000
100000
100000
100000
100000
100000
100000
100000
100000
100000
100000
100000
100000
100000
100000
100000
100000
100000
100000
100000
100000
100000
100000
100000
100000
100000
100000
100000
100000
100000
100000
100000
100000
100000
100000
100000
100000
100000
100000
100000
100000
100000
100000
100000
100000
100000
100000
100000
100000
100000
100000
100000
100000
100000
100000
100000
100000
100000
100000
100000
100000
100000
100000
100000
100000
100000
100000
100000
100000
100000
100000
100000
100000
100000
100000
100000
100000
100000
100000
100000
100000
100000
100000
100000
100000
100000
100000
100000
100000
100000
100000
100000
100000
100000
100000
100000
100000
100000
100000
100000
100000
100000
100000
100000
100000
100000
100000
100000
100000
100000
100000
100000
100000
100000
100000
100000
100000
100000
100000
100000
100000
100000
100000
100000
100000
100000
100000
100000
100000
100000
100000
100000
100000
100000
100000
100000
100000
100000
100000
100000
100000
100000
100000
100000
100000
100000
100000
100000
100000
100000
100000
100000
100000
100000
100000
100000
100000
100000
100000
100000
100000
100000
100000
100000
100000
100000
100000
100000
100000
100000
100000
100000
100000
100000
100000
100000
100000
100000
100000
100000
100000
100000
100000
100000
100000
100000
100000
100000
100000
100000
100000
100000
100000
100000
100000
100000
100000
100000
100000
100000
100000
100000
100000
100000
100000
100000
100000
100000
100000
100000
100000
100000
100000
100000
100000
100000
100000
100000
100000
100000
100000
100000
100000
100000
100000
100000
100000
100000
100000
100000
100000
100000
100000
100000
100000
100000
100000
100000
100000
100000
100000
100000
100000
100000
100000
100000
100000
100000
100000
100000
100000
100000
100000
100000
100000
100000
100000
100000
100000
100000
100000
100000
100000
100000
100000
100000
100000
100000
100000
100000
100000
100000
100000
100000
100000
100000
100000
100000
100000
100000
100000
100000
100000
100000
100000
100000
100000
100000
100000
100000
100000
100000
100000
100000
100000
100000
100000
100000
100000
100000
100000
100000
100000
100000
100000
100000
100000
100000
100000
100000
100000
100000
100000
100000
100000
100000
100000
100000
100000
100000
100000
100000
100000
100000
100000
100000
100000
100000
100000
100000
100000
100000
100000
100000
100000
100000
100000
100000
100000
100000
100000
100000
100000
100000
100000
100000
100000
100000
100000
100000
100000
100000
100000
100000
100000
100000
100000
100000
100000
100000
100000
100000
100000
100000
100000
100000
100000
100000
100000
100000
100000
100000
100000
100000
100000
100000
100000
100000
100000
100000
100000
100000
100000
100000
100000
100000
100000
100000
100000
100000
100000
100000
100000
100000
100000
100000
100000
100000
100000
100000
100000
100000
100000
100000
100000
100000
100000
100000
100000
100000
100000
100000
100000
100000
100000
100000
100000
100000
100000
100000
100000
100000
100000
100000
100000
100000
100000
100000
100000
100000
100000
100000
100000
100000
100000
100000
100000
100000
100000
100000
100000
100000
100000
100000
100000
100000
100000
100000
100000
100000
100000
100000
100000
100000
100000
100000
100000
100000
100000
100000
100000
100000
100000
100000
100000
100000
100000
100000
100000
100000
100000
100000
100000
100000
100000
100000
100000
100000
100000
100000
100000
100000
100000
100000
100000
100000
100000
100000
100000
100000
100000
100000
100000
100000
100000
100000
100000
100000
100000
100000
100000
100000
100000
100000
100000
100000
100000
100000
100000
100000
100000
100000
100000
100000
100000
100000
100000
100000
100000
100000
100000
100000
100000
100000
100000
100000
100000
100000
100000
100000
100000
100000
100000
100000
100000
100000
100000
100000
100000
100000
100000
100000
100000
100000
100000
100000
100000
100000
100000
100000
100000
100000
100000
100000
100000
100000
100000
100000
100000
100000
100000
100000
100000
100000
100000
100000
100000
100000
100000
100000
100000
100000
100000
100000
100000
100000
100000
100000
100000
100000
100000
100000
100000
100000
100000
100000
100000
100000
100000
100000
100000
100000
100000
100000
100000
100000
100000
100000
100000
100000
100000
100000
100000
100000
100000
100000
100000
100000
100000
100000
100000
100000
100000
100000
100000
100000
100000
100000
100000
100000
100000
100000
100000
100000
100000
100000
100000
100000
100000
100000
100000
100000
100000
100000
100000
100000
100000
100000
100000
100000
100000
100000
100000
100000
100000
100000
100000
100000
100000
100000
100000
100000
100000
100000
100000
100000
100000
100000
100000
100000
100000
100000
100000
100000
100000
100000
100000
100000
100000
100000
100000
100000
100000
100000
100000
100000
100000
100000
100000
100000
100000
100000
100000
100000
100000
100000
100000
100000
100000
100000
100000
100000
100000
100000
100000
100000
100000
100000
100000
100000
100000
100000
100000
100000
100000
100000
100000
100000
100000
100000
100000
100000
100000
100000
100000
100000
100000
100000
100000
100000
100000
100000
100000
100000
100000
100000
100000
100000
100000
100000
100000
100000
100000
100000
100000
100000
100000
100000
100000
100000
100000
100000
100000
100000
100000
100000
100000
100000
100000
100000
100000
100000
100000
100000
100000
100000
100000
100000
100000
100000
100000
100000
100000
100000
100000
100000
100000
100000
100000
100000
100000
100000
100000
100000
100000
100000
100000
100000
100000
100000
100000
100000
100000
100000
100000
100000
100000
100000
100000
100000
100000
100000
100000
100000
100000
100000
100000
100000
100000
100000
100000
100000
100000
100000
100000
100000
100000
100000
100000
100000
100000
100000
100000
100000
100000
100000
100000
100000
100000
100000
100000
100000
100000
100000
100000
100000
100000
100000
100000
100000
100000
100000
100000
100000
100000
100000
100000
100000
100000
100000
100000
100000
100000
100000
100000
100000
100000
100000
100000
100000
100000
100000
100000
100000
100000
100000
100000
100000
100000
100000
100000
100000
100000
100000
100000
100000
100000
100000
100000
100000
100000
100000
100000
100000
100000
100000
100000
100000
100000
100000
100000
100000
100000
100000
100000
100000
100000
100000
100000
100000
100000
100000
100000
100000
100000
100000
100000
100000
100000
100000
100000
100000
100000
100000
100000
100000
100000
100000
100000
100000
100000
100000
100000
100000
100000
100000
100000
100000
100000
100000
100000
100000
100000
100000
100000
100000
100000
100000
100000
100000
100000
100000
100000
100000
100000
100000
100000
100000
100000
100000
100000
100000
100000
100000
100000
100000
100000
100000
100000
100000
100000
100000
100000
100000
100000
100000
100000
100000
100000
100000
100000
100000
100000
100000
100000
100000
100000
100000
100000
100000
100000
100000
100000
100000
100000
100000
100000
100000
100000
100000
100000
100000
100000
100000
100000
100000
100000
100000
100000
100000
100000
100000
100000
100000
100000
100000
100000
100000
100000
100000
100000
100000
100000
100000
100000
100000
100000
100000
100000
100000
100000
100000
100000
100000
100000
100000
100000
100000
100000
100000
100000
100000
100000
100000
100000
100000
100000
100000
100000
100000
100000
100000
100000
100000
100000
100000
100000
100000
100000
100000
100000
100000
100000
100000
100000
100000
100000
100000
100000
100000
100000
100000
100000
100000
100000
100000
100000
100000
100000
100000
100000
100000
100000
100000
100000
100000
100000
100000
100000
100000
100000
100000
100000
100000
100000
100000
100000
100000
100000
100000
100000
100000
100000
100000
100000
100000
100000
100000
100000
100000
100000
100000
100000
100000
100000
100000
100000
100000
100000
100000
100000
100000
100000
100000
100000
100000
100000
100000
100000
100000
100000
100000
100000
100000
100000
100000
100000
100000
100000
100000
100000
100000
100000
100000
100000
100000
100000
100000
100000
100000
100000
100000
100000
100000
100000
100000
100000
100000
100000
100000
100000
100000
100000
100000
100000
100000
100000
100000
100000
100000
100000
100000
100000
100000
100000
100000
100000
100000
100000
100000
100000
100000
100000
100000
100000
100000
100000
100000
100000
100000
100000
100000
100000
100000
100000
100000
100000
100000
100000
100000
100000
100000
100000
100000
100000
100000
100000
100000
100000
100000
100000
100000
100000
100000
100000
100000
100000
100000
100000
100000
100000
100000
100000
100000
100000
100000
100000
100000
100000
100000
100000
100000
100000
100000
100000
100000
100000
100000
100000
100000
100000
100000
100000
100000
100000
100000
100000
100000
100000
100000
100000
100000
100000
100000
100000
100000
100000
100000
100000
100000
100000
100000
100000
100000
100000
100000
100000
100000
100000
100000
100000
100000
100000
100000
100000
100000
100000
100000
100000
100000
100000
100000
100000
100000
100000
100000
100000
100000
100000
100000
100000
100000
100000
100000
100000
100000
100000
100000
100000
100000
100000
100000
100000
100000
100000
100000
100000
100000
100000
100000
100000
100000
100000
100000
100000
100000
100000
100000
100000
100000
100000
100000
100000
100000
100000
100000
100000
100000
100000
100000
100000
100000
100000
100000
100000
100000
100000
100000
100000
100000
100000
100000
100000
100000
100000
100000
100000
100000
100000
100000
100000
100000
100000
100000
100000
100000
100000
100000
100000
100000
100000
100000
100000
100000
100000
100000
100000
100000
100000
100000
100000
100000
100000
100000
100000
100000
100000
100000
100000
100000
100000
100000
100000
100000
100000
100000
100000
100000
100000
100000
100000
100000
100000
100000
100000
100000
100000
100000
100000
100000
100000
100000
100000
100000
100000
100000
100000
100000
100000
100000
100000
100000
100000
100000
100000
100000
100000
100000
100000
100000
100000
100000
100000
100000
100000
100000
100000
100000
100000
100000
100000
100000
100000
100000
100000
100000
100000
100000
100000
100000
100000
100000
100000
100000
100000
100000
100000
100000
100000
100000
100000
100000
100000
100000
100000
100000
100000
100000
100000
100000
100000
100000
100000
100000
100000
100000
100000
100000
100000
100000
100000
100000
100000
100000
100000
100000
100000
100000
100000
100000
100000
100000
100000
100000
100000
100000
100000
100000
100000
100000
100000
100000
100000
100000
100000
100000
100000
100000
100000
100000
100000
100000
100000
100000
100000
100000
100000
100000
100000
100000
100000
100000
100000
100000
100000
100000
100000
100000
100000
100000
100000
100000
100000
100000
100000
100000
100000
100000
100000
100000
100000
100000
100000
100000
100000
100000
100000
100000
100000
100000
100000
100000
100000
100000
100000
100000
100000
100000
100000
100000
100000
100000
100000
100000
100000
100000
100000
100000
100000
100000
100000
100000
100000
100000
100000
100000
100000
100000
100000
100000
100000
100000
100000
100000
100000
100000
100000
100000
100000
100000
100000
100000
100000
100000
100000
100000
100000
100000
100000
100000
100000
100000
100000
100000
100000
100000
100000
100000
100000
100000
100000
100000
100000
100000
100000
100000
100000
100000
100000
100000
100000
100000
100000
100000
100000
100000
100000
100000
100000
100000
100000
100000
100000
100000
100000
100000
100000
100000
100000
100000
100000
100000
100000
100000
100000
100000
100000
100000
100000
100000
100000
100000
100000
100000
100000
100000
100000
100000
100000
100000
100000
100000
100000
100000
100000
100000
100000
100000
100000
100000
100000
100000
100000
100000
100000
100000
100000
100000
100000
100000
100000
100000
100000
100000
100000
100000
100000
100000
100000
100000
100000
100000
100000
100000
100000
100000
100000
100000
100000
100000
99546.6
99437.4
99451.2
99383.9
99302.7
99189.2
99082.7
99013.6
99006.6
99043.1
99101.6
99136.6
99175.8
99141.7
99214
99492.9
99437.6
99449.6
99385.4
99305
99192.3
99084.6
99013
99003.5
99038
99096.7
99130.9
99171.7
99138.7
99174.1
99491.8
99438.2
99448.2
99389
99311
99201
99092.9
99018.1
99003.5
99035.1
99092.5
99132.8
99176.3
99182.5
99241.2
99460.1
99437.1
99444.6
99393.8
99322
99218.2
99111.3
99031.9
99008.8
99033.9
99087.5
99129.3
99166
99173.5
99198.2
99441.8
99431.1
99440.7
99401
99338.9
99244.7
99140.4
99054.5
99017.6
99031.4
99080.6
99129.7
99173.7
99201.3
99235.5
99426.4
99435.5
99445.8
99416.4
99367.3
99288.4
99191.2
99098.9
99041.2
99030.7
99060.9
99104.6
99148.5
99182
99214.4
99435
99442.9
99449.9
99432.5
99403.6
99350.2
99271.2
99179.8
99101.2
99055.4
99048.1
99065.3
99093.9
99122.8
99153.9
99406
99412.2
99424.8
99431.4
99434.6
99418.3
99371.4
99296.5
99210.6
99134.6
99082.4
99053.5
99041
99036.6
99038.1
99318.3
99348.7
99388.1
99431.3
99471.3
99492.7
99482.5
99437.5
99367.2
99287.9
99214.6
99154.9
99109
99074.2
99047
99287.9
99356.9
99425.6
99495
99555.6
99597.1
99611
99594.7
99552.4
99494.1
99430.8
99371
99318.5
99274.9
99237.8
99409.8
99494.6
99568.5
99636.1
99691.4
99730.1
99749.5
99749.6
99731.3
99700.7
99663.6
99625.4
99589.6
99558.9
99532.2
99632.1
99698.2
99751.7
99797
99831.9
99855.8
99869.1
99872.6
99867.6
99856
99840.3
99822.8
99805.8
99790.7
99777.6
99827.5
99863.2
99890.5
99912.3
99928.4
99939.2
99945.5
99948
99947.5
99944.2
99939.4
99933.6
99927.8
99922.6
99918.1
99938.5
99952.5
99962.8
99970.7
99976.3
99980
99982.2
99983.2
99983.4
99982.8
99981.6
99980.2
99978.8
99977.4
99976.3
99983.2
99987.2
99990.2
99992.4
99993.9
99994.8
99995.4
99995.7
99995.8
99995.8
99995.6
99995.3
99995
99994.8
99994.6
99996.4
99997.3
99998
99998.4
99998.7
99998.9
99999.1
99999.1
99999.2
99999.2
99999.1
99999.1
99999.1
99999
99999
99999.4
99999.6
99999.7
99999.7
99999.8
99999.8
99999.8
99999.9
99999.9
99999.9
99999.9
99999.9
99999.9
99999.9
99999.9
99999.9
99999.9
100000
100000
100000
100000
100000
100000
100000
100000
100000
100000
100000
100000
100000
100000
100000
100000
100000
100000
100000
100000
100000
100000
100000
100000
100000
100000
100000
100000
100000
100000
100000
100000
100000
100000
100000
100000
100000
100000
100000
100000
100000
100000
100000
100000
100000
100000
100000
100000
100000
100000
100000
100000
100000
100000
100000
100000
100000
100000
100000
100000
100000
100000
100000
100000
100000
100000
100000
100000
100000
100000
100000
100000
100000
100000
100000
100000
100000
100000
100000
100000
100000
100000
100000
100000
100000
100000
100000
100000
100000
100000
100000
100000
100000
100000
100000
100000
100000
100000
100000
100000
100000
100000
100000
100000
100000
100000
100000
100000
100000
100000
100000
100000
100000
100000
100000
100000
100000
100000
100000
100000
100000
100000
100000
100000
100000
100000
100000
100000
100000
100000
100000
100000
100000
100000
100000
100000
100000
100000
100000
100000
100000
100000
100000
100000
100000
100000
100000
100000
100000
100000
100000
100000
100000
100000
100000
100000
100000
100000
100000
100000
100000
100000
100000
100000
100000
100000
100000
100000
100000
100000
100000
100000
100000
100000
100000
100000
100000
100000
100000
100000
100000
100000
100000
100000
100000
100000
100000
100000
100000
100000
100000
100000
100000
100000
100000
100000
100000
100000
100000
100000
100000
100000
100000
100000
100000
100000
100000
100000
100000
100000
100000
100000
100000
100000
100000
100000
100000
100000
100000
100000
100000
100000
100000
100000
100000
100000
100000
100000
100000
100000
100000
100000
100000
100000
100000
100000
100000
100000
100000
100000
100000
100000
100000
100000
100000
100000
100000
100000
100000
100000
100000
100000
100000
100000
100000
100000
100000
100000
100000
100000
100000
100000
100000
100000
100000
100000
100000
100000
100000
100000
100000
100000
100000
100000
100000
100000
100000
100000
100000
100000
100000
100000
100000
100000
100000
100000
100000
100000
100000
100000
100000
100000
100000
100000
100000
100000
100000
100000
100000
100000
100000
100000
100000
100000
100000
100000
100000
100000
100000
100000
100000
100000
100000
100000
100000
100000
100000
100000
100000
100000
100000
100000
100000
100000
100000
100000
100000
100000
100000
100000
100000
100000
100000
100000
100000
100000
100000
100000
100000
100000
100000
100000
100000
100000
100000
100000
100000
100000
100000
100000
100000
100000
100000
100000
100000
100000
100000
100000
100000
100000
100000
100000
100000
100000
100000
100000
100000
100000
100000
100000
100000
100000
100000
100000
100000
100000
100000
100000
100000
100000
100000
100000
100000
100000
100000
100000
100000
100000
100000
100000
100000
100000
100000
100000
100000
100000
100000
100000
100000
100000
100000
100000
100000
100000
100000
100000
100000
100000
100000
100000
100000
100000
100000
100000
100000
100000
100000
100000
100000
100000
100000
100000
100000
100000
100000
100000
100000
100000
100000
100000
100000
100000
100000
100000
100000
100000
100000
100000
100000
100000
100000
100000
100000
100000
100000
100000
100000
100000
100000
100000
100000
100000
100000
100000
100000
100000
100000
100000
100000
100000
100000
100000
100000
100000
100000
100000
100000
100000
100000
100000
100000
100000
100000
100000
100000
100000
100000
100000
100000
100000
100000
100000
100000
100000
100000
100000
100000
100000
100000
100000
100000
100000
100000
100000
100000
100000
100000
100000
100000
100000
100000
100000
100000
100000
100000
100000
100000
100000
100000
100000
100000
100000
100000
100000
100000
100000
100000
100000
100000
100000
100000
100000
100000
100000
100000
100000
100000
100000
100000
100000
100000
100000
100000
100000
100000
100000
100000
100000
100000
100000
100000
100000
100000
100000
100000
100000
100000
100000
100000
100000
100000
100000
100000
100000
100000
100000
100000
100000
100000
100000
100000
100000
100000
100000
100000
100000
100000
100000
100000
100000
100000
100000
100000
100000
100000
100000
100000
100000
100000
100000
100000
100000
100000
100000
100000
100000
100000
100000
100000
100000
100000
100000
100000
100000
100000
100000
100000
100000
100000
100000
100000
100000
100000
100000
100000
100000
100000
100000
100000
100000
100000
100000
100000
100000
100000
100000
100000
100000
100000
100000
100000
100000
100000
100000
100000
100000
100000
100000
100000
100000
100000
100000
100000
100000
100000
100000
100000
100000
100000
100000
100000
100000
100000
99035.3
99254.7
99315.6
99295.9
99277
99266.2
99260.6
99254.9
99251.3
99251.1
99254.3
99263.4
99279.3
99300.4
99325.6
99353.1
99380.7
99406.6
99430.3
99453
99474.8
99495.5
99515.6
99535.3
99554.5
99573.3
99591.6
99609.4
99626.6
99642.9
99658.3
99672.6
99685.7
99697.4
99707.8
99716.6
99723.9
99729.5
99733.4
99735.6
99736.1
99734.9
99731.9
99727.3
99721.1
99713.2
99703.9
99693.2
99681.2
99667.9
99653.5
99638.1
99621.7
99604.6
99586.8
99568.4
99549.4
99530.1
99510.5
99490.7
99470.7
99450.8
99431.3
99412.2
99393.3
99373.7
99353.3
99332
99309.3
99285
99259
99230.4
99199.1
99164.1
99121.6
99073
99038.2
99043
99100.8
99186.2
99038.1
99038.6
99061.9
99081.2
99101
99122.5
99144.8
99165.8
99188.3
99212.5
99236.6
99261.6
99288.3
99316.6
99345.4
99373.8
99401.6
99429
99455.5
99480.6
99503.1
99523.2
99541.9
99559.4
99575.9
99591.6
99606.6
99620.9
99634.6
99647.6
99659.9
99671.4
99682
99691.8
99700.6
99708.3
99714.9
99720.2
99724.2
99726.9
99728.1
99727.9
99726.2
99723
99718.3
99712.2
99704.7
99695.7
99685.5
99673.9
99661.1
99647.2
99632.1
99615.8
99598.6
99580.2
99560.9
99540.6
99519.5
99497.5
99474.8
99451.5
99427.8
99403.9
99379.9
99355.9
99332.2
99309.2
99286.6
99264.2
99241.1
99217
99192.9
99168.9
99145.4
99123.6
99107.3
99099.8
99106.7
99125.2
99261.1
99277.1
99294
99308.2
99320.9
99333.4
99344.7
99357.1
99369.7
99382
99394.4
99407
99420.1
99434
99448.5
99464.2
99481.1
99498.4
99515.6
99532.6