/*--------------------------------*- C++ -*----------------------------------*\
  =========                 |
  \\      /  F ield         | OpenFOAM: The Open Source CFD Toolbox
   \\    /   O peration     | Website:  https://openfoam.org
    \\  /    A nd           | Version:  10
     \\/     M anipulation  |
\*---------------------------------------------------------------------------*/
FoamFile
{
    format      ascii;
    class       volVectorField;
    location    "0.0001";
    object      U;
}
// * * * * * * * * * * * * * * * * * * * * * * * * * * * * * * * * * * * * * //

dimensions      [0 1 -1 0 0 0 0];

internalField   nonuniform List<vector> 
13320
(
(1.94458 3.42434 0)
(4.47148 9.02352 2.16089e-17)
(8.63571 12.7681 2.16102e-17)
(12.9326 14.1123 -1.21848e-18)
(16.5606 14.2287 -3.57422e-17)
(19.5185 13.7378 3.33888e-17)
(21.6836 12.8442 0)
(23.1377 11.7463 6.13811e-17)
(24.0206 10.5575 -3.42242e-18)
(24.511 9.36326 2.81552e-17)
(24.7798 8.24186 -1.42846e-18)
(24.9456 7.21758 -8.16285e-17)
(25.0649 6.28891 -2.35658e-18)
(25.1648 5.44273 3.52668e-17)
(25.2537 4.66139 0)
(25.3339 3.93111 0)
(25.4043 3.23879 2.61723e-17)
(25.4622 2.57632 -1.43289e-18)
(25.5046 1.93835 2.13513e-17)
(25.5298 1.32144 1.86692e-17)
(25.5345 0.722727 -5.25002e-19)
(25.5191 0.151159 -1.88856e-18)
(25.4803 -0.38694 -6.35515e-18)
(25.421 -0.882757 -2.46485e-17)
(25.3567 -1.32874 3.38675e-19)
(25.2984 -1.71075 -2.1572e-17)
(25.2538 -2.02272 -2.25568e-17)
(25.2225 -2.27998 3.87226e-19)
(25.2 -2.50165 2.63722e-17)
(25.1818 -2.6976 -2.90406e-17)
(25.1654 -2.87366 0)
(25.1496 -3.03323 -2.67167e-19)
(25.134 -3.17821 9.77479e-23)
(25.1186 -3.31016 3.1746e-19)
(25.1034 -3.43064 3.45746e-19)
(25.0885 -3.54044 -3.77675e-19)
(25.0742 -3.64062 -1.29849e-17)
(25.0603 -3.73198 1.44185e-17)
(25.0464 -3.81502 1.55292e-17)
(25.0291 -3.89022 -8.78056e-22)
(24.9975 -3.95663 9.45259e-18)
(24.9196 -4.01011 6.99486e-22)
(24.7462 -4.04164 0)
(24.4061 -4.03786 -1.94734e-19)
(23.9533 -3.99765 7.03477e-18)
(23.4011 -3.93744 1.51326e-17)
(23.0649 -3.89739 -8.35129e-18)
(22.5218 -3.82364 -7.01361e-20)
(22.2818 -3.6353 -4.84107e-18)
(20.5783 -3.36604 -4.25345e-20)
(3.69318 2.55797 4.99816e-18)
(5.46096 7.11847 -9.28753e-18)
(8.6922 10.5714 -1.75371e-17)
(12.3392 12.6492 3.36928e-17)
(15.9027 13.3287 6.38905e-17)
(19.053 13.2488 -2.98997e-17)
(21.4613 12.5858 -2.81472e-17)
(23.0993 11.5596 -5.34274e-17)
(24.0844 10.4028 1.49308e-18)
(24.6213 9.22993 1.37642e-18)
(24.9073 8.12789 -1.24875e-18)
(25.0772 7.12159 -9.09318e-21)
(25.1968 6.20849 0)
(25.2964 5.37498 0)
(25.385 4.60454 0)
(25.465 3.8815 0)
(25.5352 3.19358 -2.23054e-17)
(25.5927 2.53355 -6.29733e-19)
(25.6344 1.89583 -1.82198e-17)
(25.6581 1.27903 -1.64394e-17)
(25.6598 0.686978 4.63295e-19)
(25.6413 0.12022 1.66552e-18)
(25.6002 -0.414198 -3.16351e-22)
(25.5378 -0.90516 -5.30096e-22)
(25.4683 -1.35014 0)
(25.4041 -1.73664 1.90557e-17)
(25.3541 -2.05185 -2.05649e-17)
(25.3178 -2.31158 -2.18912e-17)
(25.2904 -2.53554 -4.69956e-17)
(25.2677 -2.73385 5.09504e-17)
(25.2473 -2.91244 -2.78535e-17)
(25.2278 -3.07466 3.02907e-17)
(25.2089 -3.22195 -2.57417e-19)
(25.1906 -3.35642 2.80774e-19)
(25.1727 -3.47926 1.95735e-17)
(25.1555 -3.59132 0)
(25.139 -3.69361 -1.16667e-17)
(25.1232 -3.78698 -1.31518e-17)
(25.1076 -3.8721 1.43876e-17)
(25.0896 -3.94893 -3.05424e-17)
(25.06 -4.01527 -8.35936e-18)
(24.99 -4.06555 9.15143e-18)
(24.8356 -4.08535 1.00294e-17)
(24.5216 -4.06057 0)
(24.0941 -3.99824 0)
(23.5349 -3.90447 -1.30581e-17)
(23.2111 -3.82121 -2.26861e-19)
(22.6902 -3.7331 1.58369e-17)
(22.4996 -3.47055 4.51059e-18)
(21.5583 -3.21491 0)
(5.68499 2.05814 -4.28301e-18)
(6.7741 5.97261 0)
(9.09133 9.22675 -1.41888e-17)
(12.1678 11.5414 -3.00394e-17)
(15.3814 12.7428 -2.76793e-17)
(18.3558 13.083 0)
(20.7694 12.7376 -4.30566e-21)
(22.5172 11.9046 4.51726e-17)
(23.6547 10.8123 -2.08494e-17)
(24.3202 9.62176 1.28274e-20)
(24.6997 8.46539 -3.49555e-17)
(24.9323 7.39885 6.5599e-17)
(25.0942 6.43229 -3.62285e-18)
(25.2234 5.55471 1.64777e-18)
(25.332 4.75375 -1.49244e-18)
(25.426 4.00935 2.29302e-21)
(25.5063 3.30544 2.45507e-18)
(25.5711 2.63541 -1.11129e-18)
(25.6186 1.99243 0)
(25.6462 1.36946 1.45029e-17)
(25.6515 0.765634 -8.1657e-19)
(25.6362 0.187998 7.35874e-19)
(25.5978 -0.358513 1.98134e-18)
(25.5377 -0.861023 1.00584e-17)
(25.4694 -1.31601 0)
(25.405 -1.70875 1.65989e-17)
(25.3539 -2.02814 1.7637e-17)
(25.3164 -2.28896 -1.90724e-17)
(25.2879 -2.5119 2.09644e-17)
(25.2642 -2.70828 -2.27321e-17)
(25.2429 -2.88432 4.93271e-17)
(25.2228 -3.04357 -2.72429e-17)
(25.2034 -3.18768 1.5049e-17)
(25.1847 -3.31825 0)
(25.1665 -3.43708 -3.4673e-17)
(25.1491 -3.5449 0)
(25.1325 -3.64304 1.03332e-17)
(25.1167 -3.73209 -3.52912e-19)
(25.1012 -3.81303 -1.19698e-17)
(25.0837 -3.88589 4.22277e-19)
(25.0556 -3.94911 -4.62606e-19)
(24.9896 -3.99789 -2.53195e-19)
(24.8431 -4.01506 -8.60097e-18)
(24.5386 -3.9922 -1.00484e-17)
(24.126 -3.9113 5.66629e-18)
(23.5886 -3.80402 5.86663e-18)
(23.2729 -3.6612 0)
(22.809 -3.55274 -1.24309e-22)
(22.6239 -3.22987 -6.03749e-20)
(21.8976 -2.98438 -4.17213e-18)
(7.16902 1.67033 4.59681e-19)
(7.88852 4.97398 -6.45954e-18)
(9.62637 7.91555 2.37239e-17)
(12.0708 10.2905 -2.20994e-17)
(14.9407 11.7178 -2.55625e-17)
(17.837 12.3479 2.26265e-17)
(20.3289 12.2647 2.13844e-17)
(22.1773 11.6502 -2.22317e-17)
(23.4116 10.6757 -1.82806e-17)
(24.1475 9.55693 -2.93396e-17)
(24.5707 8.43997 2.88033e-17)
(24.831 7.39205 -2.79978e-17)
(25.0108 6.43535 -2.55455e-17)
(25.1528 5.56338 -2.46883e-17)
(25.2722 4.76448 2.42179e-21)
(25.3753 4.01584 2.39337e-18)
(25.463 3.30769 -1.08632e-18)
(25.5344 2.63222 -1.57187e-17)
(25.5869 1.98454 0)
(25.6186 1.35906 -2.56864e-17)
(25.6274 0.758123 0)
(25.6153 0.182181 -6.51404e-19)
(25.5801 -0.361856 6.09809e-22)
(25.5228 -0.863716 5.25187e-19)
(25.4565 -1.31963 0)
(25.3934 -1.71435 -4.59706e-19)
(25.3427 -2.0354 1.64024e-17)
(25.305 -2.29742 1.7738e-17)
(25.276 -2.5216 -5.8183e-19)
(25.2518 -2.71893 -3.15303e-19)
(25.2299 -2.89551 -2.1557e-17)
(25.2093 -3.05496 -3.72707e-19)
(25.1894 -3.1992 -1.25525e-17)
(25.1702 -3.32982 -1.41293e-17)
(25.1516 -3.44847 3.07861e-17)
(25.1338 -3.55611 0)
(25.1169 -3.65387 -2.86658e-19)
(25.1007 -3.74275 3.13373e-19)
(25.0851 -3.82341 0)
(25.0679 -3.896 1.16269e-17)
(25.0419 -3.9586 7.38905e-18)
(24.9833 -4.00464 6.73876e-18)
(24.852 -4.0159 0)
(24.5753 -3.96618 8.91166e-18)
(24.1887 -3.85786 -9.75185e-18)
(23.6699 -3.72461 -5.19897e-18)
(23.3521 -3.55261 0)
(22.9502 -3.43288 -3.44656e-22)
(22.7863 -3.09684 0)
(22.3091 -2.8417 3.75032e-18)
(8.52887 1.39549 7.89908e-19)
(8.97101 4.24191 5.20089e-18)
(10.2225 6.87959 -1.13282e-17)
(12.1317 9.23464 2.19102e-17)
(14.5463 10.9064 3.92426e-17)
(17.1737 11.8797 -1.72667e-17)
(19.5983 12.0989 0)
(21.5665 11.6862 0)
(22.9399 10.8289 3.21159e-17)
(23.8084 9.74844 2.95439e-17)
(24.3256 8.62406 -1.69236e-18)
(24.6466 7.55543 3.09187e-18)
(24.8679 6.57558 -2.82871e-18)
(25.0378 5.68509 4.37059e-17)
(25.1779 4.8654 -2.14785e-21)
(25.295 4.105 -1.80346e-17)
(25.3942 3.39077 -1.54048e-17)
(25.4758 2.70638 2.87733e-17)
(25.5375 2.04926 -7.89829e-19)
(25.5767 1.41691 1.14103e-17)
(25.592 0.807099 0)
(25.5856 0.224914 0)
(25.5554 -0.319013 1.56275e-18)
(25.5028 -0.826365 -6.53732e-18)
(25.4403 -1.28842 1.29415e-17)
(25.3796 -1.68726 2.75482e-22)
(25.3303 -2.01153 -1.37137e-17)
(25.2932 -2.27581 -9.56857e-19)
(25.2644 -2.50177 5.17848e-19)
(25.2401 -2.70083 0)
(25.218 -2.87901 0)
(25.1972 -3.04007 1.05986e-17)
(25.177 -3.18617 0)
(25.1577 -3.31852 1.29658e-17)
(25.1388 -3.43909 -2.47454e-22)
(25.1208 -3.54859 -9.34723e-19)
(25.1036 -3.64834 -8.16119e-18)
(25.0872 -3.73906 5.57488e-19)
(25.0714 -3.82174 0)
(25.0547 -3.89622 -1.06733e-17)
(25.0308 -3.96107 -5.83998e-18)
(24.9791 -4.01047 -1.23808e-17)
(24.8648 -4.02599 -8.75009e-19)
(24.6124 -3.97978 -7.19764e-18)
(24.2456 -3.86264 4.20051e-18)
(23.7525 -3.70702 9.23412e-18)
(23.4353 -3.49183 5.20781e-18)
(23.0894 -3.34416 -1.12603e-17)
(22.9395 -3.01752 0)
(22.5927 -2.77591 -3.32492e-18)
(9.65191 1.16819 0)
(9.92994 3.61033 1.28107e-18)
(10.8541 5.91963 8.57218e-18)
(12.289 8.15737 0)
(14.2317 9.92599 -1.81921e-17)
(16.5586 11.1763 2.15115e-18)
(18.8722 11.7023 1.22625e-17)
(20.8746 11.5618 5.69503e-18)
(22.3927 10.8615 2.46997e-17)
(23.399 9.84159 -2.60002e-17)
(24.031 8.71905 0)
(24.432 7.6312 2.73018e-18)
(24.705 6.62995 1.49927e-17)
(24.908 5.72275 -1.36679e-17)
(25.0717 4.89118 -1.86624e-17)
(25.2076 4.12449 1.50667e-17)
(25.3196 3.4065 -3.71326e-21)
(25.4098 2.72633 -2.48047e-17)
(25.4794 2.07165 -1.40289e-18)
(25.5264 1.43823 1.27029e-18)
(25.5485 0.830028 -4.58326e-18)
(25.549 0.247299 2.06463e-18)
(25.5254 -0.306304 0)
(25.4778 -0.821213 6.6572e-18)
(25.4193 -1.29094 -1.19068e-17)
(25.3616 -1.69731 3.67888e-22)
(25.3137 -2.02799 0)
(25.277 -2.29691 1.40723e-17)
(25.2481 -2.52626 -4.61536e-19)
(25.2234 -2.72783 0)
(25.2009 -2.90772 -5.42665e-19)
(25.1795 -3.06972 1.06248e-17)
(25.1589 -3.2161 -6.4227e-19)
(25.1391 -3.34845 -3.49998e-19)
(25.1198 -3.46856 -1.18204e-17)
(25.1015 -3.57705 0)
(25.0839 -3.67588 7.26898e-18)
(25.0672 -3.76506 -8.44018e-18)
(25.0512 -3.84627 5.42926e-19)
(25.0348 -3.91908 1.00962e-17)
(25.013 -3.98308 -6.49844e-19)
(24.9687 -4.03226 5.68698e-18)
(24.8726 -4.0459 0)
(24.6569 -4.00851 6.83019e-18)
(24.3317 -3.86191 3.50172e-18)
(23.8758 -3.67262 -3.84844e-18)
(23.5608 -3.42154 2.8344e-22)
(23.2612 -3.24743 -1.54639e-19)
(23.1317 -2.94708 1.68388e-19)
(22.9063 -2.71341 2.952e-18)
(11.0623 0.980073 -1.16197e-18)
(11.199 3.06776 -8.81728e-18)
(11.8621 5.03367 -8.46106e-18)
(12.9099 7.0866 0)
(14.3718 8.84932 -1.77607e-17)
(16.2737 10.3181 -1.31e-17)
(18.2978 11.1921 -1.42616e-17)
(20.1799 11.4043 0)
(21.7314 10.9511 -4.95147e-17)
(22.8465 10.0735 0)
(23.5858 9.00748 0)
(24.0797 7.92614 0)
(24.4268 6.90479 -1.76949e-17)
(24.6862 5.97033 1.41373e-17)
(24.8926 5.11092 1.47147e-17)
(25.0618 4.31189 1.67463e-18)
(25.2002 3.56519 1.21629e-17)
(25.3119 2.86079 1.10296e-17)
(25.3979 2.18519 0)
(25.4586 1.53515 7.91217e-18)
(25.4924 0.908458 -3.06157e-18)
(25.5024 0.306934 -1.83968e-18)
(25.488 -0.268782 0)
(25.4476 -0.791004 -7.4166e-19)
(25.3945 -1.26016 6.64201e-19)
(25.3406 -1.66367 -1.04267e-17)
(25.2952 -1.98752 -1.19593e-17)
(25.2601 -2.24715 7.62328e-19)
(25.2321 -2.46555 -1.317e-17)
(25.2082 -2.6554 1.42792e-17)
(25.1864 -2.8235 0)
(25.1658 -2.97388 -7.8958e-18)
(25.146 -3.10911 -5.72665e-19)
(25.1269 -3.23139 0)
(25.1085 -3.34182 0)
(25.0909 -3.44196 -1.11329e-17)
(25.0741 -3.53287 -7.28852e-18)
(25.0581 -3.61527 4.41308e-19)
(25.0428 -3.68995 -4.83744e-19)
(25.0275 -3.75741 0)
(25.0084 -3.81672 5.78752e-19)
(24.9732 -3.86242 -1.26617e-18)
(24.8974 -3.87649 3.46491e-19)
(24.7243 -3.83647 3.79883e-19)
(24.4435 -3.68695 -3.32319e-18)
(24.028 -3.47831 3.87836e-18)
(23.7132 -3.19833 -2.49909e-19)
(23.4352 -2.99711 4.37804e-18)
(23.3126 -2.7403 -7.48446e-20)
(23.1711 -2.53549 8.19499e-20)
(11.8006 0.850295 -1.54449e-22)
(11.8783 2.71362 2.36998e-17)
(12.4411 4.40379 0)
(13.3731 6.23484 0)
(14.6201 7.84031 1.36824e-17)
(16.2662 9.29733 -6.40458e-21)
(18.0998 10.2921 -1.24267e-17)
(19.8545 10.7047 0)
(21.3616 10.4814 2.16918e-17)
(22.5048 9.77691 -1.75788e-17)
(23.2976 8.83172 -1.85571e-17)
(23.8397 7.82134 -2.13107e-18)
(24.2263 6.84156 1.56299e-17)
(24.5204 5.9253 -1.42929e-17)
(24.7529 5.07852 1.30384e-17)
(24.9424 4.29247 0)
(25.0979 3.55477 0)
(25.2236 2.85247 0)
(25.3209 2.18165 -8.89153e-18)
(25.3906 1.5375 -1.50899e-17)
(25.433 0.913183 -9.10017e-19)
(25.4506 0.315803 0)
(25.4432 -0.238778 7.3695e-19)
(25.4102 -0.746835 -6.62164e-19)
(25.3635 -1.21156 0)
(25.3146 -1.60911 0)
(25.2725 -1.92747 1.0666e-17)
(25.2393 -2.18485 -6.78386e-19)
(25.2125 -2.40413 -7.33711e-19)
(25.1891 -2.59769 -1.27299e-17)
(25.1675 -2.77233 8.63276e-19)
(25.1468 -2.93154 7.97567e-18)
(25.1266 -3.07737 -8.16348e-18)
(25.107 -3.21145 -5.56323e-19)
(25.0879 -3.33459 -1.02946e-17)
(25.0694 -3.44781 2.18146e-17)
(25.0517 -3.55185 1.89196e-21)
(25.0348 -3.64695 1.26041e-17)
(25.0186 -3.73454 -4.30621e-19)
(25.0027 -3.81388 8.63616e-23)
(24.9845 -3.88546 5.15148e-19)
(24.956 -3.94384 -4.50433e-18)
(24.9 -3.97676 0)
(24.772 -3.95842 3.3795e-19)
(24.5504 -3.83806 -7.38648e-19)
(24.1982 -3.62768 -2.84018e-18)
(23.8966 -3.30541 -3.76909e-18)
(23.6218 -3.05792 2.43026e-19)
(23.494 -2.79711 1.3295e-19)
(23.399 -2.58125 -1.45525e-19)
(11.2787 0.776091 8.50183e-19)
(11.4163 2.67863 -1.21755e-17)
(11.902 4.2814 -3.1412e-18)
(12.8002 6.02892 1.53491e-18)
(13.9875 7.57122 0)
(15.5598 8.95923 1.12894e-17)
(17.4079 9.96887 1.3508e-17)
(19.2226 10.3956 -2.5367e-17)
(20.8088 10.2424 2.1377e-17)
(22.062 9.6053 1.76151e-17)
(22.964 8.68558 -1.49001e-20)
(23.5904 7.6866 3.74446e-18)
(24.0331 6.71865 -3.45135e-18)
(24.3629 5.81648 0)
(24.6212 4.98703 -1.15407e-17)
(24.8294 4.21674 -1.05276e-17)
(24.9989 3.49355 0)
(25.1358 2.80743 -2.17569e-18)
(25.2428 2.15229 1.97595e-18)
(25.3204 1.52388 1.61071e-17)
(25.3687 0.923146 3.23578e-18)
(25.3946 0.343704 2.01954e-21)
(25.395 -0.195758 2.62784e-18)
(25.3704 -0.709815 -5.90848e-19)
(25.3317 -1.19134 -1.0557e-18)
(25.2885 -1.60647 5.18527e-19)
(25.2501 -1.94903 -5.59071e-19)
(25.2187 -2.23417 -1.9346e-17)
(25.1923 -2.48236 1.04653e-17)
(25.1685 -2.70557 7.09046e-19)
(25.1459 -2.90886 0)
(25.1238 -3.09555 6.68382e-18)
(25.102 -3.26649 7.272e-18)
(25.0807 -3.42352 0)
(25.0598 -3.56775 8.62911e-18)
(25.0395 -3.69938 -9.41718e-18)
(25.0202 -3.8201 5.13611e-18)
(25.0014 -3.93019 -3.03506e-21)
(24.9837 -4.03032 0)
(24.9664 -4.12171 0)
(24.9486 -4.20339 -3.66333e-18)
(24.925 -4.27373 4.00738e-18)
(24.8835 -4.32226 -5.47903e-19)
(24.7939 -4.3338 -1.14929e-22)
(24.6383 -4.26143 6.55791e-19)
(24.3814 -4.09542 0)
(24.1113 -3.78638 0)
(23.8301 -3.50147 3.23401e-18)
(23.6943 -3.18735 3.53768e-19)
(23.5919 -2.92555 -1.2907e-19)
(10.7603 0.644309 7.23129e-19)
(11.0262 2.60381 -6.94729e-19)
(11.3294 4.19325 8.07017e-18)
(11.9828 5.97056 2.64096e-18)
(12.9075 7.62537 0)
(14.2498 9.15184 1.46989e-17)
(15.9346 10.322 2.35147e-17)
(17.796 10.9 -5.23042e-20)
(19.5347 10.8342 -2.90201e-17)
(21.0042 10.2305 -9.43068e-21)
(22.1297 9.27942 1.07157e-17)
(22.9493 8.22234 0)
(23.54 7.1859 0)
(23.9771 6.22462 0)
(24.3136 5.34013 -1.02113e-17)
(24.5806 4.52251 6.9861e-18)
(24.7959 3.7573 2.12664e-18)
(24.9695 3.03294 0)
(25.1072 2.33943 -4.46256e-21)
(25.2114 1.67347 -7.95122e-18)
(25.2789 1.04514 7.19732e-18)
(25.3209 0.433889 0)
(25.3382 -0.163621 0)
(25.3255 -0.727809 1.04949e-18)
(25.2949 -1.25387 -8.46221e-18)
(25.2583 -1.71615 0)
(25.2225 -2.0992 -8.96468e-18)
(25.1911 -2.41456 9.69267e-18)
(25.1631 -2.68407 -9.31731e-18)
(25.137 -2.91996 -6.30886e-19)
(25.1119 -3.12861 6.84498e-19)
(25.0874 -3.31455 -5.95214e-18)
(25.0635 -3.4809 -6.47324e-18)
(25.0402 -3.62883 0)
(25.0177 -3.7614 0)
(24.9961 -3.87943 1.04693e-18)
(24.9756 -3.98494 -1.14216e-18)
(24.9562 -4.07974 -4.36566e-18)
(24.9379 -4.16424 -6.13725e-18)
(24.9204 -4.24027 7.44918e-19)
(24.9034 -4.30735 -1.6315e-18)
(24.8839 -4.36624 1.33553e-18)
(24.854 -4.40943 -4.87061e-19)
(24.7964 -4.42583 0)
(24.6977 -4.38203 2.33286e-18)
(24.5342 -4.2651 3.19833e-19)
(24.3458 -4.03245 -3.49116e-19)
(24.129 -3.75563 -3.06323e-18)
(24.0127 -3.41597 0)
(23.8865 -3.12543 1.83254e-18)
(12.7291 0.422649 0)
(13.0372 2.1103 -1.17643e-18)
(13.0435 3.47073 -1.71503e-17)
(13.1859 5.07878 0)
(13.4992 6.74009 0)
(14.1967 8.42281 -1.68487e-17)
(15.3306 9.86351 -3.24235e-17)
(16.812 10.7929 1.29914e-20)
(18.3919 11.0271 1.08116e-17)
(19.8734 10.6571 3.37207e-18)
(21.1201 9.87838 0)
(22.1025 8.89025 0)
(22.8527 7.85401 -1.06853e-17)
(23.4261 6.85034 -9.82314e-18)
(23.8727 5.9048 6.74833e-18)
(24.2268 5.01928 4.52659e-21)
(24.5109 4.18485 3.76042e-18)
(24.7395 3.39193 -3.34954e-21)
(24.9213 2.63202 1.08907e-17)
(25.0625 1.90194 0)
(25.1639 1.20069 -5.11121e-18)
(25.2276 0.533176 0)
(25.2635 -0.122075 -1.03909e-18)
(25.2662 -0.725587 1.33474e-21)
(25.2462 -1.26636 7.53162e-18)
(25.2158 -1.7259 0)
(25.1834 -2.08415 7.98053e-18)
(25.1534 -2.35794 -5.91798e-22)
(25.1263 -2.57506 7.25639e-18)
(25.1012 -2.75136 -8.99744e-18)
(25.0774 -2.8974 -1.03678e-17)
(25.0546 -3.01958 6.6246e-19)
(25.0328 -3.12287 -8.88604e-21)
(25.0124 -3.21022 -7.07056e-18)
(24.9931 -3.28428 7.69818e-18)
(24.9751 -3.34749 -9.32175e-19)
(24.9583 -3.40137 4.07241e-18)
(24.9425 -3.44783 2.22023e-18)
(24.9279 -3.48837 8.49407e-18)
(24.9144 -3.52299 -6.62941e-19)
(24.9014 -3.55349 3.62076e-18)
(24.888 -3.57873 -7.9202e-19)
(24.87 -3.59689 8.66371e-19)
(24.8394 -3.59838 3.80057e-18)
(24.7866 -3.56621 -2.06966e-18)
(24.6982 -3.4861 -5.68216e-19)
(24.5871 -3.33206 3.10423e-18)
(24.4531 -3.12971 2.38127e-18)
(24.3728 -2.86525 1.8577e-18)
(24.262 -2.62882 -1.62307e-18)
(16.7651 0.200094 1.02013e-18)
(17.0367 1.33081 -9.8887e-19)
(16.884 2.25104 1.3527e-17)
(16.6702 3.40698 1.90581e-18)
(16.4769 4.73251 -1.11407e-17)
(16.5072 6.21482 3.59125e-18)
(16.9045 7.62965 1.04688e-17)
(17.6997 8.72624 1.65094e-17)
(18.745 9.29394 6.18823e-18)
(19.8528 9.33094 1.74927e-17)
(20.9 8.93134 -1.0876e-17)
(21.8076 8.25055 0)
(22.5523 7.42982 1.87004e-17)
(23.1508 6.56581 8.6248e-18)
(23.631 5.70724 3.95538e-18)
(24.0179 4.87442 -1.81226e-17)
(24.3306 4.07405 0)
(24.5829 3.30533 3.02233e-18)
(24.7841 2.56653 -1.10159e-17)
(24.9413 1.8563 7.50256e-18)
(25.0569 1.16828 4.53099e-18)
(25.1323 0.526977 -2.04957e-18)
(25.1757 -0.0768993 -1.84852e-18)
(25.1882 -0.618648 0)
(25.1771 -1.08066 0)
(25.154 -1.44252 0)
(25.1275 -1.69585 -7.89134e-19)
(25.1029 -1.86655 3.0602e-22)
(25.0808 -1.9844 9.23137e-19)
(25.061 -2.06816 -1.57213e-20)
(25.0429 -2.12857 -1.86346e-20)
(25.0263 -2.17247 0)
(25.0112 -2.20408 3.84057e-18)
(24.9972 -2.22683 6.97818e-18)
(24.9843 -2.24305 -6.0749e-18)
(24.9727 -2.25435 -6.64557e-18)
(24.962 -2.26211 -3.61294e-18)
(24.9522 -2.26719 -9.87595e-19)
(24.9434 -2.27014 -3.22981e-18)
(24.9352 -2.27201 0)
(24.9276 -2.27266 6.44348e-19)
(24.92 -2.27236 -7.04057e-19)
(24.911 -2.26983 -2.31413e-18)
(24.8973 -2.26081 -4.2079e-18)
(24.8739 -2.23727 -2.30259e-18)
(24.8349 -2.18893 -9.8208e-23)
(24.7832 -2.10147 -1.64748e-18)
(24.7183 -1.98116 -2.40666e-18)
(24.6753 -1.82063 -1.31453e-18)
(24.6086 -1.6693 1.44055e-18)
(20.805 0.06249 8.51757e-19)
(20.9785 0.635199 -8.29254e-19)
(20.8325 1.1082 -6.5386e-18)
(20.5678 1.73784 -3.2209e-18)
(20.2431 2.5284 6.33291e-18)
(19.9831 3.49811 3.0494e-18)
(19.9245 4.51468 -5.86901e-18)
(20.1333 5.42637 -1.12702e-17)
(20.5862 6.05377 -5.40313e-18)
(21.1789 6.3368 -1.01148e-17)
(21.8126 6.28546 9.47256e-18)
(22.4221 5.979 0)
(22.9636 5.50618 -2.85003e-17)
(23.4243 4.94343 3.76926e-18)
(23.8083 4.34179 0)
(24.1253 3.73087 1.27533e-17)
(24.3851 3.12627 0)
(24.5963 2.53594 0)
(24.7652 1.96411 1.2139e-17)
(24.8967 1.41443 -4.42562e-18)
(24.9939 0.888717 -6.01907e-18)
(25.0583 0.403448 3.63087e-18)
(25.096 -0.0354129 -1.63774e-18)
(25.1094 -0.416935 1.27188e-21)
(25.104 -0.721041 1.32367e-18)
(25.0893 -0.936621 1.30048e-18)
(25.0721 -1.06677 -2.80774e-18)
(25.0562 -1.13805 -4.55728e-18)
(25.0423 -1.17512 0)
(25.0302 -1.19214 -1.40009e-20)
(25.0196 -1.19735 7.70774e-18)
(25.0103 -1.19527 1.04843e-18)
(25.002 -1.18881 -1.13984e-18)
(24.9948 -1.17967 4.97118e-18)
(24.9883 -1.16915 0)
(24.9825 -1.15803 1.17904e-17)
(24.9774 -1.14685 -2.41361e-18)
(24.9728 -1.13598 -1.75437e-18)
(24.9687 -1.12558 -2.44325e-23)
(24.9651 -1.11584 1.04685e-18)
(24.9617 -1.10678 0)
(24.9584 -1.09828 -2.50109e-18)
(24.9549 -1.08985 2.72774e-18)
(24.9499 -1.07995 0)
(24.9417 -1.0653 1.62874e-18)
(24.928 -1.04117 1.78919e-18)
(24.909 -1.00121 1.95161e-18)
(24.8843 -0.945455 1.86901e-18)
(24.8663 -0.870463 1.45598e-19)
(24.8373 -0.796304 -1.11245e-18)
(23.3671 0.00946689 0)
(23.4493 0.230976 -2.77713e-18)
(23.372 0.416017 0)
(23.2134 0.675565 0)
(22.9974 1.02672 5.33474e-18)
(22.7741 1.49367 -5.17627e-18)
(22.62 2.02508 1.01242e-17)
(22.585 2.55833 0)
(22.6871 2.99281 1.37281e-17)
(22.9017 3.26433 -8.65847e-18)
(23.1774 3.35682 4.07164e-18)
(23.4733 3.29042 -1.13632e-17)
(23.7604 3.10226 1.06645e-17)
(24.0202 2.83387 0)
(24.2462 2.51866 0)
(24.4382 2.17995 1.11332e-17)
(24.5983 1.83279 0)
(24.7298 1.48681 2.34225e-18)
(24.8354 1.14838 -1.92681e-17)
(24.9175 0.823057 0)
(24.9781 0.514935 0)
(25.0184 0.234713 -3.21184e-18)
(25.0418 -0.0114159 -1.45163e-18)
(25.0508 -0.21726 1.30775e-18)
(25.0487 -0.370359 -2.34909e-18)
(25.041 -0.467498 -3.46647e-18)
(25.0321 -0.51531 -3.74174e-18)
(25.0241 -0.532375 2.69089e-18)
(25.0174 -0.533439 -5.83301e-18)
(25.0117 -0.526522 7.89275e-18)
(25.007 -0.515834 0)
(25.003 -0.503517 2.79337e-18)
(24.9996 -0.490792 2.02327e-18)
(24.9967 -0.478279 -5.50523e-18)
(24.9942 -0.466402 4.79823e-18)
(24.9921 -0.455298 -5.22587e-18)
(24.9902 -0.44507 -1.42915e-18)
(24.9886 -0.435743 1.55546e-18)
(24.9872 -0.427264 0)
(24.9859 -0.419622 -9.27717e-19)
(24.9848 -0.412742 2.02672e-18)
(24.9837 -0.40653 -1.10947e-18)
(24.9826 -0.400775 0)
(24.9812 -0.394999 0)
(24.9789 -0.38817 -7.21723e-19)
(24.9751 -0.378614 7.92531e-19)
(24.9696 -0.364115 -1.72279e-18)
(24.9623 -0.343956 -1.88476e-18)
(24.9565 -0.316873 0)
(24.9472 -0.289006 1.12435e-18)
(24.5072 -0.00159948 0)
(24.537 0.0645781 2.33242e-18)
(24.5092 0.120614 -4.59823e-18)
(24.4471 0.202541 -1.37257e-17)
(24.3565 0.320048 4.50719e-18)
(24.2503 0.487414 -1.31733e-17)
(24.1572 0.691856 -2.07832e-21)
(24.0991 0.916651 4.10602e-18)
(24.093 1.12195 -7.87631e-18)
(24.1387 1.27592 -7.44207e-18)
(24.2233 1.35806 1.40249e-17)
(24.3282 1.37173 2.6319e-17)
(24.4399 1.32444 6.14339e-18)
(24.5482 1.23197 -5.6984e-18)
(24.647 1.1091 -1.99415e-21)
(24.7335 0.967904 -1.95152e-17)
(24.8072 0.81722 -8.97709e-18)
(24.8685 0.663506 1.23456e-17)
(24.918 0.511338 9.46445e-21)
(24.9565 0.364736 0)
(24.9848 0.226929 -9.3829e-18)
(25.0035 0.103383 5.67868e-18)
(25.0144 -0.00221377 -5.04562e-22)
(25.0186 -0.0872251 -2.07632e-22)
(25.0179 -0.146332 -1.04119e-18)
(25.0148 -0.179172 4.09533e-18)
(25.0112 -0.191008 4.41981e-18)
(25.0081 -0.191113 5.97569e-18)
(25.0056 -0.185907 3.87485e-18)
(25.0036 -0.178606 5.60272e-18)
(25.002 -0.170759 0)
(25.0007 -0.163054 -3.29779e-18)
(24.9996 -0.155826 5.37936e-18)
(24.9988 -0.149185 9.76783e-19)
(24.998 -0.143191 -3.18476e-18)
(24.9974 -0.137807 0)
(24.9969 -0.13301 2.52313e-18)
(24.9964 -0.128748 -1.37693e-18)
(24.9961 -0.124964 -1.32223e-23)
(24.9957 -0.121616 -1.64188e-18)
(24.9954 -0.118654 0)
(24.9952 -0.116025 -9.58802e-22)
(24.9949 -0.113655 3.2074e-18)
(24.9946 -0.111416 -1.16907e-18)
(24.9941 -0.109049 -1.91252e-18)
(24.9932 -0.106099 6.98689e-19)
(24.992 -0.101961 0)
(24.9903 -0.0962925 0)
(24.9889 -0.0887221 2.26905e-19)
(24.9865 -0.0806694 -1.23814e-18)
(24.8829 -0.00146233 0)
(24.8917 0.0140505 3.89313e-18)
(24.8842 0.0272855 1.93114e-18)
(24.8666 0.0473317 7.70359e-18)
(24.8394 0.0775841 -7.60717e-18)
(24.8048 0.123335 7.44696e-18)
(24.7705 0.182676 0)
(24.7429 0.252967 0)
(24.7292 0.322923 6.71973e-18)
(24.7319 0.381824 -6.39032e-18)
(24.7494 0.420487 -2.42111e-17)
(24.7767 0.43685 -1.70655e-17)
(24.8091 0.431859 1.06524e-17)
(24.8429 0.409152 1.49003e-17)
(24.8754 0.373351 4.60698e-18)
(24.9048 0.328786 8.52923e-18)
(24.9305 0.27901 -7.86155e-18)
(24.9521 0.22689 -4.23523e-21)
(24.9697 0.174583 9.93453e-18)
(24.9834 0.123994 -6.05101e-18)
(24.9935 0.0766986 1.10312e-17)
(25.0001 0.0348824 5.01163e-18)
(25.0039 -6.41349e-05 -2.26987e-18)
(25.0054 -0.0271674 -2.04928e-18)
(25.0052 -0.044657 2.7651e-18)
(25.0042 -0.0530489 3.62844e-18)
(25.0031 -0.0547301 1.84874e-22)
(25.0022 -0.0530766 2.11739e-18)
(25.0015 -0.0501629 0)
(25.0009 -0.046943 -1.23897e-18)
(25.0005 -0.0438293 1.3442e-18)
(25.0001 -0.0409699 -2.9204e-18)
(24.9999 -0.0384144 -3.17295e-18)
(24.9997 -0.0361545 -6.90997e-18)
(24.9995 -0.0341769 0)
(24.9994 -0.032446 2.04861e-18)
(24.9993 -0.0309375 -2.23194e-18)
(24.9992 -0.0296222 -1.21721e-18)
(24.9991 -0.028474 -1.32838e-18)
(24.999 -0.0274723 2.89999e-18)
(24.999 -0.0265971 -1.58312e-18)
(24.9989 -0.0258302 3.45531e-18)
(24.9989 -0.0251504 -2.83024e-18)
(24.9988 -0.0245283 -1.0314e-18)
(24.9987 -0.0239113 1.12419e-18)
(24.9986 -0.0232025 -2.46117e-18)
(24.9983 -0.0222723 0)
(24.998 -0.0210244 -1.46559e-18)
(24.9977 -0.0193706 0)
(24.9973 -0.0175724 8.71733e-19)
(24.9779 -0.000470942 8.19334e-19)
(24.98 0.0024083 -1.6224e-18)
(24.9784 0.00486755 3.22661e-18)
(24.9747 0.00870249 0)
(24.9686 0.0147427 6.40344e-18)
(24.9604 0.0243688 6.28426e-18)
(24.9515 0.0375384 -6.1708e-18)
(24.9432 0.054194 -1.19172e-17)
(24.9376 0.0720093 -1.1474e-17)
(24.9357 0.0884087 0)
(24.9378 0.100655 1.0411e-17)
(24.9429 0.107534 0)
(24.95 0.108779 4.60955e-18)
(24.9581 0.104965 -4.31322e-18)
(24.9663 0.0971084 -4.01027e-18)
(24.9739 0.0863325 1.18122e-22)
(24.9808 0.0736712 1.18115e-22)
(24.9867 0.0600364 3.16456e-18)
(24.9915 0.0461453 -2.90714e-18)
(24.9952 0.0326462 1.06402e-17)
(24.998 0.0200756 -7.28297e-18)
(24.9998 0.00911914 0)
(25.0008 0.000118793 0)
(25.0012 -0.00658374 -1.81013e-18)
(25.0012 -0.0106081 4.07496e-19)
(25.0009 -0.0122341 1.03875e-22)
(25.0007 -0.0122277 -3.46342e-18)
(25.0005 -0.0115078 2.02667e-22)
(25.0003 -0.0105784 -2.02414e-18)
(25.0002 -0.00965261 2.19301e-18)
(25.0001 -0.00880971 -3.56508e-18)
(25 -0.0080685 1.29069e-18)
(25 -0.00742819 0)
(24.9999 -0.00687758 1.5265e-18)
(24.9999 -0.006407 -3.32063e-18)
(24.9999 -0.0060035 6.06567e-23)
(24.9999 -0.00565805 3.94156e-18)
(24.9998 -0.00536145 2.14886e-18)
(24.9998 -0.00510611 -1.1723e-18)
(24.9998 -0.00488599 1.27935e-18)
(24.9998 -0.00469579 1.39607e-18)
(24.9998 -0.00453085 -1.52309e-18)
(24.9998 -0.00438645 -1.66286e-18)
(24.9998 -0.00425705 2.72536e-18)
(24.9998 -0.00413392 3.02523e-25)
(24.9998 -0.00400069 1.08304e-18)
(24.9997 -0.00383539 -5.89788e-19)
(24.9997 -0.00361857 6.44281e-19)
(24.9996 -0.0033336 1.7555e-19)
(24.9996 -0.00301911 -9.57089e-19)
(24.9967 -9.98198e-05 -6.7802e-19)
(24.997 0.000326588 2.69532e-18)
(24.9968 0.000689783 -5.37959e-18)
(24.9962 0.00126936 0)
(24.9951 0.00221684 5.36997e-18)
(24.9937 0.00379859 -1.05807e-17)
(24.9919 0.00606707 5.21272e-18)
(24.9902 0.00910493 1.51626e-17)
(24.9888 0.0125587 4.88549e-18)
(24.988 0.0159743 1.87226e-17)
(24.988 0.0187719 -1.78502e-17)
(24.9887 0.0206175 0)
(24.9899 0.0213241 -9.85877e-22)
(24.9913 0.0209572 -7.46523e-18)
(24.9929 0.0196625 -6.96602e-18)
(24.9945 0.0176552 0)
(24.9959 0.0151579 0)
(24.9971 0.0123851 5.53472e-18)
(24.9981 0.00951409 -5.09219e-18)
(24.999 0.00670767 -4.66852e-18)
(24.9995 0.00410158 0)
(24.9999 0.00186316 -3.88736e-18)
(25.0001 4.67767e-05 5.29421e-18)
(25.0002 -0.00125264 -1.59669e-18)
(25.0002 -0.00197767 1.79896e-18)
(25.0002 -0.00221717 -1.41763e-18)
(25.0001 -0.00214984 -3.05977e-18)
(25.0001 -0.00196587 -1.65351e-18)
(25.0001 -0.00175962 -3.57576e-18)
(25 -0.00156719 0)
(25 -0.00139948 0)
(25 -0.00125689 0)
(25 -0.00113706 0)
(25 -0.0010364 2.69456e-18)
(25 -0.000952098 0)
(25 -0.000881077 1.59603e-18)
(25 -0.00082121 1.0688e-23)
(25 -0.000770503 -1.89438e-18)
(25 -0.000727381 -2.06617e-18)
(25 -0.000690606 -1.60147e-24)
(25 -0.000659142 2.45881e-18)
(25 -0.000632112 -2.68146e-18)
(25 -0.000608689 0)
(25 -0.000588018 1.59794e-18)
(25 -0.000568914 0)
(25 -0.00054916 -9.51614e-19)
(25 -0.000525779 0)
(25 -0.000495803 -1.13109e-18)
(25 -0.000456723 -9.2406e-19)
(24.9999 -0.000413084 -3.35666e-19)
(24.9996 -1.56009e-05 -1.11881e-18)
(24.9996 3.52026e-05 4.29436e-25)
(24.9996 7.82082e-05 4.47019e-18)
(24.9995 0.000147959 -4.49832e-18)
(24.9994 0.00026574 -4.48928e-18)
(24.9992 0.00047062 -8.87789e-18)
(24.9989 0.000777098 0)
(24.9987 0.00120908 -8.54461e-18)
(24.9984 0.00172744 8.28992e-18)
(24.9982 0.00227265 -1.66823e-23)
(24.9982 0.0027534 2.04362e-22)
(24.9982 0.00310714 0)
(24.9984 0.00328533 6.85626e-18)
(24.9986 0.00328787 -6.44847e-18)
(24.9988 0.00312888 1.20701e-17)
(24.9991 0.00283851 -5.62427e-18)
(24.9993 0.00245295 0)
(24.9995 0.00201054 4.82992e-18)
(24.9997 0.00154437 -8.90463e-18)
(24.9998 0.00108562 3.13317e-23)
(24.9999 0.000660284 3.49394e-24)
(25 0.000299606 2.6259e-24)
(25 1.03573e-05 3.10509e-18)
(25 -0.000188525 2.81273e-18)
(25 -0.000291846 3.17266e-19)
(25 -0.000318467 0)
(25 -0.000299998 -1.34975e-18)
(25 -0.000266871 1.45871e-18)
(25 -0.00023286 -3.35145e-24)
(25 -0.000202641 0)
(25 -0.000177217 -1.85092e-18)
(25 -0.000156207 4.01935e-18)
(25 -0.000138967 -6.54787e-18)
(25 -0.000124781 2.37475e-18)
(25 -0.000113111 1.29073e-18)
(25 -0.000103435 -1.40581e-18)
(25 -9.53917e-05 0)
(25 -8.86631e-05 -1.32303e-25)
(25 -8.30045e-05 -3.63613e-18)
(25 -7.82266e-05 -1.64537e-24)
(25 -7.41756e-05 -1.08091e-18)
(25 -7.07251e-05 -8.18469e-25)
(25 -6.77619e-05 1.28524e-18)
(25 -6.51789e-05 0)
(25 -6.28434e-05 0)
(25 -6.05128e-05 -5.51664e-25)
(25 -5.78628e-05 0)
(25 -5.45399e-05 9.90995e-19)
(25 -5.02406e-05 1.3486e-18)
(25 -4.53911e-05 -2.9374e-19)
(25 -1.86248e-06 0)
(25 3.03641e-06 9.21665e-19)
(25 7.14205e-06 -3.70317e-18)
(25 1.38802e-05 7.47322e-18)
(24.9999 2.55841e-05 3.74091e-18)
(24.9999 4.67008e-05 7.06006e-24)
(24.9999 7.95083e-05 -8.10347e-25)
(24.9999 0.000127935 1.43974e-17)
(24.9998 0.000188917 -7.01127e-18)
(24.9998 0.000256631 -6.77148e-18)
(24.9998 0.000320146 2.35407e-23)
(24.9998 0.000370892 -6.19894e-18)
(24.9998 0.000400943 5.88618e-18)
(24.9998 0.000408476 -5.55434e-18)
(24.9998 0.000394346 -5.21414e-18)
(24.9999 0.000361571 4.87299e-18)
(24.9999 0.000314646 -9.07528e-18)
(24.9999 0.000258837 -8.41076e-18)
(25 0.000198914 1.16542e-17)
(25 0.000139488 -3.57489e-18)
(25 8.4426e-05 0)
(25 3.82868e-05 0)
(25 1.61178e-06 -5.45452e-18)
(25 -2.26125e-05 -1.23684e-18)
(25 -3.43823e-05 1.39677e-18)
(25 -3.65441e-05 -2.20398e-18)
(25 -3.34897e-05 5.94584e-18)
(25 -2.90162e-05 -1.28508e-18)
(25 -2.4708e-05 -3.85344e-25)
(25 -2.10293e-05 -1.50451e-18)
(25 -1.8027e-05 4.88989e-18)
(25 -1.56073e-05 1.76941e-18)
(25 -1.3664e-05 -1.92125e-18)
(25 -1.20945e-05 2.0898e-18)
(25 -1.08246e-05 -1.13554e-18)
(25 -9.78674e-06 -2.47278e-18)
(25 -8.93514e-06 4.03631e-18)
(25 -8.23083e-06 -4.39658e-18)
(25 -7.64462e-06 6.38876e-18)
(25 -7.15421e-06 -1.74098e-18)
(25 -6.74193e-06 1.89752e-18)
(25 -6.39356e-06 1.03375e-18)
(25 -6.09682e-06 0)
(25 -5.8408e-06 -1.22963e-18)
(25 -5.61332e-06 1.33805e-18)