/*--------------------------------*- C++ -*----------------------------------*\
  =========                 |
  \\      /  F ield         | OpenFOAM: The Open Source CFD Toolbox
   \\    /   O peration     | Website:  https://openfoam.org
    \\  /    A nd           | Version:  8
     \\/     M anipulation  |
\*---------------------------------------------------------------------------*/
FoamFile
{
    version     2.0;
    format      ascii;
    class       volScalarField;
    location    "8";
    object      p;
}
// * * * * * * * * * * * * * * * * * * * * * * * * * * * * * * * * * * * * * //

dimensions      [0 2 -2 0 0 0 0];

internalField   nonuniform List<scalar> 
277560
(
-0.0102239
-0.000190986
-0.00102151
-0.00015222
0.000649763
0.0014405
0.00226858
0.00313081
0.0040354
0.00498712
0.00599065
0.0070481
0.00816177
0.00933155
0.0105576
0.0118381
0.0131714
0.0145541
0.0159834
0.0174546
0.0189638
0.0205056
0.0220753
0.0236668
0.025275
0.0268935
0.028517
0.0301389
0.0317541
0.0333563
0.0349397
0.0364995
0.0380291
0.0395257
0.0409831
0.0423992
0.0437686
0.0450899
0.046359
0.047575
0.048735
0.049839
0.0508853
0.0518746
0.0528063
0.0536819
0.0545017
0.055268
0.0559818
0.0566459
0.057262
0.0578332
0.0583617
0.0588508
0.0593032
0.059722
0.0601103
0.060471
0.0608073
0.061122
0.0614181
0.0616984
0.0619656
0.0622222
0.0624708
0.0627133
0.0629525
0.0631898
0.0634277
0.0636672
0.0639105
0.0641585
0.0644132
0.0646749
0.0649455
0.0652253
0.0655157
0.0658168
0.0661301
0.0664552
0.0667935
0.0671446
0.0675097
0.0678882
0.0682813
0.0686882
0.0691101
0.069546
0.0699971
0.0704623
0.0709428
0.0714373
0.0719472
0.072471
0.0730101
0.0735629
0.074131
0.0747125
0.0753091
0.0759189
0.0765436
0.0771812
0.0778335
0.0784986
0.0791779
0.0798699
0.080576
0.0812947
0.0820273
0.0827723
0.0835313
0.0843025
0.0850876
0.0858848
0.0866955
0.0875199
0.0883627
0.0892064
0.0899905
0.0907866
-0.00943922
-0.000856409
-0.000924576
-0.000180793
0.000629451
0.00141912
0.00224115
0.00309823
0.00399717
0.00494355
0.0059415
0.00699378
0.00810206
0.00926687
0.0104878
0.0117635
0.0130919
0.01447
0.0158946
0.0173615
0.0188663
0.0204041
0.0219696
0.0235574
0.0251618
0.0267769
0.0283969
0.0300158
0.0316279
0.0332272
0.0348085
0.0363652
0.0378933
0.039387
0.040843
0.0422565
0.0436249
0.0449439
0.046212
0.047426
0.0485853
0.0496875
0.0507332
0.0517208
0.052652
0.053526
0.0543454
0.0551102
0.0558237
0.0564864
0.0571022
0.057672
0.0582002
0.0586881
0.0591401
0.0595577
0.0599456
0.0603052
0.0606412
0.0609548
0.0612506
0.0615298
0.0617969
0.0620524
0.0623008
0.0625425
0.0627816
0.0630181
0.0632559
0.0634947
0.063738
0.0639853
0.06424
0.0645011
0.0647718
0.0650509
0.0653414
0.065642
0.0659553
0.0662799
0.0666182
0.0669688
0.067334
0.067712
0.0681051
0.0685116
0.0689335
0.0693689
0.0698201
0.0702848
0.0707654
0.0712596
0.0717696
0.072293
0.0728323
0.0733848
0.0739531
0.0745344
0.0751312
0.075741
0.076366
0.0770038
0.0776565
0.0783218
0.0790018
0.0796943
0.0804012
0.0811205
0.081854
0.0825998
0.0833598
0.0841321
0.0849184
0.0857168
0.086529
0.087355
0.0881997
0.0890442
0.089829
0.09063
-0.00934834
-0.00100576
-0.000906653
-0.000212798
0.000596244
0.0013779
0.00219011
0.00303763
0.00392689
0.00486375
0.00585225
0.0068953
0.00799447
0.00915041
0.0103626
0.0116298
0.0129497
0.0143198
0.0157363
0.0171954
0.0186926
0.020223
0.0217814
0.0233624
0.0249601
0.0265689
0.0281828
0.0297959
0.0314024
0.0329966
0.0345728
0.0361252
0.037649
0.0391385
0.0405907
0.0420003
0.0433652
0.0446808
0.0459458
0.0471569
0.0483133
0.0494129
0.0504559
0.0514412
0.0523699
0.0532419
0.054059
0.0548219
0.0555332
0.0561942
0.0568079
0.0573762
0.0579024
0.0583889
0.058839
0.0592554
0.0596414
0.06
0.0603342
0.0606469
0.0609412
0.0612198
0.0614854
0.0617407
0.0619878
0.0622295
0.0624675
0.0627042
0.0629411
0.0631804
0.063423
0.063671
0.0639251
0.0641871
0.0644574
0.0647375
0.0650277
0.0653293
0.0656424
0.0659682
0.0663065
0.0666584
0.0670235
0.0674029
0.0677961
0.068204
0.068626
0.0690631
0.0695143
0.0699808
0.0704615
0.0709576
0.0714677
0.0719931
0.0725325
0.0730872
0.0736556
0.0742392
0.0748363
0.0754485
0.0760739
0.0767141
0.0773674
0.0780353
0.0787161
0.0794112
0.080119
0.080841
0.0815756
0.0823242
0.0830853
0.0838604
0.084648
0.0854494
0.086263
0.0870921
0.0879381
0.0887863
0.089572
0.0903769
-0.00937037
-0.00101993
-0.000921837
-0.000252985
0.000546876
0.00131433
0.00211212
0.00294523
0.0038202
0.00474289
0.00571752
0.00674687
0.00783266
0.00897539
0.0101747
0.0114292
0.0127368
0.0140947
0.0154994
0.0169469
0.0184328
0.0199522
0.0215
0.0230706
0.0246585
0.0262577
0.0278625
0.0294668
0.031065
0.0326513
0.0342199
0.0357656
0.0372823
0.038766
0.0402116
0.041616
0.0429748
0.0442858
0.0455452
0.046752
0.0479034
0.0489992
0.0500376
0.0510195
0.0519439
0.0528127
0.0536257
0.0543857
0.0550931
0.0557514
0.0563615
0.0569272
0.05745
0.0579341
0.0583809
0.0587952
0.0591782
0.0595347
0.0598661
0.0601771
0.0604689
0.060746
0.0610095
0.0612636
0.061509
0.0617498
0.0619865
0.0622227
0.0624587
0.0626978
0.0629398
0.0631879
0.0634416
0.0637038
0.0639739
0.0642545
0.0645446
0.0648468
0.0651599
0.0654864
0.0658247
0.0661774
0.0665427
0.0669229
0.0673164
0.0677252
0.0681475
0.0685856
0.0690373
0.0695049
0.0699862
0.0704834
0.0709943
0.071521
0.0720613
0.0726174
0.0731868
0.0737719
0.0743702
0.074984
0.0756108
0.0762529
0.0769077
0.0775776
0.0782602
0.0789574
0.0796672
0.0803916
0.0811284
0.0818795
0.0826431
0.0834209
0.0842111
0.0850154
0.0858318
0.086664
0.0875131
0.0883646
0.089153
0.0899605
-0.00937475
-0.0010097
-0.000952906
-0.000301433
0.000481421
0.00122937
0.002008
0.00282204
0.00367815
0.00458223
0.00553858
0.00654997
0.00761815
0.00874361
0.00992598
0.0111639
0.0124552
0.0137971
0.0151863
0.0166186
0.0180896
0.0195946
0.0211283
0.0226854
0.0242601
0.0258467
0.0274394
0.0290323
0.0306194
0.0321952
0.0337539
0.0352901
0.0367981
0.0382735
0.039711
0.0411079
0.0424592
0.0437633
0.045016
0.0462165
0.0473618
0.0484518
0.0494847
0.0504612
0.0513805
0.0522443
0.0530527
0.0538079
0.054511
0.0551648
0.0557709
0.0563323
0.0568514
0.0573314
0.0577749
0.0581852
0.0585651
0.0589181
0.0592468
0.0595545
0.059844
0.0601184
0.0603801
0.0606319
0.0608762
0.0611152
0.0613514
0.0615864
0.0618223
0.0620605
0.0623028
0.0625503
0.0628046
0.0630665
0.0633374
0.0636177
0.0639088
0.0642109
0.0645253
0.0648517
0.0651915
0.0655442
0.0659111
0.0662916
0.0666868
0.067096
0.0675204
0.0679589
0.0684129
0.0688812
0.0693649
0.069863
0.0703765
0.0709042
0.0714474
0.0720047
0.0725773
0.0731637
0.0737654
0.0743807
0.0750112
0.0756549
0.0763136
0.0769854
0.0776719
0.0783714
0.0790853
0.0798121
0.0805531
0.0813069
0.0820749
0.0828556
0.0836504
0.0844576
0.0852788
0.0861141
0.0869682
0.0878224
0.0886152
0.0894239
-0.0093741
-0.000984678
-0.000993854
-0.000358161
0.000400694
0.00112415
0.00187897
0.00266942
0.00350222
0.00438343
0.00531727
0.00630661
0.00735312
0.00845737
0.00961889
0.0108364
0.0121077
0.01343
0.0148
0.0162135
0.0176663
0.0191534
0.0206698
0.02221
0.0237685
0.0253396
0.0269173
0.0284958
0.0300692
0.0316319
0.0331783
0.0347026
0.0362
0.0376644
0.0390928
0.0404792
0.0418223
0.0431167
0.044362
0.0455536
0.0466922
0.0477741
0.0488008
0.0497698
0.0506834
0.0515402
0.0523432
0.0530919
0.05379
0.0544376
0.055039
0.0555946
0.0561093
0.0565837
0.0570231
0.0574282
0.0578044
0.0581526
0.058478
0.0587815
0.0590683
0.059339
0.0595986
0.0598476
0.0600905
0.0603274
0.0605626
0.0607959
0.0610313
0.0612683
0.0615104
0.061757
0.0620114
0.0622726
0.0625437
0.0628236
0.0631153
0.0634172
0.0637322
0.0640587
0.0643994
0.0647525
0.0651205
0.0655016
0.0658982
0.0663083
0.0667343
0.0671741
0.0676299
0.0680997
0.0685856
0.0690855
0.0696014
0.0701313
0.0706771
0.0712367
0.0718123
0.0724013
0.0730062
0.0736244
0.0742583
0.0749052
0.0755675
0.0762427
0.0769331
0.0776363
0.0783543
0.079085
0.0798304
0.0805885
0.081361
0.0821462
0.0829457
0.0837577
0.0845838
0.085424
0.0862835
0.0871427
0.0879399
0.0887526
-0.00937426
-0.000948386
-0.00104243
-0.000423545
0.000305166
0.000999327
0.00172585
0.00248828
0.00329355
0.00414771
0.00505501
0.0060183
0.00703927
0.00811845
0.0092554
0.0104488
0.0116965
0.0129956
0.0143429
0.0157342
0.0171653
0.0186313
0.0201271
0.0216474
0.0231866
0.024739
0.0262988
0.0278602
0.0294173
0.0309644
0.0324959
0.0340062
0.03549
0.0369425
0.0383583
0.0397341
0.0410656
0.0423502
0.0435847
0.0447676
0.0458961
0.04697
0.0479875
0.0489492
0.0498542
0.0507041
0.051499
0.0522414
0.0529318
0.0535734
0.0541674
0.0547176
0.0552252
0.0556946
0.0561273
0.0565278
0.0568977
0.0572417
0.0575614
0.0578614
0.0581432
0.0584112
0.0586666
0.0589135
0.0591528
0.0593883
0.0596206
0.0598531
0.060086
0.0603226
0.0605626
0.0608092
0.0610617
0.0613233
0.061593
0.0618736
0.0621641
0.0624672
0.0627815
0.0631096
0.0634499
0.063805
0.0641731
0.0645566
0.0649537
0.0653666
0.0657935
0.0662364
0.0666935
0.0671668
0.0676543
0.0681581
0.068676
0.0692102
0.0697583
0.0703226
0.0709007
0.0714948
0.0721025
0.072726
0.0733629
0.0740155
0.0746812
0.0753623
0.0760564
0.0767657
0.0774878
0.0782248
0.0789746
0.0797392
0.0805163
0.0813082
0.0821126
0.0829315
0.0837627
0.0846101
0.0854747
0.0863415
0.0871427
0.0879622
-0.00937325
-0.000905562
-0.00109779
-0.000497722
0.000195246
0.000855579
0.00154943
0.00227962
0.00305323
0.00387634
0.00475316
0.00568657
0.00667823
0.00772866
0.00883741
0.0100031
0.0112237
0.0124962
0.0138174
0.0151832
0.0165892
0.0180308
0.0195028
0.021
0.0225169
0.0240477
0.0255868
0.0271283
0.0286664
0.0301954
0.0317096
0.0332035
0.0346718
0.0361095
0.0375116
0.0388742
0.0401928
0.0414653
0.042688
0.0438597
0.0449775
0.046041
0.0470486
0.0480007
0.0488965
0.0497374
0.0505238
0.0512576
0.0519399
0.0525735
0.0531599
0.0537024
0.0542029
0.054665
0.055091
0.0554846
0.0558484
0.0561859
0.0565002
0.0567944
0.0570714
0.0573345
0.057586
0.0578288
0.0580652
0.0582973
0.0585272
0.0587568
0.058988
0.0592221
0.0594609
0.0597055
0.0599575
0.0602176
0.0604873
0.060767
0.0610581
0.0613608
0.0616762
0.0620043
0.0623463
0.0627019
0.0630721
0.0634566
0.0638564
0.0642707
0.0647007
0.0651455
0.0656063
0.0660819
0.0665735
0.0670799
0.0676024
0.0681396
0.0686927
0.0692604
0.0698439
0.0704417
0.0710552
0.0716828
0.072326
0.0729829
0.0736552
0.0743411
0.075042
0.0757564
0.0764856
0.077228
0.0779851
0.0787554
0.0795401
0.0803379
0.0811501
0.0819752
0.0828143
0.0836681
0.0845411
0.0854143
0.0862227
0.0870464
-0.00936907
-0.000859695
-0.00115957
-0.000580816
7.12189e-05
0.000693425
0.00135041
0.00204425
0.00278225
0.00357044
0.00441303
0.00531287
0.0062716
0.00728974
0.00836681
0.00950142
0.0106914
0.011934
0.0132258
0.0145627
0.0159406
0.0173545
0.0187997
0.0202706
0.0217621
0.0232684
0.0247838
0.0263027
0.0278191
0.0293274
0.0308218
0.0322969
0.0337474
0.0351683
0.0365547
0.0379018
0.0392063
0.0404645
0.0416742
0.0428325
0.0439384
0.0449897
0.0459863
0.0469269
0.0478125
0.0486426
0.0494194
0.050143
0.0508163
0.0514402
0.0520181
0.0525512
0.0530437
0.053497
0.0539154
0.0543006
0.0546572
0.054987
0.0552946
0.0555819
0.0558533
0.0561104
0.0563574
0.0565953
0.0568279
0.0570558
0.0572827
0.0575088
0.0577376
0.0579691
0.0582063
0.0584489
0.0586999
0.0589587
0.0592281
0.0595072
0.0597986
0.0601012
0.0604176
0.0607463
0.0610899
0.0614467
0.0618191
0.0622054
0.0626078
0.0630245
0.0634578
0.0639055
0.06437
0.0648491
0.065345
0.0658554
0.0663826
0.0669242
0.0674825
0.0680551
0.0686442
0.0692473
0.0698669
0.0705002
0.0711498
0.0718129
0.072492
0.0731845
0.0738927
0.074614
0.0753507
0.0761005
0.0768654
0.0776432
0.078436
0.0792417
0.0800622
0.0808954
0.0817432
0.0826053
0.0834874
0.084369
0.0851849
0.0860155
-0.00936068
-0.000813052
-0.00122764
-0.000672868
-6.659e-05
0.000513431
0.00112953
0.00178312
0.0024817
0.00323127
0.004036
0.00489872
0.00582105
0.00680345
0.00784543
0.00894558
0.0101018
0.0113111
0.0125702
0.0138752
0.0152217
0.0166049
0.0180201
0.0194618
0.0209248
0.0224036
0.0238925
0.0253859
0.0268779
0.0283629
0.0298351
0.0312891
0.0327195
0.0341214
0.0354897
0.0368198
0.0381081
0.0393505
0.0405451
0.0416889
0.0427808
0.0438186
0.0448022
0.0457303
0.0466038
0.0474222
0.0481874
0.0489
0.0495623
0.0501757
0.0507431
0.0512664
0.0517488
0.0521926
0.0526013
0.0529776
0.0533249
0.0536463
0.0539454
0.0542254
0.0544896
0.0547407
0.0549816
0.0552145
0.0554418
0.0556657
0.0558882
0.0561113
0.0563365
0.0565658
0.0568002
0.0570415
0.0572906
0.0575489
0.0578171
0.0580964
0.0583873
0.058691
0.0590076
0.0593382
0.0596826
0.0600419
0.0604159
0.0608054
0.06121
0.0616307
0.0620666
0.062519
0.0629868
0.063471
0.0639707
0.064487
0.0650185
0.0655665
0.0661296
0.0667091
0.0673034
0.067914
0.0685392
0.0691804
0.069836
0.0705075
0.0711931
0.0718943
0.0726094
0.0733398
0.074084
0.0748432
0.075616
0.0764036
0.0772046
0.0780204
0.0788495
0.0796931
0.0805497
0.0814226
0.0823137
0.0832066
0.08403
0.0848705
-0.00934742
-0.000767042
-0.0013019
-0.000773859
-0.000217913
0.000316074
0.00088742
0.001497
0.00215253
0.00285992
0.00362329
0.00444544
0.0053279
0.00627113
0.00727461
0.00833693
0.00945593
0.0106288
0.0118521
0.013122
0.014434
0.0157836
0.0171658
0.0185755
0.0200072
0.0214556
0.0229151
0.0243802
0.0258451
0.0273041
0.0287516
0.0301822
0.0315903
0.032971
0.0343191
0.0356304
0.0369001
0.0381254
0.0393028
0.0404308
0.0415066
0.0425298
0.0434984
0.0444129
0.0452723
0.0460779
0.0468297
0.0475302
0.0481798
0.0487816
0.0493368
0.0498491
0.0503197
0.050753
0.0511503
0.0515163
0.0518528
0.0521647
0.0524542
0.0527261
0.0529821
0.0532265
0.0534603
0.0536876
0.053909
0.0541283
0.054346
0.0545655
0.0547869
0.0550135
0.0552451
0.0554847
0.0557318
0.0559894
0.0562565
0.056536
0.0568267
0.0571314
0.0574486
0.057781
0.0581269
0.0584888
0.058865
0.0592579
0.0596655
0.0600902
0.0605299
0.060987
0.0614592
0.0619489
0.0624537
0.0629759
0.0635132
0.0640677
0.0646371
0.0652237
0.0658249
0.0664431
0.0670757
0.067725
0.0683886
0.0690686
0.0697626
0.0704729
0.0711968
0.0719368
0.0726902
0.0734594
0.0742418
0.0750398
0.0758509
0.0766774
0.0775169
0.0783715
0.0792389
0.0801232
0.0810256
0.08193
0.0827629
0.0836125
-0.00932881
-0.00072268
-0.00138236
-0.000883763
-0.000382448
0.000101868
0.000624789
0.00118679
0.00179576
0.00245749
0.00317601
0.00395405
0.00479313
0.00569369
0.00665521
0.0076763
0.00875482
0.00988795
0.0110723
0.012304
0.0135787
0.0148917
0.0162382
0.017613
0.0190107
0.0204261
0.0218536
0.0232876
0.0247227
0.0261533
0.0275736
0.0289782
0.0303618
0.031719
0.0330451
0.0343352
0.0355849
0.0367909
0.0379497
0.0390597
0.0401182
0.0411247
0.0420772
0.0429759
0.0438201
0.0446109
0.0453484
0.0460347
0.0466706
0.0472589
0.047801
0.0483002
0.0487583
0.0491787
0.0495638
0.0499174
0.0502424
0.050543
0.0508227
0.051085
0.0513327
0.0515688
0.0517957
0.0520158
0.0522315
0.0524449
0.052658
0.0528727
0.0530907
0.0533135
0.0535428
0.0537797
0.0540257
0.0542815
0.0545484
0.0548271
0.0551188
0.0554236
0.0557427
0.0560761
0.0564248
0.0567886
0.0571686
0.0575641
0.0579764
0.0584046
0.0588498
0.0593111
0.0597896
0.0602842
0.0607959
0.0613238
0.0618687
0.0624295
0.0630072
0.0636007
0.0642108
0.0648364
0.0654785
0.0661358
0.0668095
0.0674979
0.0682026
0.0689218
0.069657
0.0704063
0.0711715
0.0719507
0.0727453
0.0735537
0.0743774
0.0752148
0.0760672
0.076933
0.0778137
0.0787096
0.0796258
0.0805419
0.0813866
0.0822447
-0.00930453
-0.000680606
-0.00146893
-0.00100246
-0.000559913
-0.000128723
0.000342237
0.00085319
0.00141214
0.00202467
0.00269478
0.00342515
0.00421732
0.00507175
0.00598791
0.00696445
0.00799923
0.00908945
0.0102317
0.0114222
0.0126566
0.0139302
0.0152381
0.0165753
0.0179365
0.0193163
0.0207092
0.0221098
0.0235126
0.0249121
0.0263028
0.0276792
0.0290359
0.0303677
0.0316694
0.0329363
0.0341642
0.0353488
0.0364875
0.0375775
0.0386173
0.039605
0.04054
0.0414211
0.0422489
0.0430229
0.0437448
0.044415
0.0450361
0.0456089
0.0461368
0.046621
0.0470653
0.0474711
0.0478428
0.0481823
0.0484948
0.0487832
0.0490522
0.0493039
0.0495425
0.0497694
0.0499886
0.050201
0.0504103
0.0506172
0.0508252
0.0510346
0.0512488
0.0514676
0.0516943
0.0519283
0.0521728
0.0524269
0.0526935
0.0529717
0.0532641
0.0535694
0.0538903
0.0542253
0.0545769
0.0549433
0.055327
0.0557261
0.0561431
0.0565758
0.0570265
0.0574932
0.0579781
0.0584789
0.0589978
0.0595327
0.0600855
0.060654
0.0612403
0.0618422
0.0624616
0.0630964
0.0637484
0.0644154
0.0650995
0.0657983
0.0665141
0.0672441
0.067991
0.0687518
0.0695292
0.0703202
0.0711276
0.0719485
0.0727853
0.0736356
0.0745016
0.0753808
0.0762753
0.0771851
0.0781159
0.079046
0.0799029
0.0807723
-0.00927437
-0.00064134
-0.00156158
-0.00112987
-0.000749999
-0.000375205
4.03979e-05
0.00049687
0.00100227
0.00156206
0.00218022
0.00285945
0.0036013
0.00440624
0.00527377
0.00620254
0.00719041
0.00823462
0.00933178
0.0104781
0.0116692
0.0129005
0.0141671
0.015464
0.016786
0.0181275
0.0194834
0.0208481
0.0222162
0.0235822
0.0249409
0.0262867
0.0276144
0.0289184
0.0301938
0.0314356
0.0326394
0.0338011
0.0349176
0.0359861
0.0370052
0.0379726
0.0388882
0.0397503
0.0405596
0.0413156
0.0420199
0.0426729
0.0432771
0.0438334
0.0443449
0.0448132
0.0452414
0.0456317
0.0459878
0.0463126
0.0466111
0.0468868
0.0471436
0.0473844
0.0476124
0.04783
0.04804
0.0482446
0.0484462
0.0486467
0.0488483
0.0490528
0.0492618
0.0494771
0.0497
0.0499319
0.0501738
0.0504271
0.0506924
0.050971
0.0512633
0.0515703
0.0518922
0.05223
0.0525837
0.0529541
0.053341
0.0537452
0.0541663
0.0546051
0.055061
0.0555348
0.0560256
0.0565345
0.0570603
0.0576039
0.0581644
0.0587427
0.0593375
0.0599498
0.0605785
0.0612244
0.0618863
0.0625652
0.0632598
0.0639713
0.064698
0.0654415
0.0661998
0.0669746
0.0677641
0.0685697
0.0693897
0.0702256
0.0710757
0.0719415
0.0728213
0.0737165
0.0746254
0.0755515
0.0764972
0.0774443
0.0783136
0.0791974
-0.00923816
-0.000605207
-0.00166019
-0.00126582
-0.000952407
-0.000637158
-0.000280318
0.00011821
0.00056657
0.00107015
0.00163297
0.00225773
0.002946
0.00369824
0.00451397
0.00539184
0.00632974
0.00732491
0.00837398
0.00947313
0.0106181
0.0118043
0.0130269
0.0142808
0.0155608
0.0168616
0.0181778
0.0195041
0.020835
0.0221653
0.0234895
0.0248024
0.0260987
0.027373
0.02862
0.0298347
0.0310124
0.0321493
0.0332416
0.0342871
0.0352833
0.0362292
0.0371231
0.0379649
0.0387537
0.0394904
0.040175
0.0408096
0.0413948
0.0419334
0.0424265
0.0428776
0.043288
0.0436615
0.0440002
0.0443096
0.0445927
0.0448549
0.0450984
0.0453275
0.0455438
0.0457513
0.0459512
0.0461473
0.0463403
0.0465339
0.0467285
0.0469275
0.0471311
0.0473424
0.0475613
0.0477907
0.04803
0.0482822
0.0485463
0.0488251
0.0491175
0.0494261
0.0497495
0.0500901
0.0504465
0.0508209
0.0512117
0.0516211
0.0520472
0.0524923
0.0529543
0.0534354
0.0539334
0.0544505
0.0549845
0.0555373
0.056107
0.0566952
0.0573001
0.0579233
0.0585627
0.0592203
0.0598939
0.0605853
0.0612922
0.0620169
0.0627566
0.0635139
0.064286
0.0650753
0.065879
0.0666998
0.0675347
0.0683863
0.0692519
0.0701339
0.0710298
0.0719418
0.0728673
0.0738107
0.0747738
0.0757384
0.0766223
0.07752
-0.00919581
-0.000572516
-0.0017647
-0.00141018
-0.00116683
-0.000914211
-0.000619514
-0.000282326
0.000105642
0.000549727
0.00105396
0.00162106
0.00225259
0.00294902
0.00370989
0.00453384
0.00541878
0.00636195
0.00736002
0.00840917
0.00950518
0.0106435
0.0118192
0.0130274
0.0142629
0.0155203
0.0167944
0.0180797
0.019371
0.020663
0.0219503
0.0232279
0.0244906
0.0257329
0.0269495
0.028135
0.0292848
0.0303948
0.0314612
0.0324817
0.0334535
0.0343757
0.0352465
0.0360659
0.0368328
0.0375481
0.0382118
0.0388258
0.0393908
0.0399095
0.0403832
0.0408149
0.0412064
0.041561
0.0418817
0.0421738
0.0424411
0.0426881
0.0429177
0.0431335
0.0433378
0.0435336
0.0437233
0.0439094
0.0440939
0.0442791
0.0444668
0.0446591
0.0448575
0.0450636
0.0452789
0.0455046
0.045742
0.045992
0.0462558
0.0465339
0.0468275
0.0471368
0.0474627
0.0478054
0.0481658
0.0485436
0.0489397
0.0493537
0.0497865
0.0502373
0.0507071
0.0511951
0.051702
0.0522271
0.0527711
0.053333
0.0539136
0.0545119
0.0551287
0.0557628
0.0564152
0.0570846
0.0577719
0.0584759
0.0591976
0.0599354
0.0606908
0.0614619
0.0622503
0.0630541
0.063875
0.0647109
0.0655636
0.0664311
0.0673151
0.0682137
0.0691285
0.0700577
0.0710026
0.0719638
0.0729472
0.0739298
0.0748308
0.075742
-0.00914727
-0.000543459
-0.00187495
-0.00156274
-0.00139303
-0.00120611
-0.000976895
-0.000704292
-0.000379915
1.52758e-06
0.00044408
0.000950449
0.00152221
0.00215984
0.00286288
0.00362997
0.00445904
0.00534735
0.00629159
0.00728794
0.00833222
0.00941987
0.0105461
0.0117059
0.0128942
0.0141056
0.0153349
0.0165769
0.0178261
0.0190773
0.0203253
0.0215651
0.0227917
0.0239998
0.0251838
0.0263382
0.0274581
0.0285391
0.029578
0.0305712
0.0315171
0.0324135
0.0332598
0.0340546
0.0347982
0.0354899
0.0361313
0.0367226
0.0372662
0.0377629
0.0382159
0.0386262
0.0389975
0.0393314
0.0396332
0.0399065
0.040157
0.0403875
0.0406024
0.0408035
0.0409949
0.0411779
0.0413566
0.0415316
0.0417069
0.0418829
0.0420632
0.042248
0.0424408
0.0426412
0.0428526
0.0430744
0.0433095
0.0435573
0.0438204
0.0440979
0.0443925
0.0447027
0.0450312
0.0453764
0.0457407
0.0461225
0.046524
0.0469434
0.0473829
0.0478404
0.0483182
0.0488142
0.0493304
0.0498647
0.050419
0.0509913
0.0515834
0.0521932
0.0528225
0.0534691
0.054135
0.0548179
0.0555197
0.056238
0.056975
0.0577281
0.0584996
0.0592868
0.0600921
0.0609127
0.0617512
0.0626046
0.0634757
0.0643614
0.0652645
0.066182
0.0671166
0.0680654
0.0690307
0.0700123
0.0710169
0.0720203
0.0729392
0.0738668
-0.00909251
-0.000518247
-0.00199084
-0.00172339
-0.0016308
-0.00151256
-0.00135198
-0.00114704
-0.00088929
-0.000573504
-0.000195616
0.000247071
0.000756145
0.00133207
0.00197439
0.00268178
0.00345217
0.00428282
0.00517044
0.00611125
0.00710108
0.0081354
0.00920945
0.0103183
0.0114567
0.0126196
0.0138016
0.0149976
0.0162022
0.0174101
0.0186164
0.019816
0.0210041
0.0221753
0.0233245
0.0244457
0.0255338
0.026584
0.027593
0.0285574
0.0294753
0.0303442
0.0311639
0.0319325
0.0326507
0.0333174
0.0339343
0.0345016
0.0350215
0.0354951
0.0359251
0.0363129
0.0366619
0.0369742
0.0372551
0.0375089
0.0377409
0.0379542
0.0381525
0.0383384
0.0385152
0.0386851
0.0388509
0.0390148
0.0391793
0.039346
0.0395173
0.0396949
0.0398805
0.0400757
0.0402817
0.0405001
0.0407318
0.0409779
0.0412394
0.0415171
0.0418116
0.0421239
0.042454
0.0428028
0.0431704
0.0435575
0.0439637
0.0443899
0.0448356
0.0453015
0.0457869
0.0462926
0.0468177
0.047363
0.0479276
0.0485121
0.0491157
0.0497389
0.0503808
0.0510421
0.0517216
0.0524202
0.0531365
0.0538717
0.0546241
0.055395
0.0561828
0.0569887
0.057811
0.0586512
0.0595074
0.0603813
0.0612708
0.0621778
0.0631001
0.0640395
0.0649941
0.0659654
0.0669515
0.0679564
0.0689827
0.07001
0.0709473
0.0718947
-0.00903153
-0.000497019
-0.0021122
-0.00189196
-0.00187995
-0.00183324
-0.00174432
-0.00160998
-0.00142177
-0.00117453
-0.000864166
-0.000487999
-4.44365e-05
0.000466989
0.00104583
0.00169075
0.00239972
0.00316999
0.0039983
0.0048809
0.00581361
0.00679197
0.00781121
0.00886641
0.00995248
0.0110643
0.0121965
0.0133439
0.0145014
0.0156637
0.0168257
0.0179826
0.0191295
0.0202616
0.0213734
0.0224592
0.0235133
0.0245309
0.0255079
0.0264417
0.0273291
0.0281693
0.0289598
0.0297011
0.0303913
0.0310318
0.0316218
0.0321638
0.0326577
0.0331069
0.0335117
0.033876
0.0342004
0.0344902
0.0347483
0.0349819
0.0351934
0.0353886
0.0355686
0.0357385
0.0358991
0.036055
0.0362068
0.0363588
0.0365112
0.0366681
0.0368294
0.0369991
0.0371769
0.0373661
0.0375664
0.0377809
0.0380087
0.038253
0.0385125
0.0387902
0.0390848
0.0393988
0.0397308
0.0400833
0.0404545
0.0408469
0.0412585
0.0416917
0.0421443
0.0426188
0.0431127
0.0436285
0.0441637
0.0447205
0.0452965
0.0458939
0.0465103
0.0471476
0.0478036
0.0484802
0.049175
0.04989
0.0506227
0.0513754
0.0521453
0.0529347
0.0537409
0.0545663
0.055408
0.0562685
0.057145
0.0580401
0.0589507
0.0598797
0.0608239
0.0617861
0.0627635
0.0637583
0.064768
0.0657971
0.0668482
0.0679003
0.0688583
0.0698254
-0.00896435
-0.000479932
-0.00223889
-0.00206837
-0.00214022
-0.0021677
-0.00215331
-0.00209236
-0.00197648
-0.00180055
-0.00156046
-0.00125355
-0.00087822
-0.000434002
7.86637e-05
0.000658453
0.00130333
0.00201058
0.00277695
0.00359871
0.00447171
0.0053915
0.00635337
0.0073524
0.00838355
0.00944166
0.0105216
0.011618
0.0127259
0.01384
0.0149553
0.016067
0.0171704
0.0182605
0.0193324
0.0203804
0.0213984
0.0223811
0.0233244
0.024225
0.0250808
0.0258894
0.0266498
0.0273607
0.0280221
0.0286334
0.0291957
0.0297094
0.0301767
0.0305985
0.0309776
0.0313153
0.0316149
0.0318792
0.0321145
0.0323249
0.032516
0.0326902
0.032852
0.0330032
0.0331477
0.033287
0.0334249
0.0335625
0.0337033
0.033848
0.0339999
0.0341595
0.03433
0.0345114
0.0347066
0.0349153
0.0351402
0.0353808
0.0356396
0.0359157
0.0362115
0.0365259
0.0368612
0.037216
0.0375924
0.037989
0.0384077
0.0388468
0.0393084
0.0397905
0.0402951
0.0408201
0.0413676
0.0419352
0.0425251
0.0431348
0.0437664
0.0444175
0.0450901
0.0457818
0.0464945
0.0472258
0.0479777
0.0487478
0.049538
0.0503459
0.0511736
0.0520184
0.0528827
0.0537637
0.0546638
0.0555802
0.0565155
0.0574667
0.0584364
0.0594218
0.0604253
0.0614443
0.0624808
0.0635351
0.0646143
0.065692
0.0666739
0.0676603
-0.00889102
-0.000467091
-0.0023708
-0.00225247
-0.00241134
-0.00251554
-0.00257844
-0.00259355
-0.00255267
-0.0024507
-0.00228353
-0.0020485
-0.00174401
-0.0013696
-0.000925708
-0.00041364
0.000164572
0.000806232
0.0015081
0.00226647
0.00307722
0.00393591
0.00483787
0.00577821
0.00675192
0.00775388
0.00877893
0.00982191
0.0108777
0.0119411
0.0130072
0.0140712
0.0151284
0.0161742
0.0172036
0.0182111
0.0191907
0.0201364
0.0210437
0.0219094
0.022731
0.0235064
0.0242343
0.0249132
0.0255434
0.026124
0.0266562
0.0271403
0.0275785
0.0279716
0.0283225
0.0286325
0.0289049
0.029143
0.029353
0.0295396
0.0297077
0.0298605
0.0300016
0.0301336
0.0302597
0.0303821
0.0305039
0.030627
0.0307539
0.0308864
0.0310267
0.0311766
0.0313378
0.0315118
0.0317
0.0319037
0.0321239
0.0323618
0.032618
0.0328937
0.0331892
0.0335054
0.0338424
0.0342011
0.0345814
0.0349839
0.0354084
0.0358555
0.0363248
0.0368168
0.0373309
0.0378677
0.0384263
0.0390075
0.0396102
0.0402351
0.040881
0.0415488
0.0422373
0.0429471
0.043677
0.0444278
0.0451982
0.0459892
0.0467991
0.0476292
0.0484777
0.049346
0.0502322
0.0511379
0.052061
0.0530032
0.0539624
0.0549404
0.0559351
0.0569482
0.0579778
0.0590253
0.0600888
0.0611725
0.0622799
0.0633878
0.0643934
0.0654044
-0.0088116
-0.000458628
-0.00250779
-0.0024441
-0.00269294
-0.00287625
-0.00301904
-0.00311276
-0.00314942
-0.00312396
-0.00303224
-0.00287162
-0.0026405
-0.00233842
-0.0019658
-0.00152396
-0.00101491
-0.000441337
0.000193541
0.000886021
0.00163202
0.00242713
0.0032667
0.00414586
0.00505964
0.00600296
0.00697068
0.00795769
0.00895884
0.0099691
0.0109835
0.0119973
0.013006
0.0140047
0.0149889
0.0159533
0.0168919
0.0177984
0.0186677
0.0194962
0.0202815
0.0210216
0.0217146
0.02236
0.0229565
0.0235047
0.0240045
0.0244573
0.024864
0.025227
0.0255475
0.0258283
0.0260714
0.0262818
0.0264645
0.0266259
0.0267692
0.0268991
0.0270177
0.0271292
0.0272352
0.0273396
0.0274437
0.0275511
0.0276628
0.0277822
0.0279098
0.0280489
0.0282
0.0283657
0.0285462
0.0287441
0.0289591
0.0291936
0.0294471
0.0297219
0.0300169
0.0303346
0.0306735
0.0310359
0.0314204
0.0318288
0.0322597
0.0327149
0.0331925
0.0336947
0.0342191
0.034768
0.0353389
0.035934
0.0365508
0.0371913
0.0378531
0.0385382
0.0392441
0.0399728
0.0407217
0.0414929
0.0422837
0.0430964
0.0439282
0.0447814
0.045653
0.0465457
0.0474563
0.0483876
0.0493363
0.0503053
0.0512913
0.0522972
0.0533197
0.0543619
0.0554205
0.0564981
0.0575916
0.0587065
0.0598454
0.0609853
0.0620176
0.0630535
-0.00872616
-0.000454672
-0.00264972
-0.00264303
-0.00298467
-0.00324936
-0.00347457
-0.00364934
-0.00376599
-0.00381946
-0.00380562
-0.00372183
-0.00356649
-0.00333915
-0.00304022
-0.00267102
-0.00223355
-0.00173049
-0.00116503
-0.000540856
0.000137968
0.00086706
0.00164179
0.00245733
0.00330873
0.00419095
0.00509888
0.00602744
0.00697153
0.00792613
0.00888635
0.00984746
0.0108049
0.0117542
0.0126906
0.0136091
0.014504
0.0153689
0.0161978
0.016987
0.0177338
0.0184362
0.0190926
0.0197019
0.020263
0.0207765
0.021242
0.0216612
0.0220348
0.0223652
0.0226536
0.022903
0.0231153
0.0232958
0.0234499
0.0235838
0.023701
0.0238057
0.0239007
0.0239894
0.0240743
0.0241585
0.0242441
0.0243338
0.0244297
0.0245339
0.0246483
0.024775
0.0249154
0.0250713
0.025244
0.0254347
0.0256445
0.0258744
0.0261253
0.026398
0.0266931
0.0270111
0.0273527
0.0277179
0.0281075
0.0285211
0.0289594
0.029422
0.0299095
0.0304212
0.0309576
0.0315181
0.0321031
0.0327118
0.0333447
0.0340007
0.0346805
0.0353828
0.0361085
0.0368561
0.0376265
0.0384182
0.0392322
0.040067
0.0409235
0.0418001
0.042698
0.0436154
0.0445536
0.0455108
0.0464885
0.0474847
0.0485009
0.0495352
0.0505892
0.0516609
0.0527522
0.0538606
0.0549878
0.0561348
0.0573091
0.0584816
0.0595438
0.0606044
-0.00863477
-0.000455362
-0.00279637
-0.00284902
-0.00328613
-0.00363435
-0.00394436
-0.00420248
-0.00440144
-0.00453618
-0.00460254
-0.00459791
-0.00452067
-0.0043704
-0.00414749
-0.00385327
-0.00348972
-0.00305952
-0.00256583
-0.00201233
-0.00140306
-0.000742374
-3.48789e-05
0.000714633
0.00150124
0.00231992
0.00316562
0.00403327
0.00491782
0.00581428
0.0067178
0.00762367
0.00852743
0.00942455
0.0103105
0.0111805
0.012029
0.0128495
0.0136358
0.0143833
0.0150894
0.0157519
0.0163694
0.0169402
0.0174641
0.0179403
0.0183697
0.0187528
0.0190915
0.0193869
0.0196417
0.0198572
0.0200371
0.0201855
0.0203093
0.0204134
0.0205029
0.0205804
0.0206501
0.0207141
0.0207764
0.0208385
0.0209041
0.0209745
0.0210531
0.0211408
0.0212408
0.0213537
0.0214825
0.0216275
0.0217913
0.0219739
0.0221777
0.0224023
0.02265
0.0229202
0.0232149
0.0235331
0.023877
0.024245
0.0246394
0.0250585
0.0255042
0.0259747
0.026472
0.026994
0.0275426
0.0281157
0.0287151
0.0293385
0.0299879
0.0306608
0.0313591
0.0320803
0.0328264
0.0335947
0.0343874
0.0352017
0.0360397
0.0368987
0.0377809
0.0386834
0.0396085
0.0405533
0.0415203
0.0425063
0.0435142
0.0445406
0.0455883
0.0466542
0.0477411
0.0488457
0.049971
0.0511136
0.0522761
0.0534586
0.0546697
0.0558787
0.056972
0.0580611
-0.00853751
-0.000460783
-0.00294755
-0.00306183
-0.00359696
-0.00403074
-0.00442786