/*--------------------------------*- C++ -*----------------------------------*\
  =========                 |
  \\      /  F ield         | OpenFOAM: The Open Source CFD Toolbox
   \\    /   O peration     | Website:  https://openfoam.org
    \\  /    A nd           | Version:  8
     \\/     M anipulation  |
\*---------------------------------------------------------------------------*/
FoamFile
{
    version     2.0;
    format      ascii;
    class       volScalarField;
    location    "0.2";
    object      p;
}
// * * * * * * * * * * * * * * * * * * * * * * * * * * * * * * * * * * * * * //

dimensions      [0 2 -2 0 0 0 0];

internalField   nonuniform List<scalar> 
62196
(
83.758
83.749
83.7341
83.7103
83.6759
83.6303
83.573
83.5039
83.4244
83.337
83.2459
83.1562
83.0741
83.0062
82.9596
82.9411
82.9562
83.0088
83.1004
83.2298
83.3935
83.5858
83.8
84.029
84.2657
84.5044
84.7402
84.97
85.192
85.4056
85.6112
85.8102
86.004
86.1947
86.3838
86.5733
86.7645
86.9588
87.1571
87.3603
87.5688
87.7833
88.004
88.2315
88.466
88.7082
88.9581
89.2168
89.4843
89.7616
90.0487
90.3469
90.656
90.9775
91.3112
91.6585
92.0194
92.3956
92.7869
93.195
93.6201
94.0635
94.5254
95.007
95.5083
96.0303
96.5725
97.1356
97.7189
98.3227
98.946
99.5888
100.25
100.93
101.627
102.341
103.071
103.816
104.576
105.351
106.139
106.941
107.756
108.586
109.429
110.288
111.163
112.057
112.971
113.909
114.874
115.87
116.903
117.98
119.108
120.298
121.562
122.915
124.376
125.969
127.72
129.662
131.835
134.283
137.061
140.232
143.87
148.061
152.903
158.515
165.03
172.604
181.422
191.708
203.743
217.889
234.555
254.339
276.98
299.248
83.8371
83.8317
83.8213
83.8035
83.7764
83.7387
83.689
83.6262
83.5503
83.4621
83.3643
83.2611
83.1589
83.0661
82.9921
82.9466
82.9379
82.9713
83.0488
83.1688
83.3262
83.514
83.7235
83.9462
84.1743
84.4015
84.6234
84.8372
85.0419
85.2378
85.4262
85.6088
85.7877
85.9652
86.143
86.323
86.5065
86.6948
86.8887
87.0889
87.2957
87.5097
87.731
87.9599
88.1964
88.4411
88.6939
88.9555
89.2258
89.5059
89.7955
90.096
90.4072
90.7306
91.066
91.415
91.7775
92.1552
92.5481
92.9578
93.3842
93.829
94.2921
94.7746
95.2764
95.7985
96.3403
96.9024
97.4842
98.0859
98.7067
99.3466
100.005
100.681
101.374
102.085
102.811
103.554
104.312
105.084
105.872
106.673
107.489
108.32
109.165
110.027
110.906
111.804
112.723
113.665
114.633
115.632
116.666
117.741
118.865
120.048
121.3
122.638
124.078
125.644
127.362
129.263
131.386
133.775
136.482
139.567
143.099
147.161
151.844
157.253
163.507
170.737
179.086
188.716
199.814
212.599
227.279
243.982
261.517
278.45
83.9401
83.9415
83.94
83.9339
83.9216
83.9006
83.8684
83.822
83.7591
83.6773
83.5764
83.4589
83.3316
83.2056
83.0948
83.0134
82.9739
82.9838
83.0456
83.1561
83.3077
83.4902
83.6923
83.9035
84.1151
84.3207
84.5166
84.7015
84.8757
85.0412
85.2003
85.356
85.5108
85.6675
85.8279
85.9938
86.1663
86.3464
86.5344
86.7309
86.9357
87.1492
87.3708
87.6009
87.839
88.0854
88.3398
88.6026
88.8738
89.1541
89.4435
89.7431
90.0531
90.3748
90.7084
91.0553
91.4158
91.7912
92.1818
92.5891
93.013
93.4548
93.9146
94.3933
94.8908
95.4076
95.9436
96.4991
97.0736
97.6673
98.2798
98.9111
99.5606
100.228
100.914
101.617
102.337
103.075
103.828
104.599
105.385
106.187
107.005
107.839
108.69
109.559
110.445
111.351
112.278
113.227
114.202
115.204
116.238
117.31
118.425
119.593
120.823
122.13
123.53
125.044
126.696
128.517
130.542
132.813
135.376
138.288
141.609
145.411
149.769
154.769
160.494
167.025
174.429
182.746
191.979
202.059
212.844
223.558
231.865
230.959
84.0419
84.0516
84.0602
84.0673
84.0717
84.0705
84.0599
84.0353
83.9916
83.9227
83.8246
83.6975
83.5486
83.3921
83.2469
83.1329
83.0661
83.056
83.1042
83.2052
83.3479
83.5189
83.7045
83.893
84.0756
84.2472
84.4056
84.5513
84.6867
84.8151
84.9401
85.0652
85.1935
85.3276
85.4693
85.6199
85.7803
85.951
86.132
86.3234
86.5248
86.736
86.9563
87.1855
87.4228
87.6682
87.9211
88.1818
88.4501
88.7267
89.0118
89.3065
89.6111
89.9271
90.2548
90.5956
90.9499
91.3191
91.7034
92.104
92.521
92.9554
93.407
93.8768
94.3644
94.8704
95.3946
95.9373
96.4984
97.0781
97.6763
98.2932
98.9288
99.5832
100.256
100.948
101.659
102.388
103.136
103.903
104.687
105.49
106.312
107.152
108.01
108.888
109.785
110.703
111.641
112.601
113.585
114.594
115.632
116.701
117.808
118.959
120.163
121.431
122.78
124.225
125.791
127.504
129.394
131.499
133.859
136.521
139.534
142.95
146.825
151.207
156.134
161.615
167.608
173.987
180.501
186.648
191.867
193.787
190.434
160.736
84.1162
84.133
84.1484
84.1638
84.1801
84.1945
84.2036
84.2023
84.1836
84.1377
84.0558
83.9344
83.7798
83.6082
83.4428
83.307
83.22
83.1917
83.2224
83.3038
83.4227
83.5637
83.713
83.8596
83.9967
84.1211
84.233
84.3348
84.43
84.5227
84.6166
84.7152
84.821
84.9361
85.0617
85.1987
85.3475
85.5083
85.681
85.8654
86.0608
86.2668
86.4824
86.7071
86.9397
87.18
87.4271
87.6812
87.9422
88.2108
88.4873
88.773
89.0684
89.3751
89.6935
90.025
90.3702
90.7301
91.105
91.4958
91.9026
92.3259
92.7657
93.2224
93.696
94.1867
94.6945
95.22
95.763
96.3242
96.9038
97.5024
98.1201
98.7578
99.4154
100.094
100.792
101.512
102.252
103.014
103.796
104.6
105.425
106.272
107.14
108.029
108.939
109.871
110.824
111.799
112.796
113.816
114.861
115.933
117.035
118.173
119.353
120.584
121.879
123.251
124.72
126.307
128.038
129.941
132.048
134.391
137.004
139.916
143.147
146.705
150.566
154.652
158.797
162.683
165.747
166.949
165.332
156.037
140.983
75.1405
84.1455
84.1654
84.1789
84.1891
84.2001
84.2115
84.2237
84.2358
84.2427
84.2322
84.1896
84.1045
83.978
83.8238
83.6653
83.5274
83.4297
83.3819
83.3836
83.4261
83.4966
83.5816
83.6699
83.7542
83.8307
83.8989
83.9609
84.0196
84.0787
84.1416
84.211
84.2893
84.3778
84.4778
84.5897
84.714
84.8508
85.0002
85.1622
85.3365
85.5226
85.7198
85.9269
86.143
86.3669
86.598
86.8355
87.0795
87.33
87.5878
87.8535
88.1285
88.4136
88.7101
89.0188
89.3408
89.6767
90.0272
90.3925
90.7732
91.1692
91.5807
92.0076
92.4502
92.9082
93.3821
93.8719
94.3783
94.9016
95.4427
96.0021
96.5808
97.1793
97.7988
98.4395
99.1023
99.7874
100.496
101.227
101.982
102.761
103.564
104.391
105.242
106.117
107.015
107.938
108.883
109.851
110.841
111.852
112.886
113.941
115.019
116.122
117.251
118.413
119.611
120.855
122.155
123.523
124.975
126.528
128.2
130.01
131.973
134.099
136.388
138.821
141.355
143.896
146.275
148.198
149.15
148.225
143.816
134.633
112.394
88.1469
-17.2542
84.1291
84.1484
84.1524
84.1447
84.1315
84.1155
84.1054
84.1125
84.1411
84.1798
84.2056
84.1947
84.136
84.0349
83.911
83.7879
83.6853
83.6134
83.5733
83.5588
83.5615
83.5729
83.5872
83.6014
83.6151
83.6296
83.6473
83.6706
83.7017
83.7423
83.7938
83.8566
83.9313
84.0178
84.1163
84.227
84.3502
84.4861
84.6349
84.7965
84.9705
85.1559
85.3514
85.5561
85.7684
85.9878
86.2136
86.4461
86.6853
86.9325
87.1883
87.454
87.7305
88.0191
88.3205
88.6354
88.9642
89.3073
89.6648
90.0367
90.4228
90.8231
91.2373
91.6654
92.1074
92.5637
93.0345
93.5207
94.0228
94.5422
95.0796
95.6364
96.2133
96.8116
97.432
98.0755
98.7425
99.4341
100.15
100.892
101.66
102.454
103.274
104.121
104.994
105.893
106.818
107.768
108.742
109.739
110.758
111.799
112.86
113.941
115.041
116.163
117.305
118.472
119.665
120.89
122.153
123.46
124.819
126.233
127.704
129.228
130.787
132.347
133.847
135.189
136.208
136.645
136.081
133.808
128.551
118.269
101.216
65.5394
36.3727
-107.122
84.0789
84.0873
84.0669
84.0198
83.9508
83.8692
83.8034
83.791
83.8519
83.9708
84.1037
84.201
84.233
84.1975
84.1141
84.0088
83.9038
83.8113
83.7351
83.6732
83.622
83.5782
83.5402
83.5081
83.4829
83.466
83.459
83.4627
83.4781
83.5053
83.5445
83.5954
83.6578
83.7315
83.8166
83.9137
84.0232
84.1459
84.2821
84.4315
84.5934
84.7667
84.95
85.1421
85.3416
85.5482
85.7616
85.9821
86.2103
86.4472
86.6938
86.9511
87.22
87.5012
87.7953
88.1026
88.4233
88.7573
89.1045
89.4645
89.837
90.2217
90.6182
91.0266
91.4469
91.8796
92.3252
92.7848
93.2593
93.7501
94.2583
94.7855
95.3327
95.9012
96.4919
97.1059
97.7438
98.4067
99.0951
99.81
100.552
101.321
102.119
102.945
103.798
104.68
105.59
106.526
107.488
108.475
109.485
110.518
111.571
112.642
113.73
114.833
115.949
117.077
118.214
119.359
120.51
121.663
122.813
123.949
125.053
126.097
127.035
127.799
128.282
128.328
127.703
126.054
122.846
117.174
107.477
91.6542
67.0145
20.1789
-11.3788
-183.788
84.0455
84.0329
83.9756
83.8713
83.7298
83.5813
83.4909
83.5167
83.6717
83.9025
84.1231
84.2634
84.3003
84.2513
84.1518
84.0345
83.9216
83.8227
83.7395
83.6699
83.6111
83.5612
83.5198
83.487
83.4634
83.4494
83.4455
83.4519
83.4688
83.4962
83.5338
83.5811
83.6379
83.7045
83.7817
83.8703
83.9713
84.0852
84.2119
84.3506
84.5003
84.6595
84.827
85.0017
85.1832
85.3714
85.5666
85.7695
85.981
86.2018
86.433
86.6752
86.9291
87.1951
87.4733
87.7638
88.0665
88.381
88.7069
89.0437
89.391
89.7485
90.1158
90.4931
90.8805
91.2789
91.6891
92.1122
92.5496
93.0027
93.473
93.9619
94.4705
95
95.5515
96.1259
96.7241
97.3469
97.9953
98.6701
99.3722
100.102
100.861
101.649
102.466
103.312
104.186
105.089
106.019
106.975
107.955
108.958
109.981
111.021
112.076
113.14
114.21
115.278
116.34
117.386
118.406
119.385
120.304
121.135
121.842
122.371
122.649
122.57
121.987
120.691
118.382
114.635
108.812
99.8529
86.0753
65.3245
32.6584
-21.6946
-59.1497
-229.708
84.0961
84.0266
83.7878
83.411
83.0974
83.0345
83.2412
83.6018
83.9464
84.1491
84.1787
84.0854
83.9424
83.8011
83.6872
83.6088
83.5632
83.5418
83.536
83.5377
83.5428
83.5476
83.5502
83.5498
83.5474
83.544
83.542
83.5433
83.5498
83.562
83.5805
83.6051
83.6377
83.6799
83.7341
83.8011
83.8813
83.9734
84.0765
84.1888
84.3093
84.4372
84.5719
84.7135
84.8622
85.0187
85.1836
85.3578
85.542
85.7368
85.9428
86.1604
86.3898
86.6312
86.8845
87.1494
87.4257
87.713
88.0108
88.3186
88.636
88.9628
89.2989
89.6447
90.0007
90.3679
90.7473
91.1405
91.5484
91.9729
92.4149
92.876
93.3566
93.8583
94.3812
94.9268
95.4951
96.0877
96.7047
97.3478
98.0171
98.7142
99.4389
100.192
100.974
101.785
102.624
103.492
104.386
105.306
106.251
107.218
108.206
109.209
110.225
111.248
112.271
113.286
114.283
115.25
116.17
117.022
117.776
118.395
118.829
119.009
118.841
118.193
116.878
114.627
111.048
105.57
97.33
84.9824
66.6815
39.9384
-0.236063
-47.9083
-76.3914
-208.61
84.613
84.0589
83.157
82.1564
82.1557
83.2633
84.7093
85.5853
85.5479
84.8611
84.0287
83.4224
83.1099
82.9984
83.0061
83.0751
83.1689
83.2669
83.3546
83.4306
83.4942
83.5384
83.5595
83.5609
83.5449
83.5173
83.4842
83.4508
83.4188
83.3891
83.3622
83.3401
83.3287
83.3323
83.3531
83.3893
83.4381
83.4967
83.5631
83.6367
83.7174
83.8059
83.903
84.0094
84.126
84.2535
84.3924
84.5432
84.7064
84.8821
85.0705
85.2717
85.4857
85.7122
85.9511
86.2021
86.4647
86.7386
87.0231
87.318
87.6228
87.9375
88.2622
88.5976
88.9443
89.3035
89.6762
90.0638
90.4674
90.8881
91.3267
91.7841
92.2606
92.757
93.2733
93.8103
94.3681
94.9476
95.5491
96.1734
96.821
97.4922
98.1874
98.9066
99.6497
100.416
101.206
102.017
102.848
103.698
104.565
105.444
106.333
107.226
108.117
108.997
109.857
110.684
111.462
112.172
112.787
113.272
113.583
113.662
113.435
112.808
111.653
109.804
107.044
103.093
97.6
90.1482
80.2647
67.4386
51.3797
32.7121
11.238
-13.0366
-4.21271
24.9137
84.7098
84.0695
83.0605
81.98
82.0433
83.3351
84.9623
85.9015
85.7892
84.9594
83.9999
83.3258
82.9957
82.8925
82.9193
83.0095
83.1224
83.2365
83.3363
83.4221
83.4934
83.542
83.564
83.5631
83.5416
83.5062
83.4639
83.4198
83.3758
83.3326
83.2909
83.2535
83.2276
83.2178
83.226
83.2496
83.2852
83.3292
83.38
83.4371
83.5009
83.5724
83.6528
83.7429
83.8439
83.9562
84.0806
84.2173
84.3666
84.5288
84.7038
84.8916
85.0921
85.3051
85.5304
85.7675
86.0161
86.2758
86.546
86.8264
87.1168
87.4172
87.7279
88.0496
88.3832
88.7299
89.0908
89.4672
89.8601
90.2704
90.6988
91.1458
91.6117
92.0968
92.6011
93.1248
93.6683
94.2318
94.8157
95.4203
96.0458
96.6924
97.3599
98.0481
98.7565
99.4846
100.231
100.995
101.775
102.569
103.374
104.187
105.004
105.82
106.629
107.424
108.194
108.929
109.615
110.234
110.764
111.175
111.433
111.495
111.308
110.808
109.912
108.514
106.483
103.652
99.8182
94.737
88.1283
79.6527
68.8875
55.6842
40.6999
22.2722
6.95763
4.47123
84.8401
84.1088
83.0025
81.8805
82.0137
83.4383
85.163
86.1022
85.9092
84.9813
83.9576
83.2655
82.9435
82.8555
82.8969
82.9976
83.1169
83.2345
83.3357
83.4223
83.494
83.5412
83.5602
83.5547
83.5268
83.4837
83.4324
83.378
83.3223
83.2656
83.2096
83.1578
83.1185
83.0961
83.0919
83.1025
83.1241
83.1531
83.1883
83.2295
83.2777
83.3339
83.3994
83.4752
83.5622
83.6609
83.772
83.8955
84.0318
84.1808
84.3426
84.5172
84.7042
84.9036
85.1151
85.3382
85.5727
85.8181
86.074
86.3401
86.6162
86.9026
87.1997
87.5083
87.8294
88.1642
88.5138
88.8794
89.2619
89.662
90.0803
90.517
90.9722
91.446
91.9384
92.4493
92.979
93.5274
94.0946
94.6809
95.286
95.9099
96.5522
97.2124
97.8898
98.5836
99.2926
100.016
100.751
101.496
102.248
103.004
103.76
104.51
105.249
105.968
106.659
107.31
107.907
108.434
108.866
109.177
109.334
109.3
109.029
108.463
107.533
106.153
104.221
101.614
98.1918
93.7925
88.2406
81.3387
72.8082
62.247
49.8292
35.3816
18.5374
5.47766
84.9828
84.1866
83.0136
81.8789
82.0565
83.5256
85.2419
86.1245
85.8699
84.9117
83.8955
83.2333
82.9421
82.8754
82.9271
83.0281
83.1421
83.2518
83.3446
83.4243
83.4901
83.5314
83.5452
83.5346
83.5011
83.452
83.3938
83.3311
83.2657
83.1977
83.1299
83.0667
83.0168
82.9838
82.9684
82.9664
82.9743
82.989
83.0098
83.0369
83.0714
83.1146
83.1675
83.2309
83.3056
83.392
83.4906
83.6015
83.7248
83.8607
84.0091
84.1698
84.3427
84.5277
84.7244
84.9326
85.1519
85.3818
85.6222
85.8727
86.1335
86.4046
86.6868
86.9809
87.2879
87.6089
87.9451
88.2974
88.6667
89.0534
89.4581
89.8808
90.3214
90.78
91.2563
91.7503
92.262
92.7912
93.3379
93.9021
94.4834
95.0816
95.6961
96.3266
96.9722
97.6321
98.3053
98.9904
99.6859
100.39
101.099
101.811
102.522
103.227
103.919
104.593
105.24
105.848
106.406
106.895
107.295
107.58
107.721
107.686
107.433
106.912
106.059
104.8
103.047
100.701
97.6542
93.7984
89.0347
83.2972
76.5598
68.7356
59.8904
50.4165
40.5359
31.1681
85.1298
84.3019
83.0941
81.9654
82.1527
83.5803
85.1997
85.9894
85.702
84.7746
83.8222
83.2244
82.9795
82.9373
82.9951
83.0886
83.1881
83.2812
83.3583
83.4251
83.4801
83.5125
83.5196
83.5036
83.4654
83.4117
83.3485
83.2794
83.2061
83.1289
83.0518
82.98
82.9219
82.88
82.8541
82.8399
82.8346
82.8358
82.8435
82.8582
82.881
82.9129
82.9547
83.0071
83.0705
83.1453
83.2318
83.3301
83.4404
83.5626
83.6968
83.8428
84.0006
84.1699
84.3506
84.5423
84.7448
84.9576
85.1807
85.4139
85.6572
85.911
86.1759
86.4528
86.7427
87.0465
87.3654
87.7
88.0512
88.4192
88.8044
89.2067
89.6261
90.0624
90.5153
90.9848
91.4705
91.9723
92.4901
93.0236
93.5725
94.1365
94.7151
95.3079
95.9143
96.5336
97.1651
97.8077
98.4603
99.121
99.788
100.459
101.13
101.797
102.457
103.102
103.725
104.318
104.87
105.364
105.782
106.103
106.306
106.362
106.239
105.895
105.281
104.336
102.992
101.171
98.7967
95.7888
92.0777
87.6205
82.4241
76.5056
69.8697
62.6558
55.1736
47.9196
85.2767
84.4466
83.225
82.106
82.2665
83.5852
85.0508
85.7376
85.4501
84.6003
83.7483
83.2348
83.0439
83.0277
83.0883
83.1687
83.2474
83.3178
83.3743
83.4238
83.4647
83.4859
83.4851
83.4634
83.4209
83.3636
83.2962
83.2217
83.1416
83.0568
82.9724
82.894
82.8294
82.7796
82.7437
82.7178
82.6999
82.6887
82.6847
82.6884
82.701
82.7231
82.7551
82.7973
82.8501
82.9137
82.9882
83.0738
83.1706
83.2786
83.3979
83.5283
83.6698
83.8223
83.9855
84.1592
84.3431
84.5371
84.7409
84.9545
85.178
85.4118
85.6565
85.913
86.182
86.4644
86.7611
87.0727
87.3998
87.7426
88.1012
88.4756
88.8657
89.2711
89.6916
90.1269
90.5767
91.0406
91.5185
92.0099
92.5147
93.0324
93.5628
94.1056
94.6604
95.2267
95.8042
96.3922
96.9897
97.5958
98.2089
98.8271
99.448
100.068
100.685
101.292
101.883
102.453
102.989
103.479
103.906
104.254
104.505
104.637
104.623
104.43
104.017
103.338
102.339
100.965
99.1564
96.8584
94.0202
90.6007
86.5905
82.0023
76.8451
71.1346
64.9937
58.9837
85.4127
84.6052
83.3848
82.2703
82.3703
83.5329
84.8171
85.408
85.1508
84.4096
83.6782
83.2575
83.1228
83.1313
83.1923
83.2562
83.3108
83.3554
83.3885
83.4185
83.4432
83.4519
83.4425
83.4148
83.3682
83.3075
83.2364
83.1572
83.0712
82.9802
82.89
82.8066
82.7364
82.6794
82.6339
82.5969
82.5672
82.5446
82.53
82.5242
82.5277
82.5408
82.5637
82.5963
82.6388
82.6913
82.7538
82.8265
82.9094
83.0026
83.1063
83.2202
83.3445
83.4789
83.6234
83.7776
83.9415
84.1147
84.2973
84.4892
84.6906
84.9018
85.1234
85.356
85.6004
85.8571
86.1269
86.4102
86.7074
87.0186
87.344
87.6834
88.0365
88.4029
88.7824
89.1745
89.5788
89.9949
90.4225
90.8612
91.3107
91.7708
92.2413
92.722
93.2127
93.7135
94.2239
94.7437
95.2723
95.8092
96.3532
96.903
97.4566
98.0116
98.5646
99.1114
99.6469
100.164
100.654
101.103
101.498
101.824
102.065
102.203
102.213
102.067
101.729
101.163
100.324
99.1693
97.6567
95.7476
93.4091
90.6162
87.361
83.6617
79.5543
75.0891
70.3247
65.6623
85.5321
84.762
83.5445
82.4217
82.434
83.4187
84.5215
85.0368
84.8334
84.2163
83.6104
83.2813
83.2003
83.232
83.2916
83.3382
83.3679
83.3861
83.3953
83.405
83.4129
83.4089
83.3907
83.3569
83.3061
83.2421
83.1674
83.0837
82.9925
82.8962
82.8014
82.7141
82.6389
82.5749
82.5202
82.4726
82.4319
82.3989
82.3748
82.3601
82.3552
82.3599
82.374
82.3972
82.4295
82.4708
82.5212
82.5807
82.6495
82.7276
82.815
82.9119
83.0182
83.1337
83.2585
83.3922
83.5348
83.6861
83.846
84.0146
84.1921
84.3787
84.5749
84.7811
84.9978
85.2256
85.4649
85.7159
85.979
86.2543
86.5416
86.8408
87.1517
87.4737
87.8064
88.1494
88.5021
88.8641
89.2349
89.6143
90.002
90.3978
90.8016
91.2135
91.6335
92.0616
92.4977
92.9419
93.3937
93.8529
94.3186
94.7896
95.2643
95.7405
96.2151
96.6841
97.1426
97.5842
97.9985
98.3734
98.6967
98.9545
99.1319
99.2103
99.1674
98.9766
98.6074
98.0257
97.1962
96.0844
94.6593
92.8966
90.7809
88.3091
85.4955
82.3812
79.0377
75.5711
72.0768
68.8328
85.6251
84.899
83.6843
82.5383
82.4477
83.2544
84.1942
84.656
84.5196
84.0282
83.5425
83.2977
83.2649
83.3166
83.3742
83.404
83.4101
83.4031
83.3892
83.3792
83.3708
83.3543
83.3273
83.2874
83.2324
83.1651
83.0869
82.999
82.9032
82.8027
82.7045
82.6138
82.5339
82.4631
82.3997
82.3421
82.2914
82.2488
82.2159
82.1929
82.1799
82.1763
82.1816
82.1955
82.2175
82.2475
82.2857
82.3319
82.3864
82.4491
82.5203
82.5998
82.6877
82.784
82.8886
83.0013
83.1221
83.2509
83.3875
83.5322
83.6849
83.846
84.0156
84.1941
84.3819
84.5792
84.7863
85.0034
85.2308
85.4683
85.7159
85.9735
86.2406
86.5167
86.8015
87.0943
87.3946
87.7019
88.016
88.3363
88.6629
88.9957
89.3347
89.68
90.0319
90.3905
90.7561
91.1286
91.5079
91.8938
92.2855
92.6821
93.082
93.4828
93.8817
94.2748
94.6574
95.0224
95.3591
95.6569
95.9032
96.0866
96.1915
96.2018
96.0963
95.8521
95.4424
94.8398
94.0166
92.9485
91.6163
90.0093
88.129
85.9897
83.6231
81.0809
78.438
75.7959
73.2443
70.976
85.6886
85.0023
83.783
82.6034
82.4078
83.0548
83.8608
84.2908
84.2249
83.8499
83.4706
83.298
83.306
83.3751
83.4309
83.4461
83.4311
83.4014
83.3665
83.3381
83.3142
83.286
83.2506
83.2046
83.1455
83.0747
82.993
82.901
82.8012
82.6972
82.5963
82.5026
82.4182
82.3407
82.2689
82.202
82.1421
82.0907
82.0494
82.0184
81.9973
81.9854
81.982
81.9862
81.9979
82.0168
82.0427
82.0758
82.1161
82.1637
82.2187
82.2811
82.351
82.4283
82.513
82.6051
82.7044
82.811
82.9248
83.046
83.1744
83.3104
83.454
83.6055
83.7649
83.9325
84.1085
84.2929
84.4859
84.6875
84.8976
85.116
85.3423
85.5761
85.8169
86.0642
86.3175
86.5764
86.8406
87.11
87.3844
87.6642
87.9495
88.2405
88.5378
88.8416
89.1522
89.4699
89.7946
90.1262
90.4641
90.8073
91.1543
91.5029
91.8502
92.1927
92.5258
92.8414
93.1304
93.382
93.5868
93.7334
93.8099
93.8011
93.6906
93.4591
93.0864
92.552
91.8368
90.9257
89.8077
88.481
86.9507
85.2337
83.3541
81.3492
79.2631
77.1603
75.0977
73.2334
85.7186
85.0622
83.8345
82.6155
82.3249
82.8416
83.5466
83.9596
83.9587
83.6833
83.3925
83.2785
83.3193
83.4026
83.4574
83.4609
83.4284
83.3791
83.3256
83.2805
83.2425
83.2035
83.16
83.1081
83.0448
82.9704
82.8853
82.7895
82.6864
82.5797
82.4766
82.38
82.2911
82.2071
82.1274
82.052
81.9835
81.9238
81.8745
81.8356
81.8065
81.7861
81.7738
81.7685
81.7699
81.7777
81.7918
81.8121
81.8388
81.8718
81.9113
81.9573
82.01
82.0692
82.1352
82.2077
82.2869
82.3728
82.4653
82.5646
82.6706
82.7835
82.9034
83.0302
83.164
83.305
83.4533
83.609
83.7721
83.9428
84.121
84.3065
84.4991
84.6985
84.904
85.1155
85.3325
85.5547
85.7821
86.0147
86.2526
86.4963
86.7461
87.0026
87.2663
87.5378
87.8175
88.1057
88.4026
88.7079
89.0213
89.3418
89.6678
89.9974
90.3278
90.6559
90.9766
91.282
91.5638
91.8128
92.0217
92.1805
92.2799
92.3071
92.2493
92.0909
91.8168
91.411
90.8596
90.1508
89.2762
88.2318
87.0184
85.6424
84.1146
82.453
80.682
78.8437
76.9872
75.2655
85.7182
85.0775
83.835
82.5799
82.2127
82.6323
83.2664
83.673
83.726
83.5292
83.3064
83.236
83.3017
83.397
83.4523
83.4476
83.4016
83.3364
83.2671
83.2074
83.1567
83.1078
83.0568
82.9993
82.9317
82.8537
82.765
82.6656
82.5595
82.4507
82.3457
82.2463
82.1527
82.0624
81.9751
81.8919
81.8155
81.748
81.691
81.6442
81.6069
81.5782
81.5569
81.5422
81.5336
81.5308
81.5335
81.5418
81.5557
81.5751
81.6003
81.6313
81.6682
81.7111
81.76
81.8151
81.8763
81.9438
82.0177
82.0979
82.1847
82.2779
82.3776
82.4838
82.5966
82.716
82.8421
82.9752
83.1152
83.2625
83.417
83.5787
83.7474
83.923
84.105
84.2933
84.4877
84.6881
84.8947
85.1076
85.3274
85.5545
85.7896
86.0334
86.2865
86.5496
86.8232
87.1076
87.4029
87.7089
88.025
88.3503
88.6831
89.0213
89.3623
89.703
90.037
90.3575
90.6556
90.9251
91.1578
91.3467
91.4817
91.553
91.5481
91.4542
91.2573
90.9435
90.5
89.9147
89.1791
88.2855
87.2328
86.0213
84.6605
83.1642
81.5599
79.8881
78.2015
76.644
85.689
85.0526
83.7962
82.5106
82.0888
82.4442
83.0332
83.437
83.5286
83.3882
83.2134
83.173
83.2561
83.3611
83.4183
83.4088
83.3534
83.2758
83.1937
83.1215
83.0598
83.002
82.944
82.8811
82.8094
82.7277
82.6354
82.5327
82.4241
82.3138
82.207
82.1045
82.0061
81.9096
81.8153
81.7248
81.6411
81.5663
81.5018
81.4472
81.402
81.3648
81.3348
81.311
81.2929
81.2801
81.2724
81.2696
81.2719
81.2792
81.2916
81.3094
81.3325
81.3611
81.3955
81.4356
81.4817
81.534
81.5925
81.6573
81.7286
81.8064
81.8906
81.9813
82.0786
82.1824
82.2931
82.4108
82.5357
82.6682
82.8083
82.9561
83.1116
83.2748
83.4455
83.6237
83.8094
84.0026
84.2038
84.4133
84.6318
84.8597
85.098
85.3473
85.6082
85.8813
86.167
86.4654
86.7763
87.0992
87.4332
87.7769
88.1282
88.4847
88.8436
89.2003
89.5481
89.8796
90.1865
90.4628
90.7005
90.8925
91.0287
91.0997
91.0933
90.9973
90.7988
90.4853
90.0452
89.469
88.7497
87.8838
86.873
85.7242
84.4519
83.0782
81.6346
80.164
78.713
77.3989
85.6378
84.9967
83.7275
82.4238
81.9694
82.2876
82.8499
83.2517
83.3665
83.261
83.1152
83.0919
83.1858
83.2986
83.3592
83.3484
83.2872
83.201
83.1089
83.0265
82.9554
82.8897
82.8254
82.7574
82.6817
82.5963
82.5004
82.3946
82.284
82.1721
82.0635
81.9578
81.8545
81.7518
81.6509
81.5537
81.4633
81.3816
81.3099
81.2478
81.1948
81.1495
81.1112
81.0788
81.0519
81.03
81.0129
81.0004
80.9925
80.9893
80.9909
80.9974
81.0091
81.0261
81.0486
81.0768
81.1111
81.1515
81.1984
81.2519
81.3121
81.3791
81.4529
81.5335
81.6211
81.7158
81.8178
81.9275
82.0451
82.171
82.3055
82.4488
82.601
82.7621
82.9322
83.1113
83.2996
83.4974
83.7051
83.923
84.1519
84.3924
84.645
84.9104
85.1888
85.4806
85.7856
86.1036
86.4337
86.7749
87.1255
87.4834
87.8458
88.2096
88.5712
88.9242
89.2617
89.5749
89.8573
90.101
90.2994
90.4438
90.5259
90.5355
90.4625
90.2962
90.0265
89.6447
89.1434
88.5194
87.7712
86.9034
85.9234
84.8466
83.6907
82.4821
81.2482
80.0249
78.842
77.7863
85.5681
84.9203
83.6463
82.3347
81.8667
82.1697
82.7189
83.1154
83.2381
83.1485
83.0157
82.9987
83.0973
83.2158
83.2808
83.2712
83.2077
83.116
83.0167
82.9262
82.8472
82.7749
82.7049
82.6324
82.5529
82.4637
82.3644
82.2558
82.1435
82.0304
81.9198
81.8105
81.7023
81.5936
81.4866
81.3831
81.2866
81.1985
81.12
81.0509
80.9904
80.9375
80.8914
80.8512
80.8164
80.7864
80.7611
80.7402
80.7239
80.712
80.7048
80.7024
80.7051
80.713
80.7266
80.746
80.7717
80.8039
80.843
80.8891
80.9425
81.0032
81.0713
81.147
81.2304
81.3216
81.4211
81.5292
81.6462
81.7727
81.9088
82.0549
82.2112
82.3779
82.5549
82.7425
82.9409
83.1503
83.371
83.6034
83.8481
84.1053
84.3754
84.6584
84.9544
85.2629
85.5832
85.9143
86.2544
86.6018
86.9538
87.3074
87.659
88.0049
88.34
88.6571
88.9484
89.2058
89.4228
89.5922
89.7077
89.7617
89.7474
89.6567
89.4828
89.2185
88.859
88.401
87.8439
87.1899
86.445
85.6182
84.7218
83.7713
82.784
81.7798
80.7777
79.7984
78.8577
78.0152
85.4864
84.8327
83.5612
82.2561
81.7894
82.091
82.634
83.0223
83.1403
83.0508
82.9174
82.8972
82.9952
83.1174
83.1873
83.1814
83.1183
83.0239
82.92
82.8234
82.7382
82.6603
82.5855
82.5089
82.4257
82.333
82.2303
82.1194
82.0056
81.8912
81.7784
81.6654
81.5521
81.4378
81.325
81.216
81.1138
81.0199
80.9352
80.8595
80.7922
80.7324
80.6792
80.632
80.5902
80.5534
80.5212
80.4936
80.4704
80.4518
80.4378
80.4288
80.4249
80.4265
80.4339
80.4476
80.4679
80.4952
80.5299
80.5724
80.6227
80.6812
80.7479
80.823
80.9067
80.9993
81.1011
81.2125
81.334
81.466
81.6087
81.7625
81.9276
82.1041
82.2921
82.4917
82.7029
82.9259
83.1609
83.4079
83.6671
83.9385
84.2218
84.5165
84.8219
85.1369
85.4599
85.7889
86.1216
86.455
86.7859
87.1103
87.4241
87.7231
88.001
88.251
88.4649
88.6366
88.7595
88.8292
88.8398
88.7874
88.667
88.4752
88.2083
87.8649
87.445
86.9505
86.3859
85.7572
85.0737
84.3442
83.5807
82.793
81.9937
81.192
80.3987
79.6213
78.8652
78.1749
85.3955
84.7418
83.4843
82.1941
81.7393
82.0492
82.5908
82.9664
83.0692
82.968
82.8235
82.7928
82.8855
83.009
83.0838
83.0827
83.0221
82.9275
82.8211
82.7204
82.6305
82.5481
82.4692
82.3891
82.3027
82.2065
82.101
81.9882
81.8732
81.7575
81.6422
81.5254
81.4071
81.2875
81.1695
81.0556
80.9484
80.8493
80.759
80.6774
80.6039
80.5379
80.4786
80.4254
80.3778
80.3352
80.2976
80.2646
80.2363
80.2128
80.1941
80.1805
80.1723
80.17
80.1739
80.1845
80.2022
80.2275
80.2609
80.3027
80.3533
80.4127
80.4813
80.5591
80.6466
80.7438
80.8513
80.9693
81.0982
81.2385
81.3904
81.554
81.7296
81.9171
82.1164
82.3276
82.5504
82.7848
83.0305
83.2874
83.555
83.8327
84.1197
84.4149
84.7167
85.0232
85.332
85.6406
85.9456
86.2436
86.5308
86.8028
87.0557
87.2844
87.4839
87.6467
87.7671
87.8401
87.8619
87.8295
87.7408
87.5942
87.3889
87.1246
86.8022
86.424
85.9934
85.5155
84.9962
84.4426
83.8614
83.2599
82.6439
82.0187
81.3881
80.7558
80.1238
79.4947
78.8684
78.2813
85.3005
84.6525
83.4177
82.1538
81.7173
82.0387
82.5791
82.9396
83.0206
82.8988
82.7354
82.688
82.7712
82.8938
82.9727
82.9773
82.9209
82.8279
82.7209
82.6178
82.5247
82.439
82.3569
82.2738
82.1844
82.0852
81.9771
81.8628
81.7469
81.6298
81.5119
81.3912
81.2682
81.1438
81.0212
80.9029
80.7915
80.6878
80.5927
80.506
80.4272
80.3559
80.2914
80.2332
80.1808
80.1338
80.092
80.0552
80.0234
79.9966
79.975
79.9588
79.9485
79.9444
79.947
79.9567
79.9743
80
80.0345
80.0781
80.1312
80.194
80.2667
80.3496
80.4428
80.5467
80.6615
80.7876
80.9252
81.0745
81.2358
81.409
81.594
81.7908
81.9991
82.2184
82.4485
82.6888
82.9386
83.1974
83.4641
83.7375
84.0163
84.2985
84.5821
84.8644
85.1425
85.4132
85.6729
85.918
86.1445
86.3485
86.5262
86.6738
86.786
86.8578
86.8852
86.8656
86.798
86.6819
86.5183
86.3084
86.0545
85.759
85.4255
85.0577
84.6605
84.2389
83.7979
83.3421
82.8751
82.3996
81.9166
81.4263
80.928
80.4212
79.9048
79.3791
78.8428
78.3271
85.2023
84.5685
83.3667
82.1331
81.718
82.0528
82.5927
82.9354
82.9899
82.8423
82.6548
82.5865
82.6565
82.7755
82.8574
82.8676
82.8162
82.7263
82.6202
82.5163
82.4212
82.3332
82.2486
82.1633
82.0714
81.9696
81.8596
81.7443
81.6276
81.5092
81.3886
81.2641
81.1367
81.0081
80.8815
80.7597
80.6446
80.5372
80.4381
80.3471
80.2639
80.1882
80.1195
80.0573
80.0013
79.9511
79.9064
79.8671
79.8331
79.8046
79.7816
79.7646
79.7538
79.7497
79.7528
79.7636
79.7827
79.8107
79.848
79.895
79.9522
80.0197
80.0979
80.1869
80.2868
80.398
80.5204
80.6544
80.8001
80.9575
81.1265
81.307
81.4986
81.701
81.9136
82.1358
82.3667
82.6054
82.851
83.1022
83.3577
83.6156
83.8739
84.1305
84.3825
84.6271
84.8611
85.081
85.2836
85.4653
85.6226
85.7526
85.8525
85.9192
85.9491
85.9391
85.8875
85.7946
85.6613
85.4901
85.2838
85.046
84.7802
84.4906
84.1807
83.8547
83.5161
83.1682
82.8137
82.4539
82.0891
81.7182
81.3394
80.9497
80.5467
80.1284
79.6934
79.2414
78.7712
78.3107
85.1047
84.4911
83.3285
82.1328
81.7397
82.0852
82.6221
82.9465
82.9733
82.7969
82.5819
82.4892
82.543
82.6558
82.7392
82.7546
82.7086
82.6228
82.5191
82.4156
82.3197
82.2305
82.1442
82.0569
81.9631
81.8592
81.7479
81.632
81.5147
81.3949
81.2717
81.1436
81.0124
80.8802
80.7505
80.6257
80.5078
80.3974
80.2951
80.2006
80.114
80.0349
79.963
79.8979
79.8392
79.7868
79.7404
79.6997
79.6649
79.6359
79.613
79.5965
79.5866
79.5839
79.5889
79.6022
79.6242
79.6555
79.6967
79.7482
79.8102
79.8832
79.9672
80.0623
80.1688
80.2866
80.4158
80.5564
80.7082
80.8712
81.045
81.2292
81.4231
81.6261
81.8373
82.0557
82.2802
82.5095
82.7421
82.9766
83.2109
83.4431
83.6707
83.8912
84.1017
84.2993
84.4808
84.6432
84.7835
84.8989
84.9872
85.0462
85.0748
85.0707
85.0322
84.9579
84.8489
84.7069
84.5355
84.338
84.1191
83.8826
83.6327
83.3729
83.1061
82.8351
82.5611
82.2858
82.0084
81.7285
81.4433
81.1508
80.8465
80.5282
80.192
79.8372
79.4619
79.0669
78.6498
78.236
85.0077
84.4212
83.3049
82.1472
81.7749
82.1294
82.6628
82.9685
82.9674
82.7617
82.5179
82.3989
82.4337
82.5377
82.6207
82.6402
82.5996
82.5183
82.4177
82.3157
82.2202
82.1305
82.0433
81.9547
81.8593
81.754
81.6421
81.526
81.4084
81.2872
81.1616
81.0303
80.8959
80.7607
80.6286
80.5016
80.3816
80.269
80.1643
80.0673
79.9782
79.8966
79.8224
79.7553
79.695
79.6414
79.5942
79.5532
79.5186
79.4902
79.4684
79.4533
79.4454
79.4452
79.453
79.4695
79.4951
79.5305
79.576
79.6322
79.6992
79.7773
79.8666
79.9672
80.0791
80.2021
80.3361
80.4809
80.6361
80.8014
80.976
81.1594
81.3506
81.5486
81.7522
81.9602
82.1712
82.3835
82.5954
82.805
83.0102
83.2088
83.3982
83.5758
83.739
83.885
84.0111
84.1149
84.1943
84.2475
84.2733
84.2712
84.2407
84.1813
84.0922
83.9744
83.8302
83.6632
83.4774
83.2773
83.0674
82.8512
82.6323
82.4127
82.1941
81.977
81.7614
81.5461
81.3294
81.1088
80.8811
80.6431
80.3913
80.1229
79.8357
79.5288