/*--------------------------------*- C++ -*----------------------------------*\
  =========                 |
  \\      /  F ield         | OpenFOAM: The Open Source CFD Toolbox
   \\    /   O peration     | Website:  https://openfoam.org
    \\  /    A nd           | Version:  8
     \\/     M anipulation  |
\*---------------------------------------------------------------------------*/
FoamFile
{
    version     2.0;
    format      ascii;
    class       volScalarField;
    location    "0.015033";
    object      alphat;
}
// * * * * * * * * * * * * * * * * * * * * * * * * * * * * * * * * * * * * * //

dimensions      [1 -1 -1 0 0 0 0];

internalField   nonuniform List<scalar> 
106000
(
0.00106702
0.00010227
1.28295e-05
3.12162e-06
1.21441e-06
6.33094e-07
4.34147e-07
4.90917e-07
5.36965e-07
5.61189e-07
5.29927e-07
4.49843e-07
4.65528e-07
5.04655e-07
5.41121e-07
5.69528e-07
5.93069e-07
6.07995e-07
6.16746e-07
6.23121e-07
6.29689e-07
6.34726e-07
6.38622e-07
6.40977e-07
6.4114e-07
6.38784e-07
6.33856e-07
6.25328e-07
6.13072e-07
5.96277e-07
5.76251e-07
5.5513e-07
5.33869e-07
5.12546e-07
4.90887e-07
4.69347e-07
4.50743e-07
4.32962e-07
4.16125e-07
3.99646e-07
3.83161e-07
3.66509e-07
3.43263e-07
3.1613e-07
2.86057e-07
2.52598e-07
2.16725e-07
1.72054e-07
1.3298e-07
9.27076e-08
0.00303252
0.000729063
0.000375044
0.000240971
0.000169368
0.000126321
9.86697e-05
8.01847e-05
6.92061e-05
8.19535e-05
9.51692e-05
0.000100117
0.000106058
0.000112767
0.000118578
0.000122922
0.00012577
0.000127432
0.000128411
0.000129134
0.000129879
0.000130453
0.000130906
0.000131201
0.000131271
0.000131085
0.000130638
0.000129817
0.000128599
0.00012687
0.000124739
0.00012242
0.000120014
0.000117525
0.000114912
0.000112183
0.000109368
0.000106571
0.00010386
0.000101139
9.83405e-05
9.54527e-05
9.24141e-05
8.90859e-05
8.53647e-05
8.10827e-05
7.52185e-05
6.63207e-05
5.6277e-05
4.57054e-05
0.00480567
0.00141954
0.000782383
0.000536915
0.000411411
0.000336493
0.000286184
0.000250287
0.000223186
0.000205858
0.000202177
0.000202303
0.000205611
0.000210151
0.000213076
0.00021388
0.000212754
0.000210373
0.000207624
0.000205122
0.000203223
0.000201462
0.000199904
0.000198431
0.000196901
0.000195247
0.00019345
0.0001915
0.000189388
0.000186696
0.000183558
0.000180255
0.000176904
0.000173502
0.000169989
0.000166378
0.000162721
0.000159139
0.00015571
0.00015239
0.000149096
0.000145825
0.000142569
0.000139186
0.000135525
0.000131296
0.000125314
0.000116241
0.000107715
0.000104786
0.0064173
0.00219765
0.0012373
0.000858564
0.000664362
0.000548495
0.000470779
0.000414824
0.000372012
0.000338544
0.000312972
0.00029736
0.000292654
0.000291805
0.000289189
0.000284419
0.000277858
0.000270482
0.000263452
0.000257415
0.000252721
0.00024841
0.000244672
0.000241276
0.000237995
0.000234738
0.000231469
0.000228219
0.000225004
0.000221617
0.000218049
0.000214442
0.000210885
0.000207356
0.000203768
0.000200161
0.000196644
0.000193365
0.000190456
0.000187911
0.000185647
0.00018373
0.000182156
0.000180733
0.000179211
0.00017725
0.000173929
0.000168463
0.000165643
0.000173351
0.00788409
0.00301557
0.00172808
0.00120713
0.000936701
0.00077362
0.000663322
0.000583141
0.000521314
0.000471698
0.000430691
0.000397537
0.000376184
0.000365458
0.00035432
0.0003422
0.000329143
0.000316213
0.000304741
0.000295217
0.000287897
0.000282179
0.000277566
0.000273514
0.000269739
0.000266184
0.000262832
0.000259786
0.000257107
0.000254654
0.000252417
0.000250508
0.000248996
0.000247791
0.000246673
0.000245623
0.00024463
0.000243686
0.000242764
0.000241672
0.00024011
0.000238227
0.000236049
0.000233475
0.00023041
0.000226805
0.000222296
0.000216408
0.000213432
0.000221442
0.00921872
0.00384299
0.00224419
0.00157725
0.0012262
0.00101185
0.000865399
0.000757906
0.000674386
0.000606704
0.000549864
0.000501778
0.000462949
0.000435739
0.000412075
0.000390706
0.000371271
0.000354264
0.00033999
0.00032867
0.000320489
0.000314848
0.000310805
0.000307509
0.000304641
0.000302199
0.00030011
0.000298491
0.000297335
0.00029635
0.000295446
0.000294689
0.000294112
0.000293565
0.000292738
0.000291757
0.000290695
0.000289578
0.00028839
0.000286884
0.000284564
0.000281794
0.000278618
0.000274924
0.000270645
0.000265791
0.000260226
0.000253584
0.000249583
0.000256501
0.0104318
0.00466182
0.002778
0.00196418
0.00152979
0.00126122
0.00107588
0.000938613
0.000831227
0.000743655
0.000669676
0.00060646
0.000552631
0.000509653
0.000473705
0.000442946
0.000416874
0.000395779
0.000379068
0.00036659
0.000358411
0.000353581
0.000350545
0.000348024
0.000345699
0.00034367
0.00034179
0.000340297
0.000339191
0.000338031
0.000336787
0.000335611
0.000334567
0.000333451
0.000331793
0.000329954
0.000328069
0.000326192
0.000324293
0.000322263
0.00031985
0.00031711
0.000314002
0.000310331
0.000306008
0.000300986
0.000295172
0.000288236
0.000282981
0.000287777
0.0115325
0.00545978
0.00332282
0.00236406
0.00184476
0.00151974
0.00129324
0.00112413
0.00099101
0.000881911
0.000789394
0.000711844
0.000646877
0.000593479
0.000548898
0.000511119
0.00047898
0.000452022
0.000430108
0.000414208
0.000404521
0.000399232
0.000395773
0.000392346
0.000388842
0.00038564
0.000382478
0.000379839
0.000377722
0.000375395
0.000372952
0.000370671
0.00036862
0.000366748
0.000364792
0.000362789
0.000360854
0.000359036
0.000357234
0.000355375
0.000353315
0.00035098
0.000348216
0.000344675
0.000340299
0.000335009
0.00032875
0.000321272
0.000314371
0.000316468
0.012529
0.0062338
0.00387354
0.00277377
0.00216884
0.0017856
0.00151604
0.00131325
0.00115275
0.00102057
0.000911803
0.000822029
0.000747508
0.000685786
0.000634166
0.000590471
0.000553169
0.0005213
0.000494249
0.00047248
0.000458057
0.00044972
0.000443614
0.000437245
0.000430921
0.000425368
0.000419932
0.000415463
0.00041183
0.000408523
0.000405464
0.000402755
0.000400387
0.000398354
0.000396475
0.000394609
0.000392839
0.000391181
0.00038942
0.0003875
0.000385388
0.000383
0.000380149
0.000376312
0.000371578
0.000365876
0.000359153
0.000351209
0.000343075
0.000343018
0.0134286
0.00698252
0.00442609
0.00319078
0.00250011
0.00205727
0.00174297
0.00150485
0.00131538
0.00116296
0.00103935
0.000938201
0.000854638
0.00078521
0.000726948
0.000677468
0.000634978
0.000598225
0.000566268
0.000538819
0.000517557
0.000503172
0.000492048
0.000480825
0.000470406
0.000461765
0.000454751
0.000449239
0.000444811
0.000440951
0.000437559
0.00043464
0.000432056
0.000429822
0.000427782
0.000425674
0.000423636
0.000421707
0.000419521
0.000417076
0.000414481
0.000411674
0.000408549
0.000404762
0.000400128
0.000394504
0.000387791
0.000379803
0.000370982
0.000368737
0.0142377
0.0077044
0.00497714
0.00361297
0.0028369
0.00233338
0.00197285
0.00169783
0.00148189
0.00131046
0.00117257
0.00106023
0.000967571
0.000890353
0.000825247
0.000769634
0.000721517
0.000679457
0.000642306
0.000609312
0.000581372
0.000558395
0.000539733
0.000523535
0.000509599
0.00049848
0.000490195
0.000483907
0.000478788
0.000474206
0.000470159
0.000466648
0.000463392
0.000460488
0.000457803
0.000454921
0.000452155
0.000449581
0.000446996
0.000444346
0.000441627
0.000438725
0.000435573
0.000431922
0.000427443
0.000421937
0.000415281
0.000407316
0.000398065
0.000393809
0.0149616
0.00839829
0.00552387
0.00403859
0.00317777
0.00261268
0.00220455
0.00189406
0.00165313
0.00146324
0.00131114
0.00118743
0.00108531
0.000999895
0.00092747
0.000865181
0.000810849
0.00076292
0.000720096
0.000681309
0.00064716
0.00061784
0.000592942
0.000571405
0.000553065
0.000538689
0.000528473
0.00052076
0.00051425
0.000508161
0.000502733
0.000498026
0.000493524
0.000489479
0.000485891
0.000482479
0.000479306
0.00047639
0.000473559
0.000470771
0.000467949
0.000464895
0.0004616
0.000457899
0.00045336
0.000447788
0.000441093
0.000433149
0.000423804
0.000418206
0.0156092
0.00906364
0.00606385
0.00446615
0.0035214
0.00289407
0.00243817
0.00209425
0.00182908
0.00162087
0.00145437
0.0013189
0.00120683
0.00111266
0.00103234
0.000962766
0.000901604
0.000847226
0.000798181
0.000754227
0.000715298
0.000681241
0.000651639
0.000625717
0.000603083
0.000584261
0.00057049
0.000559845
0.000550694
0.000542018
0.000534423
0.000528146
0.000522689
0.00051783
0.000513584
0.000509694
0.000506126
0.000502836
0.000499604
0.000496463
0.000493309
0.000489836
0.000486152
0.000482175
0.000477606
0.000472154
0.000465639
0.000457926
0.00044875
0.000442243
0.016193
0.00970039
0.00659497
0.0048944
0.00386662
0.00317645
0.00267459
0.00229838
0.00200932
0.0017827
0.00160146
0.00145375
0.00133116
0.00122765
0.00113882
0.00106135
0.000992746
0.000931668
0.000877235
0.000828744
0.000785698
0.000747645
0.000714069
0.000684305
0.000657818
0.000634632
0.000616071
0.000600552
0.000587234
0.000575715
0.000566241
0.000558656
0.000552289
0.00054656
0.000541537
0.000536918
0.000532673
0.000528737
0.000524779
0.000520988
0.000517314
0.00051357
0.000509678
0.000505558
0.000500995
0.000495641
0.000489288
0.000481806
0.000472863
0.000465753
0.0167222
0.0103089
0.00711586
0.00532166
0.00421232
0.00345957
0.00291388
0.0025061
0.00219324
0.00194798
0.00175159
0.00159112
0.00145744
0.00134398
0.00124604
0.00116007
0.00108415
0.00101709
0.000957698
0.000904939
0.000857997
0.000816182
0.000778862
0.000745404
0.000715198
0.000687889
0.000664308
0.00064401
0.000626512
0.000611736
0.000599985
0.00059074
0.000583029
0.000575902
0.000569657
0.000563852
0.00055853
0.000553706
0.000549169
0.000544902
0.000540814
0.000536794
0.000532659
0.000528326
0.000523653
0.000518229
0.00051189
0.000504543
0.000495906
0.000488629
0.017204
0.0108898
0.0076255
0.00574626
0.00455742
0.00374386
0.00315575
0.00271685
0.00238017
0.00211598
0.00190399
0.00173025
0.0015849
0.00146091
0.00135327
0.00125905
0.00117642
0.00110375
0.00103955
0.000982551
0.000931677
0.000886049
0.000844929
0.000807697
0.000773674
0.000742844
0.000715521
0.000691468
0.000670293
0.000651886
0.000636876
0.00062491
0.000614931
0.000605519
0.000597447
0.00059044
0.00058421
0.000578612
0.000573471
0.000568678
0.000564068
0.000559611
0.000555039
0.000550299
0.000545337
0.000539859
0.000533613
0.000526477
0.0005182
0.000510965
0.0176443
0.0114438
0.00812303
0.00616675
0.00490091
0.00402917
0.00339973
0.00293
0.0025694
0.00228597
0.00205796
0.00187043
0.00171286
0.00157776
0.00146061
0.00135871
0.00126968
0.00119153
0.00112253
0.00106116
0.00100616
0.000956516
0.000911379
0.000870388
0.000833111
0.000799283
0.000768893
0.000741718
0.000717384
0.00069564
0.000676999
0.000661018
0.000647513
0.000635759
0.000625952
0.000617695
0.000610425
0.000603866
0.00059787
0.000592304
0.000586906
0.000581771
0.000576749
0.000571692
0.000566504
0.000560947
0.000554733
0.000547751
0.000539765
0.000532638
0.0180476
0.0119716
0.00860768
0.00658179
0.00524181
0.00431508
0.00364524
0.0031449
0.00276027
0.00245729
0.00221284
0.00201102
0.00184071
0.00169448
0.00156838
0.00145911
0.00136381
0.00128017
0.00120622
0.00114026
0.00108088
0.00102691
0.000977999
0.000933685
0.000893447
0.000856861
0.000823695
0.00079368
0.000766431
0.000741566
0.000719422
0.000699928
0.000682974
0.000668349
0.000656304
0.000646278
0.000637436
0.000629428
0.000622149
0.000615564
0.000609467
0.000603733
0.000598253
0.000592818
0.000587321
0.000581561
0.000575218
0.000568254
0.000560514
0.000553621
0.018418
0.0124741
0.00907882
0.00699017
0.00558082
0.00460108
0.00389164
0.0033609
0.00295213
0.0026293
0.00236802
0.00215144
0.00196806
0.00181132
0.00167663
0.00156012
0.00145853
0.00136929
0.00129018
0.00121936
0.00115526
0.00109733
0.00104496
0.000997534
0.000954445
0.000915147
0.000879259
0.000846464
0.000816328
0.00078877
0.000763869
0.000741544
0.000721639
0.000704048
0.000689086
0.000676362
0.000665057
0.000655241
0.000646732
0.000639131
0.000632238
0.000625776
0.00061968
0.000613672
0.000607677
0.000601593
0.00059514
0.000588212
0.000580689
0.000574023
0.0187589
0.0129522
0.00953594
0.00739069
0.00591761
0.0048866
0.00413831
0.00357736
0.00314436
0.00280142
0.00252293
0.00229113
0.00209516
0.0019283
0.00178519
0.00166149
0.00155352
0.00145847
0.00137396
0.00129795
0.00122954
0.00116789
0.00111219
0.00106172
0.00101576
0.000973676
0.000934972
0.000899446
0.000866842
0.000836953
0.000809701
0.000784954
0.000762474
0.000742154
0.000724037
0.000708192
0.000694288
0.000682405
0.000672373
0.000663416
0.00065539
0.000647863
0.00064087
0.000634238
0.000627779
0.00062137
0.000614726
0.00060775
0.000600334
0.000593816
0.019073
0.0134066
0.00997861
0.00778216
0.00625175
0.005171
0.00438459
0.00379367
0.00333637
0.00297309
0.00267704
0.00243008
0.00222204
0.0020453
0.00189384
0.00176288
0.00164836
0.00154729
0.00145707
0.00137628
0.00130377
0.0012385
0.00117952
0.00112595
0.00107701
0.00103196
0.000990601
0.000952651
0.000917798
0.000885755
0.000856331
0.000829348
0.000804457
0.000781692
0.000761064
0.000742587
0.000726087
0.00071169
0.000699509
0.000688488
0.00067876
0.00067011
0.000662225
0.000654905
0.00064786
0.000640999
0.000633991
0.000626806
0.000619413
0.000613054
0.0193631
0.0138382
0.0104065
0.00816369
0.00658246
0.00545362
0.00462986
0.00400922
0.0035276
0.00314377
0.00282981
0.00256832
0.00234855
0.00216207
0.00200227
0.00186396
0.00174268
0.00163531
0.00153973
0.00145437
0.00137786
0.00130898
0.00124664
0.00118987
0.00113776
0.00108999
0.00104618
0.00100595
0.000968937
0.000934779
0.00090321
0.000874014
0.000847068
0.000822264
0.000799537
0.000778841
0.000760015
0.000743029
0.000728063
0.000714761
0.000703179
0.000693161
0.000684108
0.000675842
0.000667923
0.000660377
0.000652961
0.000645553
0.000638124
0.000631848
0.0196313
0.0142479
0.0108193
0.00853468
0.00690859
0.00573379
0.00487347
0.00422342
0.0037175
0.00331295
0.00298127
0.00270573
0.00247448
0.00227834
0.00211014
0.00196433
0.00183607
0.00172262
0.00162192
0.0015321
0.00145161
0.00137907
0.00131326
0.00125309
0.00119809
0.00114775
0.00110159
0.00105913
0.00101994
0.000983606
0.000949956
0.000918834
0.000890066
0.000863443
0.000838832
0.000816145
0.000795185
0.000776006
0.0007587
0.000743114
0.000729334
0.000717439
0.000706625
0.000696948
0.000688098
0.00067983
0.00067189
0.00066413
0.000656511
0.000650189
0.0198795
0.0146363
0.0112168
0.0088955
0.00722911
0.00601084
0.00511482
0.00443571
0.00390553
0.00348008
0.00313133
0.00284212
0.00259956
0.00239378
0.00221709
0.00206363
0.00192844
0.00180921
0.00170353
0.00160929
0.00152477
0.00144846
0.00137901
0.00131573
0.00125799
0.00120515
0.00115664
0.00111191
0.00107045
0.00103207
0.000996537
0.000963638
0.000933163
0.000904805
0.000878378
0.00085387
0.000831141
0.000810141
0.000790884
0.000773254
0.000757224
0.000742932
0.000730153
0.000718891
0.000708848
0.000699606
0.000690871
0.000682508
0.000674558
0.000668164
0.0201095
0.0150042
0.0115987
0.00924577
0.007543
0.00628411
0.00535329
0.00464552
0.00409119
0.00364502
0.00327978
0.00297721
0.00272348
0.00250806
0.00232277
0.00216145
0.00201977
0.00189495
0.00178437
0.0016857
0.00159707
0.00151683
0.00144399
0.00137775
0.00131732
0.00126198
0.00121108
0.00116397
0.00112042
0.00108013
0.00104282
0.00100819
0.000976037
0.000945924
0.000917878
0.000891803
0.000867515
0.000844904
0.000823925
0.000804446
0.000786504
0.000770166
0.000755374
0.000742182
0.000730447
0.000719739
0.000709971
0.000700912
0.000692498
0.000685909
0.0203228
0.0153522
0.0119649
0.00958499
0.00784926
0.006553
0.00558828
0.00485231
0.00427393
0.0038076
0.00342637
0.00311071
0.0028459
0.00262082
0.0024268
0.00225792
0.00210995
0.00197966
0.00186422
0.00176104
0.00166817
0.00158423
0.00150816
0.00143901
0.0013759
0.00131802
0.00126461
0.00121532
0.0011698
0.00112768
0.0010886
0.00105223
0.00101834
0.000986699
0.000957188
0.000929682
0.000903938
0.0008798
0.000857266
0.000836258
0.000816731
0.000798673
0.000782071
0.000766825
0.000753085
0.000740724
0.000729673
0.000719623
0.000710453
0.000703447
0.0205206
0.0156809
0.0123152
0.00991265
0.00814684
0.00681693
0.00581919
0.00505552
0.0044532
0.00396756
0.00357079
0.00324227
0.00296647
0.0027317
0.00252902
0.00235291
0.0021988
0.00206311
0.00194279
0.00183502
0.00173807
0.00165059
0.00157137
0.00149934
0.00143351
0.00137298
0.00131726
0.00126591
0.00121847
0.00117451
0.00113363
0.00109555
0.0010601
0.00102702
0.000996107
0.000967224
0.000940032
0.000914541
0.000890671
0.000868326
0.00084741
0.000827831
0.000809606
0.000792698
0.000777173
0.000763018
0.000750299
0.000738751
0.000728523
0.000720963
0.0207041
0.0159909
0.0126492
0.0102282
0.00843478
0.0070752
0.00604542
0.0052546
0.00462886
0.0041246
0.0037127
0.00337154
0.00308483
0.0028403
0.00262934
0.00244623
0.00228611
0.00214504
0.00201982
0.00190752
0.00180668
0.00171577
0.00163344
0.0015585
0.00148987
0.00142689
0.00136897
0.0013156
0.00126624
0.0012204
0.00117778
0.00113813
0.0011012
0.0010667
0.0010344
0.00100412
0.000975674
0.000948964
0.000923876
0.000900293
0.000878073
0.000857205
0.000837646
0.000819343
0.000802306
0.000786457
0.00077195
0.000758771
0.00074721
0.000738713
0.0208743
0.0162825
0.0129669
0.010531
0.00871254
0.00732657
0.00626634
0.00544899
0.00480058
0.00427834
0.00385172
0.00349816
0.00320059
0.00294648
0.00272756
0.00253767
0.00237161
0.00222518
0.00209497
0.00197844
0.00187387
0.00177959
0.00169415
0.00161624
0.00154498
0.00147965
0.0014196
0.00136421
0.00131288
0.00126525
0.00122101
0.00117985
0.00114147
0.00110554
0.00107189
0.00104035
0.00101073
0.000982864
0.000956597
0.000931838
0.000908502
0.000886521
0.000865801
0.000846267
0.000827899
0.000810681
0.000794688
0.000779944
0.000766801
0.0007568
0.021032
0.0165562
0.0132678
0.0108206
0.0089795
0.0075699
0.00648135
0.0056381
0.00496801
0.00442842
0.00398749
0.00362173
0.00331337
0.00305006
0.00282347
0.00262695
0.00245504
0.00230322
0.00216825
0.00204765
0.00193944
0.00184183
0.00175323
0.00167249
0.00159874
0.00153114
0.00146896
0.00141151
0.00135832
0.001309
0.0012632
0.00122056
0.0011807
0.00114341
0.00110851
0.00107579
0.00104503
0.001016
0.000988643
0.000962843
0.000938493
0.000915497
0.000893695
0.000873092
0.000853632
0.000835273
0.000818045
0.000801911
0.000787286
0.000775622
0.0211779
0.0168123
0.0135517
0.0110963
0.009235
0.00780398
0.00668982
0.00582131
0.0051307
0.00457442
0.00411958
0.00374186
0.0034229
0.00315081
0.0029168
0.00271382
0.00253609
0.00237898
0.00223949
0.00211495
0.00200317
0.00190222
0.00181058
0.00172715
0.00165099
0.00158115
0.00151683
0.00145742
0.00140246
0.00135152
0.00130419
0.00126003
0.00121879
0.00118023
0.00114415
0.00111027
0.00107834
0.00104826
0.00101991
0.000993139
0.000967819
0.000943837
0.000921111
0.00089959
0.000879182
0.000859818
0.000841509
0.00082427
0.000808424
0.000795265
0.0213126
0.0170507
0.0138181
0.0113574
0.00947836
0.00802759
0.00689119
0.00599842
0.00528822
0.00471588
0.00424757
0.00385812
0.00352898
0.00324846
0.00300727
0.00279794
0.00261442
0.00245233
0.00230851
0.00218013
0.00206482
0.00196058
0.00186606
0.00178007
0.00170156
0.00162948
0.00156308
0.00150182
0.00144518
0.00139265
0.00134375
0.00129818
0.00125565
0.00121587
0.00117862
0.00114356
0.00111059
0.00107954
0.00105023
0.00102252
0.000996279
0.000971431
0.000947869
0.000925517
0.000904227
0.000884
0.000864811
0.000846645
0.000829764
0.00081533
0.0214365
0.0172718
0.0140667
0.0116034
0.00970886
0.00823991
0.0070843
0.00616893
0.00544006
0.00485236
0.00437102
0.00397006
0.00363129
0.00334271
0.00309456
0.00287901
0.00268989
0.00252306
0.00237508
0.00224295
0.00212411
0.00201678
0.00191953
0.00183105
0.00175022
0.00167594
0.00160762
0.00154459
0.00148629
0.00143216
0.00138181
0.00133491
0.00129115
0.00125015
0.00121172
0.00117562
0.00114167
0.00110967
0.00107943
0.00105083
0.00102376
0.000998119
0.000973764
0.000950608
0.000928572
0.000907605
0.000887658
0.000868667
0.000850906
0.000835454
0.0215498
0.0174753
0.0142974
0.0118334
0.00992574
0.00844027
0.00726776
0.0063323
0.00558572
0.00498335
0.00448946
0.00407744
0.00372953
0.00343322
0.00317833
0.00295667
0.00276228
0.00259093
0.00243894
0.00230313
0.0021809
0.00207064
0.00197078
0.00187987
0.00179673
0.00172043
0.00165028
0.00158554
0.0015256
0.00146996
0.00141825
0.00137008
0.0013251
0.00128292
0.00124341
0.00120632
0.00117142
0.00113848
0.00110737
0.00107797
0.00105013
0.00102371
0.000998609
0.000974752
0.000952044
0.000930403
0.000909755
0.000890082
0.000871577
0.000855246
0.0216528
0.017661
0.0145097
0.0120467
0.0101282
0.00862798
0.0074401
0.00648794
0.00572463
0.00510835
0.00460239
0.00417992
0.00382333
0.00351964
0.00325823
0.00303069
0.00283133
0.00265568
0.00249982
0.00236035
0.002235
0.00212198
0.0020196
0.00192628
0.00184098
0.00176278
0.00169088
0.00162446
0.00156295
0.00150592
0.00145291
0.00140351
0.00135731
0.00131407
0.00127355
0.0012355
0.00119965
0.00116586
0.00113396
0.00110379
0.00107519
0.00104806
0.00102229
0.00099779
0.000974442
0.000952183
0.000930947
0.000910685
0.000891506
0.00087433
0.0217454
0.0178287
0.0147029
0.0122425
0.0103153
0.00880225
0.00760035
0.00663461
0.00585619
0.0052268
0.00470927
0.0042771
0.0039123
0.00360156
0.00333385
0.00310082
0.00289677
0.00271701
0.0025574
0.00241449
0.0022862
0.00217053
0.00206572
0.00197011
0.00188281
0.00180281
0.00172922
0.00166117
0.00159823
0.00153988
0.00148562
0.00143499
0.0013877
0.00134346
0.00130199
0.00126298
0.00122628
0.00119169
0.00115904
0.00112811
0.00109882
0.00107105
0.00104466
0.00101953
0.000995608
0.000972815
0.000951056
0.000930252
0.000910476
0.000892479
0.0218272
0.0179776
0.0148763
0.01242
0.0104862
0.00896226
0.00774808
0.00677075
0.00597977
0.00533812
0.00480974
0.00436854
0.003996
0.00367859
0.00340489
0.00316673
0.00295826
0.0027746
0.00261133
0.00246529
0.00233423
0.00221606
0.00210887
0.00201118
0.00192201
0.00184029
0.00176503
0.00169553
0.00163124
0.00157164
0.00151615
0.00146442
0.00141612
0.00137094
0.00132852
0.00128866
0.00125117
0.00121583
0.00118242
0.00115082
0.0011209
0.00109253
0.00106554
0.00103986
0.00101541
0.000992134
0.000969875
0.000948619
0.000928354
0.000909444
0.0218977
0.018107
0.0150287
0.0125779
0.0106398
0.00910707
0.00788254
0.00689485
0.00609365
0.00544031
0.00490072
0.00445062
0.00407052
0.00374658
0.00346703
0.00322409
0.00301158
0.00282427
0.00265755
0.00250869
0.00237521
0.0022547
0.00214538
0.00204592
0.00195516
0.00187185
0.00179515
0.00172443
0.00165902
0.00159827
0.00154176
0.00148913
0.00143999
0.00139393
0.00135074
0.00131019
0.00127204
0.001236
0.00120198
0.00116983
0.00113938
0.00111043
0.00108294
0.00105682
0.00103194
0.00100821
0.000985593
0.000964042
0.000943594
0.000924775
0.0219561
0.018216
0.0151593
0.0127081
0.010763
0.00922095
0.0079872
0.00699176
0.00618315
0.00552191
0.00497428
0.00451697
0.00413046
0.00380088
0.0035167
0.00326986
0.00305398
0.00286347
0.0026941
0.00254296
0.00240744
0.00228499
0.00217402
0.00207312
0.00198104
0.00189642
0.00181862
0.00174694
0.00168056
0.00161891
0.00156163
0.00150828
0.0014584
0.00141169
0.00136792
0.00132681
0.00128806
0.00125151
0.00121704
0.00118445
0.0011535
0.00112415
0.0010963
0.00106981
0.00104457
0.00102056
0.00099769
0.000975907
0.000955326
0.000936533
0.0220013
0.0182937
0.015244
0.0127937
0.0108456
0.00929829
0.00805962
0.00705976
0.00624665
0.00558026
0.00502749
0.00456521
0.00417445
0.00384073
0.00355306
0.0033032
0.00308462
0.00289168
0.00272031
0.00256741
0.00243025
0.00230639
0.00219422
0.00209222
0.00199904
0.00191356
0.00183496
0.00176255
0.00169541
0.00163315
0.00157532
0.0015214
0.00147101
0.00142384
0.00137966
0.00133809
0.00129894
0.00126204
0.00122724
0.00119425
0.00116301
0.00113339
0.00110525
0.00107849
0.00105304
0.00102885
0.0010058
0.000983898
0.000963275
0.000944409
0.0220205
0.018325
0.0152786
0.0128312
0.0108842
0.00933588
0.00809706
0.00709645
0.00628198
0.00561354
0.0050584
0.00459344
0.00420013
0.00386396
0.0035742
0.0033224
0.00310198
0.00290762
0.00273497
0.0025809
0.00244271
0.00231798
0.00220508
0.00210233
0.00200851
0.00192252
0.00184342
0.00177052
0.00170304
0.00164043
0.00158225
0.00152799
0.00147732
0.00142989
0.00138542
0.00134361
0.00130423
0.00126711
0.00123207
0.0011989
0.00116749
0.0011377
0.0011094
0.00108252
0.00105695
0.00103265
0.00100955
0.00098767
0.000967078
0.000948098
0.022017
0.0183197
0.0152731
0.0128273
0.0108819
0.00933488
0.00809834
0.00710045
0.00628819
0.00562066
0.00506589
0.00460064
0.00420661
0.00386971
0.00357925
0.00332667
0.00310548
0.00291046
0.00273736
0.00258286
0.00244419
0.00231915
0.00220597
0.00210298
0.00200896
0.00192277
0.00184354
0.00177052
0.001703
0.00164037
0.00158215
0.00152786
0.00147717
0.00142973
0.00138523
0.0013434
0.00130402
0.00126687
0.00123181
0.00119862
0.00116721
0.00113739
0.00110908
0.00108219
0.00105662
0.00103232
0.00100924
0.000987374
0.000966824
0.000947872
0.0220049
0.0182996
0.0152511
0.0128072
0.0108647
0.00932051
0.00808669
0.00709104
0.00628069
0.0056144
0.00506064
0.00459604
0.00420237
0.00386577
0.0035755
0.00332308
0.00310198
0.00290702
0.00273404
0.0025796
0.002441
0.00231604
0.00220293
0.00210002
0.00200604
0.00191993
0.00184078
0.00176781
0.00170036
0.00163779
0.00157963
0.0015254
0.00147477
0.00142739
0.00138292
0.00134113
0.00130179
0.00126469
0.00122966
0.0011965
0.00116512
0.00113533
0.00110705
0.0010802
0.00105467
0.00103039
0.00100736
0.000985537
0.000965043
0.000946123
0.021985
0.0182655
0.0152132
0.0127715
0.0108328
0.00929302
0.00806322
0.00707109
0.00626379
0.00559963
0.00504773
0.00458443
0.00419179
0.00385601
0.00356636
0.0033145
0.0030938
0.00289922
0.00272658
0.00257247
0.00243416
0.00230944
0.00219658
0.00209388
0.00200011
0.0019142
0.00183523
0.00176244
0.00169513
0.00163273
0.00157471
0.00152062
0.00147012
0.00142286
0.00137851
0.00133684
0.00129759
0.00126058
0.00122563
0.00119256
0.00116126
0.00113154
0.00110334
0.00107655
0.00105108
0.00102688
0.00100391
0.00098218
0.000961756
0.00094289
0.0219579
0.018218
0.0151599
0.0127206
0.0107867
0.00925266
0.00802813
0.00704077
0.00623748
0.00557649
0.00502728
0.00456593
0.00417493
0.00384044
0.0035519
0.00330093
0.00308101
0.00288711
0.00271505
0.00256151
0.00242366
0.00229938
0.00218693
0.00208461
0.00199119
0.0019056
0.00182693
0.00175441
0.00168737
0.00162519
0.00156741
0.00151355
0.00146325
0.00141618
0.00137201
0.00133051
0.00129143
0.00125458
0.00121975
0.00118682
0.00115563
0.00112604
0.00109794
0.00107126
0.0010459
0.0010218
0.000998946
0.00097732
0.000957004
0.000938216
0.0219244
0.0181577
0.0150917
0.0126548
0.0107266
0.00919965
0.00798162
0.00700024
0.00620195
0.00554509
0.00499927
0.00454063
0.00415189
0.00381915
0.0035322
0.00328244
0.00306365
0.00287069
0.0026995
0.00254671
0.00240955
0.00228591
0.00217403
0.00207224
0.00197928
0.00189415
0.00181588
0.00174376
0.00167705
0.00161522
0.00155776
0.0015042
0.00145419
0.00140738
0.00136346
0.00132219
0.00128332
0.00124667
0.00121204
0.00117929
0.00114828
0.00111884
0.0010909
0.00106436
0.00103914
0.00101518
0.000992452
0.000970943
0.000950739
0.000932015
0.0218848
0.0180851
0.0150088
0.0125744
0.0106527
0.00913421
0.00792386
0.00694967
0.00615734
0.00550556
0.00496385
0.00450862
0.00412265
0.00379223
0.00350721
0.0032591
0.00304178
0.00285002
0.00267997
0.00252814
0.00239189
0.00226902
0.00215791
0.00205678
0.00196444
0.00187986
0.00180211
0.00173047
0.00166422
0.00160282
0.00154575
0.00149257
0.0014429
0.00139643
0.00135283
0.00131186
0.00127328
0.00123689
0.0012025
0.00116997
0.00113917
0.00110994
0.00108221
0.00105584
0.0010308
0.00100701
0.000984429
0.000963071
0.000942984
0.000924338
0.0218395
0.0180005
0.0149118
0.0124798
0.0105654
0.00905653
0.00785505
0.0068892
0.0061038
0.00545802
0.00492113
0.00447
0.00408733
0.00375973
0.00347705
0.00323097
0.0030154
0.00282516
0.00265645
0.00250584
0.00237066
0.00224878
0.00213851
0.00203819
0.00194661
0.00186271
0.00178562
0.00171457
0.00164888
0.00158799
0.00153141
0.00147868
0.00142945
0.00138337
0.00134015
0.00129954
0.0012613
0.00122522
0.00119114
0.0011589
0.00112836
0.00109937
0.00107186
0.00104573
0.0010209
0.000997301
0.000974915
0.00095373
0.000933778
0.00091522
0.0217875
0.0179043
0.0148007
0.0123708
0.0104647
0.00896659
0.00777535
0.006819
0.00604148
0.00540259
0.00487124
0.00442488
0.00404602
0.00372174
0.00344179
0.00319811
0.00298459
0.00279614
0.00262893
0.00247973
0.0023458
0.00222511
0.00211587
0.00201652
0.00192583
0.00184276
0.00176642
0.00169608
0.00163104
0.00157077
0.00151475
0.00146257
0.00141383
0.00136823
0.00132547
0.00128529
0.00124743
0.00121173
0.00117799
0.00114608
0.00111584
0.00108715
0.00105993
0.00103404
0.00100946
0.000986097
0.000963932
0.000942929
0.000923148
0.00090469
0.0217283
0.0177968
0.0146759
0.0122478
0.0103509
0.0088646
0.00768495
0.00673907
0.00597054
0.00533929
0.00481432
0.00437324
0.00399883
0.00367824
0.00340152
0.00316045
0.0029492
0.00276279
0.0025974
0.00244983
0.00231738
0.00219804
0.00209005
0.00199179
0.00190215
0.00182001
0.00174457
0.00167503
0.00161077
0.00155119
0.00149584
0.00144426
0.0013961
0.00135103
0.00130879
0.00126909
0.00123169
0.00119642
0.0011631
0.00113157
0.00110167
0.00107331
0.0010464
0.00102082
0.000996522
0.000973418
0.000951489
0.000930715
0.000911122
0.000892797
0.0216621
0.0176755
0.0145375
0.0121109
0.0102242
0.00875081
0.00758405
0.00664962
0.00589114
0.00526829
0.00475049
0.00431526
0.00394585
0.00362934
0.00335604
0.00311792
0.00290932
0.00272521
0.00256192
0.00241621
0.00228546
0.00216765
0.00206104
0.00196406
0.00187558
0.00179453
0.00172008
0.00165149
0.00158807
0.0015293
0.00147468
0.0014238
0.00137629
0.00133183
0.00129016
0.001251
0.00121413
0.00117934
0.00114647
0.00111536
0.00108587
0.00105789
0.00103134
0.0010061
0.000982104
0.0009593
0.000937645
0.000917115
0.000897737
0.000879576
0.0215887
0.0175389
0.014385
0.0119605
0.010085
0.00862547
0.00747289
0.00655087
0.00580347
0.00518978
0.0046799
0.00425108
0.00388699
0.00357483
0.00330533
0.00307062
0.00286494
0.00268348
0.00252253
0.00237895
0.00225007
0.00213401
0.00202894
0.0019334
0.00184622
0.00176637
0.00169302
0.00162545
0.00156301
0.00150512
0.00145133
0.00140122
0.00135444
0.00131065
0.00126962
0.00123108
0.00119478
0.00116053
0.00112817
0.00109754
0.00106847
0.00104091
0.00101475
0.000989891
0.000966251
0.00094378
0.000922419
0.000902166
0.000883036
0.000865061
0.0215081
0.017387
0.0142138
0.0117965
0.00993332
0.00848884
0.00735171
0.00644309
0.00570773
0.00510399