/*--------------------------------*- C++ -*----------------------------------*\
  =========                 |
  \\      /  F ield         | OpenFOAM: The Open Source CFD Toolbox
   \\    /   O peration     | Website:  https://openfoam.org
    \\  /    A nd           | Version:  8
     \\/     M anipulation  |
\*---------------------------------------------------------------------------*/
FoamFile
{
    version     2.0;
    format      ascii;
    class       volScalarField;
    location    "0.015033";
    object      Ma;
}
// * * * * * * * * * * * * * * * * * * * * * * * * * * * * * * * * * * * * * //

dimensions      [0 0 0 0 0 0 0];

internalField   nonuniform List<scalar> 
106000
(
0.0348217
0.0325469
0.0301684
0.0275747
0.0252035
0.0229683
0.0209303
0.019157
0.0177379
0.0172145
0.0172561
0.0173304
0.017375
0.0174136
0.0174328
0.0174087
0.0173312
0.0172047
0.0170447
0.0168682
0.0166895
0.0165122
0.0163392
0.0161711
0.0160072
0.0158457
0.0156851
0.0155221
0.015354
0.015176
0.0149861
0.014785
0.0145732
0.014348
0.0141038
0.013832
0.0135226
0.0131669
0.0127558
0.0122593
0.0116389
0.010849
0.00985054
0.00859959
0.00705136
0.00524308
0.00323894
0.00148807
0.00289828
0.0047369
0.03544
0.0343196
0.0335462
0.032522
0.0316273
0.0307784
0.0300052
0.0292894
0.0286437
0.0279223
0.0272531
0.0267318
0.0263221
0.0259729
0.025655
0.0253524
0.025055
0.0247572
0.0244598
0.0241662
0.0238809
0.0236062
0.0233438
0.0230948
0.022859
0.0226354
0.0224226
0.0222196
0.022025
0.021836
0.0216491
0.0214618
0.021271
0.0210725
0.0208609
0.0206279
0.0203626
0.0200558
0.0196926
0.0192484
0.0186889
0.0179695
0.0170116
0.0157243
0.0139955
0.0117376
0.00888559
0.00515703
0.000497061
0.00293905
0.0356663
0.0348423
0.0344735
0.0338482
0.0333361
0.0328428
0.0324031
0.0319939
0.0316204
0.031158
0.0306159
0.030102
0.0296456
0.0292344
0.0288532
0.0284942
0.0281522
0.0278231
0.0275047
0.0271967
0.0268995
0.0266141
0.0263417
0.0260831
0.0258383
0.0256069
0.025388
0.0251812
0.0249861
0.0248017
0.0246257
0.0244545
0.0242841
0.0241102
0.0239273
0.0237282
0.023503
0.0232425
0.0229326
0.0225517
0.0220703
0.0214503
0.0206324
0.0195353
0.0180468
0.0160415
0.013402
0.00986517
0.00505076
0.000633979
0.035789
0.0351069
0.0349093
0.0344587
0.0341155
0.0337727
0.0334734
0.0331928
0.0329367
0.0326408
0.0322781
0.0318908
0.0315061
0.0311354
0.0307801
0.0304405
0.0301168
0.0298072
0.0295103
0.0292244
0.0289489
0.0286848
0.0284325
0.028192
0.027963
0.0277457
0.0275399
0.0273455
0.0271624
0.0269905
0.0268286
0.0266736
0.0265218
0.0263689
0.0262094
0.0260369
0.0258425
0.0256169
0.0253477
0.0250154
0.0245934
0.0240491
0.0233353
0.022386
0.0211073
0.019378
0.0170636
0.0139348
0.00949206
0.00448813
0.0358675
0.0352663
0.0351596
0.0348051
0.0345611
0.0343074
0.0340929
0.0338905
0.0337059
0.0335006
0.0332554
0.0329837
0.032694
0.0323947
0.0320963
0.0318049
0.0315247
0.0312564
0.030999
0.0307511
0.0305117
0.0302817
0.0300607
0.0298486
0.0296448
0.0294503
0.0292648
0.0290885
0.0289217
0.0287637
0.0286138
0.0284699
0.0283287
0.0281864
0.0280382
0.0278785
0.0276996
0.0274932
0.0272488
0.0269497
0.0265732
0.0260907
0.0254639
0.0246383
0.0235378
0.0220577
0.0200666
0.0173666
0.0134815
0.00848342
0.0359189
0.0353708
0.035319
0.0350236
0.0348445
0.0346493
0.0344925
0.034344
0.0342101
0.0340626
0.0338906
0.0337018
0.0334965
0.0332743
0.033044
0.0328129
0.0325866
0.0323679
0.0321565
0.0319513
0.0317516
0.0315577
0.0313695
0.0311857
0.0310068
0.0308337
0.0306663
0.0305052
0.0303512
0.0302031
0.0300606
0.0299224
0.0297856
0.0296475
0.0295038
0.0293501
0.0291802
0.0289862
0.0287598
0.0284876
0.0281507
0.0277245
0.0271768
0.0264628
0.02552
0.0242616
0.0225704
0.0202762
0.0169899
0.0123908
0.0359539
0.0354438
0.0354258
0.0351707
0.0350373
0.0348821
0.0347666
0.0346572
0.0345615
0.0344548
0.0343331
0.0342014
0.034061
0.0339066
0.0337419
0.0335719
0.0334013
0.0332322
0.0330657
0.0329013
0.0327388
0.0325777
0.0324184
0.03226
0.0321027
0.0319478
0.0317963
0.0316491
0.0315065
0.031368
0.0312335
0.0311023
0.0309719
0.03084
0.0307042
0.0305597
0.0304014
0.0302224
0.0300154
0.0297697
0.0294695
0.0290941
0.0286161
0.0279986
0.0271904
0.0261208
0.0246916
0.0227571
0.0200272
0.0160059
0.0359785
0.0354978
0.0355002
0.0352746
0.035174
0.035047
0.0349624
0.0348827
0.0348164
0.0347409
0.0346552
0.0345651
0.0344715
0.0343696
0.0342588
0.0341413
0.0340204
0.0338972
0.0337722
0.0336455
0.0335162
0.0333849
0.0332519
0.0331162
0.03298
0.0328438
0.0327093
0.0325774
0.0324487
0.0323231
0.0322002
0.0320796
0.0319593
0.0318378
0.0317127
0.03158
0.0314355
0.0312724
0.0310851
0.0308648
0.0305978
0.0302666
0.0298484
0.0293132
0.0286185
0.0277071
0.0265003
0.0248736
0.0226253
0.0192198
0.0359956
0.0355385
0.0355533
0.0353498
0.035274
0.0351675
0.0351065
0.0350493
0.0350064
0.0349554
0.0348977
0.0348378
0.034778
0.0347139
0.0346438
0.0345673
0.0344864
0.0344016
0.0343136
0.034221
0.0341228
0.0340195
0.0339113
0.033799
0.0336845
0.0335684
0.0334532
0.0333392
0.033227
0.0331164
0.0330079
0.0329005
0.0327926
0.0326833
0.03257
0.03245
0.0323194
0.0321724
0.0320036
0.0318066
0.0315697
0.0312777
0.030912
0.0304477
0.0298502
0.0290721
0.0280522
0.0266856
0.0248359
0.0220155
0.0360075
0.0355699
0.0355913
0.0354048
0.0353484
0.0352571
0.0352148
0.0351755
0.035151
0.03512
0.0350839
0.0350468
0.0350118
0.0349754
0.034935
0.0348894
0.0348395
0.0347852
0.0347269
0.034664
0.0345947
0.0345177
0.0344342
0.0343459
0.0342538
0.0341594
0.0340644
0.0339692
0.0338745
0.0337802
0.0336864
0.0335926
0.0334982
0.0334015
0.0333009
0.0331936
0.0330772
0.0329458
0.0327951
0.0326207
0.0324119
0.0321558
0.0318367
0.0314347
0.0309204
0.0302556
0.0293923
0.0282439
0.0267147
0.0244107
0.0360153
0.0355942
0.0356189
0.0354449
0.0354042
0.0353248
0.0352974
0.0352722
0.0352631
0.0352479
0.0352291
0.0352096
0.035193
0.0351771
0.0351589
0.0351367
0.0351105
0.0350802
0.0350458
0.0350071
0.0349624
0.0349105
0.0348516
0.0347866
0.034717
0.0346437
0.0345684
0.0344916
0.0344139
0.0343351
0.034256
0.0341764
0.0340953
0.0340116
0.0339242
0.0338305
0.0337285
0.0336135
0.0334805
0.0333268
0.0331448
0.0329215
0.0326445
0.0322968
0.0318549
0.0312863
0.0305545
0.0295887
0.0283177
0.0264384
0.0360203
0.0356135
0.0356393
0.0354736
0.0354456
0.0353759
0.0353613
0.0353473
0.0353505
0.0353483
0.0353434
0.035338
0.0353359
0.0353353
0.0353338
0.0353292
0.0353214
0.0353101
0.0352949
0.0352758
0.0352519
0.0352219
0.0351849
0.0351419
0.0350934
0.0350399
0.0349831
0.0349236
0.0348618
0.0347986
0.0347339
0.0346681
0.0346009
0.0345308
0.0344567
0.034377
0.0342894
0.0341903
0.0340752
0.0339408
0.0337833
0.0335903
0.033351
0.0330511
0.0326723
0.0321865
0.0315656
0.0307532
0.0296935
0.028154
0.0360227
0.0356288
0.0356539
0.0354942
0.035476
0.035415
0.0354107
0.0354062
0.0354193
0.035428
0.0354346
0.0354408
0.0354502
0.0354612
0.0354724
0.0354819
0.0354885
0.035492
0.0354923
0.0354894
0.0354822
0.0354698
0.0354519
0.0354276
0.0353982
0.0353629
0.0353233
0.03528
0.0352335
0.035185
0.0351348
0.0350831
0.0350291
0.0349726
0.034912
0.0348457
0.0347722
0.034689
0.0345909
0.034475
0.0343391
0.0341742
0.0339688
0.0337117
0.0333878
0.0329743
0.0324477
0.0317649
0.0308795
0.0296134
0.0360234
0.0356403
0.0356642
0.0355082
0.0354975
0.0354447
0.0354488
0.0354521
0.0354738
0.0354912
0.0355077
0.0355233
0.035542
0.0355627
0.035584
0.0356042
0.0356224
0.035638
0.0356507
0.0356605
0.0356669
0.0356692
0.0356663
0.0356579
0.0356444
0.0356255
0.0356016
0.0355735
0.0355418
0.0355077
0.0354713
0.0354326
0.0353919
0.0353481
0.0353005
0.0352474
0.0351875
0.0351187
0.0350373
0.034939
0.034823
0.0346833
0.0345093
0.0342903
0.034015
0.0336641
0.0332183
0.0326447
0.0319048
0.0308609
0.0360224
0.0356487
0.035671
0.0355173
0.0355123
0.035467
0.0354785
0.0354882
0.0355168
0.035542
0.0355665
0.0355903
0.0356171
0.0356456
0.035675
0.0357038
0.0357312
0.0357566
0.0357794
0.0357997
0.035817
0.0358305
0.0358398
0.0358444
0.0358441
0.0358388
0.035829
0.0358148
0.0357972
0.0357764
0.035753
0.035727
0.0356984
0.0356667
0.0356312
0.0355906
0.0355439
0.0354892
0.0354231
0.0353418
0.0352442
0.035127
0.0349813
0.0347967
0.0345636
0.0342674
0.0338912
0.0334105
0.0327928
0.0319317
0.0360202
0.0356545
0.0356753
0.0355224
0.0355222
0.0354836
0.0355011
0.0355162
0.0355509
0.0355825
0.0356145
0.0356451
0.0356785
0.0357133
0.0357494
0.0357854
0.0358204
0.0358536
0.0358847
0.0359136
0.0359396
0.0359624
0.0359814
0.0359964
0.0360071
0.0360134
0.0360154
0.0360137
0.0360082
0.0359995
0.0359879
0.0359738
0.0359565
0.0359362
0.0359123
0.0358838
0.0358495
0.0358078
0.0357564
0.0356912
0.0356103
0.035513
0.0353925
0.0352389
0.0350437
0.0347951
0.0344793
0.0340773
0.0335628
0.0328526
0.0360166
0.0356583
0.0356769
0.0355248
0.0355286
0.0354954
0.0355181
0.0355382
0.0355777
0.0356151
0.0356534
0.0356901
0.035729
0.0357696
0.0358115
0.0358533
0.0358943
0.0359341
0.0359719
0.0360074
0.0360406
0.0360709
0.036098
0.0361217
0.0361413
0.0361569
0.036169
0.0361773
0.0361825
0.0361845
0.0361836
0.0361802
0.0361735
0.0361639
0.036151
0.0361334
0.0361107
0.0360811
0.0360429
0.0359927
0.035928
0.0358482
0.03575
0.0356241
0.0354625
0.035256
0.0349921
0.0346577
0.0342306
0.0336454
0.0360121
0.03566
0.0356768
0.0355253
0.0355321
0.0355032
0.0355306
0.0355546
0.0355991
0.0356413
0.0356851
0.0357274
0.0357714
0.0358167
0.0358631
0.0359098
0.035956
0.036001
0.0360443
0.0360856
0.0361249
0.0361612
0.036195
0.0362256
0.0362524
0.0362761
0.036296
0.036313
0.0363268
0.0363378
0.0363464
0.0363525
0.0363556
0.0363559
0.036353
0.0363458
0.0363335
0.0363149
0.0362891
0.0362529
0.0362032
0.0361392
0.0360603
0.0359592
0.0358276
0.0356575
0.0354395
0.0351628
0.0348098
0.034329
0.0360068
0.0356603
0.035675
0.0355243
0.0355336
0.0355076
0.0355392
0.035567
0.0356155
0.0356621
0.0357108
0.035758
0.0358066
0.0358559
0.0359066
0.0359574
0.0360079
0.0360573
0.0361049
0.0361511
0.036195
0.0362368
0.0362758
0.0363121
0.0363453
0.036375
0.0364019
0.0364255
0.0364469
0.0364656
0.036482
0.0364964
0.0365083
0.0365172
0.0365233
0.0365253
0.0365228
0.0365148
0.0365
0.0364763
0.0364406
0.0363916
0.036329
0.0362493
0.0361445
0.036007
0.0358285
0.0356014
0.0353119
0.0349187
0.0360006
0.0356592
0.0356715
0.0355218
0.0355334
0.0355096
0.0355447
0.0355759
0.0356282
0.0356788
0.0357322
0.0357833
0.035836
0.0358893
0.0359436
0.0359978
0.0360518
0.0361046
0.0361562
0.0362062
0.0362544
0.0363003
0.0363439
0.0363849
0.036423
0.0364582
0.0364905
0.0365199
0.0365473
0.0365724
0.0365955
0.0366168
0.0366361
0.0366529
0.0366667
0.0366771
0.0366836
0.0366848
0.03668
0.0366676
0.0366451
0.0366099
0.036562
0.0365003
0.0364187
0.0363098
0.0361662
0.0359819
0.0357465
0.0354274
0.0359939
0.0356567
0.0356662
0.0355179
0.0355317
0.0355099
0.0355481
0.0355826
0.0356377
0.0356921
0.0357492
0.0358046
0.0358608
0.0359176
0.0359747
0.0360321
0.0360889
0.036145
0.0361998
0.0362532
0.0363046
0.0363542
0.0364016
0.0364466
0.0364887
0.0365283
0.036565
0.0365993
0.0366316
0.0366619
0.0366907
0.0367178
0.0367432
0.0367666
0.0367874
0.0368053
0.0368195
0.0368291
0.0368336
0.0368311
0.0368202
0.0367979
0.0367635
0.0367172
0.0366553
0.0365716
0.0364585
0.0363112
0.0361222
0.035866
0.035986
0.035653
0.0356598
0.0355129
0.0355286
0.0355082
0.0355496
0.0355869
0.0356452
0.0357024
0.0357633
0.0358223
0.0358819
0.0359415
0.0360015
0.0360615
0.036121
0.0361796
0.036237
0.036293
0.0363475
0.0364001
0.0364506
0.0364988
0.0365444
0.0365874
0.0366281
0.0366665
0.0367028
0.0367375
0.0367709
0.0368026
0.0368332
0.0368621
0.0368889
0.0369132
0.0369343
0.0369514
0.0369636
0.0369704
0.0369696
0.0369593
0.0369375
0.0369045
0.0368593
0.0367974
0.0367109
0.0365957
0.0364467
0.0362437
0.0359779
0.0356479
0.035652
0.0355067
0.0355243
0.0355057
0.0355499
0.0355897
0.0356509
0.0357111
0.0357749
0.035837
0.0358997
0.035962
0.0360246
0.0360869
0.0361484
0.0362093
0.036269
0.0363274
0.0363842
0.0364393
0.0364924
0.0365432
0.036592
0.0366383
0.0366821
0.0367237
0.0367635
0.0368015
0.0368388
0.0368745
0.0369094
0.0369429
0.0369746
0.0370044
0.0370313
0.0370547
0.0370741
0.0370887
0.0370971
0.0370971
0.0370871
0.0370663
0.0370351
0.0369911
0.0369279
0.0368407
0.0367259
0.0365687
0.0359692
0.0356416
0.0356427
0.0354996
0.0355189
0.0355017
0.0355487
0.0355912
0.0356552
0.0357182
0.0357846
0.0358493
0.035915
0.0359799
0.0360445
0.0361088
0.0361723
0.0362349
0.0362967
0.036357
0.0364159
0.0364731
0.0365285
0.0365816
0.0366327
0.0366815
0.036728
0.0367724
0.0368148
0.0368561
0.0368962
0.0369354
0.0369735
0.037011
0.0370468
0.0370812
0.0371132
0.0371421
0.0371676
0.0371888
0.0372049
0.0372142
0.0372149
0.0372054
0.0371867
0.0371574
0.0371138
0.0370508
0.0369654
0.0368461
0.0359599
0.0356345
0.035632
0.0354917
0.0355124
0.0354968
0.0355461
0.0355914
0.0356581
0.0357237
0.0357933
0.0358606
0.0359282
0.0359952
0.0360618
0.0361278
0.036193
0.0362574
0.0363206
0.0363827
0.0364433
0.0365022
0.0365594
0.0366148
0.0366679
0.0367187
0.0367675
0.0368143
0.036859
0.0369028
0.0369452
0.0369871
0.037028
0.0370684
0.037108
0.0371461
0.0371821
0.037216
0.0372466
0.0372739
0.0372966
0.0373136
0.0373236
0.0373248
0.0373167
0.0373002
0.0372726
0.0372301
0.0371697
0.0370819
0.0359501
0.035626
0.0356207
0.0354832
0.0355053
0.035491
0.0355426
0.0355905
0.03566
0.0357283
0.0358007
0.0358703
0.0359401
0.0360087
0.036077
0.0361445
0.0362115
0.0362773
0.0363417
0.0364051
0.0364673
0.0365276
0.0365865
0.0366433
0.0366982
0.036751
0.0368015
0.03685
0.036897
0.0369426
0.0369873
0.0370312
0.0370745
0.0371175
0.0371596
0.0372009
0.0372405
0.0372783
0.0373136
0.0373457
0.0373739
0.0373978
0.0374158
0.0374265
0.0374286
0.0374228
0.0374081
0.0373829
0.0373433
0.0372822
0.0359397
0.0356163
0.0356091
0.0354742
0.0354975
0.0354847
0.0355383
0.0355884
0.0356609
0.035732
0.035807
0.0358793
0.0359507
0.0360214
0.0360908
0.0361598
0.0362276
0.0362946
0.0363604
0.0364248
0.036488
0.0365498
0.0366098
0.0366682
0.0367244
0.0367787
0.0368309
0.0368811
0.0369299
0.036977
0.0370234
0.037069
0.0371143
0.037159
0.0372035
0.0372473
0.0372898
0.0373308
0.0373698
0.0374063
0.0374393
0.037469
0.0374935
0.0375122
0.0375236
0.0375275
0.0375241
0.0375126
0.0374902
0.0374518
0.0359291
0.0356061
0.0355979
0.0354642
0.0354889
0.0354775
0.0355333
0.0355858
0.0356609
0.0357346
0.0358125
0.0358874
0.0359608
0.0360329
0.0361039
0.036174
0.0362429
0.0363107
0.0363774
0.0364429
0.036507
0.0365696
0.0366306
0.0366901
0.0367475
0.0368032
0.0368566
0.0369083
0.0369582
0.037007
0.0370546
0.0371016
0.037148
0.0371945
0.0372407
0.0372866
0.0373313
0.0373752
0.0374174
0.0374573
0.0374947
0.0375289
0.0375592
0.0375847
0.0376041
0.0376167
0.0376229
0.0376228
0.037614
0.0375946
0.0359179
0.0355953
0.0355866
0.035454
0.0354798
0.0354703
0.0355278
0.0355826
0.0356603
0.0357368
0.0358174
0.0358945
0.03597
0.0360438
0.0361162
0.0361872
0.0362573
0.036326
0.0363936
0.0364596
0.0365246
0.0365881
0.0366499
0.0367102
0.0367685
0.0368249
0.0368794
0.0369319
0.036983
0.0370326
0.0370814
0.0371296
0.0371772
0.0372248
0.0372724
0.0373198
0.0373665
0.0374124
0.0374572
0.0375002
0.0375411
0.0375793
0.0376145
0.0376454
0.037672
0.0376925
0.0377071
0.0377163
0.0377192
0.0377146
0.0359061
0.0355834
0.0355751
0.0354432
0.0354703
0.0354622
0.0355217
0.0355791
0.0356593
0.0357382
0.0358214
0.0359011
0.0359789
0.0360539
0.0361278
0.0361999
0.0362709
0.0363404
0.0364088
0.0364755
0.0365413
0.0366054
0.036668
0.0367289
0.0367879
0.0368453
0.0369004
0.0369538
0.0370055
0.037056
0.0371054
0.0371541
0.0372026
0.0372511
0.0372995
0.037348
0.0373962
0.0374439
0.0374907
0.0375363
0.0375803
0.0376219
0.0376608
0.0376966
0.0377285
0.0377558
0.037778
0.0377956
0.037808
0.0378157
0.0358944
0.0355709
0.035563
0.0354315
0.03546
0.0354541
0.0355156
0.035575
0.0356581
0.0357394
0.0358251
0.0359072
0.035987
0.0360637
0.0361387
0.036212
0.0362839
0.0363543
0.0364232
0.0364908
0.0365569
0.0366215
0.0366847
0.0367466
0.0368063
0.036864
0.03692
0.036974
0.0370266
0.0370774
0.0371276
0.0371769
0.0372259
0.037275
0.0373244
0.0373734
0.0374228
0.0374716
0.0375198
0.0375668
0.0376131
0.0376573
0.0376997
0.0377395
0.0377759
0.0378091
0.0378381
0.0378626
0.0378833
0.0379009
0.0358821
0.0355576
0.0355501
0.0354193
0.0354493
0.0354455
0.0355092
0.035571
0.0356566
0.0357405
0.0358285
0.0359126
0.0359948
0.0360729
0.0361491
0.0362235
0.0362962
0.0363672
0.0364368
0.0365049
0.0365719
0.0366371
0.0367009
0.036763
0.0368233
0.0368819
0.0369385
0.0369931
0.0370459
0.0370975
0.037148
0.0371979
0.0372476
0.037297
0.0373469
0.0373968
0.0374467
0.0374966
0.037546
0.0375946
0.0376419
0.0376882
0.0377331
0.0377757
0.0378161
0.0378541
0.0378887
0.0379196
0.0379474
0.0379727
0.0358695
0.0355437
0.0355365
0.0354065
0.0354384
0.0354368
0.0355028
0.0355672
0.0356549
0.0357413
0.0358317
0.0359181
0.036002
0.0360818
0.0361594
0.0362348
0.0363083
0.0363799
0.0364501
0.0365188
0.036586
0.0366518
0.0367162
0.0367788
0.0368397
0.0368986
0.0369558
0.0370109
0.0370643
0.0371163
0.037167
0.0372173
0.0372675
0.0373174
0.0373676
0.0374181
0.0374686
0.0375192
0.0375694
0.037619
0.0376682
0.0377158
0.0377624
0.0378076
0.0378511
0.0378926
0.0379319
0.037968
0.0380018
0.0380339
0.0358567
0.0355286
0.0355222
0.0353931
0.035427
0.0354279
0.0354962
0.0355631
0.0356536
0.0357422
0.0358348
0.0359233
0.0360092
0.0360905
0.0361693
0.0362457
0.0363199
0.0363923
0.036463
0.0365323
0.0365998
0.036666
0.0367306
0.0367938
0.0368553
0.0369148
0.0369722
0.0370279
0.0370816
0.0371341
0.0371853
0.0372358
0.037286
0.0373362
0.0373866
0.0374374
0.0374886
0.0375396
0.0375907
0.0376415
0.0376915
0.0377406
0.0377889
0.0378358
0.0378816
0.0379261
0.0379687
0.0380094
0.0380481
0.0380855
0.0358434
0.035513
0.0355072
0.0353789
0.0354152
0.0354189
0.0354898
0.0355593
0.0356521
0.0357433
0.0358379
0.0359284
0.0360161
0.0360991
0.0361791
0.0362564
0.0363314
0.0364047
0.0364757
0.0365453
0.0366134
0.0366798
0.0367447
0.0368082
0.03687
0.0369301
0.0369881
0.0370441
0.037098
0.0371509
0.0372023
0.037253
0.0373032
0.0373537
0.0374042
0.0374554
0.0375067
0.0375584
0.03761
0.0376617
0.0377125
0.0377628
0.0378122
0.0378608
0.0379086
0.0379551
0.0380005
0.0380444
0.0380872
0.0381295
0.0358298
0.0354963
0.0354917
0.0353643
0.0354031
0.0354097
0.0354837
0.0355557
0.0356513
0.0357444
0.0358414
0.0359336
0.036023
0.0361075
0.0361886
0.036267
0.036343
0.0364166
0.0364884
0.0365582
0.0366264
0.0366933
0.0367586
0.0368224
0.0368844
0.0369448
0.0370031
0.0370593
0.0371139
0.037167
0.0372187
0.0372695
0.0373197
0.0373702
0.037421
0.0374721
0.0375237
0.0375756
0.0376279
0.0376799
0.0377316
0.0377827
0.0378332
0.0378832
0.0379322
0.0379806
0.038028
0.0380747
0.0381208
0.038167
0.0358157
0.0354791
0.0354753
0.0353492
0.0353908
0.0354004
0.0354773
0.0355522
0.0356506
0.035746
0.0358451
0.0359391
0.0360302
0.0361159
0.0361984
0.0362777
0.0363542
0.0364287
0.0365005
0.036571
0.0366394
0.0367066
0.0367721
0.0368362
0.0368986
0.0369592
0.0370177
0.0370744
0.0371292
0.0371823
0.0372342
0.037285
0.0373356
0.0373858
0.0374366
0.0374876
0.0375393
0.0375915
0.0376441
0.0376963
0.0377486
0.0378005
0.0378519
0.0379028
0.0379532
0.038003
0.038052
0.0381009
0.0381494
0.0381986
0.035801
0.0354606
0.0354584
0.0353332
0.0353784
0.0353909
0.0354715
0.0355493
0.0356503
0.035748
0.0358488
0.0359448
0.0360374
0.0361245
0.0362079
0.0362884
0.0363658
0.0364405
0.036513
0.0365837
0.0366523
0.0367196
0.0367854
0.0368495
0.0369121
0.036973
0.0370319
0.0370888
0.0371439
0.0371973
0.0372492
0.0373001
0.0373506
0.0374008
0.0374513
0.0375023
0.037554
0.0376063
0.0376588
0.0377116
0.0377641
0.0378166
0.0378689
0.0379207
0.0379719
0.0380228
0.0380732
0.0381234
0.0381739
0.0382255
0.0357864
0.0354417
0.0354409
0.035317
0.0353655
0.0353811
0.0354657
0.0355466
0.0356505
0.0357503
0.0358531
0.0359508
0.0360446
0.0361332
0.0362177
0.0362991
0.0363773
0.0364526
0.0365257
0.0365963
0.0366653
0.0367325
0.0367987
0.036863
0.0369256
0.0369868
0.037046
0.0371032
0.0371583
0.0372117
0.0372639
0.0373148
0.037365
0.0374152
0.0374654
0.0375162
0.0375676
0.0376198
0.0376723
0.0377254
0.0377782
0.0378313
0.0378839
0.0379365
0.0379885
0.0380403
0.0380918
0.0381431
0.0381953
0.0382481
0.0357712
0.0354219
0.0354228
0.0352998
0.0353519
0.0353713
0.0354601
0.0355446
0.035651
0.0357535
0.035858
0.0359572
0.0360524
0.0361421
0.0362278
0.0363101
0.0363891
0.0364651
0.0365383
0.0366093
0.0366783
0.0367459
0.0368119
0.0368763
0.0369392
0.0370004
0.0370599
0.0371173
0.0371727
0.0372261
0.0372784
0.0373292
0.0373791
0.037429
0.0374789
0.0375295
0.0375808
0.0376328
0.0376853
0.0377381
0.0377912
0.0378446
0.0378978
0.0379506
0.0380032
0.0380558
0.0381081
0.0381606
0.0382135
0.0382676
0.0357558
0.0354013
0.0354039
0.0352818
0.0353384
0.0353611
0.0354546
0.0355425
0.0356521
0.0357569
0.0358635
0.0359641
0.0360604
0.0361513
0.0362385
0.0363216
0.0364009
0.0364775
0.0365513
0.0366226
0.0366919
0.0367594
0.0368252
0.0368898
0.0369528
0.0370143
0.0370737
0.0371311
0.0371868
0.0372406
0.0372925
0.0373433
0.0373932
0.0374426
0.0374925
0.0375425
0.0375932
0.0376449
0.0376974
0.0377502
0.0378034
0.0378567
0.0379098
0.0379633
0.0380164
0.0380695
0.0381225
0.0381758
0.0382294
0.0382846
0.0357399
0.0353795
0.0353844
0.0352633
0.035324
0.0353507
0.0354493
0.035541
0.0356538
0.0357609
0.0358692
0.0359716
0.0360691
0.0361611
0.0362492
0.0363331
0.0364136
0.0364907
0.0365646
0.0366362
0.0367055
0.0367733
0.0368391
0.0369037
0.0369667
0.0370281
0.0370876
0.0371453
0.037201
0.0372547
0.0373066
0.0373574
0.0374071
0.0374564
0.0375055
0.0375551
0.0376056
0.0376567
0.0377086
0.0377614
0.0378143
0.0378677
0.0379211
0.0379748
0.0380282
0.038082
0.0381354
0.0381892
0.0382434
0.0382991
0.0357238
0.0353566
0.0353641
0.0352438
0.0353096
0.0353403
0.035444
0.03554
0.0356561
0.0357657
0.0358758
0.0359797
0.0360786
0.0361719
0.0362607
0.0363456
0.0364267
0.0365043
0.0365788
0.0366504
0.0367199
0.0367874
0.0368532
0.0369179
0.0369808
0.0370423
0.0371017
0.0371594
0.0372152
0.0372691
0.0373211
0.0373716
0.0374209
0.03747
0.0375188
0.0375678
0.0376175
0.0376682
0.0377199
0.0377719
0.0378247
0.0378778
0.0379314
0.0379851
0.0380388
0.0380929
0.0381469
0.0382009
0.0382556
0.0383115
0.0357072
0.0353329
0.0353429
0.0352235
0.0352947
0.0353298
0.0354391
0.0355394
0.0356589
0.0357712
0.0358833
0.0359886
0.0360884
0.0361828
0.0362728
0.0363585
0.0364403
0.0365185
0.0365932
0.0366651
0.0367346
0.0368021
0.0368679
0.0369323
0.0369952
0.0370567
0.0371161
0.0371739
0.0372296
0.0372835
0.0373355
0.0373857
0.037435
0.0374836
0.0375318
0.0375802
0.0376296
0.0376795
0.0377303
0.037782
0.0378345
0.0378873
0.0379407
0.0379943
0.0380484
0.0381027
0.0381569
0.0382113
0.0382662
0.0383223
0.0356903
0.0353081
0.0353208
0.0352026
0.0352794
0.0353194
0.0354347
0.0355396
0.0356626
0.0357775
0.0358917
0.0359981
0.0360994
0.0361947
0.0362858
0.0363722
0.0364547
0.0365332
0.0366083
0.0366804
0.0367499
0.0368174
0.036883
0.0369473
0.0370099
0.0370714
0.0371308
0.0371886
0.0372443
0.0372982
0.0373499
0.0374001
0.0374492
0.0374971
0.037545
0.0375929
0.0376411
0.0376904
0.0377407
0.0377918
0.0378434
0.0378959
0.0379493
0.038003
0.038057
0.0381113
0.0381656
0.0382201
0.0382753
0.0383318
0.035673
0.0352824
0.0352979
0.0351808
0.0352638
0.0353095
0.0354306
0.0355404
0.0356669
0.0357847
0.0359006
0.0360088
0.036111
0.0362076
0.0362994
0.0363866
0.0364697
0.0365488
0.0366242
0.0366963
0.0367658
0.0368333
0.0368989
0.0369629
0.0370255
0.0370864
0.0371462
0.0372036
0.0372593
0.037313
0.0373649
0.0374149
0.0374634
0.037511
0.0375583
0.0376053
0.0376529
0.0377014
0.0377511
0.0378013
0.0378521
0.037904
0.0379571
0.0380105
0.0380645
0.0381188
0.0381733
0.0382279
0.0382833
0.0383395
0.0356554
0.0352554
0.0352741
0.0351585
0.0352482
0.0352999
0.0354273
0.035542
0.0356723
0.0357927
0.0359107
0.0360203
0.0361237
0.0362212
0.0363139
0.0364019
0.0364856
0.036565
0.0366409
0.036713
0.0367826
0.0368499
0.0369153
0.0369791
0.0370414
0.0371023
0.0371615
0.0372192
0.0372749
0.0373283
0.0373799
0.0374299
0.0374781
0.0375251
0.0375716
0.037618
0.037665
0.0377127
0.0377612
0.0378102
0.0378604
0.0379118
0.037964
0.0380172
0.0380711
0.0381251
0.0381796
0.0382345
0.03829
0.038346
0.0356371
0.0352272
0.0352492
0.0351356
0.0352323
0.0352911
0.0354246
0.0355449
0.0356786
0.035802
0.0359219
0.0360328
0.0361372
0.036236
0.0363295
0.0364181
0.0365024
0.0365824
0.0366583
0.0367307
0.0368002
0.0368672
0.0369324
0.0369958
0.0370579
0.0371185
0.0371777
0.0372351
0.0372905
0.0373438
0.0373953
0.0374449
0.0374928
0.0375395
0.0375854
0.037631
0.0376769
0.0377237
0.037771
0.0378192
0.0378685
0.037919
0.0379707
0.0380232
0.0380766
0.0381309
0.0381851
0.0382399
0.0382951
0.0383512
0.0356186
0.035198
0.0352237
0.0351118
0.0352166
0.0352826
0.035423
0.0355486
0.0356861
0.0358123
0.035934
0.0360463
0.036152
0.0362516
0.036346
0.0364355
0.0365201
0.0366003
0.0366765
0.0367492
0.0368185
0.0368854
0.03695
0.0370132
0.037075
0.0371353
0.0371941
0.0372512
0.0373066
0.0373597
0.0374111
0.0374605
0.0375078
0.0375539
0.0375992
0.0376443
0.0376893
0.0377349
0.0377811
0.0378281
0.0378763
0.0379256
0.0379765
0.0380287
0.0380818
0.0381355
0.0381897
0.0382443
0.0382994
0.0383552
0.0355993
0.0351673
0.0351974
0.0350879
0.0352013
0.0352754
0.0354223
0.0355534
0.035695
0.0358239
0.0359473
0.0360611
0.0361682
0.0362687
0.0363636
0.0364537
0.0365389
0.0366194
0.0366958
0.0367686
0.0368378
0.0369045
0.0369688
0.0370314
0.0370929
0.0371526
0.0372112
0.037268
0.0373231
0.0373762
0.0374273
0.0374763
0.0375234
0.037569
0.0376137
0.0376575
0.0377017
0.0377462
0.0377915
0.0378371
0.0378838
0.0379323
0.037982
0.0380333
0.0380858
0.0381392
0.0381932
0.0382474
0.0383023
0.0383577
0.0355796
0.0351353
0.0351705
0.0350635
0.0351862
0.0352689
0.0354231
0.0355594
0.0357051
0.0358368
0.0359621
0.0360772
0.0361855
0.0362869
0.0363827
0.0364731
0.0365585
0.0366396
0.0367161
0.0367888
0.0368581
0.0369244
0.0369884
0.0370505
0.0371114
0.0371708
0.0372291
0.0372853
0.0373401
0.037393
0.0374437
0.0374922
0.0375389
0.0375842
0.0376281
0.0376714
0.0377144
0.0377577
0.0378016
0.037846
0.0378913
0.0379383
0.0379872
0.0380377
0.0380893
0.0381421
0.0381955
0.0382498
0.0383043
0.0383594
0.0355595
0.0351018
0.0351428
0.0350389
0.0351719
0.0352636
0.0354251
0.0355674
0.0357166
0.0358512
0.0359783
0.0360949
0.0362043
0.0363065
0.036403
0.0364939
0.0365796
0.0366607
0.0367375
0.0368102
0.0368792
0.0369452
0.0370087
0.0370705
0.0371307
0.0371896
0.0372473
0.0373032
0.0373578
0.0374103
0.0374605
0.037509
0.0375551
0.0375995
0.0376428
0.0376853
0.0377271
0.0377693
0.037812
0.037855
0.0378988
0.0379444
0.0379918
0.0380411
0.0380919
0.0381441
0.0381972
0.038251
0.0383052
0.03836
0.0355389
0.035067
0.0351141
0.0350141
0.0351582
0.0352597
0.0354287
0.0355765
0.0357298
0.0358671
0.0359959
0.0361142
0.0362249
0.0363276
0.0364247
0.0365159
0.0366019
0.0366833
0.0367601
0.0368328
0.0369014
0.0369672
0.0370301
0.0370913
0.037151
0.0372092
0.0372663
0.0373217
0.0373757
0.0374279
0.0374778
0.0375257
0.0375716
0.0376154
0.0376578
0.0376994
0.0377404
0.0377811
0.0378224
0.0378639
0.0379063
0.0379502
0.0379961
0.0380443
0.0380939
0.0381453
0.0381978
0.0382509
0.0383049
0.0383592
0.0355177
0.0350303
0.0350852
0.0349896
0.0351454
0.0352575
0.035434
0.0355877
0.0357448
0.0358848
0.0360152
0.0361351
0.0362468
0.0363505
0.0364478
0.0365393
0.0366256
0.0367073
0.0367841
0.0368565
0.0369248
0.03699
0.0370527
0.0371132
0.0371721
0.0372295
0.037286
0.0373408
0.0373942
0.0374458
0.0374954
0.0375427
0.037588
0.0376316
0.0376731
0.0377139
0.0377537
0.0377932
0.037833
0.0378731
0.0379135
0.0379557
0.0380002
0.0380466
0.0380954
0.0381456
0.0381975
0.03825
0.0383035
0.0383571
0.035496
0.0349921
0.0350551
0.0349651
0.0351343
0.035257
0.0354414
0.0356013
0.0357618
0.0359041
0.0360366
0.0361579
0.0362706
0.0363749
0.0364727
0.0365645
0.0366508
0.0367325
0.0368092
0.0368814
0.0369497
0.0370144
0.0370761
0.0371358
0.037194
0.0372506
0.0373062
0.0373605
0.0374133
0.0374643
0.0375131
0.0375601
0.0376048
0.0376475
0.0376887
0.0377283
0.037767
0.0378053
0.0378437
0.0378821
0.0379208
0.0379612
0.0380036
0.0380487
0.038096
0.0381453
0.0381961
0.038248
0.0383005
0.0383537
0.0354737
0.0349517
0.0350248
0.0349417
0.0351246
0.0352586
0.0354511
0.0356168
0.0357808
0.0359258
0.0360601
0.0361828
0.0362963
0.0364012
0.036499
0.0365911
0.0366775
0.0367591
0.0368356
0.0369077
0.0369754
0.0370395
0.0371007
0.0371598
0.0372169
0.0372725
0.0373273
0.0373807
0.0374326
0.0374828
0.0375313
0.0375777
0.0376218
0.0376639
0.037704
0.0377427
0.0377802
0.0378175
0.0378541
0.037891
0.0379277
0.0379661
0.0380071
0.0380501
0.038096
0.0381439
0.0381935
0.0382446
0.0382965
0.038349
0.035451
0.0349097
0.0349936
0.0349192
0.0351171
0.0352627
0.0354634
0.0356346
0.0358022
0.0359495
0.0360858
0.03621
0.0363241
0.0364295
0.0365277
0.0366195
0.0367058
0.0367872
0.0368636
0.0369352
0.0370027
0.0370661
0.0371264
0.0371844
0.0372406
0.0372954
0.037349
0.0374013
0.0374523
0.0375019
0.0375495
0.037595
0.0376386
0.0376798
0.0377193
0.0377572
0.0377935
0.0378293
0.0378645
0.0378997
0.0379343
0.037971
0.0380097
0.0380509
0.0380951
0.0381416
0.0381898
0.03824
0.0382911
0.0383424
0.0354278
0.0348651
0.034962
0.0348986
0.0351119
0.0352692
0.0354783
0.0356554
0.0358259
0.0359757
0.0361141
0.0362398
0.0363551
0.0364608
0.0365589
0.0366505
0.0367368
0.0368176
0.0368934
0.0369644
0.037031
0.0370939
0.0371533
0.0372104
0.0372652
0.0373188
0.0373713
0.0374224
0.0374725
0.037521
0.0375677
0.0376127
0.0376553
0.037696
0.0377344
0.0377713
0.0378065
0.0378409
0.0378746
0.0379078
0.0379407
0.037975
0.0380117
0.0380509
0.0380931
0.0381378
0.0381849
0.0382334
0.0382836
0.0383341
0.0354045
0.0348186
0.0349304
0.0348794
0.0351093
0.0352791
0.0354964
0.0356791
0.0358528
0.0360053
0.036146
0.0362731
0.0363892
0.0364952
0.0365931
0.0366843
0.03677
0.0368503
0.0369255
0.036996
0.0370617
0.0371234
0.0371813
0.0372373
0.0372909
0.0373431
0.0373941
0.0374441
0.0374928
0.0375401
0.0375859
0.0376297
0.0376715
0.0377113
0.0377491
0.0377848
0.0378189
0.0378518
0.0378839
0.0379153
0.0379462
0.0379785
0.0380131
0.0380504
0.0380902
0.0381329
0.0381779
0.038225
0.0382735
0.0383231
0.0353807
0.0347696
0.034899
0.0348622
0.0351099
0.0352924
0.0355176
0.0357059
0.0358828
0.0360391
0.0361818
0.0363104