/*--------------------------------*- C++ -*----------------------------------*\
  =========                 |
  \\      /  F ield         | OpenFOAM: The Open Source CFD Toolbox
   \\    /   O peration     | Website:  https://openfoam.org
    \\  /    A nd           | Version:  8
     \\/     M anipulation  |
\*---------------------------------------------------------------------------*/
FoamFile
{
    version     2.0;
    format      ascii;
    class       surfaceScalarField;
    location    "0.015033";
    object      phi;
}
// * * * * * * * * * * * * * * * * * * * * * * * * * * * * * * * * * * * * * //

dimensions      [1 0 -1 0 0 0 0];

internalField   nonuniform List<scalar> 
210510
(
0.00190771
7.26897e-05
0.00179119
0.000116522
0.0016344
0.000156796
0.00150517
0.000129225
0.00137074
0.000134428
0.00125167
0.000119076
0.00114277
0.0001089
0.00105263
9.01392e-05
0.000995138
5.74898e-05
0.000979344
1.57927e-05
0.000981996
-2.65299e-06
0.000986249
-4.25185e-06
0.000989179
-2.93447e-06
0.000991274
-2.09266e-06
0.000991868
-5.94544e-07
0.00098984
2.0284e-06
0.000984914
4.92637e-06
0.000977541
7.37332e-06
0.000968662
8.87866e-06
0.00095912
9.54161e-06
0.000949474
9.6466e-06
0.000939998
9.47595e-06
0.000930859
9.13945e-06
0.000922034
8.82433e-06
0.000913455
8.57984e-06
0.000905024
8.43068e-06
0.0008966
8.42383e-06
0.00088799
8.61058e-06
0.000878959
9.03126e-06
0.000869264
9.69489e-06
0.00085875
1.0514e-05
0.000847304
1.14469e-05
0.000834708
1.25966e-05
0.000820576
1.41324e-05
0.000804296
1.62801e-05
0.000785084
1.92118e-05
0.000760943
2.41405e-05
0.000730741
3.02029e-05
0.000694257
3.64832e-05
0.000647588
4.66689e-05
0.000586638
6.095e-05
0.000507262
7.93766e-05
0.000405429
0.000101833
0.000277565
0.000127864
0.000123848
0.000153717
-4.34787e-05
0.000167327
-0.000196773
0.000153294
-0.000327937
0.000131164
-0.000447422
0.000119486
0.000100607
-0.00054803
0.00197791
0.00011082
0.00193488
0.00015956
0.00187657
0.000215105
0.00182776
0.000178034
0.00177726
0.000184925
0.0017324
0.000163934
0.0016898
0.000151503
0.00165126
0.000128686
0.00161169
9.70474e-05
0.00157056
5.69273e-05
0.00153532
3.2583e-05
0.00150834
2.27344e-05
0.0014868
1.8594e-05
0.00146808
1.66346e-05
0.00145084
1.66424e-05
0.00143441
1.84631e-05
0.00141822
2.11144e-05
0.00140201
2.35837e-05
0.00138583
2.50569e-05
0.00136987
2.55059e-05
0.00135433
2.51839e-05
0.00133938
2.44267e-05
0.00132513
2.33888e-05
0.00131165
2.23032e-05
0.00129892
2.13062e-05
0.00128689
2.04656e-05
0.00127548
1.98328e-05
0.00126463
1.946e-05
0.00125422
1.9439e-05
0.00124407
1.9848e-05
0.00123394
2.06404e-05
0.00122361
2.17846e-05
0.00121281
2.33962e-05
0.00120123
2.57084e-05
0.00118847
2.90439e-05
0.00117407
3.36136e-05
0.00115677
4.14326e-05
0.0011368
5.01805e-05
0.00111132
6.19635e-05
0.00107928
7.87058e-05
0.00103806
0.000102167
0.000983524
0.000133915
0.000909933
0.000175424
0.000810275
0.000227523
0.000677456
0.000286536
0.000509325
0.000335458
0.00030409
0.000358529
7.16703e-05
0.000363584
-0.000181254
0.00037241
0.000254764
-0.00033541
0.00200023
0.000138727
0.00197445
0.000185344
0.00194272
0.000246828
0.00191434
0.00020642
0.00188567
0.000213589
0.00186032
0.000189287
0.00183619
0.000175637
0.00181376
0.00015111
0.00178897
0.000121843
0.00175899
8.6905e-05
0.00172804
6.35314e-05
0.00170009
5.06846e-05
0.00167532
4.3362e-05
0.00165288
3.9077e-05
0.00163215
3.73704e-05
0.00161276
3.78549e-05
0.00159434
3.95366e-05
0.00157658
4.1342e-05
0.00155933
4.2302e-05
0.00154256
4.22824e-05
0.00152631
4.14346e-05
0.00151068
4.00541e-05
0.00149576
3.83073e-05
0.00148162
3.64486e-05
0.00146826
3.46651e-05
0.00145566
3.30578e-05
0.00144382
3.1681e-05
0.00143269
3.05831e-05
0.00142227
2.98646e-05
0.00141246
2.96594e-05
0.00140308
3.00208e-05
0.00139389
3.09684e-05
0.00138467
3.26238e-05
0.00137513
3.52421e-05
0.00136495
3.92235e-05
0.00135375
4.482e-05
0.00134134
5.38382e-05
0.00132609
6.54303e-05
0.00130791
8.0146e-05
0.00128552
0.000101091
0.00125748
0.000130215
0.00122153
0.00016986
0.00117427
0.000222688
0.00111077
0.000291019
0.00102244
0.000374871
0.000896664
0.000461229
0.000722339
0.000532854
0.000499517
0.000586407
0.000236788
0.000635139
0.000556336
-6.47837e-05
0.00201226
0.000160845
0.00199361
0.000203989
0.0019735
0.00026694
0.00195424
0.000225683
0.00193504
0.000232787
0.00191794
0.000206384
0.0019016
0.000191976
0.00188625
0.000166462
0.0018696
0.000138496
0.00184977
0.000106732
0.00182779
8.55127e-05
0.00180556
7.29095e-05
0.00178401
6.49174e-05
0.00176348
5.96078e-05
0.00174404
5.68065e-05
0.00172571
5.61888e-05
0.00170835
5.68892e-05
0.00169177
5.79241e-05
0.00167579
5.82858e-05
0.00166029
5.77821e-05
0.00164528
5.64469e-05
0.00163082
5.45097e-05
0.00161696
5.21652e-05
0.00160374
4.96707e-05
0.00159118
4.72242e-05
0.0015793
4.4941e-05
0.0015681
4.2882e-05
0.00155758
4.10969e-05
0.00154777
3.96755e-05
0.00153865
3.87823e-05
0.0015301
3.85683e-05
0.00152194
3.91284e-05
0.00151396
4.06102e-05
0.00150592
4.32821e-05
0.00149755
4.75943e-05
0.00148855
5.38187e-05
0.00147893
6.34591e-05
0.00146727
7.70832e-05
0.0014536
9.38196e-05
0.00143697
0.000117722
0.00141638
0.000150802
0.00139049
0.000195756
0.00135721
0.000255965
0.00131333
0.000334899
0.00125254
0.000435664
0.00116255
0.000551214
0.00102946
0.000665941
0.000842751
0.000773118
0.000597509
0.000880381
0.000863403
0.000290442
0.00201966
0.00017961
0.00200495
0.000218699
0.00199112
0.000280775
0.00197709
0.000239707
0.0019635
0.000246379
0.00195136
0.000218529
0.00193974
0.000203592
0.00192873
0.00017747
0.00191684
0.000150386
0.00190317
0.000120405
0.00188805
0.000100632
0.001872
8.89644e-05
0.00185527
8.16422e-05
0.00183844
7.64335e-05
0.00182202
7.32324e-05
0.00180629
7.1916e-05
0.00179135
7.18259e-05
0.00177709
7.21879e-05
0.00176334
7.20356e-05
0.00174998
7.11444e-05
0.00173698
6.94412e-05
0.0017244
6.70931e-05
0.00171224
6.43242e-05
0.00170053
6.13832e-05
0.0016893
5.84539e-05
0.00167859
5.56531e-05
0.00166842
5.30498e-05
0.00165882
5.07021e-05
0.00164979
4.87054e-05
0.00164133
4.72391e-05
0.00163339
4.65095e-05
0.00162584
4.66771e-05
0.00161852
4.79294e-05
0.00161125
5.05506e-05
0.00160383
5.50175e-05
0.00159602
6.16259e-05
0.00158771
7.17703e-05
0.00157844
8.6358e-05
0.00156762
0.000104635
0.00155489
0.00013045
0.00153956
0.000166135
0.00152077
0.000214542
0.00149718
0.000279556
0.00146666
0.000365418
0.00142516
0.000477164
0.00136361
0.000612764
0.00126915
0.000760401
0.00112796
0.000914317
0.000923556
0.00108478
0.00115419
0.000632764
0.0020245
0.000196236
0.0020123
0.000230891
0.00200232
0.000290763
0.00199165
0.000250378
0.00198172
0.000256309
0.00197289
0.000227354
0.00196451
0.00021197
0.00195654
0.000185438
0.00194788
0.000159051
0.00193808
0.0001302
0.00192754
0.000111171
0.0019164
0.000100107
0.00190443
9.3612e-05
0.00189185
8.90196e-05
0.00187913
8.59466e-05
0.00186668
8.43673e-05
0.00185468
8.38306e-05
0.00184314
8.3719e-05
0.00183194
8.32377e-05
0.00182096
8.21219e-05
0.00181017
8.02365e-05
0.00179956
7.76981e-05
0.00178915
7.47348e-05
0.00177896
7.15783e-05
0.00176903
6.83865e-05
0.00175941
6.52709e-05
0.00175015
6.23082e-05
0.00174129
5.9565e-05
0.00173284
5.7154e-05
0.00172481
5.52665e-05
0.00171719
5.41333e-05
0.0017099
5.39606e-05
0.00170286
5.49749e-05
0.00169593
5.74757e-05
0.001689
6.19561e-05
0.00168188
6.87377e-05
0.00167458
7.90732e-05
0.00166673
9.42085e-05
0.00165803
0.00011333
0.00164838
0.000140104
0.00163732
0.000177199
0.00162443
0.000227429
0.00160898
0.000295003
0.0015898
0.000384597
0.00156454
0.000502425
0.00152673
0.000650575
0.00146547
0.000821666
0.00136901
0.00101077
0.00121536
0.00123843
0.00139092
0.000978635
0.00202786
0.000211339
0.00201736
0.000241391
0.00200988
0.000298239
0.00200154
0.000258718
0.00199413
0.000263718
0.00198765
0.000233839
0.00198161
0.000218008
0.00197589
0.00019116
0.00196958
0.000165364
0.00196247
0.000137309
0.00195505
0.000118585
0.00194748
0.000107683
0.00193941
0.000101681
0.00193074
9.76842e-05
0.00192172
9.49723e-05
0.00191263
9.34527e-05
0.00190365
9.2812e-05
0.00189484
9.25292e-05
0.00188611
9.19716e-05
0.00187738
9.08455e-05
0.00186863
8.89919e-05
0.00185983
8.6495e-05
0.001851
8.35699e-05
0.00184215
8.04189e-05
0.00183338
7.71641e-05
0.00182474
7.39112e-05
0.0018163
7.07452e-05
0.00180812
6.77418e-05
0.00180024
6.50347e-05
0.00179268
6.28265e-05
0.00178545
6.13606e-05
0.00177854
6.08763e-05
0.00177188
6.16318e-05
0.00176543
6.39314e-05
0.0017591
6.82858e-05
0.00175278
7.5055e-05
0.0017465
8.53493e-05
0.00174034
0.000100368
0.00173315
0.00012052
0.0017261
0.000147162
0.00171856
0.000184738
0.00171041
0.000235574
0.00170146
0.000303958
0.00169123
0.000394824
0.0016787
0.000514952
0.00165979
0.000669488
0.0016259
0.000855559
0.0015686
0.00106807
0.00146713
0.0013399
0.00156521
0.00129284
0.0020303
0.000225271
0.00202098
0.000250706
0.00201521
0.000304009
0.00200858
0.00026535
0.00200298
0.000269317
0.00199819
0.000238635
0.00199389
0.000222302
0.00198988
0.00019517
0.00198537
0.000169874
0.00198026
0.000142424
0.00197508
0.000123764
0.00197005
0.00011271
0.00196488
0.00010685
0.00195933
0.000103237
0.00195341
0.000100891
0.00194729
9.95734e-05
0.00194107
9.90301e-05
0.00193479
9.88069e-05
0.00192837
9.83956e-05
0.00192173
9.74882e-05
0.00191483
9.5889e-05
0.00190768
9.3641e-05
0.00190031
9.09395e-05
0.00189278
8.79552e-05
0.00188516
8.47779e-05
0.00187756
8.15103e-05
0.00187006
7.82491e-05
0.00186272
7.50854e-05
0.00185558
7.21679e-05
0.0018487
6.97066e-05
0.0018421
6.79607e-05
0.00183578
6.71958e-05
0.00182972
6.76924e-05
0.0018239
6.97516e-05
0.00181829
7.38945e-05
0.00181283
8.05211e-05
0.00180754
9.06345e-05
0.00180256
0.000105355
0.00179709
0.000125988
0.0017921
0.000152153
0.00178741
0.000189427
0.00178297
0.000240013
0.00177901
0.000307922
0.00177557
0.000398259
0.0017726
0.000517926
0.00176811
0.000673978
0.00175577
0.000867892
0.00173051
0.00109333
0.00167556
0.00139485
0.00167642
0.00156435
0.00203212
0.000238263
0.00202365
0.00025917
0.00201907
0.000308589
0.00201374
0.000270687
0.00200947
0.00027358
0.00200593
0.000242178
0.00200297
0.000225261
0.00200029
0.000197847
0.0019972
0.000172966
0.00199363
0.000145999
0.0019901
0.000127288
0.0019869
0.000115909
0.00198381
0.000109945
0.00198055
0.0001065
0.001977
0.000104433
0.00197324
0.000103338
0.0019693
0.000102966
0.00196521
0.000102902
0.00196086
0.000102742
0.00195616
0.000102193
0.00195102
0.000101023
0.00194547
9.91921e-05
0.00193956
9.68492e-05
0.00193338
9.41393e-05
0.00192702
9.1139e-05
0.00192058
8.79453e-05
0.00191416
8.467e-05
0.00190781
8.14338e-05
0.00190159
7.83925e-05
0.00189554
7.57542e-05
0.00188971
7.37899e-05
0.00188412
7.27871e-05
0.00187877
7.30468e-05
0.00187365
7.48675e-05
0.00186878
7.87651e-05
0.00186413
8.51672e-05
0.00185976
9.50046e-05
0.00185583
0.000109291
0.00185199
0.000129826
0.00184851
0.00015563
0.00184611
0.000191832
0.00184464
0.000241477
0.00184456
0.000308004
0.00184636
0.000396464
0.0018506
0.000513688
0.00185694
0.000667633
0.00186107
0.000863765
0.00186047
0.00109393
0.00184642
0.0014089
0.00173611
0.00178673
0.00203349
0.00025048
0.00202565
0.000267006
0.0020219
0.000312341
0.00201756
0.000275026
0.00201433
0.000276817
0.00201174
0.000244765
0.00200982
0.000227181
0.0020082
0.00019947
0.00200624
0.000174922
0.00200387
0.000148364
0.00200161
0.000129557
0.00199975
0.000117769
0.00199814
0.000111548
0.00199654
0.000108102
0.00199477
0.000106205
0.0019928
0.000105302
0.00199066
0.000105114
0.00198832
0.000105234
0.00198573
0.000105338
0.00198276
0.000105166
0.00197929
0.000104489
0.0019753
0.000103178
0.00197087
0.00010128
0.0019661
9.89154e-05
0.00196106
9.61729e-05
0.00195587
9.31412e-05
0.0019506
8.99401e-05
0.00194531
8.67212e-05
0.00194005
8.36479e-05
0.00193489
8.09202e-05
0.00192987
7.88084e-05
0.00192504
7.76161e-05
0.00192042
7.7666e-05
0.00191603
7.92583e-05
0.0019119
8.28954e-05
0.00190805
8.90169e-05
0.00190455
9.85022e-05
0.00190166
0.000112188
0.00189933
0.00013215
0.00189702
0.000157941
0.00189641
0.000192448
0.00189742
0.000240466
0.00190042
0.000305002
0.00190625
0.00039063
0.0019159
0.000504039
0.00193022
0.000653316
0.00194662
0.000847365
0.00196409
0.00107646
0.00198091
0.00139208
0.0017471
0.00196993
0.00203453
0.000262043
0.00202717
0.000274368
0.00202398
0.000315527
0.00202041
0.000278596
0.00201799
0.000279239
0.00201616
0.000246599
0.00201506
0.000228278
0.00201428
0.000200251
0.00201324
0.000175964
0.00201184
0.000149764
0.00201055
0.000130852
0.00200969
0.000118626
0.00200918
0.000112058
0.00200879
0.000108491
0.00200833
0.000106662
0.00200774
0.000105898
0.00200698
0.000105875
0.00200604
0.000106173
0.00200486
0.000106515
0.00200335
0.000106675
0.00200139
0.000106449
0.00199891
0.00010566
0.00199594
0.000104251
0.00199256
0.000102295
0.00198885
9.98868e-05
0.00198488
9.71108e-05
0.00198073
9.40823e-05
0.00197649
9.09696e-05
0.00197219
8.79461e-05
0.0019679
8.52049e-05
0.0019637
8.30085e-05
0.00195965
8.16705e-05
0.00195578
8.15341e-05
0.00195213
8.29061e-05
0.00194876
8.62707e-05
0.0019457
9.20693e-05
0.00194306
0.000101144
0.00194108
0.000114166
0.00193997
0.000133267
0.00193888
0.00015903
0.00193972
0.000191605
0.0019427
0.000237487
0.00194818
0.000299521
0.00195709
0.000381719
0.00197072
0.000490407
0.00199074
0.000633296
0.00201606
0.000822046
0.00204616
0.00104636
0.00208397
0.00135427
0.00171838
0.00211269
0.00203533
0.000273033
0.00202834
0.000281363
0.00202552
0.000318349
0.00202253
0.000281584
0.00202077
0.000280999
0.00201955
0.000247815
0.00201912
0.000228711
0.00201901
0.000200356
0.00201871
0.000176266
0.00201809
0.000150382
0.00201757
0.000131374
0.00201749
0.000118711
0.0020178
0.000111749
0.00201831
0.000107977
0.00201884
0.000106133
0.00201929
0.000105449
0.00201961
0.000105553
0.00201977
0.000106008
0.00201974
0.000106551
0.00201943
0.000106983
0.00201875
0.000107129
0.00201761
0.000106797
0.00201599
0.000105874
0.00201392
0.000104366
0.00201145
0.000102354
0.00200865
9.9915e-05
0.00200558
9.71498e-05
0.00200233
9.42241e-05
0.00199896
9.13169e-05
0.00199554
8.86195e-05
0.00199216
8.63879e-05
0.00198889
8.49393e-05
0.00198579
8.46358e-05
0.0019829
8.57961e-05
0.00198029
8.88844e-05
0.00197802
9.43361e-05
0.00197621
0.00010296
0.00197501
0.000115364
0.00197486
0.000133412
0.00197538
0.000158513
0.00197706
0.000189922
0.0019815
0.000233049
0.00198896
0.00029206
0.00200024
0.000370446
0.00201676
0.000473881
0.00204074
0.000609315
0.00207238
0.000790406
0.00211133
0.0010074
0.00216291
0.00130269
0.00166238
0.00221891
0.00203594
0.000283516
0.00202925
0.000288056
0.00202664
0.000320953
0.00202408
0.000284146
0.00202286
0.000282219
0.00202217
0.000248509
0.00202228
0.000228604
0.00202271
0.000199918
0.00202302
0.000175964
0.00202304
0.000150358
0.00202315
0.000131268
0.00202367
0.000118188
0.00202461
0.000110812
0.0020258
0.000106781
0.00202708
0.000104856
0.00202833
0.000104194
0.0020295
0.000104383
0.00203055
0.000104963
0.00203143
0.000105667
0.0020321
0.000106318
0.00203246
0.000106765
0.00203244
0.000106819
0.00203198
0.000106337
0.00203107
0.000105276
0.00202974
0.000103683
0.00202802
0.000101631
0.00202597
9.91982e-05
0.00202367
9.6526e-05
0.0020212
9.37868e-05
0.00201864
9.11749e-05
0.00201608
8.89486e-05
0.0020136
8.74249e-05
0.00201125
8.69785e-05
0.00200911
8.79407e-05
0.00200724
9.07581e-05
0.00200572
9.58548e-05
0.00200468
0.000103998
0.00200425
0.000115795
0.00200498
0.000132684
0.0020068
0.000156692
0.00200923
0.000187492
0.00201477
0.000227509
0.00202368
0.000283146
0.0020368
0.000357324
0.00205542
0.000455264
0.00208204
0.000582699
0.00211795
0.00075449
0.00216303
0.000962324
0.00222348
0.00124225
0.00158952
0.00229633
0.00203637
0.000293562
0.00202993
0.000294498
0.00202746
0.000323421
0.00202519
0.000286411
0.00202442
0.000282994
0.00202418
0.000248745
0.00202473
0.000228053
0.00202561
0.00019904
0.00202641
0.000175163
0.00202697
0.0001498
0.0020276
0.000130643
0.00202861
0.000117173
0.00203004
0.000109382
0.00203176
0.000105058
0.00203362
0.000103
0.0020355
0.000102311
0.00203734
0.000102542
0.00203909
0.000103213
0.00204071
0.000104047
0.00204215
0.000104878
0.00204335
0.000105568
0.00204423
0.000105945
0.00204471
0.000105849
0.00204479
0.000105202
0.00204445
0.000104019
0.00204372
0.000102362
0.00204263
0.000100291
0.00204124
9.79124e-05
0.00203965
9.53835e-05
0.00203792
9.28979e-05
0.00203615
9.07174e-05
0.00203442
8.91576e-05
0.0020328
8.85975e-05
0.00203137
8.93774e-05
0.00203019
9.19303e-05
0.00202938
9.66697e-05
0.00202907
0.000104312
0.00202938
0.000115482
0.00203083
0.000131229
0.00203363
0.000153898
0.00203722
0.000183896
0.00204327
0.000221464
0.0020532
0.000273218
0.00206766
0.000342865
0.00208778
0.000435136
0.00211604
0.000554439
0.00215461
0.000715925
0.00220366
0.000913273
0.00226948
0.00117643
0.00150667
0.00235233
0.00203666
0.000303227
0.00203042
0.000300734
0.00202802
0.00032582
0.00202596
0.00028847
0.00202557
0.000283394
0.00202573
0.000248583
0.00202664
0.000227138
0.00202788
0.0001978
0.0020291
0.000173948
0.00203011
0.000148793
0.00203117
0.000129582
0.00203259
0.000115755
0.00203441
0.000107557
0.00203655
0.000102921
0.00203886
0.00010069
0.00204124
9.99328e-05
0.00204361
0.000100168
0.00204593
0.000100899
0.00204814
0.000101837
0.0020502
0.000102818
0.00205205
0.00010371
0.00205364
0.000104355
0.0020549
0.000104592
0.00205579
0.000104316
0.00205629
0.000103512
0.00205642
0.00010223
0.0020562
0.000100515
0.00205567
9.84447e-05
0.00205489
9.6157e-05
0.00205396
9.38368e-05
0.00205293
9.1742e-05
0.00205191
9.01827e-05
0.00205097
8.95367e-05
0.00205019
9.01488e-05
0.00204968
9.24418e-05
0.00204953
9.68241e-05
0.00204989
0.000103956
0.00205088
0.000114485
0.00205293
0.000129181
0.00205647
0.000150359
0.00206129
0.000179072
0.00206768
0.000215081
0.00207822
0.00026267
0.00209353
0.00032756
0.00211467
0.000413996
0.0021439
0.000525209
0.00218388
0.000675949
0.0022352
0.000861949
0.00230384
0.00110779
0.00141844
0.00239207
0.00203684
0.00031255
0.00203077
0.000306798
0.0020284
0.000328196
0.00202648
0.000290383
0.00202639
0.000283483
0.00202689
0.000248084
0.00202811
0.000225919
0.00202965
0.000196258
0.00203122
0.000172383
0.00203261
0.000147403
0.00203404
0.000128149
0.0020358
0.000113997
0.00203795
0.000105408
0.00204042
0.00010045
0.00204309
9.80202e-05
0.00204586
9.71612e-05
0.00204866
9.73693e-05
0.00205142
9.81346e-05
0.0020541
9.91538e-05
0.00205666
0.000100259
0.00205905
0.00010132
0.00206122
0.000102192
0.00206309
0.000102716
0.00206464
0.000102769
0.00206584
0.000102309
0.0020667
0.00010137
0.00206723
9.99869e-05
0.00206745
9.82199e-05
0.00206743
9.61851e-05
0.00206721
9.40538e-05
0.00206688
9.20749e-05
0.00206651
9.05471e-05
0.00206621
8.98389e-05
0.00206606
9.02967e-05
0.00206617
9.23336e-05
0.00206663
9.63652e-05
0.0020676
0.000102988
0.00206921
0.000112866
0.00207176
0.000126639
0.00207594
0.000146177
0.00208175
0.000173256
0.00208881
0.000208027
0.00209941
0.00025207
0.00211513
0.000311836
0.0021368
0.000392328
0.00216647
0.000495537
0.00220697
0.000635447
0.00225931
0.000809616
0.00232893
0.00103817
0.00132809
0.00241929
0.00203692
0.000321566
0.002031
0.000312711
0.00202863
0.000330573
0.00202682
0.000292188
0.00202697
0.00028333
0.00202775
0.000247308
0.00202922
0.000224444
0.00203102
0.000194461
0.00203288
0.000170523
0.0020346
0.000145684
0.00203635
0.000126397
0.0020384
0.000111952
0.00204081
0.000102992
0.00204355
9.77101e-05
0.00204651
9.50616e-05
0.0020496
9.40769e-05
0.00205273
9.4234e-05
0.00205586
9.50097e-05
0.00205892
9.60894e-05
0.00206188
9.72978e-05
0.0020647
9.85014e-05
0.00206733
9.9565e-05
0.00206971
0.000100335
0.0020718
0.00010068
0.00207357
0.000100533
0.00207504
9.99091e-05
0.00207619
9.88333e-05
0.00207706
9.73524e-05
0.00207768
9.55642e-05
0.0020781
9.36264e-05
0.0020784
9.17757e-05
0.00207865
9.02974e-05
0.00207895
8.95418e-05
0.00207938
8.98642e-05
0.00208006
9.16615e-05
0.00208107
9.53478e-05
0.00208259
0.000101473
0.00208476
0.000110692
0.00208781
0.000123592
0.00209243
0.000141554
0.00209886
0.000166831
0.00210686
0.000200025
0.00211733
0.000241595
0.00213309
0.000296079
0.00215489
0.000370529
0.00218448
0.000465943
0.00222479
0.000595138
0.00227719
0.000757218
0.0023465
0.000968857
0.00123782
0.00243677
0.00203691
0.000330304
0.00203113
0.000318491
0.00202874
0.000332964
0.00202702
0.000293908
0.00202735
0.000282995
0.00202835
0.000246311
0.00203004
0.00022275
0.00203206
0.000192443
0.00203418
0.000168407
0.00203618
0.000143682
0.00203821
0.000124367
0.0020405
0.000109659
0.00204315
0.00010035
0.00204611
9.47484e-05
0.0020493
9.18709e-05
0.00205263
9.07434e-05
0.00205604
9.08303e-05
0.00205945
9.15969e-05
0.00206282
9.27187e-05
0.00206611
9.40103e-05
0.00206927
9.53335e-05
0.00207228
9.65595e-05
0.00207507
9.7543e-05
0.00207761
9.81467e-05
0.00207985
9.82856e-05
0.00208181
9.79525e-05
0.00208348
9.71621e-05
0.00208489
9.59487e-05
0.00208605
9.43948e-05
0.00208704
9.26437e-05
0.00208789
9.09194e-05
0.0020887
8.94953e-05
0.00208953
8.87027e-05
0.0020905
8.88997e-05
0.00209168
9.04769e-05
0.0020932
9.38301e-05
0.00209521
9.94689e-05
0.00209787
0.000108029
0.00210138
0.00012008
0.0021063
0.000136632
0.00211316
0.000159978
0.00212197
0.000191208
0.00213279
0.000230783
0.00214801
0.000280851
0.00216952
0.000349021
0.00219862
0.000436844
0.00223821
0.000555553
0.00228984
0.000705584
0.00235788
0.000900817
0.00114922
0.00244648
0.00203683
0.000338789
0.00203116
0.000324157
0.00202876
0.000335372
0.00202712
0.000295549
0.00202758
0.000282532
0.00202874
0.000245145
0.00203063
0.000220866
0.00203284
0.000190235
0.00203517
0.000166071
0.00203743
0.00014143
0.0020397
0.000122093
0.00204221
0.00010715
0.00204504
9.75146e-05
0.00204819
9.16037e-05
0.00205157
8.84926e-05
0.0020551
8.72109e-05
0.00205872
8.7213e-05
0.00206236
8.79536e-05
0.00206598
8.91011e-05
0.00206953
9.0458e-05
0.00207298
9.18806e-05
0.0020763
9.32452e-05
0.00207943
9.44142e-05
0.00208232
9.52492e-05
0.00208496
9.56495e-05
0.00208733
9.5587e-05
0.00208943
9.50629e-05
0.00209127
9.41001e-05
0.0020929
9.27668e-05
0.00209435
9.11922e-05
0.00209569
8.95871e-05
0.00209697
8.82151e-05
0.00209828
8.73931e-05
0.0020997
8.747e-05
0.00210135
8.88319e-05
0.00210332
9.18621e-05
0.00210576
9.70301e-05
0.00210885
0.00010494
0.00211276
0.000116161
0.0021179
0.000131491
0.00212507
0.000152809
0.00213441
0.000181868
0.00214575
0.000219444
0.00216038
0.000266222
0.0021813
0.000328097
0.00220958
0.000408569
0.00224796
0.000517167
0.0022982
0.000655351
0.00236425
0.000834769
0.00106333
0.00245013
0.00203668
0.000347043
0.00203111
0.000329726
0.00202869
0.000337795
0.00202713
0.000297112
0.00202768
0.000281981
0.00202897
0.000243852
0.00203102
0.000218816
0.00203339
0.000187863
0.00203592
0.000163541
0.00203839
0.000138958
0.00204089
0.000119601
0.00204359
0.000104451
0.00204659
9.45138e-05
0.00204988
8.83065e-05
0.00205341
8.49623e-05
0.00205711
8.3519e-05
0.00206089
8.34255e-05
0.00206472
8.41259e-05
0.00206854
8.52846e-05
0.0020723
8.66905e-05
0.00207599
8.81953e-05
0.00207956
8.96787e-05
0.00208296
9.10102e-05
0.00208616
9.20522e-05
0.00208911
9.26923e-05
0.00209182
9.28822e-05
0.00209427
9.26086e-05
0.00209649
9.18824e-05
0.0020985
9.07585e-05
0.00210034
8.9352e-05
0.00210207
8.7859e-05
0.00210375
8.65333e-05
0.00210546
8.56807e-05
0.00210729
8.56403e-05
0.00210933
8.67894e-05
0.0021117
8.95014e-05
0.00211451
9.42116e-05
0.00211797
0.000101489
0.00212223
0.000111895
0.00212762
0.000126108
0.0021349
0.000145522
0.00214443
0.000172345
0.00215632
0.000207545
0.00217097
0.000251578
0.00219074
0.000308323
0.00221795
0.000381362
0.0022548
0.000480312
0.00230317
0.000606982
0.0023667
0.000771244
0.000980861
0.00244917
0.00203647
0.000355089
0.00203098
0.000335215
0.00202854
0.000340235
0.00202706
0.000298597
0.00202768
0.00028136
0.00202907
0.000242456
0.00203127
0.000216623
0.00203378
0.000185352
0.00203647
0.000160844
0.00203913
0.0001363
0.00204182
0.000116914
0.00204469
0.000101582
0.00204783
9.13695e-05
0.00205126
8.48818e-05
0.00205491
8.13084e-05
0.00205873
7.96998e-05
0.00206265
7.95026e-05
0.00206663
8.01508e-05
0.00207061
8.13081e-05
0.00207455
8.27492e-05
0.00207842
8.43215e-05
0.00208219
8.59067e-05
0.00208582
8.73806e-05
0.00208927
8.86082e-05
0.00209249
8.94683e-05
0.00209548
8.98945e-05
0.00209823
8.98582e-05
0.00210075
8.93582e-05
0.00210308
8.84359e-05
0.00210524
8.71915e-05
0.00210729
8.58055e-05
0.0021093
8.45211e-05
0.00211135
8.36343e-05
0.00211351
8.34754e-05
0.00211589
8.44123e-05
0.00211858
8.681e-05
0.00212172
9.1074e-05
0.00212547
9.77345e-05
0.00213003
0.000107341
0.00213564
0.000120499
0.0021429
0.000138261
0.00215251
0.000162732
0.00216473
0.000195329
0.00217951
0.000236794
0.00219848
0.000289356
0.00222419
0.000355646
0.00225928
0.000445222
0.00230549
0.000560778
0.00236615
0.000710584
0.000902286
0.00244472
0.0020362
0.000362946
0.00203078
0.000340639
0.00202832
0.000342697
0.00202691
0.000300006
0.00202759
0.000280678
0.00202908
0.000240969
0.0020314
0.000214303
0.00203404
0.000182714
0.00203688
0.000158005
0.00203969
0.000133484
0.00204255
0.000114059
0.00204557
9.85609e-05
0.00204884
8.80993e-05
0.00205237
8.13496e-05
0.00205612
7.75537e-05
0.00206004
7.57787e-05
0.00206408
7.54718e-05
0.00206817
7.60589e-05
0.00207227
7.72041e-05
0.00207635
7.86685e-05
0.00208038
8.02953e-05
0.00208432
8.19673e-05
0.00208813
8.3566e-05
0.00209178
8.49598e-05
0.00209523
8.60217e-05
0.00209845
8.66698e-05
0.00210145
8.68604e-05
0.00210423
8.65789e-05
0.00210681
8.5853e-05
0.00210924
8.47674e-05
0.00211156
8.34862e-05
0.00211384
8.22405e-05
0.00211615
8.13174e-05
0.00211859
8.10389e-05
0.00212124
8.17638e-05
0.0021242
8.38498e-05
0.00212759
8.76776e-05
0.00213159
9.37378e-05
0.00213637
0.000102561
0.00214216
0.000114711
0.00214937
0.000131047
0.00215894
0.000153164
0.0021711
0.000183169
0.00218613
0.000221769
0.00220475
0.00027073
0.00222872
0.000331683
0.00226186
0.000412074
0.00230565
0.000516988
0.0023632
0.000653034
0.000827807
0.00243768
0.00203588
0.000370633
0.0020305
0.000346018
0.00202802
0.00034518
0.00202669
0.000301334
0.00202743
0.000279943
0.002029
0.000239397
0.00203143
0.00021187
0.00203419
0.000179956
0.00203716
0.000155037
0.00204011
0.000130533
0.0020431
0.000111066
0.00204625
9.54117e-05
0.00204964
8.47174e-05
0.00205326
7.7726e-05
0.0020571
7.3717e-05
0.0020611
7.17767e-05
0.00206521
7.13556e-05
0.0020694
7.18756e-05
0.0020736
7.29996e-05
0.00207779
7.44772e-05
0.00208194
7.6147e-05
0.00208602
7.78924e-05
0.00208998
7.95998e-05
0.0020938
8.11422e-05
0.00209743
8.23894e-05
0.00210086
8.32465e-05
0.00210406
8.36548e-05
0.00210705
8.35859e-05
0.00210985
8.30534e-05
0.0021125
8.21259e-05
0.00211503
8.09503e-05
0.00211753
7.97445e-05
0.00212006
7.87858e-05
0.00212271
7.83885e-05
0.00212557
7.89025e-05
0.00212874
8.06796e-05
0.00213234
8.40801e-05
0.00213652
8.95566e-05
0.00214146
9.76166e-05
0.00214738
0.000108791
0.00215462
0.000123808
0.00216392
0.000143865
0.00217592
0.000171171
0.00219097
0.00020672
0.00220932
0.000252378
0.00223234
0.000308667
0.00226297
0.00038144
0.00230412
0.000475835
0.00235828
0.00059888
0.000757633
0.00242845
0.00203551
0.000378171
0.00203016
0.000351368
0.00202766
0.00034768
0.00202642
0.000302573
0.0020272
0.000279162
0.00202885
0.000237752
0.00203138
0.000209333
0.00203426
0.000177083
0.00203735
0.000151946
0.00204043
0.000127452
0.00204354
0.000107957
0.00204678
9.21647e-05
0.00205026
8.12397e-05
0.00205396
7.40235e-05
0.00205787
6.98131e-05
0.00206193
6.77107e-05
0.00206612
6.71726e-05
0.00207037
6.76216e-05
0.00207465
6.87174e-05
0.00207893
7.01995e-05
0.00208318
7.19021e-05
0.00208736
7.37084e-05
0.00209145
7.55097e-05
0.00209541
7.71847e-05
0.00209919
7.86021e-05
0.00210279
7.9656e-05
0.00210617
8.02738e-05
0.00210934
8.0413e-05
0.00211232
8.00723e-05
0.00211514
7.93045e-05
0.00211785
7.82384e-05
0.00212052
7.70769e-05
0.00212322
7.60867e-05
0.00212603
7.55741e-05
0.00212906
7.58804e-05
0.00213238
7.73525e-05
0.00213613
8.03355e-05
0.00214044
8.52463e-05
0.00214549
9.25653e-05
0.00215149
0.000102794
0.00215872
0.000116578
0.00216772
0.000134857
0.00217943
0.000159461
0.00219413
0.000192021
0.00221244
0.000234075
0.00223467
0.000286437
0.00226337
0.000352731
0.00230138
0.000437834
0.00235207
0.000548182
0.00069186
0.00241785
0.00203509
0.000385576
0.00202975
0.000356711
0.00202724
0.000350191
0.0020261
0.000303711
0.00202692
0.00027834
0.00202862
0.000236047
0.00203125
0.000206705
0.00203424
0.000174099
0.00203745
0.000148734
0.00204066
0.000124243
0.00204388
0.000104738
0.0020472
8.88405e-05
0.00205075
7.76955e-05
0.00205451
7.02558e-05
0.00205847
6.5854e-05
0.00206259
6.35944e-05
0.00206682
6.29385e-05
0.00207113
6.33144e-05
0.00207547
6.43764e-05
0.00207982
6.58556e-05
0.00208414
6.75817e-05
0.00208841
6.94376e-05
0.0020926
7.13194e-05
0.00209667
7.31123e-05
0.00210059
7.46857e-05
0.00210432
7.59246e-05
0.00210785
7.67439e-05
0.00211117
7.70872e-05
0.00211431
7.69385e-05
0.00211728
7.63338e-05
0.00212013
7.53833e-05
0.00212294
7.42737e-05
0.00212576
7.3259e-05
0.0021287
7.26374e-05
0.00213184
7.27421e-05
0.00213527
7.39156e-05
0.00213912
7.64917e-05
0.00214351
8.0856e-05
0.00214862
8.74591e-05
0.00215463
9.67755e-05
0.00216182
0.000109389
0.00217061
0.000126074
0.00218183
0.000148241
0.00219608
0.000177768
0.00221394
0.000216218
0.00223565
0.000264719
0.002263
0.000325383
0.00229827
0.000402567
0.00234495
0.000501502
0.000630569
0.00240624
0.00203462
0.000392874
0.00202928
0.00036205
0.00202677
0.000352695
0.00202573
0.00030475
0.00202659
0.000277485
0.00202835
0.000234291
0.00203105
0.000203995
0.00203414
0.00017101
0.00203747
0.000145406
0.00204081
0.000120908
0.00204414
0.000101405
0.00204754
8.5437e-05
0.00205113
7.41035e-05
0.00205494
6.64505e-05
0.00205894
6.18566e-05
0.00206309
5.94402e-05
0.00206736
5.8666e-05
0.00207171
5.89684e-05
0.00207609
5.99929e-05
0.00208049
6.14629e-05
0.00208486
6.32041e-05
0.0020892
6.50992e-05
0.00209347
6.70488e-05
0.00209764
6.8946e-05
0.00210166
7.06621e-05
0.00210551
7.20743e-05
0.00210917
7.30869e-05
0.00211263
7.36313e-05
0.00211589
7.36755e-05
0.00211898
7.32386e-05
0.00212196
7.24118e-05
0.00212487
7.13637e-05
0.00212779
7.03347e-05
0.00213081
6.96135e-05
0.00213403
6.95257e-05