/*--------------------------------*- C++ -*----------------------------------*\
  =========                 |
  \\      /  F ield         | OpenFOAM: The Open Source CFD Toolbox
   \\    /   O peration     | Website:  https://openfoam.org
    \\  /    A nd           | Version:  8
     \\/     M anipulation  |
\*---------------------------------------------------------------------------*/
FoamFile
{
    version     2.0;
    format      ascii;
    class       volVectorField;
    location    "0.015033";
    object      U;
}
// * * * * * * * * * * * * * * * * * * * * * * * * * * * * * * * * * * * * * //

dimensions      [0 1 -1 0 0 0 0];

internalField   nonuniform List<vector> 
106000
(
(12.0675 -0.166369 0)
(11.2803 0.0238595 0)
(10.4557 0.0825547 0)
(9.55688 0.0755018 3.23977e-18)
(8.73505 0.0763076 -7.57328e-18)
(7.96037 0.0693823 8.61093e-18)
(7.25405 0.0654964 4.78819e-18)
(6.63945 0.0584829 -5.47381e-23)
(6.14772 0.040169 -2.24786e-17)
(5.96643 0.0114684 3.69086e-23)
(5.98083 -0.0035707 1.09956e-17)
(6.00661 0.000146355 1.08265e-17)
(6.02204 0.00675404 -1.0653e-17)
(6.03542 0.0101112 0)
(6.04206 0.0132987 0)
(6.03372 0.0171659 -2.04464e-17)
(6.00683 0.020975 2.03296e-17)
(5.96299 0.0241509 0)
(5.90753 0.0264429 0)
(5.84635 0.0279469 0)
(5.7844 0.0288816 0)
(5.72296 0.0295198 0)
(5.66298 0.0300389 0)
(5.60473 0.0307064 0)
(5.5479 0.0315995 -2.06846e-17)
(5.49193 0.0326347 2.07713e-17)
(5.43626 0.0337764 0)
(5.37976 0.0349662 -4.1972e-17)
(5.32147 0.036097 1.55427e-22)
(5.25979 0.0370481 8.51865e-17)
(5.19394 0.0375033 -1.46572e-22)
(5.12427 0.0370773 -4.34434e-17)
(5.05085 0.0354645 -4.39294e-17)
(4.97282 0.0323568 1.05468e-22)
(4.8882 0.02745 4.50557e-17)
(4.79403 0.0194593 0)
(4.68682 0.0131657 0)
(4.56355 -0.00296669 0)
(4.42102 -0.0253342 0)
(4.24864 -0.0540727 0)
(4.03291 -0.0922253 -5.16781e-17)
(3.75749 -0.143145 5.40591e-17)
(3.40775 -0.208808 0)
(2.96651 -0.289215 0)
(2.41348 -0.384855 0)
(1.74992 -0.490017 0)
(0.983117 -0.541975 7.73723e-17)
(0.047973 -0.513529 -7.16486e-17)
(-0.873656 -0.495819 0)
(-1.49091 -0.687558 -6.40062e-17)
(12.2827 0.0749654 4.42264e-20)
(11.8943 0.0995227 1.61014e-19)
(11.626 0.125764 -6.60871e-24)
(11.2713 0.104539 -7.46935e-19)
(10.9612 0.106744 -1.83318e-18)
(10.6671 0.0952801 2.13725e-18)
(10.3992 0.0874777 0)
(10.1512 0.074139 0)
(9.92754 0.0552905 0)
(9.67761 0.0306609 -5.77857e-18)
(9.4457 0.0146317 5.70072e-18)
(9.26505 0.00769609 0)
(9.12303 0.0066266 0)
(9.00202 0.00614581 0)
(8.89183 0.00724521 1.08243e-17)
(8.78698 0.00934455 -2.1457e-17)
(8.68388 0.0117817 1.06918e-17)
(8.58068 0.0138937 1.07014e-17)
(8.47759 0.0152418 -1.07356e-17)
(8.37582 0.0158863 0)
(8.27693 0.0159967 0)
(8.18172 0.0158808 0)
(8.0908 0.0156165 1.08724e-17)
(8.0045 0.0154023 -2.1811e-17)
(7.92278 0.0152906 2.18855e-17)
(7.84529 0.015283 -1.09861e-17)
(7.77153 0.0154041 0)
(7.70115 0.0156606 0)
(7.63373 0.0160788 0)
(7.56819 0.016665 0)
(7.50344 0.0172802 2.27586e-17)
(7.43851 0.0178033 -2.30078e-17)
(7.37235 0.0182383 0)
(7.30357 0.018641 0)
(7.23021 0.0190819 0)
(7.14948 0.0194919 2.41615e-17)
(7.05752 0.0221287 -2.44952e-17)
(6.95119 0.0216292 0)
(6.82529 0.0221403 0)
(6.67133 0.0232162 0)
(6.47741 0.0249032 2.60406e-17)
(6.22808 0.0272809 -2.65357e-17)
(5.89604 0.0290716 0)
(5.44988 0.0284913 0)
(4.85074 0.0217164 2.91405e-17)
(4.06821 0.00358102 -3.10281e-17)
(3.07966 -0.0189684 -3.43705e-17)
(1.78721 -0.0273833 4.02085e-17)
(0.171524 0.0161364 4.46627e-17)
(-1.01674 -0.0627735 9.25622e-22)
(12.361 0.0933051 0)
(12.0753 0.114222 0)
(11.9471 0.150611 0)
(11.7307 0.126062 0)
(11.5532 0.130737 -1.04775e-18)
(11.3824 0.116056 1.22812e-18)
(11.2301 0.107383 0)
(11.0884 0.0919615 0)
(10.9591 0.0713653 3.33616e-18)
(10.799 0.0463596 -7.03242e-18)
(10.6112 0.0313732 7.20196e-18)
(10.4331 0.0245891 -7.29683e-18)
(10.2749 0.0208376 3.64e-18)
(10.1324 0.0188592 0)
(10.0003 0.0189169 7.18441e-18)
(9.87585 0.0202377 -7.19189e-18)
(9.75733 0.0221626 0)
(9.64325 0.0239584 -7.30954e-18)
(9.53292 0.0250304 1.47792e-17)
(9.42616 0.0253751 -7.46416e-18)
(9.32315 0.0251535 0)
(9.22422 0.0246164 0)
(9.12983 0.023835 0)
(9.04021 0.0230322 7.68188e-18)
(8.95537 0.0223216 -7.73129e-18)
(8.87516 0.0217489 1.55658e-17)
(8.79927 0.0213435 -5.96317e-23)
(8.72761 0.0211218 -5.92257e-23)
(8.65999 0.0211329 -1.5916e-17)
(8.59609 0.0214265 -1.6066e-17)
(8.53507 0.0219478 5.6043e-23)
(8.47572 0.0226459 1.64203e-17)
(8.41668 0.0235544 0)
(8.35641 0.0247765 0)
(8.29299 0.0264871 -1.6999e-17)
(8.224 0.0286156 1.72086e-17)
(8.14593 0.03247 0)
(8.05561 0.0368578 0)
(7.94816 0.0428583 0)
(7.81611 0.0511968 0)
(7.64917 0.0634508 -1.81897e-17)
(7.43413 0.0809595 1.83548e-17)
(7.15031 0.105429 1.85128e-17)
(6.76941 0.13863 -1.86855e-17)
(6.25236 0.180044 0)
(5.55575 0.21573 0)
(4.63955 0.227113 0)
(3.41176 0.226169 0)
(1.73226 0.252679 0)
(0.151897 0.158782 0)
(12.4035 0.0987063 0)
(12.1669 0.127384 -1.21798e-19)
(12.0979 0.16797 2.06811e-19)
(11.9421 0.141769 0)
(11.8231 0.146826 -7.13487e-19)
(11.7045 0.129738 2.36395e-24)
(11.6009 0.120702 9.50471e-19)
(11.5038 0.104107 0)
(11.4152 0.085378 0)
(11.3128 0.0636281 -2.48218e-18)
(11.1872 0.0497615 2.63001e-18)
(11.053 0.0420469 0)
(10.9197 0.0371802 0)
(10.7912 0.0343182 0)
(10.6681 0.0332504 0)
(10.5504 0.0336297 5.76694e-18)
(10.4382 0.0348445 -1.17497e-17)
(10.3309 0.0361255 1.19937e-17)
(10.228 0.0368026 -6.11671e-18)
(10.1289 0.0368214 0)
(10.0334 0.0362544 0)
(9.94189 0.0352734 0)
(9.85445 0.0340238 0)
(9.77107 0.0327137 0)
(9.69173 0.0314769 0)
(9.61644 0.0303743 -1.32789e-17)
(9.5451 0.0294332 1.33986e-17)
(9.47773 0.0286738 0)
(9.41425 0.0281487 0)
(9.35469 0.0279386 -1.37514e-17)
(9.29856 0.0280735 1.38781e-17)
(9.24484 0.0285489 0)
(9.19223 0.0294037 0)
(9.13921 0.0307596 0)
(9.08392 0.0328617 0)
(9.02414 0.0357532 0)
(8.95674 0.0405802 0)
(8.87851 0.0469097 -1.46817e-17)
(8.78517 0.0551366 1.47667e-17)
(8.6699 0.0665318 0)
(8.52353 0.0826189 -1.48832e-17)
(8.3346 0.104875 1.49107e-17)
(8.08676 0.135418 0)
(7.75687 0.176289 1.48935e-17)
(7.31212 0.229182 -1.48745e-17)
(6.71017 0.287454 -1.49196e-17)
(5.9045 0.338553 1.5153e-17)
(4.81452 0.383355 0)
(3.26002 0.44269 1.62829e-17)
(1.4965 0.424657 -1.61856e-17)
(12.4306 0.111341 -1.79385e-20)
(12.222 0.139067 -4.55545e-20)
(12.1845 0.180135 1.53697e-19)
(12.062 0.153463 4.27183e-19)
(11.9774 0.158301 -1.07001e-18)
(11.8897 0.140039 6.32483e-19)
(11.8155 0.130745 1.44283e-18)
(11.7455 0.113387 -7.47818e-24)
(11.6817 0.0955276 -1.76827e-18)
(11.6107 0.0752473 -1.92196e-18)
(11.5258 0.0626012 2.06904e-18)
(11.4317 0.0551871 0)
(11.3313 0.0504717 0)
(11.2276 0.0472427 4.72468e-18)
(11.1242 0.0455382 -4.85125e-18)
(11.0232 0.0452186 4.98833e-18)
(10.9261 0.0457383 -5.13733e-18)
(10.8331 0.0464629 -5.28918e-18)
(10.7439 0.0467146 5.431e-18)
(10.658 0.0464025 0)
(10.575 0.0454907 -5.65195e-18)
(10.4953 0.0441325 1.1462e-17)
(10.4187 0.0424866 -5.79582e-18)
(10.3452 0.0407555 0)
(10.2746 0.0390731 -5.90699e-18)
(10.2072 0.0375082 5.95752e-18)
(10.1429 0.0360964 0)
(10.0818 0.0348616 1.20959e-17)
(10.024 0.0338502 -1.21707e-17)
(9.96923 0.0331615 -1.224e-17)
(9.91729 0.0328944 1.23043e-17)
(9.86739 0.0331019 0)
(9.81846 0.0338598 0)
(9.76914 0.0353132 1.24383e-17)
(9.71776 0.0377413 -2.91363e-23)
(9.66238 0.0412205 -2.49992e-17)
(9.60037 0.0466991 1.27974e-23)
(9.52877 0.0545302 1.25337e-17)
(9.44401 0.0644264 -1.25386e-17)
(9.34025 0.0782736 1.25359e-17)
(9.20956 0.0976397 0)
(9.04203 0.124188 -1.25203e-17)
(8.82417 0.160275 1.24925e-17)
(8.53698 0.208325 0)
(8.15358 0.2716 0)
(7.63721 0.34777 0)
(6.94189 0.427512 1.23941e-17)
(5.99772 0.508397 -1.25522e-17)
(4.63279 0.609282 0)
(2.87051 0.637054 0)
(12.4483 0.124102 -1.54988e-20)
(12.2581 0.149011 3.63795e-20)
(12.2396 0.189172 0)
(12.1376 0.16251 3.37325e-19)
(12.0755 0.166894 -8.48148e-19)
(12.0081 0.147811 5.03924e-19)
(11.9539 0.138095 1.15654e-18)
(11.9026 0.120368 -5.89899e-24)
(11.8564 0.10292 -1.43579e-18)
(11.8054 0.0834174 -1.57156e-18)
(11.7459 0.0712246 3.4129e-18)
(11.6805 0.064275 -1.83877e-18)
(11.6094 0.0601636 0)
(11.5324 0.0571999 4.10971e-18)
(11.4526 0.0554039 -4.29233e-18)
(11.3725 0.054717 -4.47203e-18)
(11.2941 0.0547561 4.64891e-18)
(11.2183 0.0550365 -4.81476e-18)
(11.145 0.0549597 4.96254e-18)
(11.0739 0.0544008 0)
(11.0047 0.0532578 -5.17752e-18)
(10.9375 0.0516503 5.24264e-18)
(10.8723 0.0497572 0)
(10.8086 0.0477651 0)
(10.7466 0.0457914 0)
(10.6866 0.0439049 0)
(10.6286 0.0421487 0)
(10.5728 0.0405545 1.08979e-17)
(10.5194 0.0391822 -1.09297e-17)
(10.4681 0.0381443 -1.09561e-17)
(10.4187 0.0375668 1.09783e-17)
(10.3708 0.0375473 0)
(10.3234 0.0382008 0)
(10.2755 0.0396936 0)
(10.2257 0.0423265 1.10063e-17)
(10.1724 0.0462074 -1.10107e-17)
(10.1135 0.0522343 -1.10108e-17)
(10.0462 0.0612024 1.1005e-17)
(9.96767 0.0720297 0)
(9.87322 0.0878038 0)
(9.75622 0.109497 1.09749e-17)
(9.60813 0.139132 -2.19245e-17)
(9.41762 0.179374 -9.11449e-23)
(9.1689 0.233134 1.09061e-17)
(8.83985 0.304612 0)
(8.39975 0.394187 0)
(7.80718 0.494711 1.07747e-17)
(7.00177 0.602982 2.68968e-22)
(5.84157 0.74328 -1.07706e-17)
(4.21444 0.826167 -1.02924e-17)
(12.4603 0.135684 0)
(12.2833 0.157511 0)
(12.2765 0.196213 9.98862e-20)
(12.1885 0.16987 1.38596e-19)
(12.1422 0.173673 -3.4922e-19)
(12.0887 0.153856 -4.16622e-19)
(12.0488 0.143723 4.8057e-19)
(12.0111 0.125703 0)
(11.9781 0.10854 0)
(11.9413 0.0895386 -1.33059e-18)
(11.8992 0.0774598 2.91075e-18)
(11.8536 0.0706514 -3.16113e-18)
(11.805 0.0669707 1.70317e-18)
(11.7515 0.0644506 0)
(11.6944 0.0628155 3.83824e-18)
(11.6355 0.0620337 -4.03945e-18)
(11.5764 0.0618625 0)
(11.5178 0.0618989 0)
(11.4601 0.0616651 0)
(11.4031 0.0609923 0)
(11.3468 0.0597658 0)
(11.291 0.0580843 4.79857e-18)
(11.2358 0.056122 -1.95823e-23)
(11.1809 0.0540418 -4.85867e-18)
(11.1264 0.0519375 0)
(11.0727 0.0498784 0)
(11.0202 0.0479149 0)
(10.9692 0.0460851 9.88431e-18)
(10.9198 0.0444712 -9.90401e-18)
(10.8718 0.0431964 0)
(10.8252 0.0423955 9.94108e-18)
(10.7797 0.0421972 -9.9549e-18)
(10.7345 0.042747 0)
(10.6888 0.0442202 9.96784e-18)
(10.6417 0.0469364 -9.97803e-18)
(10.5916 0.0510483 0)
(10.5367 0.0573681 9.99456e-18)
(10.4746 0.0666944 -9.99448e-18)
(10.4028 0.0780738 0)
(10.3175 0.0952727 0)
(10.2132 0.118208 0)
(10.0827 0.149533 0)
(9.91629 0.191991 0)
(9.70096 0.248732 0)
(9.41845 0.32437 0)
(9.04351 0.421757 0)
(8.54116 0.53708 0)
(7.8594 0.665852 0)
(6.8905 0.839088 0)
(5.46183 0.972013 0)
(12.4687 0.146385 -1.26145e-20)
(12.3019 0.165158 -2.62578e-20)
(12.3022 0.201985 8.47945e-20)
(12.2244 0.176053 -2.34561e-19)
(12.1895 0.179154 1.20006e-24)
(12.1458 0.15867 3.53965e-19)
(12.1166 0.148124 8.20177e-19)
(12.0892 0.12981 -4.04427e-24)
(12.0664 0.112892 -1.04183e-18)
(12.0404 0.0942288 -1.15504e-18)
(12.0108 0.0820864 2.5414e-18)
(11.9796 0.075136 -1.38664e-18)
(11.9472 0.0715856 0)
(11.9119 0.0693599 3.21957e-18)
(11.8735 0.0679403 -3.42671e-18)
(11.8328 0.0672277 -3.62433e-18)
(11.7909 0.067048 3.81105e-18)
(11.7482 0.0670495 0)
(11.7049 0.0668535 0)
(11.661 0.0662542 0)
(11.6162 0.0651194 -4.33673e-18)
(11.5707 0.0635317 4.38227e-18)
(11.5246 0.0616608 0)
(11.4776 0.0596413 4.44237e-18)
(11.4304 0.0575372 -4.47236e-18)
(11.3832 0.055421 0)
(11.3366 0.05335 0)
(11.2909 0.0513692 9.09022e-18)
(11.2463 0.0495784 -9.12022e-18)
(11.2028 0.0481081 -9.14983e-18)
(11.1602 0.0471074 9.17863e-18)
(11.1184 0.0467298 0)
(11.0767 0.0471428 0)
(11.0346 0.0485233 9.23245e-18)
(10.9912 0.0512069 -2.46453e-23)
(10.9452 0.0553924 -1.85103e-17)
(10.8951 0.0617925 1.55654e-23)
(10.8385 0.0710852 9.25905e-18)
(10.7735 0.0830617 0)
(10.697 0.100593 0)
(10.6042 0.124314 9.22236e-18)
(10.489 0.156424 -9.19617e-18)
(10.3433 0.199839 -9.16104e-18)
(10.1565 0.257846 9.11875e-18)
(9.91334 0.335186 0)
(9.59321 0.436426 0)
(9.16773 0.561266 8.91674e-18)
(8.5924 0.703369 -8.84474e-18)
(7.78979 0.902621 0)
(6.57468 1.0724 -8.23204e-18)
(12.4745 0.156531 0)
(12.3159 0.172312 0)
(12.3205 0.206926 0)
(12.2504 0.181333 2.03014e-19)
(12.2241 0.183705 -5.12115e-19)
(12.1875 0.162607 3.07132e-19)
(12.1665 0.151579 7.14362e-19)
(12.1469 0.132964 -3.46162e-24)
(12.1322 0.116234 -9.16505e-19)
(12.1147 0.0978027 -1.02115e-18)
(12.0948 0.0855001 2.25411e-18)
(12.0741 0.0782511 -1.2323e-18)
(12.0534 0.0746206 0)
(12.0312 0.0725231 2.86972e-18)
(12.0069 0.0712869 -3.05978e-18)
(11.9804 0.0706978 3.24135e-18)
(11.9524 0.0706039 -3.41412e-18)
(11.923 0.0706899 -3.57656e-18)
(11.8925 0.0706486 3.72645e-18)
(11.8604 0.0702711 0)
(11.8264 0.0693933 -3.94931e-18)
(11.7906 0.0680482 4.00692e-18)
(11.7531 0.0663872 0)
(11.7142 0.0645207 0)
(11.6745 0.0624945 -4.13792e-18)
(11.6343 0.060381 4.17617e-18)
(11.5944 0.0582506 0)
(11.5549 0.0561705 8.4784e-18)
(11.516 0.0542492 -8.52132e-18)
(11.4777 0.0526185 -8.55952e-18)
(11.4401 0.0514426 8.59346e-18)
(11.4029 0.0508958 8.62067e-18)
(11.3655 0.0511627 -8.64117e-18)
(11.3276 0.0524189 0)
(11.2883 0.0550102 8.664e-18)
(11.2467 0.0591743 -8.67075e-18)
(11.2014 0.0655588 -8.67238e-18)
(11.1504 0.0747728 8.6675e-18)
(11.0918 0.0874485 0)
(11.0234 0.104219 0)
(10.941 0.128602 0)
(10.8394 0.160829 -8.60151e-18)
(10.7119 0.204368 -4.54285e-23)
(10.5497 0.262523 8.52592e-18)
(10.3403 0.339999 0)
(10.0665 0.442217 0)
(9.7059 0.572173 8.3278e-18)
(9.22096 0.721629 1.71032e-22)
(8.55707 0.93569 -8.10995e-18)
(7.54465 1.14185 0)
(12.4785 0.166256 -1.10143e-20)
(12.3267 0.179127 -2.09413e-20)
(12.3336 0.211273 6.52573e-20)
(12.2694 0.1859 1.78875e-19)
(12.2498 0.187593 -4.51047e-19)
(12.2185 0.165864 2.71016e-19)
(12.204 0.154294 6.3247e-19)
(12.1906 0.135364 -3.01203e-24)
(12.1823 0.118761 -8.1845e-19)
(12.1717 0.100497 -9.14369e-19)
(12.1593 0.0879948 2.02062e-18)
(12.1465 0.08038 -1.10497e-18)
(12.1344 0.0765494 0)
(12.1218 0.0744596 2.57316e-18)
(12.1078 0.073345 -2.74443e-18)
(12.092 0.0728751 2.9086e-18)
(12.0747 0.072887 -3.06586e-18)
(12.0559 0.073084 -3.21594e-18)
(12.0357 0.073228 3.35852e-18)
(12.0139 0.0731303 0)
(11.9899 0.0726031 -3.5994e-18)
(11.9632 0.0716086 3.67953e-18)
(11.9343 0.0702317 0)
(11.9037 0.0685672 0)
(11.8718 0.0666716 0)
(11.8391 0.0646146 0)
(11.8062 0.0624755 7.91732e-18)
(11.7732 0.0603512 -2.90581e-23)
(11.7404 0.0583544 -8.0288e-18)
(11.7077 0.0566144 -8.07014e-18)
(11.6752 0.0553052 8.1048e-18)
(11.6427 0.0546171 0)
(11.61 0.0547521 0)
(11.5765 0.055889 8.16695e-18)
(11.5416 0.0583715 -2.32288e-23)
(11.5044 0.0624592 -1.63677e-17)
(11.464 0.0687691 8.18698e-18)
(11.4184 0.0778216 0)
(11.3661 0.0909828 0)
(11.3055 0.106924 0)
(11.2329 0.131036 8.15545e-18)
(11.1437 0.163208 -1.62653e-17)
(11.0324 0.206266 -3.57458e-23)
(10.8918 0.263682 8.06155e-18)
(10.7114 0.340071 0)
(10.4771 0.441055 0)
(10.1711 0.572615 7.86743e-18)
(9.76234 0.724801 -7.78135e-18)
(9.2111 0.943062 0)
(8.37844 1.17714 -7.19265e-18)
(12.4811 0.175645 0)
(12.335 0.185623 0)
(12.3431 0.215204 0)
(12.2832 0.18996 1.59905e-19)
(12.2691 0.190924 -4.02904e-19)
(12.2419 0.168594 4.02895e-25)
(12.2326 0.156424 2.83775e-19)
(12.2241 0.137165 6.52329e-19)
(12.2211 0.120627 -7.38977e-19)
(12.216 0.102493 -8.26338e-19)
(12.2096 0.0897889 1.82618e-18)
(12.2029 0.0817805 -1.99655e-18)
(12.1972 0.0776739 1.08124e-18)
(12.1917 0.0754983 0)
(12.1854 0.0744367 2.47764e-18)
(12.1777 0.0740596 -5.25356e-18)
(12.1686 0.0741763 2.77081e-18)
(12.1581 0.0744882 0)
(12.1462 0.0748045 0)
(12.1328 0.0749543 0)
(12.1173 0.0747856 0)
(12.0993 0.0741766 0)
(12.0789 0.0731267 3.48115e-18)
(12.0564 0.0717131 -7.12354e-18)
(12.0323 0.0700037 3.63439e-18)
(12.0069 0.0680639 -7.38714e-18)
(11.9808 0.0659797 2.73928e-23)
(11.9542 0.0638747 1.50818e-17)
(11.9273 0.0618668 -7.59295e-18)
(11.9 0.0600811 -7.63852e-18)
(11.8726 0.0586887 1.53538e-17)
(11.845 0.0578922 -7.70733e-18)
(11.8169 0.0579117 -7.73313e-18)
(11.7879 0.0589324 7.75265e-18)
(11.7576 0.0612892 0)
(11.7251 0.0652529 -7.77948e-18)
(11.6897 0.0714224 7.78759e-18)
(11.6498 0.0802138 0)
(11.6036 0.0932275 0)
(11.5502 0.109088 0)
(11.4869 0.131892 0)
(11.4091 0.163861 0)
(11.3124 0.20601 0)
(11.1907 0.262021 -7.68077e-18)
(11.0355 0.336442 1.52654e-17)
(10.8349 0.434635 -7.57186e-18)
(10.5749 0.565064 0)
(10.2302 0.716823 0)
(9.77044 0.932253 7.28208e-18)
(9.08709 1.18078 -6.85041e-18)
(12.4827 0.184751 0)
(12.3416 0.191953 0)
(12.3501 0.218876 0)
(12.2931 0.193642 0)
(12.2834 0.193762 0)
(12.2596 0.170899 0)
(12.2547 0.158085 0)
(12.2501 0.138483 0)
(12.2514 0.121957 0)
(12.2508 0.103926 0)
(12.2492 0.0910278 8.31107e-19)
(12.2474 0.0826204 -9.08182e-19)
(12.2467 0.0781931 0)
(12.2465 0.0758632 -2.11201e-18)
(12.246 0.0747934 9.28293e-24)
(12.2444 0.0744734 9.95028e-24)
(12.2417 0.074679 2.5237e-18)
(12.2378 0.0751002 2.65429e-18)
(12.2325 0.0755629 -5.56549e-18)
(12.2259 0.0759219 2.90915e-18)
(12.2176 0.0760344 0)
(12.2072 0.0757774 0)
(12.1944 0.0750682 -3.23962e-18)
(12.1795 0.0739486 1.28587e-23)
(12.1627 0.0724843 3.41363e-18)
(12.1442 0.070737 0)
(12.1245 0.068787 -7.06182e-18)
(12.1039 0.0667672 7.13571e-18)
(12.0825 0.0648042 7.19683e-18)
(12.0606 0.0630216 -7.25337e-18)
(12.0382 0.0615847 0)
(12.0154 0.0607028 0)
(11.9921 0.0606144 0)
(11.9678 0.061516 7.40153e-18)
(11.9421 0.0637315 -2.21587e-23)
(11.9145 0.0675346 -2.01542e-23)
(11.8841 0.0735062 -7.45014e-18)
(11.8497 0.0820064 7.45539e-18)
(11.8097 0.0944473 -7.45529e-18)
(11.763 0.110724 0)
(11.7082 0.131966 0)
(11.6409 0.162795 0)
(11.5573 0.204019 -7.39626e-18)
(11.4523 0.258193 7.36071e-18)
(11.3191 0.330046 0)
(11.1475 0.424421 -7.26024e-18)
(10.9265 0.55165 7.18667e-18)
(10.6358 0.701018 -7.10449e-18)
(10.2513 0.910081 6.98686e-18)
(9.68876 1.16117 6.58034e-18)
(12.4834 0.193626 0)
(12.3468 0.198213 0)
(12.3551 0.222421 0)
(12.3002 0.197022 0)
(12.2939 0.196217 -1.662e-19)
(12.2731 0.172847 2.79216e-25)
(12.2718 0.159361 2.35809e-19)
(12.2705 0.139402 5.43959e-19)
(12.2752 0.122848 -6.16941e-19)
(12.2784 0.104894 -6.89701e-19)
(12.2808 0.0918124 1.52289e-18)
(12.283 0.0830147 -1.66337e-18)
(12.2863 0.0782447 -9.00176e-19)
(12.2901 0.0757144 1.93382e-18)
(12.294 0.0745859 2.06398e-18)
(12.2973 0.0742855 -4.38291e-18)
(12.2996 0.0745546 2.31699e-18)
(12.3008 0.0750681 0)
(12.3009 0.07565 0)
(12.2999 0.0761722 0)
(12.2974 0.0765175 0)
(12.2931 0.0765427 0)
(12.2869 0.0761641 0)
(12.2785 0.0753509 0)
(12.2683 0.0741684 0)
(12.2561 0.0726706 0)
(12.2424 0.0709236 0)
(12.2274 0.0690493 0)
(12.2113 0.0671736 0)
(12.1945 0.0654241 -6.9119e-18)
(12.1771 0.0639691 1.39475e-17)
(12.1592 0.0630218 -7.02229e-18)
(12.1405 0.0628341 -7.06222e-18)
(12.1209 0.0636161 1.41903e-17)
(12.0999 0.0656814 -7.12029e-18)
(12.0769 0.0693027 -7.14007e-18)
(12.0514 0.0750395 1.43081e-17)
(12.0225 0.0832662 -7.16213e-18)
(11.9884 0.0950571 -7.16559e-18)
(11.9481 0.111491 7.16282e-18)
(11.9008 0.13154 0)
(11.8433 0.160462 0)
(11.7715 0.200373 0)
(11.6814 0.252642 0)
(11.5674 0.321576 0)
(11.4212 0.411482 6.9982e-18)
(11.2334 0.533959 -6.92933e-18)
(10.9885 0.67941 -6.85062e-18)
(10.6664 0.879892 1.34833e-17)
(10.2019 1.12617 -6.35901e-18)
(12.4835 0.202312 0)
(12.3507 0.204325 0)
(12.3586 0.225901 4.55722e-20)
(12.305 0.200194 6.09334e-20)
(12.3013 0.198382 -3.06016e-19)
(12.2834 0.174495 3.69564e-19)
(12.285 0.160317 -2.17558e-19)
(12.2864 0.139993 5.01989e-19)
(12.2941 0.123372 -5.69204e-19)
(12.3003 0.105469 -6.36041e-19)
(12.3061 0.0922172 1.40377e-18)
(12.3116 0.0830456 -1.53284e-18)
(12.3181 0.0779251 8.2954e-19)
(12.3253 0.0751639 0)
(12.3327 0.073937 0)
(12.3397 0.0736202 0)
(12.346 0.0739241 0)
(12.3514 0.0745077 0)
(12.3558 0.0751848 0)
(12.3592 0.0758371 0)
(12.3614 0.0763654 0)
(12.3622 0.07664 0)
(12.3612 0.0765377 2.80834e-18)
(12.3583 0.0760322 -5.80726e-18)
(12.3536 0.0751372 2.99369e-18)
(12.3471 0.073913 0)
(12.3388 0.0724092 -6.29152e-18)
(12.3291 0.070722 1.28191e-17)
(12.3181 0.0689682 -6.51278e-18)
(12.3063 0.0672791 -6.60357e-18)
(12.2937 0.0658307 1.33548e-17)
(12.2803 0.0648395 -6.73403e-18)
(12.2662 0.0645673 0)
(12.251 0.0652373 0)
(12.2345 0.0671518 6.84748e-18)
(12.2161 0.0705826 -6.87209e-18)
(12.1953 0.0760573 0)
(12.1714 0.0839863 0)
(12.1431 0.0951282 0)
(12.1089 0.111204 0)
(12.0685 0.130847 0)
(12.0198 0.15758 6.90103e-18)
(11.9589 0.195312 -6.88389e-18)
(11.8821 0.24559 -6.85701e-18)
(11.7851 0.311526 1.36396e-17)
(11.6609 0.396617 -6.77259e-18)
(11.5017 0.513244 0)
(11.2955 0.653499 0)
(11.0257 0.843987 0)
(10.6414 1.08139 0)
(12.483 0.210837 0)
(12.3535 0.210364 0)
(12.3609 0.229358 0)
(12.3081 0.203249 0)
(12.3064 0.200312 0)
(12.2911 0.175855 0)
(12.2953 0.161007 0)
(12.2989 0.140313 0)
(12.309 0.123586 0)
(12.3179 0.10571 0)
(12.3265 0.0922987 6.50692e-19)
(12.3348 0.0827731 -7.10458e-19)
(12.3441 0.0773028 0)
(12.354 0.0742908 0)
(12.3642 0.0729339 0)
(12.3742 0.0725692 -1.88224e-18)
(12.3837 0.0728803 1.99526e-18)
(12.3925 0.0735119 2.10678e-18)
(12.4004 0.0742671 -9.04081e-24)
(12.4074 0.0750323 -2.32345e-18)
(12.4134 0.0757079 0)
(12.4181 0.0761832 0)
(12.4213 0.0763429 -2.62512e-18)
(12.4229 0.0761025 2.71829e-18)
(12.4228 0.0754839 2.80802e-18)
(12.421 0.0745281 -8.68059e-18)
(12.4176 0.0732753 2.12034e-23)
(12.4127 0.0717942 6.07869e-18)
(12.4066 0.0701886 0)
(12.3994 0.06859 0)
(12.3913 0.0671788 0)
(12.3823 0.0661722 0)
(12.3724 0.0658362 0)
(12.3614 0.0664062 6.56153e-18)
(12.3491 0.0681665 -6.5996e-18)
(12.335 0.0713975 6.63109e-18)
(12.3188 0.0765869 -6.65603e-18)
(12.2998 0.0841789 6.67416e-18)
(12.2768 0.0947087 -6.68698e-18)
(12.2485 0.109989 0)
(12.2145 0.129626 0)
(12.1736 0.154403 0)
(12.1226 0.189486 -6.67357e-18)
(12.0578 0.23714 6.65116e-18)
(11.9756 0.30009 -6.61834e-18)
(11.8706 0.380438 -3.53408e-23)
(11.7361 0.490571 6.51851e-18)
(11.5629 0.624629 -6.44929e-18)
(11.3372 0.804408 6.35666e-18)
(11.0192 1.03054 0)
(12.4821 0.219234 0)
(12.3554 0.216397 0)
(12.3623 0.232843 0)
(12.3098 0.206239 1.05809e-19)
(12.3098 0.202021 -2.64954e-19)
(12.2968 0.176974 1.5553e-25)
(12.3031 0.16148 1.88552e-19)
(12.3086 0.140406 4.34771e-19)
(12.3208 0.123535 -4.92524e-19)
(12.3319 0.105661 -5.49869e-19)
(12.3431 0.0921001 6.06464e-19)
(12.3538 0.0822415 -6.62227e-19)
(12.3654 0.0764278 -7.17251e-19)
(12.3775 0.0731526 1.54366e-18)
(12.39 0.0716412 0)
(12.4025 0.0712021 0)
(12.4146 0.0714966 0)
(12.4261 0.0721573 0)
(12.4369 0.0729756 0)
(12.4469 0.0738369 0)
(12.4559 0.0746464 -2.27465e-18)
(12.4638 0.0752965 4.74086e-18)
(12.4704 0.0756652 -2.4637e-18)
(12.4756 0.0756739 0)
(12.4793 0.0753054 0)
(12.4815 0.0745964 0)
(12.4822 0.073579 0)
(12.4816 0.0723044 5.762e-18)
(12.4797 0.0708639 -5.89674e-18)
(12.4767 0.0693826 -6.01759e-18)
(12.4727 0.0680384 6.11827e-18)
(12.4678 0.0670445 0)
(12.4618 0.0666652 -6.26573e-18)
(12.4548 0.0671275 1.26508e-17)
(12.4465 0.0687407 -6.37354e-18)
(12.4366 0.0717668 -6.41208e-18)
(12.4247 0.0766575 1.28854e-17)
(12.4102 0.0838835 -6.46596e-18)
(12.3923 0.0938725 0)
(12.3696 0.108131 0)
(12.3414 0.127497 0)
(12.3074 0.15115 0)
(12.2652 0.183386 0)
(12.2112 0.227826 -6.46866e-18)
(12.1423 0.287372 1.28818e-17)
(12.0541 0.363318 -6.4037e-18)
(11.941 0.466751 0)
(11.7959 0.593938 -6.28778e-18)
(11.6075 0.762746 6.20256e-18)
(11.3445 0.976225 0)
(12.4807 0.227533 0)
(12.3566 0.222405 0)
(12.3628 0.236375 0)
(12.3106 0.209178 0)
(12.312 0.203564 0)
(12.3009 0.177879 0)
(12.309 0.161767 0)
(12.3162 0.140303 0)
(12.3301 0.123256 0)
(12.3432 0.105358 0)
(12.3566 0.0916548 5.68057e-19)
(12.3694 0.0814843 -6.2046e-19)
(12.3829 0.0753369 0)
(12.397 0.071792 -1.4486e-18)
(12.4115 0.0701078 1.552e-18)
(12.426 0.0695737 -1.6545e-18)
(12.4402 0.0698326 1.75558e-18)
(12.454 0.070506 0)
(12.4671 0.0713738 1.95201e-18)
(12.4794 0.0723164 -2.04721e-18)
(12.4909 0.0732374 0)
(12.5014 0.0740352 0)
(12.5108 0.0745957 -2.32209e-18)
(12.519 0.0748247 9.02979e-24)
(12.5258 0.0746854 4.9913e-18)
(12.5312 0.0742017 -2.57864e-18)
(12.5354 0.0734012 -5.31529e-18)
(12.5383 0.0723252 1.90103e-23)
(12.5401 0.0710522 5.60378e-18)
(12.5408 0.0696991 0)
(12.5405 0.068438 0)
(12.5393 0.0674746 0)
(12.537 0.0670632 0)
(12.5337 0.0674409 0)
(12.5292 0.068892 0)
(12.5231 0.0717122 6.20654e-18)
(12.5152 0.076303 -6.24326e-18)
(12.5049 0.0831476 0)
(12.4916 0.0926434 0)
(12.4741 0.105885 0)
(12.4515 0.124514 0)
(12.4236 0.147608 0)
(12.3892 0.177267 -6.31682e-18)
(12.3449 0.218216 6.30477e-18)
(12.2878 0.273916 -6.28202e-18)
(12.2144 0.345267 -2.10141e-23)
(12.1198 0.441835 -2.96694e-23)
(11.9988 0.562094 -3.97392e-23)
(11.8421 0.720053 6.06708e-18)
(11.6248 0.920296 0)
(12.479 0.235753 0)
(12.3571 0.228413 0)
(12.3627 0.23997 0)
(12.3107 0.212111 0)
(12.3132 0.204969 -1.17393e-19)
(12.3036 0.178626 9.41941e-26)
(12.3133 0.161855 1.66661e-19)
(12.3219 0.140021 3.83819e-19)
(12.3375 0.122779 -4.34376e-19)
(12.3523 0.104832 -4.84675e-19)
(12.3676 0.0909894 1.06912e-18)
(12.3823 0.080527 -1.16823e-18)
(12.3976 0.0740579 6.33549e-19)
(12.4133 0.0702414 0)
(12.4294 0.068372 0)
(12.4456 0.0677275 -1.56139e-18)
(12.4616 0.0679359 1.65706e-18)
(12.4772 0.0686075 0)
(12.4922 0.0695123 0)
(12.5065 0.0705234 0)
(12.5201 0.0715403 0)
(12.5327 0.0724674 2.11093e-18)
(12.5444 0.0731941 -8.34703e-24)
(12.555 0.0736206 -2.28195e-18)
(12.5643 0.0736929 0)
(12.5725 0.0734196 0)
(12.5794 0.0728219 -5.04293e-18)
(12.5853 0.0719328 1.03808e-17)
(12.5901 0.07082 -5.33127e-18)
(12.5939 0.0695925 -5.46517e-18)
(12.5969 0.068416 1.11767e-17)
(12.599 0.067488 -5.69967e-18)
(12.6001 0.0670474 0)
(12.6002 0.0673423 5.88354e-18)
(12.5992 0.0686599 -5.953e-18)
(12.5967 0.0712702 -6.00833e-18)
(12.5924 0.0755629 6.0542e-18)
(12.5859 0.0820101 0)
(12.5769 0.0910052 0)
(12.5643 0.103328 0)
(12.5469 0.120802 0)
(12.5245 0.143362 0)
(12.4968 0.171299 0)
(12.4612 0.208704 0)
(12.4146 0.260304 6.13761e-18)
(12.3541 0.326638 -6.11056e-18)
(12.2758 0.416334 -6.07062e-18)
(12.1755 0.529323 -3.12508e-23)
(12.0457 0.676504 1.18944e-17)
(11.8667 0.863447 -5.6485e-18)
(12.477 0.243911 0)
(12.3571 0.234434 0)
(12.362 0.243635 3.45811e-20)
(12.3103 0.215029 4.46889e-20)
(12.3137 0.206288 -2.22573e-19)
(12.3051 0.179315 1.34193e-19)
(12.3163 0.161817 0)
(12.3262 0.13957 3.62883e-19)
(12.3432 0.122115 -4.10508e-19)
(12.3595 0.104105 -4.57978e-19)
(12.3765 0.0901264 1.01041e-18)
(12.3929 0.0793895 -1.10471e-18)
(12.4098 0.0726122 -5.99557e-19)
(12.4269 0.0685261 1.29338e-18)
(12.4445 0.0664641 1.38683e-18)
(12.4621 0.065698 -1.47906e-18)
(12.4796 0.0658437 0)
(12.4967 0.066501 0)
(12.5132 0.0674316 0)
(12.5292 0.0684994 0)
(12.5444 0.069599 0)
(12.5589 0.0706383 0)
(12.5724 0.0715115 0)
(12.585 0.0721163 -2.16777e-18)
(12.5965 0.0723851 2.24681e-18)
(12.6068 0.0723103 0)
(12.6161 0.0719038 0)
(12.6243 0.0711909 4.94248e-18)
(12.6317 0.0702295 -5.08257e-18)
(12.6382 0.0691201 -5.21708e-18)
(12.6439 0.0680211 1.06875e-17)
(12.6489 0.0671247 -5.46121e-18)
(12.653 0.0666598 -5.56855e-18)
(12.6561 0.0668759 5.66486e-18)
(12.6582 0.0680573 0)
(12.6589 0.0704696 0)
(12.658 0.0744682 5.87323e-18)
(12.6552 0.0805095 -5.92037e-18)
(12.65 0.0889947 0)
(12.6417 0.100529 0)
(12.6292 0.116669 0)
(12.612 0.13846 0)
(12.59 0.16529 -6.01937e-18)
(12.5619 0.199502 1.79558e-24)
(12.5247 0.246843 6.00563e-18)
(12.4757 0.308208 0)
(12.4115 0.391086 0)
(12.329 0.496216 0)
(12.2223 0.632803 0)
(12.0755 0.806609 0)
(12.4747 0.252021 0)
(12.3566 0.240459 0)
(12.3607 0.247371 0)
(12.3094 0.217931 0)
(12.3136 0.207553 0)
(12.3058 0.179824 0)
(12.3182 0.161663 0)
(12.3293 0.13905 -3.44379e-19)
(12.3476 0.121268 3.89434e-19)
(12.3653 0.103186 0)
(12.3839 0.0890839 4.79389e-19)
(12.4017 0.0780885 -5.24465e-19)
(12.42 0.0710164 0)
(12.4385 0.0666662 0)
(12.4573 0.0644079 -1.31813e-18)
(12.4761 0.0635123 5.56879e-24)
(12.4948 0.0635857 1.49245e-18)
(12.5131 0.0642178 1.57771e-18)
(12.531 0.065164 -3.32385e-18)
(12.5483 0.0662772 1.74532e-18)
(12.565 0.0674475 0)
(12.5809 0.0685849 0)
(12.596 0.0695887 -1.98801e-18)
(12.6102 0.070356 2.06563e-18)
(12.6234 0.0708083 0)
(12.6356 0.0709214 -4.432e-18)
(12.6468 0.0706967 1.58136e-23)
(12.657 0.0701513 4.7193e-18)
(12.6665 0.0693336 4.85678e-18)
(12.6752 0.0683355 -4.98944e-18)
(12.6832 0.0673073 0)
(12.6906 0.0664373 -5.23535e-18)
(12.6973 0.065949 5.34743e-18)
(12.7031 0.0660881 5.45098e-18)
(12.7079 0.0671278 -1.81347e-23)
(12.7115 0.0693397 -5.62493e-18)
(12.7137 0.0730468 0)
(12.7141 0.0786832 5.75276e-18)
(12.7124 0.0866599 -1.15947e-17)
(12.708 0.0974931 5.83299e-18)
(12.7001 0.112336 0)
(12.6877 0.132863 0)
(12.6708 0.158753 -5.88691e-18)
(12.649 0.190731 5.88935e-18)
(12.62 0.233859 0)
(12.5811 0.29023 -5.86759e-18)
(12.5293 0.366501 -1.16089e-23)
(12.4622 0.463838 -1.7821e-23)
(12.3752 0.590113 5.74199e-18)
(12.2557 0.751071 5.46647e-18)
(12.4722 0.2601 0)
(12.3556 0.246505 0)
(12.3588 0.251184 0)
(12.308 0.220817 8.1703e-20)
(12.313 0.208786 -2.02329e-19)
(12.3059 0.180241 1.38299e-26)
(12.3194 0.161379 -1.42683e-19)
(12.3316 0.13835 1.16601e-24)
(12.3509 0.120308 3.7076e-19)
(12.3699 0.102092 -4.13627e-19)
(12.3898 0.0878682 9.13206e-19)
(12.4091 0.0766379 -9.99639e-19)
(12.4286 0.0692848 5.4303e-19)
(12.4483 0.0646775 0)
(12.4681 0.0622223 1.25691e-18)
(12.488 0.0611918 -1.34076e-18)
(12.5077 0.0611857 0)
(12.5271 0.061783 0)
(12.5461 0.0627355 0)
(12.5646 0.0638839 0)
(12.5824 0.0651145 0)
(12.5996 0.0663384 0)
(12.616 0.0674596 1.89955e-18)
(12.6316 0.0683755 -1.97417e-18)
(12.6462 0.0689993 0)
(12.6599 0.0692912 0)
(12.6726 0.0692408 -4.38034e-18)
(12.6845 0.0688565 9.03601e-18)
(12.6957 0.0681778 -4.65181e-18)
(12.7062 0.0672869 -4.78144e-18)
(12.7162 0.0663254 9.81258e-18)
(12.7256 0.0654765 -5.02576e-18)
(12.7344 0.064959 0)
(12.7425 0.0650138 5.24714e-18)
(12.7497 0.0659109 -5.34652e-18)
(12.7559 0.0679169 0)
(12.7608 0.0713337 0)
(12.7641 0.0765703 0)
(12.7656 0.084038 0)
(12.7647 0.094194 0)
(12.7608 0.10788 0)
(12.7529 0.126823 0)
(12.7407 0.151711 0)
(12.7243 0.182144 0)
(12.7022 0.221488 0)
(12.6722 0.272919 0)
(12.6313 0.342742 -5.73724e-18)
(12.5775 0.432486 1.14064e-17)
(12.5074 0.54881 -5.6528e-18)
(12.4111 0.697408 0)
(12.4693 0.268162 0)
(12.3542 0.252595 0)
(12.3565 0.255074 3.09439e-20)
(12.3062 0.223701 3.9282e-20)
(12.3119 0.210001 -1.93897e-19)
(12.3053 0.180636 -8.75354e-27)
(12.3199 0.161018 1.3641e-19)
(12.3331 0.137546 0)
(12.3535 0.119191 0)
(12.3735 0.100873 -3.95155e-19)
(12.3947 0.0864826 8.72829e-19)
(12.4152 0.0750429 -9.55801e-19)