/*--------------------------------*- C++ -*----------------------------------*\
  =========                 |
  \\      /  F ield         | OpenFOAM: The Open Source CFD Toolbox
   \\    /   O peration     | Website:  https://openfoam.org
    \\  /    A nd           | Version:  8
     \\/     M anipulation  |
\*---------------------------------------------------------------------------*/
FoamFile
{
    version     2.0;
    format      ascii;
    class       volScalarField;
    location    "0.28";
    object      p;
}
// * * * * * * * * * * * * * * * * * * * * * * * * * * * * * * * * * * * * * //

dimensions      [0 2 -2 0 0 0 0];

internalField   nonuniform List<scalar> 
112642
(
4.7954
4.7712
4.74627
4.72054
4.69387
4.66633
4.638
4.60899
4.57937
4.54922
4.51857
4.48748
4.45599
4.4241
4.39186
4.35926
4.32633
4.29309
4.25955
4.22572
4.1916
4.15722
4.12258
4.0877
4.05256
4.01722
3.98164
3.94585
3.90986
3.87368
3.83732
3.80079
3.76408
3.72722
3.6902
3.65303
3.61574
3.5783
3.54075
3.50308
3.4653
3.42741
3.38941
3.35131
3.31311
3.27482
3.23644
3.19798
3.15942
3.12079
3.08207
3.04328
3.00441
2.96547
2.92647
2.88739
2.84824
2.80903
2.76975
2.73041
2.69102
2.65156
2.61204
2.57246
2.53283
2.49314
2.45339
2.41359
2.37374
2.33382
2.29386
2.25383
2.21374
2.1736
2.1334
2.09315
2.05283
2.01246
1.97203
1.93155
1.891
1.85039
1.80973
1.76901
1.72821
1.68735
1.64645
1.60547
1.56442
1.52331
1.48213
1.4409
1.39959
1.35821
1.31675
1.27524
1.23365
1.19197
1.15023
1.10841
1.06652
1.02454
0.98249
0.940352
0.898136
0.855843
0.813455
0.770982
0.728422
0.685783
0.643041
0.600209
0.557286
0.514264
0.471161
0.427939
0.384625
0.341221
0.297709
0.254094
0.210369
0.166549
0.122621
0.0785937
0.034446
-0.00979937
-0.054156
-0.0986246
-0.143201
-0.187892
-0.23269
-0.277609
-0.322641
-0.367791
-0.413069
-0.458464
-0.503982
-0.549627
-0.595399
-0.6413
-0.687317
-0.733475
-0.779765
-0.826179
-0.872735
-0.91942
-0.966239
-1.01319
-1.06028
-1.10751
-1.15487
-1.20236
-1.24999
-1.29775
-1.34563
-1.39365
-1.4418
-1.49009
-1.5385
-1.58703
-1.63567
-1.68444
-1.73333
-1.78235
-1.83146
-1.88068
-1.93001
-1.97942
-2.02893
-2.07853
-2.12821
-2.17798
-2.22782
-2.27774
-2.32773
-2.37775
-2.42786
-2.47801
-2.52821
-2.57845
-2.62874
-2.67906
-2.72941
-2.77979
-2.8302
-2.88062
-2.93103
-2.98144
-3.03184
-3.08221
-3.13253
-3.18275
-3.23285
-3.28275
-3.33237
-3.38157
-3.43028
-3.47841
-3.52619
-3.5738
4.80947
4.78548
4.76076
4.73544
4.70927
4.68226
4.65441
4.62586
4.59666
4.56687
4.53656
4.50578
4.47457
4.44293
4.41092
4.37855
4.34581
4.31275
4.27937
4.24568
4.2117
4.17743
4.1429
4.1081
4.07304
4.03775
4.00222
3.96646
3.93049
3.89432
3.85795
3.82139
3.78465
3.74775
3.71067
3.67344
3.63606
3.59854
3.56089
3.5231
3.48519
3.44717
3.40903
3.37077
3.3324
3.29394
3.25538
3.21672
3.17797
3.13912
3.10019
3.06117
3.02207
2.98289
2.94363
2.90429
2.86488
2.8254
2.78584
2.74622
2.70653
2.66677
2.62695
2.58706
2.54711
2.50709
2.46701
2.42688
2.38668
2.34641
2.30609
2.2657
2.22525
2.18474
2.14417
2.10354
2.06284
2.02209
1.98127
1.94039
1.89944
1.85843
1.81736
1.77623
1.73502
1.69375
1.65242
1.61102
1.56955
1.52801
1.4864
1.44473
1.40298
1.36116
1.31927
1.2773
1.23526
1.19315
1.15095
1.10869
1.06633
1.02391
0.981389
0.938798
0.896122
0.853362
0.810515
0.767576
0.724555
0.681443
0.63824
0.594943
0.551552
0.508065
0.464488
0.420804
0.377026
0.333149
0.289172
0.24509
0.200906
0.156617
0.112229
0.0677348
0.023133
-0.0215781
-0.0663915
-0.111316
-0.156348
-0.201494
-0.246745
-0.292118
-0.337601
-0.383199
-0.428912
-0.474756
-0.520712
-0.56679
-0.612996
-0.659319
-0.705772
-0.752348
-0.799056
-0.845887
-0.892847
-0.939935
-0.98716
-1.03451
-1.08198
-1.12959
-1.17733
-1.22519
-1.27319
-1.3213
-1.36954
-1.4179
-1.4664
-1.51501
-1.56374
-1.61257
-1.66153
-1.7106
-1.75978
-1.80907
-1.85845
-1.90794
-1.95751
-2.00716
-2.0569
-2.10672
-2.15662
-2.20657
-2.2566
-2.3067
-2.35684
-2.40703
-2.45726
-2.50754
-2.55784
-2.60819
-2.65854
-2.70894
-2.75935
-2.80976
-2.86018
-2.91059
-2.96098
-3.01138
-3.0617
-3.11198
-3.16218
-3.21226
-3.26216
-3.31179
-3.36114
-3.41
-3.45837
-3.5063
-3.55415
-3.60178
4.82386
4.80004
4.77541
4.75055
4.72484
4.69834
4.67103
4.64295
4.61417
4.58478
4.55481
4.52435
4.49342
4.46205
4.43028
4.39812
4.36559
4.33272
4.2995
4.26597
4.23212
4.19798
4.16354
4.12884
4.09386
4.05864
4.02316
3.98743
3.95149
3.91533
3.87896
3.84239
3.80563
3.76868
3.73155
3.69426
3.65681
3.6192
3.58145
3.54355
3.50552
3.46736
3.42908
3.39067
3.35215
3.3135
3.27476
3.23591
3.19696
3.1579
3.11875
3.0795
3.04017
3.00074
2.96123
2.92164
2.88196
2.8422
2.80237
2.76245
2.72247
2.6824
2.64227
2.60206
2.56178
2.52144
2.48102
2.44054
2.39999
2.35937
2.31868
2.27794
2.23712
2.19623
2.15528
2.11426
2.07317
2.03202
1.99081
1.94952
1.90817
1.86674
1.82526
1.7837
1.74207
1.70037
1.65861
1.61678
1.57487
1.53289
1.49084
1.44872
1.40652
1.36425
1.3219
1.27948
1.23698
1.1944
1.15174
1.10901
1.06619
1.0233
0.980312
0.937248
0.894096
0.850862
0.807539
0.764129
0.720624
0.677039
0.633348
0.589579
0.545703
0.501739
0.457683
0.413514
0.369259
0.324899
0.280449
0.235884
0.191222
0.146458
0.101594
0.056624
0.011547
-0.0336297
-0.078917
-0.124314
-0.169817
-0.215419
-0.26114
-0.306975
-0.352915
-0.398975
-0.445148
-0.491436
-0.537845
-0.584371
-0.631014
-0.677782
-0.724664
-0.771674
-0.818802
-0.866059
-0.913438
-0.960935
-1.00856
-1.05631
-1.10418
-1.15218
-1.2003
-1.24854
-1.2969
-1.34538
-1.39397
-1.44269
-1.49152
-1.54047
-1.58951
-1.63867
-1.68793
-1.7373
-1.78677
-1.83633
-1.88598
-1.93572
-1.98554
-2.03543
-2.0854
-2.13543
-2.18553
-2.23568
-2.28589
-2.33616
-2.38646
-2.43677
-2.48715
-2.53754
-2.58796
-2.63839
-2.68884
-2.73928
-2.78974
-2.84018
-2.89062
-2.94103
-2.9914
-3.04174
-3.09202
-3.1422
-3.19229
-3.24218
-3.29187
-3.34125
-3.39022
-3.43875
-3.48689
-3.53456
-3.5827
-3.63055
4.83836
4.81461
4.79019
4.76569
4.74042
4.71447
4.68765
4.66006
4.63173
4.60275
4.57316
4.54302
4.51239
4.4813
4.44977
4.41785
4.38554
4.35285
4.31981
4.28644
4.25274
4.21872
4.18441
4.1498
4.11492
4.07977
4.04435
4.00868
3.97277
3.93663
3.90026
3.86369
3.82691
3.78993
3.75276
3.71542
3.6779
3.64021
3.60237
3.56436
3.52622
3.48793
3.44951
3.41096
3.37227
3.33346
3.29453
3.2555
3.21635
3.17708
3.13771
3.09824
3.05866
3.019
2.97924
2.93938
2.89943
2.8594
2.81928
2.77908
2.73879
2.69842
2.65797
2.61744
2.57683
2.53615
2.49539
2.45456
2.41366
2.37268
2.33163
2.29051
2.24931
2.20804
2.1667
2.12529
2.0838
2.04224
2.00062
1.95892
1.91715
1.8753
1.8334
1.7914
1.74935
1.70721
1.66501
1.62272
1.58037
1.53794
1.49543
1.45285
1.4102
1.36746
1.32465
1.28176
1.23879
1.19574
1.1526
1.10939
1.06609
1.02271
0.979246
0.935697
0.892059
0.848337
0.804523
0.760623
0.71663
0.672552
0.628374
0.584103
0.539742
0.495283
0.450731
0.406076
0.361327
0.316471
0.271528
0.226474
0.181326
0.136066
0.0907175
0.0452573
-0.000308428
-0.0459651
-0.0917383
-0.137618
-0.183595
-0.229682
-0.275878
-0.322178
-0.368595
-0.415116
-0.46176
-0.508506
-0.555378
-0.602355
-0.649448
-0.696663
-0.74399
-0.791434
-0.839001
-0.886678
-0.934484
-0.982408
-1.03043
-1.07859
-1.12687
-1.17526
-1.22376
-1.27238
-1.32112
-1.36995
-1.41891
-1.46797
-1.51715
-1.56642
-1.61579
-1.66526
-1.71483
-1.7645
-1.81425
-1.86408
-1.914
-1.96398
-2.01403
-2.06417
-2.11435
-2.16458
-2.21488
-2.26522
-2.3156
-2.36602
-2.41647
-2.46693
-2.51742
-2.56791
-2.61843
-2.66896
-2.71946
-2.76997
-2.82046
-2.87094
-2.92137
-2.97177
-3.02213
-3.07241
-3.12261
-3.1727
-3.22262
-3.27233
-3.32178
-3.37086
-3.41954
-3.4677
-3.51562
-3.56321
-3.61151
-3.65989
4.85248
4.82904
4.80487
4.78062
4.75577
4.73028
4.70398
4.6769
4.64904
4.62049
4.59129
4.56151
4.5312
4.5004
4.46915
4.43747
4.40539
4.37291
4.34007
4.30687
4.27333
4.23947
4.20529
4.1708
4.13602
4.10095
4.06561
4.03
3.99415
3.95804
3.9217
3.88513
3.84834
3.81135
3.77415
3.73676
3.69919
3.66143
3.6235
3.5854
3.54715
3.50874
3.47019
3.4315
3.39266
3.35369
3.31459
3.27536
3.23601
3.19655
3.15696
3.11727
3.07747
3.03755
2.99754
2.95743
2.91721
2.8769
2.8365
2.796
2.75541
2.71474
2.67397
2.63312
2.59218
2.55117
2.51006
2.46888
2.42762
2.38628
2.34485
2.30335
2.26177
2.22011
2.17838
2.13657
2.09468
2.05271
2.01067
1.96855
1.92636
1.88408
1.84174
1.79931
1.75681
1.71423
1.67158
1.62884
1.58603
1.54314
1.50017
1.45712
1.41399
1.37078
1.3275
1.28412
1.24067
1.19714
1.15352
1.10982
1.06603
1.02216
0.978199
0.934151
0.890019
0.845796
0.801487
0.757082
0.71259
0.668007
0.623328
0.578555
0.533691
0.488728
0.443672
0.398511
0.353262
0.307909
0.26246
0.216901
0.171252
0.125502
0.0796475
0.033689
-0.0123642
-0.0585251
-0.104785
-0.151154
-0.197619
-0.244195
-0.290876
-0.337658
-0.384547
-0.431551
-0.478663
-0.525878
-0.573207
-0.620651
-0.668205
-0.715866
-0.763638
-0.81153
-0.859532
-0.907646
-0.955877
-1.00422
-1.05267
-1.10123
-1.14991
-1.19869
-1.24759
-1.29658
-1.34569
-1.3949
-1.44421
-1.49362
-1.54313
-1.59273
-1.64243
-1.69221
-1.74207
-1.79202
-1.84205
-1.89216
-1.94232
-1.99255
-2.04284
-2.09318
-2.14358
-2.19401
-2.24449
-2.295
-2.34554
-2.3961
-2.44668
-2.49728
-2.54787
-2.59846
-2.64905
-2.69963
-2.7502
-2.80075
-2.85127
-2.90175
-2.95218
-3.00255
-3.05285
-3.10307
-3.15317
-3.20312
-3.25287
-3.30237
-3.35156
-3.40032
-3.44866
-3.49658
-3.54433
-3.59203
-3.64052
-3.68903
4.86627
4.84325
4.81936
4.79535
4.77086
4.74581
4.72
4.69342
4.66605
4.63797
4.60918
4.57979
4.54982
4.51935
4.48838
4.45697
4.42513
4.39288
4.36025
4.32726
4.2939
4.26019
4.22616
4.19181
4.15715
4.12219
4.08694
4.05141
4.01562
3.97956
3.94326
3.90671
3.86993
3.83293
3.79571
3.75829
3.72066
3.68284
3.64484
3.60666
3.56831
3.52979
3.49111
3.45228
3.4133
3.37417
3.33491
3.2955
3.25596
3.2163
3.17651
3.1366
3.09656
3.05641
3.01615
2.97578
2.93529
2.8947
2.85402
2.81323
2.77234
2.73135
2.69027
2.6491
2.60783
2.56647
2.52502
2.48349
2.44186
2.40015
2.35836
2.31647
2.2745
2.23246
2.19032
2.14811
2.1058
2.06343
2.02096
1.97842
1.93579
1.89308
1.8503
1.80743
1.76447
1.72144
1.67833
1.63513
1.59185
1.54849
1.50505
1.46152
1.41792
1.37422
1.33045
1.28659
1.24264
1.19862
1.1545
1.1103
1.06601
1.02164
0.977171
0.932622
0.887982
0.843248
0.79843
0.753512
0.708511
0.66341
0.618221
0.572932
0.527555
0.482075
0.436509
0.390834
0.345066
0.299203
0.25324
0.207177
0.161013
0.114754
0.0683882
0.0219315
-0.0246359
-0.0712912
-0.118062
-0.16492
-0.211883
-0.258957
-0.30613
-0.353399
-0.400778
-0.44826
-0.495849
-0.543543
-0.591344
-0.639249
-0.687266
-0.73539
-0.783616
-0.831959
-0.880396
-0.928953
-0.977615
-1.02638
-1.07525
-1.12423
-1.17331
-1.22249
-1.27177
-1.32115
-1.37062
-1.4202
-1.46986
-1.51963
-1.56947
-1.61939
-1.66941
-1.7195
-1.76966
-1.81989
-1.87019
-1.92056
-1.97097
-2.02144
-2.07195
-2.1225
-2.17309
-2.22372
-2.27437
-2.32504
-2.37571
-2.42641
-2.47711
-2.52781
-2.57849
-2.62916
-2.67982
-2.73046
-2.78107
-2.83162
-2.88214
-2.93262
-2.98302
-3.03334
-3.08359
-3.13369
-3.18368
-3.23346
-3.28303
-3.33226
-3.38116
-3.42961
-3.47767
-3.52537
-3.57306
-3.62092
-3.66962
-3.71818
4.87968
4.85716
4.83373
4.80996
4.78578
4.76113
4.73578
4.7097
4.68283
4.65521
4.62688
4.59789
4.5683
4.53816
4.50752
4.47639
4.44482
4.41284
4.38043
4.34765
4.31448
4.28096
4.24709
4.2129
4.17837
4.14353
4.10838
4.07295
4.03723
4.00124
3.96497
3.92847
3.8917
3.8547
3.81748
3.78003
3.74237
3.7045
3.66643
3.62818
3.58973
3.55111
3.51231
3.47336
3.43424
3.39496
3.35552
3.31595
3.27623
3.23637
3.19637
3.15624
3.11598
3.07559
3.03508
2.99446
2.95371
2.91285
2.87188
2.8308
2.7896
2.74831
2.70691
2.66541
2.6238
2.58211
2.54031
2.49841
2.45643
2.41434
2.37217
2.3299
2.28754
2.2451
2.20256
2.15993
2.11721
2.07441
2.03152
1.98854
1.94547
1.90232
1.85908
1.81576
1.77235
1.72885
1.68527
1.6416
1.59785
1.554
1.51008
1.46607
1.42197
1.37779
1.33351
1.28916
1.2447
1.20017
1.15555
1.11084
1.06604
1.02115
0.976168
0.931103
0.885935
0.840693
0.795341
0.749909
0.70438
0.658754
0.61304
0.567227
0.521324
0.475318
0.429222
0.383026
0.336735
0.290346
0.243854
0.197268
0.150589
0.103805
0.0569235
0.0099493
-0.0371323
-0.0843061
-0.131582
-0.178949
-0.226425
-0.273993
-0.321667
-0.369436
-0.417309
-0.465285
-0.513357
-0.561531
-0.609819
-0.658193
-0.706682
-0.755263
-0.803959
-0.85275
-0.901645
-0.950634
-0.999735
-1.04892
-1.09822
-1.14761
-1.1971
-1.24668
-1.29635
-1.34612
-1.39597
-1.4459
-1.49593
-1.54603
-1.59621
-1.64646
-1.69679
-1.74718
-1.79764
-1.84815
-1.89871
-1.94933
-1.99999
-2.05069
-2.10142
-2.15218
-2.20296
-2.25375
-2.30457
-2.35539
-2.40621
-2.45702
-2.50782
-2.55861
-2.60939
-2.66011
-2.71082
-2.76149
-2.81212
-2.86268
-2.9132
-2.96362
-3.01398
-3.06424
-3.11437
-3.16438
-3.21419
-3.26379
-3.31311
-3.36209
-3.41067
-3.45883
-3.50662
-3.55419
-3.60194
-3.65002
-3.69866
-3.74724
4.89258
4.87081
4.8479
4.82446
4.80059
4.77628
4.75136
4.72576
4.69939
4.67226
4.6444
4.61585
4.58667
4.55689
4.52658
4.49578
4.4645
4.43277
4.40062
4.36806
4.33512
4.30178
4.2681
4.23406
4.19969
4.16498
4.12996
4.09462
4.05899
4.02307
3.98688
3.9504
3.91368
3.87669
3.83946
3.802
3.76431
3.7264
3.68828
3.64995
3.61143
3.57272
3.53382
3.49473
3.45548
3.41606
3.37647
3.33672
3.29683
3.25677
3.21657
3.17622
3.13575
3.09513
3.05437
3.01349
2.97249
2.93135
2.89009
2.84872
2.80723
2.76562
2.7239
2.68207
2.64014
2.59809
2.55594
2.51368
2.47132
2.42887
2.38631
2.34365
2.30089
2.25804
2.21509
2.17205
2.12891
2.08567
2.04235
1.99892
1.95541
1.91181
1.86811
1.82432
1.78045
1.73647
1.69241
1.64826
1.60403
1.55969
1.51528
1.47076
1.42616
1.38147
1.33669
1.29182
1.24686
1.20181
1.15667
1.11144
1.06611
1.0207
0.975188
0.929587
0.883893
0.838111
0.79223
0.746258
0.700192
0.65403
0.607781
0.561424
0.514986
0.468443
0.421808
0.375071
0.328245
0.281322
0.234293
0.187177
0.139958
0.0926426
0.0452323
-0.00227387
-0.0498757
-0.097574
-0.145371
-0.193261
-0.241249
-0.289334
-0.337515
-0.385792
-0.434168
-0.482639
-0.531212
-0.579881
-0.628644
-0.67751
-0.72647
-0.775528
-0.824684
-0.873927
-0.923282
-0.972724
-1.02226
-1.07188
-1.1216
-1.17141
-1.2213
-1.27128
-1.32136
-1.37151
-1.42173
-1.47203
-1.52241
-1.57286
-1.62337
-1.67395
-1.72459
-1.77528
-1.82602
-1.87681
-1.92764
-1.9785
-2.0294
-2.08032
-2.13126
-2.18222
-2.23318
-2.28415
-2.33512
-2.38607
-2.43702
-2.48795
-2.53884
-2.58972
-2.64055
-2.69135
-2.74207
-2.79278
-2.84339
-2.89396
-2.94443
-2.99482
-3.0451
-3.09526
-3.14528
-3.19514
-3.24477
-3.29413
-3.34319
-3.39187
-3.44014
-3.48801
-3.53564
-3.58317
-3.63101
-3.6792
-3.72776
-3.77596
4.90503
4.88408
4.86176
4.83877
4.81523
4.79127
4.76675
4.74161
4.71573
4.6891
4.66173
4.63364
4.60487
4.5755
4.54556
4.51508
4.48411
4.45267
4.42078
4.38848
4.35575
4.32265
4.28915
4.2553
4.22109
4.18652
4.15163
4.11641
4.08089
4.04505
4.00893
3.97251
3.93582
3.89887
3.86166
3.82419
3.78648
3.74855
3.71038
3.67199
3.63339
3.59459
3.55559
3.5164
3.47702
3.43746
3.39772
3.35782
3.31774
3.2775
3.2371
3.19656
3.15585
3.11501
3.07401
3.03288
2.99161
2.9502
2.90866
2.867
2.8252
2.78329
2.74125
2.69909
2.65681
2.61442
2.57191
2.5293
2.48656
2.44372
2.40078
2.35772
2.31457
2.2713
2.22793
2.18446
2.1409
2.09723
2.05345
2.00958
1.96561
1.92155
1.87738
1.83312
1.78877
1.74431
1.69977
1.65513
1.61039
1.56556
1.52064
1.47561
1.4305
1.38529
1.34
1.2946
1.24911
1.20354
1.15786
1.11209
1.06623
1.02028
0.974223
0.928084
0.881845
0.835511
0.789089
0.742564
0.695952
0.649237
0.602433
0.555533
0.508537
0.461446
0.414261
0.366972
0.319598
0.272121
0.224548
0.17689
0.129119
0.0812688
0.0333104
-0.0147362
-0.0628733
-0.111109
-0.159432
-0.207858
-0.256369
-0.30498
-0.353679
-0.402471
-0.451363
-0.500341
-0.549416
-0.598581
-0.64784
-0.69719
-0.746634
-0.796171
-0.845799
-0.895509
-0.945314
-0.995208
-1.04519
-1.09524
-1.1454
-1.19562
-1.24593
-1.29631
-1.34678
-1.39731
-1.44791
-1.49857
-1.54931
-1.6001
-1.65094
-1.70184
-1.75278
-1.80376
-1.8548
-1.90586
-1.95695
-2.00805
-2.05917
-2.11032
-2.16146
-2.21261
-2.26375
-2.31488
-2.36599
-2.41708
-2.46813
-2.51916
-2.57015
-2.6211
-2.67198
-2.72281
-2.77358
-2.82426
-2.87489
-2.9254
-2.97584
-3.02616
-3.07636
-3.12641
-3.17627
-3.22594
-3.27537
-3.32447
-3.37324
-3.42162
-3.4696
-3.51724
-3.56473
-3.61225
-3.66019
-3.70837
-3.7568
-3.80452
4.91695
4.8969
4.87532
4.85285
4.82973
4.8061
4.78197
4.75726
4.73186
4.70573
4.67885
4.65123
4.62292
4.59397
4.56441
4.53429
4.50366
4.47252
4.44092
4.40887
4.3764
4.34352
4.31024
4.27658
4.24254
4.20815
4.1734
4.13831
4.1029
4.06717
4.03112
3.99478
3.95814
3.92123
3.88404
3.84658
3.80887
3.77091
3.73271
3.69427
3.65561
3.61674
3.57765
3.53835
3.49886
3.45917
3.41929
3.37922
3.33898
3.29856
3.25798
3.21722
3.17631
3.13523
3.09399
3.05261
3.01108
2.96941
2.92759
2.88563
2.84354
2.80131
2.75895
2.71646
2.67385
2.6311
2.58824
2.54525
2.50214
2.45892
2.41558
2.37213
2.32856
2.28488
2.24109
2.19719
2.15318
2.10906
2.06485
2.02052
1.97609
1.93155
1.88691
1.84217
1.79733
1.75238
1.70734
1.66219
1.61695
1.57161
1.52617
1.48062
1.43499
1.38925
1.34342
1.29749
1.25147
1.20534
1.15913
1.11281
1.0664
1.01989
0.973288
0.926583
0.879792
0.832899
0.785909
0.73883
0.69165
0.644373
0.597005
0.549542
0.501981
0.454325
0.406573
0.358726
0.310789
0.262747
0.214619
0.166392
0.118075
0.0696613
0.0211591
-0.0274431
-0.0761345
-0.124909
-0.17378
-0.222738
-0.271793
-0.320934
-0.370159
-0.419482
-0.468894
-0.518386
-0.56797
-0.617646
-0.667399
-0.71725
-0.767181
-0.817202
-0.867301
-0.917485
-0.967757
-1.0181
-1.06852
-1.11902
-1.16961
-1.22026
-1.27098
-1.32176
-1.37261
-1.42353
-1.4745
-1.52554
-1.57661
-1.62775
-1.67891
-1.73012
-1.78138
-1.83265
-1.88395
-1.93528
-1.98662
-2.03797
-2.08931
-2.14067
-2.192
-2.24333
-2.29464
-2.34592
-2.39717
-2.44838
-2.49954
-2.55066
-2.60172
-2.65272
-2.70365
-2.75451
-2.80529
-2.85597
-2.90655
-2.95704
-3.0074
-3.05765
-3.10771
-3.15763
-3.20734
-3.25679
-3.30597
-3.35481
-3.40327
-3.45134
-3.49906
-3.54652
-3.59392
-3.64152
-3.68945
-3.73757
-3.78563
-3.83281
4.92831
4.9092
4.88848
4.86666
4.84399
4.82077
4.79702
4.77272
4.74778
4.72214
4.69575
4.66863
4.64079
4.61227
4.58313
4.55339
4.5231
4.49229
4.461
4.42923
4.39703
4.36439
4.33134
4.29788
4.26404
4.22982
4.19523
4.16029
4.12501
4.08939
4.05345
4.01719
3.98062
3.94376
3.90661
3.86917
3.83146
3.79349
3.75527
3.7168
3.6781
3.63914
3.59998
3.56059
3.52099
3.48118
3.44116
3.40095
3.36055
3.31996
3.27918
3.23823
3.1971
3.1558
3.11434
3.07271
3.03092
2.98898
2.94688
2.90463
2.86224
2.8197
2.77702
2.7342
2.69124
2.64814
2.60492
2.56156
2.51808
2.47447
2.43073
2.38687
2.34289
2.29879
2.25458
2.21024
2.16578
2.12122
2.07654
2.03174
1.98684
1.94182
1.8967
1.85147
1.80613
1.76068
1.71513
1.66947
1.62371
1.57784
1.53187
1.4858
1.43963
1.39335
1.34697
1.3005
1.25392
1.20724
1.16046
1.11359
1.06661
1.01954
0.972368
0.9251
0.87773
0.830264
0.782705
0.735044
0.68729
0.639439
0.59149
0.543444
0.495313
0.447072
0.398747
0.350323
0.301804
0.253197
0.20449
0.155693
0.106804
0.0578239
0.00875332
-0.0404055
-0.0896547
-0.138996
-0.188416
-0.237926
-0.287526
-0.337205
-0.386976
-0.436832
-0.486765
-0.536789
-0.586888
-0.637077
-0.687348
-0.737694
-0.788117
-0.838631
-0.889207
-0.939869
-0.990602
-1.0414
-1.09228
-1.14323
-1.19423
-1.2453
-1.29644
-1.34763
-1.39887
-1.45017
-1.50151
-1.5529
-1.60433
-1.6558
-1.7073
-1.75881
-1.81036
-1.86193
-1.9135
-1.96508
-2.01666
-2.06823
-2.1198
-2.17137
-2.22288
-2.27438
-2.32584
-2.37726
-2.42864
-2.47995
-2.53121
-2.58241
-2.63353
-2.68458
-2.73554
-2.78641
-2.83718
-2.88784
-2.93838
-2.98881
-3.0391
-3.08922
-3.13917
-3.18892
-3.23843
-3.28767
-3.33657
-3.38511
-3.43329
-3.48107
-3.52856
-3.57588
-3.62326
-3.67082
-3.71877
-3.76667
-3.8142
-3.86079
4.93905
4.92099
4.9012
4.88012
4.85802
4.83524
4.81189
4.788
4.7635
4.73833
4.71244
4.68582
4.65846
4.6304
4.60168
4.57235
4.54244
4.51198
4.481
4.44955
4.41762
4.38525
4.35243
4.31921
4.28557
4.25155
4.21714
4.18236
4.14722
4.11173
4.0759
4.03974
4.00325
3.96646
3.92935
3.89195
3.85427
3.81631
3.77808
3.73958
3.70083
3.66183
3.62259
3.58312
3.54342
3.50349
3.46335
3.423
3.38245
3.34169
3.30074
3.25959
3.21825
3.17674
3.13505
3.09317
3.05113
3.00892
2.96655
2.92402
2.88132
2.83847
2.79547
2.75232
2.70901
2.66557
2.62198
2.57825
2.53438
2.49038
2.44624
2.40197
2.35758
2.31305
2.26839
2.22362
2.17871
2.13368
2.08854
2.04327
1.99789
1.95238
1.90676
1.86103
1.81518
1.76922
1.72315
1.67697
1.63067
1.58427
1.53776
1.49115
1.44443
1.39759
1.35066
1.30362
1.25648
1.20923
1.16189
1.11443
1.06688
1.01923
0.971476
0.923619
0.875668
0.82761
0.779466
0.731212
0.682868
0.634423
0.585884
0.53725
0.488517
0.439692
0.390774
0.341755
0.292652
0.24345
0.194163
0.144776
0.0953028
0.0457441
-0.00390484
-0.0536392
-0.103464
-0.153364
-0.203358
-0.25343
-0.303581
-0.353819
-0.404133
-0.454534
-0.505007
-0.555557
-0.60619
-0.656896
-0.707683
-0.758538
-0.809468
-0.860461
-0.911534
-0.96267
-1.01387
-1.06514
-1.11646
-1.16786
-1.21929
-1.27078
-1.32234
-1.37393
-1.42556
-1.47724
-1.52895
-1.58069
-1.63247
-1.68428
-1.73609
-1.78792
-1.83976
-1.89159
-1.94344
-1.99527
-2.04708
-2.09887
-2.15064
-2.20239
-2.25409
-2.30575
-2.35736
-2.4089
-2.46039
-2.51181
-2.56314
-2.6144
-2.66558
-2.71665
-2.76763
-2.8185
-2.86925
-2.91987
-2.97036
-3.0207
-3.07089
-3.12089
-3.17069
-3.22024
-3.26954
-3.31852
-3.36716
-3.41541
-3.46327
-3.5108
-3.5581
-3.60533
-3.65269
-3.70024
-3.74805
-3.79562
-3.84252
-3.88826
4.94919
4.9322
4.91339
4.89317
4.87174
4.84947
4.82656
4.80309
4.77902
4.75431
4.72891
4.70277
4.67591
4.64833
4.62007
4.59116
4.56164
4.53155
4.50092
4.46979
4.43816
4.40607
4.37352
4.34054
4.30713
4.27332
4.23911
4.2045
4.16953
4.13418
4.09848
4.06243
4.02604
3.98932
3.95228
3.91494
3.87729
3.83935
3.80112
3.76261
3.72383
3.68479
3.6455
3.60595
3.56616
3.52613
3.48587
3.44538
3.40469
3.36377
3.32264
3.28131
3.23978
3.19805
3.15613
3.11402
3.07173
3.02925
2.98661
2.94378
2.90079
2.85763
2.8143
2.77082
2.72718
2.68338
2.63942
2.59531
2.55107
2.50667
2.46213
2.41744
2.37262
2.32766
2.28256
2.23733
2.19197
2.14648
2.10085
2.0551
2.00923
1.96323
1.91711
1.87086
1.8245
1.77801
1.73141
1.68469
1.63786
1.59091
1.54385
1.49667
1.44939
1.40199
1.35449
1.30687
1.25915
1.21132
1.16339
1.11535
1.06721
1.01896
0.97061
0.922151
0.873601
0.824943
0.776189
0.727331
0.678385
0.629325
0.580187
0.530938
0.481602
0.432172
0.382643
0.333025
0.283317
0.233508
0.183621
0.133637
0.0835723
0.0334152
-0.0168264
-0.0671452
-0.117554
-0.168041
-0.218607
-0.269251
-0.319974
-0.370773
-0.421653
-0.472598
-0.523616
-0.574713
-0.625882
-0.677117
-0.728415
-0.779787
-0.831225
-0.88272
-0.93428
-0.985905
-1.03757
-1.0893
-1.14109
-1.19292
-1.24479
-1.29672
-1.34867
-1.40067
-1.45269
-1.50475
-1.55683
-1.60893
-1.66104
-1.71317
-1.7653
-1.81743
-1.86955
-1.92166
-1.97376
-2.02583
-2.07787
-2.12988
-2.18184
-2.23376
-2.28563
-2.33744
-2.38917
-2.44084
-2.49242
-2.54392
-2.59533
-2.64664
-2.69784
-2.74894
-2.79991
-2.85076
-2.90147
-2.95204
-3.00245
-3.05269
-3.10275
-3.15261
-3.20223
-3.25159
-3.30063
-3.34935
-3.39768
-3.44564
-3.49324
-3.54054
-3.5877
-3.63486
-3.68217
-3.72967
-3.77718
-3.82427
-3.87049
-3.91534
4.95876
4.94279
4.92501
4.90574
4.88509
4.86344
4.841
4.81797
4.79433
4.77007
4.74515
4.71952
4.69315
4.66606
4.63827
4.6098
4.5807
4.55101
4.52075
4.48995
4.45865
4.42686
4.3946
4.36188
4.32872
4.29513
4.26113
4.22672
4.19192
4.15674
4.12118
4.08525
4.04899
4.01236
3.97541
3.93812
3.90053
3.86262
3.8244
3.7859
3.7471
3.70803
3.66869
3.62907
3.58921
3.54908
3.50872
3.46811
3.42728
3.3862
3.34491
3.3034
3.26167
3.21974
3.1776
3.13525
3.09272
3.04999
3.00707
2.96395
2.92067
2.87719
2.83355
2.78973
2.74574
2.70158
2.65727
2.61278
2.56814
2.52334
2.47839
2.43329
2.38804
2.34264
2.29709
2.2514
2.20558
2.15961
2.1135
2.06727
2.02089
1.97438
1.92775
1.88098
1.83409
1.78707
1.73992
1.69266
1.64527
1.59776
1.55013
1.50238
1.45452
1.40655
1.35845
1.31025
1.26194
1.21352
1.16498
1.11634
1.06759
1.01873
0.969765
0.920698
0.871526
0.822255
0.772877
0.723403
0.67383
0.624154
0.574384
0.524523
0.474556
0.424507
0.374357
0.324115
0.273791
0.223366
0.172863
0.122263
0.0715857
0.0208299
-0.0300197
-0.0809412
-0.131943
-0.183023
-0.234178
-0.285409
-0.33671
-0.388087
-0.439529
-0.491042
-0.542619
-0.594265
-0.645973
-0.697746
-0.749578
-0.801464
-0.853415
-0.90542
-0.957471
-1.00958
-1.06173
-1.11393
-1.16616
-1.21844
-1.27075
-1.3231
-1.37547
-1.42787
-1.48028
-1.53272
-1.58515
-1.6376
-1.69005
-1.7425
-1.79494
-1.84736
-1.89976
-1.95214
-2.00448
-2.05678
-2.10905
-2.16125
-2.2134
-2.26548
-2.3175
-2.36945
-2.42129
-2.47308
-2.52475
-2.57631
-2.62777
-2.67912
-2.73034
-2.78143
-2.83239
-2.8832
-2.93386
-2.98434
-3.03466
-3.08478
-3.1347
-3.18438
-3.2338
-3.28292
-3.33172
-3.38013
-3.42818
-3.47585
-3.52319
-3.5703
-3.61734
-3.66442
-3.71171
-3.759
-3.80612
-3.85256
-3.89796
-3.94201
4.96772
4.95278
4.93605
4.91779
4.89799
4.87702
4.85517
4.83261
4.80942
4.78562
4.76117
4.73603
4.71016
4.68357
4.65627
4.62826
4.5996
4.57033
4.54047
4.51004
4.47907
4.4476
4.41564
4.3832
4.35031
4.31697
4.2832
4.249
4.2144
4.1794
4.144
4.10823
4.07208
4.03557
3.99871
3.96151
3.92397
3.88611
3.84793
3.80944
3.77063
3.73154
3.69216
3.6525
3.61256
3.57236
3.5319
3.49118
3.45022
3.409
3.36755
3.32587
3.28395
3.24182
3.19946
3.15689
3.11411
3.07112
3.02793
2.98454
2.94095
2.89717
2.8532
2.80905
2.76471
2.72021
2.67551
2.63065
2.58562
2.54042
2.49506
2.44953
2.40384
2.358
2.31199
2.26585
2.21954
2.1731
2.12649
2.07976
2.03287
1.98585
1.93869
1.89139
1.84395
1.79639
1.74869
1.70087
1.65291
1.60483
1.55662
1.50829
1.45984
1.41127
1.36258
1.31378
1.26485
1.21581
1.16667
1.1174
1.06803
1.01854
0.968955
0.919253
0.869446
0.819539
0.769533
0.719417
0.669207
0.618894
0.568485
0.517983
0.467379
0.416691
0.365902
0.315032
0.264059
0.213014
0.161875
0.110656
0.0593472
0.00796854
-0.0435001
-0.0950298
-0.146651
-0.198329
-0.250088
-0.301911
-0.353804
-0.405767
-0.457785
-0.509867
-0.562016
-0.61422
-0.666482
-0.718791
-0.771165
-0.823583
-0.87605
-0.928564
-0.981122
-1.03372
-1.08634
-1.13902
-1.19171
-1.24444
-1.29719
-1.34995
-1.40274
-1.45553
-1.50833
-1.56114
-1.61394
-1.66673
-1.71951
-1.77227
-1.82502
-1.87773
-1.9304
-1.98302
-2.03561
-2.08813
-2.14059
-2.19299
-2.24532
-2.29755
-2.34971
-2.40178
-2.45375
-2.5056
-2.55734
-2.60896
-2.66046
-2.71182
-2.76304
-2.81412
-2.86504
-2.9158
-2.96638
-3.01677
-3.06698
-3.11696
-3.16669
-3.21617
-3.26537
-3.31424
-3.36275
-3.41088
-3.45864
-3.50602
-3.55314
-3.60009
-3.64702
-3.69403
-3.74113
-3.78815
-3.83478
-3.88048
-3.925
-3.96809
4.97616
4.96219
4.94646
4.92926
4.91039
4.89023
4.86902
4.847
4.82429
4.80095
4.77698
4.75231
4.72696
4.70088
4.67406
4.64655
4.61835
4.58951
4.56006
4.53002
4.49942
4.4683
4.43666
4.40453
4.37191
4.33885
4.30532
4.27135
4.23697
4.20215
4.16694
4.13133
4.09533
4.05895
4.0222
3.98509
3.94764
3.90983
3.8717
3.83323
3.79444
3.75534
3.71594
3.67624
3.63625
3.59597
3.55542
3.5146
3.47352
3.43217
3.39057
3.34872
3.30663
3.26429
3.22173
3.17893
3.13591
3.09267
3.04922
3.00554
2.96166
2.91757
2.87328
2.8288
2.78412
2.73925
2.69419
2.64894
2.60352
2.55791
2.51213
2.46618
2.42004
2.37375
2.32729
2.28067
2.23388
2.18694
2.13985
2.0926
2.04519
1.99765
1.94995
1.90211
1.85412
1.806
1.75773
1.70933
1.6608
1.61212
1.56333
1.5144
1.46535
1.41616
1.36686
1.31743
1.26788
1.21822
1.16844
1.11854
1.06853
1.0184
0.968164
0.91782
0.867366
0.816805
0.766143
0.715376
0.664509
0.61354
0.562482
0.511314
0.460065
0.408713
0.357276
0.305749
0.254132
0.202437
0.150644
0.0987885
0.0468436
-0.00517911
-0.0572691
-0.109435
-0.161676
-0.213977
-0.266346
-0.31878
-0.37128
-0.423828
-0.476442
-0.529108
-0.581828
-0.6346
-0.68742
-0.740293
-0.793201
-0.846151
-0.899143
-0.952179
-1.00524
-1.05833
-1.11144
-1.16458
-1.21774
-1.27092
-1.32411
-1.3773
-1.43049
-1.48369
-1.53687
-1.59005
-1.6432
-1.69633
-1.74943
-1.80251
-1.85554
-1.90853
-1.96146
-2.01434
-2.06716
-2.11989
-2.17255
-2.22513
-2.27761
-2.33
-2.38228
-2.43445
-2.48651
-2.53844
-2.59023
-2.6419
-2.69341
-2.74478
-2.79599
-2.84702
-2.89789
-2.94857
-2.99906
-3.04933
-3.09939
-3.1492
-3.19875
-3.24801
-3.29695
-3.34554
-3.39377
-3.4416
-3.48905
-3.5362
-3.58311
-3.62991
-3.67673
-3.7236
-3.77049
-3.81705
-3.86306
-3.90791
-3.95158
-3.99375
4.98408
4.971
4.95628
4.94013
4.92226
4.90297
4.8825
4.86109
4.83891
4.81606
4.79256
4.76839
4.74353
4.71796
4.69165
4.66464
4.63693
4.60854
4.57952
4.5499
4.51969
4.48893
4.45764
4.42582
4.39352
4.36073
4.32748
4.29376
4.2596
4.22501
4.19
4.15456
4.11873
4.0825
4.04587
4.00888
3.97151
3.93379
3.8957
3.85728
3.81851
3.77942
3.74001
3.70029
3.66025
3.61992
3.57929
3.53838
3.49718
3.45571
3.41396
3.37196
3.32969
3.28717
3.24441
3.20139
3.15814
3.11465
3.07092
3.02698
2.98281
2.93842
2.89381
2.84899
2.80397
2.75874
2.7133
2.66767
2.62185
2.57583
2.52963
2.48324
2.43667
2.38991
2.34298
2.29589
2.24862
2.20117
2.15357
2.1058
2.05787
2.00978
1.96154
1.91314
1.86459
1.81589
1.76705
1.71807
1.66893
1.61967
1.57026
1.52072
1.47104
1.42123
1.3713
1.32123
1.27105
1.22074
1.17031
1.11976
1.06909
1.0183
0.967407
0.916394
0.865279
0.814045
0.762716
0.711274
0.659737
0.608094
0.556357
0.504526
0.452596
0.400579
0.348471
0.296271
0.243992
0.191626
0.139178
0.086656
0.0340571
-0.0186134
-0.0713536
-0.124165
-0.177037
-0.22997
-0.282968
-0.336025
-0.389132
-0.442295
-0.495503
-0.548768
-0.602073
-0.655424
-0.708812
-0.762242
-0.815701
-0.869199
-0.922719
-0.976264
-1.02984
-1.08342
-1.13704
-1.19065
-1.24427
-1.2979
-1.35151
-1.40513
-1.45874
-1.51233
-1.5659
-1.61944
-1.67294
-1.72641
-1.77983
-1.83321
-1.88654
-1.93979
-1.99298
-2.04608
-2.09912
-2.15207
-2.20491
-2.25766
-2.31028
-2.3628
-2.4152
-2.46746
-2.51959
-2.57158
-2.62342
-2.6751
-2.72661
-2.77797
-2.82914
-2.88012
-2.93091
-2.9815
-3.03186
-3.082
-3.13189
-3.18152
-3.23085
-3.27987
-3.32854
-3.37684
-3.42476
-3.47229
-3.51948
-3.56637
-3.6131
-3.65976
-3.70642
-3.75311
-3.79963
-3.84568
-3.89092
-3.93489
-3.9776
-4.01893
4.99151
4.97929
4.96551
4.9504
4.93355
4.91523
4.89557
4.87485
4.85325
4.83093
4.80792
4.78425
4.75989
4.73483
4.70904
4.68254
4.65532
4.62742
4.59886
4.56967
4.53986
4.50949
4.47857
4.4471
4.41512
4.38264
4.34967
4.31622
4.28232
4.24796
4.21316
4.17792
4.14227
4.1062
4.06972
4.03285
3.9956
3.95796
3.91995
3.88158
3.84287
3.80379
3.76439
3.72465
3.68458
3.6442
3.60351
3.56251
3.52122
3.47963
3.43775
3.3956
3.35317