/*--------------------------------*- C++ -*----------------------------------*\
  =========                 |
  \\      /  F ield         | OpenFOAM: The Open Source CFD Toolbox
   \\    /   O peration     | Website:  https://openfoam.org
    \\  /    A nd           | Version:  8
     \\/     M anipulation  |
\*---------------------------------------------------------------------------*/
FoamFile
{
    version     2.0;
    format      ascii;
    class       volVectorField;
    location    "0.01566";
    object      U;
}
// * * * * * * * * * * * * * * * * * * * * * * * * * * * * * * * * * * * * * //

dimensions      [0 1 -1 0 0 0 0];

internalField   nonuniform List<vector> 
112487
(
(14.9999 6.69529e-08 -3.72413e-24)
(15 9.14098e-07 -9.67681e-23)
(14.9999 2.36194e-06 -5.77521e-22)
(14.9999 5.5702e-06 1.82229e-22)
(14.9999 8.80217e-06 3.28846e-21)
(14.9999 1.1909e-05 -3.42034e-21)
(14.9998 1.52126e-05 -1.31356e-22)
(14.9998 1.92428e-05 1.37248e-21)
(14.9998 2.3721e-05 4.38309e-21)
(14.9998 2.8857e-05 -7.28474e-21)
(14.9998 3.40759e-05 -1.94706e-22)
(14.9998 3.97025e-05 1.29009e-20)
(14.9998 4.58762e-05 8.55447e-21)
(14.9998 5.20205e-05 9.11055e-21)
(14.9997 5.85904e-05 8.24565e-21)
(14.9997 6.51012e-05 1.39286e-20)
(14.9997 7.1784e-05 -1.05079e-20)
(14.9997 7.88967e-05 1.87409e-20)
(14.9997 8.57043e-05 -1.39978e-20)
(14.9997 9.2586e-05 -2.0933e-20)
(14.9997 9.95214e-05 -3.79045e-20)
(14.9997 0.000106688 -1.62578e-20)
(14.9997 0.000113526 -1.68835e-20)
(14.9997 0.00012067 -9.74659e-21)
(14.9997 0.000127524 8.38347e-21)
(14.9997 0.000134728 1.85767e-20)
(14.9997 0.000141674 -2.92558e-20)
(14.9997 0.000148514 3.91638e-20)
(14.9997 0.000155513 -2.71212e-22)
(14.9997 0.000162447 2.04295e-20)
(14.9997 0.000169436 2.02198e-20)
(14.9997 0.000176132 2.48393e-22)
(14.9997 0.000182884 2.0698e-20)
(14.9997 0.000189666 2.1352e-20)
(14.9997 0.000196044 -2.14833e-20)
(14.9997 0.000202707 2.40756e-22)
(14.9997 0.000209133 -3.34123e-20)
(14.9997 0.000215575 2.14796e-20)
(14.9997 0.000222227 -9.2605e-21)
(14.9997 0.000228374 4.32422e-20)
(14.9997 0.000234778 -4.31795e-20)
(14.9997 0.000240909 3.45199e-20)
(14.9997 0.00024684 8.24155e-21)
(14.9997 0.000252849 -2.05912e-22)
(14.9997 0.000258875 2.1307e-20)
(14.9997 0.000264605 7.09994e-21)
(14.9997 0.000270609 2.0814e-20)
(14.9997 0.000276354 -3.46848e-20)
(14.9997 0.000281751 -2.06512e-20)
(14.9997 0.000287406 4.91572e-20)
(14.9997 0.000292728 1.46903e-20)
(14.9997 0.000298185 3.95727e-20)
(14.9997 0.000303367 3.90958e-20)
(14.9997 0.000308745 -1.49789e-20)
(14.9997 0.000313779 -1.52791e-20)
(14.9997 0.000318709 -1.87201e-20)
(14.9997 0.000323605 -3.68635e-20)
(14.9997 0.000328532 1.55039e-20)
(14.9997 0.000333091 1.79569e-20)
(14.9998 0.000337839 -1.76274e-20)
(14.9998 0.000342415 1.73029e-20)
(14.9998 0.000346643 -1.28203e-22)
(14.9998 0.000351084 1.65942e-20)
(14.9998 0.000355259 -1.30091e-22)
(14.9998 0.000359466 1.58584e-20)
(14.9998 0.000363566 -3.1917e-20)
(14.9998 0.000367384 0)
(14.9998 0.000371471 -1.46152e-20)
(14.9998 0.000375223 1.42337e-20)
(14.9998 0.000378831 1.38322e-20)
(14.9998 0.000382354 3.03293e-20)
(14.9998 0.000385779 -1.68765e-20)
(14.9998 0.000389051 -2.54058e-20)
(14.9998 0.000392245 2.9515e-20)
(14.9998 0.000395539 -3.45624e-20)
(14.9998 0.00039861 1.72e-20)
(14.9998 0.000401343 3.93912e-20)
(14.9999 0.000404392 -7.05083e-21)
(14.9999 0.000407056 0)
(14.9999 0.000409677 0)
(14.9999 0.000412027 0)
(14.9999 0.000414543 -8.7305e-21)
(14.9999 0.000416867 0)
(14.9999 0.000419169 -1.00371e-20)
(14.9999 0.000421151 3.57592e-20)
(14.9999 0.000423034 1.39783e-20)
(14.9999 0.000425079 -6.06933e-20)
(14.9999 0.000426781 1.20901e-20)
(14.9999 0.000428446 1.2651e-20)
(14.9999 0.000429991 -1.81835e-20)
(14.9999 0.000431525 -4.61654e-21)
(14.9999 0.000432951 4.14644e-21)
(14.9999 0.000434142 3.62018e-21)
(15 0.000435247 3.36261e-20)
(15 0.000436186 3.95456e-20)
(15 0.000437117 -1.62494e-20)
(15 0.000437863 -3.70139e-20)
(15 0.000438619 0)
(15 0.000439132 7.32325e-22)
(15 0.000439582 1.86058e-20)
(15 0.000439942 -2.35498e-22)
(15 0.000440214 -1.78816e-20)
(15 0.000440421 0)
(15 0.000440384 3.7226e-20)
(15 0.000440356 -8.82226e-21)
(15 0.000440141 -1.58768e-20)
(15 0.000439917 -6.39108e-21)
(15.0001 0.000439523 -1.85695e-20)
(15.0001 0.000439041 -2.27433e-20)
(15.0001 0.000438318 9.33699e-21)
(15.0001 0.000437484 5.09468e-21)
(15.0001 0.000436636 1.85624e-20)
(15.0001 0.000435663 -6.19926e-21)
(15.0001 0.000434649 1.85924e-20)
(15.0001 0.000433281 -1.42965e-20)
(15.0001 0.000432077 -1.06992e-20)
(15.0001 0.000430767 -2.65774e-20)
(15.0001 0.000429123 8.69669e-21)
(15.0001 0.000427453 4.58552e-20)
(15.0001 0.000425582 -2.77802e-20)
(15.0001 0.000423876 -1.82031e-20)
(15.0001 0.000421886 2.08467e-20)
(15.0002 0.000419846 1.82144e-20)
(15.0002 0.0004174 6.71747e-21)
(15.0002 0.000415279 -5.99003e-20)
(15.0002 0.000412798 1.24623e-20)
(15.0002 0.000410078 5.08729e-21)
(15.0002 0.000407456 -3.58314e-20)
(15.0002 0.000404747 4.53557e-20)
(15.0002 0.000401869 3.5495e-21)
(15.0002 0.000398882 -1.76975e-20)
(15.0002 0.000395796 -1.226e-20)
(15.0002 0.000392551 3.30128e-20)
(15.0002 0.000388943 -3.34743e-20)
(15.0002 0.000385612 1.51947e-20)
(15.0002 0.000381972 1.74659e-20)
(15.0002 0.000378209 1.72496e-20)
(15.0003 0.000374469 -3.4872e-20)
(15.0003 0.000370436 -5.2267e-20)
(15.0003 0.000366622 1.66633e-22)
(15.0003 0.000362422 1.69171e-20)
(15.0003 0.000358027 0)
(15.0003 0.000353823 1.95176e-20)
(15.0003 0.000349212 0)
(15.0003 0.000344621 -1.66592e-20)
(15.0003 0.00033998 2.07913e-20)
(15.0003 0.000335213 -4.68059e-21)
(15.0003 0.000330059 2.12741e-20)
(15.0003 0.000325104 1.61939e-20)
(15.0003 0.000319833 -4.39432e-20)
(15.0003 0.000314695 -9.47918e-21)
(15.0003 0.000309176 6.88214e-21)
(15.0003 0.000303924 3.83801e-20)
(15.0003 0.000298273 -7.6675e-21)
(15.0003 0.000292317 0)
(15.0003 0.000286647 8.21674e-21)
(15.0003 0.000280628 3.87973e-20)
(15.0003 0.00027461 3.80619e-20)
(15.0004 0.000268658 -3.82932e-20)
(15.0004 0.000262463 9.57587e-21)
(15.0004 0.00025594 2.49316e-22)
(15.0004 0.000249683 1.37705e-20)
(15.0004 0.000242834 -1.37812e-20)
(15.0004 0.000236198 2.7396e-20)
(15.0004 0.000229554 1.6329e-21)
(15.0004 0.000222616 -5.00006e-20)
(15.0004 0.000215975 -1.25274e-20)
(15.0004 0.000208845 -1.14158e-20)
(15.0004 0.000201722 -2.84828e-22)
(15.0004 0.000194631 3.08487e-22)
(15.0004 0.000187171 1.13407e-20)
(15.0004 0.000179743 3.81539e-25)
(15.0004 0.000172202 -6.70746e-20)
(15.0004 0.000164812 3.4398e-20)
(15.0004 0.00015726 -3.35218e-20)
(15.0004 0.000149367 3.10192e-20)
(15.0004 0.000141845 -3.03676e-20)
(15.0004 0.000133938 2.56181e-21)
(15.0004 0.000126347 2.78992e-20)
(15.0004 0.000118321 -2.52113e-21)
(15.0003 0.00011052 -1.79942e-20)
(15.0003 0.000102733 1.71351e-20)
(15.0003 9.49814e-05 6.42563e-21)
(15.0003 8.6805e-05 -8.60683e-21)
(15.0003 7.90893e-05 -3.34872e-20)
(15.0003 7.15216e-05 1.5483e-20)
(15.0003 6.38184e-05 -1.15014e-20)
(15.0003 5.65713e-05 6.1516e-21)
(15.0003 4.92185e-05 1.296e-20)
(15.0003 4.2477e-05 -5.24727e-21)
(15.0003 3.6175e-05 1.65597e-21)
(15.0002 2.99073e-05 5.77791e-21)
(15.0002 2.44009e-05 -6.43231e-21)
(15.0002 1.94031e-05 3.8106e-21)
(15.0002 1.52839e-05 1.71979e-21)
(15.0002 1.13678e-05 2.43982e-21)
(15.0001 7.19121e-06 -1.17183e-21)
(15.0001 3.05249e-06 -7.72177e-22)
(15 1.13768e-06 3.85527e-22)
(15.0001 1.29467e-07 -4.54016e-23)
(14.9984 9.49981e-06 7.00094e-23)
(14.9994 2.31376e-05 -7.90161e-22)
(14.9996 1.33105e-05 -1.96291e-22)
(14.9995 2.21521e-05 -3.27872e-21)
(14.9993 4.06236e-05 4.66245e-21)
(14.9993 5.86145e-05 -3.48486e-21)
(14.9992 7.33812e-05 -7.5075e-21)
(14.9992 8.76659e-05 2.82108e-22)
(14.9992 0.000102494 2.56767e-21)
(14.9992 0.000118485 6.02075e-22)
(14.9992 0.00013469 -8.65705e-21)
(14.9991 0.000151316 4.63294e-21)
(14.9991 0.000168714 1.39795e-20)
(14.9991 0.000186379 -9.42073e-21)
(14.9991 0.000204853 3.89035e-20)
(14.9991 0.000223578 3.40254e-21)
(14.9991 0.000242547 -2.5643e-20)
(14.999 0.000262213 -3.5546e-21)
(14.999 0.000281786 1.69637e-20)
(14.999 0.000301603 -7.38607e-23)
(14.999 0.000321533 -9.07381e-21)
(14.999 0.000341886 -3.17402e-20)
(14.999 0.000361895 -2.25538e-20)
(14.999 0.000382319 -6.99275e-23)
(14.999 0.000402423 -1.04694e-20)
(14.999 0.000422959 2.13477e-20)
(14.999 0.0004434 8.94098e-22)
(14.999 0.000463634 6.57439e-22)
(14.999 0.000483885 -1.25729e-20)
(14.999 0.000504132 -1.19585e-20)
(14.999 0.000524341 1.19885e-20)
(14.999 0.000544283 6.2087e-22)
(14.999 0.000564292 -3.83954e-20)
(14.999 0.000584233 1.01824e-19)
(14.999 0.000603644 1.34933e-20)
(14.999 0.000623274 2.51532e-20)
(14.999 0.000642454 -2.74247e-20)
(14.999 0.000661627 -4.86883e-22)
(14.999 0.000681084 2.54475e-20)
(14.999 0.000699712 6.34225e-20)
(14.999 0.000718631 3.98761e-20)
(14.999 0.000737062 -5.23764e-21)
(14.999 0.000755159 2.43789e-20)
(14.999 0.000773199 0)
(14.999 0.000791155 8.8038e-21)
(14.9991 0.000808625 -1.55237e-20)
(14.9991 0.000826361 5.44194e-20)
(14.9991 0.000843453 -3.03414e-20)
(14.9991 0.000860051 -5.46898e-20)
(14.9991 0.000876894 1.57274e-20)
(14.9991 0.000893327 2.2724e-20)
(14.9991 0.000909542 1.13421e-20)
(14.9991 0.000925277 7.60535e-20)
(14.9991 0.000941284 3.81974e-20)
(14.9992 0.000956572 -1.78446e-22)
(14.9992 0.000971665 1.2845e-20)
(14.9992 0.000986593 -1.66767e-20)
(14.9992 0.00100121 -3.41859e-20)
(14.9992 0.00101533 5.62259e-20)
(14.9992 0.00102956 3.85507e-20)
(14.9992 0.00104328 1.43887e-21)
(14.9993 0.00105652 0)
(14.9993 0.00106985 1.80418e-20)
(14.9993 0.00108266 -1.76162e-20)
(14.9993 0.00109527 3.48468e-20)
(14.9993 0.00110756 1.00564e-22)
(14.9993 0.00111954 -1.28673e-22)
(14.9994 0.0011315 -3.37072e-20)
(14.9994 0.00114288 -3.6232e-20)
(14.9994 0.00115393 7.59691e-24)
(14.9994 0.00116463 3.63447e-20)
(14.9994 0.00117519 3.67254e-20)
(14.9994 0.00118532 -1.83781e-20)
(14.9995 0.00119505 7.95929e-21)
(14.9995 0.00120483 -1.84857e-20)
(14.9995 0.00121411 -3.09664e-20)
(14.9995 0.00122285 1.18663e-20)
(14.9995 0.00123179 1.87181e-20)
(14.9996 0.00124002 2.97597e-20)
(14.9996 0.00124799 -1.04156e-20)
(14.9996 0.00125543 2.88633e-20)
(14.9996 0.00126289 9.51345e-21)
(14.9996 0.00126996 -4.71055e-20)
(14.9997 0.0012768 -1.91611e-20)
(14.9997 0.00128301 1.91639e-20)
(14.9997 0.00128895 3.42534e-20)
(14.9997 0.00129484 -4.39134e-24)
(14.9997 0.00130028 1.93369e-20)
(14.9998 0.00130529 4.77019e-23)
(14.9998 0.00131003 -2.49398e-20)
(14.9998 0.0013147 -2.44466e-20)
(14.9998 0.00131881 -4.35325e-20)
(14.9998 0.00132248 3.51614e-20)
(14.9999 0.00132582 3.92775e-20)
(14.9999 0.0013289 8.71078e-21)
(14.9999 0.00133188 7.18035e-21)
(14.9999 0.00133423 -2.16453e-20)
(14.9999 0.00133645 -1.97954e-20)
(15 0.00133801 -6.4722e-24)
(15 0.00133942 1.95715e-20)
(15 0.00134054 1.96449e-20)
(15 0.00134136 -5.99309e-24)
(15.0001 0.00134202 -1.9876e-20)
(15.0001 0.00134202 -3.97829e-20)
(15.0001 0.00134189 1.52159e-20)
(15.0001 0.00134112 1.69345e-20)
(15.0001 0.00134026 -2.32045e-20)
(15.0002 0.00133911 -3.68874e-23)
(15.0002 0.00133763 1.54046e-20)
(15.0002 0.0013357 3.95929e-20)
(15.0002 0.00133319 -4.51274e-20)
(15.0002 0.00133061 -1.96895e-20)
(15.0003 0.00132773 -3.72287e-23)
(15.0003 0.00132442 7.13156e-21)
(15.0003 0.00132064 4.46611e-21)
(15.0003 0.00131679 1.62605e-20)
(15.0003 0.00131266 -1.97096e-20)
(15.0004 0.00130785 9.23389e-21)
(15.0004 0.00130281 1.98641e-22)
(15.0004 0.00129735 -1.02187e-20)
(15.0004 0.00129189 4.99142e-20)
(15.0005 0.00128588 -1.54117e-22)
(15.0005 0.00127958 -3.88828e-20)
(15.0005 0.00127252 -3.17752e-20)
(15.0005 0.00126565 6.9319e-23)
(15.0005 0.00125821 4.58729e-20)
(15.0006 0.00125021 -1.38022e-20)
(15.0006 0.00124227 1.93495e-20)
(15.0006 0.00123387 2.95179e-20)
(15.0006 0.001225 -3.44097e-20)
(15.0006 0.00121595 -3.83723e-20)
(15.0007 0.00120653 5.47752e-20)
(15.0007 0.00119673 3.76233e-20)
(15.0007 0.00118628 -1.70161e-20)
(15.0007 0.00117578 -2.1269e-22)
(15.0007 0.00116495 -3.72136e-22)
(15.0008 0.00115372 -1.88728e-20)
(15.0008 0.00114227 -5.66498e-20)
(15.0008 0.00113021 1.06841e-21)
(15.0008 0.00111823 5.88754e-20)
(15.0008 0.0011057 3.89761e-20)
(15.0008 0.00109259 -2.52254e-21)
(15.0009 0.00107956 -1.68198e-22)
(15.0009 0.00106596 3.75705e-21)
(15.0009 0.00105199 0)
(15.0009 0.0010378 4.63738e-21)
(15.0009 0.00102335 1.82701e-20)
(15.0009 0.00100808 1.75908e-20)
(15.001 0.000993062 -3.55731e-20)
(15.001 0.000977474 -6.46605e-21)
(15.001 0.000961603 1.72492e-20)
(15.001 0.000945232 7.85342e-21)
(15.001 0.000929082 3.35845e-20)
(15.001 0.000912337 -2.56308e-20)
(15.001 0.000894826 3.41666e-20)
(15.0011 0.000877553 -2.66951e-20)
(15.0011 0.000859686 4.40877e-20)
(15.0011 0.000841665 -4.44232e-20)
(15.0011 0.000823519 1.14975e-20)
(15.0011 0.000804938 2.70818e-20)
(15.0011 0.000785745 3.99079e-20)
(15.0011 0.00076681 1.58589e-20)
(15.0011 0.00074687 1.22414e-20)
(15.0011 0.000727178 1.61242e-20)
(15.0011 0.000707403 1.4908e-20)
(15.0012 0.000687039 -4.37683e-20)
(15.0012 0.000666844 -4.38846e-20)
(15.0012 0.000645961 1.52299e-20)
(15.0012 0.00062491 -1.46884e-20)
(15.0012 0.000603848 3.61524e-22)
(15.0012 0.000582384 -1.4763e-20)
(15.0012 0.000560777 -8.49741e-20)
(15.0012 0.000539067 6.30605e-22)
(15.0012 0.000517268 4.22196e-20)
(15.0012 0.00049512 2.88281e-20)
(15.0012 0.000472745 2.4278e-20)
(15.0012 0.000450759 -6.62386e-20)
(15.0012 0.000428272 2.66951e-20)
(15.0012 0.00040615 1.45424e-20)
(15.0012 0.000383483 2.58189e-20)
(15.0012 0.000361184 2.09152e-20)
(15.0012 0.000338873 -1.40139e-20)
(15.0012 0.000316704 -9.75032e-21)
(15.0011 0.000294267 -3.0769e-20)
(15.0011 0.000272508 -2.45524e-20)
(15.0011 0.000250882 -8.83975e-21)
(15.0011 0.000229386 -2.43917e-20)
(15.0011 0.000208693 5.95789e-21)
(15.0011 0.000188157 -5.63391e-21)
(15.0011 0.00016839 5.36938e-21)
(15.001 0.000148941 -3.51951e-22)
(15.001 0.000129565 -7.59092e-21)
(15.001 0.00011146 5.47317e-21)
(15.001 9.38718e-05 1.61602e-20)
(15.0009 7.53972e-05 -1.3924e-21)
(15.0009 5.24009e-05 -2.40414e-22)
(15.0007 2.84213e-05 -4.17802e-21)
(15.0005 1.73541e-05 2.17187e-21)
(15.0009 3.06487e-05 -3.5383e-22)
(15.0022 1.29698e-05 -3.16973e-22)
(14.997 5.36346e-06 1.33353e-22)
(14.9985 4.43721e-05 1.2498e-22)
(14.9992 3.90668e-05 6.22503e-22)
(14.9991 3.79839e-05 -1.90328e-21)
(14.9989 5.86846e-05 -1.93523e-21)
(14.9987 9.07138e-05 8.22678e-21)
(14.9987 0.000120762 -2.13021e-21)
(14.9986 0.000147713 0)
(14.9986 0.000174162 -1.6236e-20)
(14.9985 0.000201998 2.51905e-20)
(14.9985 0.000230478 -2.22296e-20)
(14.9985 0.000259408 4.90546e-21)
(14.9985 0.000288888 5.12997e-21)
(14.9984 0.00031891 -2.03693e-20)
(14.9984 0.000349953 1.54343e-20)
(14.9984 0.000381399 7.45044e-21)
(14.9984 0.000413128 -3.67308e-20)
(14.9983 0.000445641 -3.79064e-20)
(14.9983 0.000478202 1.14647e-20)
(14.9983 0.00051116 1.21326e-20)
(14.9983 0.000544412 4.2526e-20)
(14.9983 0.000577959 9.7957e-21)
(14.9983 0.000611499 1.27785e-20)
(14.9983 0.000645338 -2.33887e-20)
(14.9983 0.000678853 1.08694e-20)
(14.9983 0.000712762 -4.78864e-20)
(14.9983 0.000746702 4.86075e-20)
(14.9983 0.000780316 1.14417e-20)
(14.9983 0.000813893 1.20567e-20)
(14.9983 0.000847585 -1.21127e-20)
(14.9983 0.000881033 -2.55068e-20)
(14.9983 0.000914406 3.81707e-20)
(14.9983 0.000947742 -6.39903e-20)
(14.9983 0.000980927 -3.93523e-20)
(14.9983 0.00101353 5.2649e-20)
(14.9983 0.00104633 5.08102e-20)
(14.9983 0.00107848 2.53854e-20)
(14.9983 0.0011105 -1.40376e-20)
(14.9983 0.00114271 1.08621e-20)
(14.9983 0.00117409 -5.01723e-20)
(14.9983 0.00120543 6.46288e-20)
(14.9983 0.00123645 1.49984e-20)
(14.9984 0.00126693 2.46136e-20)
(14.9984 0.00129741 2.44433e-20)
(14.9984 0.00132749 0)
(14.9984 0.00135686 -1.54795e-20)
(14.9984 0.00138632 7.20578e-21)
(14.9984 0.0014151 3.98607e-20)
(14.9985 0.00144335 -3.22612e-20)
(14.9985 0.00147148 -2.29961e-20)
(14.9985 0.00149922 2.9157e-20)
(14.9985 0.00152664 -3.88907e-20)
(14.9985 0.00155312 -2.76337e-20)
(14.9986 0.00157979 6.02197e-20)
(14.9986 0.0016057 1.67385e-20)
(14.9986 0.00163133 2.12259e-20)
(14.9986 0.00165633 4.48966e-20)
(14.9987 0.00168097 3.20648e-21)
(14.9987 0.00170507 -3.45762e-20)
(14.9987 0.0017289 3.67866e-20)
(14.9987 0.00175211 5.43584e-20)
(14.9988 0.00177463 1.8755e-20)
(14.9988 0.00179702 1.76305e-20)
(14.9988 0.00181885 1.25663e-22)
(14.9988 0.00184009 -5.30551e-20)
(14.9989 0.00186082 3.42307e-20)
(14.9989 0.00188116 1.80198e-20)
(14.9989 0.00190107 1.63544e-20)
(14.9989 0.00192035 -3.41604e-20)
(14.999 0.00193907 -2.17198e-23)
(14.999 0.0019573 3.47731e-21)
(14.999 0.00197523 -1.8348e-20)
(14.9991 0.00199255 -2.33134e-20)
(14.9991 0.00200907 3.21673e-20)
(14.9991 0.00202528 3.18553e-20)
(14.9992 0.00204113 -1.25921e-20)
(14.9992 0.00205628 -1.21169e-20)
(14.9992 0.00207098 -4.21742e-20)
(14.9993 0.00208502 7.79317e-21)
(14.9993 0.00209861 -1.04769e-20)
(14.9993 0.00211137 -3.8401e-20)
(14.9994 0.00212393 4.80859e-20)
(14.9994 0.00213594 1.0468e-21)
(14.9994 0.00214747 -3.87431e-20)
(14.9995 0.00215804 -6.45295e-23)
(14.9995 0.00216826 4.73707e-23)
(14.9995 0.00217808 -2.67171e-20)
(14.9996 0.00218741 1.95644e-20)
(14.9996 0.00219601 3.31567e-20)
(14.9996 0.00220409 5.65977e-21)
(14.9997 0.00221174 5.06273e-21)
(14.9997 0.00221864 2.63659e-23)
(14.9997 0.00222502 -2.39107e-20)
(14.9998 0.00223081 -3.62394e-20)
(14.9998 0.00223614 -1.99682e-20)
(14.9998 0.0022411 5.98981e-20)
(14.9999 0.00224512 1.80903e-20)
(14.9999 0.00224869 -2.00384e-20)
(14.9999 0.0022515 1.92145e-20)
(15 0.00225405 3.2797e-22)
(15 0.00225595 -2.03472e-20)
(15.0001 0.0022572 7.63231e-22)
(15.0001 0.00225817 0)
(15.0001 0.00225839 1.83272e-21)
(15.0002 0.00225815 -1.77466e-20)
(15.0002 0.00225696 -2.89723e-21)
(15.0002 0.00225539 2.35582e-20)
(15.0003 0.00225334 -2.80894e-20)
(15.0003 0.00225069 -2.00548e-20)
(15.0003 0.0022475 1.29431e-24)
(15.0004 0.00224354 -1.70671e-23)
(15.0004 0.00223913 4.00946e-20)
(15.0004 0.00223417 1.99274e-20)
(15.0005 0.00222845 -1.99529e-20)
(15.0005 0.00222222 1.99817e-20)
(15.0006 0.00221555 2.81828e-20)
(15.0006 0.00220851 -3.98993e-20)
(15.0006 0.00220046 -3.03677e-20)
(15.0007 0.0021919 1.00119e-20)
(15.0007 0.00218274 5.00236e-20)
(15.0007 0.00217336 1.08402e-20)
(15.0008 0.00216308 -3.11744e-20)
(15.0008 0.00215232 0)
(15.0008 0.00214084 1.97421e-20)
(15.0009 0.00212887 3.26349e-20)
(15.0009 0.00211612 -1.96326e-20)
(15.0009 0.00210298 -1.95036e-20)
(15.001 0.00208947 1.95648e-20)
(15.001 0.00207508 -3.02714e-20)
(15.001 0.00206003 -1.93576e-20)
(15.0011 0.00204461 1.94136e-20)
(15.0011 0.00202864 3.58833e-20)
(15.0011 0.00201203 -5.3498e-20)
(15.0012 0.00199472 -1.52976e-21)
(15.0012 0.0019769 -1.69911e-20)
(15.0012 0.00195863 1.84317e-20)
(15.0013 0.00193975 -3.79807e-20)
(15.0013 0.00192019 1.90005e-20)
(15.0013 0.0019 3.88091e-20)
(15.0014 0.0018796 2.05087e-20)
(15.0014 0.00185841 -1.66344e-20)
(15.0014 0.00183649 -1.83679e-20)
(15.0014 0.00181422 5.88717e-20)
(15.0015 0.0017913 -1.78526e-22)
(15.0015 0.00176793 -1.82676e-20)
(15.0015 0.00174381 0)
(15.0016 0.00171931 4.71134e-20)
(15.0016 0.00169392 -4.79709e-20)
(15.0016 0.00166866 0)
(15.0016 0.0016423 2.47798e-20)
(15.0017 0.00161551 -2.51708e-20)
(15.0017 0.0015882 1.77484e-20)
(15.0017 0.00156068 8.05029e-21)
(15.0017 0.00153248 3.53811e-20)
(15.0018 0.00150345 -2.43954e-22)
(15.0018 0.00147442 -5.34678e-20)
(15.0018 0.0014445 1.68378e-20)
(15.0018 0.00141404 -6.53832e-20)
(15.0018 0.00138348 4.42408e-20)
(15.0019 0.0013522 -2.79066e-20)
(15.0019 0.00132045 -1.63732e-20)
(15.0019 0.00128855 -2.80565e-20)
(15.0019 0.00125559 1.21445e-20)
(15.0019 0.00122272 4.52418e-20)
(15.002 0.00118958 -1.40102e-20)
(15.002 0.00115556 -7.47785e-20)
(15.002 0.00112164 -5.76621e-20)
(15.002 0.00108691 4.38094e-20)
(15.002 0.00105186 -5.80842e-20)
(15.002 0.00101661 0)
(15.002 0.000981127 -4.32422e-20)
(15.002 0.000945193 -1.43604e-20)
(15.002 0.000909226 5.54268e-20)
(15.002 0.000873039 -2.83267e-20)
(15.002 0.000836291 4.30797e-20)
(15.002 0.000799387 -5.29536e-20)
(15.002 0.00076275 2.76246e-20)
(15.002 0.000725528 3.83959e-20)
(15.002 0.000688444 3.79087e-20)
(15.002 0.000651133 3.65228e-20)
(15.002 0.000613937 3.3074e-21)
(15.002 0.000576854 6.76186e-22)
(15.002 0.000540001 -1.42554e-20)
(15.002 0.000502947 1.32757e-20)
(15.002 0.000466561 0)
(15.002 0.000430246 -2.80395e-20)
(15.0019 0.000394129 3.73394e-20)
(15.0019 0.000358954 -1.74667e-20)
(15.0019 0.000324135 -8.86079e-21)
(15.0019 0.000289678 4.67967e-21)
(15.0018 0.000255394 -3.34145e-20)
(15.0018 0.000221594 4.40699e-21)
(15.0018 0.000189181 1.13677e-20)
(15.0017 0.000155699 1.86806e-21)
(15.0016 0.000117648 2.40798e-22)
(15.0015 7.64129e-05 -2.56005e-21)
(15.0012 4.97601e-05 1.02922e-21)
(15.0011 5.22154e-05 -1.41601e-22)
(15.002 5.94949e-05 -1.5217e-21)
(15.004 7.46509e-06 1.14485e-22)
(14.9961 8.60518e-06 -1.17291e-22)
(14.9976 5.04552e-05 6.06642e-22)
(14.9985 6.88783e-05 0)
(14.9987 6.34137e-05 0)
(14.9985 7.51014e-05 -9.86269e-22)
(14.9982 0.00011299 -1.59127e-21)
(14.9981 0.000158139 -3.51222e-21)
(14.998 0.000199396 -1.72789e-21)
(14.998 0.000238071 -5.53945e-21)
(14.9979 0.000277712 8.69855e-21)
(14.9979 0.000318321 -6.0444e-21)
(14.9978 0.000359634 -5.24834e-21)
(14.9978 0.000401518 -8.12251e-21)
(14.9977 0.000444229 4.91123e-23)
(14.9977 0.000487937 -3.21743e-20)
(14.9977 0.000532179 2.39839e-20)
(14.9977 0.000576894 7.58127e-21)
(14.9976 0.000622431 1.13556e-20)
(14.9976 0.000668297 -2.85386e-20)
(14.9976 0.00071458 1.21285e-20)
(14.9976 0.000761059 -4.32607e-20)
(14.9976 0.00080805 3.64914e-22)
(14.9976 0.000855165 9.55561e-21)
(14.9975 0.000902697 -1.2353e-20)
(14.9975 0.000949818 2.32669e-20)
(14.9975 0.000997313 3.32364e-22)
(14.9975 0.00104483 -4.71509e-20)
(14.9975 0.00109214 -2.49475e-20)
(14.9975 0.00113924 1.22054e-20)
(14.9975 0.00118665 4.67687e-23)
(14.9975 0.00123377 0)
(14.9975 0.00128065 2.54637e-20)
(14.9975 0.00132741 3.84435e-20)
(14.9975 0.00137402 -2.54547e-20)
(14.9976 0.00142013 -2.70947e-20)
(14.9976 0.00146618 -2.58604e-20)
(14.9976 0.0015117 -2.53198e-20)
(14.9976 0.001557 -2.58136e-20)
(14.9976 0.00160221 3.3216e-21)
(14.9976 0.00164651 -5.05606e-20)
(14.9976 0.00169072 -4.02355e-20)
(14.9977 0.0017344 1.02466e-20)
(14.9977 0.00177752 9.67677e-21)
(14.9977 0.0018206 1.52607e-20)
(14.9977 0.00186316 2.47915e-20)
(14.9977 0.00190476 -2.09184e-22)
(14.9978 0.00194631 1.59303e-20)
(14.9978 0.00198706 4.7783e-20)
(14.9978 0.0020273 2.35891e-20)
(14.9978 0.00206706 -1.62066e-20)
(14.9979 0.00210634 2.2828e-20)
(14.9979 0.00214499 -1.23038e-20)
(14.9979 0.00218294 -1.64909e-20)
(14.998 0.00222059 -1.71326e-20)
(14.998 0.00225733 1.70883e-20)
(14.998 0.00229368 2.57888e-20)
(14.9981 0.00232906 -1.72897e-20)
(14.9981 0.00236409 3.79414e-20)
(14.9981 0.00239844 -2.76301e-21)
(14.9982 0.00243218 -5.73291e-20)
(14.9982 0.00246519 -1.7747e-20)
(14.9982 0.00249741 1.77536e-20)
(14.9983 0.00252914 1.79958e-20)
(14.9983 0.00256009 5.41553e-20)
(14.9983 0.00259035 -1.78062e-20)
(14.9984 0.00261999 -3.66882e-20)
(14.9984 0.00264881 1.3547e-21)
(14.9985 0.00267698 1.65887e-20)
(14.9985 0.00270454 -1.8425e-20)
(14.9986 0.00273135 1.55799e-20)
(14.9986 0.0027574 3.7344e-20)
(14.9986 0.00278269 2.96373e-20)
(14.9987 0.00280737 -5.19547e-20)
(14.9987 0.00283106 -3.27875e-20)
(14.9988 0.00285405 1.8956e-20)
(14.9988 0.00287662 6.25511e-21)
(14.9989 0.0028983 1.909e-20)
(14.9989 0.0029191 7.35156e-21)
(14.9989 0.00293906 -2.28213e-20)
(14.999 0.00295848 2.50209e-21)
(14.999 0.00297692 -4.02995e-20)
(14.9991 0.00299477 2.89802e-20)
(14.9991 0.0030118 -9.96113e-21)
(14.9992 0.00302817 -5.88771e-20)
(14.9992 0.00304342 1.12714e-20)
(14.9993 0.0030581 3.94681e-20)
(14.9993 0.00307201 3.89305e-23)
(14.9994 0.00308523 1.29392e-20)
(14.9994 0.00309759 -1.97851e-20)
(14.9995 0.00310916 -5.41152e-20)
(14.9995 0.00311986 5.24049e-21)
(14.9996 0.00312984 4.12431e-24)
(14.9996 0.00313915 2.00894e-20)
(14.9997 0.00314749 2.01576e-20)
(14.9997 0.00315504 1.09073e-20)
(14.9998 0.00316191 1.5147e-20)
(14.9998 0.00316767 -1.82631e-20)
(14.9999 0.00317277 -2.03246e-20)
(14.9999 0.00317689 -2.0346e-20)
(15 0.00318062 -2.00293e-20)
(15 0.00318333 6.09959e-20)
(15.0001 0.00318502 2.0386e-20)
(15.0001 0.00318631 -2.16795e-20)
(15.0002 0.00318661 -2.03971e-20)
(15.0002 0.00318625 -2.27481e-20)
(15.0003 0.00318476 2.33214e-20)
(15.0003 0.00318257 -4.77708e-20)
(15.0004 0.00317957 -2.03205e-20)
(15.0004 0.00317558 6.56205e-20)
(15.0005 0.00317089 4.06013e-20)
(15.0005 0.00316546 -3.49187e-20)
(15.0006 0.00315912 -7.68997e-21)
(15.0006 0.00315195 -5.80874e-23)
(15.0007 0.00314389 4.75818e-23)
(15.0007 0.0031351 4.04523e-20)
(15.0008 0.00312548 -8.49925e-21)
(15.0008 0.00311526 -2.91171e-20)
(15.0009 0.00310385 -1.06334e-20)
(15.0009 0.00309174 3.03139e-20)
(15.001 0.00307874 4.01115e-20)
(15.001 0.0030651 0)
(15.0011 0.00305041 -2.00332e-20)
(15.0011 0.00303511 -7.70554e-21)
(15.0012 0.0030189 0)
(15.0012 0.00300173 -1.3289e-20)
(15.0013 0.00298359 -1.38191e-20)
(15.0013 0.00296496 -1.43301e-20)
(15.0014 0.00294555 -1.98019e-20)
(15.0014 0.00292505 -1.52656e-20)
(15.0015 0.00290385 1.95947e-20)
(15.0015 0.0028818 -1.96742e-20)
(15.0016 0.00285888 9.16857e-23)
(15.0016 0.00283511 2.15102e-20)
(15.0017 0.00281063 1.77966e-20)
(15.0017 0.0027854 1.50714e-22)
(15.0018 0.00275922 -3.7941e-20)
(15.0018 0.00273231 -1.91248e-20)
(15.0018 0.0027046 0)
(15.0019 0.00267597 -2.26466e-23)
(15.0019 0.00264675 -1.77321e-21)
(15.002 0.00261658 -4.27664e-20)
(15.002 0.00258556 6.26063e-20)
(15.0021 0.00255378 2.18509e-20)
(15.0021 0.00252117 -8.24412e-20)
(15.0021 0.0024881 0)
(15.0022 0.00245388 1.85736e-20)
(15.0022 0.00241913 5.281e-21)
(15.0023 0.00238328 6.36885e-21)
(15.0023 0.00234701 1.80182e-20)
(15.0023 0.00230986 -2.51376e-20)
(15.0024 0.0022719 0)
(15.0024 0.0022333 1.79122e-20)
(15.0024 0.00219404 -8.69156e-21)
(15.0025 0.0021541 8.98498e-21)
(15.0025 0.00211314 -6.1712e-20)
(15.0025 0.002072 2.74737e-20)
(15.0026 0.00202964 -2.71611e-22)
(15.0026 0.00198656 -2.75319e-20)
(15.0026 0.00194329 1.6609e-20)
(15.0026 0.00189924 -1.68158e-20)
(15.0027 0.00185443 -1.63793e-20)
(15.0027 0.00180936 6.15455e-20)
(15.0027 0.0017631 1.56231e-20)
(15.0027 0.00171655 1.33136e-20)
(15.0028 0.00166958 -4.50568e-20)
(15.0028 0.00162181 -6.01756e-20)
(15.0028 0.00157378 4.48993e-20)
(15.0028 0.00152498 -1.48119e-20)
(15.0028 0.00147581 3.02574e-22)
(15.0028 0.00142627 1.43221e-20)
(15.0029 0.00137623 0)
(15.0029 0.00132564 5.79914e-20)
(15.0029 0.00127515 -2.88049e-20)
(15.0029 0.00122418 -2.85561e-20)
(15.0029 0.0011727 -5.64356e-20)
(15.0029 0.00112098 -1.49582e-20)
(15.0029 0.00106942 3.96277e-20)
(15.0029 0.00101709 -2.68304e-20)
(15.0029 0.00096494 -1.16189e-20)
(15.0029 0.000912626 -2.53065e-20)
(15.0029 0.000860595 -3.95719e-20)
(15.0029 0.000808462 3.80187e-20)
(15.0029 0.000756467 3.82491e-22)
(15.0028 0.0007045 -3.98246e-22)
(15.0028 0.000653134 2.1509e-20)
(15.0028 0.000601953 2.75972e-20)
(15.0028 0.000550985 1.10651e-20)
(15.0027 0.000500805 3.69996e-21)
(15.0027 0.000451187 -1.50394e-20)
(15.0027 0.000401777 -1.43931e-20)
(15.0026 0.000352727 3.58646e-22)
(15.0026 0.000304389 1.42472e-20)
(15.0025 0.000256685 -1.75215e-20)
(15.0024 0.000204928 7.06087e-21)
(15.0023 0.000147277 2.67105e-23)
(15.002 9.853e-05 0)
(15.0017 8.40995e-05 -1.0684e-21)
(15.002 9.25322e-05 -1.33711e-21)
(15.0032 6.79088e-05 2.36351e-22)
(15.0053 1.19044e-05 1.69075e-22)
(14.9953 8.64109e-06 -1.90934e-22)
(14.9967 5.29765e-05 -9.06906e-22)
(14.9978 9.45792e-05 0)
(14.9982 9.77584e-05 1.9782e-21)
(14.998 9.83987e-05 1.0168e-21)
(14.9977 0.000131629 -2.62197e-21)
(14.9975 0.000186786 -5.56353e-21)
(14.9974 0.00024302 -2.43139e-21)
(14.9974 0.000294997 2.07333e-21)
(14.9973 0.000346675 -1.00126e-20)
(14.9972 0.00039932 1.54929e-20)
(14.9972 0.000452833 -7.83734e-21)
(14.9971 0.000507053 1.91944e-20)
(14.9971 0.000562309 -5.5809e-23)
(14.997 0.000618541 9.81919e-21)
(14.997 0.000675661 -7.15764e-21)
(14.997 0.000733359 3.65483e-20)
(14.9969 0.000791757 2.69671e-20)
(14.9969 0.000850753 -7.89259e-21)
(14.9969 0.000910523 -6.79051e-22)
(14.9969 0.000970536 -1.1826e-20)
(14.9968 0.0010309 -9.8533e-21)
(14.9968 0.0010917 -2.28176e-20)
(14.9968 0.00115282 -1.01836e-20)
(14.9968 0.00121365 -2.40442e-20)
(14.9968 0.0012748 4.63674e-20)
(14.9968 0.00133614 -1.29808e-20)
(14.9968 0.0013973 -2.49158e-20)
(14.9968 0.00145819 -2.51231e-20)
(14.9968 0.00151954 -3.75258e-20)
(14.9968 0.0015804 -1.2772e-20)
(14.9968 0.00164106 0)
(14.9968 0.00170156 -3.87286e-20)
(14.9968 0.00176182 -2.60164e-20)
(14.9968 0.00182167 1.38845e-21)
(14.9968 0.00188137 -1.19706e-20)
(14.9969 0.00194041 -2.59137e-20)
(14.9969 0.0019992 -3.99948e-20)
(14.9969 0.00205761 -2.60028e-20)
(14.9969 0.00211521 5.15288e-20)
(14.9969 0.00217258 -4.27718e-21)
(14.997 0.00222953 -4.06052e-20)
(14.997 0.00228562 -1.00897e-20)
(14.997 0.00234147 2.28171e-22)
(14.997 0.00239683 -2.0423e-22)
(14.9971 0.00245095 -2.44602e-20)
(14.9971 0.00250482 2.42124e-20)
(14.9971 0.00255807 -2.39684e-20)
(14.9972 0.0026104 2.37498e-20)
(14.9972 0.00266222 2.26565e-22)
(14.9972 0.00271344 1.62871e-20)
(14.9973 0.00276368 2.34789e-20)
(14.9973 0.0028133 5.61109e-21)
(14.9974 0.00286231 -5.35419e-21)
(14.9974 0.00291026 5.06469e-21)
(14.9974 0.00295763 2.15943e-20)
(14.9975 0.00300398 -2.12441e-20)
(14.9975 0.00304961 -2.12205e-20)
(14.9976 0.00309443 3.83737e-20)
(14.9976 0.00313844 0)
(14.9977 0.00318159 -1.98968e-20)
(14.9977 0.00322393 -3.89754e-20)
(14.9978 0.00326535 1.90678e-20)
(14.9978 0.00330568 -1.86524e-20)
(14.9979 0.00334535 3.64945e-20)
(14.9979 0.00338419 1.83296e-20)
(14.998 0.00342188 1.74913e-20)
(14.998 0.00345868 -1.75884e-21)
(14.9981 0.00349467 -1.86226e-20)
(14.9981 0.0035299 -3.21251e-20)
(14.9982 0.00356406 1.56683e-20)
(14.9982 0.00359694 1.49814e-20)
(14.9983 0.00362916 4.50161e-21)
(14.9983 0.00366042 -1.41365e-20)
(14.9984 0.00369063 -8.13733e-21)
(14.9985 0.00371998 -1.30742e-20)
(14.9985 0.00374832 -1.27684e-20)
(14.9986 0.00377562 3.16417e-20)
(14.9986 0.00380186 -3.89548e-20)
(14.9987 0.00382732 -1.48251e-22)
(14.9987 0.00385168 1.97858e-20)
(14.9988 0.00387489 -1.97554e-20)
(14.9989 0.00389714 1.92551e-20)
(14.9989 0.00391868 -1.82221e-20)
(14.999 0.00393895 -4.05703e-24)