/*--------------------------------*- C++ -*----------------------------------*\
  =========                 |
  \\      /  F ield         | OpenFOAM: The Open Source CFD Toolbox
   \\    /   O peration     | Website:  https://openfoam.org
    \\  /    A nd           | Version:  8
     \\/     M anipulation  |
\*---------------------------------------------------------------------------*/
FoamFile
{
    version     2.0;
    format      ascii;
    class       volScalarField;
    location    "33";
    object      p;
}
// * * * * * * * * * * * * * * * * * * * * * * * * * * * * * * * * * * * * * //

dimensions      [0 2 -2 0 0 0 0];

internalField   nonuniform List<scalar> 
277560
(
-0.0200329
0.00694525
0.0157212
0.0214789
0.0295005
0.0374523
0.0454708
0.053777
0.0623703
0.0712786
0.0805364
0.0901681
0.100194
0.110629
0.121487
0.132776
0.144502
0.156668
0.169273
0.182315
0.19579
0.20969
0.224008
0.238732
0.253851
0.269353
0.285222
0.301443
0.318
0.334876
0.352053
0.369513
0.387236
0.405204
0.423395
0.44179
0.460369
0.47911
0.497992
0.516996
0.536098
0.55528
0.574521
0.593799
0.613096
0.632392
0.651667
0.670903
0.690082
0.709185
0.728196
0.747097
0.765871
0.784502
0.802975
0.821274
0.839384
0.85729
0.874979
0.892438
0.909652
0.926609
0.943297
0.959703
0.975817
0.991628
1.00712
1.0223
1.03713
1.05163
1.06577
1.07955
1.09297
1.10601
1.11866
1.13093
1.14281
1.15429
1.16536
1.17603
1.1863
1.19615
1.2056
1.21463
1.22326
1.23148
1.23931
1.24674
1.25377
1.26042
1.26669
1.27258
1.27811
1.28328
1.2881
1.29258
1.29672
1.30053
1.30403
1.30723
1.31013
1.31274
1.31507
1.31714
1.31895
1.32052
1.32185
1.32296
1.32385
1.32453
1.32502
1.32531
1.32543
1.32537
1.32515
1.32476
1.32417
1.32354
1.32348
1.32331
-0.0187022
0.0057258
0.0157266
0.0214607
0.0293376
0.0372958
0.0452894
0.0535613
0.062124
0.0710013
0.0802274
0.0898273
0.0998206
0.110224
0.121048
0.132304
0.143996
0.156127
0.168697
0.181704
0.195143
0.209007
0.223287
0.237973
0.253054
0.268516
0.284345
0.300525
0.317041
0.333875
0.351009
0.368425
0.386104
0.404025
0.42217
0.440518
0.459048
0.47774
0.496573
0.515525
0.534577
0.553706
0.572893
0.592117
0.611359
0.630599
0.649818
0.668996
0.688118
0.707162
0.726114
0.744955
0.763669
0.782239
0.80065
0.818886
0.836933
0.854775
0.8724
0.889793
0.906942
0.923833
0.940454
0.956793
0.97284
0.988583
1.00401
1.01911
1.03388
1.04831
1.06238
1.07609
1.08944
1.10241
1.115
1.1272
1.139
1.15041
1.16142
1.17202
1.18221
1.192
1.20137
1.21034
1.2189
1.22706
1.23481
1.24217
1.24914
1.25572
1.26192
1.26775
1.27321
1.27831
1.28307
1.28748
1.29155
1.2953
1.29873
1.30186
1.3047
1.30724
1.30951
1.31152
1.31327
1.31477
1.31604
1.31709
1.31792
1.31854
1.31897
1.31921
1.31927
1.31916
1.31889
1.31844
1.31781
1.31713
1.31705
1.3168
-0.018628
0.00532477
0.0156629
0.0212954
0.0290914
0.0370158
0.0449562
0.0531725
0.0616809
0.0705032
0.0796736
0.0892173
0.0991539
0.109499
0.120266
0.131463
0.143095
0.155166
0.167675
0.18062
0.193995
0.207795
0.222011
0.236631
0.251645
0.267039
0.282798
0.298908
0.315353
0.332114
0.349174
0.366515
0.384117
0.401961
0.420027
0.438294
0.456743
0.475353
0.494101
0.512969
0.531934
0.550975
0.570074
0.589209
0.60836
0.627508
0.646635
0.665721
0.684748
0.703698
0.722555
0.741299
0.759916
0.778389
0.796702
0.81484
0.832787
0.850531
0.868055
0.885348
0.902395
0.919185
0.935705
0.951943
0.967888
0.983529
0.998855
1.01386
1.02852
1.04285
1.05682
1.07043
1.08368
1.09655
1.10903
1.12113
1.13284
1.14415
1.15506
1.16557
1.17567
1.18535
1.19463
1.20351
1.21197
1.22003
1.22769
1.23496
1.24184
1.24833
1.25444
1.26018
1.26556
1.27058
1.27524
1.27957
1.28356
1.28723
1.29059
1.29364
1.29639
1.29887
1.30107
1.303
1.30469
1.30613
1.30734
1.30833
1.30911
1.30968
1.31006
1.31026
1.31029
1.31014
1.30984
1.30938
1.30872
1.30804
1.30796
1.30774
-0.0186956
0.00516491
0.0154901
0.0210244
0.028742
0.0365941
0.0444543
0.0525896
0.0610169
0.0697571
0.0788446
0.0883048
0.0981569
0.108417
0.119097
0.130206
0.14175
0.153731
0.166148
0.179001
0.192282
0.205987
0.220105
0.234627
0.249541
0.264833
0.280489
0.296494
0.312832
0.329484
0.346434
0.363662
0.38115
0.398878
0.416826
0.434974
0.453301
0.471787
0.49041
0.50915
0.527985
0.546896
0.565861
0.584861
0.603876
0.622887
0.641873
0.660818
0.679703
0.698509
0.71722
0.735818
0.754286
0.77261
0.790771
0.808757
0.82655
0.844139
0.861507
0.878643
0.895532
0.912162
0.928522
0.944599
0.960382
0.97586
0.991023
1.00586
1.02036
1.03452
1.04833
1.06178
1.07486
1.08756
1.09988
1.11181
1.12336
1.1345
1.14524
1.15558
1.16551
1.17503
1.18414
1.19284
1.20113
1.20902
1.21651
1.22361
1.23032
1.23665
1.24259
1.24817
1.25337
1.25823
1.26273
1.26689
1.27072
1.27423
1.27742
1.28031
1.28291
1.28523
1.28728
1.28906
1.2906
1.29189
1.29295
1.2938
1.29443
1.29487
1.29512
1.29518
1.29507
1.2948
1.29437
1.29378
1.29301
1.29221
1.29202
1.2917
-0.0187317
0.00503849
0.015232
0.0206663
0.0282861
0.036034
0.0437884
0.0518174
0.0601374
0.0687692
0.0777476
0.0870975
0.0968383
0.106986
0.117552
0.128546
0.139972
0.151835
0.164132
0.176862
0.19002
0.203599
0.21759
0.231983
0.246765
0.261923
0.277444
0.293311
0.309508
0.326018
0.342823
0.359904
0.377242
0.394819
0.412612
0.430603
0.448771
0.467095
0.485554
0.504128
0.522794
0.541534
0.560326
0.579151
0.597988
0.616819
0.635624
0.654385
0.673084
0.691704
0.710225
0.728632
0.746908
0.765036
0.783002
0.800789
0.818384
0.835772
0.852938
0.86987
0.886555
0.90298
0.919133
0.935003
0.950578
0.965847
0.980801
0.995428
1.00972
1.02367
1.03727
1.0505
1.06337
1.07586
1.08797
1.09969
1.11102
1.12195
1.13248
1.14261
1.15232
1.16163
1.17053
1.17901
1.18709
1.19477
1.20206
1.20895
1.21545
1.22157
1.22731
1.23268
1.23769
1.24234
1.24664
1.25061
1.25425
1.25757
1.26057
1.26328
1.2657
1.26784
1.26971
1.27133
1.2727
1.27383
1.27474
1.27544
1.27593
1.27623
1.27634
1.27628
1.27605
1.27567
1.27514
1.27445
1.27358
1.2727
1.27245
1.27209
-0.0187701
0.00491511
0.0149102
0.0202262
0.027726
0.0353417
0.0429653
0.0508632
0.0590507
0.0675489
0.0763925
0.0856066
0.0952101
0.105219
0.115644
0.126496
0.137778
0.149495
0.161644
0.174224
0.18723
0.200654
0.214488
0.228721
0.243342
0.258336
0.273689
0.289387
0.305411
0.321746
0.338373
0.355273
0.372428
0.389817
0.407421
0.42522
0.443193
0.461318
0.479576
0.497945
0.516405
0.534935
0.553515
0.572124
0.590744
0.609354
0.627937
0.646473
0.664945
0.683334
0.701623
0.719795
0.737835
0.755724
0.773449
0.790993
0.808343
0.825484
0.842402
0.859084
0.875517
0.891689
0.907588
0.923201
0.938519
0.95353
0.968225
0.982592
0.996624
1.01031
1.02364
1.03662
1.04922
1.06145
1.07329
1.08475
1.09581
1.10648
1.11674
1.1266
1.13605
1.14508
1.15371
1.16193
1.16974
1.17715
1.18417
1.19079
1.19702
1.20288
1.20835
1.21346
1.21821
1.2226
1.22664
1.23035
1.23373
1.2368
1.23955
1.24201
1.24418
1.24608
1.24771
1.24909
1.25022
1.25112
1.25181
1.25228
1.25255
1.25263
1.25253
1.25226
1.25183
1.25125
1.25053
1.24966
1.24861
1.24755
1.24714
1.24664
-0.0188175
0.00478552
0.0145324
0.0197068
0.0270644
0.034522
0.0419903
0.0497329
0.0577634
0.0661035
0.0747877
0.0838411
0.0932822
0.103126
0.113386
0.124069
0.135181
0.146725
0.1587
0.171102
0.183928
0.197169
0.210818
0.224862
0.239291
0.254091
0.269248
0.284744
0.300565
0.316693
0.33311
0.349797
0.366735
0.383904
0.401284
0.418856
0.436598
0.454491
0.472511
0.49064
0.508856
0.527139
0.545469
0.563825
0.582189
0.60054
0.618861
0.637133
0.655336
0.673455
0.691471
0.709367
0.727127
0.744736
0.762177
0.779436
0.796497
0.813348
0.829973
0.846361
0.862497
0.878371
0.893969
0.909282
0.924297
0.939004
0.953393
0.967454
0.981178
0.994557
1.00758
1.02024
1.03254
1.04445
1.05598
1.06713
1.07788
1.08823
1.09818
1.10772
1.11686
1.12558
1.13389
1.14179
1.14929
1.15638
1.16308
1.16939
1.17532
1.18086
1.18603
1.19083
1.19527
1.19936
1.20311
1.20652
1.2096
1.21237
1.21484
1.21702
1.21891
1.22053
1.22189
1.223
1.22387
1.22452
1.22495
1.22518
1.22521
1.22507
1.22475
1.22427
1.22363
1.22286
1.22195
1.2209
1.21968
1.21847
1.21792
1.21731
-0.0188698
0.00464078
0.0141012
0.0191112
0.0263042
0.033579
0.0408684
0.0484323
0.0562821
0.0644401
0.072941
0.0818094
0.0910638
0.100719
0.110788
0.121277
0.132194
0.143539
0.155312
0.167511
0.180129
0.193161
0.206596
0.220425
0.234634
0.249211
0.26414
0.279407
0.294995
0.310885
0.327061
0.343503
0.360192
0.377109
0.394233
0.411545
0.429023
0.446648
0.464397
0.482251
0.500188
0.518188
0.536232
0.554299
0.57237
0.590425
0.608446
0.626415
0.644312
0.662121
0.679824
0.697405
0.714847
0.732134
0.74925
0.766182
0.782913
0.799431
0.815722
0.831772
0.84757
0.863102
0.878357
0.893324
0.907992
0.922351
0.93639
0.9501
0.963471
0.976496
0.989165
1.00147
1.01341
1.02497
1.03614
1.04693
1.05732
1.06731
1.07689
1.08607
1.09484
1.1032
1.11115
1.11869
1.12582
1.13255
1.13889
1.14484
1.1504
1.15559
1.1604
1.16484
1.16893
1.17266
1.17605
1.17912
1.18185
1.18428
1.18641
1.18824
1.1898
1.19108
1.19212
1.1929
1.19346
1.19379
1.19392
1.19384
1.19358
1.19314
1.19254
1.19178
1.19087
1.18983
1.18867
1.18737
1.18592
1.18447
1.18372
1.18293
-0.018924
0.00447462
0.0136179
0.0184421
0.0254481
0.0325166
0.0396043
0.0469666
0.0546128
0.0625658
0.0708601
0.0795201
0.0885641
0.0980067
0.10786
0.118132
0.128828
0.13995
0.151496
0.163465
0.175851
0.188646
0.201842
0.215427
0.229389
0.243715
0.25839
0.273398
0.288723
0.304346
0.320251
0.336418
0.352828
0.369461
0.386298
0.403318
0.4205
0.437824
0.455269
0.472814
0.490439
0.508123
0.525846
0.543589
0.561332
0.579056
0.596741
0.61437
0.631925
0.649387
0.666741
0.683967
0.701052
0.717979
0.734732
0.751297
0.767659
0.783804
0.79972
0.815392
0.83081
0.845959
0.86083
0.87541
0.889689
0.903657
0.917304
0.930619
0.943596
0.956223
0.968495
0.980401
0.991937
1.00309
1.01387
1.02425
1.03423
1.04382
1.053
1.06178
1.07014
1.07809
1.08563
1.09276
1.09948
1.10581
1.11174
1.11729
1.12244
1.12722
1.13163
1.13568
1.13936
1.1427
1.1457
1.14837
1.15072
1.15276
1.15451
1.15597
1.15715
1.15807
1.15874
1.15917
1.15938
1.15937
1.15916
1.15875
1.15817
1.15742
1.15652
1.15546
1.15427
1.15296
1.15154
1.14999
1.14829
1.14662
1.14566
1.14471
-0.0189789
0.00428364
0.013084
0.0177018
0.0244991
0.0313388
0.0382028
0.0453414
0.0527616
0.0604872
0.0685524
0.0769814
0.0857922
0.0949991
0.104614
0.114645
0.125096
0.13597
0.147266
0.158981
0.171108
0.183642
0.196572
0.209887
0.223576
0.237624
0.252017
0.266739
0.281773
0.297102
0.312707
0.328569
0.344671
0.360991
0.37751
0.394207
0.411062
0.428055
0.445164
0.462369
0.479649
0.496984
0.514355
0.531741
0.549122
0.56648
0.583796
0.601051
0.618227
0.635308
0.652275
0.669112
0.685803
0.702333
0.718685
0.734846
0.750801
0.766536
0.782038
0.797294
0.812293
0.82702
0.841467
0.85562
0.869471
0.883008
0.896222
0.909103
0.921643
0.933833
0.945665
0.957131
0.968224
0.978938
0.989266
0.999203
1.00874
1.01788
1.02662
1.03494
1.04286
1.05036
1.05745
1.06412
1.0704
1.07628
1.08176
1.08685
1.09156
1.0959
1.09986
1.10346
1.1067
1.1096
1.11216
1.1144
1.11632
1.11793
1.11925
1.12029
1.12105
1.12156
1.12182
1.12185
1.12165
1.12125
1.12066
1.11988
1.11892
1.11781
1.11655
1.11515
1.11363
1.11199
1.11024
1.10839
1.1064
1.10444
1.10322
1.10205
-0.0190336
0.00406613
0.0125005
0.0168926
0.0234597
0.0300493
0.0366683
0.0435618
0.0507346
0.0582112
0.0660255
0.0742016
0.082757
0.0917058
0.101059
0.110826
0.12101
0.131613
0.142635
0.154071
0.165917
0.178164
0.190803
0.203824
0.217214
0.230959
0.245044
0.259453
0.274169
0.289176
0.304453
0.319984
0.335748
0.351727
0.367899
0.384245
0.400743
0.417375
0.434118
0.450953
0.467858
0.484814
0.5018
0.518797
0.535785
0.552745
0.569658
0.586506
0.603271
0.619936
0.636483
0.652897
0.66916
0.685258
0.701174
0.716895
0.732407
0.747696
0.762748
0.777551
0.792093
0.806363
0.820347
0.834037
0.847421
0.860489
0.873232
0.88564
0.897705
0.909419
0.920772
0.931759
0.942371
0.952603
0.962447
0.971899
0.980954
0.989606
0.997853
1.00569
1.01312
1.02013
1.02673
1.03292
1.0387
1.04409
1.04908
1.05369
1.05791
1.06176
1.06524
1.06835
1.07111
1.07353
1.07562
1.07738
1.07883
1.07997
1.08083
1.08141
1.08172
1.08178
1.0816
1.08119
1.08057
1.07974
1.07873
1.07755
1.0762
1.0747
1.07306
1.07129
1.06941
1.06743
1.06535
1.06318
1.06088
1.05863
1.05715
1.05576
-0.0190874
0.00382142
0.0118686
0.0160166
0.0223329
0.0286516
0.0350052
0.0416329
0.0485376
0.0557442
0.0632866
0.0711885
0.0794672
0.0881363
0.0972072
0.106688
0.116582
0.126892
0.137616
0.148751
0.160291
0.172229
0.184554
0.197256
0.210322
0.223739
0.23749
0.251561
0.265934
0.280592
0.295517
0.310688
0.326089
0.341698
0.357495
0.373462
0.389576
0.405819
0.422168
0.438604
0.455105
0.471652
0.488224
0.504802
0.521367
0.537898
0.554378
0.570788
0.58711
0.603327
0.619422
0.635379
0.651181
0.666813
0.682261
0.697509
0.712544
0.727352
0.74192
0.756236
0.770287
0.784063
0.79755
0.81074
0.823622
0.836186
0.848421
0.860321
0.871875
0.883075
0.893914
0.904384
0.914479
0.924191
0.933516
0.942446
0.950978
0.959107
0.96683
0.974142
0.981043
0.987529
0.993601
0.999262
1.00452
1.00938
1.01385
1.01792
1.02162
1.02495
1.0279
1.0305
1.03274
1.03464
1.03621
1.03746
1.0384
1.03904
1.03939
1.03947
1.03929
1.03886
1.0382
1.03732
1.03622
1.03494
1.03347
1.03184
1.03005
1.02812
1.02606
1.02389
1.02161
1.01924
1.01678
1.01425
1.01159
1.00901
1.00722
1.00556
-0.0191399
0.00354943
0.0111897
0.0150761
0.0211214
0.0271494
0.0332178
0.0395599
0.0461762
0.0530928
0.0603428
0.0679501
0.0759315
0.0843001
0.0930672
0.10224
0.111823
0.121818
0.132223
0.143034
0.154247
0.165852
0.17784
0.1902
0.202919
0.215983
0.229378
0.243086
0.257091
0.271375
0.285921
0.300708
0.315719
0.330933
0.34633
0.361891
0.377595
0.393422
0.40935
0.425359
0.44143
0.45754
0.47367
0.4898
0.505912
0.521986
0.538002
0.553944
0.569794
0.585533
0.601146
0.616615
0.631926
0.647062
0.662009
0.676752
0.691278
0.705573
0.719625
0.733421
0.746949
0.760197
0.773155
0.785812
0.798158
0.810184
0.821879
0.833235
0.844244
0.854897
0.865188
0.875107
0.88465
0.893809
0.902579
0.910953
0.918928
0.926499
0.933663
0.940416
0.946756
0.952682
0.958193
0.963292
0.967988
0.972285
0.97619
0.979709
0.982847
0.985611
0.988008
0.990048
0.991738
0.993088
0.994109
0.994812
0.995208
0.995309
0.995128
0.994678
0.993972
0.993023
0.991846
0.990454
0.988862
0.987083
0.985132
0.983022
0.980769
0.978383
0.97588
0.973272
0.970572
0.967792
0.964946
0.962026
0.959005
0.956064
0.953958
0.952035
-0.0191908
0.00325052
0.0104651
0.0140731
0.0198281
0.0255463
0.0313104
0.0373476
0.0436563
0.0502632
0.0572014
0.0644942
0.0721583
0.0802064
0.0886494
0.0974945
0.106746
0.116405
0.126469
0.136936
0.147799
0.159049
0.170678
0.182674
0.195023
0.207712
0.220726
0.234048
0.247662
0.261549
0.275691
0.29007
0.304667
0.319461
0.334433
0.349564
0.364833
0.380219
0.395701
0.411258
0.42687
0.442517
0.458179
0.473835
0.489466
0.505054
0.520581
0.536027
0.551375
0.566608
0.581709
0.596662
0.611452
0.626063
0.64048
0.654689
0.668676
0.682428
0.695934
0.709179
0.722152
0.734843
0.74724
0.759334
0.771113
0.782568
0.793691
0.804473
0.814905
0.82498
0.834689
0.844027
0.852985
0.861559
0.869742
0.877529
0.884915
0.891896
0.898469
0.90463
0.910379
0.915713
0.920631
0.925137
0.929238
0.932941
0.936252
0.939178
0.941724
0.943897
0.945705
0.947156
0.94826
0.949026
0.949466
0.94959
0.94941
0.948939
0.94819
0.947177
0.945911
0.94441
0.942685
0.940752
0.938625
0.93632
0.933851
0.931231
0.928477
0.925601
0.922617
0.91954
0.916382
0.913157
0.909879
0.906541
0.903115
0.899784
0.897324
0.895097
-0.01924
0.00292532
0.00969628
0.0130097
0.0184556
0.0238456
0.0292873
0.0350009
0.0409833
0.0472618
0.0538691
0.0608284
0.068156
0.0758643
0.0839636
0.0924612
0.101361
0.110663
0.120367
0.130469
0.140961
0.151836
0.163085
0.174694
0.186652
0.198945
0.211556
0.22447
0.237669
0.251136
0.264853
0.2788
0.292959
0.307311
0.321836
0.336514
0.351323
0.366244
0.381256
0.396336
0.411466
0.426625
0.441792
0.456948
0.472074
0.487151
0.50216
0.517084
0.531904
0.546604
0.561167
0.575578
0.589819
0.603876
0.617736
0.631382
0.644803
0.657985
0.670915
0.683581
0.695972
0.708077
0.719884
0.731385
0.742568
0.753425
0.763946
0.774124
0.78395
0.793417
0.802516
0.811242
0.819587
0.827545
0.835112
0.842281
0.849049
0.855411
0.861364
0.866905
0.872032
0.876745
0.881041
0.884925
0.888402
0.891483
0.894171
0.896474
0.898398
0.899951
0.90114
0.901974
0.902462
0.902616
0.902445
0.901961
0.901177
0.900106
0.89876
0.897154
0.895302
0.893218
0.890918
0.888417
0.885728
0.88287
0.879855
0.876699
0.873418
0.870027
0.866539
0.862969
0.85933
0.855639
0.851908
0.848132
0.844282
0.840544
0.837713
0.835171
-0.0192875
0.00257463
0.00888468
0.0118882
0.0170068
0.0220509
0.0271525
0.0325247
0.0381627
0.0440948
0.0503531
0.0569603
0.063933
0.0712828
0.0790197
0.0871508
0.0956795
0.104607
0.113931
0.123647
0.133749
0.144229
0.155076
0.16628
0.177826
0.1897
0.201887
0.214371
0.227135
0.240161
0.25343
0.266924
0.280625
0.294513
0.308569
0.322771
0.3371
0.351533
0.366051
0.380632
0.395255
0.409902
0.424551
0.439183
0.453779
0.468321
0.482788
0.497165
0.511433
0.525575
0.539574
0.553416
0.567084
0.580563
0.593838
0.606897
0.619725
0.632309
0.644638
0.656699
0.668481
0.679973
0.691164
0.702045
0.712606
0.722837
0.73273
0.742277
0.75147
0.760301
0.768763
0.776849
0.784554
0.791871
0.798794
0.805319
0.811442
0.817158
0.822464
0.827358
0.831838
0.835902
0.839551
0.842786
0.845614
0.848044
0.850083
0.851737
0.853013
0.853919
0.854462
0.854652
0.854499
0.854012
0.853203
0.852085
0.85067
0.84897
0.847
0.844775
0.842308
0.839615
0.836712
0.833613
0.830335
0.826894
0.823305
0.819584
0.815748
0.81181
0.807788
0.803695
0.799546
0.795357
0.791143
0.786897
0.782591
0.778414
0.775183
0.772295
-0.0193331
0.00219939
0.00803189
0.0107107
0.0154844
0.0201657
0.0249102
0.0299237
0.0352001
0.0407683
0.0466599
0.0528975
0.0594974
0.0664709
0.0738274
0.0815737
0.0897132
0.0982465
0.107172
0.116484
0.126177
0.136242
0.146669
0.157446
0.16856
0.179997
0.191741
0.203775
0.216083
0.228646
0.241448
0.25447
0.267693
0.281097
0.294663
0.308369
0.322195
0.336119
0.350122
0.364181
0.378276
0.392388
0.406497
0.420583
0.434626
0.448609
0.462512
0.476319
0.490011
0.503571
0.516984
0.530233
0.543304
0.55618
0.568848
0.581295
0.593506
0.605469
0.617173
0.628604
0.639752
0.650607
0.661158
0.671394
0.681307
0.690888
0.700129
0.70902
0.717554
0.725725
0.733525
0.740947
0.747987
0.754637
0.760893
0.766749
0.772202
0.777247
0.781883
0.786105
0.789914
0.793307
0.796284
0.798846
0.801001
0.802757
0.804123
0.805105
0.805709
0.805944
0.805818
0.80534
0.804521
0.803371
0.801901
0.800124
0.798054
0.795703
0.793085
0.790216
0.787111
0.783785
0.780255
0.776535
0.772644
0.768596
0.76441
0.7601
0.755685
0.751179
0.7466
0.741962
0.737281
0.732573
0.727855
0.72312
0.718339
0.713704
0.710055
0.706807
-0.0193771
0.00180065
0.00713955
0.00947929
0.0138914
0.0181935
0.0225646
0.0272028
0.0321009
0.0372884
0.0427966
0.0486474
0.0548574
0.0614374
0.0683962
0.0757403
0.083473
0.0915947
0.100103
0.108993
0.118259
0.127891
0.137879
0.148212
0.158875
0.169855
0.181136
0.192701
0.204534
0.216618
0.228934
0.241465
0.254191
0.267092
0.280149
0.293339
0.306642
0.320037
0.333503
0.347019
0.360566
0.374123
0.387671
0.401188
0.414658
0.428061
0.441379
0.454593
0.467688
0.480645
0.49345
0.506085
0.518536
0.530787
0.542826
0.554638
0.566211
0.577531
0.588586
0.599366
0.609858
0.620053
0.62994
0.63951
0.648753
0.657661
0.666225
0.674438
0.682292
0.68978
0.696895
0.703632
0.709983
0.715944
0.72151
0.726676
0.731437
0.735791
0.739733
0.743263
0.746379
0.749079
0.751363
0.753233
0.754694
0.755756
0.756427
0.756715
0.756626
0.756169
0.755353
0.754187
0.75268
0.750845
0.748693
0.746237
0.743489
0.740465
0.737178
0.733644
0.729878
0.725897
0.721716
0.717354
0.712825
0.708149
0.70334
0.698419
0.6934
0.688301
0.683139
0.677931
0.672692
0.667439
0.66219
0.656939
0.651656
0.646537
0.642444
0.638811
-0.0194193
0.00137951
0.0062093
0.0081963
0.0122305
0.0161376
0.0201197
0.0243667
0.0288705
0.0336612
0.0387697
0.0442175
0.0500212
0.0561913
0.0627357
0.069661
0.0769701
0.0846631
0.0927375
0.101189
0.110009
0.119191
0.128723
0.138593
0.148788
0.159293
0.170093
0.181172
0.192513
0.2041
0.215914
0.227936
0.240148
0.252528
0.265056
0.27771
0.290472
0.303318
0.316229
0.329184
0.342163
0.355145
0.368111
0.381042
0.393919
0.406722
0.419434
0.432037
0.444514
0.456848
0.469024
0.481025
0.492836
0.504443
0.515832
0.52699
0.537902
0.548559
0.558945
0.569053
0.578868
0.588383
0.597586
0.606468
0.615021
0.623235
0.631103
0.638618
0.645771
0.652556
0.658966
0.664996
0.67064
0.675892
0.680748
0.685203
0.689253
0.692896
0.696127
0.698945
0.701349
0.703338
0.704911
0.70607
0.706819
0.707168
0.707126
0.706702
0.705902
0.704735
0.70321
0.701337
0.699125
0.696587
0.693734
0.69058
0.687137
0.683421
0.679446
0.675228
0.670783
0.666127
0.661277
0.656252
0.651067
0.645742
0.640293
0.634739
0.629097
0.623385
0.617621
0.611823
0.606005
0.600189
0.59439
0.588604
0.5828
0.577178
0.572622
0.56859
-0.0194601
0.000937155
0.00524283
0.00686391
0.0105045
0.0140016
0.0175796
0.0214201
0.0255142
0.0298927
0.034586
0.0396152
0.0449969
0.0507412
0.0568555
0.0633459
0.0702153
0.0774635
0.0850877
0.0930832
0.101443
0.110157
0.119216
0.128607
0.138316
0.148331
0.158634
0.169211
0.180045
0.191119
0.202414
0.213911
0.22559
0.237431
0.249413
0.261515
0.273717
0.285997
0.298335
0.310711
0.323103
0.335493
0.34786
0.360185
0.37245
0.384635
0.396723
0.408696
0.420538
0.43223
0.443759
0.455107
0.46626
0.477204
0.487924
0.498408
0.508643
0.518616
0.528317
0.537732
0.546853
0.555668
0.564169
0.572345
0.580189
0.587691
0.594845
0.601642
0.608076
0.61414
0.619828
0.625133
0.630052
0.634577
0.638706
0.642434
0.645756
0.64867
0.651173
0.653263
0.654939
0.656199
0.657046
0.657478
0.6575
0.657121
0.656351
0.655198
0.653672
0.651779
0.64953
0.646934
0.644002
0.640745
0.637175
0.633307
0.629153
0.624729
0.62005
0.615131
0.60999
0.604642
0.599106
0.5934
0.587541
0.581548
0.57544
0.569234
0.562949
0.556605
0.550219
0.543808
0.537393
0.53099
0.524619
0.518276
0.511929
0.50578
0.50074
0.496284
-0.0194994
0.0004748
0.00424182
0.00548434
0.0087162
0.0117889
0.0149483
0.0183677
0.0220375
0.025989
0.0302522
0.0348478
0.0397925
0.045096
0.050765
0.0568054
0.0632197
0.0700077
0.0771663
0.0846905
0.092573
0.100805
0.109374
0.118271
0.12748
0.136988
0.14678
0.156841
0.167153
0.177699
0.188459
0.199415
0.210545
0.221831
0.23325
0.244783
0.256409
0.268106
0.279855
0.291634
0.303424
0.315204
0.326956
0.338659
0.350295
0.361845
0.373293
0.384619
0.395807
0.406841
0.417705
0.428384
0.438862
0.449125
0.459161
0.468954
0.478494
0.487768
0.496764
0.505472
0.51388
0.52198
0.529761
0.537215
0.544334
0.551108
0.557531
0.563595
0.569294
0.574621
0.57957
0.584136
0.588313
0.592097
0.595483
0.598468
0.601047
0.603219
0.604979
0.606326
0.60726
0.60778
0.607885
0.607578
0.60686
0.605739
0.604227
0.602334
0.600068
0.597437
0.59445
0.591119
0.587452
0.583464
0.579165
0.574569
0.569691
0.564546
0.559148
0.553515
0.547663
0.54161
0.535374
0.528972
0.522424
0.515749
0.508965
0.502092
0.495149
0.488156
0.481131
0.474093
0.467061
0.460055
0.453095
0.446178
0.43927
0.432578
0.427036
0.422142
-0.0195376
-6.28751e-06
0.00320799
0.00405986
0.00686853
0.009503
0.0122301
0.0152143
0.0184456
0.021956
0.0257749
0.0299227
0.034416
0.0392645
0.0444737
0.0500496
0.0559944
0.0623075
0.0689858
0.0760241
0.0834148
0.0911487
0.0992152
0.107602
0.116297
0.125286
0.134554
0.144085
0.153861
0.163863
0.174074
0.184473
0.19504
0.205754
0.216596
0.227545
0.238579
0.249678
0.260822
0.27199
0.283161
0.294317
0.305437
0.316503
0.327495
0.338395
0.349186
0.35985
0.37037
0.380731
0.390915
0.400908
0.410696
0.420263
0.429598
0.438686
0.447515
0.456074
0.464351
0.472336
0.480017
0.487387
0.494434
0.501151
0.50753
0.513562
0.519239
0.524557
0.529506
0.534083
0.538279
0.542092
0.545515
0.548544
0.551175
0.553404
0.555228
0.556644
0.557649
0.558243
0.558422
0.558189
0.557543
0.556485
0.555016
0.553145
0.550881
0.548237
0.545219
0.541839
0.538105
0.534027
0.529616
0.524886
0.519846
0.514513
0.5089
0.503022
0.496895
0.490537
0.483963
0.477193
0.470243
0.463134
0.455884
0.448513
0.44104
0.433485
0.425869
0.418211
0.410531
0.402849
0.395185
0.387559
0.379991
0.372481
0.364994
0.357739
0.351676
0.346325
-0.0195748
-0.00050481
0.00214306
0.00259271
0.0049643
0.00714732
0.00942885
0.0119645
0.014744
0.0177998
0.0211609
0.0248472
0.0288756
0.0332552
0.0379911
0.0430887
0.0485502
0.0543747
0.0605589
0.0670973
0.0739825
0.0812054
0.0887554
0.0966211
0.10479
0.113247
0.121978
0.130965
0.14019
0.149636
0.159283
0.16911
0.179099
0.189229
0.199479
0.209829
0.220258
0.230745
0.24127
0.251812
0.262352
0.272869
0.283344
0.293757
0.304092
0.314328
0.324448
0.334436
0.344274
0.353946
0.363436
0.37273
0.381813
0.390671
0.399291
0.40766
0.415765
0.423596
0.431141
0.438389
0.445331
0.451957
0.458257
0.464225
0.469851
0.475128
0.480048
0.484606
0.488795
0.492608
0.496042
0.499089
0.501747
0.50401
0.505874
0.507337
0.508395
0.509046
0.509286
0.509116
0.508533
0.507537
0.50613
0.504312
0.502086
0.499456
0.496433
0.493028
0.489253
0.485115
0.480625
0.475793
0.47063
0.465149
0.459361
0.453282
0.446926
0.440307
0.433443
0.42635
0.419046
0.411548
0.403877
0.39605
0.388087
0.38001
0.371837
0.363589
0.355288
0.346953
0.338606
0.330267
0.321957
0.313696
0.305508
0.29739
0.289309
0.281476
0.274877
0.269053
-0.0196112
-0.00101943
0.00104877
0.00108516
0.00300636
0.00472536
0.00654877
0.00862308
0.0109379
0.0135263
0.0164168
0.0196288
0.0231791
0.027077
0.0313267
0.0359331
0.0408982
0.0462211
0.0518982
0.057924
0.0642913
0.0709912
0.0780136
0.0853469
0.0929779
0.100892
0.109072
0.117502
0.126164
0.135039
0.144109
0.153352
0.162751
0.172283
0.181928
0.191667
0.201477
0.211339
0.221232
0.231136
0.24103
0.250896
0.260712
0.270462
0.280125
0.289684
0.299121
0.308419
0.317562
0.326534
0.335318
0.3439
0.352267
0.360403
0.368296
0.375933
0.383303
0.390394
0.397194
0.403695
0.409885
0.415756
0.421299
0.426506
0.431369
0.43588
0.440033
0.443821
0.447239
0.45028
0.45294
0.455213
0.457096
0.458584
0.459674
0.460362
0.460646
0.460522
0.459991
0.459048
0.457695
0.455931
0.453756
0.451172
0.448181
0.444787
0.440999
0.436829
0.432289
0.427388
0.422137
0.416545
0.410625
0.404387
0.397846
0.391015
0.38391
0.376544
0.368937
0.361103
0.353061
0.34483
0.336429
0.327877
0.319194
0.310401
0.30152
0.29257
0.283573
0.274551
0.265526
0.256517
0.247548
0.238641
0.229818
0.221078
0.212388
0.203961
0.196809
0.190498
-0.0196471
-0.0015488
-7.31514e-05
-0.00046051
0.000997582
0.00224058
0.00359389
0.00519469
0.00703272
0.00914162
0.0115492
0.0142747
0.0173348
0.0207386
0.0244899
0.0285929
0.0330496
0.0378587
0.0430169
0.0485187
0.0543574
0.0605242
0.0670086
0.0737985
0.0808799
0.0882378
0.0958558
0.103717
0.111803
0.120096
0.128576
0.137224
0.146019
0.154942
0.163971
0.173086
0.182267
0.191492
0.200741
0.209995
0.219232
0.228434
0.237581
0.246654
0.255635
0.264505
0.273248
0.281845
0.290282
0.298541
0.306608
0.314468
0.322107
0.32951
0.336666
0.343561
0.350185
0.356525
0.362572
0.368314
0.373744
0.37885
0.383626
0.388063
0.392153
0.39589
0.399267
0.402277
0.404916
0.407177
0.409056
0.410547
0.411648
0.412354
0.412662
0.412569
0.412071
0.411168
0.409858
0.408139
0.40601
0.403471
0.400524
0.39717
0.39341
0.389249
0.384694
0.379755
0.374447
0.36878
0.362764
0.356409
0.349727
0.34273
0.335432
0.327846
0.319988
0.311873
0.303518
0.294939
0.286156
0.277187
0.268051
0.258769
0.249361
0.239848
0.23025
0.220591
0.210892
0.201175
0.191462
0.181776
0.172139
0.162574
0.153105
0.143732
0.134421
0.125389
0.117672
0.11086
-0.0196827
-0.00209151
-0.00122096
-0.002042
-0.00105916
-0.000303524
0.000568316
0.00168409
0.00303385
0.00465171
0.00656495
0.00879245
0.0113506
0.0142488
0.0174903
0.0210786
0.0250155
0.0293
0.0339289
0.0388972
0.0441979
0.0498218
0.0557577
0.061993
0.0685137
0.0753044
0.0823489
0.08963
0.0971296
0.104829
0.112709
0.12075
0.128932
0.137234
0.145636
0.154117
0.162656
0.171234
0.179828
0.188421
0.196991
0.205519
0.213985
0.222372
0.23066
0.238831
0.246869
0.254756
0.262477
0.270014
0.277354
0.284482
0.291383
0.298045
0.304454
0.310599
0.316467
0.322049
0.327332
0.332309
0.336968
0.341303
0.345303
0.348963
0.352273
0.355229
0.357822
0.360048
0.361901
0.363376
0.364467
0.365172
0.365485
0.365404
0.364925
0.364045
0.362763
0.361076
0.358983
0.356483
0.353575
0.350259
0.346536
0.342409
0.337879
0.332949
0.327625
0.321918
0.315841
0.309406
0.302623
0.295504
0.28806
0.280303
0.272247
0.263905
0.255293
0.246427
0.237323
0.227999
0.218472
0.208763
0.19889
0.188875
0.178738
0.1685
0.158183
0.14781
0.137403
0.126985
0.116579
0.106207
0.0958931
0.0856622
0.0755381
0.0655223
0.0555793
0.0459302
0.0376338
0.0303076
-0.0197183
-0.00264617
-0.00239292
-0.00365703
-0.00316099
-0.00290348
-0.00252386
-0.00190402
-0.00105338
6.25895e-05
0.00147061
0.00318928
0.00523466
0.00761644
0.0103376
0.0134007
0.0168079
0.0205585
0.0246495
0.0290755
0.0338288
0.0388996
0.0442767
0.0499471
0.0558967
0.06211
0.0685708
0.0752617
0.0821646
0.0892607
0.0965306
0.103955
0.111513
0.119184
0.126949
0.134786
0.142674
0.150594
0.158525
0.166447
0.17434
0.182185
0.189962
0.197652
0.205239
0.212702
0.220027
0.227195
0.23419
0.240998
0.247603
0.25399
0.260146
0.266058
0.271713
0.277099
0.282205
0.28702
0.291534
0.295737
0.29962
0.303176
0.306395
0.309271
0.311796
0.313964
0.315769
0.317205
0.318268
0.318951
0.319251
0.319164
0.318687
0.317815
0.316546
0.314877
0.312807
0.310333
0.307455
0.304172
0.300484
0.29639
0.291891
0.28699
0.281688
0.27599
0.269899
0.263424
0.256579
0.249377
0.24183
0.233948
0.225742
0.217226
0.208413
0.199316
0.189952
0.180335
0.170483
0.160413
0.150144
0.139695
0.129086
0.118337
0.10747
0.0965061
0.0854684
0.0743788
0.0632612
0.0521383
0.0410343
0.0299723
0.018977
0.0080733
-0.00271239
-0.0133793
-0.0239619
-0.0342378
-0.0431222
-0.0509739
-0.0197542
-0.00321133
-0.00358729
-0.00530327
-0.00530501
-0.00555576
-0.00567852
-0.00556487
-0.00522356
-0.00461967
-0.00372704
-0.00252734
-0.00100486
0.000850556
0.0030417
0.00557066
0.0084399
0.0116486
0.0151933
0.0190679
0.0232643
0.0277726
0.0325813
0.0376774
0.0430465
0.0486732
0.054541
0.0606324
0.0669292
0.0734127
0.0800633
0.0868613
0.0937865
0.100818
0.107937
0.115121
0.12235
0.129604
0.136863
0.144106
0.151314
0.158467