/*--------------------------------*- C++ -*----------------------------------*\
  =========                 |
  \\      /  F ield         | OpenFOAM: The Open Source CFD Toolbox
   \\    /   O peration     | Website:  https://openfoam.org
    \\  /    A nd           | Version:  9
     \\/     M anipulation  |
\*---------------------------------------------------------------------------*/
FoamFile
{
    format      ascii;
    class       volVectorField;
    location    "0.01";
    object      U;
}
// * * * * * * * * * * * * * * * * * * * * * * * * * * * * * * * * * * * * * //

dimensions      [0 1 -1 0 0 0 0];

internalField   nonuniform List<vector> 
8420
(
(24.3369 -1.50107 1.39457e-16)
(24.3303 -1.49742 -1.39488e-16)
(24.3235 -1.494 0)
(24.3164 -1.49081 0)
(24.3091 -1.48786 -1.39588e-16)
(24.3014 -1.48518 1.39623e-16)
(24.2935 -1.48276 0)
(24.2852 -1.48063 0)
(24.2766 -1.47879 0)
(24.2677 -1.47726 0)
(24.2584 -1.47605 0)
(24.2487 -1.47518 0)
(24.2387 -1.47465 0)
(24.2282 -1.4745 6.99799e-17)
(24.2173 -1.47473 -7.00043e-17)
(24.206 -1.47536 -7.00301e-17)
(24.1942 -1.47641 -2.32959e-22)
(24.182 -1.4779 7.00838e-17)
(24.1693 -1.47984 0)
(24.156 -1.48226 0)
(24.1422 -1.48518 0)
(24.1279 -1.48862 0)
(24.113 -1.49261 0)
(24.0975 -1.49716 3.5136e-17)
(24.0813 -1.50231 -7.03076e-17)
(24.0645 -1.50808 3.51723e-17)
(24.047 -1.51449 0)
(24.0287 -1.52159 0)
(24.0097 -1.5294 1.76164e-17)
(23.9904 -1.53795 -1.76272e-17)
(23.9703 -1.54729 0)
(23.9461 -1.55745 0)
(23.9166 -1.56849 0)
(23.8988 -1.58043 0)
(25.3625 -1.25039 -1.45938e-16)
(25.3634 -1.23661 7.29696e-17)
(25.3641 -1.22263 -7.29704e-17)
(25.3647 -1.20844 0)
(25.3652 -1.19404 0)
(25.3656 -1.17941 0)
(25.3658 -1.16454 -7.29771e-17)
(25.3658 -1.14943 -7.92485e-23)
(25.3656 -1.13406 -8.31534e-23)
(25.3653 -1.11841 7.29859e-17)
(25.3648 -1.10248 0)
(25.3642 -1.08625 0)
(25.3633 -1.06971 0)
(25.3623 -1.05285 0)
(25.361 -1.03565 7.30094e-17)
(25.3595 -1.01813 1.15197e-22)
(25.3578 -1.00042 1.20599e-22)
(25.3559 -0.982884 -3.65144e-17)
(25.3537 -0.964835 -3.65182e-17)
(25.3512 -0.946308 0)
(25.3484 -0.927296 0)
(25.3454 -0.907784 0)
(25.342 -0.887759 0)
(25.3383 -0.867201 0)
(25.3343 -0.846092 3.65466e-17)
(25.3299 -0.82441 -3.65524e-17)
(25.3251 -0.802132 0)
(25.32 -0.779229 0)
(25.3144 -0.755672 0)
(25.3084 -0.731432 9.14496e-18)
(25.302 -0.706453 -9.14696e-18)
(25.2951 -0.680527 0)
(25.2874 -0.652849 0)
(25.279 -0.620606 0)
(25.3872 -1.51043 -7.86215e-17)
(25.3872 -1.50169 0)
(25.3872 -1.49298 7.86267e-17)
(25.3872 -1.48428 -1.57258e-16)
(25.3873 -1.4756 1.57263e-16)
(25.3875 -1.46694 -7.86338e-17)
(25.3877 -1.45829 7.8636e-17)
(25.3879 -1.44965 -7.32829e-24)
(25.3882 -1.44104 -7.86398e-17)
(25.3886 -1.43247 0)
(25.3891 -1.4241 -7.86428e-17)
(25.3897 -1.41592 1.57288e-16)
(25.3904 -1.40758 -1.5729e-16)
(25.3911 -1.39928 1.57291e-16)
(25.392 -1.39092 -7.86454e-17)
(25.3931 -1.38253 0)
(25.3942 -1.37411 3.93222e-17)
(25.3955 -1.36563 -3.93216e-17)
(25.3969 -1.35713 -3.93208e-17)
(25.3985 -1.34859 3.932e-17)
(25.4003 -1.33996 -3.93189e-17)
(25.4022 -1.33125 3.93177e-17)
(25.4043 -1.32247 0)
(25.4067 -1.31362 3.93147e-17)
(25.4093 -1.3047 -3.93128e-17)
(25.4121 -1.2957 0)
(25.4152 -1.28661 0)
(25.4186 -1.27742 0)
(25.4223 -1.26813 -1.9651e-17)
(25.4263 -1.25872 1.96493e-17)
(25.4305 -1.24918 0)
(25.4352 -1.23952 4.91128e-18)
(25.4412 -1.22973 -4.91069e-18)
(25.4473 -1.21991 0)
(25.5846 -1.28125 0)
(25.5832 -1.26909 0)
(25.5817 -1.25691 0)
(25.58 -1.24472 0)
(25.5784 -1.23253 0)
(25.5766 -1.22032 0)
(25.5747 -1.20811 0)
(25.5728 -1.19591 0)
(25.5707 -1.1837 8.43155e-17)
(25.5686 -1.17151 -8.43234e-17)
(25.5664 -1.15932 0)
(25.564 -1.14715 4.21701e-17)
(25.5616 -1.135 3.9858e-23)
(25.5591 -1.12286 -8.43579e-17)
(25.5565 -1.11075 -4.16023e-23)
(25.5537 -1.09866 4.21884e-17)
(25.5509 -1.08661 0)
(25.548 -1.0746 0)
(25.545 -1.06262 -4.22035e-17)
(25.5419 -1.05069 8.44176e-17)
(25.5387 -1.03882 -4.22142e-17)
(25.5354 -1.027 0)
(25.532 -1.01525 0)
(25.5285 -1.00357 0)
(25.525 -0.991978 -2.11185e-17)
(25.5213 -0.98047 2.11215e-17)
(25.5176 -0.96906 2.11246e-17)
(25.5138 -0.957756 -2.11277e-17)
(25.51 -0.946567 0)
(25.506 -0.93549 0)
(25.5021 -0.924485 0)
(25.4979 -0.913543 0)
(25.4933 -0.902597 0)
(25.4892 -0.89092 0)
(25.7434 -1.43402 9.04558e-17)
(25.7436 -1.42225 -9.04584e-17)
(25.7437 -1.41045 -1.17687e-23)
(25.7437 -1.39864 9.04639e-17)
(25.7438 -1.38681 0)
(25.7438 -1.37496 0)
(25.7439 -1.36309 0)
(25.7439 -1.35121 0)
(25.7438 -1.3393 0)
(25.7438 -1.32737 0)
(25.7437 -1.31543 0)
(25.7437 -1.30346 0)
(25.7436 -1.29147 0)
(25.7435 -1.27946 0)
(25.7434 -1.26742 0)
(25.7433 -1.25537 0)
(25.7431 -1.24329 -4.52518e-17)
(25.743 -1.23118 4.52534e-17)
(25.7429 -1.21906 0)
(25.7427 -1.2069 0)
(25.7426 -1.19472 0)
(25.7424 -1.18251 0)
(25.7423 -1.17028 0)
(25.7421 -1.15802 0)
(25.742 -1.14572 0)
(25.7418 -1.1334 0)
(25.7416 -1.12104 0)
(25.7415 -1.10865 0)
(25.7414 -1.09622 0)
(25.7412 -1.08376 -1.13181e-17)
(25.7409 -1.07125 1.13185e-17)
(25.7408 -1.05871 -5.65945e-18)
(25.7412 -1.04611 5.65965e-18)
(25.7412 -1.03344 0)
(25.8938 -1.31138 0)
(25.8926 -1.2985 -9.711e-17)
(25.8913 -1.28571 1.94233e-16)
(25.89 -1.27319 -4.85615e-17)
(25.8886 -1.26067 -4.85652e-17)
(25.8871 -1.24818 -4.8569e-17)
(25.8855 -1.23572 -3.09657e-23)
(25.8838 -1.2233 4.85771e-17)
(25.8821 -1.21091 -4.85814e-17)
(25.8803 -1.19857 9.71715e-17)
(25.8784 -1.18627 3.46027e-23)
(25.8764 -1.17403 3.54568e-23)
(25.8744 -1.16184 3.62876e-23)
(25.8723 -1.1497 -4.86045e-17)
(25.8701 -1.13763 -4.86095e-17)
(25.8679 -1.12562 4.86146e-17)
(25.8656 -1.11369 -4.86198e-17)
(25.8632 -1.10182 4.8625e-17)
(25.8607 -1.09003 -2.43152e-17)
(25.8582 -1.07832 4.86359e-17)
(25.8557 -1.06669 -2.43207e-17)
(25.8531 -1.05514 0)
(25.8504 -1.04369 -2.43265e-17)
(25.8477 -1.03233 2.43293e-17)
(25.8449 -1.02105 2.43323e-17)
(25.8421 -1.00989 -2.43352e-17)
(25.8392 -0.998824 -1.21691e-17)
(25.8364 -0.987868 2.43413e-17)
(25.8334 -0.977021 -1.21721e-17)
(25.8305 -0.966283 1.21737e-17)
(25.8276 -0.95564 -6.08759e-18)
(25.8245 -0.945025 6.41481e-24)
(25.8212 -0.934154 -6.08915e-18)
(25.8186 -0.921861 0)
(26.1076 -1.38144 -2.20593e-23)
(26.1071 -1.36727 -2.35016e-23)
(26.1065 -1.35311 -2.50334e-23)
(26.1058 -1.33896 5.20492e-17)
(26.1049 -1.32482 -5.20522e-17)
(26.104 -1.31069 5.20553e-17)
(26.103 -1.29657 0)
(26.1019 -1.28246 0)
(26.1007 -1.26837 5.20654e-17)
(26.0994 -1.25429 -5.2069e-17)
(26.0981 -1.24023 0)
(26.0966 -1.22619 5.20767e-17)
(26.0951 -1.21218 -5.20806e-17)
(26.0935 -1.19818 0)
(26.0917 -1.18421 5.2089e-17)
(26.0899 -1.17026 -1.04187e-16)
(26.0881 -1.15634 5.20977e-17)
(26.0861 -1.14244 2.60512e-17)
(26.084 -1.12857 2.34035e-23)
(26.0819 -1.11474 2.41654e-23)
(26.0796 -1.10093 -2.60584e-17)
(26.0772 -1.08717 0)
(26.0747 -1.07345 2.60637e-17)
(26.0721 -1.05984 -2.60664e-17)
(26.0694 -1.04653 -2.60692e-17)
(26.0667 -1.0331 3.91082e-17)
(26.0638 -1.0198 1.44071e-23)
(26.0609 -1.00647 -1.30392e-17)
(26.0579 -0.993211 0)
(26.0548 -0.979972 0)
(26.0515 -0.96678 0)
(26.0482 -0.95361 0)
(26.0451 -0.94042 0)
(26.0421 -0.927059 0)
(26.2605 -1.31473 5.58618e-17)
(26.259 -1.29952 -1.11733e-16)
(26.2573 -1.28437 5.5871e-17)
(26.2555 -1.26926 0)
(26.2536 -1.25422 -5.58811e-17)
(26.2516 -1.2393 -4.47212e-23)
(26.2495 -1.2247 5.58918e-17)
(26.2472 -1.21013 5.58975e-17)
(26.2448 -1.1956 -5.59036e-17)
(26.2423 -1.18112 -5.59101e-17)
(26.2397 -1.16668 5.59167e-17)
(26.237 -1.15229 -5.59237e-17)
(26.2342 -1.13795 5.59308e-17)
(26.2313 -1.12368 -2.79691e-17)
(26.2283 -1.10948 5.59455e-17)
(26.2252 -1.09534 -5.59532e-17)
(26.222 -1.08125 2.79805e-17)
(26.2187 -1.06713 0)
(26.2153 -1.05279 0)
(26.2119 -1.03838 0)
(26.2083 -1.02408 -2.79968e-17)
(26.2046 -1.00991 -3.53183e-23)
(26.2008 -0.995889 -3.59589e-23)
(26.1969 -0.982148 1.40046e-17)
(26.1929 -0.968708 2.80134e-17)
(26.1888 -0.955344 -1.40088e-17)
(26.1846 -0.942081 0)
(26.1803 -0.928917 -1.40131e-17)
(26.176 -0.915854 7.00766e-18)
(26.1715 -0.902893 7.00879e-18)
(26.167 -0.890037 7.00994e-18)
(26.1623 -0.877287 -7.01108e-18)
(26.1576 -0.864656 0)
(26.1533 -0.852191 0)
(26.4546 -1.33436 1.19795e-16)
(26.453 -1.31729 -1.19806e-16)
(26.4512 -1.30026 1.19817e-16)
(26.4493 -1.28327 5.38755e-23)
(26.4472 -1.26632 -5.99206e-17)
(26.4449 -1.24942 5.99271e-17)
(26.4425 -1.23257 -5.99337e-17)
(26.44 -1.21577 5.99407e-17)
(26.4372 -1.19901 -5.99479e-17)
(26.4344 -1.18232 0)
(26.4313 -1.1657 0)
(26.4281 -1.14923 0)
(26.4248 -1.13324 0)
(26.4213 -1.11705 -2.9994e-17)
(26.4176 -1.10106 -4.1229e-23)
(26.4138 -1.08502 6.00065e-17)
(26.4099 -1.06908 -6.00163e-17)
(26.4058 -1.05314 6.00264e-17)
(26.4016 -1.03716 4.59768e-23)
(26.3972 -1.02072 4.70842e-23)
(26.3928 -1.00428 4.80925e-23)
(26.3882 -0.988009 -3.00343e-17)
(26.3836 -0.971951 0)
(26.3788 -0.956354 -1.50225e-17)
(26.3739 -0.940882 3.00502e-17)
(26.3689 -0.925505 -3.00557e-17)
(26.3637 -0.910229 3.00613e-17)
(26.3585 -0.895054 -1.50334e-17)
(26.3531 -0.879984 -7.51817e-18)
(26.3476 -0.865019 7.51962e-18)
(26.342 -0.850164 0)
(26.3362 -0.835422 -3.76131e-18)
(26.3305 -0.820801 1.88103e-18)
(26.325 -0.806346 1.98899e-18)
(26.6255 -1.30753 -6.42688e-17)
(26.6233 -1.28891 6.42762e-17)
(26.6209 -1.27035 -1.28568e-16)
(26.6183 -1.25186 -6.82595e-23)
(26.6156 -1.23344 6.43001e-17)
(26.6126 -1.21509 0)
(26.6095 -1.19682 0)
(26.6062 -1.17863 -3.21636e-17)
(26.6027 -1.16053 -4.2368e-23)
(26.599 -1.14252 3.21733e-17)
(26.5952 -1.1246 3.21784e-17)
(26.5912 -1.10677 -3.21836e-17)
(26.587 -1.08904 3.21891e-17)
(26.5827 -1.0714 -3.21946e-17)
(26.5781 -1.05387 -3.22004e-17)
(26.5734 -1.03643 6.44124e-17)
(26.5685 -1.0191 -6.44245e-17)
(26.5635 -1.00188 3.22184e-17)
(26.5582 -0.984764 3.22247e-17)
(26.5528 -0.967765 5.92683e-23)
(26.5473 -0.950885 -3.22377e-17)
(26.5417 -0.934134 0)
(26.5359 -0.917516 -1.61256e-17)
(26.53 -0.901034 1.6129e-17)
(26.524 -0.884687 -1.61325e-17)
(26.5179 -0.868475 -3.31614e-23)
(26.5116 -0.8524 3.22793e-17)
(26.5051 -0.836464 -8.07163e-18)
(26.4986 -0.820669 1.74325e-23)
(26.4919 -0.805016 -1.61508e-17)
(26.4852 -0.789509 1.61546e-17)
(26.4782 -0.774148 -1.21188e-17)
(26.4711 -0.758938 4.04058e-18)
(26.464 -0.743894 0)
(26.4572 -0.729066 0)
(26.8217 -1.30186 -6.89078e-17)
(26.8191 -1.28099 6.89171e-17)
(26.8161 -1.2602 0)
(26.813 -1.23948 3.44686e-17)
(26.8096 -1.21884 -3.44739e-17)
(26.806 -1.19828 0)
(26.8022 -1.1778 0)
(26.7982 -1.15742 0)
(26.7939 -1.13713 -3.44974e-17)
(26.7894 -1.11694 3.45037e-17)
(26.7847 -1.09686 0)
(26.7798 -1.07688 0)
(26.7747 -1.05701 0)
(26.7693 -1.03726 -3.45312e-17)
(26.7638 -1.01763 3.45385e-17)
(26.7581 -0.998119 0)
(26.7521 -0.978735 0)
(26.746 -0.959481 -3.45617e-17)
(26.7397 -0.940359 3.45697e-17)
(26.7331 -0.921373 0)
(26.7264 -0.902525 -1.72932e-17)
(26.7196 -0.883821 1.72975e-17)
(26.7125 -0.865263 0)
(26.7052 -0.846857 0)
(26.6978 -0.828606 0)
(26.6902 -0.810514 0)
(26.6825 -0.792583 0)
(26.6746 -0.774816 -8.66245e-18)
(26.6665 -0.757216 8.66484e-18)
(26.6583 -0.739785 0)
(26.6499 -0.722527 0)
(26.6413 -0.705444 0)
(26.6326 -0.688543 2.16871e-18)
(26.6239 -0.671835 -1.08467e-18)
(26.6154 -0.65538 -1.13848e-18)
(27.0107 -1.26314 3.69491e-17)
(27.0072 -1.24018 3.69553e-17)
(27.0035 -1.21731 -3.69617e-17)
(26.9995 -1.19454 0)
(26.9952 -1.17188 -3.69756e-17)
(26.9907 -1.14932 3.69828e-17)
(26.9859 -1.12688 -3.69904e-17)
(26.9808 -1.10456 7.39963e-17)
(26.9755 -1.08236 -3.70062e-17)
(26.9699 -1.06029 3.70146e-17)
(26.9641 -1.03836 -3.7023e-17)
(26.958 -1.01656 3.70319e-17)
(26.9516 -0.994914 8.36847e-23)
(26.9451 -0.973413 8.62304e-23)
(26.9383 -0.952065 -3.70597e-17)
(26.9312 -0.930876 0)
(26.924 -0.909848 1.85398e-17)
(26.9164 -0.888987 -1.85448e-17)
(26.9087 -0.868297 0)
(26.9008 -0.847782 1.85554e-17)
(26.8926 -0.827446 -3.71216e-17)
(26.8843 -0.807293 3.71326e-17)
(26.8757 -0.787326 -1.85719e-17)
(26.8669 -0.76755 0)
(26.8579 -0.747968 0)
(26.8488 -0.728583 9.29469e-18)
(26.8394 -0.709399 -9.29765e-18)
(26.8299 -0.690418 0)
(26.8202 -0.671644 -9.3038e-18)
(26.8103 -0.65308 9.30689e-18)
(26.8002 -0.634728 -4.65504e-18)
(26.79 -0.616592 4.65663e-18)
(26.7795 -0.598678 0)
(26.7691 -0.581001 0)
(26.7588 -0.563628 0)
(27.2159 -1.24003 3.9607e-17)
(27.2117 -1.21446 6.98378e-23)
(27.2071 -1.18899 -3.96232e-17)
(27.2022 -1.16364 0)
(27.197 -1.13841 -3.9641e-17)
(27.1915 -1.11331 3.96502e-17)
(27.1857 -1.08835 0)
(27.1795 -1.06352 0)
(27.1731 -1.03885 0)
(27.1663 -1.01433 -3.9691e-17)
(27.1592 -0.989971 -1.0207e-22)
(27.1519 -0.965778 7.94264e-17)
(27.1442 -0.941757 -3.97247e-17)
(27.1363 -0.917913 0)
(27.1281 -0.894253 0)
(27.1196 -0.870782 0)
(27.1108 -0.847505 1.98871e-17)
(27.1018 -0.824427 -1.98935e-17)
(27.0925 -0.801554 0)
(27.0829 -0.778891 -1.9907e-17)
(27.0731 -0.756442 1.99139e-17)
(27.063 -0.734213 0)
(27.0527 -0.712207 -1.99281e-17)
(27.0421 -0.690431 1.99354e-17)
(27.0313 -0.668887 0)
(27.0203 -0.647581 9.97519e-18)
(27.0091 -0.626516 -9.97897e-18)
(26.9976 -0.605696 0)
(26.986 -0.585126 0)
(26.9741 -0.564808 0)
(26.9621 -0.544746 0)
(26.9498 -0.524945 -4.99944e-18)
(26.9373 -0.505411 5.00148e-18)
(26.9248 -0.486162 0)
(26.9124 -0.467269 0)
(27.4215 -1.19895 -4.24563e-17)
(27.4163 -1.17073 0)
(27.4107 -1.14264 0)
(27.4048 -1.1147 4.24885e-17)
(27.3984 -1.08692 -4.24999e-17)
(27.3917 -1.05929 -4.2512e-17)
(27.3847 -1.03183 -1.11945e-22)
(27.3773 -1.00455 4.2537e-17)
(27.3695 -0.97745 0)
(27.3614 -0.950539 0)
(27.3529 -0.923825 2.12889e-17)
(27.344 -0.897315 -2.12961e-17)
(27.3349 -0.871016 0)
(27.3254 -0.844934 0)
(27.3156 -0.819075 2.13188e-17)
(27.3054 -0.793447 -4.26533e-17)
(27.295 -0.768056 2.13347e-17)
(27.2842 -0.742907 -2.1343e-17)
(27.2731 -0.718006 2.13513e-17)
(27.2618 -0.693361 0)
(27.2501 -0.668976 0)
(27.2381 -0.644856 0)
(27.2259 -0.621008 0)
(27.2134 -0.597437 0)
(27.2006 -0.574147 0)
(27.1876 -0.551144 -1.07073e-17)
(27.1743 -0.528431 1.07121e-17)
(27.1608 -0.506015 -1.0717e-17)
(27.147 -0.483899 1.07219e-17)
(27.1331 -0.462086 0)
(27.1189 -0.440582 0)
(27.1044 -0.419391 -2.68428e-18)
(27.0897 -0.39852 2.68556e-18)
(27.0749 -0.377988 -1.34344e-18)
(27.0603 -0.357877 1.39387e-18)
(27.6376 -1.16273 -9.09948e-17)
(27.6314 -1.1315 -1.13495e-22)
(27.6247 -1.10042 9.1048e-17)
(27.6176 -1.06952 1.25174e-22)
(27.61 -1.0388 -2.27763e-17)
(27.6021 -1.00827 -2.27839e-17)
(27.5937 -0.977937 -2.27918e-17)
(27.5849 -0.947813 4.55997e-17)
(27.5756 -0.917903 -2.28081e-17)
(27.566 -0.888218 -2.28168e-17)
(27.5559 -0.858766 2.28255e-17)
(27.5455 -0.829554 -2.28346e-17)
(27.5347 -0.800591 4.56877e-17)
(27.5234 -0.771884 -2.28533e-17)
(27.5118 -0.743442 -2.28631e-17)
(27.4999 -0.715272 4.5746e-17)
(27.4875 -0.687382 -2.28831e-17)
(27.4748 -0.659779 -2.28936e-17)
(27.4618 -0.63247 4.58081e-17)
(27.4484 -0.605463 -1.14573e-17)
(27.4346 -0.578764 -2.29258e-17)
(27.4206 -0.55238 1.14685e-17)
(27.4062 -0.526318 -1.14742e-17)
(27.3915 -0.500585 2.29598e-17)
(27.3764 -0.475186 -2.29715e-17)
(27.3611 -0.450127 1.14917e-17)
(27.3455 -0.425414 -1.14977e-17)
(27.3296 -0.401054 5.75186e-18)
(27.3135 -0.37705 -3.0475e-23)
(27.2971 -0.353409 -3.08843e-23)
(27.2804 -0.330135 1.15225e-17)
(27.2634 -0.307233 -8.64668e-18)
(27.2462 -0.284713 2.88384e-18)
(27.2289 -0.262595 1.44274e-18)
(27.2117 -0.240967 -1.49102e-18)
(27.8566 -1.11584 0)
(27.8492 -1.08149 0)
(27.8413 -1.04733 2.43931e-17)
(27.8329 -1.01338 -2.44019e-17)
(27.824 -0.979644 2.44112e-17)
(27.8146 -0.946133 -4.88414e-17)
(27.8047 -0.912858 2.44305e-17)
(27.7943 -0.879827 0)
(27.7835 -0.847052 0)
(27.7722 -0.81454 0)
(27.7604 -0.782303 -2.44728e-17)
(27.7482 -0.750349 2.4484e-17)
(27.7355 -0.718688 0)
(27.7224 -0.687328 0)
(27.7089 -0.65628 0)
(27.6949 -0.625551 0)
(27.6805 -0.595152 0)
(27.6657 -0.565089 0)
(27.6505 -0.535373 -1.22853e-17)
(27.6349 -0.506011 -6.47007e-23)
(27.6189 -0.477012 1.22988e-17)
(27.6025 -0.448383 0)
(27.5858 -0.420134 -1.23128e-17)
(27.5687 -0.39227 1.23199e-17)
(27.5512 -0.364801 0)
(27.5334 -0.337732 0)
(27.5153 -0.311072 -6.17102e-18)
(27.4969 -0.284826 1.23496e-17)
(27.4781 -0.259002 3.78764e-23)
(27.4591 -0.233605 -1.23649e-17)
(27.4397 -0.208641 3.09316e-18)
(27.4201 -0.184118 6.19032e-18)
(27.4001 -0.160043 -1.54856e-18)
(27.3801 -0.136443 -7.74784e-19)
(27.3602 -0.11341 -7.97561e-19)
(28.082 -1.06894 0)
(28.0734 -1.03122 0)
(28.0641 -0.993727 0)
(28.0543 -0.956473 -2.61478e-17)
(28.0439 -0.919469 2.61592e-17)
(28.033 -0.882725 -2.61711e-17)
(28.0215 -0.846251 2.61832e-17)
(28.0094 -0.810059 2.61959e-17)
(27.9969 -0.77416 -2.62087e-17)
(27.9838 -0.738564 0)
(27.9701 -0.703283 0)
(27.956 -0.668327 2.62496e-17)
(27.9413 -0.633706 -2.62638e-17)
(27.9262 -0.599432 0)
(27.9105 -0.565516 1.31468e-17)
(27.8944 -0.531967 -1.31544e-17)
(27.8777 -0.498796 0)
(27.8606 -0.466014 0)
(27.8431 -0.433631 0)
(27.8251 -0.401658 0)
(27.8066 -0.370103 0)
(27.7877 -0.338978 0)
(27.7684 -0.308291 0)
(27.7487 -0.278053 0)
(27.7286 -0.248273 6.61497e-18)
(27.7081 -0.218959 -6.61945e-18)
(27.6872 -0.190121 0)
(27.6659 -0.161767 0)
(27.6443 -0.133905 0)
(27.6224 -0.106544 -3.3191e-18)
(27.6001 -0.0796898 -2.41166e-23)
(27.5775 -0.0533518 3.32361e-18)
(27.5545 -0.0275408 0)
(27.5315 -0.00228344 0)
(27.5084 0.0223189 0)
(28.3098 -1.01518 -2.79775e-17)
(28.2997 -0.974002 2.79902e-17)
(28.289 -0.933088 0)
(28.2776 -0.892447 -2.80172e-17)
(28.2657 -0.852088 5.60625e-17)
(28.2531 -0.812025 1.29814e-22)
(28.2399 -0.77227 -2.80607e-17)
(28.2261 -0.732833 0)
(28.2117 -0.693727 0)
(28.1966 -0.654963 -2.81085e-17)
(28.181 -0.616555 -1.54688e-22)
(28.1649 -0.578514 2.81422e-17)
(28.1481 -0.540852 -1.40799e-17)
(28.1308 -0.503581 -8.44802e-23)
(28.1129 -0.466715 2.8196e-17)
(28.0945 -0.430264 -1.41073e-17)
(28.0755 -0.394242 0)
(28.056 -0.358661 -1.41267e-17)
(28.0359 -0.323534 1.41365e-17)
(28.0154 -0.288871 0)
(27.9943 -0.254687 0)
(27.9728 -0.220992 0)
(27.9507 -0.1878 -1.4178e-17)
(27.9282 -0.155121 7.09429e-18)
(27.9052 -0.122968 1.41997e-17)
(27.8818 -0.0913519 -1.42107e-17)
(27.858 -0.0602838 7.11057e-18)
(27.8337 -0.0297745 0)
(27.8091 0.000165442 0)
(27.784 0.0295259 -3.56226e-18)
(27.7586 0.058297 3.56462e-18)
(27.7328 0.0864685 0)
(27.7065 0.114027 0)
(27.6802 0.140944 0)
(27.6539 0.167108 0)
(28.5403 -0.959641 1.26558e-22)
(28.5287 -0.914885 -2.99849e-17)
(28.5165 -0.87042 0)
(28.5036 -0.826256 -3.0018e-17)
(28.49 -0.782407 -1.51338e-22)
(28.4757 -0.738883 -1.57425e-22)
(28.4607 -0.695698 6.01424e-17)
(28.4451 -0.652863 -1.50449e-17)
(28.4288 -0.610393 -1.50546e-17)
(28.4118 -0.568299 0)
(28.3942 -0.526594 -1.50747e-17)
(28.3759 -0.485294 1.5085e-17)
(28.3569 -0.44441 0)
(28.3374 -0.403958 -1.51066e-17)
(28.3172 -0.363951 3.02354e-17)
(28.2963 -0.324405 -1.5129e-17)
(28.2749 -0.285333 -1.51407e-17)
(28.2528 -0.24675 3.03048e-17)
(28.2302 -0.208673 -1.51644e-17)
(28.207 -0.171115 -1.51767e-17)
(28.1832 -0.134092 3.03783e-17)
(28.1588 -0.0976187 -7.6008e-18)
(28.1339 -0.0617112 -1.52141e-17)
(28.1084 -0.0263842 7.61203e-18)
(28.0824 0.00834721 7.61724e-18)
(28.0559 0.0424684 -1.52449e-17)
(28.0289 0.0759647 7.62736e-18)
(28.0014 0.108822 7.6316e-18)
(27.9734 0.141026 -1.14538e-17)
(27.945 0.172565 7.64028e-18)
(27.9162 0.203424 -3.8224e-18)
(27.8869 0.23359 1.91238e-18)
(27.8572 0.263047 -1.91356e-18)
(27.8273 0.291762 0)
(27.7973 0.319618 0)
(28.7712 -0.899729 -3.21022e-17)
(28.7582 -0.851374 6.42422e-17)
(28.7444 -0.803336 -4.82111e-17)
(28.7299 -0.755625 -8.70792e-23)
(28.7146 -0.708254 1.60909e-17)
(28.6986 -0.661234 0)
(28.6818 -0.614577 1.61127e-17)
(28.6643 -0.568295 -1.61239e-17)
(28.6461 -0.522403 0)
(28.6271 -0.476914 -1.61476e-17)
(28.6074 -0.431842 1.61596e-17)
(28.587 -0.387202 0)
(28.5659 -0.343009 0)
(28.544 -0.29928 -1.61981e-17)
(28.5215 -0.25603 -1.25647e-22)
(28.4982 -0.213276 1.62249e-17)
(28.4743 -0.171037 0)
(28.4497 -0.12933 -1.62532e-17)
(28.4244 -0.0881725 1.62675e-17)
(28.3984 -0.0475844 0)
(28.3717 -0.0075843 8.14584e-18)
(28.3445 0.0318086 -1.6303e-17)
(28.3165 0.0705749 8.15695e-18)
(28.288 0.108695 -8.16127e-18)
(28.2588 0.14615 -7.88072e-23)
(28.2291 0.18292 -8.02323e-23)
(28.1987 0.218986 8.17494e-18)
(28.1678 0.254329 4.08997e-18)
(28.1364 0.288932 -8.18497e-18)
(28.1045 0.322774 8.1902e-18)
(28.072 0.35584 -4.09777e-18)
(28.039 0.388112 0)
(28.0056 0.419568 -1.02586e-18)
(27.9718 0.450171 5.13282e-19)
(27.938 0.479796 5.1986e-19)
(29.002 -0.838101 -1.71928e-17)
(28.9875 -0.786157 0)
(28.9722 -0.734549 -1.72161e-17)
(28.9561 -0.683284 1.72282e-17)
(28.9392 -0.632373 1.72407e-17)
(28.9215 -0.581827 -1.72534e-17)
(28.903 -0.531656 0)
(28.8836 -0.481874 0)
(28.8635 -0.432494 -1.7294e-17)
(28.8426 -0.383528 1.73081e-17)
(28.8209 -0.334993 0)
(28.7984 -0.286905 0)
(28.7752 -0.23928 0)
(28.7511 -0.192136 0)
(28.7262 -0.145492 0)
(28.7006 -0.0993689 1.74004e-17)
(28.6741 -0.0537862 -8.70789e-18)
(28.6469 -0.00876614 -8.7139e-18)
(28.6189 0.0356686 8.7201e-18)
(28.5902 0.0794947 -1.74508e-17)
(28.5607 0.122688 8.72958e-18)
(28.5304 0.165225 0)
(28.4994 0.207079 0)
(28.4677 0.248226 0)
(28.4353 0.28864 -8.74879e-18)
(28.4022 0.328295 1.31311e-17)
(28.3684 0.367166 4.87838e-23)
(28.3339 0.405228 -4.38262e-18)
(28.2988 0.442454 0)
(28.2631 0.478822 0)
(28.2268 0.514307 0)
(28.1899 0.548884 -2.19756e-18)
(28.1524 0.582528 3.29882e-18)
(28.1146 0.615193 -1.10046e-18)
(28.0766 0.646748 0)
(29.2311 -0.774194 0)
(29.2151 -0.718763 0)
(29.1984 -0.663674 -1.84437e-17)
(29.1807 -0.608933 -1.20656e-22)
(29.1622 -0.554547 1.84727e-17)
(29.1429 -0.500526 0)
(29.1228 -0.446878 0)
(29.1018 -0.393614 0)
(29.0799 -0.340747 0)
(29.0572 -0.28829 0)
(29.0336 -0.236258 0)
(29.0091 -0.184669 0)
(28.9838 -0.13354 0)
(28.9576 -0.0828913 -9.31158e-18)
(28.9305 -0.0327451 1.86386e-17)
(28.9026 0.0168757 -9.32565e-18)
(28.8738 0.0659462 0)
(28.844 0.11444 -9.3358e-18)
(28.8135 0.16233 9.33992e-18)
(28.782 0.209587 0)
(28.7496 0.25618 0)
(28.7164 0.302077 0)
(28.6824 0.347248 0)
(28.6474 0.391657 0)
(28.6117 0.435272 0)
(28.5751 0.478059 0)
(28.5377 0.519982 0)
(28.4996 0.561008 0)
(28.4607 0.601103 0)
(28.421 0.640232 0)
(28.3807 0.678364 0)
(28.3396 0.715466 0)
(28.2979 0.751503 1.1783e-18)
(28.2557 0.78642 -1.17929e-18)
(28.2132 0.820077 0)
(29.4573 -0.709678 0)
(29.44 -0.650917 0)
(29.4219 -0.592491 0)
(29.4029 -0.534401 0)
(29.383 -0.476649 -1.97929e-17)
(29.3622 -0.419242 -1.49482e-22)
(29.3406 -0.362184 1.98286e-17)
(29.318 -0.305484 0)
(29.2946 -0.249154 0)
(29.2703 -0.193204 0)
(29.245 -0.13765 -9.95282e-18)
(29.2188 -0.0825089 1.99259e-17)
(29.1916 -0.0278002 -9.97149e-18)
(29.1635 0.0264542 0)
(29.1344 0.0802297 -9.98346e-18)
(29.1044 0.133499 -1.0288e-22)
(29.0733 0.186234 9.99088e-18)
(29.0412 0.238403 9.9952e-18)
(29.0082 0.28997 1.11924e-22)
(28.9741 0.3409 1.14981e-22)
(28.939 0.391155 -1.00096e-17)
(28.9029 0.440694 0)
(28.8658 0.489474 0)
(28.8277 0.537454 0)
(28.7886 0.584587 -5.01679e-18)
(28.7486 0.630829 1.00403e-17)
(28.7076 0.676133 -5.02367e-18)
(28.6656 0.720452 0)
(28.6227 0.763741 0)
(28.579 0.805953 2.5177e-18)
(28.5344 0.847044 -2.51977e-18)
(28.4889 0.886968 0)
(28.4427 0.92568 0)
(28.3958 0.963114 0)
(28.3486 0.999116 0)
(29.6792 -0.644908 -2.11305e-17)
(29.6607 -0.583055 4.22981e-17)
(29.6413 -0.521513 -2.1168e-17)
(29.6211 -0.460275 -2.11877e-17)
(29.6 -0.399338 -1.63784e-22)
(29.578 -0.338702 1.06139e-17)
(29.5552 -0.278369 1.06244e-17)
(29.5314 -0.218342 0)
(29.5066 -0.158628 0)
(29.481 -0.0992383 -1.06573e-17)
(29.4543 -0.0401849 1.0668e-17)
(29.4266 0.0185153 -1.0675e-17)
(29.3979 0.0768425 1.06799e-17)
(29.3681 0.134773 0)
(29.3373 0.192281 0)
(29.3054 0.249334 -1.06898e-17)
(29.2724 0.305899 1.06936e-17)
(29.2382 0.361938 -1.06981e-17)
(29.2029 0.417409 1.07026e-17)
(29.1664 0.472267 -1.07078e-17)
(29.1288 0.526464 1.07131e-17)
(29.09 0.579948 0)
(29.05 0.632666 0)
(29.0088 0.684561 0)
(28.9664 0.735574 0)
(28.9229 0.785644 0)
(28.8782 0.834709 0)
(28.8324 0.882706 0)
(28.7854 0.929574 0)
(28.7375 0.975249 2.69511e-18)
(28.6884 1.01967 -2.69746e-18)
(28.6383 1.06277 0)
(28.5873 1.1045 0)
(28.5355 1.14477 0)
(28.4832 1.18341 0)
(29.8952 -0.581102 0)
(29.8757 -0.516458 0)
(29.8553 -0.45208 1.13392e-17)
(29.8342 -0.387953 -1.13503e-17)
(29.8122 -0.324067 0)
(29.7893 -0.260411 0)
(29.7655 -0.196983 0)
(29.7407 -0.133779 1.13976e-17)
(29.7151 -0.070802 -1.141e-17)
(29.6884 -0.00805724 0)
(29.6607 0.0544448 0)
(29.6319 0.11669 0)
(29.602 0.178658 -1.14298e-17)
(29.571 0.240327 1.14323e-17)
(29.5388 0.301666 0)
(29.5054 0.362641 0)
(29.4707 0.423214 0)
(29.4348 0.48334 0)
(29.3976 0.542968 0)
(29.359 0.602044 0)
(29.3191 0.660508 0)
(29.2778 0.718295 0)
(29.235 0.775336 0)
(29.1909 0.831557 -5.74064e-18)
(29.1454 0.886883 5.7443e-18)
(29.0985 0.941232 0)
(29.0502 0.994522 0)
(29.0004 1.04667 0)
(28.9494 1.09759 0)
(28.897 1.1472 0)
(28.8434 1.19541 0)
(28.7884 1.24214 0)
(28.7323 1.28731 0)
(28.6753 1.33081 0)
(28.6174 1.37246 0)
(30.1039 -0.518914 0)
(30.0836 -0.451846 0)
(30.0625 -0.384978 1.21485e-17)
(30.0407 -0.318285 -1.2161e-17)
(30.0181 -0.251745 0)
(29.9946 -0.185341 1.21872e-17)
(29.9702 -0.119058 1.07088e-22)
(29.945 -0.0528858 1.10514e-22)
(29.9187 0.0131809 1.14087e-22)
(29.8915 0.0791422 -1.22259e-17)
(29.8632 0.144994 0)
(29.8337 0.210724 -1.2228e-17)
(29.8031 0.276318 1.22294e-17)
(29.7713 0.341751 1.22314e-17)
(29.7382 0.406994 -1.22336e-17)
(29.7038 0.472011 0)
(29.668 0.536757 0)
(29.6307 0.601182 6.1217e-18)
(29.592 0.665226 -6.12372e-18)
(29.5517 0.728824 0)
(29.5098 0.791902 0)
(29.4663 0.854381 -6.13174e-18)
(29.4212 0.916173 6.13488e-18)
(29.3744 0.977184 -6.13851e-18)
(29.3259 1.03732 6.14226e-18)
(29.2757 1.09646 0)
(29.2239 1.15452 3.07553e-18)
(29.1703 1.21137 5.45767e-23)
(29.1151 1.2669 -3.08049e-18)
(29.0582 1.321 3.08332e-18)
(28.9998 1.37355 -4.62933e-18)
(28.9398 1.42445 1.54466e-18)
(28.8783 1.47356 7.73167e-19)
(28.8156 1.52078 -7.74016e-19)
(28.7519 1.56589 0)
(30.3038 -0.459248 -1.29879e-17)
(30.283 -0.390171 2.60032e-17)
(30.2616 -0.321209 -1.30155e-17)
(30.2394 -0.252323 0)
(30.2165 -0.183478 -1.30442e-17)
(30.1928 -0.114645 1.30588e-17)
(30.1683 -0.0457965 0)
(30.143 0.0230871 0)
(30.1166 0.0920216 0)
(30.0893 0.161017 1.30819e-17)
(30.0609 0.230075 -1.30814e-17)
(30.0313 0.299193 0)
(30.0005 0.368359 0)
(29.9684 0.437553 0)
(29.935 0.506747 0)
(29.9001 0.575903 6.54287e-18)
(29.8636 0.644976 -6.54391e-18)
(29.8256 0.713907 -6.54538e-18)
(29.7858 0.782631 6.54698e-18)
(29.7443 0.851069 6.54906e-18)
(29.701 0.919135 -6.55128e-18)
(29.6558 0.986731 0)
(29.6086 1.05375 0)
(29.5595 1.12007 0)
(29.5083 1.18557 0)
(29.4551 1.25011 0)
(29.3998 1.31356 0)
(29.3424 1.37576 0)
(29.283 1.43656 -3.29178e-18)
(29.2216 1.49581 3.29467e-18)
(29.1583 1.55336 0)
(29.093 1.60906 -1.65067e-18)
(29.0258 1.66274 1.65245e-18)
(28.9572 1.71425 -4.13604e-19)
(28.8871 1.76335 4.08166e-19)
(30.4939 -0.402704 1.39137e-17)
(30.4728 -0.332077 0)
(30.4513 -0.261459 0)
(30.4291 -0.190798 0)
(30.4063 -0.120043 1.39762e-17)
(30.3829 -0.0491502 -1.39923e-17)
(30.3587 0.0219216 0)
(30.3337 0.0932067 -7.00007e-18)
(30.3077 0.164734 6.99871e-18)
(30.2808 0.236525 0)
(30.2529 0.308594 0)
(30.2238 0.380947 6.99579e-18)
(30.1934 0.453582 -1.39902e-17)
(30.1616 0.526484 6.99466e-18)
(30.1284 0.599631 -6.99455e-18)
(30.0937 0.672988 6.99454e-18)
(30.0572 0.746507 0)
(30.019 0.820129 0)
(29.9788 0.89378 0)
(29.9367 0.967373 6.99792e-18)
(29.8925 1.04081 -6.99953e-18)
(29.846 1.11396 0)
(29.7973 1.18671 0)
(29.7463 1.25891 -3.50364e-18)
(29.6928 1.33039 3.50531e-18)
(29.6368 1.401 0)
(29.5784 1.47054 0)
(29.5174 1.53883 3.51213e-18)
(29.4539 1.60567 -3.51486e-18)
(29.3879 1.67085 0)
(29.3195 1.73416 0)
(29.2487 1.79541 0)
(29.1756 1.85439 0)
(29.1004 1.91088 0)
(29.0235 1.96459 0)
(30.6731 -0.349864 1.15892e-22)
(30.6521 -0.278168 1.16865e-22)
(30.6307 -0.206362 -1.49393e-17)
(30.6089 -0.134376 0)
(30.5866 -0.0621415 0)
(30.5638 0.0104032 0)
(30.5404 0.0833156 7.49176e-18)
(30.5162 0.156647 -7.48923e-18)
(30.4912 0.230443 0)
(30.4653 0.304742 0)
(30.4383 0.379572 0)
(30.4103 0.454954 -7.48063e-18)
(30.3809 0.530898 -7.62244e-23)
(30.3502 0.607402 7.47722e-18)
(30.3179 0.684452 0)
(30.284 0.762021 -7.4749e-18)
(30.2482 0.840064 7.47403e-18)
(30.2105 0.918523 0)
(30.1707 0.99732 7.47357e-18)
(30.1286 1.07636 -7.47376e-18)
(30.0842 1.15553 3.7373e-18)
(30.0372 1.2347 -3.73784e-18)
(29.9875 1.31371 3.73875e-18)
(29.9351 1.39238 -3.7398e-18)
(29.8798 1.47052 0)
(29.8215 1.54793 0)
(29.7602 1.62436 3.74504e-18)
(29.6958 1.69957 -3.74734e-18)
(29.6283 1.77331 1.87508e-18)
(29.5578 1.8453 -1.87658e-18)
(29.4842 1.91527 1.87836e-18)
(29.4076 1.98296 -9.40096e-19)
(29.3282 2.04807 -9.41177e-19)
(29.2462 2.11035 0)
(29.1619 2.16943 0)
(30.8407 -0.301092 0)
(30.82 -0.228823 7.9929e-18)
(30.7991 -0.156312 -8.00206e-18)
(30.7781 -0.0834709 0)
(30.7567 -0.0102126 0)
(30.7349 0.0635446 0)
(30.7126 0.137878 0)
(30.6897 0.212859 0)
(30.6662 0.288553 0)
(30.6418 0.365017 0)
(30.6165 0.442302 0)
(30.5901 0.520445 0)
(30.5624 0.599476 0)
(30.5334 0.67941 0)
(30.5027 0.760247 7.98774e-18)
(30.4704 0.841973 -7.98503e-18)
(30.4361 0.924554 0)
(30.3997 1.00794 0)
(30.361 1.09205 0)
(30.3198 1.17679 0)
(30.2759 1.26204 0)
(30.229 1.34765 0)
(30.1792 1.43344 -3.98873e-18)
(30.126 1.51921 3.98917e-18)
(30.0695 1.60472 3.9901e-18)
(30.0094 1.68971 -3.99126e-18)
(29.9457 1.77389 0)
(29.8782 1.85696 0)
(29.8069 1.93857 0)
(29.7319 2.01839 0)
(29.6531 2.09605 0)
(29.5706 2.17118 0)
(29.4845 2.24343 0)
(29.3951 2.31242 0)
(29.3028 2.37774 0)
(30.9962 -0.25664 0)
(30.9761 -0.184286 -8.56164e-18)
(30.9561 -0.111555 1.7143e-17)
(30.936 -0.0383351 -8.58141e-18)
(30.9158 0.0354789 0)
(30.8955 0.109991 8.57894e-18)
(30.8748 0.1853 -8.57349e-18)
(30.8537 0.2615 0)
(30.832 0.338681 0)
(30.8097 0.416924 -8.55728e-18)
(30.7866 0.496302 8.55184e-18)
(30.7625 0.57688 -8.54659e-18)
(30.7372 0.658708 8.5413e-18)
(30.7105 0.741828 -4.26815e-18)
(30.6823 0.82626 4.26566e-18)
(30.6523 0.912013 0)
(30.6203 0.999069 0)
(30.586 1.08739 0)
(30.5493 1.17692 -4.25726e-18)
(30.5098 1.26755 8.51121e-18)
(30.4673 1.35917 6.06337e-23)
(30.4215 1.45162 -4.25312e-18)
(30.3722 1.54469 0)
(30.3192 1.63816 0)
(30.2622 1.73176 0)
(30.2009 1.82516 -2.12627e-18)
(30.1353 1.91803 2.12669e-18)
(30.0652 2.00996 2.12747e-18)
(29.9905 2.10054 -2.12842e-18)
(29.9111 2.18931 0)
(29.827 2.27582 1.06568e-18)