/*--------------------------------*- C++ -*----------------------------------*\
  =========                 |
  \\      /  F ield         | OpenFOAM: The Open Source CFD Toolbox
   \\    /   O peration     | Website:  https://openfoam.org
    \\  /    A nd           | Version:  8
     \\/     M anipulation  |
\*---------------------------------------------------------------------------*/
FoamFile
{
    version     2.0;
    format      ascii;
    class       volScalarField;
    location    "14";
    object      p;
}
// * * * * * * * * * * * * * * * * * * * * * * * * * * * * * * * * * * * * * //

dimensions      [0 2 -2 0 0 0 0];

internalField   nonuniform List<scalar> 
277560
(
-0.591489
-0.592259
-0.594166
-0.596978
-0.600589
-0.604985
-0.610136
-0.615993
-0.62251
-0.629644
-0.637358
-0.645613
-0.654372
-0.663599
-0.673259
-0.68332
-0.69375
-0.70452
-0.7156
-0.726963
-0.738582
-0.750433
-0.762491
-0.774734
-0.78714
-0.799688
-0.812359
-0.825133
-0.837993
-0.850923
-0.863906
-0.876927
-0.889973
-0.90303
-0.916086
-0.929128
-0.942147
-0.955131
-0.96807
-0.980955
-0.993779
-1.00653
-1.01921
-1.0318
-1.0443
-1.05671
-1.06901
-1.08121
-1.0933
-1.10527
-1.11712
-1.12885
-1.14045
-1.15193
-1.16328
-1.17449
-1.18557
-1.19651
-1.20732
-1.21798
-1.22851
-1.2389
-1.24914
-1.25925
-1.26921
-1.27903
-1.28871
-1.29825
-1.30765
-1.31691
-1.32603
-1.33501
-1.34385
-1.35255
-1.36112
-1.36956
-1.37785
-1.38602
-1.39405
-1.40196
-1.40973
-1.41738
-1.4249
-1.43229
-1.43956
-1.44671
-1.45374
-1.46065
-1.46744
-1.47412
-1.48068
-1.48713
-1.49346
-1.49969
-1.50581
-1.51182
-1.51773
-1.52353
-1.52923
-1.53484
-1.54034
-1.54574
-1.55105
-1.55627
-1.56139
-1.56642
-1.57136
-1.57621
-1.58098
-1.58566
-1.59026
-1.59477
-1.59921
-1.60356
-1.60783
-1.61203
-1.61615
-1.6202
-1.62418
-1.62808
-0.591069
-0.591815
-0.593706
-0.596513
-0.600121
-0.604514
-0.609662
-0.615517
-0.622031
-0.629165
-0.636878
-0.645132
-0.65389
-0.663116
-0.672777
-0.682838
-0.693269
-0.70404
-0.715122
-0.726486
-0.738108
-0.749961
-0.762022
-0.774268
-0.786677
-0.799228
-0.811902
-0.824681
-0.837545
-0.850479
-0.863466
-0.876493
-0.889544
-0.902606
-0.915667
-0.928716
-0.94174
-0.95473
-0.967675
-0.980567
-0.993397
-1.00616
-1.01884
-1.03144
-1.04395
-1.05636
-1.06867
-1.08088
-1.09297
-1.10495
-1.11681
-1.12855
-1.14016
-1.15164
-1.16299
-1.17422
-1.1853
-1.19625
-1.20707
-1.21774
-1.22827
-1.23867
-1.24892
-1.25903
-1.26901
-1.27884
-1.28852
-1.29807
-1.30748
-1.31674
-1.32587
-1.33486
-1.34371
-1.35242
-1.361
-1.36944
-1.37774
-1.38592
-1.39396
-1.40187
-1.40965
-1.4173
-1.42483
-1.43223
-1.43951
-1.44667
-1.4537
-1.46062
-1.46742
-1.4741
-1.48067
-1.48712
-1.49346
-1.4997
-1.50582
-1.51184
-1.51775
-1.52356
-1.52927
-1.53488
-1.54039
-1.5458
-1.55111
-1.55633
-1.56146
-1.5665
-1.57144
-1.5763
-1.58107
-1.58576
-1.59036
-1.59488
-1.59932
-1.60367
-1.60795
-1.61216
-1.61628
-1.62033
-1.62431
-1.62822
-0.590281
-0.591028
-0.592918
-0.595724
-0.599329
-0.603718
-0.608864
-0.614717
-0.62123
-0.628362
-0.636075
-0.644329
-0.653088
-0.662316
-0.671978
-0.682042
-0.692477
-0.703251
-0.714337
-0.725706
-0.737332
-0.749191
-0.761258
-0.77351
-0.785926
-0.798485
-0.811167
-0.823953
-0.836826
-0.849769
-0.862766
-0.875802
-0.888863
-0.901935
-0.915007
-0.928066
-0.941101
-0.954102
-0.967059
-0.979962
-0.992804
-1.00558
-1.01827
-1.03088
-1.0434
-1.05583
-1.06815
-1.08037
-1.09248
-1.10447
-1.11634
-1.12809
-1.13971
-1.15121
-1.16258
-1.17381
-1.18491
-1.19587
-1.2067
-1.21739
-1.22793
-1.23834
-1.24861
-1.25873
-1.26871
-1.27856
-1.28826
-1.29782
-1.30723
-1.31651
-1.32565
-1.33465
-1.34351
-1.35223
-1.36082
-1.36927
-1.37759
-1.38577
-1.39383
-1.40175
-1.40954
-1.4172
-1.42474
-1.43215
-1.43944
-1.44661
-1.45365
-1.46058
-1.46739
-1.47408
-1.48065
-1.48712
-1.49347
-1.49971
-1.50585
-1.51187
-1.51779
-1.52361
-1.52933
-1.53494
-1.54046
-1.54588
-1.5512
-1.55643
-1.56156
-1.56661
-1.57156
-1.57642
-1.5812
-1.5859
-1.5905
-1.59503
-1.59948
-1.60384
-1.60813
-1.61234
-1.61647
-1.62053
-1.62451
-1.62843
-0.589114
-0.589852
-0.591732
-0.594528
-0.598125
-0.602508
-0.607647
-0.613496
-0.620005
-0.627135
-0.634846
-0.643099
-0.651858
-0.661087
-0.670751
-0.680818
-0.691256
-0.702034
-0.713125
-0.724499
-0.736132
-0.747998
-0.760073
-0.772334
-0.78476
-0.797328
-0.810021
-0.822818
-0.835703
-0.848658
-0.861668
-0.874717
-0.887792
-0.900879
-0.913965
-0.92704
-0.94009
-0.953107
-0.96608
-0.979001
-0.99186
-1.00465
-1.01736
-1.02999
-1.04253
-1.05497
-1.06732
-1.07955
-1.09168
-1.10369
-1.11558
-1.12735
-1.13899
-1.15051
-1.16189
-1.17315
-1.18427
-1.19525
-1.20609
-1.2168
-1.22737
-1.23779
-1.24808
-1.25822
-1.26822
-1.27809
-1.28781
-1.29738
-1.30682
-1.31612
-1.32528
-1.33429
-1.34317
-1.35191
-1.36052
-1.36899
-1.37732
-1.38553
-1.3936
-1.40154
-1.40934
-1.41703
-1.42458
-1.43201
-1.43931
-1.4465
-1.45356
-1.4605
-1.46732
-1.47403
-1.48062
-1.4871
-1.49347
-1.49973
-1.50588
-1.51192
-1.51785
-1.52369
-1.52941
-1.53504
-1.54057
-1.54601
-1.55134
-1.55658
-1.56173
-1.56679
-1.57175
-1.57663
-1.58142
-1.58613
-1.59075
-1.59528
-1.59974
-1.60412
-1.60841
-1.61263
-1.61678
-1.62085
-1.62484
-1.62876
-0.587573
-0.588298
-0.590167
-0.592952
-0.59654
-0.600915
-0.606048
-0.611891
-0.618397
-0.625524
-0.633233
-0.641486
-0.650245
-0.659476
-0.669143
-0.679213
-0.689656
-0.70044
-0.711538
-0.722921
-0.734563
-0.746439
-0.758525
-0.770798
-0.783236
-0.795819
-0.808526
-0.821339
-0.83424
-0.847212
-0.860239
-0.873307
-0.8864
-0.899507
-0.912613
-0.925708
-0.93878
-0.951819
-0.964814
-0.977757
-0.990639
-1.00345
-1.01619
-1.02884
-1.0414
-1.05387
-1.06624
-1.0785
-1.09065
-1.10269
-1.1146
-1.1264
-1.13807
-1.14961
-1.16102
-1.1723
-1.18344
-1.19445
-1.20532
-1.21606
-1.22665
-1.2371
-1.24741
-1.25758
-1.26761
-1.27749
-1.28724
-1.29684
-1.3063
-1.31563
-1.32481
-1.33385
-1.34275
-1.35152
-1.36015
-1.36864
-1.377
-1.38522
-1.39332
-1.40128
-1.40911
-1.41681
-1.42439
-1.43184
-1.43916
-1.44637
-1.45345
-1.46041
-1.46725
-1.47398
-1.48059
-1.48709
-1.49348
-1.49975
-1.50592
-1.51198
-1.51793
-1.52378
-1.52953
-1.53518
-1.54072
-1.54617
-1.55152
-1.55678
-1.56195
-1.56702
-1.572
-1.57689
-1.5817
-1.58642
-1.59105
-1.59561
-1.60008
-1.60447
-1.60878
-1.61301
-1.61717
-1.62125
-1.62526
-1.6292
-0.585667
-0.586375
-0.588229
-0.591001
-0.594578
-0.598943
-0.604068
-0.609904
-0.616404
-0.623527
-0.631234
-0.639486
-0.648246
-0.657478
-0.667148
-0.677223
-0.687672
-0.698464
-0.70957
-0.720963
-0.732616
-0.744504
-0.756603
-0.768891
-0.781344
-0.793943
-0.806668
-0.8195
-0.83242
-0.845413
-0.858462
-0.871552
-0.884668
-0.897798
-0.910929
-0.924049
-0.937147
-0.950212
-0.963235
-0.976205
-0.989115
-1.00196
-1.01472
-1.0274
-1.04
-1.0525
-1.06489
-1.07718
-1.08937
-1.10143
-1.11338
-1.12521
-1.13691
-1.14848
-1.15992
-1.17123
-1.18241
-1.19345
-1.20435
-1.21512
-1.22574
-1.23622
-1.24657
-1.25677
-1.26683
-1.27674
-1.28652
-1.29615
-1.30565
-1.315
-1.32421
-1.33328
-1.34221
-1.35101
-1.35967
-1.36819
-1.37658
-1.38483
-1.39295
-1.40094
-1.4088
-1.41653
-1.42413
-1.43161
-1.43896
-1.44619
-1.4533
-1.46029
-1.46716
-1.47391
-1.48055
-1.48707
-1.49348
-1.49978
-1.50597
-1.51205
-1.51803
-1.5239
-1.52967
-1.53534
-1.54091
-1.54638
-1.55175
-1.55703
-1.56222
-1.56731
-1.57231
-1.57722
-1.58205
-1.58679
-1.59144
-1.59601
-1.6005
-1.60491
-1.60924
-1.61349
-1.61766
-1.62176
-1.62579
-1.62974
-0.583402
-0.584091
-0.585927
-0.588684
-0.592247
-0.5966
-0.601715
-0.607543
-0.614037
-0.621155
-0.628859
-0.63711
-0.64587
-0.655105
-0.664779
-0.674859
-0.685315
-0.696116
-0.707232
-0.718636
-0.730303
-0.742205
-0.754321
-0.766625
-0.779097
-0.791716
-0.804462
-0.817316
-0.83026
-0.843277
-0.856351
-0.869468
-0.882612
-0.89577
-0.90893
-0.92208
-0.935209
-0.948306
-0.961361
-0.974364
-0.987307
-1.00018
-1.01298
-1.0257
-1.03833
-1.05086
-1.0633
-1.07562
-1.08784
-1.09995
-1.11193
-1.1238
-1.13553
-1.14715
-1.15863
-1.16998
-1.18119
-1.19227
-1.20321
-1.21401
-1.22467
-1.23519
-1.24557
-1.25581
-1.26591
-1.27586
-1.28567
-1.29534
-1.30487
-1.31426
-1.32351
-1.33262
-1.34158
-1.35041
-1.35911
-1.36766
-1.37609
-1.38437
-1.39253
-1.40055
-1.40844
-1.4162
-1.42384
-1.43135
-1.43873
-1.44599
-1.45313
-1.46015
-1.46705
-1.47383
-1.48049
-1.48705
-1.49349
-1.49981
-1.50603
-1.51214
-1.51815
-1.52404
-1.52984
-1.53553
-1.54113
-1.54662
-1.55202
-1.55732
-1.56253
-1.56765
-1.57267
-1.57761
-1.58246
-1.58722
-1.5919
-1.59649
-1.601
-1.60543
-1.60978
-1.61405
-1.61824
-1.62236
-1.62641
-1.63038
-0.580786
-0.581451
-0.583268
-0.586006
-0.589553
-0.593893
-0.598996
-0.604815
-0.611301
-0.618414
-0.626115
-0.634364
-0.643125
-0.652362
-0.662041
-0.672128
-0.682591
-0.693402
-0.704529
-0.715947
-0.727628
-0.739548
-0.751681
-0.764006
-0.776499
-0.789141
-0.801911
-0.81479
-0.827761
-0.840806
-0.85391
-0.867057
-0.880233
-0.893424
-0.906618
-0.919802
-0.932966
-0.946099
-0.959191
-0.972233
-0.985215
-0.998129
-1.01097
-1.02373
-1.0364
-1.04897
-1.06145
-1.07382
-1.08608
-1.09822
-1.11025
-1.12216
-1.13394
-1.1456
-1.15712
-1.16851
-1.17977
-1.19089
-1.20188
-1.21272
-1.22343
-1.23399
-1.24442
-1.2547
-1.26484
-1.27483
-1.28469
-1.2944
-1.30397
-1.3134
-1.32269
-1.33184
-1.34085
-1.34972
-1.35845
-1.36705
-1.37551
-1.38383
-1.39203
-1.40009
-1.40802
-1.41582
-1.42349
-1.43104
-1.43846
-1.44575
-1.45293
-1.45998
-1.46691
-1.47373
-1.48043
-1.48702
-1.49349
-1.49985
-1.5061
-1.51224
-1.51828
-1.52421
-1.53003
-1.53576
-1.54138
-1.54691
-1.55233
-1.55766
-1.5629
-1.56804
-1.5731
-1.57806
-1.58293
-1.58772
-1.59242
-1.59704
-1.60157
-1.60603
-1.6104
-1.6147
-1.61891
-1.62306
-1.62712
-1.63112
-0.577825
-0.578464
-0.580258
-0.582976
-0.586505
-0.590829
-0.595919
-0.601727
-0.608205
-0.615312
-0.623008
-0.631256
-0.640018
-0.649258
-0.658941
-0.669035
-0.679507
-0.690329
-0.70147
-0.712902
-0.724601
-0.736539
-0.748693
-0.761039
-0.773557
-0.786224
-0.799021
-0.81193
-0.824931
-0.838008
-0.851145
-0.864326
-0.877537
-0.890766
-0.903997
-0.917221
-0.930425
-0.9436
-0.956733
-0.969818
-0.982844
-0.995803
-1.00869
-1.02149
-1.03421
-1.04683
-1.05935
-1.07177
-1.08408
-1.09627
-1.10835
-1.12031
-1.13214
-1.14384
-1.15542
-1.16686
-1.17816
-1.18934
-1.20037
-1.21126
-1.22202
-1.23263
-1.2431
-1.25343
-1.26362
-1.27367
-1.28357
-1.29333
-1.30295
-1.31243
-1.32176
-1.33096
-1.34001
-1.34893
-1.35771
-1.36635
-1.37486
-1.38323
-1.39146
-1.39957
-1.40754
-1.41538
-1.4231
-1.43069
-1.43815
-1.44549
-1.4527
-1.45979
-1.46677
-1.47362
-1.48036
-1.48698
-1.49349
-1.49989
-1.50618
-1.51235
-1.51842
-1.52439
-1.53025
-1.53601
-1.54167
-1.54722
-1.55268
-1.55805
-1.56332
-1.56849
-1.57357
-1.57857
-1.58347
-1.58829
-1.59302
-1.59766
-1.60223
-1.60671
-1.61111
-1.61543
-1.61968
-1.62384
-1.62794
-1.63195
-0.574526
-0.575136
-0.576905
-0.5796
-0.583109
-0.587415
-0.592491
-0.598287
-0.604755
-0.611855
-0.619547
-0.627793
-0.636555
-0.645798
-0.655486
-0.665587
-0.67607
-0.686903
-0.698059
-0.709508
-0.721225
-0.733184
-0.74536
-0.757732
-0.770276
-0.782972
-0.795799
-0.808739
-0.821774
-0.834886
-0.84806
-0.86128
-0.874531
-0.8878
-0.901074
-0.914341
-0.92759
-0.94081
-0.953991
-0.967123
-0.980197
-0.993206
-1.00614
-1.019
-1.03176
-1.04444
-1.05701
-1.06948
-1.08185
-1.09409
-1.10623
-1.11824
-1.13012
-1.14188
-1.15351
-1.16501
-1.17637
-1.1876
-1.19868
-1.20963
-1.22044
-1.23111
-1.24164
-1.25202
-1.26227
-1.27237
-1.28232
-1.29214
-1.30181
-1.31134
-1.32073
-1.32997
-1.33908
-1.34805
-1.35688
-1.36557
-1.37413
-1.38255
-1.39083
-1.39898
-1.40701
-1.4149
-1.42266
-1.43029
-1.4378
-1.44518
-1.45244
-1.45958
-1.4666
-1.47349
-1.48027
-1.48694
-1.49349
-1.49993
-1.50626
-1.51248
-1.51859
-1.52459
-1.53049
-1.53629
-1.54198
-1.54758
-1.55307
-1.55847
-1.56378
-1.56899
-1.5741
-1.57913
-1.58407
-1.58892
-1.59368
-1.59836
-1.60295
-1.60746
-1.6119
-1.61625
-1.62052
-1.62472
-1.62884
-1.63289
-0.570895
-0.571473
-0.573215
-0.575885
-0.579371
-0.583658
-0.588718
-0.5945
-0.600958
-0.60805
-0.615737
-0.62398
-0.632743
-0.641988
-0.651683
-0.661792
-0.672285
-0.683132
-0.694303
-0.70577
-0.717507
-0.729489
-0.74169
-0.754089
-0.766662
-0.779389
-0.792249
-0.805224
-0.818296
-0.831447
-0.844661
-0.857923
-0.871218
-0.884532
-0.897852
-0.911167
-0.924465
-0.937735
-0.950967
-0.964152
-0.977279
-0.990342
-1.00333
-1.01624
-1.02907
-1.0418
-1.05443
-1.06696
-1.07938
-1.09169
-1.10388
-1.11595
-1.1279
-1.13972
-1.15141
-1.16296
-1.17439
-1.18568
-1.19682
-1.20783
-1.21871
-1.22943
-1.24002
-1.25047
-1.26077
-1.27093
-1.28094
-1.29082
-1.30055
-1.31013
-1.31958
-1.32889
-1.33805
-1.34707
-1.35596
-1.36471
-1.37332
-1.38179
-1.39013
-1.39834
-1.40641
-1.41436
-1.42217
-1.42985
-1.43741
-1.44485
-1.45215
-1.45934
-1.46641
-1.47335
-1.48018
-1.48689
-1.49349
-1.49997
-1.50635
-1.51261
-1.51876
-1.52481
-1.53075
-1.53659
-1.54233
-1.54796
-1.5535
-1.55894
-1.56428
-1.56953
-1.57469
-1.57975
-1.58472
-1.58961
-1.59441
-1.59912
-1.60375
-1.6083
-1.61276
-1.61715
-1.62145
-1.62568
-1.62984
-1.63391
-0.56694
-0.567483
-0.569194
-0.571837
-0.575298
-0.579564
-0.584606
-0.590373
-0.596819
-0.603903
-0.611584
-0.619825
-0.628588
-0.637836
-0.647536
-0.657655
-0.668159
-0.67902
-0.690208
-0.701695
-0.713454
-0.72546
-0.737688
-0.750116
-0.76272
-0.775481
-0.788377
-0.80139
-0.814502
-0.827695
-0.840953
-0.85426
-0.867602
-0.880965
-0.894336
-0.907703
-0.921054
-0.934379
-0.947667
-0.960908
-0.974094
-0.987216
-1.00027
-1.01324
-1.02612
-1.03892
-1.05161
-1.06421
-1.07669
-1.08907
-1.10132
-1.11346
-1.12547
-1.13735
-1.14911
-1.16073
-1.17222
-1.18358
-1.19479
-1.20587
-1.2168
-1.2276
-1.23825
-1.24876
-1.25913
-1.26935
-1.27943
-1.28937
-1.29917
-1.30882
-1.31833
-1.32769
-1.33692
-1.34601
-1.35495
-1.36376
-1.37243
-1.38097
-1.38937
-1.39763
-1.40576
-1.41376
-1.42163
-1.42937
-1.43699
-1.44448
-1.45184
-1.45908
-1.4662
-1.4732
-1.48007
-1.48684
-1.49349
-1.50002
-1.50644
-1.51275
-1.51895
-1.52505
-1.53104
-1.53692
-1.5427
-1.54838
-1.55396
-1.55945
-1.56483
-1.57012
-1.57532
-1.58042
-1.58544
-1.59036
-1.5952
-1.59995
-1.60462
-1.6092
-1.61371
-1.61813
-1.62247
-1.62673
-1.63092
-1.63503
-0.562665
-0.56317
-0.564849
-0.567461
-0.570897
-0.57514
-0.580162
-0.585913
-0.592347
-0.59942
-0.607095
-0.615333
-0.624096
-0.633348
-0.643054
-0.653181
-0.663698
-0.674574
-0.68578
-0.697287
-0.70907
-0.721102
-0.733359
-0.745818
-0.758456
-0.771253
-0.784188
-0.797242
-0.810397
-0.823635
-0.83694
-0.850296
-0.863689
-0.877105
-0.89053
-0.903953
-0.917362
-0.930745
-0.944093
-0.957396
-0.970644
-0.98383
-0.996946
-1.00998
-1.02294
-1.0358
-1.04856
-1.06122
-1.07378
-1.08622
-1.09855
-1.11075
-1.12284
-1.13479
-1.14662
-1.15831
-1.16988
-1.1813
-1.19259
-1.20374
-1.21474
-1.22561
-1.23633
-1.24691
-1.25735
-1.26765
-1.2778
-1.2878
-1.29767
-1.30739
-1.31697
-1.3264
-1.33569
-1.34485
-1.35386
-1.36273
-1.37147
-1.38007
-1.38853
-1.39686
-1.40505
-1.41312
-1.42105
-1.42885
-1.43652
-1.44407
-1.45149
-1.45879
-1.46597
-1.47302
-1.47996
-1.48677
-1.49348
-1.50006
-1.50654
-1.5129
-1.51916
-1.5253
-1.53134
-1.53727
-1.54311
-1.54883
-1.55446
-1.55999
-1.56542
-1.57076
-1.576
-1.58115
-1.58621
-1.59118
-1.59606
-1.60085
-1.60556
-1.61018
-1.61472
-1.61919
-1.62357
-1.62787
-1.63209
-1.63624
-0.558077
-0.558542
-0.560185
-0.562766
-0.566172
-0.570391
-0.575392
-0.581126
-0.587545
-0.594608
-0.602277
-0.610511
-0.619273
-0.628528
-0.638241
-0.648378
-0.658907
-0.669799
-0.681024
-0.692553
-0.704361
-0.71642
-0.728708
-0.7412
-0.753875
-0.76671
-0.779686
-0.792784
-0.805984
-0.81927
-0.832626
-0.846035
-0.859482
-0.872954
-0.886438
-0.89992
-0.91339
-0.926836
-0.940249
-0.953618
-0.966934
-0.980188
-0.993373
-1.00648
-1.0195
-1.03244
-1.04527
-1.05801
-1.07064
-1.08316
-1.09556
-1.10784
-1.12
-1.13203
-1.14394
-1.15571
-1.16735
-1.17885
-1.19021
-1.20144
-1.21252
-1.22346
-1.23426
-1.24492
-1.25544
-1.26581
-1.27603
-1.28611
-1.29605
-1.30585
-1.3155
-1.325
-1.33437
-1.3436
-1.35268
-1.36162
-1.37043
-1.3791
-1.38763
-1.39603
-1.40429
-1.41242
-1.42041
-1.42828
-1.43602
-1.44363
-1.45112
-1.45848
-1.46571
-1.47283
-1.47983
-1.4867
-1.49346
-1.50011
-1.50664
-1.51306
-1.51937
-1.52557
-1.53166
-1.53765
-1.54353
-1.54932
-1.55499
-1.56057
-1.56606
-1.57144
-1.57673
-1.58193
-1.58703
-1.59205
-1.59697
-1.60181
-1.60657
-1.61123
-1.61582
-1.62032
-1.62474
-1.62909
-1.63335
-1.63754
-0.553183
-0.553604
-0.555209
-0.557756
-0.561132
-0.565323
-0.570302
-0.576017
-0.582421
-0.589473
-0.597133
-0.605363
-0.614125
-0.623383
-0.633102
-0.643249
-0.653792
-0.6647
-0.675945
-0.687497
-0.699331
-0.71142
-0.72374
-0.736268
-0.74898
-0.761857
-0.774876
-0.78802
-0.801269
-0.814606
-0.828015
-0.84148
-0.854985
-0.868517
-0.882062
-0.895608
-0.909143
-0.922657
-0.936138
-0.949577
-0.962964
-0.976291
-0.98955
-1.00273
-1.01583
-1.02884
-1.04176
-1.05457
-1.06728
-1.07988
-1.09236
-1.10472
-1.11696
-1.12908
-1.14106
-1.15292
-1.16464
-1.17622
-1.18767
-1.19898
-1.21014
-1.22117
-1.23205
-1.24279
-1.25338
-1.26383
-1.27414
-1.2843
-1.29432
-1.30419
-1.31392
-1.32351
-1.33295
-1.34225
-1.35141
-1.36043
-1.36931
-1.37805
-1.38666
-1.39513
-1.40346
-1.41166
-1.41973
-1.42767
-1.43548
-1.44316
-1.45071
-1.45814
-1.46544
-1.47262
-1.47968
-1.48662
-1.49345
-1.50015
-1.50675
-1.51323
-1.5196
-1.52585
-1.53201
-1.53805
-1.54399
-1.54983
-1.55556
-1.56119
-1.56673
-1.57217
-1.57751
-1.58276
-1.58791
-1.59298
-1.59795
-1.60284
-1.60764
-1.61235
-1.61698
-1.62153
-1.626
-1.63039
-1.63469
-1.63892
-0.547987
-0.548362
-0.549926
-0.552436
-0.55578
-0.559943
-0.564897
-0.570592
-0.57698
-0.58402
-0.591672
-0.599897
-0.608658
-0.617919
-0.627644
-0.637801
-0.648358
-0.659284
-0.670549
-0.682125
-0.693987
-0.706107
-0.718461
-0.731025
-0.743778
-0.756697
-0.769762
-0.782954
-0.796255
-0.809646
-0.823111
-0.836635
-0.850201
-0.863796
-0.877407
-0.89102
-0.904625
-0.918209
-0.931763
-0.945276
-0.958739
-0.972143
-0.98548
-0.998743
-1.01192
-1.02502
-1.03801
-1.05091
-1.0637
-1.07639
-1.08895
-1.1014
-1.11373
-1.12593
-1.138
-1.14994
-1.16175
-1.17342
-1.18496
-1.19635
-1.2076
-1.21871
-1.22968
-1.24051
-1.25119
-1.26173
-1.27212
-1.28236
-1.29247
-1.30242
-1.31224
-1.32191
-1.33143
-1.34082
-1.35006
-1.35916
-1.36812
-1.37694
-1.38562
-1.39417
-1.40258
-1.41086
-1.419
-1.42701
-1.43489
-1.44264
-1.45027
-1.45777
-1.46514
-1.47239
-1.47952
-1.48653
-1.49342
-1.50019
-1.50685
-1.5134
-1.51983
-1.52615
-1.53236
-1.53847
-1.54447
-1.55037
-1.55616
-1.56185
-1.56744
-1.57294
-1.57833
-1.58364
-1.58884
-1.59396
-1.59899
-1.60393
-1.60878
-1.61354
-1.61822
-1.62282
-1.62733
-1.63176
-1.63612
-1.64039
-0.542495
-0.542821
-0.544343
-0.546814
-0.550123
-0.554256
-0.559184
-0.564858
-0.571228
-0.578254
-0.585897
-0.594117
-0.602877
-0.61214
-0.621872
-0.632039
-0.64261
-0.653553
-0.66484
-0.676442
-0.688332
-0.700484
-0.712873
-0.725476
-0.738271
-0.751235
-0.764348
-0.777591
-0.790946
-0.804394
-0.817918
-0.831503
-0.845134
-0.858796
-0.872475
-0.886159
-0.899837
-0.913496
-0.927126
-0.940718
-0.954261
-0.967746
-0.981166
-0.994512
-1.00778
-1.02096
-1.03404
-1.04703
-1.05991
-1.07268
-1.08534
-1.09788
-1.1103
-1.12259
-1.13475
-1.14679
-1.15869
-1.17045
-1.18208
-1.19356
-1.20491
-1.21611
-1.22717
-1.23809
-1.24886
-1.25949
-1.26997
-1.28031
-1.2905
-1.30054
-1.31045
-1.3202
-1.32982
-1.33929
-1.34861
-1.3578
-1.36684
-1.37575
-1.38452
-1.39314
-1.40164
-1.40999
-1.41822
-1.42631
-1.43427
-1.4421
-1.4498
-1.45737
-1.46482
-1.47214
-1.47934
-1.48643
-1.49339
-1.50023
-1.50696
-1.51357
-1.52007
-1.52646
-1.53274
-1.53891
-1.54497
-1.55093
-1.55679
-1.56254
-1.56819
-1.57375
-1.5792
-1.58456
-1.58983
-1.595
-1.60008
-1.60507
-1.60998
-1.6148
-1.61953
-1.62417
-1.62874
-1.63322
-1.63763
-1.64194
-0.536713
-0.536987
-0.538464
-0.540894
-0.544166
-0.548267
-0.553168
-0.558818
-0.56517
-0.572182
-0.579814
-0.588028
-0.596786
-0.606052
-0.61579
-0.625968
-0.636553
-0.647515
-0.658824
-0.670451
-0.682371
-0.694556
-0.706982
-0.719626
-0.732464
-0.745475
-0.758639
-0.771935
-0.785346
-0.798853
-0.812439
-0.826089
-0.839787
-0.853519
-0.86727
-0.881029
-0.894783
-0.90852
-0.922231
-0.935904
-0.949531
-0.963102
-0.976609
-0.990043
-1.0034
-1.01667
-1.02984
-1.04292
-1.0559
-1.06876
-1.08152
-1.09415
-1.10667
-1.11906
-1.13132
-1.14345
-1.15544
-1.1673
-1.17903
-1.19061
-1.20205
-1.21336
-1.22451
-1.23553
-1.24639
-1.25712
-1.2677
-1.27813
-1.28841
-1.29855
-1.30855
-1.3184
-1.3281
-1.33767
-1.34708
-1.35636
-1.36549
-1.37449
-1.38334
-1.39206
-1.40063
-1.40908
-1.41738
-1.42556
-1.4336
-1.44151
-1.44929
-1.45695
-1.46447
-1.47187
-1.47915
-1.48631
-1.49335
-1.50026
-1.50707
-1.51375
-1.52032
-1.52678
-1.53313
-1.53937
-1.5455
-1.55152
-1.55744
-1.56326
-1.56898
-1.57459
-1.58011
-1.58553
-1.59086
-1.59609
-1.60123
-1.60628
-1.61124
-1.61612
-1.6209
-1.6256
-1.63022
-1.63476
-1.63921
-1.64358
-0.530645
-0.530866
-0.532295
-0.534682
-0.537915
-0.541982
-0.546854
-0.55248
-0.558811
-0.565807
-0.573429
-0.581636
-0.590392
-0.59966
-0.609404
-0.619593
-0.630192
-0.641173
-0.652504
-0.664159
-0.676109
-0.688328
-0.700793
-0.713478
-0.726361
-0.739421
-0.752637
-0.765989
-0.779458
-0.793027
-0.806678
-0.820395
-0.834163
-0.847968
-0.861794
-0.875631
-0.889464
-0.903284
-0.917079
-0.930838
-0.944552
-0.958213
-0.971811
-0.985338
-0.998787
-1.01215
-1.02542
-1.0386
-1.05167
-1.06464
-1.07749
-1.09023
-1.10284
-1.11533
-1.12769
-1.13993
-1.15202
-1.16399
-1.17581
-1.1875
-1.19905
-1.21045
-1.22171
-1.23282
-1.24379
-1.25462
-1.26529
-1.27583
-1.28621
-1.29645
-1.30654
-1.31649
-1.32629
-1.33595
-1.34546
-1.35483
-1.36406
-1.37315
-1.3821
-1.3909
-1.39957
-1.4081
-1.4165
-1.42476
-1.43289
-1.44089
-1.44875
-1.45649
-1.4641
-1.47158
-1.47894
-1.48618
-1.4933
-1.50029
-1.50717
-1.51393
-1.52058
-1.52711
-1.53353
-1.53984
-1.54604
-1.55214
-1.55813
-1.56402
-1.5698
-1.57548
-1.58106
-1.58655
-1.59194
-1.59723
-1.60244
-1.60755
-1.61257
-1.6175
-1.62234
-1.6271
-1.63178
-1.63637
-1.64088
-1.6453
-0.524298
-0.524462
-0.525841
-0.528183
-0.531375
-0.535407
-0.540248
-0.545847
-0.552157
-0.559137
-0.566746
-0.574946
-0.583699
-0.592968
-0.602719
-0.612918
-0.623532
-0.634531
-0.645886
-0.657568
-0.669549
-0.681804
-0.694308
-0.707036
-0.719967
-0.733077
-0.746347
-0.759756
-0.773286
-0.786918
-0.800637
-0.814424
-0.828265
-0.842145
-0.85605
-0.869968
-0.883885
-0.89779
-0.911672
-0.925521
-0.939327
-0.953081
-0.966773
-0.980397
-0.993944
-1.00741
-1.02078
-1.03406
-1.04723
-1.0603
-1.07326
-1.0861
-1.09882
-1.11142
-1.12389
-1.13622
-1.14843
-1.1605
-1.17243
-1.18423
-1.19588
-1.20739
-1.21875
-1.22998
-1.24105
-1.25198
-1.26276
-1.2734
-1.28389
-1.29423
-1.30443
-1.31448
-1.32438
-1.33414
-1.34376
-1.35323
-1.36255
-1.37174
-1.38078
-1.38968
-1.39845
-1.40707
-1.41556
-1.42392
-1.43214
-1.44022
-1.44818
-1.456
-1.4637
-1.47127
-1.47872
-1.48604
-1.49324
-1.50031
-1.50727
-1.51411
-1.52084
-1.52745
-1.53395
-1.54033
-1.54661
-1.55278
-1.55884
-1.5648
-1.57065
-1.57641
-1.58206
-1.58761
-1.59307
-1.59843
-1.60369
-1.60887
-1.61395
-1.61894
-1.62385
-1.62867
-1.6334
-1.63805
-1.64262
-1.64709
-0.517676
-0.517781
-0.519107
-0.521401
-0.524551
-0.528545
-0.533354
-0.538926
-0.545213
-0.552175
-0.559771
-0.567963
-0.576712
-0.585982
-0.595739
-0.605948
-0.616577
-0.627595
-0.638974
-0.650683
-0.662697
-0.674988
-0.687532
-0.700305
-0.713284
-0.726446
-0.739771
-0.75324
-0.766833
-0.780531
-0.794319
-0.808179
-0.822096
-0.836054
-0.850041
-0.864042
-0.878046
-0.892039
-0.906013
-0.919955
-0.933856
-0.947707
-0.961499
-0.975223
-0.988872
-1.00244
-1.01592
-1.0293
-1.04258
-1.05576
-1.06882
-1.08177
-1.0946
-1.10731
-1.11989
-1.13234
-1.14466
-1.15684
-1.16889
-1.18079
-1.19256
-1.20418
-1.21565
-1.22699
-1.23817
-1.24921
-1.26011
-1.27085
-1.28145
-1.2919
-1.30221
-1.31237
-1.32238
-1.33224
-1.34196
-1.35153
-1.36096
-1.37025
-1.37939
-1.3884
-1.39726
-1.40598
-1.41457
-1.42302
-1.43134
-1.43952
-1.44757
-1.45548
-1.46327
-1.47093
-1.47847
-1.48588
-1.49316
-1.50033
-1.50737
-1.5143
-1.5211
-1.52779
-1.53437
-1.54084
-1.54719
-1.55344
-1.55958
-1.56561
-1.57154
-1.57736
-1.58309
-1.58871
-1.59424
-1.59967
-1.605
-1.61024
-1.61539
-1.62045
-1.62542
-1.6303
-1.6351
-1.63981
-1.64443
-1.64897
-0.510785
-0.510827
-0.512099
-0.514343
-0.517448
-0.521403
-0.526177
-0.53172
-0.537984
-0.544926
-0.552509
-0.560691
-0.569436
-0.578707
-0.588468
-0.598687
-0.609331
-0.620369
-0.631771
-0.643509
-0.655556
-0.667884
-0.680469
-0.693287
-0.706315
-0.719531
-0.732914
-0.746444
-0.760101
-0.773868
-0.787728
-0.801663
-0.815658
-0.829697
-0.843768
-0.857856
-0.871949
-0.886035
-0.900103
-0.914141
-0.928141
-0.942093
-0.955987
-0.969816
-0.983571
-0.997246
-1.01083
-1.02433
-1.03772
-1.05101
-1.06419
-1.07725
-1.09019
-1.10302
-1.11571
-1.12828
-1.14071
-1.15301
-1.16517
-1.1772
-1.18908
-1.20081
-1.21241
-1.22386
-1.23516
-1.24631
-1.25732
-1.26818
-1.2789
-1.28946
-1.29988
-1.31015
-1.32027
-1.33024
-1.34007
-1.34975
-1.35929
-1.36868
-1.37793
-1.38704
-1.39601
-1.40484
-1.41353
-1.42208
-1.43049
-1.43877
-1.44692
-1.45493
-1.46282
-1.47057
-1.4782
-1.4857
-1.49308
-1.50033
-1.50746
-1.51448
-1.52137
-1.52815
-1.53481
-1.54136
-1.5478
-1.55412
-1.56034
-1.56645
-1.57246
-1.57836
-1.58416
-1.58986
-1.59546
-1.60096
-1.60636
-1.61167
-1.61689
-1.62202
-1.62705
-1.632
-1.63686
-1.64163
-1.64632
-1.65092
-0.503628
-0.503606
-0.504821
-0.507014
-0.510072
-0.513985
-0.518724
-0.524236
-0.530474
-0.537396
-0.544963
-0.553136
-0.561875
-0.571146
-0.580912
-0.591141
-0.601799
-0.612857
-0.624283
-0.636049
-0.648129
-0.660495
-0.673122
-0.685987
-0.699066
-0.712337
-0.725778
-0.739371
-0.753095
-0.766932
-0.780865
-0.794877
-0.808953
-0.823077
-0.837234
-0.851412
-0.865597
-0.879778
-0.893943
-0.908082
-0.922184
-0.93624
-0.950241
-0.964178
-0.978043
-0.991829
-1.00553
-1.01914
-1.03264
-1.04605
-1.05935
-1.07253
-1.08559
-1.09853
-1.11135
-1.12404
-1.13659
-1.14901
-1.16129
-1.17344
-1.18544
-1.1973
-1.20901
-1.22058
-1.23201
-1.24328
-1.25441
-1.26539
-1.27622
-1.2869
-1.29744
-1.30782
-1.31806
-1.32815
-1.33809
-1.34789
-1.35754
-1.36704
-1.3764
-1.38562
-1.3947
-1.40363
-1.41243
-1.42108
-1.4296
-1.43798
-1.44623
-1.45435
-1.46233
-1.47018
-1.47791
-1.48551
-1.49298
-1.50033
-1.50755
-1.51465
-1.52164
-1.5285
-1.53526
-1.54189
-1.54841
-1.55482
-1.56113
-1.56732
-1.57341
-1.57939
-1.58526
-1.59104
-1.59672
-1.60229
-1.60777
-1.61316
-1.61844
-1.62364
-1.62875
-1.63376
-1.63869
-1.64353
-1.64829
-1.65295
-0.496212
-0.496123
-0.497279
-0.499417
-0.502426
-0.506296
-0.510997
-0.516477
-0.522688
-0.529589
-0.53714
-0.545301
-0.554035
-0.563304
-0.573075
-0.583313
-0.593986
-0.605062
-0.616512
-0.628308
-0.640421
-0.652825
-0.665496
-0.678408
-0.691538
-0.704865
-0.718367
-0.732023
-0.745816
-0.759725
-0.773734
-0.787825
-0.801984
-0.816194
-0.830441
-0.844711
-0.858992
-0.873271
-0.887537
-0.901779
-0.915986
-0.93015
-0.94426
-0.958309
-0.972288
-0.986189
-1.00001
-1.01373
-1.02736
-1.04088
-1.0543
-1.06761
-1.08079
-1.09386
-1.1068
-1.11961
-1.13229
-1.14484
-1.15725
-1.16952
-1.18164
-1.19363
-1.20547
-1.21716
-1.22871
-1.24011
-1.25137
-1.26247
-1.27342
-1.28423
-1.29488
-1.30539
-1.31575
-1.32596
-1.33602
-1.34593
-1.3557
-1.36532
-1.3748
-1.38413
-1.39332
-1.40236
-1.41127
-1.42003
-1.42866
-1.43715
-1.44551
-1.45373
-1.46181
-1.46977
-1.4776
-1.48529
-1.49286
-1.50031
-1.50763
-1.51483
-1.52191
-1.52887
-1.53571
-1.54243
-1.54905
-1.55554
-1.56193
-1.56821
-1.57438
-1.58045
-1.58641
-1.59226
-1.59802
-1.60367
-1.60923
-1.61469
-1.62005
-1.62532
-1.6305
-1.63559
-1.64059
-1.6455
-1.65032
-1.65505
-0.48854
-0.488382
-0.489476
-0.491558
-0.494516
-0.498341
-0.503003
-0.508449
-0.514631
-0.521509
-0.529042
-0.537191
-0.545918
-0.555186
-0.564961
-0.575207
-0.585894
-0.596989
-0.608463
-0.620288
-0.632435
-0.644878
-0.657592
-0.670552
-0.683735
-0.697119
-0.710682
-0.724404
-0.738267
-0.75225
-0.766336
-0.780509
-0.794753
-0.809051
-0.82339
-0.837755
-0.852134
-0.866514
-0.880884
-0.895232
-0.909548
-0.923823
-0.938047
-0.952211
-0.966307
-0.980327
-0.994264
-1.00811
-1.02186
-1.03551
-1.04906
-1.06249
-1.0758
-1.089
-1.10207
-1.11501
-1.12782
-1.14049
-1.15303
-1.16543
-1.17769
-1.18981
-1.20178
-1.2136
-1.22528
-1.23681
-1.24819
-1.25942
-1.27051
-1.28144
-1.29222
-1.30285
-1.31334
-1.32367
-1.33385
-1.34389
-1.35378
-1.36352
-1.37311
-1.38256
-1.39187
-1.40103
-1.41005
-1.41893
-1.42767
-1.43627
-1.44474
-1.45307
-1.46126
-1.46933
-1.47726
-1.48506
-1.49273
-1.50028
-1.5077
-1.515
-1.52217
-1.52923
-1.53617
-1.54299
-1.54969
-1.55628
-1.56276
-1.56913
-1.57539
-1.58154
-1.58758
-1.59352
-1.59936
-1.6051
-1.61073
-1.61627
-1.62171
-1.62706
-1.63231
-1.63748
-1.64255
-1.64753
-1.65242
-1.65722
-0.480617
-0.480387
-0.481418
-0.483441
-0.486347
-0.490125
-0.494745
-0.500156
-0.506308
-0.513162
-0.520676
-0.528812
-0.53753
-0.546796
-0.556573
-0.566828
-0.577528
-0.588642
-0.60014
-0.611994
-0.624175
-0.636657
-0.649415
-0.662423
-0.67566
-0.689102
-0.702728
-0.716517
-0.73045
-0.744509
-0.758674
-0.772931
-0.787261
-0.80165
-0.816083
-0.830546
-0.845026
-0.859509
-0.873985
-0.888443
-0.902871
-0.91726
-0.931601
-0.945883
-0.9601
-0.974243
-0.988305
-1.00228
-1.01616
-1.02994
-1.04361
-1.05717
-1.07062
-1.08395
-1.09715
-1.11022
-1.12317
-1.13598
-1.14865
-1.16119
-1.17358
-1.18583
-1.19794
-1.2099
-1.22171
-1.23337
-1.24489
-1.25625
-1.26747
-1.27853
-1.28944
-1.30021
-1.31082
-1.32128
-1.33159
-1.34176
-1.35177
-1.36164
-1.37136
-1.38093
-1.39036
-1.39964
-1.40878
-1.41778
-1.42663
-1.43535
-1.44393
-1.45237
-1.46068
-1.46885
-1.47689
-1.4848
-1.49258
-1.50023
-1.50776
-1.51516
-1.52244
-1.52959
-1.53663
-1.54355
-1.55035
-1.55703
-1.56361
-1.57006
-1.57641
-1.58265
-1.58879
-1.59482
-1.60074
-1.60656
-1.61228
-1.6179
-1.62343
-1.62885
-1.63419
-1.63943
-1.64457
-1.64963
-1.6546
-1.65947
-0.472449
-0.472144
-0.473109
-0.475072
-0.477922
-0.481651
-0.486229
-0.491602
-0.497723
-0.504551
-0.512045
-0.520166
-0.528876
-0.538138
-0.547917
-0.558179
-0.568892
-0.580024
-0.591546
-0.603428
-0.615644
-0.628165
-0.640967
-0.654025
-0.667315
-0.680816
-0.694506
-0.708363
-0.722369
-0.736504
-0.750751
-0.765092
-0.779511
-0.793993
-0.808522
-0.823085
-0.837668
-0.852258
-0.866843
-0.881413
-0.895956
-0.910463
-0.924923