# Forces      
# CofR        : (0.000000e+00 0.000000e+00 0.000000e+00)
# Time        forces(pressure viscous)	moments(pressure viscous)
0.010582      	((4.002604e+01 1.241580e+02 -3.225772e-19) (1.296188e-01 -6.071988e-01 4.885289e-21)) ((-2.524077e-21 5.554006e-20 4.889795e+00) (3.463044e-23 -5.846234e-22 -8.285314e-02))
