/*--------------------------------*- C++ -*----------------------------------*\
  =========                 |
  \\      /  F ield         | OpenFOAM: The Open Source CFD Toolbox
   \\    /   O peration     | Website:  https://openfoam.org
    \\  /    A nd           | Version:  8
     \\/     M anipulation  |
\*---------------------------------------------------------------------------*/
FoamFile
{
    version     2.0;
    format      ascii;
    class       volScalarField;
    location    "0.01";
    object      nut;
}
// * * * * * * * * * * * * * * * * * * * * * * * * * * * * * * * * * * * * * //

dimensions      [0 2 -1 0 0 0 0];

internalField   nonuniform List<scalar> 
112642
(
2.78763e-08
2.78804e-08
2.78719e-08
2.78698e-08
2.78685e-08
2.78675e-08
2.78669e-08
2.78663e-08
2.78659e-08
2.78656e-08
2.78653e-08
2.7865e-08
2.78649e-08
2.78647e-08
2.78645e-08
2.78644e-08
2.78643e-08
2.78642e-08
2.78641e-08
2.7864e-08
2.7864e-08
2.78639e-08
2.78638e-08
2.78638e-08
2.78637e-08
2.78637e-08
2.78636e-08
2.78636e-08
2.78636e-08
2.78635e-08
2.78635e-08
2.78635e-08
2.78634e-08
2.78634e-08
2.78634e-08
2.78633e-08
2.78633e-08
2.78633e-08
2.78633e-08
2.78633e-08
2.78632e-08
2.78632e-08
2.78632e-08
2.78632e-08
2.78632e-08
2.78631e-08
2.78631e-08
2.78631e-08
2.78631e-08
2.78631e-08
2.78631e-08
2.78631e-08
2.7863e-08
2.7863e-08
2.7863e-08
2.7863e-08
2.7863e-08
2.7863e-08
2.7863e-08
2.7863e-08
2.7863e-08
2.7863e-08
2.7863e-08
2.78629e-08
2.78629e-08
2.78629e-08
2.78629e-08
2.78629e-08
2.78629e-08
2.78629e-08
2.78629e-08
2.78629e-08
2.78629e-08
2.78629e-08
2.78629e-08
2.78629e-08
2.78629e-08
2.78629e-08
2.78629e-08
2.78629e-08
2.78629e-08
2.78629e-08
2.78629e-08
2.78629e-08
2.78629e-08
2.78629e-08
2.78629e-08
2.78629e-08
2.78629e-08
2.78628e-08
2.78628e-08
2.78628e-08
2.78628e-08
2.78628e-08
2.78628e-08
2.78628e-08
2.78628e-08
2.78629e-08
2.78629e-08
2.78629e-08
2.78629e-08
2.78629e-08
2.78629e-08
2.78629e-08
2.78629e-08
2.78629e-08
2.78629e-08
2.78629e-08
2.78629e-08
2.78629e-08
2.78629e-08
2.78629e-08
2.78629e-08
2.78629e-08
2.78629e-08
2.78629e-08
2.78629e-08
2.78629e-08
2.78629e-08
2.78629e-08
2.78629e-08
2.78629e-08
2.78629e-08
2.78629e-08
2.7863e-08
2.7863e-08
2.7863e-08
2.7863e-08
2.7863e-08
2.7863e-08
2.7863e-08
2.7863e-08
2.7863e-08
2.7863e-08
2.7863e-08
2.78631e-08
2.78631e-08
2.78631e-08
2.78631e-08
2.78631e-08
2.78631e-08
2.78631e-08
2.78631e-08
2.78632e-08
2.78632e-08
2.78632e-08
2.78632e-08
2.78632e-08
2.78633e-08
2.78633e-08
2.78633e-08
2.78633e-08
2.78633e-08
2.78634e-08
2.78634e-08
2.78634e-08
2.78634e-08
2.78635e-08
2.78635e-08
2.78635e-08
2.78636e-08
2.78636e-08
2.78636e-08
2.78637e-08
2.78637e-08
2.78638e-08
2.78638e-08
2.78639e-08
2.78639e-08
2.7864e-08
2.7864e-08
2.78641e-08
2.78642e-08
2.78642e-08
2.78643e-08
2.78644e-08
2.78645e-08
2.78646e-08
2.78647e-08
2.78648e-08
2.78649e-08
2.78651e-08
2.78652e-08
2.78654e-08
2.78656e-08
2.78658e-08
2.7866e-08
2.78663e-08
2.78667e-08
2.78671e-08
2.78676e-08
2.78682e-08
2.78689e-08
2.78699e-08
2.78712e-08
2.78731e-08
2.7876e-08
2.78805e-08
2.78974e-08
2.78899e-08
2.78908e-08
2.79125e-08
2.7892e-08
2.78854e-08
2.78814e-08
2.78786e-08
2.78766e-08
2.7875e-08
2.78737e-08
2.78726e-08
2.78718e-08
2.78711e-08
2.78705e-08
2.787e-08
2.78695e-08
2.78692e-08
2.78688e-08
2.78685e-08
2.78683e-08
2.7868e-08
2.78678e-08
2.78676e-08
2.78674e-08
2.78672e-08
2.78671e-08
2.78669e-08
2.78668e-08
2.78667e-08
2.78666e-08
2.78664e-08
2.78663e-08
2.78662e-08
2.78662e-08
2.78661e-08
2.7866e-08
2.78659e-08
2.78658e-08
2.78658e-08
2.78657e-08
2.78656e-08
2.78656e-08
2.78655e-08
2.78655e-08
2.78654e-08
2.78653e-08
2.78653e-08
2.78653e-08
2.78652e-08
2.78652e-08
2.78651e-08
2.78651e-08
2.7865e-08
2.7865e-08
2.7865e-08
2.78649e-08
2.78649e-08
2.78649e-08
2.78649e-08
2.78648e-08
2.78648e-08
2.78648e-08
2.78648e-08
2.78647e-08
2.78647e-08
2.78647e-08
2.78647e-08
2.78646e-08
2.78646e-08
2.78646e-08
2.78646e-08
2.78646e-08
2.78646e-08
2.78646e-08
2.78645e-08
2.78645e-08
2.78645e-08
2.78645e-08
2.78645e-08
2.78645e-08
2.78645e-08
2.78645e-08
2.78645e-08
2.78645e-08
2.78644e-08
2.78644e-08
2.78644e-08
2.78644e-08
2.78644e-08
2.78644e-08
2.78644e-08
2.78644e-08
2.78644e-08
2.78644e-08
2.78644e-08
2.78644e-08
2.78644e-08
2.78644e-08
2.78644e-08
2.78644e-08
2.78644e-08
2.78644e-08
2.78644e-08
2.78644e-08
2.78645e-08
2.78645e-08
2.78645e-08
2.78645e-08
2.78645e-08
2.78645e-08
2.78645e-08
2.78645e-08
2.78645e-08
2.78645e-08
2.78645e-08
2.78646e-08
2.78646e-08
2.78646e-08
2.78646e-08
2.78646e-08
2.78646e-08
2.78647e-08
2.78647e-08
2.78647e-08
2.78647e-08
2.78647e-08
2.78648e-08
2.78648e-08
2.78648e-08
2.78648e-08
2.78649e-08
2.78649e-08
2.78649e-08
2.78649e-08
2.7865e-08
2.7865e-08
2.7865e-08
2.78651e-08
2.78651e-08
2.78652e-08
2.78652e-08
2.78652e-08
2.78653e-08
2.78653e-08
2.78654e-08
2.78654e-08
2.78655e-08
2.78655e-08
2.78656e-08
2.78656e-08
2.78657e-08
2.78658e-08
2.78658e-08
2.78659e-08
2.7866e-08
2.7866e-08
2.78661e-08
2.78662e-08
2.78663e-08
2.78664e-08
2.78665e-08
2.78666e-08
2.78667e-08
2.78668e-08
2.78669e-08
2.7867e-08
2.78672e-08
2.78673e-08
2.78675e-08
2.78676e-08
2.78678e-08
2.7868e-08
2.78682e-08
2.78684e-08
2.78686e-08
2.78688e-08
2.7869e-08
2.78693e-08
2.78696e-08
2.78699e-08
2.78702e-08
2.78706e-08
2.7871e-08
2.78715e-08
2.7872e-08
2.78726e-08
2.78732e-08
2.7874e-08
2.78748e-08
2.78759e-08
2.78771e-08
2.78786e-08
2.78805e-08
2.78828e-08
2.78858e-08
2.78897e-08
2.78954e-08
2.79039e-08
2.7918e-08
2.79597e-08
2.79182e-08
2.78998e-08
2.79414e-08
2.79105e-08
2.79003e-08
2.78939e-08
2.78894e-08
2.78861e-08
2.78835e-08
2.78814e-08
2.78796e-08
2.78782e-08
2.78771e-08
2.78761e-08
2.78753e-08
2.78745e-08
2.78739e-08
2.78733e-08
2.78728e-08
2.78724e-08
2.7872e-08
2.78716e-08
2.78713e-08
2.7871e-08
2.78707e-08
2.78704e-08
2.78702e-08
2.78699e-08
2.78697e-08
2.78695e-08
2.78694e-08
2.78692e-08
2.7869e-08
2.78689e-08
2.78687e-08
2.78686e-08
2.78684e-08
2.78683e-08
2.78682e-08
2.78681e-08
2.7868e-08
2.78679e-08
2.78678e-08
2.78677e-08
2.78676e-08
2.78675e-08
2.78674e-08
2.78674e-08
2.78673e-08
2.78672e-08
2.78672e-08
2.78671e-08
2.7867e-08
2.7867e-08
2.78669e-08
2.78669e-08
2.78668e-08
2.78668e-08
2.78667e-08
2.78667e-08
2.78666e-08
2.78666e-08
2.78665e-08
2.78665e-08
2.78665e-08
2.78664e-08
2.78664e-08
2.78664e-08
2.78663e-08
2.78663e-08
2.78663e-08
2.78663e-08
2.78662e-08
2.78662e-08
2.78662e-08
2.78662e-08
2.78661e-08
2.78661e-08
2.78661e-08
2.78661e-08
2.78661e-08
2.78661e-08
2.78661e-08
2.7866e-08
2.7866e-08
2.7866e-08
2.7866e-08
2.7866e-08
2.7866e-08
2.7866e-08
2.7866e-08
2.7866e-08
2.7866e-08
2.7866e-08
2.7866e-08
2.7866e-08
2.7866e-08
2.7866e-08
2.7866e-08
2.7866e-08
2.7866e-08
2.7866e-08
2.7866e-08
2.7866e-08
2.7866e-08
2.78661e-08
2.78661e-08
2.78661e-08
2.78661e-08
2.78661e-08
2.78661e-08
2.78661e-08
2.78662e-08
2.78662e-08
2.78662e-08
2.78662e-08
2.78662e-08
2.78663e-08
2.78663e-08
2.78663e-08
2.78663e-08
2.78664e-08
2.78664e-08
2.78664e-08
2.78665e-08
2.78665e-08
2.78665e-08
2.78666e-08
2.78666e-08
2.78667e-08
2.78667e-08
2.78668e-08
2.78668e-08
2.78669e-08
2.78669e-08
2.7867e-08
2.7867e-08
2.78671e-08
2.78671e-08
2.78672e-08
2.78673e-08
2.78673e-08
2.78674e-08
2.78675e-08
2.78676e-08
2.78676e-08
2.78677e-08
2.78678e-08
2.78679e-08
2.7868e-08
2.78681e-08
2.78682e-08
2.78683e-08
2.78684e-08
2.78686e-08
2.78687e-08
2.78688e-08
2.78689e-08
2.78691e-08
2.78692e-08
2.78694e-08
2.78696e-08
2.78697e-08
2.78699e-08
2.78701e-08
2.78703e-08
2.78706e-08
2.78708e-08
2.7871e-08
2.78713e-08
2.78716e-08
2.78718e-08
2.78722e-08
2.78725e-08
2.78728e-08
2.78732e-08
2.78736e-08
2.78741e-08
2.78745e-08
2.7875e-08
2.78756e-08
2.78762e-08
2.78769e-08
2.78777e-08
2.78785e-08
2.78794e-08
2.78805e-08
2.78818e-08
2.78832e-08
2.7885e-08
2.7887e-08
2.78894e-08
2.78925e-08
2.78963e-08
2.79012e-08
2.79076e-08
2.79168e-08
2.79304e-08
2.79524e-08
2.80156e-08
2.79359e-08
2.7907e-08
2.79678e-08
2.7928e-08
2.79146e-08
2.7906e-08
2.78999e-08
2.78954e-08
2.78918e-08
2.78889e-08
2.78866e-08
2.78846e-08
2.7883e-08
2.78817e-08
2.78805e-08
2.78795e-08
2.78786e-08
2.78778e-08
2.78771e-08
2.78765e-08
2.78759e-08
2.78754e-08
2.78749e-08
2.78745e-08
2.78741e-08
2.78737e-08
2.78734e-08
2.78731e-08
2.78728e-08
2.78725e-08
2.78723e-08
2.7872e-08
2.78718e-08
2.78716e-08
2.78714e-08
2.78712e-08
2.7871e-08
2.78708e-08
2.78707e-08
2.78705e-08
2.78703e-08
2.78702e-08
2.78701e-08
2.78699e-08
2.78698e-08
2.78697e-08
2.78696e-08
2.78695e-08
2.78694e-08
2.78693e-08
2.78692e-08
2.78691e-08
2.7869e-08
2.78689e-08
2.78689e-08
2.78688e-08
2.78687e-08
2.78686e-08
2.78686e-08
2.78685e-08
2.78684e-08
2.78684e-08
2.78683e-08
2.78683e-08
2.78682e-08
2.78682e-08
2.78681e-08
2.78681e-08
2.7868e-08
2.7868e-08
2.7868e-08
2.78679e-08
2.78679e-08
2.78679e-08
2.78678e-08
2.78678e-08
2.78678e-08
2.78678e-08
2.78677e-08
2.78677e-08
2.78677e-08
2.78677e-08
2.78677e-08
2.78676e-08
2.78676e-08
2.78676e-08
2.78676e-08
2.78676e-08
2.78676e-08
2.78676e-08
2.78676e-08
2.78676e-08
2.78676e-08
2.78676e-08
2.78676e-08
2.78676e-08
2.78676e-08
2.78676e-08
2.78676e-08
2.78676e-08
2.78676e-08
2.78676e-08
2.78676e-08
2.78676e-08
2.78676e-08
2.78676e-08
2.78677e-08
2.78677e-08
2.78677e-08
2.78677e-08
2.78677e-08
2.78678e-08
2.78678e-08
2.78678e-08
2.78678e-08
2.78679e-08
2.78679e-08
2.78679e-08
2.7868e-08
2.7868e-08
2.78681e-08
2.78681e-08
2.78681e-08
2.78682e-08
2.78682e-08
2.78683e-08
2.78683e-08
2.78684e-08
2.78684e-08
2.78685e-08
2.78686e-08
2.78686e-08
2.78687e-08
2.78688e-08
2.78688e-08
2.78689e-08
2.7869e-08
2.78691e-08
2.78692e-08
2.78693e-08
2.78693e-08
2.78694e-08
2.78695e-08
2.78696e-08
2.78698e-08
2.78699e-08
2.787e-08
2.78701e-08
2.78702e-08
2.78704e-08
2.78705e-08
2.78707e-08
2.78708e-08
2.7871e-08
2.78711e-08
2.78713e-08
2.78715e-08
2.78717e-08
2.78719e-08
2.78721e-08
2.78723e-08
2.78725e-08
2.78728e-08
2.78731e-08
2.78733e-08
2.78736e-08
2.78739e-08
2.78742e-08
2.78746e-08
2.78749e-08
2.78753e-08
2.78757e-08
2.78761e-08
2.78766e-08
2.78771e-08
2.78776e-08
2.78782e-08
2.78788e-08
2.78794e-08
2.78801e-08
2.78809e-08
2.78818e-08
2.78827e-08
2.78838e-08
2.7885e-08
2.78863e-08
2.78878e-08
2.78896e-08
2.78916e-08
2.7894e-08
2.78968e-08
2.79001e-08
2.79044e-08
2.79097e-08
2.79164e-08
2.79251e-08
2.79375e-08
2.79558e-08
2.79848e-08
2.8067e-08
2.79501e-08
2.7916e-08
2.7992e-08
2.79447e-08
2.79284e-08
2.79178e-08
2.79103e-08
2.79046e-08
2.79001e-08
2.78964e-08
2.78934e-08
2.7891e-08
2.7889e-08
2.78872e-08
2.78857e-08
2.78844e-08
2.78833e-08
2.78823e-08
2.78814e-08
2.78806e-08
2.78799e-08
2.78792e-08
2.78786e-08
2.7878e-08
2.78775e-08
2.78771e-08
2.78766e-08
2.78762e-08
2.78758e-08
2.78755e-08
2.78752e-08
2.78748e-08
2.78745e-08
2.78743e-08
2.7874e-08
2.78738e-08
2.78735e-08
2.78733e-08
2.78731e-08
2.78729e-08
2.78727e-08
2.78725e-08
2.78724e-08
2.78722e-08
2.7872e-08
2.78719e-08
2.78717e-08
2.78716e-08
2.78715e-08
2.78713e-08
2.78712e-08
2.78711e-08
2.7871e-08
2.78709e-08
2.78708e-08
2.78707e-08
2.78706e-08
2.78705e-08
2.78704e-08
2.78703e-08
2.78703e-08
2.78702e-08
2.78701e-08
2.78701e-08
2.787e-08
2.78699e-08
2.78699e-08
2.78698e-08
2.78698e-08
2.78697e-08
2.78697e-08
2.78696e-08
2.78696e-08
2.78695e-08
2.78695e-08
2.78694e-08
2.78694e-08
2.78694e-08
2.78694e-08
2.78693e-08
2.78693e-08
2.78693e-08
2.78692e-08
2.78692e-08
2.78692e-08
2.78692e-08
2.78692e-08
2.78692e-08
2.78692e-08
2.78691e-08
2.78691e-08
2.78691e-08
2.78691e-08
2.78691e-08
2.78691e-08
2.78691e-08
2.78691e-08
2.78691e-08
2.78691e-08
2.78691e-08
2.78692e-08
2.78692e-08
2.78692e-08
2.78692e-08
2.78692e-08
2.78692e-08
2.78693e-08
2.78693e-08
2.78693e-08
2.78693e-08
2.78694e-08
2.78694e-08
2.78694e-08
2.78695e-08
2.78695e-08
2.78695e-08
2.78696e-08
2.78696e-08
2.78697e-08
2.78697e-08
2.78698e-08
2.78698e-08
2.78699e-08
2.78699e-08
2.787e-08
2.78701e-08
2.78701e-08
2.78702e-08
2.78703e-08
2.78703e-08
2.78704e-08
2.78705e-08
2.78706e-08
2.78707e-08
2.78708e-08
2.78709e-08
2.7871e-08
2.78711e-08
2.78712e-08
2.78713e-08
2.78714e-08
2.78715e-08
2.78717e-08
2.78718e-08
2.78719e-08
2.78721e-08
2.78722e-08
2.78724e-08
2.78726e-08
2.78727e-08
2.78729e-08
2.78731e-08
2.78733e-08
2.78735e-08
2.78737e-08
2.78739e-08
2.78742e-08
2.78744e-08
2.78747e-08
2.78749e-08
2.78752e-08
2.78755e-08
2.78758e-08
2.78762e-08
2.78765e-08
2.78769e-08
2.78773e-08
2.78777e-08
2.78781e-08
2.78785e-08
2.7879e-08
2.78795e-08
2.78801e-08
2.78807e-08
2.78813e-08
2.78819e-08
2.78827e-08
2.78834e-08
2.78843e-08
2.78852e-08
2.78862e-08
2.78873e-08
2.78885e-08
2.78899e-08
2.78914e-08
2.78931e-08
2.7895e-08
2.78973e-08
2.78999e-08
2.79029e-08
2.79065e-08
2.79108e-08
2.79161e-08
2.79228e-08
2.79313e-08
2.79423e-08
2.79576e-08
2.79803e-08
2.80156e-08
2.8114e-08
2.79679e-08
2.79262e-08
2.80149e-08
2.79605e-08
2.79418e-08
2.79293e-08
2.79203e-08
2.79136e-08
2.79082e-08
2.79038e-08
2.79002e-08
2.78973e-08
2.78948e-08
2.78927e-08
2.78909e-08
2.78893e-08
2.7888e-08
2.78868e-08
2.78857e-08
2.78847e-08
2.78838e-08
2.7883e-08
2.78823e-08
2.78816e-08
2.7881e-08
2.78804e-08
2.78798e-08
2.78794e-08
2.78789e-08
2.78785e-08
2.78781e-08
2.78777e-08
2.78773e-08
2.7877e-08
2.78767e-08
2.78764e-08
2.78761e-08
2.78758e-08
2.78755e-08
2.78753e-08
2.78751e-08
2.78748e-08
2.78746e-08
2.78744e-08
2.78742e-08
2.78741e-08
2.78739e-08
2.78737e-08
2.78736e-08
2.78734e-08
2.78733e-08
2.78731e-08
2.7873e-08
2.78729e-08
2.78727e-08
2.78726e-08
2.78725e-08
2.78724e-08
2.78723e-08
2.78722e-08
2.78721e-08
2.7872e-08
2.78719e-08
2.78718e-08
2.78717e-08
2.78717e-08
2.78716e-08
2.78715e-08
2.78715e-08
2.78714e-08
2.78713e-08
2.78713e-08
2.78712e-08
2.78712e-08
2.78711e-08
2.78711e-08
2.7871e-08
2.7871e-08
2.7871e-08
2.78709e-08
2.78709e-08
2.78709e-08
2.78708e-08
2.78708e-08
2.78708e-08
2.78708e-08
2.78708e-08
2.78707e-08
2.78707e-08
2.78707e-08
2.78707e-08
2.78707e-08
2.78707e-08
2.78707e-08
2.78707e-08
2.78707e-08
2.78707e-08
2.78707e-08
2.78707e-08
2.78707e-08
2.78707e-08
2.78708e-08
2.78708e-08
2.78708e-08
2.78708e-08
2.78708e-08
2.78709e-08
2.78709e-08
2.78709e-08
2.78709e-08
2.7871e-08
2.7871e-08
2.78711e-08
2.78711e-08
2.78712e-08
2.78712e-08
2.78713e-08
2.78713e-08
2.78714e-08
2.78714e-08
2.78715e-08
2.78715e-08
2.78716e-08
2.78717e-08
2.78718e-08
2.78718e-08
2.78719e-08
2.7872e-08
2.78721e-08
2.78722e-08
2.78723e-08
2.78724e-08
2.78725e-08
2.78726e-08
2.78727e-08
2.78728e-08
2.78729e-08
2.78731e-08
2.78732e-08
2.78733e-08
2.78735e-08
2.78736e-08
2.78738e-08
2.7874e-08
2.78741e-08
2.78743e-08
2.78745e-08
2.78747e-08
2.78749e-08
2.78751e-08
2.78753e-08
2.78755e-08
2.78758e-08
2.7876e-08
2.78763e-08
2.78766e-08
2.78768e-08
2.78771e-08
2.78774e-08
2.78778e-08
2.78781e-08
2.78785e-08
2.78789e-08
2.78793e-08
2.78797e-08
2.78801e-08
2.78806e-08
2.78811e-08
2.78816e-08
2.78821e-08
2.78827e-08
2.78834e-08
2.7884e-08
2.78847e-08
2.78855e-08
2.78863e-08
2.78872e-08
2.78881e-08
2.78891e-08
2.78902e-08
2.78915e-08
2.78928e-08
2.78943e-08
2.78959e-08
2.78978e-08
2.78999e-08
2.79022e-08
2.7905e-08
2.79081e-08
2.79118e-08
2.79161e-08
2.79213e-08
2.79278e-08
2.79358e-08
2.79459e-08
2.79591e-08
2.79773e-08
2.80039e-08
2.80449e-08
2.81585e-08
2.79881e-08
2.79344e-08
2.80366e-08
2.79757e-08
2.79547e-08
2.79405e-08
2.79302e-08
2.79224e-08
2.79161e-08
2.7911e-08
2.79069e-08
2.79035e-08
2.79007e-08
2.78982e-08
2.78961e-08
2.78942e-08
2.78927e-08
2.78912e-08
2.78899e-08
2.78888e-08
2.78877e-08
2.78868e-08
2.78859e-08
2.78851e-08
2.78844e-08
2.78837e-08
2.78831e-08
2.78825e-08
2.78819e-08
2.78814e-08
2.7881e-08
2.78805e-08
2.78801e-08
2.78797e-08
2.78793e-08
2.78789e-08
2.78786e-08
2.78783e-08
2.7878e-08
2.78777e-08
2.78774e-08
2.78772e-08
2.78769e-08
2.78767e-08
2.78764e-08
2.78762e-08
2.7876e-08
2.78758e-08
2.78756e-08
2.78755e-08
2.78753e-08
2.78751e-08
2.7875e-08
2.78748e-08
2.78747e-08
2.78745e-08
2.78744e-08
2.78743e-08
2.78741e-08
2.7874e-08
2.78739e-08
2.78738e-08
2.78737e-08
2.78736e-08
2.78735e-08
2.78734e-08
2.78733e-08
2.78733e-08
2.78732e-08
2.78731e-08
2.7873e-08
2.7873e-08
2.78729e-08
2.78728e-08
2.78728e-08
2.78727e-08
2.78727e-08
2.78726e-08
2.78726e-08
2.78726e-08
2.78725e-08
2.78725e-08
2.78724e-08
2.78724e-08
2.78724e-08
2.78724e-08
2.78723e-08
2.78723e-08
2.78723e-08
2.78723e-08
2.78723e-08
2.78723e-08
2.78723e-08
2.78723e-08
2.78723e-08
2.78723e-08
2.78723e-08
2.78723e-08
2.78723e-08
2.78723e-08
2.78723e-08
2.78723e-08
2.78724e-08
2.78724e-08
2.78724e-08
2.78724e-08
2.78725e-08
2.78725e-08
2.78725e-08
2.78726e-08
2.78726e-08
2.78727e-08
2.78727e-08
2.78728e-08
2.78728e-08
2.78729e-08
2.78729e-08
2.7873e-08
2.78731e-08
2.78731e-08
2.78732e-08
2.78733e-08
2.78734e-08
2.78734e-08
2.78735e-08
2.78736e-08
2.78737e-08
2.78738e-08
2.78739e-08
2.7874e-08
2.78741e-08
2.78743e-08
2.78744e-08
2.78745e-08
2.78746e-08
2.78748e-08
2.78749e-08
2.78751e-08
2.78752e-08
2.78754e-08
2.78756e-08
2.78757e-08
2.78759e-08
2.78761e-08
2.78763e-08
2.78765e-08
2.78767e-08
2.7877e-08
2.78772e-08
2.78774e-08
2.78777e-08
2.7878e-08
2.78783e-08
2.78785e-08
2.78788e-08
2.78792e-08
2.78795e-08
2.78799e-08
2.78802e-08
2.78806e-08
2.7881e-08
2.78814e-08
2.78819e-08
2.78823e-08
2.78828e-08
2.78834e-08
2.78839e-08
2.78845e-08
2.78851e-08
2.78857e-08
2.78864e-08
2.78872e-08
2.78879e-08
2.78888e-08
2.78897e-08
2.78906e-08
2.78917e-08
2.78928e-08
2.7894e-08
2.78953e-08
2.78967e-08
2.78983e-08
2.79001e-08
2.7902e-08
2.79042e-08
2.79067e-08
2.79095e-08
2.79127e-08
2.79164e-08
2.79207e-08
2.79258e-08
2.79318e-08
2.79393e-08
2.79486e-08
2.79604e-08
2.79755e-08
2.79964e-08
2.80268e-08
2.80731e-08
2.82006e-08
2.80044e-08
2.79443e-08
2.80565e-08
2.79904e-08
2.79673e-08
2.79513e-08
2.79398e-08
2.7931e-08
2.79239e-08
2.79182e-08
2.79135e-08
2.79097e-08
2.79064e-08
2.79036e-08
2.79012e-08
2.78991e-08
2.78973e-08
2.78957e-08
2.78942e-08
2.78928e-08
2.78916e-08
2.78906e-08
2.78896e-08
2.78886e-08
2.78878e-08
2.7887e-08
2.78863e-08
2.78856e-08
2.7885e-08
2.78844e-08
2.78838e-08
2.78833e-08
2.78828e-08
2.78824e-08
2.7882e-08
2.78815e-08
2.78812e-08
2.78808e-08
2.78804e-08
2.78801e-08
2.78798e-08
2.78795e-08
2.78792e-08
2.78789e-08
2.78787e-08
2.78784e-08
2.78782e-08
2.78779e-08
2.78777e-08
2.78775e-08
2.78773e-08
2.78771e-08
2.78769e-08
2.78768e-08
2.78766e-08
2.78764e-08
2.78763e-08
2.78761e-08
2.7876e-08
2.78759e-08
2.78757e-08
2.78756e-08
2.78755e-08
2.78754e-08
2.78753e-08
2.78752e-08
2.78751e-08
2.7875e-08
2.78749e-08
2.78748e-08
2.78747e-08
2.78747e-08
2.78746e-08
2.78745e-08
2.78744e-08
2.78744e-08
2.78743e-08
2.78743e-08
2.78742e-08
2.78742e-08
2.78741e-08
2.78741e-08
2.78741e-08
2.7874e-08
2.7874e-08
2.7874e-08
2.78739e-08
2.78739e-08
2.78739e-08
2.78739e-08
2.78739e-08
2.78739e-08
2.78738e-08
2.78738e-08
2.78738e-08
2.78738e-08
2.78738e-08
2.78739e-08
2.78739e-08
2.78739e-08
2.78739e-08
2.78739e-08
2.78739e-08
2.7874e-08
2.7874e-08
2.7874e-08
2.78741e-08
2.78741e-08
2.78741e-08
2.78742e-08
2.78742e-08
2.78743e-08
2.78743e-08
2.78744e-08
2.78745e-08
2.78745e-08
2.78746e-08
2.78747e-08
2.78747e-08
2.78748e-08
2.78749e-08
2.7875e-08
2.78751e-08
2.78752e-08
2.78753e-08
2.78754e-08
2.78755e-08
2.78756e-08
2.78757e-08
2.78759e-08
2.7876e-08
2.78761e-08
2.78763e-08
2.78764e-08
2.78766e-08
2.78767e-08
2.78769e-08
2.78771e-08
2.78773e-08
2.78774e-08
2.78776e-08
2.78778e-08
2.78781e-08
2.78783e-08
2.78785e-08
2.78787e-08
2.7879e-08
2.78793e-08
2.78795e-08
2.78798e-08
2.78801e-08
2.78804e-08
2.78807e-08
2.78811e-08
2.78814e-08
2.78818e-08
2.78822e-08
2.78826e-08
2.7883e-08
2.78834e-08
2.78839e-08
2.78844e-08
2.78849e-08
2.78854e-08
2.7886e-08
2.78866e-08
2.78872e-08
2.78879e-08
2.78886e-08
2.78893e-08
2.78901e-08
2.7891e-08
2.78919e-08
2.78928e-08
2.78939e-08
2.78949e-08
2.78961e-08
2.78974e-08
2.78988e-08
2.79003e-08
2.7902e-08
2.79038e-08
2.79059e-08
2.79081e-08
2.79107e-08
2.79135e-08
2.79167e-08
2.79203e-08
2.79246e-08
2.79295e-08
2.79353e-08
2.79422e-08
2.79507e-08
2.79613e-08
2.79746e-08
2.79917e-08
2.80151e-08
2.8049e-08
2.81001e-08
2.82395e-08
2.80241e-08
2.79545e-08
2.80758e-08
2.80043e-08
2.79794e-08
2.79619e-08
2.79492e-08
2.79394e-08
2.79316e-08
2.79252e-08
2.792e-08
2.79157e-08
2.79121e-08
2.7909e-08
2.79063e-08
2.7904e-08
2.79019e-08
2.79001e-08
2.78984e-08
2.78969e-08
2.78955e-08
2.78943e-08
2.78932e-08
2.78922e-08
2.78912e-08
2.78903e-08
2.78895e-08
2.78887e-08
2.7888e-08
2.78874e-08
2.78867e-08
2.78862e-08
2.78856e-08
2.78851e-08
2.78846e-08
2.78841e-08
2.78837e-08
2.78833e-08
2.78829e-08
2.78825e-08
2.78821e-08
2.78818e-08
2.78815e-08
2.78812e-08
2.78809e-08
2.78806e-08
2.78803e-08
2.78801e-08
2.78798e-08
2.78796e-08
2.78794e-08
2.78791e-08
2.78789e-08
2.78787e-08
2.78785e-08
2.78784e-08
2.78782e-08
2.7878e-08
2.78779e-08
2.78777e-08
2.78776e-08
2.78774e-08
2.78773e-08
2.78772e-08
2.7877e-08
2.78769e-08
2.78768e-08
2.78767e-08
2.78766e-08
2.78765e-08
2.78764e-08
2.78763e-08
2.78763e-08
2.78762e-08
2.78761e-08
2.7876e-08
2.7876e-08
2.78759e-08
2.78758e-08
2.78758e-08
2.78757e-08
2.78757e-08
2.78757e-08
2.78756e-08
2.78756e-08
2.78756e-08
2.78755e-08
2.78755e-08
2.78755e-08
2.78755e-08
2.78754e-08
2.78754e-08
2.78754e-08
2.78754e-08
2.78754e-08
2.78754e-08
2.78754e-08
2.78754e-08
2.78755e-08
2.78755e-08
2.78755e-08
2.78755e-08
2.78755e-08
2.78756e-08
2.78756e-08
2.78756e-08
2.78757e-08
2.78757e-08
2.78758e-08
2.78758e-08
2.78759e-08
2.78759e-08
2.7876e-08
2.78761e-08
2.78761e-08
2.78762e-08
2.78763e-08
2.78764e-08
2.78764e-08
2.78765e-08
2.78766e-08
2.78767e-08
2.78768e-08
2.78769e-08
2.78771e-08
2.78772e-08
2.78773e-08
2.78774e-08
2.78776e-08
2.78777e-08
2.78779e-08
2.7878e-08
2.78782e-08
2.78783e-08
2.78785e-08
2.78787e-08
2.78789e-08
2.78791e-08
2.78793e-08
2.78795e-08
2.78797e-08
2.78799e-08
2.78802e-08
2.78804e-08
2.78807e-08
2.7881e-08
2.78812e-08
2.78815e-08
2.78818e-08
2.78822e-08
2.78825e-08
2.78828e-08
2.78832e-08
2.78836e-08
2.7884e-08
2.78844e-08
2.78848e-08
2.78853e-08
2.78858e-08
2.78863e-08
2.78868e-08
2.78873e-08
2.78879e-08
2.78885e-08
2.78892e-08
2.78898e-08
2.78905e-08
2.78913e-08
2.78921e-08
2.78929e-08
2.78938e-08
2.78948e-08
2.78958e-08
2.78969e-08
2.7898e-08
2.78993e-08
2.79006e-08
2.79021e-08
2.79037e-08
2.79054e-08
2.79073e-08
2.79094e-08
2.79116e-08
2.79142e-08
2.79171e-08
2.79203e-08
2.79239e-08
2.7928e-08
2.79328e-08
2.79383e-08
2.79448e-08
2.79525e-08
2.7962e-08
2.79737e-08
2.79885e-08
2.80075e-08
2.80333e-08
2.80706e-08
2.8126e-08
2.82773e-08
2.80445e-08
2.79651e-08
2.80942e-08
2.80179e-08
2.79911e-08
2.79722e-08
2.79583e-08
2.79476e-08
2.79391e-08
2.79321e-08
2.79264e-08
2.79217e-08
2.79178e-08
2.79143e-08
2.79114e-08
2.79088e-08
2.79065e-08
2.79045e-08
2.79026e-08
2.79009e-08
2.78994e-08
2.78981e-08
2.78968e-08
2.78957e-08
2.78946e-08
2.78936e-08
2.78927e-08
2.78919e-08
2.78911e-08
2.78903e-08
2.78896e-08
2.7889e-08
2.78884e-08
2.78878e-08
2.78872e-08
2.78867e-08
2.78862e-08
2.78858e-08
2.78853e-08
2.78849e-08
2.78845e-08
2.78841e-08
2.78838e-08
2.78834e-08
2.78831e-08
2.78828e-08
2.78825e-08
2.78822e-08
2.78819e-08
2.78816e-08
2.78814e-08
2.78812e-08
2.78809e-08
2.78807e-08
2.78805e-08
2.78803e-08
2.78801e-08
2.78799e-08
2.78797e-08
2.78796e-08
2.78794e-08
2.78792e-08
2.78791e-08
2.7879e-08
2.78788e-08
2.78787e-08
2.78786e-08
2.78784e-08
2.78783e-08
2.78782e-08
2.78781e-08
2.7878e-08
2.78779e-08
2.78778e-08
2.78778e-08
2.78777e-08
2.78776e-08
2.78775e-08
2.78775e-08
2.78774e-08
2.78774e-08
2.78773e-08
2.78773e-08
2.78772e-08
2.78772e-08
2.78772e-08
2.78771e-08
2.78771e-08
2.78771e-08
2.7877e-08
2.7877e-08
2.7877e-08
2.7877e-08
2.7877e-08
2.7877e-08
2.7877e-08
2.7877e-08
2.7877e-08
2.7877e-08
2.78771e-08
2.78771e-08
2.78771e-08
2.78771e-08
2.78772e-08
2.78772e-08
2.78772e-08
2.78773e-08
2.78773e-08
2.78774e-08
2.78774e-08
2.78775e-08
2.78776e-08
2.78776e-08
2.78777e-08
2.78778e-08
2.78779e-08
2.7878e-08
2.7878e-08
2.78781e-08
2.78782e-08
2.78783e-08
2.78785e-08
2.78786e-08
2.78787e-08
2.78788e-08
2.7879e-08
2.78791e-08
2.78792e-08
2.78794e-08
2.78796e-08
2.78797e-08
2.78799e-08
2.78801e-08
2.78803e-08
2.78805e-08
2.78807e-08
2.78809e-08
2.78811e-08
2.78813e-08
2.78815e-08
2.78818e-08
2.7882e-08
2.78823e-08
2.78826e-08
2.78829e-08
2.78832e-08
2.78835e-08
2.78838e-08
2.78842e-08
2.78845e-08
2.78849e-08
2.78853e-08
2.78857e-08
2.78861e-08
2.78866e-08
2.7887e-08
2.78875e-08
2.7888e-08
2.78885e-08
2.78891e-08
2.78897e-08
2.78903e-08
2.78909e-08
2.78916e-08
2.78923e-08
2.78931e-08
2.78939e-08
2.78947e-08
2.78956e-08
2.78965e-08
2.78975e-08
2.78986e-08
2.78997e-08
2.79009e-08
2.79022e-08
2.79036e-08
2.79051e-08
2.79067e-08
2.79085e-08
2.79104e-08
2.79126e-08
2.79149e-08
2.79174e-08
2.79203e-08
2.79235e-08
2.79271e-08
2.79311e-08
2.79356e-08
2.79409e-08
2.79471e-08
2.79542e-08
2.79627e-08
2.79731e-08
2.7986e-08
2.80022e-08
2.80229e-08
2.8051e-08
2.80914e-08
2.8151e-08
2.83131e-08
2.80654e-08
2.79732e-08
2.81119e-08
2.8031e-08
2.80025e-08
2.79822e-08
2.79673e-08
2.79557e-08
2.79464e-08
2.79389e-08
2.79327e-08
2.79277e-08
2.79233e-08
2.79196e-08
2.79164e-08
2.79135e-08
2.79111e-08
2.79088e-08
2.79068e-08
2.7905e-08
2.79033e-08
2.79018e-08
2.79004e-08
2.78992e-08
2.7898e-08
2.78969e-08
2.78959e-08
2.7895e-08
2.78941e-08
2.78933e-08
2.78925e-08
2.78918e-08
2.78911e-08
2.78905e-08
2.78899e-08
2.78893e-08
2.78888e-08
2.78883e-08
2.78878e-08
2.78873e-08
2.78869e-08
2.78865e-08
2.78861e-08
2.78857e-08
2.78853e-08
2.7885e-08
2.78846e-08
2.78843e-08
2.7884e-08
2.78837e-08
2.78834e-08
2.78832e-08
2.78829e-08
2.78827e-08
2.78824e-08
2.78822e-08
2.7882e-08
2.78818e-08
2.78816e-08
2.78814e-08
2.78812e-08
2.78811e-08
2.78809e-08
2.78807e-08
2.78806e-08
2.78804e-08
2.78803e-08
2.78802e-08
2.78801e-08
2.78799e-08
2.78798e-08
2.78797e-08
2.78796e-08
2.78795e-08
2.78794e-08
2.78793e-08
2.78793e-08
2.78792e-08
2.78791e-08
2.7879e-08
2.7879e-08
2.78789e-08
2.78789e-08
2.78788e-08
2.78788e-08
2.78788e-08
2.78787e-08
2.78787e-08
2.78787e-08
2.78786e-08
2.78786e-08
2.78786e-08
2.78786e-08
2.78786e-08
2.78786e-08
2.78786e-08
2.78786e-08
2.78786e-08
2.78786e-08
2.78786e-08
2.78787e-08
2.78787e-08
2.78787e-08
2.78788e-08
2.78788e-08
2.78788e-08
2.78789e-08
2.78789e-08
2.7879e-08
2.78791e-08
2.78791e-08
2.78792e-08
2.78793e-08
2.78794e-08
2.78794e-08
2.78795e-08
2.78796e-08
2.78797e-08
2.78798e-08
2.788e-08
2.78801e-08
2.78802e-08
2.78803e-08
2.78805e-08
2.78806e-08
2.78807e-08
2.78809e-08
2.78811e-08
2.78812e-08
2.78814e-08
2.78816e-08
2.78818e-08
2.7882e-08
2.78822e-08
2.78824e-08
2.78826e-08
2.78829e-08
2.78831e-08
2.78833e-08
2.78836e-08
2.78839e-08
2.78842e-08
2.78845e-08
2.78848e-08
2.78851e-08
2.78854e-08
2.78858e-08
2.78861e-08
2.78865e-08
2.78869e-08
2.78873e-08
2.78877e-08
2.78882e-08
2.78886e-08
2.78891e-08
2.78896e-08
2.78902e-08
2.78907e-08
2.78913e-08
2.78919e-08
2.78926e-08
2.78932e-08
2.78939e-08
2.78947e-08
2.78955e-08
2.78963e-08
2.78972e-08
2.78981e-08
2.78991e-08
2.79001e-08
2.79012e-08
2.79024e-08
2.79036e-08
2.7905e-08
2.79064e-08
2.7908e-08
2.79096e-08
2.79114e-08
2.79134e-08
2.79155e-08
2.79179e-08
2.79204e-08
2.79232e-08
2.79264e-08
2.79299e-08
2.79338e-08
2.79382e-08
2.79432e-08
2.7949e-08
2.79557e-08
2.79636e-08
2.79728e-08
2.79841e-08
2.79981e-08
2.80156e-08
2.80381e-08
2.80683e-08
2.81116e-08
2.81751e-08
2.83478e-08
2.80816e-08
2.79827e-08
2.81283e-08
2.80437e-08
2.80136e-08
2.79919e-08
2.7976e-08
2.79636e-08
2.79536e-08
2.79455e-08
2.79389e-08
2.79335e-08
2.79288e-08
2.79248e-08
2.79213e-08
2.79183e-08
2.79156e-08
2.79131e-08
2.79109e-08
2.7909e-08
2.79072e-08
2.79056e-08
2.7904e-08
2.79027e-08
2.79014e-08
2.79002e-08
2.78991e-08
2.78981e-08
2.78972e-08
2.78963e-08
2.78954e-08
2.78946e-08
2.78939e-08
2.78932e-08
2.78925e-08
2.78919e-08
2.78913e-08
2.78908e-08
2.78902e-08
2.78897e-08
2.78892e-08
2.78888e-08
2.78883e-08
2.78879e-08
2.78875e-08
2.78871e-08
2.78868e-08
2.78864e-08
2.78861e-08
2.78858e-08
2.78855e-08
2.78852e-08
2.78849e-08
2.78846e-08
2.78844e-08
2.78841e-08
2.78839e-08
2.78837e-08
2.78835e-08
2.78833e-08
2.78831e-08
2.78829e-08
2.78827e-08
2.78825e-08
2.78824e-08
2.78822e-08
2.78821e-08
2.78819e-08
2.78818e-08
2.78816e-08
2.78815e-08
2.78814e-08
2.78813e-08
2.78812e-08
2.78811e-08
2.7881e-08
2.78809e-08
2.78808e-08
2.78807e-08
2.78807e-08
2.78806e-08
2.78805e-08
2.78805e-08
2.78804e-08
2.78804e-08
2.78804e-08
2.78803e-08
2.78803e-08
2.78802e-08
2.78802e-08
2.78802e-08
2.78802e-08
2.78802e-08
2.78802e-08
2.78802e-08
2.78802e-08
2.78802e-08
2.78802e-08
2.78802e-08
2.78802e-08
2.78803e-08
2.78803e-08
2.78803e-08
2.78804e-08
2.78804e-08
2.78805e-08
2.78805e-08
2.78806e-08
2.78806e-08
2.78807e-08
2.78808e-08
2.78809e-08
2.78809e-08
2.7881e-08
2.78811e-08
2.78812e-08
2.78813e-08
2.78814e-08
2.78815e-08
2.78817e-08
2.78818e-08
2.78819e-08
2.78821e-08
2.78822e-08
2.78824e-08
2.78825e-08
2.78827e-08
2.78829e-08
2.78831e-08
2.78833e-08
2.78835e-08
2.78837e-08
2.78839e-08
2.78841e-08
2.78843e-08
2.78846e-08
2.78848e-08
2.78851e-08
2.78854e-08
2.78857e-08
2.7886e-08
2.78863e-08
2.78866e-08
2.78869e-08
2.78873e-08
2.78876e-08
2.7888e-08
2.78884e-08
2.78888e-08
2.78893e-08
2.78897e-08
2.78902e-08
2.78907e-08
2.78912e-08
2.78917e-08
2.78923e-08
2.78928e-08
2.78934e-08
2.78941e-08
2.78948e-08
2.78955e-08
2.78962e-08
2.7897e-08
2.78978e-08
2.78986e-08
2.78995e-08
2.79005e-08
2.79015e-08
2.79026e-08
2.79037e-08
2.79049e-08
2.79062e-08
2.79076e-08
2.79091e-08
2.79106e-08
2.79123e-08
2.79141e-08
2.79161e-08
2.79182e-08
2.79206e-08
2.79231e-08
2.7926e-08
2.7929e-08
2.79324e-08
2.79363e-08
2.79406e-08
2.79454e-08
2.79508e-08
2.79571e-08
2.79643e-08
2.79728e-08
2.79828e-08
2.79949e-08
2.801e-08
2.80288e-08
2.80529e-08
2.80851e-08
2.81313e-08
2.81984e-08
2.83798e-08
2.81005e-08
2.79928e-08
2.81444e-08
2.8056e-08
2.80245e-08
2.80014e-08
2.79845e-08
2.79713e-08
2.79607e-08
2.7952e-08
2.7945e-08
2.79392e-08
2.79343e-08
2.793e-08
2.79262e-08
2.7923e-08
2.79201e-08
2.79174e-08
2.79151e-08
2.7913e-08
2.7911e-08
2.79093e-08
2.79076e-08
2.79061e-08
2.79048e-08
2.79035e-08
2.79023e-08
2.79012e-08
2.79002e-08
2.78992e-08
2.78983e-08
2.78975e-08
2.78967e-08
2.78959e-08
2.78952e-08
2.78945e-08
2.78939e-08
2.78933e-08
2.78927e-08
2.78921e-08
2.78916e-08
2.78911e-08
2.78906e-08
2.78902e-08
2.78897e-08
2.78893e-08
2.78889e-08
2.78886e-08
2.78882e-08
2.78879e-08
2.78875e-08
2.78872e-08
2.78869e-08
2.78866e-08
2.78863e-08
2.78861e-08
2.78858e-08
2.78856e-08
2.78853e-08
2.78851e-08
2.78849e-08
2.78847e-08
2.78845e-08