/*--------------------------------*- C++ -*----------------------------------*\
  =========                 |
  \\      /  F ield         | OpenFOAM: The Open Source CFD Toolbox
   \\    /   O peration     | Website:  https://openfoam.org
    \\  /    A nd           | Version:  8
     \\/     M anipulation  |
\*---------------------------------------------------------------------------*/
FoamFile
{
    version     2.0;
    format      ascii;
    class       volScalarField;
    location    "0.01";
    object      p;
}
// * * * * * * * * * * * * * * * * * * * * * * * * * * * * * * * * * * * * * //

dimensions      [0 2 -2 0 0 0 0];

internalField   nonuniform List<scalar> 
112642
(
3.30281
3.28504
3.26709
3.24849
3.22893
3.20846
3.18725
3.1655
3.14336
3.12089
3.09812
3.07506
3.0517
3.02807
3.00415
2.97995
2.95547
2.93072
2.90572
2.88046
2.85494
2.8292
2.80323
2.77704
2.75063
2.72403
2.69722
2.67023
2.64307
2.61574
2.58825
2.56061
2.53281
2.50489
2.47682
2.44863
2.42032
2.39189
2.36335
2.33471
2.30597
2.27713
2.2482
2.21918
2.19007
2.16088
2.13162
2.10228
2.07286
2.04337
2.01382
1.9842
1.95451
1.92476
1.89496
1.86509
1.83517
1.80519
1.77516
1.74508
1.71495
1.68477
1.65454
1.62427
1.59395
1.56358
1.53317
1.50271
1.47221
1.44167
1.41108
1.38044
1.34977
1.31904
1.28827
1.25746
1.2266
1.1957
1.16476
1.13377
1.10273
1.07166
1.04053
1.00937
0.978151
0.946884
0.915584
0.884227
0.852825
0.821375
0.789875
0.758335
0.726739
0.695092
0.663395
0.631653
0.599856
0.568003
0.5361
0.504143
0.472131
0.440065
0.407942
0.375761
0.343525
0.311235
0.27888
0.246465
0.213991
0.181461
0.148861
0.116198
0.0834718
0.0506777
0.0178288
-0.0151032
-0.0480989
-0.0811554
-0.114286
-0.147488
-0.180765
-0.214106
-0.24752
-0.281001
-0.314564
-0.348191
-0.381893
-0.415669
-0.449516
-0.483437
-0.51743
-0.551501
-0.585645
-0.619865
-0.654168
-0.688546
-0.723003
-0.75754
-0.792157
-0.826855
-0.861624
-0.89648
-0.931419
-0.966432
-1.00153
-1.03671
-1.07197
-1.1073
-1.14272
-1.17822
-1.2138
-1.24946
-1.2852
-1.32101
-1.3569
-1.39287
-1.42892
-1.46505
-1.50125
-1.53752
-1.57386
-1.61028
-1.64677
-1.68334
-1.71997
-1.75667
-1.79344
-1.83025
-1.86713
-1.90405
-1.94101
-1.97801
-2.01504
-2.0521
-2.08916
-2.1262
-2.16324
-2.20023
-2.23719
-2.27406
-2.31088
-2.34759
-2.38418
-2.42066
-2.45701
-2.49322
-2.52927
-2.56519
-2.60097
-2.63664
-2.67219
-2.70765
-2.74303
-2.77833
-2.81346
-2.84831
-2.88283
-2.91713
-2.95135
-2.98591
3.31327
3.29549
3.27769
3.25953
3.24059
3.22073
3.20001
3.17867
3.15683
3.13461
3.11206
3.0892
3.06604
3.04258
3.01882
2.99478
2.97045
2.94583
2.92095
2.89579
2.87039
2.84473
2.81883
2.79271
2.76636
2.7398
2.71304
2.68607
2.65892
2.6316
2.6041
2.57645
2.54863
2.52067
2.49257
2.46432
2.43595
2.40745
2.37883
2.35011
2.32127
2.29233
2.26329
2.23415
2.20491
2.1756
2.14619
2.11671
2.08713
2.05748
2.02776
1.99797
1.9681
1.93817
1.90816
1.8781
1.84797
1.81779
1.78754
1.75724
1.72688
1.69647
1.666
1.63549
1.60492
1.5743
1.54364
1.51292
1.48216
1.45134
1.42048
1.38957
1.35861
1.32761
1.29655
1.26545
1.2343
1.2031
1.17186
1.14056
1.10922
1.07783
1.0464
1.01491
0.983377
0.951792
0.920165
0.888484
0.856753
0.824973
0.793144
0.761264
0.729334
0.697348
0.665313
0.633226
0.601085
0.568892
0.536637
0.504339
0.471971
0.439561
0.407083
0.374554
0.341965
0.309318
0.276611
0.243839
0.211011
0.17812
0.145167
0.112148
0.0790645
0.0459154
0.0127043
-0.0205808
-0.0539308
-0.0873485
-0.120834
-0.154393
-0.18802
-0.221719
-0.255484
-0.28932
-0.323229
-0.35721
-0.391258
-0.42538
-0.459571
-0.493837
-0.528171
-0.562585
-0.597068
-0.631626
-0.666257
-0.700972
-0.735757
-0.770619
-0.805561
-0.840575
-0.87567
-0.910839
-0.946088
-0.981412
-1.01681
-1.05229
-1.08785
-1.12348
-1.15919
-1.19497
-1.23083
-1.26676
-1.30277
-1.33885
-1.37499
-1.41121
-1.44751
-1.48388
-1.52031
-1.55681
-1.59338
-1.63002
-1.66672
-1.70349
-1.74031
-1.77719
-1.81413
-1.8511
-1.88813
-1.9252
-1.96231
-1.99943
-2.03657
-2.07374
-2.11088
-2.14801
-2.18511
-2.22217
-2.25917
-2.2961
-2.33293
-2.36966
-2.40627
-2.44275
-2.47909
-2.51527
-2.55131
-2.58721
-2.62295
-2.65857
-2.69407
-2.72947
-2.76476
-2.79988
-2.83479
-2.86934
-2.90353
-2.93761
-2.97181
-3.00642
3.32403
3.30612
3.28828
3.27048
3.25204
3.23274
3.21257
3.19164
3.17013
3.14818
3.12585
3.10319
3.08022
3.05693
3.03335
3.00947
2.98528
2.96081
2.93606
2.91103
2.88573
2.86018
2.83437
2.80832
2.78204
2.75555
2.72883
2.70191
2.67479
2.64748
2.61999
2.59233
2.56451
2.53652
2.50838
2.4801
2.45168
2.42312
2.39444
2.36563
2.33671
2.30767
2.27853
2.24928
2.21993
2.19048
2.16094
2.13131
2.10159
2.07178
2.0419
2.01193
1.98189
1.95177
1.92158
1.89132
1.86099
1.83059
1.80013
1.76961
1.73903
1.70838
1.67768
1.64693
1.61611
1.58524
1.55432
1.52334
1.49231
1.46123
1.43009
1.39891
1.36766
1.33637
1.30502
1.27362
1.24217
1.21068
1.17913
1.14752
1.11587
1.08416
1.05241
1.02061
0.988752
0.956837
0.924881
0.892871
0.860803
0.828691
0.796517
0.7643
0.732023
0.699695
0.667313
0.634878
0.602384
0.569838
0.537231
0.504577
0.471855
0.439086
0.40625
0.373361
0.340409
0.307401
0.274332
0.241201
0.208006
0.174755
0.141431
0.108053
0.0746015
0.0410903
0.00751586
-0.0261371
-0.0598485
-0.093632
-0.127476
-0.1614
-0.195389
-0.229447
-0.263571
-0.297766
-0.332033
-0.366364
-0.400768
-0.435244
-0.469788
-0.504395
-0.53908
-0.573839
-0.608663
-0.643564
-0.678537
-0.713581
-0.748702
-0.783895
-0.819161
-0.854504
-0.889914
-0.925403
-0.960963
-0.996599
-1.03231
-1.06808
-1.10394
-1.13986
-1.17586
-1.21193
-1.24806
-1.28427
-1.32054
-1.35688
-1.39329
-1.42977
-1.46631
-1.50291
-1.53957
-1.5763
-1.61308
-1.64993
-1.68684
-1.7238
-1.76081
-1.79786
-1.83497
-1.8721
-1.90928
-1.94648
-1.9837
-2.02094
-2.05818
-2.09543
-2.13265
-2.16983
-2.20699
-2.24408
-2.28111
-2.31803
-2.35488
-2.39159
-2.42818
-2.46462
-2.50092
-2.53707
-2.57305
-2.60889
-2.6446
-2.68016
-2.71561
-2.75092
-2.78609
-2.82105
-2.85569
-2.88998
-2.92399
-2.95795
-2.99229
-3.02712
3.33503
3.31683
3.29892
3.28128
3.26323
3.24448
3.22483
3.20435
3.18321
3.16154
3.13946
3.11701
3.09423
3.07113
3.04772
3.024
2.99999
2.97567
2.95106
2.92616
2.901
2.87555
2.84985
2.82391
2.79772
2.77129
2.74464
2.71777
2.69069
2.66342
2.63595
2.6083
2.58047
2.55247
2.52431
2.49601
2.46754
2.43894
2.41019
2.38132
2.35231
2.32319
2.29395
2.2646
2.23513
2.20556
2.17589
2.14613
2.11627
2.08631
2.05626
2.02613
1.99591
1.96561
1.93524
1.90478
1.87424
1.84365
1.81297
1.78223
1.75142
1.72055
1.68961
1.65861
1.62755
1.59643
1.56524
1.534
1.5027
1.47135
1.43993
1.40846
1.37694
1.34535
1.31371
1.28202
1.25026
1.21845
1.1866
1.15468
1.12271
1.09068
1.05861
1.02647
0.994284
0.962041
0.929747
0.897396
0.864991
0.83253
0.800013
0.767446
0.734819
0.702138
0.669399
0.636607
0.603755
0.570848
0.537883
0.504861
0.471777
0.438638
0.405438
0.37218
0.33886
0.305481
0.272039
0.238537
0.20497
0.171346
0.137652
0.103895
0.0700756
0.0361889
0.00223928
-0.0317816
-0.0658657
-0.100024
-0.13424
-0.168532
-0.202886
-0.237316
-0.271804
-0.306366
-0.340997
-0.375687
-0.410454
-0.445289
-0.480186
-0.515154
-0.550192
-0.585295
-0.620473
-0.655716
-0.691036
-0.726419
-0.761881
-0.797406
-0.833002
-0.868672
-0.904409
-0.940215
-0.976095
-1.01204
-1.04806
-1.08414
-1.12029
-1.1565
-1.19279
-1.22914
-1.26556
-1.30204
-1.33859
-1.37518
-1.41185
-1.44857
-1.48536
-1.5222
-1.55909
-1.59604
-1.63304
-1.6701
-1.7072
-1.74435
-1.78154
-1.81876
-1.85602
-1.89332
-1.93063
-1.96795
-2.00529
-2.04263
-2.07996
-2.11727
-2.15455
-2.19178
-2.22895
-2.26605
-2.30306
-2.33999
-2.37678
-2.41345
-2.44998
-2.48637
-2.5226
-2.55867
-2.59459
-2.63035
-2.66597
-2.70147
-2.73682
-2.77204
-2.80707
-2.84184
-2.87626
-2.91029
-2.94422
-2.97828
-3.01272
-3.04796
3.34599
3.32763
3.3096
3.29196
3.27419
3.25588
3.23678
3.2168
3.19607
3.17473
3.15292
3.1307
3.10814
3.08524
3.06202
3.03849
3.01465
2.9905
2.96605
2.9413
2.91628
2.89097
2.86539
2.83956
2.81346
2.78712
2.76054
2.73374
2.70672
2.67948
2.65204
2.62442
2.5966
2.5686
2.54043
2.5121
2.4836
2.45495
2.42616
2.39722
2.36815
2.33895
2.30961
2.28017
2.25059
2.22091
2.19111
2.16121
2.1312
2.1011
2.07089
2.0406
2.01021
1.97973
1.94916
1.91852
1.88778
1.85697
1.82609
1.79512
1.76409
1.73299
1.70181
1.67056
1.63925
1.60788
1.57643
1.54492
1.51335
1.48172
1.45002
1.41826
1.38645
1.35456
1.32262
1.29062
1.25857
1.22644
1.19427
1.16203
1.12974
1.09738
1.06498
1.03251
0.999986
0.9674
0.934763
0.902064
0.869311
0.836498
0.803628
0.770702
0.737717
0.704672
0.671572
0.638412
0.605195
0.571916
0.538579
0.505185
0.471728
0.438214
0.404637
0.370999
0.337302
0.303542
0.269722
0.235836
0.20189
0.167881
0.133807
0.0996668
0.0654656
0.0311956
-0.0031365
-0.0375411
-0.0720054
-0.106539
-0.141138
-0.175811
-0.210543
-0.245342
-0.28021
-0.315146
-0.350144
-0.385211
-0.420342
-0.455543
-0.490805
-0.526138
-0.561537
-0.596999
-0.632527
-0.668128
-0.703796
-0.739526
-0.775326
-0.811196
-0.847132
-0.88313
-0.919194
-0.955328
-0.991527
-1.02779
-1.06412
-1.10051
-1.13696
-1.17348
-1.21006
-1.24669
-1.2834
-1.32014
-1.35696
-1.39382
-1.43074
-1.46772
-1.50475
-1.54182
-1.57895
-1.61612
-1.65333
-1.69059
-1.72789
-1.76523
-1.8026
-1.83999
-1.87741
-1.91484
-1.95229
-1.98974
-2.02718
-2.06462
-2.10202
-2.1394
-2.17672
-2.21399
-2.25118
-2.28827
-2.32527
-2.36215
-2.3989
-2.43551
-2.47197
-2.50827
-2.54441
-2.58039
-2.61621
-2.65188
-2.6874
-2.7228
-2.75804
-2.79313
-2.82797
-2.86249
-2.89666
-2.93055
-2.96444
-2.99871
-3.03333
-3.06873
3.35702
3.33851
3.3203
3.30258
3.28495
3.26702
3.24842
3.22896
3.20869
3.18775
3.16625
3.14431
3.12198
3.09931
3.07629
3.05296
3.02931
3.00534
2.98107
2.9565
2.93162
2.90645
2.881
2.85529
2.8293
2.80305
2.77657
2.74984
2.72288
2.6957
2.6683
2.6407
2.6129
2.58491
2.55674
2.52839
2.49987
2.47118
2.44234
2.41335
2.38422
2.35494
2.32552
2.29597
2.2663
2.2365
2.20659
2.17655
2.14641
2.11616
2.0858
2.05534
2.02478
1.99412
1.96337
1.93253
1.90159
1.87057
1.83948
1.80829
1.77703
1.74569
1.71427
1.68278
1.65122
1.61958
1.58787
1.5561
1.52425
1.49234
1.46036
1.4283
1.39619
1.36401
1.33176
1.29946
1.26708
1.23465
1.20214
1.16958
1.13696
1.10427
1.07153
1.03872
1.00585
0.972913
0.939927
0.906872
0.873763
0.840588
0.807358
0.774062
0.740712
0.707295
0.673824
0.640288
0.606693
0.57304
0.53932
0.505545
0.471704
0.437806
0.403841
0.369819
0.335733
0.301583
0.267375
0.233096
0.198762
0.164357
0.129893
0.0953606
0.0607678
0.0261038
-0.00861685
-0.0434131
-0.078271
-0.113193
-0.148182
-0.183237
-0.218359
-0.253543
-0.288797
-0.324108
-0.359493
-0.394932
-0.430447
-0.466015
-0.501651
-0.537356
-0.573123
-0.608949
-0.644843
-0.6808
-0.716823
-0.752909
-0.789059
-0.82527
-0.861548
-0.897888
-0.934286
-0.970752
-1.00727
-1.04386
-1.0805
-1.1172
-1.15396
-1.19078
-1.22766
-1.26458
-1.30156
-1.33858
-1.37567
-1.4128
-1.44998
-1.48721
-1.52447
-1.56178
-1.59914
-1.63654
-1.67396
-1.71143
-1.74892
-1.78645
-1.82399
-1.86155
-1.89912
-1.9367
-1.97427
-2.01184
-2.04939
-2.08691
-2.12439
-2.16182
-2.19919
-2.23649
-2.27368
-2.31077
-2.34774
-2.38459
-2.42129
-2.45782
-2.4942
-2.53042
-2.56646
-2.60232
-2.63805
-2.6736
-2.70902
-2.74428
-2.77939
-2.81427
-2.84888
-2.88313
-2.91708
-2.95084
-2.98477
-3.01927
-3.05416
-3.08972
3.3681
3.34944
3.33113
3.31324
3.29562
3.27796
3.2598
3.24086
3.2211
3.20059
3.17947
3.15783
3.13577
3.11333
3.09055
3.06743
3.04398
3.02021
2.99612
2.97171
2.947
2.92198
2.89667
2.87109
2.84522
2.81909
2.79269
2.76605
2.73916
2.71204
2.68469
2.65713
2.62936
2.60138
2.57321
2.54486
2.51632
2.48761
2.45873
2.42969
2.40049
2.37114
2.34165
2.31201
2.28224
2.25233
2.2223
2.19214
2.16186
2.13147
2.10095
2.07033
2.0396
2.00877
1.97783
1.9468
1.91567
1.88445
1.85313
1.82173
1.79023
1.75866
1.727
1.69526
1.66344
1.63154
1.59957
1.56752
1.5354
1.5032
1.47093
1.43858
1.40617
1.37369
1.34113
1.30851
1.27581
1.24305
1.21022
1.17733
1.14437
1.11134
1.07825
1.04509
1.01187
0.978583
0.945235
0.911818
0.878343
0.844801
0.8112
0.777531
0.743801
0.710012
0.676151
0.642241
0.608255
0.574216
0.540107
0.505941
0.471707
0.437415
0.403055
0.368638
0.334148
0.299609
0.264992
0.230321
0.195582
0.160777
0.125913
0.0909793
0.0559852
0.0209208
-0.0142042
-0.0493972
-0.0846533
-0.119975
-0.155365
-0.190817
-0.226329
-0.26191
-0.297554
-0.333257
-0.369029
-0.404859
-0.440753
-0.476704
-0.512724
-0.5488
-0.584942
-0.621142
-0.657405
-0.693729
-0.730111
-0.766553
-0.803064
-0.839622
-0.876248
-0.912924
-0.949668
-0.986463
-1.02332
-1.06022
-1.09719
-1.13419
-1.17126
-1.20839
-1.24555
-1.28277
-1.32003
-1.35734
-1.39469
-1.43208
-1.46952
-1.507
-1.54451
-1.58205
-1.61964
-1.65724
-1.69489
-1.73255
-1.77023
-1.80794
-1.84565
-1.88337
-1.92109
-1.95881
-1.99651
-2.03418
-2.07183
-2.10944
-2.14699
-2.18447
-2.22188
-2.25919
-2.2964
-2.33347
-2.37042
-2.40722
-2.44386
-2.48033
-2.51663
-2.55274
-2.58869
-2.62445
-2.66005
-2.6955
-2.73078
-2.76591
-2.80082
-2.83549
-2.86982
-2.90381
-2.93756
-2.97127
-3.00534
-3.04012
-3.07515
-3.11097
3.37913
3.36048
3.34206
3.324
3.30631
3.28879
3.27097
3.25252
3.23329
3.21326
3.19254
3.17125
3.14949
3.12731
3.10477
3.08187
3.05864
3.03506
3.01116
2.98694
2.9624
2.93754
2.91239
2.88694
2.8612
2.83518
2.80889
2.78234
2.75554
2.72849
2.7012
2.67368
2.64595
2.618
2.58984
2.56149
2.53294
2.50421
2.4753
2.44621
2.41696
2.38755
2.35799
2.32826
2.2984
2.26839
2.23824
2.20796
2.17756
2.14702
2.11635
2.08557
2.05468
2.02367
1.99255
1.96133
1.93
1.89857
1.86704
1.83542
1.8037
1.77189
1.73999
1.708
1.67593
1.64377
1.61152
1.5792
1.54679
1.51431
1.48174
1.4491
1.41638
1.38359
1.35072
1.31777
1.28476
1.25167
1.21851
1.18527
1.15197
1.1186
1.08515
1.05164
1.01806
0.984409
0.950693
0.916908
0.883063
0.84914
0.815162
0.781111
0.746997
0.712817
0.67857
0.644263
0.609887
0.575447
0.540942
0.506375
0.47174
0.437044
0.40228
0.367454
0.332562
0.297609
0.262588
0.227504
0.192356
0.157141
0.121868
0.0865197
0.0511181
0.0156441
-0.0198917
-0.055496
-0.0911588
-0.126887
-0.162684
-0.198538
-0.234459
-0.270442
-0.306485
-0.342589
-0.378753
-0.414978
-0.451264
-0.487607
-0.524011
-0.560474
-0.596994
-0.633572
-0.670211
-0.706904
-0.743657
-0.780466
-0.817327
-0.854248
-0.891221
-0.928248
-0.96533
-1.00246
-1.03965
-1.07688
-1.11416
-1.15148
-1.18886
-1.22628
-1.26374
-1.30125
-1.3388
-1.37639
-1.414
-1.45166
-1.48935
-1.52707
-1.56482
-1.6026
-1.6404
-1.67822
-1.71607
-1.75393
-1.7918
-1.82967
-1.86755
-1.90542
-1.94328
-1.98113
-2.01894
-2.05672
-2.09445
-2.13213
-2.16974
-2.20727
-2.2447
-2.28203
-2.31923
-2.35629
-2.3932
-2.42996
-2.46653
-2.50293
-2.53914
-2.57518
-2.61102
-2.64667
-2.68216
-2.71749
-2.75263
-2.78758
-2.82229
-2.85671
-2.89077
-2.9245
-2.95814
-2.99192
-3.02615
-3.06118
-3.09642
-3.13226
3.39017
3.3716
3.35311
3.33488
3.31707
3.29958
3.28201
3.26398
3.24525
3.22572
3.20546
3.18455
3.16311
3.14122
3.11894
3.09628
3.07326
3.0499
3.02619
3.00217
2.9778
2.95313
2.92813
2.90283
2.87723
2.85133
2.82516
2.79872
2.77201
2.74504
2.71782
2.69036
2.66267
2.63475
2.60662
2.57827
2.54973
2.52099
2.49205
2.46293
2.43363
2.40417
2.37453
2.34474
2.31478
2.28468
2.25442
2.22403
2.19349
2.16282
2.13201
2.10108
2.07002
2.03885
2.00754
1.97613
1.9446
1.91297
1.88123
1.84939
1.81744
1.78539
1.75325
1.72101
1.68868
1.65626
1.62374
1.59114
1.55845
1.52567
1.49281
1.45987
1.42684
1.39373
1.36055
1.32728
1.29393
1.26051
1.227
1.19343
1.15977
1.12605
1.09224
1.05837
1.02442
0.9904
0.956311
0.92215
0.887919
0.853618
0.819249
0.784805
0.7503
0.715721
0.68108
0.646367
0.611587
0.576745
0.541829
0.506852
0.471806
0.436697
0.401517
0.366278
0.330969
0.295595
0.26016
0.224653
0.189088
0.153451
0.117754
0.0819922
0.0461645
0.0102733
-0.0256814
-0.0617057
-0.0977851
-0.133933
-0.170144
-0.206408
-0.242747
-0.279134
-0.315591
-0.352102
-0.388669
-0.425298
-0.461979
-0.498724
-0.53552
-0.572376
-0.609283
-0.646245
-0.683266
-0.720336
-0.757462
-0.794637
-0.831865
-0.869142
-0.906471
-0.943849
-0.981276
-1.01874
-1.05626
-1.09382
-1.13143
-1.16907
-1.20676
-1.24448
-1.28224
-1.32003
-1.35786
-1.39572
-1.43361
-1.47152
-1.50947
-1.54743
-1.58541
-1.62342
-1.66144
-1.69946
-1.73751
-1.77555
-1.8136
-1.85164
-1.88967
-1.92769
-1.96568
-2.00363
-2.04156
-2.07942
-2.11723
-2.15498
-2.19262
-2.23018
-2.26763
-2.30496
-2.34214
-2.37918
-2.41605
-2.45274
-2.48926
-2.52557
-2.5617
-2.59763
-2.63338
-2.66893
-2.7043
-2.73949
-2.77449
-2.80925
-2.84372
-2.87788
-2.91168
-2.94524
-2.97884
-3.01274
-3.0472
-3.08244
-3.11792
-3.15378
3.4011
3.38274
3.36428
3.3459
3.32797
3.3104
3.29297
3.27526
3.25699
3.23796
3.21818
3.19768
3.17661
3.15504
3.13302
3.11061
3.08783
3.06469
3.04121
3.01737
2.99321
2.96871
2.94389
2.91875
2.8933
2.86755
2.8415
2.81517
2.78856
2.76169
2.73454
2.70715
2.67952
2.65164
2.62355
2.59521
2.56668
2.53793
2.50898
2.47984
2.4505
2.42099
2.39129
2.36143
2.3314
2.3012
2.27084
2.24033
2.20968
2.17887
2.14793
2.11684
2.08563
2.05428
2.0228
1.9912
1.95948
1.92765
1.89569
1.86363
1.83146
1.79917
1.76679
1.7343
1.70171
1.66902
1.63623
1.60336
1.57038
1.5373
1.50415
1.4709
1.43756
1.40413
1.37062
1.33702
1.30334
1.26957
1.23572
1.2018
1.16779
1.1337
1.09953
1.06529
1.03097
0.996571
0.962098
0.92755
0.892929
0.858236
0.82347
0.788628
0.753716
0.718737
0.683682
0.648559
0.61337
0.578104
0.542778
0.507377
0.471911
0.436375
0.400777
0.365105
0.329374
0.293572
0.257703
0.221772
0.185773
0.149708
0.11358
0.0773877
0.0411299
0.00480764
-0.0315781
-0.0680273
-0.104535
-0.141111
-0.177743
-0.214439
-0.25119
-0.288003
-0.32487
-0.3618
-0.398784
-0.435818
-0.47291
-0.510053
-0.547256
-0.584508
-0.621808
-0.659165
-0.696573
-0.734023
-0.771526
-0.809078
-0.846671
-0.884317
-0.922003
-0.959737
-0.997507
-1.03532
-1.07318
-1.11106
-1.14899
-1.18695
-1.22495
-1.26298
-1.30104
-1.33912
-1.37722
-1.41536
-1.45351
-1.49169
-1.52987
-1.56808
-1.60629
-1.64451
-1.68275
-1.72097
-1.75921
-1.79743
-1.83565
-1.87385
-1.91202
-1.95018
-1.98828
-2.02635
-2.06436
-2.10231
-2.14019
-2.17797
-2.21565
-2.25323
-2.29068
-2.32798
-2.36514
-2.40213
-2.43895
-2.47557
-2.512
-2.54824
-2.58427
-2.6201
-2.65572
-2.69117
-2.72641
-2.76145
-2.79627
-2.83083
-2.86506
-2.89895
-2.93254
-2.966
-2.99963
-3.03379
-3.06844
-3.10391
-3.1395
-3.17532
3.41182
3.3938
3.3755
3.35705
3.33896
3.32128
3.30388
3.2864
3.26851
3.24996
3.23065
3.21062
3.18994
3.16871
3.147
3.12486
3.10234
3.07944
3.05618
3.03255
3.00859
2.98429
2.95965
2.93468
2.9094
2.8838
2.85789
2.83169
2.80519
2.77842
2.75137
2.72406
2.69649
2.66867
2.64062
2.61231
2.58379
2.55505
2.5261
2.49693
2.46758
2.43802
2.40827
2.37835
2.34824
2.31795
2.2875
2.25689
2.22612
2.19519
2.16411
2.13288
2.1015
2.06999
2.03835
2.00656
1.97465
1.94261
1.91045
1.87817
1.84577
1.81325
1.78062
1.74788
1.71503
1.68207
1.64901
1.61585
1.58259
1.54922
1.51575
1.4822
1.44854
1.41479
1.38095
1.34702
1.31299
1.27888
1.24468
1.2104
1.17603
1.14157
1.10703
1.07241
1.03771
1.00292
0.968063
0.933117
0.898103
0.863004
0.82783
0.792582
0.757259
0.72186
0.686391
0.650847
0.615229
0.579544
0.543785
0.507955
0.472058
0.436088
0.400052
0.363949
0.327774
0.291534
0.255229
0.218854
0.182416
0.145911
0.109341
0.0727037
0.036011
-0.000756853
-0.0375792
-0.0744673
-0.111417
-0.148423
-0.185493
-0.22262
-0.259804
-0.297045
-0.334341
-0.37169
-0.409094
-0.446553
-0.484057
-0.521614
-0.559224
-0.596877
-0.634584
-0.672339
-0.710133
-0.747978
-0.785862
-0.823793
-0.861768
-0.899778
-0.937826
-0.97592
-1.01404
-1.0522
-1.09039
-1.12862
-1.16687
-1.20516
-1.24346
-1.28179
-1.32014
-1.35851
-1.3969
-1.43531
-1.47372
-1.51215
-1.55058
-1.58903
-1.62747
-1.6659
-1.70434
-1.74278
-1.78119
-1.81959
-1.85796
-1.89631
-1.93462
-1.9729
-2.01112
-2.04927
-2.08737
-2.12538
-2.1633
-2.20112
-2.23882
-2.2764
-2.31384
-2.35112
-2.38823
-2.42516
-2.46191
-2.49845
-2.53478
-2.57092
-2.60685
-2.64256
-2.67807
-2.71338
-2.74848
-2.78336
-2.81797
-2.85229
-2.88628
-2.91993
-2.95337
-2.9868
-3.02058
-3.05495
-3.08989
-3.12551
-3.16108
-3.19683
3.42214
3.40469
3.38669
3.36826
3.35007
3.33223
3.31478
3.29742
3.27984
3.26171
3.24289
3.22333
3.20308
3.18223
3.16085
3.13901
3.11676
3.09411
3.07109
3.0477
3.02396
2.99986
2.97542
2.95064
2.92552
2.90009
2.87433
2.84826
2.8219
2.79524
2.76829
2.74107
2.71358
2.68583
2.65782
2.62956
2.60107
2.57235
2.5434
2.51423
2.48485
2.45526
2.42547
2.39549
2.36532
2.33495
2.30441
2.2737
2.24282
2.21177
2.18056
2.14919
2.11766
2.08599
2.05417
2.02221
1.99011
1.95787
1.9255
1.893
1.86037
1.82763
1.79475
1.76176
1.72865
1.69542
1.66208
1.62864
1.59508
1.56142
1.52765
1.49377
1.4598
1.42573
1.39155
1.35728
1.32291
1.28844
1.25389
1.21924
1.1845
1.14966
1.11475
1.07974
1.04465
1.00947
0.974209
0.938864
0.903436
0.867929
0.832341
0.796673
0.76093
0.725103
0.689209
0.65323
0.617182
0.581056
0.544859
0.508588
0.472248
0.435834
0.399351
0.362797
0.326177
0.289484
0.252732
0.215903
0.179014
0.142056
0.105034
0.0679485
0.0307959
-0.00641675
-0.0436903
-0.081031
-0.118424
-0.155881
-0.193391
-0.230965
-0.268591
-0.306268
-0.344
-0.381783
-0.419619
-0.457498
-0.495433
-0.533411
-0.571432
-0.609503
-0.647615
-0.685774
-0.72397
-0.762205
-0.800484
-0.838798
-0.877153
-0.915537
-0.953957
-0.992403
-1.03089
-1.06939
-1.10792
-1.14649
-1.18507
-1.22367
-1.26229
-1.30092
-1.33958
-1.37824
-1.4169
-1.45558
-1.49426
-1.53293
-1.57161
-1.61029
-1.64896
-1.68761
-1.72624
-1.76486
-1.80346
-1.84202
-1.88055
-1.91904
-1.95748
-1.99586
-2.03418
-2.07243
-2.11059
-2.14865
-2.18662
-2.22446
-2.26216
-2.29973
-2.33714
-2.37437
-2.41143
-2.44829
-2.48496
-2.5214
-2.55764
-2.59365
-2.62946
-2.66504
-2.70042
-2.73557
-2.77051
-2.80519
-2.83959
-2.87366
-2.90738
-2.94084
-2.97419
-3.00769
-3.04165
-3.0763
-3.11145
-3.14717
-3.18261
-3.21797
3.43196
3.41529
3.39775
3.37946
3.36126
3.34327
3.32572
3.30839
3.29102
3.27326
3.25489
3.23581
3.21602
3.19557
3.17457
3.15306
3.13109
3.10872
3.08595
3.06281
3.0393
3.01542
2.99118
2.9666
2.94168
2.91641
2.89082
2.86491
2.83868
2.81214
2.78531
2.75819
2.73079
2.70311
2.67517
2.64696
2.61851
2.58982
2.56088
2.53171
2.50232
2.47271
2.44289
2.41286
2.38263
2.35219
2.32158
2.29077
2.25979
2.22862
2.19728
2.16578
2.13411
2.10228
2.07029
2.03815
2.00586
1.97343
1.94086
1.90814
1.87529
1.8423
1.80919
1.77594
1.74257
1.70908
1.67546
1.64173
1.60788
1.57392
1.53983
1.50564
1.47134
1.43694
1.40242
1.36781
1.33308
1.29826
1.26334
1.22832
1.1932
1.15799
1.12269
1.08728
1.05179
1.01621
0.980543
0.944788
0.908946
0.873013
0.837007
0.800903
0.764731
0.728469
0.692132
0.655712
0.619221
0.582645
0.546
0.509276
0.472482
0.435612
0.398673
0.361657
0.324579
0.287425
0.250206
0.212915
0.175566
0.138137
0.100658
0.0631034
0.0254907
-0.0121827
-0.049922
-0.0877177
-0.125571
-0.163489
-0.201453
-0.239479
-0.277552
-0.315681
-0.35386
-0.392082
-0.430358
-0.468677
-0.507041
-0.545447
-0.583897
-0.622386
-0.66092
-0.699484
-0.738085
-0.776726
-0.815402
-0.854107
-0.892839
-0.931604
-0.970398
-1.00921
-1.04805
-1.08692
-1.12579
-1.16469
-1.2036
-1.24253
-1.28146
-1.3204
-1.35934
-1.3983
-1.43724
-1.47619
-1.51512
-1.55405
-1.59297
-1.63187
-1.67076
-1.70962
-1.74845
-1.78726
-1.82602
-1.86475
-1.90343
-1.94204
-1.9806
-2.01909
-2.0575
-2.09582
-2.13404
-2.17215
-2.21013
-2.24799
-2.28569
-2.32323
-2.3606
-2.39778
-2.43476
-2.47154
-2.50811
-2.54445
-2.58056
-2.61646
-2.65212
-2.68757
-2.7228
-2.75779
-2.79252
-2.82699
-2.86113
-2.89495
-2.92845
-2.96175
-2.99509
-3.02873
-3.0629
-3.09783
-3.1331
-3.16882
-3.20397
-3.23878
3.44114
3.42543
3.40858
3.3906
3.37249
3.35442
3.33674
3.31936
3.30212
3.28464
3.26669
3.24807
3.22875
3.20875
3.18813
3.16698
3.14534
3.12326
3.10076
3.07788
3.0546
3.03096
3.00695
2.98258
2.95785
2.93277
2.90735
2.8816
2.85552
2.82913
2.80243
2.77541
2.74812
2.72052
2.69266
2.66452
2.63612
2.60746
2.57854
2.54939
2.52
2.49037
2.46053
2.43046
2.40018
2.36968
2.33899
2.3081
2.27702
2.24575
2.21429
2.18265
2.15084
2.11886
2.08671
2.0544
2.02193
1.9893
1.95652
1.92359
1.89052
1.8573
1.82394
1.79044
1.75681
1.72305
1.68915
1.65513
1.62098
1.58671
1.55232
1.51781
1.48318
1.44843
1.41358
1.37861
1.34353
1.30835
1.27305
1.23766
1.20216
1.16655
1.13085
1.09505
1.05916
1.02316
0.987073
0.950899
0.914625
0.878269
0.84182
0.805283
0.768663
0.731958
0.695168
0.658299
0.621348
0.584318
0.547209
0.51002
0.472761
0.435421
0.398011
0.360528
0.322973
0.285349
0.247653
0.20989
0.172061
0.134162
0.0961992
0.0581764
0.0200831
-0.018062
-0.0562742
-0.0945441
-0.132866
-0.171251
-0.209682
-0.248173
-0.286709
-0.32529
-0.363927
-0.402603
-0.441325
-0.480089
-0.518895
-0.557741
-0.596623
-0.635544
-0.674497
-0.713484
-0.752501
-0.79155
-0.830625
-0.869728
-0.908854
-0.947999
-0.98717
-1.02636
-1.06556
-1.10478
-1.14401
-1.18324
-1.22248
-1.26173
-1.30098
-1.34023
-1.37947
-1.4187
-1.45793
-1.49715
-1.53634
-1.57551
-1.61467
-1.6538
-1.6929
-1.73196
-1.77098
-1.80997
-1.8489
-1.88777
-1.92659
-1.96534
-2.004
-2.04258
-2.08107
-2.11946
-2.15772
-2.19587
-2.23387
-2.27171
-2.3094
-2.3469
-2.38422
-2.42134
-2.45824
-2.49493
-2.53139
-2.56761
-2.6036
-2.63936
-2.67488
-2.71017
-2.74522
-2.78002
-2.81455
-2.84877
-2.88266
-2.91622
-2.94952
-2.98274
-3.01613
-3.04995
-3.08439
-3.1195
-3.15481
-3.19035
-3.22498
-3.25906
3.44949
3.43502
3.41909
3.4016
3.38371
3.36564
3.34787
3.33041
3.3132
3.29593
3.27831
3.26014
3.24128
3.22174
3.20155
3.18077
3.15947
3.13771
3.11551
3.0929
3.06988
3.04648
3.0227
2.99855
2.97403
2.94915
2.92392
2.89835
2.87244
2.8462
2.81963
2.79275
2.76555
2.73807
2.71028
2.68222
2.65388
2.62527
2.59639
2.56726
2.53788
2.50825
2.47839
2.44829
2.41797
2.38742
2.35667
2.3257
2.29453
2.26315
2.23158
2.19982
2.16787
2.13575
2.10344
2.07095
2.0383
2.00548
1.97251
1.93936
1.90606
1.87261
1.83901
1.80526
1.77136
1.73733
1.70316
1.66884
1.6344
1.59982
1.56511
1.53027
1.49531
1.46023
1.42502
1.3897
1.35426
1.3187
1.28303
1.24725
1.21136
1.17536
1.13925
1.10305
1.06673
1.03032
0.993804
0.957197
0.920488
0.883689
0.846796
0.809809
0.772736
0.73557
0.698323
0.660989
0.623567
0.586063
0.548486
0.510818
0.473082
0.435259
0.397372
0.359402
0.321359
0.283248
0.24507
0.206816
0.168499
0.130112
0.091662
0.05315
0.0145707
-0.0240621
-0.0627606
-0.101508
-0.140322
-0.179177
-0.21809
-0.25705
-0.296062
-0.335114
-0.374217
-0.413351
-0.452539
-0.491753
-0.531011
-0.570301
-0.609626
-0.648985
-0.688368
-0.727779
-0.767221
-0.806684
-0.846171
-0.88567
-0.925197
-0.964734
-1.00428
-1.04385
-1.08342
-1.12299
-1.16257
-1.20215
-1.24173
-1.2813
-1.32086
-1.36041
-1.39996
-1.43948
-1.47898
-1.51846
-1.55791
-1.59733
-1.63671
-1.67606
-1.71538
-1.75463
-1.79384
-1.83299
-1.87209
-1.91111
-1.95005
-1.98891
-2.02768
-2.06634
-2.1049
-2.14333
-2.18165
-2.2198
-2.25781
-2.29564
-2.33329
-2.37075
-2.40801
-2.44505
-2.48186
-2.51844
-2.55478
-2.59088
-2.62675
-2.66236
-2.69771
-2.73283
-2.7677
-2.8023
-2.83659
-2.87055
-2.90418
-2.93751
-2.97067
-3.00387
-3.03737
-3.07142
-3.10604
-3.14129
-3.17652
-3.21174
-3.24561
-3.2786
3.45692
3.44393
3.42911
3.41234
3.39485
3.3769
3.35909
3.34153
3.32431
3.30715
3.28981
3.27201
3.25361
3.23453
3.21477
3.19441
3.17348
3.15206
3.13017
3.10784
3.0851
3.06197
3.03843
3.01452
2.99022
2.96556
2.94053
2.91514
2.8894
2.86332
2.83691
2.81017
2.7831
2.75573
2.72805
2.70007
2.6718
2.64325
2.61442
2.58532
2.55596
2.52634
2.49647
2.46636
2.436
2.40541
2.3746
2.34356
2.31231
2.28083
2.24916
2.21728
2.1852
2.15293
2.12047
2.08782
2.05499
2.02199
1.98881
1.95545
1.92194
1.88825
1.85441
1.82041
1.78625
1.75194
1.71748
1.68288
1.64813
1.61325
1.57822
1.54306
1.50776
1.47233
1.43677
1.40108
1.36527
1.32934
1.29328
1.25711
1.22082
1.18442
1.1479
1.11127
1.07453
1.03769
1.00074
0.963688
0.92654
0.889281
0.851936
0.814488
0.776948
0.739315
0.701593
0.663779
0.62588
0.587895
0.549828
0.511672
0.473445
0.43513
0.396743
0.35828
0.319741
0.281129
0.242447
0.203694
0.164874
0.125986
0.0870397
0.0480187
0.00894746
-0.0301906
-0.069382
-0.108629
-0.147932
-0.187279
-0.226688
-0.266128
-0.305622
-0.345159
-0.384731
-0.424344
-0.463998
-0.503679
-0.543395
-0.583143
-0.622921
-0.662718
-0.702546
-0.742392
-0.782259
-0.822144
-0.862044
-0.901961
-0.941883
-0.981812
-1.02175
-1.0617
-1.10163
-1.14157
-1.1815
-1.22143
-1.26134
-1.30124
-1.34112
-1.38098
-1.42081
-1.46062
-1.50039
-1.54013
-1.57983
-1.6195
-1.6591
-1.69867
-1.73819
-1.77764
-1.81702
-1.85633
-1.89558
-1.93473
-1.9738
-2.01277
-2.05162
-2.09036
-2.12897
-2.16745
-2.20578
-2.24395
-2.28193
-2.31975
-2.35736
-2.39476
-2.43194
-2.46889
-2.5056
-2.54207
-2.57829
-2.61425
-2.64996
-2.68541
-2.72061
-2.75554
-2.7902
-2.82456
-2.85861
-2.89231
-2.92569
-2.95885
-2.99192
-3.02517
-3.05883
-3.0931
-3.12789
-3.16311
-3.19811
-3.23278
-3.26569
-3.29733
3.46333
3.45199
3.43854
3.42269
3.4058
3.38811
3.37036
3.35274
3.33547
3.31835
3.30119
3.28373
3.26574
3.24711
3.22781
3.20787
3.18734
3.16628
3.14472
3.12271
3.10026
3.0774
3.05413
3.03046
3.0064
2.98197
2.95715
2.93196
2.90642
2.88052
2.85427
2.82767
2.80075
2.7735
2.74593
2.71805
2.68987
2.66139
2.63262
2.60357
2.57423
2.54463
2.51477
2.48465
2.45427
2.42364
2.39278
2.36168
2.33035
2.2988
2.26702
2.23503
2.20283
2.17042
2.13781
2.105
2.072
2.03881
2.00543
1.97188
1.93814
1.90423
1.87014
1.83589
1.80147
1.76689
1.73215
1.69725
1.6622
1.627
1.59165
1.55615
1.52052
1.48473
1.44881
1.41276
1.37658
1.34026
1.30381
1.26724
1.23055
1.19373
1.15679
1.11973
1.08257
1.04528
1.00789
0.970385
0.932773
0.895059
0.857242
0.819321
0.781305
0.743188
0.704983
0.666677
0.628289
0.589805
0.551239
0.512582
0.473851
0.43503
0.396134
0.357157
0.318111
0.278983
0.23979
0.200521
0.161187
0.121784
0.0823182
0.0427912
0.00320073
-0.0364445
-0.0761461
-0.115904
-0.155709
-0.195566
-0.235469
-0.275414
-0.315401
-0.355426
-0.395488
-0.435587
-0.475714
-0.515871
-0.556059
-0.596273
-0.636506
-0.676762
-0.717032
-0.757326
-0.797627
-0.837942
-0.878264
-0.918593
-0.958921
-0.999254
-1.03958
-1.0799
-1.12022
-1.16052
-1.20081
-1.24108
-1.28132
-1.32155
-1.36174
-1.4019
-1.44203
-1.48212
-1.52217
-1.56217
-1.60212
-1.64201
-1.68185
-1.72162
-1.76133
-1.80097
-1.84052
-1.87999
-1.91937
-1.95865
-1.99783
-2.03689
-2.07582
-2.11462
-2.15328
-2.19178
-2.23012
-2.26829
-2.30625
-2.34402
-2.38157
-2.41891
-2.456
-2.49285
-2.52945
-2.56579
-2.60187
-2.63768
-2.67323
-2.70852
-2.74353
-2.77826
-2.8127
-2.84681
-2.8806
-2.91405
-2.94723
-2.98024
-3.0133
-3.04667
-3.0805
-3.11496
-3.1498
-3.18492
-3.21945
-3.25338