/*--------------------------------*- C++ -*----------------------------------*\
  =========                 |
  \\      /  F ield         | OpenFOAM: The Open Source CFD Toolbox
   \\    /   O peration     | Website:  https://openfoam.org
    \\  /    A nd           | Version:  8
     \\/     M anipulation  |
\*---------------------------------------------------------------------------*/
FoamFile
{
    version     2.0;
    format      ascii;
    class       volScalarField;
    location    "11";
    object      p;
}
// * * * * * * * * * * * * * * * * * * * * * * * * * * * * * * * * * * * * * //

dimensions      [0 2 -2 0 0 0 0];

internalField   nonuniform List<scalar> 
277560
(
-0.581054
-0.581823
-0.58373
-0.586541
-0.590151
-0.594547
-0.599699
-0.605557
-0.612075
-0.619211
-0.626926
-0.635182
-0.643942
-0.65317
-0.662831
-0.672894
-0.683326
-0.694097
-0.705179
-0.716544
-0.728165
-0.740019
-0.752079
-0.764324
-0.776733
-0.789283
-0.801956
-0.814733
-0.827596
-0.840529
-0.853515
-0.86654
-0.879589
-0.89265
-0.905709
-0.918755
-0.931777
-0.944765
-0.957708
-0.970597
-0.983425
-0.996183
-1.00886
-1.02146
-1.03397
-1.04638
-1.05868
-1.07089
-1.08298
-1.09495
-1.10681
-1.11855
-1.13016
-1.14164
-1.15299
-1.16421
-1.17529
-1.18624
-1.19705
-1.20772
-1.21825
-1.22865
-1.2389
-1.24901
-1.25898
-1.26881
-1.27849
-1.28804
-1.29744
-1.30671
-1.31583
-1.32482
-1.33367
-1.34238
-1.35096
-1.3594
-1.3677
-1.37587
-1.38392
-1.39183
-1.39961
-1.40726
-1.41479
-1.42219
-1.42947
-1.43663
-1.44366
-1.45058
-1.45738
-1.46406
-1.47063
-1.47709
-1.48344
-1.48967
-1.4958
-1.50182
-1.50773
-1.51355
-1.51926
-1.52487
-1.53038
-1.53579
-1.54111
-1.54634
-1.55147
-1.55651
-1.56146
-1.56632
-1.5711
-1.57579
-1.5804
-1.58492
-1.58937
-1.59373
-1.59802
-1.60223
-1.60636
-1.61042
-1.61441
-1.61832
-0.580634
-0.581379
-0.58327
-0.586076
-0.589684
-0.594076
-0.599225
-0.605081
-0.611597
-0.618731
-0.626445
-0.6347
-0.64346
-0.652687
-0.662349
-0.672412
-0.682845
-0.693617
-0.704701
-0.716067
-0.727691
-0.739546
-0.75161
-0.763858
-0.776269
-0.788823
-0.8015
-0.814281
-0.827148
-0.840085
-0.853076
-0.866105
-0.87916
-0.892226
-0.905291
-0.918343
-0.93137
-0.944364
-0.957313
-0.970209
-0.983043
-0.995807
-1.00849
-1.0211
-1.03361
-1.04603
-1.05834
-1.07055
-1.08265
-1.09464
-1.1065
-1.11824
-1.12986
-1.14135
-1.15271
-1.16393
-1.17503
-1.18598
-1.1968
-1.20748
-1.21802
-1.22842
-1.23868
-1.2488
-1.25877
-1.26861
-1.2783
-1.28786
-1.29727
-1.30654
-1.31568
-1.32467
-1.33353
-1.34225
-1.35083
-1.35928
-1.36759
-1.37577
-1.38382
-1.39174
-1.39952
-1.40719
-1.41472
-1.42213
-1.42942
-1.43658
-1.44362
-1.45055
-1.45735
-1.46404
-1.47062
-1.47708
-1.48343
-1.48968
-1.49581
-1.50184
-1.50776
-1.51358
-1.51929
-1.52491
-1.53043
-1.53585
-1.54117
-1.5464
-1.55154
-1.55659
-1.56154
-1.56641
-1.57119
-1.57589
-1.5805
-1.58503
-1.58948
-1.59385
-1.59814
-1.60235
-1.60649
-1.61055
-1.61454
-1.61846
-0.579845
-0.580592
-0.582482
-0.585286
-0.588892
-0.593281
-0.598427
-0.604281
-0.610795
-0.617928
-0.625642
-0.633898
-0.642658
-0.651887
-0.661551
-0.671616
-0.682052
-0.692828
-0.703915
-0.715287
-0.726915
-0.738776
-0.750846
-0.7631
-0.775519
-0.78808
-0.800764
-0.813553
-0.826429
-0.839375
-0.852375
-0.865414
-0.878479
-0.891555
-0.90463
-0.917693
-0.930731
-0.943736
-0.956696
-0.969604
-0.98245
-0.995226
-1.00793
-1.02054
-1.03307
-1.0455
-1.05782
-1.07005
-1.08216
-1.09415
-1.10603
-1.11779
-1.12942
-1.14092
-1.15229
-1.16353
-1.17463
-1.1856
-1.19643
-1.20712
-1.21768
-1.22809
-1.23836
-1.24849
-1.25848
-1.26833
-1.27804
-1.2876
-1.29703
-1.30631
-1.31546
-1.32446
-1.33333
-1.34206
-1.35065
-1.35911
-1.36744
-1.37563
-1.38369
-1.39162
-1.39942
-1.40709
-1.41463
-1.42205
-1.42935
-1.43652
-1.44357
-1.45051
-1.45732
-1.46402
-1.47061
-1.47708
-1.48344
-1.48969
-1.49583
-1.50187
-1.5078
-1.51363
-1.51935
-1.52497
-1.5305
-1.53593
-1.54126
-1.5465
-1.55164
-1.5567
-1.56166
-1.56654
-1.57132
-1.57603
-1.58065
-1.58518
-1.58964
-1.59401
-1.59831
-1.60253
-1.60668
-1.61075
-1.61474
-1.61867
-0.578678
-0.579416
-0.581296
-0.584091
-0.587688
-0.59207
-0.59721
-0.60306
-0.60957
-0.616701
-0.624413
-0.632668
-0.641428
-0.650658
-0.660323
-0.670391
-0.680831
-0.691611
-0.702703
-0.71408
-0.725716
-0.737584
-0.749661
-0.761924
-0.774352
-0.786923
-0.799618
-0.812418
-0.825306
-0.838264
-0.851277
-0.86433
-0.877408
-0.890498
-0.903588
-0.916666
-0.929721
-0.942741
-0.955718
-0.968642
-0.981505
-0.994299
-1.00702
-1.01965
-1.03219
-1.04464
-1.05699
-1.06923
-1.08136
-1.09337
-1.10527
-1.11704
-1.12869
-1.14021
-1.15161
-1.16286
-1.17399
-1.18498
-1.19583
-1.20654
-1.21711
-1.22754
-1.23783
-1.24798
-1.25799
-1.26786
-1.27759
-1.28717
-1.29661
-1.30592
-1.31508
-1.32411
-1.33299
-1.34174
-1.35035
-1.35883
-1.36717
-1.37538
-1.38346
-1.3914
-1.39922
-1.40691
-1.41447
-1.42191
-1.42922
-1.43641
-1.44348
-1.45043
-1.45726
-1.46397
-1.47058
-1.47706
-1.48344
-1.4897
-1.49586
-1.50191
-1.50786
-1.5137
-1.51944
-1.52508
-1.53061
-1.53606
-1.5414
-1.54665
-1.55181
-1.55688
-1.56185
-1.56674
-1.57154
-1.57626
-1.58089
-1.58544
-1.5899
-1.59429
-1.5986
-1.60283
-1.60698
-1.61106
-1.61507
-1.619
-0.577138
-0.577862
-0.57973
-0.582514
-0.586102
-0.590477
-0.595611
-0.601455
-0.607962
-0.61509
-0.6228
-0.631054
-0.639815
-0.649046
-0.658715
-0.668787
-0.679231
-0.690017
-0.701117
-0.712502
-0.724146
-0.736025
-0.748113
-0.760388
-0.772829
-0.785413
-0.798123
-0.810938
-0.823842
-0.836817
-0.849848
-0.862919
-0.876016
-0.889126
-0.902236
-0.915334
-0.92841
-0.941452
-0.954451
-0.967398
-0.980284
-0.993101
-1.00584
-1.0185
-1.03107
-1.04354
-1.05591
-1.06818
-1.08033
-1.09237
-1.10429
-1.11609
-1.12777
-1.13932
-1.15073
-1.16202
-1.17317
-1.18418
-1.19506
-1.20579
-1.21639
-1.22685
-1.23717
-1.24734
-1.25738
-1.26727
-1.27702
-1.28663
-1.2961
-1.30542
-1.31461
-1.32366
-1.33257
-1.34134
-1.34998
-1.35848
-1.36684
-1.37508
-1.38317
-1.39114
-1.39898
-1.40669
-1.41428
-1.42173
-1.42907
-1.43628
-1.44337
-1.45034
-1.45719
-1.46392
-1.47054
-1.47705
-1.48345
-1.48973
-1.49591
-1.50197
-1.50794
-1.5138
-1.51955
-1.52521
-1.53076
-1.53622
-1.54158
-1.54685
-1.55202
-1.55711
-1.5621
-1.567
-1.57182
-1.57655
-1.58119
-1.58576
-1.59024
-1.59464
-1.59896
-1.60321
-1.60737
-1.61147
-1.61549
-1.61943
-0.575231
-0.575939
-0.577792
-0.580564
-0.58414
-0.588505
-0.593631
-0.599468
-0.605969
-0.613093
-0.620801
-0.629054
-0.637815
-0.647049
-0.65672
-0.666797
-0.677247
-0.68804
-0.699148
-0.710543
-0.722199
-0.734089
-0.746191
-0.758481
-0.770936
-0.783538
-0.796265
-0.809099
-0.822023
-0.835018
-0.84807
-0.861163
-0.874283
-0.887417
-0.900552
-0.913675
-0.926777
-0.939846
-0.952872
-0.965846
-0.97876
-0.991606
-1.00438
-1.01706
-1.02966
-1.04216
-1.05456
-1.06686
-1.07905
-1.09112
-1.10307
-1.1149
-1.12661
-1.13819
-1.14964
-1.16095
-1.17213
-1.18318
-1.19409
-1.20486
-1.21549
-1.22597
-1.23632
-1.24653
-1.25659
-1.26652
-1.2763
-1.28594
-1.29544
-1.3048
-1.31401
-1.32309
-1.33203
-1.34083
-1.3495
-1.35803
-1.36642
-1.37468
-1.38281
-1.39081
-1.39867
-1.40641
-1.41402
-1.42151
-1.42887
-1.4361
-1.44322
-1.45021
-1.45709
-1.46385
-1.4705
-1.47703
-1.48345
-1.48975
-1.49595
-1.50205
-1.50803
-1.51391
-1.51969
-1.52537
-1.53095
-1.53643
-1.54181
-1.5471
-1.55229
-1.55739
-1.56241
-1.56733
-1.57216
-1.57691
-1.58158
-1.58616
-1.59066
-1.59508
-1.59942
-1.60368
-1.60786
-1.61197
-1.61601
-1.61997
-0.572966
-0.573654
-0.57549
-0.578246
-0.581809
-0.586162
-0.591277
-0.597106
-0.603601
-0.610721
-0.618426
-0.626678
-0.63544
-0.644675
-0.654351
-0.664433
-0.67489
-0.685692
-0.69681
-0.708217
-0.719885
-0.73179
-0.743908
-0.756215
-0.768689
-0.78131
-0.794059
-0.806915
-0.819862
-0.832882
-0.845959
-0.859079
-0.872227
-0.885389
-0.898553
-0.911706
-0.924839
-0.937939
-0.950997
-0.964005
-0.976952
-0.989832
-1.00264
-1.01536
-1.02799
-1.04053
-1.05297
-1.0653
-1.07752
-1.08963
-1.10162
-1.11349
-1.12523
-1.13685
-1.14834
-1.15969
-1.17091
-1.18199
-1.19294
-1.20375
-1.21441
-1.22494
-1.23533
-1.24557
-1.25567
-1.26563
-1.27545
-1.28513
-1.29466
-1.30406
-1.31331
-1.32243
-1.3314
-1.34024
-1.34894
-1.3575
-1.36593
-1.37422
-1.38238
-1.39041
-1.39831
-1.40608
-1.41373
-1.42124
-1.42863
-1.4359
-1.44305
-1.45007
-1.45698
-1.46377
-1.47044
-1.477
-1.48345
-1.48979
-1.49602
-1.50213
-1.50815
-1.51405
-1.51986
-1.52556
-1.53117
-1.53667
-1.54208
-1.54739
-1.55261
-1.55774
-1.56277
-1.56772
-1.57257
-1.57735
-1.58203
-1.58664
-1.59116
-1.5956
-1.59996
-1.60424
-1.60844
-1.61257
-1.61663
-1.62061
-0.570349
-0.571014
-0.572831
-0.575569
-0.579115
-0.583455
-0.588559
-0.594378
-0.600866
-0.60798
-0.615681
-0.623932
-0.632694
-0.641933
-0.651612
-0.6617
-0.672166
-0.682978
-0.694108
-0.705528
-0.717211
-0.729133
-0.741268
-0.753595
-0.766091
-0.778735
-0.791507
-0.804389
-0.817363
-0.830411
-0.843518
-0.856668
-0.869847
-0.883042
-0.896239
-0.909428
-0.922596
-0.935732
-0.948828
-0.961873
-0.974859
-0.987778
-1.00062
-1.01338
-1.02606
-1.03864
-1.05112
-1.06349
-1.07576
-1.08791
-1.09994
-1.11185
-1.12364
-1.1353
-1.14683
-1.15823
-1.16949
-1.18062
-1.19161
-1.20246
-1.21317
-1.22374
-1.23417
-1.24446
-1.2546
-1.2646
-1.27447
-1.28418
-1.29376
-1.3032
-1.31249
-1.32165
-1.33066
-1.33954
-1.34828
-1.35688
-1.36535
-1.37369
-1.38189
-1.38995
-1.39789
-1.4057
-1.41338
-1.42093
-1.42836
-1.43566
-1.44284
-1.44991
-1.45685
-1.46367
-1.47038
-1.47697
-1.48345
-1.48982
-1.49608
-1.50223
-1.50828
-1.51422
-1.52005
-1.52578
-1.53142
-1.53695
-1.54239
-1.54773
-1.55297
-1.55813
-1.56319
-1.56816
-1.57305
-1.57785
-1.58256
-1.58719
-1.59173
-1.59619
-1.60058
-1.60489
-1.60911
-1.61327
-1.61735
-1.62135
-0.567388
-0.568027
-0.569821
-0.572538
-0.576067
-0.580391
-0.585482
-0.59129
-0.597769
-0.604877
-0.612575
-0.620824
-0.629587
-0.638828
-0.648512
-0.658607
-0.669082
-0.679905
-0.691048
-0.702482
-0.714183
-0.726123
-0.738279
-0.750628
-0.763148
-0.775818
-0.788617
-0.801528
-0.814532
-0.827612
-0.840752
-0.853936
-0.867151
-0.880383
-0.893619
-0.906846
-0.920054
-0.933232
-0.94637
-0.959458
-0.972488
-0.985451
-0.99834
-1.01115
-1.02387
-1.03649
-1.04902
-1.06144
-1.07376
-1.08596
-1.09804
-1.11
-1.12184
-1.13355
-1.14513
-1.15657
-1.16788
-1.17906
-1.1901
-1.201
-1.21176
-1.22238
-1.23286
-1.24319
-1.25339
-1.26344
-1.27335
-1.28312
-1.29274
-1.30222
-1.31157
-1.32077
-1.32983
-1.33875
-1.34754
-1.35619
-1.3647
-1.37308
-1.38132
-1.38943
-1.39741
-1.40526
-1.41298
-1.42058
-1.42805
-1.43539
-1.44262
-1.44972
-1.4567
-1.46356
-1.47031
-1.47694
-1.48346
-1.48986
-1.49616
-1.50234
-1.50842
-1.5144
-1.52027
-1.52603
-1.5317
-1.53727
-1.54274
-1.54811
-1.55339
-1.55857
-1.56367
-1.56867
-1.57358
-1.57841
-1.58315
-1.58781
-1.59238
-1.59687
-1.60128
-1.60562
-1.60987
-1.61405
-1.61816
-1.62218
-0.564089
-0.564698
-0.566467
-0.569162
-0.57267
-0.576977
-0.582053
-0.58785
-0.594319
-0.60142
-0.609113
-0.61736
-0.626124
-0.635367
-0.645057
-0.65516
-0.665644
-0.676479
-0.687636
-0.699088
-0.710807
-0.722768
-0.734947
-0.74732
-0.759867
-0.772565
-0.785395
-0.798337
-0.811375
-0.82449
-0.837667
-0.85089
-0.864144
-0.877417
-0.890695
-0.903966
-0.917219
-0.930442
-0.943626
-0.956762
-0.969841
-0.982853
-0.995793
-1.00865
-1.02142
-1.0341
-1.04668
-1.05916
-1.07152
-1.08378
-1.09591
-1.10793
-1.11982
-1.13158
-1.14322
-1.15472
-1.16609
-1.17732
-1.18841
-1.19937
-1.21018
-1.22086
-1.23139
-1.24178
-1.25203
-1.26214
-1.2721
-1.28192
-1.2916
-1.30113
-1.31053
-1.31978
-1.3289
-1.33787
-1.34671
-1.3554
-1.36397
-1.37239
-1.38069
-1.38885
-1.39688
-1.40477
-1.41254
-1.42018
-1.4277
-1.43509
-1.44236
-1.4495
-1.45653
-1.46343
-1.47022
-1.47689
-1.48345
-1.4899
-1.49624
-1.50246
-1.50858
-1.5146
-1.5205
-1.52631
-1.53201
-1.53762
-1.54312
-1.54853
-1.55385
-1.55907
-1.56419
-1.56923
-1.57418
-1.57904
-1.58381
-1.5885
-1.5931
-1.59763
-1.60207
-1.60643
-1.61072
-1.61493
-1.61906
-1.62311
-0.560458
-0.561036
-0.562777
-0.565446
-0.568932
-0.573219
-0.578279
-0.584062
-0.590521
-0.597614
-0.605303
-0.613547
-0.622311
-0.631558
-0.641253
-0.651364
-0.661859
-0.672707
-0.68388
-0.69535
-0.707089
-0.719073
-0.731276
-0.743677
-0.756253
-0.768982
-0.781845
-0.794822
-0.807897
-0.821051
-0.834268
-0.847532
-0.860831
-0.874148
-0.887473
-0.900791
-0.914093
-0.927367
-0.940602
-0.953791
-0.966922
-0.979989
-0.992984
-1.0059
-1.01873
-1.03146
-1.0441
-1.05664
-1.06906
-1.08137
-1.09357
-1.10564
-1.1176
-1.12942
-1.14112
-1.15268
-1.16411
-1.1754
-1.18655
-1.19757
-1.20845
-1.21918
-1.22977
-1.24022
-1.25053
-1.2607
-1.27072
-1.2806
-1.29033
-1.29993
-1.30938
-1.31869
-1.32786
-1.33689
-1.34579
-1.35454
-1.36316
-1.37164
-1.37999
-1.3882
-1.39628
-1.40423
-1.41205
-1.41975
-1.42731
-1.43475
-1.44207
-1.44926
-1.45634
-1.46329
-1.47013
-1.47685
-1.48345
-1.48994
-1.49633
-1.5026
-1.50876
-1.51482
-1.52077
-1.52661
-1.53236
-1.538
-1.54355
-1.549
-1.55435
-1.55961
-1.56477
-1.56985
-1.57483
-1.57973
-1.58454
-1.58926
-1.5939
-1.59846
-1.60293
-1.60733
-1.61165
-1.61589
-1.62005
-1.62414
-0.556502
-0.557045
-0.558755
-0.561397
-0.564859
-0.569125
-0.574167
-0.579936
-0.586383
-0.593467
-0.60115
-0.609392
-0.618156
-0.627405
-0.637107
-0.647226
-0.657733
-0.668595
-0.679785
-0.691274
-0.703035
-0.715043
-0.727274
-0.739704
-0.752311
-0.765074
-0.777972
-0.790988
-0.804102
-0.817298
-0.830559
-0.843869
-0.857215
-0.870581
-0.883956
-0.897327
-0.910682
-0.92401
-0.937301
-0.950547
-0.963736
-0.976863
-0.989917
-1.00289
-1.01578
-1.02858
-1.04128
-1.05388
-1.06637
-1.07875
-1.09101
-1.10315
-1.11517
-1.12706
-1.13882
-1.15045
-1.16194
-1.1733
-1.18452
-1.1956
-1.20654
-1.21734
-1.228
-1.23852
-1.24889
-1.25912
-1.26921
-1.27915
-1.28895
-1.29861
-1.30813
-1.3175
-1.32673
-1.33583
-1.34478
-1.35359
-1.36227
-1.37081
-1.37922
-1.38749
-1.39563
-1.40364
-1.41151
-1.41926
-1.42688
-1.43438
-1.44175
-1.449
-1.45612
-1.46313
-1.47002
-1.47679
-1.48345
-1.48999
-1.49642
-1.50274
-1.50895
-1.51505
-1.52105
-1.52694
-1.53273
-1.53842
-1.54401
-1.5495
-1.5549
-1.5602
-1.5654
-1.57052
-1.57554
-1.58048
-1.58533
-1.59009
-1.59477
-1.59936
-1.60387
-1.60831
-1.61266
-1.61694
-1.62113
-1.62525
-0.552227
-0.552732
-0.55441
-0.557022
-0.560457
-0.5647
-0.569723
-0.575475
-0.581909
-0.588984
-0.596661
-0.6049
-0.613663
-0.622916
-0.632624
-0.642753
-0.653271
-0.664149
-0.675356
-0.686866
-0.698651
-0.710685
-0.722944
-0.735405
-0.748046
-0.760845
-0.773783
-0.786839
-0.799996
-0.813237
-0.826545
-0.839904
-0.853301
-0.86672
-0.880149
-0.893576
-0.906988
-0.920375
-0.933727
-0.947034
-0.960286
-0.973476
-0.986595
-0.999637
-1.01259
-1.02546
-1.03823
-1.05089
-1.06345
-1.0759
-1.08823
-1.10044
-1.11253
-1.12449
-1.13633
-1.14803
-1.15959
-1.17102
-1.18231
-1.19347
-1.20448
-1.21535
-1.22608
-1.23667
-1.24711
-1.25741
-1.26757
-1.27758
-1.28745
-1.29718
-1.30676
-1.3162
-1.32551
-1.33466
-1.34368
-1.35256
-1.36131
-1.36991
-1.37838
-1.38672
-1.39492
-1.40299
-1.41093
-1.41874
-1.42642
-1.43397
-1.4414
-1.44871
-1.45589
-1.46295
-1.4699
-1.47672
-1.48344
-1.49003
-1.49651
-1.50289
-1.50915
-1.5153
-1.52135
-1.52729
-1.53313
-1.53887
-1.54451
-1.55005
-1.55549
-1.56083
-1.56609
-1.57124
-1.57631
-1.58129
-1.58618
-1.59099
-1.5957
-1.60034
-1.60489
-1.60936
-1.61375
-1.61807
-1.6223
-1.62646
-0.547639
-0.548103
-0.549745
-0.552326
-0.555732
-0.559951
-0.564953
-0.570687
-0.577108
-0.584172
-0.591841
-0.600077
-0.60884
-0.618096
-0.62781
-0.637949
-0.64848
-0.659373
-0.6706
-0.682131
-0.693941
-0.706003
-0.718293
-0.730787
-0.743464
-0.756302
-0.76928
-0.78238
-0.795583
-0.808872
-0.82223
-0.835642
-0.849093
-0.862568
-0.876056
-0.889542
-0.903016
-0.916466
-0.929882
-0.943255
-0.956575
-0.969833
-0.983021
-0.996133
-1.00916
-1.0221
-1.03494
-1.04768
-1.06032
-1.07284
-1.08524
-1.09753
-1.1097
-1.12173
-1.13364
-1.14542
-1.15706
-1.16857
-1.17994
-1.19117
-1.20226
-1.21321
-1.22401
-1.23468
-1.2452
-1.25557
-1.2658
-1.27589
-1.28584
-1.29564
-1.30529
-1.31481
-1.32418
-1.33341
-1.3425
-1.35145
-1.36027
-1.36894
-1.37748
-1.38588
-1.39415
-1.40229
-1.41029
-1.41817
-1.42591
-1.43353
-1.44102
-1.44839
-1.45564
-1.46276
-1.46977
-1.47665
-1.48342
-1.49007
-1.49661
-1.50304
-1.50936
-1.51557
-1.52167
-1.52767
-1.53356
-1.53935
-1.54504
-1.55063
-1.55612
-1.56151
-1.56681
-1.57202
-1.57714
-1.58216
-1.5871
-1.59194
-1.59671
-1.60139
-1.60598
-1.61049
-1.61493
-1.61928
-1.62356
-1.62775
-0.542744
-0.543165
-0.544769
-0.547315
-0.550691
-0.554883
-0.559862
-0.565578
-0.571983
-0.579036
-0.586698
-0.594929
-0.603692
-0.612951
-0.622671
-0.63282
-0.643364
-0.654274
-0.665521
-0.677075
-0.688911
-0.701002
-0.713325
-0.725854
-0.738569
-0.751448
-0.76447
-0.777616
-0.790867
-0.804207
-0.817619
-0.831087
-0.844595
-0.85813
-0.871679
-0.885229
-0.898768
-0.912286
-0.925771
-0.939213
-0.952604
-0.965935
-0.979198
-0.992385
-1.00549
-1.0185
-1.03142
-1.04424
-1.05696
-1.06956
-1.08204
-1.09441
-1.10666
-1.11878
-1.13077
-1.14263
-1.15435
-1.16594
-1.17739
-1.18871
-1.19988
-1.21091
-1.2218
-1.23254
-1.24314
-1.2536
-1.26391
-1.27408
-1.2841
-1.29398
-1.30372
-1.31331
-1.32276
-1.33207
-1.34123
-1.35026
-1.35915
-1.3679
-1.37651
-1.38498
-1.39333
-1.40153
-1.40961
-1.41755
-1.42537
-1.43305
-1.44061
-1.44805
-1.45536
-1.46255
-1.46962
-1.47657
-1.4834
-1.49012
-1.49672
-1.50321
-1.50958
-1.51585
-1.52201
-1.52806
-1.53401
-1.53986
-1.5456
-1.55124
-1.55679
-1.56224
-1.56759
-1.57285
-1.57801
-1.58309
-1.58807
-1.59297
-1.59778
-1.6025
-1.60714
-1.6117
-1.61618
-1.62058
-1.6249
-1.62913
-0.537548
-0.537922
-0.539486
-0.541996
-0.545339
-0.549502
-0.554457
-0.560153
-0.566542
-0.573583
-0.581236
-0.589462
-0.598224
-0.607486
-0.617213
-0.627371
-0.63793
-0.648857
-0.660124
-0.671703
-0.683566
-0.695688
-0.708044
-0.720611
-0.733366
-0.746287
-0.759355
-0.77255
-0.785853
-0.799247
-0.812715
-0.826241
-0.83981
-0.853409
-0.867023
-0.88064
-0.894249
-0.907837
-0.921395
-0.934912
-0.948378
-0.961786
-0.975128
-0.988394
-1.00158
-1.01468
-1.02768
-1.04058
-1.05338
-1.06606
-1.07864
-1.09109
-1.10342
-1.11563
-1.12771
-1.13965
-1.15146
-1.16314
-1.17468
-1.18608
-1.19734
-1.20846
-1.21943
-1.23026
-1.24095
-1.25149
-1.26189
-1.27214
-1.28225
-1.29221
-1.30203
-1.31171
-1.32124
-1.33063
-1.33988
-1.34898
-1.35795
-1.36678
-1.37547
-1.38402
-1.39244
-1.40072
-1.40887
-1.41689
-1.42478
-1.43254
-1.44017
-1.44768
-1.45506
-1.46232
-1.46946
-1.47647
-1.48337
-1.49015
-1.49682
-1.50337
-1.50981
-1.51615
-1.52237
-1.52848
-1.53449
-1.54039
-1.5462
-1.5519
-1.5575
-1.563
-1.56841
-1.57372
-1.57894
-1.58407
-1.5891
-1.59405
-1.59891
-1.60369
-1.60838
-1.61298
-1.61751
-1.62195
-1.62632
-1.6306
-0.532055
-0.532381
-0.533902
-0.536373
-0.539681
-0.543815
-0.548744
-0.554418
-0.560789
-0.567817
-0.57546
-0.583681
-0.592442
-0.601707
-0.61144
-0.621609
-0.632181
-0.643127
-0.654415
-0.666019
-0.677911
-0.690065
-0.702456
-0.715062
-0.727858
-0.740825
-0.753941
-0.767187
-0.780543
-0.793994
-0.807521
-0.821109
-0.834743
-0.848408
-0.862091
-0.875779
-0.88946
-0.903123
-0.916757
-0.930352
-0.943899
-0.957388
-0.970812
-0.984163
-0.997433
-1.01062
-1.02371
-1.0367
-1.04958
-1.06236
-1.07502
-1.08756
-1.09999
-1.11229
-1.12445
-1.13649
-1.1484
-1.16017
-1.1718
-1.18329
-1.19464
-1.20585
-1.21692
-1.22784
-1.23862
-1.24925
-1.25974
-1.27008
-1.28028
-1.29033
-1.30024
-1.31
-1.31962
-1.3291
-1.33843
-1.34762
-1.35668
-1.36559
-1.37436
-1.383
-1.3915
-1.39986
-1.40809
-1.41619
-1.42415
-1.43199
-1.4397
-1.44728
-1.45474
-1.46207
-1.46928
-1.47637
-1.48334
-1.49019
-1.49693
-1.50355
-1.51005
-1.51645
-1.52274
-1.52892
-1.53499
-1.54096
-1.54682
-1.55258
-1.55824
-1.56381
-1.56927
-1.57464
-1.57992
-1.5851
-1.59019
-1.5952
-1.60011
-1.60494
-1.60968
-1.61434
-1.61891
-1.62341
-1.62782
-1.63215
-0.526273
-0.526547
-0.528023
-0.530452
-0.533724
-0.537826
-0.542727
-0.548378
-0.554731
-0.561744
-0.569377
-0.577592
-0.586351
-0.595618
-0.605358
-0.615537
-0.626124
-0.637088
-0.648398
-0.660028
-0.671949
-0.684137
-0.696565
-0.709211
-0.722051
-0.735065
-0.748231
-0.76153
-0.774943
-0.788452
-0.802041
-0.815694
-0.829395
-0.84313
-0.856885
-0.870647
-0.884405
-0.898146
-0.911861
-0.925538
-0.939169
-0.952743
-0.966254
-0.979693
-0.993052
-1.00633
-1.01951
-1.03259
-1.04557
-1.05844
-1.0712
-1.08384
-1.09636
-1.10875
-1.12102
-1.13315
-1.14515
-1.15702
-1.16875
-1.18034
-1.19179
-1.20309
-1.21426
-1.22528
-1.23615
-1.24688
-1.25746
-1.2679
-1.27819
-1.28834
-1.29834
-1.3082
-1.31791
-1.32748
-1.3369
-1.34618
-1.35532
-1.36432
-1.37318
-1.38191
-1.39049
-1.39894
-1.40726
-1.41544
-1.42349
-1.4314
-1.43919
-1.44685
-1.45439
-1.4618
-1.46908
-1.47625
-1.48329
-1.49022
-1.49703
-1.50372
-1.5103
-1.51677
-1.52313
-1.52937
-1.53551
-1.54155
-1.54748
-1.5533
-1.55903
-1.56465
-1.57018
-1.57561
-1.58095
-1.58619
-1.59134
-1.5964
-1.60137
-1.60625
-1.61105
-1.61576
-1.62039
-1.62494
-1.6294
-1.63378
-0.520205
-0.520425
-0.521853
-0.52424
-0.527473
-0.53154
-0.536413
-0.542039
-0.548372
-0.555369
-0.562991
-0.5712
-0.579957
-0.589226
-0.598971
-0.609161
-0.619763
-0.630745
-0.642078
-0.653735
-0.665687
-0.677908
-0.690375
-0.703062
-0.715948
-0.72901
-0.742228
-0.755583
-0.769054
-0.782625
-0.796279
-0.809999
-0.82377
-0.837578
-0.851408
-0.865248
-0.879086
-0.892909
-0.906708
-0.920471
-0.934189
-0.947853
-0.961455
-0.974986
-0.98844
-1.00181
-1.01509
-1.02827
-1.04134
-1.05431
-1.06717
-1.07991
-1.09253
-1.10503
-1.11739
-1.12963
-1.14173
-1.1537
-1.16553
-1.17723
-1.18878
-1.20018
-1.21145
-1.22257
-1.23355
-1.24438
-1.25506
-1.2656
-1.27599
-1.28623
-1.29633
-1.30629
-1.31609
-1.32576
-1.33528
-1.34466
-1.35389
-1.36298
-1.37194
-1.38075
-1.38943
-1.39797
-1.40637
-1.41464
-1.42277
-1.43078
-1.43865
-1.4464
-1.45401
-1.46151
-1.46887
-1.47612
-1.48324
-1.49025
-1.49713
-1.5039
-1.51055
-1.5171
-1.52353
-1.52984
-1.53606
-1.54216
-1.54816
-1.55405
-1.55985
-1.56554
-1.57113
-1.57663
-1.58202
-1.58733
-1.59254
-1.59766
-1.60269
-1.60763
-1.61249
-1.61726
-1.62194
-1.62654
-1.63106
-1.63549
-0.513857
-0.51402
-0.515399
-0.51774
-0.520932
-0.524964
-0.529806
-0.535406
-0.541717
-0.548698
-0.556308
-0.564509
-0.573263
-0.582534
-0.592286
-0.602486
-0.613102
-0.624103
-0.63546
-0.647143
-0.659127
-0.671384
-0.683889
-0.69662
-0.709553
-0.722665
-0.735937
-0.749349
-0.762882
-0.776517
-0.790237
-0.804028
-0.817871
-0.831755
-0.845663
-0.859584
-0.873505
-0.887414
-0.9013
-0.915153
-0.928963
-0.94272
-0.956417
-0.970045
-0.983596
-0.997064
-1.01044
-1.02372
-1.0369
-1.04998
-1.06294
-1.07578
-1.08851
-1.10111
-1.11358
-1.12593
-1.13814
-1.15021
-1.16215
-1.17395
-1.18561
-1.19712
-1.20849
-1.21972
-1.2308
-1.24174
-1.25253
-1.26317
-1.27367
-1.28402
-1.29422
-1.30427
-1.31418
-1.32395
-1.33357
-1.34305
-1.35238
-1.36157
-1.37062
-1.37953
-1.3883
-1.39693
-1.40543
-1.41379
-1.42202
-1.43011
-1.43807
-1.44591
-1.45361
-1.46119
-1.46864
-1.47597
-1.48318
-1.49026
-1.49723
-1.50408
-1.51081
-1.51743
-1.52394
-1.53033
-1.53662
-1.5428
-1.54887
-1.55483
-1.5607
-1.56646
-1.57212
-1.57768
-1.58315
-1.58852
-1.59379
-1.59898
-1.60407
-1.60907
-1.61399
-1.61882
-1.62356
-1.62822
-1.6328
-1.63729
-0.507235
-0.507339
-0.508665
-0.510958
-0.514108
-0.518102
-0.522911
-0.528484
-0.534773
-0.541735
-0.549333
-0.557526
-0.566276
-0.575547
-0.585305
-0.595515
-0.606146
-0.617166
-0.628547
-0.640258
-0.652274
-0.664567
-0.677113
-0.689888
-0.702869
-0.716033
-0.729361
-0.742832
-0.756428
-0.770129
-0.783919
-0.797782
-0.811701
-0.825663
-0.839653
-0.853658
-0.867665
-0.881662
-0.89564
-0.909586
-0.923491
-0.937345
-0.951141
-0.964869
-0.978522
-0.992094
-1.00558
-1.01896
-1.03225
-1.04543
-1.0585
-1.07146
-1.08429
-1.097
-1.10959
-1.12204
-1.13437
-1.14655
-1.1586
-1.17051
-1.18228
-1.19391
-1.20539
-1.21673
-1.22792
-1.23897
-1.24987
-1.26062
-1.27123
-1.28168
-1.29199
-1.30216
-1.31217
-1.32204
-1.33177
-1.34135
-1.35079
-1.36008
-1.36923
-1.37824
-1.38711
-1.39584
-1.40444
-1.41289
-1.42122
-1.4294
-1.43746
-1.44539
-1.45318
-1.46085
-1.46839
-1.47581
-1.4831
-1.49027
-1.49733
-1.50426
-1.51107
-1.51778
-1.52436
-1.53084
-1.5372
-1.54345
-1.5496
-1.55564
-1.56158
-1.56741
-1.57315
-1.57878
-1.58432
-1.58976
-1.5951
-1.60035
-1.60551
-1.61058
-1.61556
-1.62045
-1.62525
-1.62997
-1.63461
-1.63916
-0.500343
-0.500385
-0.501656
-0.5039
-0.507005
-0.510959
-0.515734
-0.521278
-0.527543
-0.534486
-0.54207
-0.550253
-0.558999
-0.568271
-0.578034
-0.588254
-0.5989
-0.60994
-0.621344
-0.633083
-0.645132
-0.657462
-0.670049
-0.68287
-0.6959
-0.709118
-0.722503
-0.736035
-0.749695
-0.763465
-0.777327
-0.791264
-0.805262
-0.819305
-0.833379
-0.847471
-0.861567
-0.875657
-0.889729
-0.903771
-0.917775
-0.93173
-0.945629
-0.959461
-0.97322
-0.986899
-1.00049
-1.01399
-1.02739
-1.04068
-1.05386
-1.06693
-1.07988
-1.09271
-1.10541
-1.11798
-1.13042
-1.14272
-1.15489
-1.16692
-1.1788
-1.19055
-1.20214
-1.2136
-1.22491
-1.23607
-1.24708
-1.25795
-1.26867
-1.27924
-1.28966
-1.29994
-1.31006
-1.32004
-1.32988
-1.33957
-1.34911
-1.35851
-1.36777
-1.37688
-1.38586
-1.39469
-1.40339
-1.41195
-1.42037
-1.42866
-1.43681
-1.44483
-1.45272
-1.46049
-1.46812
-1.47563
-1.48301
-1.49028
-1.49742
-1.50444
-1.51134
-1.51812
-1.5248
-1.53135
-1.5378
-1.54413
-1.55036
-1.55648
-1.56249
-1.5684
-1.57421
-1.57992
-1.58553
-1.59104
-1.59646
-1.60178
-1.607
-1.61214
-1.61719
-1.62214
-1.62701
-1.6318
-1.6365
-1.6411
-0.493186
-0.493163
-0.494377
-0.496569
-0.499627
-0.503541
-0.50828
-0.513793
-0.520032
-0.526956
-0.534524
-0.542697
-0.551438
-0.56071
-0.570477
-0.580707
-0.591367
-0.602426
-0.613854
-0.625623
-0.637704
-0.650072
-0.662702
-0.675569
-0.68865
-0.701923
-0.715367
-0.728961
-0.742688
-0.756528
-0.770463
-0.784478
-0.798557
-0.812683
-0.826844
-0.841025
-0.855214
-0.869399
-0.883568
-0.897711
-0.911817
-0.925877
-0.939881
-0.953822
-0.967691
-0.981481
-0.995185
-1.0088
-1.02231
-1.03572
-1.04902
-1.06221
-1.07528
-1.08822
-1.10104
-1.11373
-1.12629
-1.13872
-1.15101
-1.16316
-1.17516
-1.18703
-1.19875
-1.21032
-1.22175
-1.23303
-1.24417
-1.25515
-1.26599
-1.27668
-1.28722
-1.29761
-1.30785
-1.31795
-1.3279
-1.3377
-1.34736
-1.35687
-1.36624
-1.37546
-1.38454
-1.39348
-1.40229
-1.41095
-1.41948
-1.42787
-1.43612
-1.44424
-1.45224
-1.4601
-1.46783
-1.47543
-1.48291
-1.49027
-1.4975
-1.50461
-1.5116
-1.51848
-1.52524
-1.53188
-1.53841
-1.54483
-1.55114
-1.55734
-1.56344
-1.56943
-1.57532
-1.5811
-1.58679
-1.59237
-1.59786
-1.60325
-1.60855
-1.61376
-1.61888
-1.6239
-1.62884
-1.63369
-1.63845
-1.64312
-0.485769
-0.485679
-0.486834
-0.488972
-0.491981
-0.495852
-0.500553
-0.506034
-0.512246
-0.519148
-0.5267
-0.534862
-0.543597
-0.552868
-0.562639
-0.572879
-0.583553
-0.594631
-0.606083
-0.617881
-0.629996
-0.642402
-0.655074
-0.667988
-0.681121
-0.69445
-0.707954
-0.721613
-0.735408
-0.74932
-0.763331
-0.777426
-0.791587
-0.805799
-0.820049
-0.834323
-0.848607
-0.86289
-0.87716
-0.891406
-0.905618
-0.919785
-0.933899
-0.947952
-0.961935
-0.97584
-0.989661
-1.00339
-1.01702
-1.03055
-1.04398
-1.05729
-1.07048
-1.08355
-1.09649
-1.10931
-1.122
-1.13455
-1.14696
-1.15923
-1.17137
-1.18336
-1.1952
-1.2069
-1.21846
-1.22986
-1.24112
-1.25223
-1.26319
-1.274
-1.28466
-1.29518
-1.30554
-1.31576
-1.32582
-1.33574
-1.34552
-1.35514
-1.36463
-1.37396
-1.38316
-1.39221
-1.40113
-1.4099
-1.41853
-1.42703
-1.43539
-1.44362
-1.45171
-1.45968
-1.46751
-1.47522
-1.48279
-1.49025
-1.49758
-1.50478
-1.51187
-1.51884
-1.52569
-1.53242
-1.53904
-1.54555
-1.55194
-1.55823
-1.56441
-1.57048
-1.57645
-1.58232
-1.58808
-1.59375
-1.59931
-1.60478
-1.61016
-1.61544
-1.62062
-1.62572
-1.63073
-1.63565
-1.64048
-1.64522
-0.478096
-0.477937
-0.479031
-0.481112
-0.484071
-0.487896
-0.492558
-0.498005
-0.504189
-0.511068
-0.518602
-0.526752
-0.53548
-0.544749
-0.554524
-0.564772
-0.575461
-0.586558
-0.598034
-0.60986
-0.622009
-0.634454
-0.64717
-0.660132
-0.673317
-0.686703
-0.700269
-0.713994
-0.727858
-0.741844
-0.755933
-0.770108
-0.784354
-0.798656
-0.812997
-0.827366
-0.841749
-0.856132
-0.870506
-0.884858
-0.899179
-0.913457
-0.927685
-0.941852
-0.955952
-0.969977
-0.983918
-0.99777
-1.01153
-1.02518
-1.03873
-1.05217
-1.06548
-1.07868
-1.09176
-1.1047
-1.11752
-1.1302
-1.14274
-1.15515
-1.16741
-1.17953
-1.19151
-1.20334
-1.21502
-1.22656
-1.23795
-1.24918
-1.26027
-1.27121
-1.282
-1.29264
-1.30313
-1.31347
-1.32366
-1.3337
-1.34359
-1.35334
-1.36294
-1.3724
-1.38171
-1.39088
-1.39991
-1.40879
-1.41754
-1.42615
-1.43462
-1.44296
-1.45116
-1.45923
-1.46717
-1.47498
-1.48266
-1.49021
-1.49764
-1.50495
-1.51213
-1.5192
-1.52614
-1.53297
-1.53968
-1.54628
-1.55277
-1.55914
-1.56541
-1.57157
-1.57762
-1.58357
-1.58942
-1.59517
-1.60081
-1.60636
-1.61181
-1.61717
-1.62243
-1.62761
-1.63269
-1.63768
-1.64258
-1.64739
-0.470173
-0.469942
-0.470972
-0.472995
-0.4759
-0.479679
-0.4843
-0.489711
-0.495865
-0.502719
-0.510235
-0.518371
-0.527091
-0.536358
-0.546136
-0.556392
-0.567094
-0.57821
-0.58971
-0.601565
-0.613748
-0.626232
-0.638992
-0.652003
-0.665241
-0.678685
-0.692313
-0.706105
-0.720041
-0.734102
-0.74827
-0.762529
-0.776862
-0.791254
-0.80569
-0.820156
-0.834639
-0.849127
-0.863607
-0.878068
-0.8925
-0.906893
-0.921237
-0.935524
-0.949745
-0.963891
-0.977957
-0.991935
-1.00582
-1.0196
-1.03328
-1.04685
-1.0603
-1.07363
-1.08684
-1.09992
-1.11287
-1.12568
-1.13836
-1.1509
-1.1633
-1.17556
-1.18767
-1.19963
-1.21145
-1.22312
-1.23464
-1.24601
-1.25723
-1.2683
-1.27922
-1.28999
-1.30061
-1.31108
-1.32139
-1.33156
-1.34158
-1.35146
-1.36118
-1.37076
-1.38019
-1.38948
-1.39863
-1.40764
-1.4165
-1.42522
-1.43381
-1.44226
-1.45057
-1.45876
-1.4668
-1.47472
-1.48251
-1.49017
-1.4977
-1.50511
-1.51239
-1.51956
-1.5266
-1.53353
-1.54034
-1.54703
-1.55361
-1.56008
-1.56644
-1.57268
-1.57883
-1.58486
-1.5908
-1.59663
-1.60236
-1.60799
-1.61352
-1.61896
-1.6243
-1.62955
-1.63471
-1.63977
-1.64475
-1.64963
-0.462004
-0.461699
-0.462662
-0.464625
-0.467475
-0.471205
-0.475783
-0.481157
-0.487279
-0.494108
-0.501603
-0.509725
-0.518436
-0.527699
-0.537479
-0.547743
-0.558457
-0.569591
-0.581115
-0.592999
-0.605216
-0.617739
-0.630543
-0.643603
-0.656896
-0.670399
-0.684091
-0.69795
-0.711959
-0.726096
-0.740346
-0.754689
-0.769111
-0.783596
-0.798128
-0.812694
-0.82728
-0.841874
-0.856463
-0.871037
-0.885584
-0.900094
-0.914558