/*--------------------------------*- C++ -*----------------------------------*\
  =========                 |
  \\      /  F ield         | OpenFOAM: The Open Source CFD Toolbox
   \\    /   O peration     | Website:  https://openfoam.org
    \\  /    A nd           | Version:  8
     \\/     M anipulation  |
\*---------------------------------------------------------------------------*/
FoamFile
{
    version     2.0;
    format      ascii;
    class       volScalarField;
    location    "34";
    object      nuTilda;
}
// * * * * * * * * * * * * * * * * * * * * * * * * * * * * * * * * * * * * * //

dimensions      [0 2 -1 0 0 0 0];

internalField   nonuniform List<scalar> 
277560
(
0.139979
0.139961
0.139955
0.139956
0.13996
0.139966
0.139972
0.139979
0.139986
0.139992
0.139996
0.14
0.140001
0.140001
0.139999
0.139995
0.139988
0.139979
0.139968
0.139954
0.139937
0.139917
0.139894
0.139868
0.139839
0.139806
0.139769
0.139729
0.139684
0.139636
0.139582
0.139525
0.139462
0.139394
0.13932
0.139241
0.139156
0.139064
0.138967
0.138862
0.138751
0.138634
0.13851
0.138379
0.138241
0.138098
0.137948
0.137793
0.137633
0.137468
0.137298
0.137124
0.136948
0.136768
0.136585
0.136401
0.136215
0.136028
0.13584
0.135652
0.135463
0.135276
0.13509
0.134905
0.134723
0.134544
0.134368
0.134196
0.13403
0.133869
0.133714
0.133567
0.133428
0.133297
0.133177
0.133066
0.132966
0.132878
0.132803
0.13274
0.13269
0.132654
0.132632
0.132624
0.13263
0.13265
0.132683
0.13273
0.132789
0.132859
0.132941
0.133032
0.133133
0.133242
0.133359
0.133482
0.133611
0.133746
0.133885
0.134028
0.134174
0.134323
0.134473
0.134625
0.134777
0.13493
0.135082
0.135234
0.135384
0.135531
0.135675
0.135815
0.135952
0.136084
0.136211
0.136334
0.136452
0.136566
0.136675
0.136778
0.139993
0.139985
0.139984
0.139987
0.139993
0.140001
0.140009
0.140017
0.140024
0.140031
0.140037
0.140041
0.140043
0.140043
0.140042
0.140038
0.140031
0.140023
0.140011
0.139997
0.13998
0.139961
0.139938
0.139911
0.139882
0.139849
0.139812
0.139771
0.139726
0.139676
0.139623
0.139564
0.1395
0.139431
0.139356
0.139276
0.139189
0.139096
0.138997
0.138891
0.138778
0.138658
0.138532
0.138399
0.138259
0.138113
0.137962
0.137804
0.137641
0.137474
0.137302
0.137127
0.136948
0.136767
0.136583
0.136398
0.136211
0.136023
0.135834
0.135645
0.135457
0.135269
0.135082
0.134897
0.134715
0.134536
0.13436
0.134188
0.134022
0.133861
0.133707
0.13356
0.133421
0.133291
0.13317
0.13306
0.132961
0.132874
0.1328
0.132738
0.13269
0.132656
0.132637
0.132632
0.132641
0.132665
0.132704
0.132756
0.132821
0.132899
0.132987
0.133085
0.133192
0.133306
0.133429
0.133557
0.133691
0.133831
0.133974
0.134121
0.134271
0.134424
0.134577
0.134732
0.134887
0.135042
0.135195
0.135347
0.135498
0.135645
0.13579
0.135931
0.136068
0.136201
0.136329
0.136454
0.136573
0.136688
0.136798
0.136903
0.140002
0.140005
0.140011
0.140018
0.140028
0.140038
0.140048
0.140058
0.140067
0.140075
0.140082
0.140087
0.14009
0.140091
0.14009
0.140087
0.140081
0.140073
0.140062
0.140048
0.140031
0.140011
0.139988
0.139962
0.139932
0.139899
0.139862
0.139821
0.139775
0.139726
0.139671
0.139612
0.139548
0.139478
0.139402
0.13932
0.139232
0.139138
0.139037
0.138929
0.138814
0.138692
0.138563
0.138427
0.138284
0.138135
0.137979
0.137818
0.137652
0.137481
0.137306
0.137128
0.136947
0.136763
0.136577
0.136389
0.136201
0.136011
0.135821
0.135632
0.135442
0.135254
0.135067
0.134882
0.134699
0.134519
0.134343
0.134172
0.134005
0.133845
0.133691
0.133544
0.133406
0.133276
0.133157
0.133048
0.13295
0.132865
0.132792
0.132733
0.132688
0.132657
0.132641
0.13264
0.132655
0.132685
0.132731
0.132791
0.132863
0.132948
0.133043
0.133148
0.133261
0.133383
0.133511
0.133646
0.133787
0.133932
0.134082
0.134235
0.134391
0.134549
0.134709
0.134869
0.135029
0.135189
0.135347
0.135504
0.135659
0.13581
0.135959
0.136104
0.136245
0.136382
0.136514
0.136642
0.136764
0.136882
0.136994
0.137101
0.140008
0.140022
0.140035
0.140048
0.140062
0.140075
0.140088
0.1401
0.140111
0.140121
0.140129
0.140135
0.14014
0.140142
0.140141
0.140139
0.140133
0.140126
0.140115
0.140101
0.140085
0.140065
0.140042
0.140016
0.139986
0.139953
0.139916
0.139874
0.139829
0.139778
0.139724
0.139664
0.139599
0.139528
0.139451
0.139369
0.13928
0.139184
0.139081
0.138971
0.138854
0.138729
0.138597
0.138458
0.138312
0.138159
0.137999
0.137834
0.137663
0.137488
0.137309
0.137127
0.136942
0.136755
0.136566
0.136376
0.136185
0.135994
0.135803
0.135612
0.135422
0.135232
0.135045
0.134859
0.134676
0.134496
0.13432
0.134148
0.133982
0.133822
0.133668
0.133522
0.133384
0.133256
0.133137
0.13303
0.132934
0.132851
0.13278
0.132724
0.132682
0.132655
0.132644
0.132649
0.13267
0.132707
0.13276
0.132828
0.132908
0.133
0.133103
0.133215
0.133335
0.133464
0.1336
0.133742
0.13389
0.134044
0.134201
0.134362
0.134526
0.134691
0.134859
0.135026
0.135194
0.135361
0.135527
0.135691
0.135852
0.13601
0.136165
0.136317
0.136464
0.136606
0.136744
0.136876
0.137003
0.137125
0.137241
0.137351
0.140013
0.140036
0.140057
0.140076
0.140094
0.140111
0.140128
0.140143
0.140156
0.140168
0.140177
0.140185
0.14019
0.140193
0.140194
0.140192
0.140187
0.14018
0.140169
0.140156
0.14014
0.14012
0.140097
0.140071
0.140041
0.140007
0.139969
0.139928
0.139882
0.139831
0.139776
0.139715
0.139649
0.139578
0.1395
0.139417
0.139326
0.139229
0.139124
0.139013
0.138893
0.138766
0.138631
0.138489
0.138338
0.138181
0.138017
0.137847
0.137672
0.137492
0.137308
0.137122
0.136933
0.136742
0.13655
0.136358
0.136165
0.135972
0.135779
0.135587
0.135395
0.135205
0.135017
0.13483
0.134647
0.134467
0.134291
0.134119
0.133953
0.133793
0.13364
0.133494
0.133358
0.13323
0.133113
0.133007
0.132913
0.132832
0.132765
0.132712
0.132674
0.132651
0.132645
0.132656
0.132683
0.132728
0.132789
0.132864
0.132952
0.133052
0.133162
0.133282
0.13341
0.133547
0.133691
0.133842
0.133999
0.134161
0.134327
0.134497
0.13467
0.134845
0.135021
0.135198
0.135375
0.135551
0.135725
0.135898
0.136067
0.136234
0.136397
0.136556
0.13671
0.13686
0.137004
0.137142
0.137274
0.137401
0.137521
0.137635
0.140018
0.140049
0.140076
0.140102
0.140125
0.140146
0.140166
0.140184
0.1402
0.140213
0.140225
0.140234
0.14024
0.140244
0.140246
0.140245
0.14024
0.140233
0.140223
0.14021
0.140193
0.140174
0.140151
0.140124
0.140094
0.140059
0.140021
0.139979
0.139932
0.139881
0.139825
0.139764
0.139697
0.139625
0.139546
0.139461
0.139369
0.13927
0.139164
0.13905
0.138928
0.138798
0.138661
0.138515
0.138361
0.138199
0.138031
0.137856
0.137676
0.137491
0.137303
0.137111
0.136918
0.136724
0.136529
0.136334
0.136139
0.135944
0.13575
0.135556
0.135364
0.135173
0.134984
0.134797
0.134613
0.134433
0.134257
0.134085
0.133919
0.13376
0.133607
0.133463
0.133327
0.133201
0.133085
0.132981
0.132889
0.132811
0.132746
0.132697
0.132662
0.132645
0.132644
0.13266
0.132694
0.132746
0.132815
0.132898
0.132994
0.133101
0.133219
0.133347
0.133485
0.13363
0.133783
0.133943
0.134109
0.134281
0.134457
0.134637
0.13482
0.135005
0.135191
0.135378
0.135565
0.135751
0.135935
0.136118
0.136297
0.136473
0.136645
0.136813
0.136975
0.137132
0.137284
0.137429
0.137567
0.137699
0.137824
0.137942
0.140021
0.14006
0.140094
0.140125
0.140154
0.140179
0.140202
0.140223
0.140242
0.140257
0.140271
0.140281
0.140289
0.140294
0.140296
0.140296
0.140292
0.140285
0.140275
0.140261
0.140245
0.140225
0.140201
0.140174
0.140144
0.140109
0.14007
0.140027
0.139979
0.139927
0.13987
0.139808
0.13974
0.139666
0.139586
0.1395
0.139406
0.139306
0.139197
0.139081
0.138957
0.138824
0.138683
0.138534
0.138376
0.13821
0.138038
0.137858
0.137673
0.137483
0.13729
0.137095
0.136898
0.1367
0.136502
0.136305
0.136108
0.135911
0.135715
0.135521
0.135327
0.135136
0.134946
0.134759
0.134575
0.134395
0.134218
0.134047
0.133882
0.133722
0.133571
0.133427
0.133292
0.133167
0.133053
0.132951
0.132862
0.132786
0.132724
0.132678
0.132648
0.132635
0.132639
0.132661
0.132702
0.132761
0.132838
0.132928
0.133032
0.133147
0.133274
0.13341
0.133556
0.133711
0.133873
0.134043
0.134219
0.134401
0.134587
0.134778
0.134971
0.135167
0.135364
0.135562
0.13576
0.135957
0.136152
0.136345
0.136535
0.136721
0.136903
0.137079
0.137251
0.137416
0.137576
0.137728
0.137874
0.138012
0.138142
0.138264
0.140025
0.14007
0.14011
0.140147
0.14018
0.14021
0.140237
0.14026
0.140281
0.140299
0.140314
0.140326
0.140335
0.140341
0.140344
0.140344
0.14034
0.140334
0.140323
0.14031
0.140293
0.140273
0.140249
0.140221
0.140189
0.140154
0.140114
0.14007
0.140021
0.139968
0.13991
0.139846
0.139777
0.139701
0.13962
0.139531
0.139436
0.139333
0.139222
0.139104
0.138977
0.138841
0.138696
0.138543
0.138382
0.138212
0.138035
0.137851
0.137661
0.137466
0.137269
0.13707
0.13687
0.136669
0.136469
0.13627
0.136071
0.135873
0.135676
0.13548
0.135286
0.135094
0.134904
0.134717
0.134533
0.134352
0.134177
0.134006
0.133841
0.133682
0.133531
0.133388
0.133255
0.133131
0.133019
0.132919
0.132831
0.132758
0.1327
0.132657
0.132631
0.132622
0.132631
0.132659
0.132706
0.132772
0.132856
0.132954
0.133065
0.133189
0.133323
0.133468
0.133623
0.133787
0.133959
0.134139
0.134326
0.134518
0.134715
0.134917
0.135121
0.135328
0.135537
0.135747
0.135956
0.136164
0.136371
0.136575
0.136775
0.136972
0.137164
0.137351
0.137532
0.137707
0.137874
0.138035
0.138187
0.138332
0.138468
0.138595
0.140028
0.140079
0.140125
0.140167
0.140204
0.140238
0.140268
0.140295
0.140318
0.140338
0.140355
0.140369
0.140379
0.140385
0.140389
0.140389
0.140385
0.140379
0.140368
0.140354
0.140337
0.140316
0.140291
0.140262
0.14023
0.140193
0.140152
0.140107
0.140057
0.140002
0.139942
0.139877
0.139806
0.139729
0.139645
0.139554
0.139457
0.139351
0.139238
0.139117
0.138986
0.138847
0.138699
0.138542
0.138377
0.138203
0.138021
0.137832
0.137638
0.13744
0.137239
0.137036
0.136833
0.136631
0.136429
0.136228
0.136028
0.135829
0.135632
0.135435
0.135241
0.135049
0.134858
0.134671
0.134487
0.134307
0.134132
0.133961
0.133797
0.133639
0.133489
0.133347
0.133215
0.133093
0.132982
0.132884
0.132799
0.132728
0.132672
0.132633
0.13261
0.132606
0.13262
0.132653
0.132706
0.132779
0.13287
0.132975
0.133094
0.133225
0.133368
0.133522
0.133686
0.133859
0.134041
0.134231
0.134428
0.134631
0.134839
0.135052
0.135268
0.135487
0.135707
0.135928
0.136149
0.136369
0.136588
0.136803
0.137015
0.137223
0.137426
0.137623
0.137814
0.137998
0.138175
0.138344
0.138504
0.138656
0.138798
0.138931
0.14003
0.140087
0.140139
0.140185
0.140227
0.140264
0.140297
0.140327
0.140353
0.140374
0.140393
0.140407
0.140418
0.140426
0.140429
0.14043
0.140426
0.140419
0.140408
0.140394
0.140376
0.140354
0.140328
0.140298
0.140265
0.140227
0.140184
0.140137
0.140086
0.140029
0.139967
0.1399
0.139827
0.139747
0.139661
0.139568
0.139468
0.13936
0.139243
0.139118
0.138985
0.138842
0.13869
0.138529
0.138359
0.138181
0.137995
0.137802
0.137604
0.137402
0.137198
0.136993
0.136789
0.136585
0.136382
0.13618
0.13598
0.135781
0.135583
0.135386
0.135192
0.134999
0.13481
0.134623
0.134439
0.134259
0.134084
0.133915
0.133751
0.133594
0.133445
0.133304
0.133173
0.133052
0.132943
0.132847
0.132764
0.132695
0.132642
0.132606
0.132587
0.132586
0.132605
0.132643
0.132702
0.132781
0.132878
0.132991
0.133117
0.133256
0.133407
0.133569
0.133742
0.133925
0.134117
0.134317
0.134524
0.134738
0.134957
0.135181
0.135409
0.135639
0.135871
0.136105
0.136338
0.13657
0.1368
0.137027
0.137251
0.13747
0.137684
0.137892
0.138094
0.138288
0.138474
0.138652
0.13882
0.138979
0.139129
0.139268
0.140033
0.140095
0.140151
0.140201
0.140247
0.140287
0.140324
0.140356
0.140383
0.140407
0.140427
0.140442
0.140454
0.140462
0.140466
0.140466
0.140462
0.140455
0.140443
0.140428
0.140409
0.140386
0.140359
0.140328
0.140293
0.140253
0.140209
0.14016
0.140106
0.140048
0.139984
0.139914
0.139838
0.139756
0.139667
0.139571
0.139468
0.139357
0.139237
0.139108
0.138971
0.138824
0.138668
0.138503
0.138329
0.138146
0.137956
0.13776
0.137558
0.137354
0.137148
0.136942
0.136736
0.136532
0.136329
0.136127
0.135926
0.135727
0.13553
0.135333
0.135139
0.134947
0.134758
0.134572
0.134389
0.13421
0.134035
0.133866
0.133704
0.133548
0.133399
0.13326
0.13313
0.133011
0.132903
0.132808
0.132727
0.132661
0.132611
0.132577
0.132561
0.132564
0.132587
0.13263
0.132693
0.132778
0.132882
0.133001
0.133134
0.133281
0.13344
0.13361
0.133792
0.133984
0.134185
0.134395
0.134613
0.134837
0.135068
0.135303
0.135542
0.135784
0.136029
0.136274
0.136519
0.136763
0.137006
0.137245
0.137481
0.137712
0.137937
0.138156
0.138368
0.138573
0.138769
0.138955
0.139133
0.1393
0.139456
0.139602
0.140035
0.140101
0.140161
0.140216
0.140265
0.140308
0.140347
0.140381
0.140411
0.140436
0.140456
0.140473
0.140485
0.140493
0.140497
0.140497
0.140493
0.140484
0.140472
0.140456
0.140436
0.140411
0.140383
0.14035
0.140313
0.140272
0.140226
0.140175
0.140119
0.140058
0.139991
0.139919
0.13984
0.139755
0.139663
0.139564
0.139457
0.139342
0.139218
0.139086
0.138944
0.138793
0.138633
0.138463
0.138285
0.138098
0.137904
0.137704
0.1375
0.137294
0.137088
0.136882
0.136676
0.136473
0.13627
0.136069
0.135869
0.13567
0.135473
0.135278
0.135084
0.134893
0.134704
0.134519
0.134337
0.134159
0.133985
0.133817
0.133655
0.1335
0.133353
0.133215
0.133086
0.132969
0.132863
0.132769
0.13269
0.132626
0.132578
0.132547
0.132534
0.13254
0.132566
0.132613
0.132681
0.132771
0.13288
0.133006
0.133146
0.1333
0.133466
0.133645
0.133835
0.134036
0.134246
0.134466
0.134694
0.134929
0.13517
0.135416
0.135667
0.135921
0.136177
0.136434
0.136692
0.136948
0.137202
0.137454
0.137702
0.137944
0.138182
0.138412
0.138635
0.13885
0.139057
0.139253
0.13944
0.139615
0.13978
0.139932
0.140037
0.140107
0.140171
0.140229
0.14028
0.140327
0.140368
0.140404
0.140435
0.140461
0.140482
0.140499
0.140511
0.140519
0.140523
0.140522
0.140517
0.140508
0.140495
0.140477
0.140456
0.14043
0.1404
0.140365
0.140326
0.140282
0.140234
0.140181
0.140122
0.140058
0.139989
0.139913
0.139831
0.139743
0.139647
0.139544
0.139433
0.139314
0.139186
0.13905
0.138903
0.138748
0.138583
0.138409
0.138226
0.138036
0.137839
0.137637
0.137432
0.137225
0.137019
0.136814
0.13661
0.136408
0.136206
0.136006
0.135807
0.13561
0.135414
0.135219
0.135027
0.134837
0.134649
0.134465
0.134284
0.134107
0.133935
0.133768
0.133607
0.133453
0.133307
0.13317
0.133043
0.132926
0.132822
0.13273
0.132652
0.13259
0.132544
0.132515
0.132504
0.132513
0.132542
0.132592
0.132665
0.132759
0.132874
0.133005
0.133152
0.133312
0.133486
0.133673
0.133871
0.13408
0.1343
0.134529
0.134766
0.135011
0.135263
0.13552
0.135782
0.136047
0.136315
0.136584
0.136854
0.137122
0.137389
0.137653
0.137913
0.138167
0.138416
0.138659
0.138893
0.139119
0.139336
0.139543
0.139739
0.139923
0.140096
0.140256
0.140039
0.140113
0.140179
0.14024
0.140294
0.140343
0.140385
0.140423
0.140455
0.140482
0.140504
0.140521
0.140533
0.14054
0.140543
0.140542
0.140536
0.140526
0.140511
0.140492
0.140469
0.140441
0.140409
0.140372
0.140331
0.140284
0.140233
0.140177
0.140116
0.140049
0.139976
0.139897
0.139812
0.139719
0.13962
0.139513
0.139397
0.139274
0.139141
0.138999
0.138849
0.138688
0.138519
0.13834
0.138154
0.13796
0.137761
0.137558
0.137353
0.137148
0.136944
0.136741
0.136539
0.136338
0.136139
0.13594
0.135743
0.135547
0.135353
0.13516
0.134969
0.13478
0.134594
0.134411
0.134231
0.134056
0.133885
0.133719
0.13356
0.133407
0.133262
0.133126
0.133
0.132885
0.132782
0.132691
0.132615
0.132554
0.132509
0.132482
0.132474
0.132485
0.132517
0.13257
0.132645
0.132743
0.132863
0.132999
0.133152
0.133319
0.1335
0.133693
0.133899
0.134117
0.134345
0.134583
0.13483
0.135084
0.135346
0.135614
0.135887
0.136163
0.136443
0.136723
0.137005
0.137285
0.137564
0.13784
0.138112
0.138379
0.13864
0.138894
0.13914
0.139378
0.139605
0.139822
0.140028
0.140223
0.140404
0.140573
0.140041
0.140117
0.140187
0.140249
0.140306
0.140356
0.1404
0.140438
0.140471
0.140498
0.14052
0.140537
0.140549
0.140556
0.140558
0.140555
0.140548
0.140537
0.14052
0.140499
0.140474
0.140444
0.14041
0.14037
0.140326
0.140277
0.140223
0.140164
0.140099
0.140029
0.139953
0.13987
0.13978
0.139684
0.13958
0.139468
0.139348
0.139219
0.139082
0.138935
0.138779
0.138614
0.13844
0.138258
0.138068
0.137872
0.137672
0.13747
0.137268
0.137066
0.136864
0.136664
0.136464
0.136266
0.136069
0.135873
0.135677
0.135483
0.135291
0.1351
0.134911
0.134724
0.134539
0.134358
0.13418
0.134006
0.133836
0.133672
0.133514
0.133362
0.133219
0.133084
0.132959
0.132845
0.132743
0.132654
0.132579
0.132519
0.132476
0.13245
0.132443
0.132456
0.13249
0.132545
0.132623
0.132724
0.132848
0.132989
0.133147
0.13332
0.133507
0.133707
0.13392
0.134145
0.134381
0.134628
0.134884
0.135148
0.13542
0.135697
0.135981
0.136268
0.136559
0.136851
0.137144
0.137436
0.137727
0.138015
0.138299
0.138578
0.138852
0.139117
0.139375
0.139624
0.139863
0.140091
0.140308
0.140512
0.140703
0.140881
0.140042
0.140121
0.140193
0.140257
0.140315
0.140367
0.140412
0.140451
0.140484
0.140511
0.140533
0.140549
0.14056
0.140566
0.140567
0.140563
0.140554
0.14054
0.140522
0.140499
0.140471
0.140439
0.140402
0.14036
0.140313
0.140261
0.140204
0.140141
0.140073
0.139998
0.139918
0.139831
0.139737
0.139636
0.139527
0.13941
0.139285
0.139151
0.139008
0.138857
0.138696
0.138526
0.138348
0.138162
0.137971
0.137775
0.137576
0.137377
0.137178
0.136979
0.136781
0.136584
0.136388
0.136193
0.135998
0.135804
0.135612
0.13542
0.13523
0.135041
0.134854
0.134669
0.134486
0.134307
0.13413
0.133958
0.13379
0.133627
0.133471
0.133321
0.133179
0.133045
0.132921
0.132808
0.132707
0.132619
0.132545
0.132486
0.132444
0.132419
0.132414
0.132428
0.132463
0.13252
0.132599
0.132703
0.132829
0.132975
0.133138
0.133316
0.133508
0.133715
0.133935
0.134167
0.13441
0.134664
0.134929
0.135202
0.135482
0.13577
0.136063
0.136361
0.136662
0.136966
0.13727
0.137574
0.137877
0.138177
0.138473
0.138764
0.13905
0.139328
0.139598
0.139858
0.140109
0.140348
0.140575
0.14079
0.140991
0.141178
0.140043
0.140124
0.140198
0.140264
0.140323
0.140375
0.14042
0.140459
0.140492
0.140519
0.14054
0.140555
0.140565
0.14057
0.140569
0.140563
0.140553
0.140537
0.140516
0.140491
0.140461
0.140426
0.140386
0.140341
0.14029
0.140235
0.140174
0.140107
0.140035
0.139957
0.139872
0.13978
0.139681
0.139575
0.139461
0.139339
0.139208
0.139069
0.138921
0.138764
0.138598
0.138424
0.138243
0.138056
0.137865
0.137671
0.137476
0.137281
0.137086
0.136892
0.136698
0.136504
0.136312
0.13612
0.135928
0.135737
0.135548
0.135359
0.135171
0.134985
0.1348
0.134617
0.134437
0.134259
0.134085
0.133914
0.133748
0.133587
0.133431
0.133283
0.133142
0.13301
0.132887
0.132775
0.132675
0.132587
0.132514
0.132456
0.132414
0.13239
0.132385
0.1324
0.132436
0.132494
0.132575
0.13268
0.132808
0.132958
0.133124
0.133307
0.133505
0.133717
0.133942
0.134181
0.134431
0.134693
0.134965
0.135246
0.135535
0.135832
0.136135
0.136443
0.136754
0.137068
0.137383
0.137699
0.138013
0.138325
0.138633
0.138937
0.139234
0.139524
0.139806
0.140079
0.140341
0.140592
0.140831
0.141056
0.141268
0.141465
0.140044
0.140127
0.140201
0.140268
0.140328
0.14038
0.140426
0.140465
0.140497
0.140523
0.140543
0.140557
0.140565
0.140568
0.140565
0.140557
0.140544
0.140526
0.140503
0.140475
0.140442
0.140404
0.14036
0.140312
0.140258
0.140199
0.140134
0.140063
0.139986
0.139903
0.139814
0.139717
0.139613
0.139501
0.139382
0.139254
0.139118
0.138973
0.13882
0.138658
0.138488
0.138312
0.13813
0.137943
0.137755
0.137565
0.137375
0.137185
0.136995
0.136805
0.136616
0.136426
0.136237
0.136049
0.135861
0.135673
0.135487
0.135301
0.135116
0.134932
0.13475
0.134569
0.134391
0.134216
0.134043
0.133875
0.13371
0.133551
0.133397
0.13325
0.133111
0.13298
0.132858
0.132747
0.132647
0.13256
0.132487
0.13243
0.132388
0.132365
0.13236
0.132375
0.132411
0.132469
0.132551
0.132656
0.132786
0.132938
0.133108
0.133294
0.133496
0.133713
0.133944
0.134188
0.134445
0.134713
0.134992
0.135281
0.135578
0.135883
0.136195
0.136512
0.136834
0.137158
0.137484
0.13781
0.138136
0.138459
0.138779
0.139094
0.139404
0.139706
0.14
0.140285
0.140559
0.140822
0.141073
0.14131
0.141532
0.14174
0.140045
0.140128
0.140204
0.140271
0.140331
0.140383
0.140428
0.140466
0.140497
0.140522
0.14054
0.140553
0.140559
0.14056
0.140555
0.140544
0.140529
0.140508
0.140482
0.140451
0.140414
0.140373
0.140326
0.140274
0.140216
0.140153
0.140083
0.140008
0.139927
0.139838
0.139743
0.139641
0.139532
0.139415
0.139289
0.139156
0.139014
0.138864
0.138706
0.138541
0.138369
0.138192
0.138012
0.137829
0.137645
0.137461
0.137277
0.137092
0.136907
0.136722
0.136537
0.136352
0.136167
0.135982
0.135798
0.135614
0.135431
0.135248
0.135066
0.134885
0.134706
0.134528
0.134352
0.134179
0.134009
0.133842
0.13368
0.133522
0.13337
0.133224
0.133086
0.132956
0.132835
0.132725
0.132626
0.132539
0.132467
0.132409
0.132368
0.132344
0.132339
0.132353
0.132389
0.132447
0.132528
0.132633
0.132763
0.132916
0.133089
0.133279
0.133484
0.133705
0.133941
0.13419
0.134452
0.134726
0.135011
0.135307
0.135611
0.135924
0.136244
0.13657
0.136901
0.137235
0.137571
0.137908
0.138244
0.138579
0.138911
0.139238
0.139559
0.139874
0.14018
0.140477
0.140763
0.141038
0.141301
0.141549
0.141784
0.142002
0.140045
0.14013
0.140205
0.140272
0.140332
0.140383
0.140427
0.140464
0.140494
0.140516
0.140533
0.140543
0.140547
0.140545
0.140538
0.140525
0.140506
0.140482
0.140453
0.140418
0.140378
0.140333
0.140282
0.140226
0.140164
0.140096
0.140022
0.139942
0.139855
0.139762
0.139661
0.139554
0.139438
0.139315
0.139184
0.139045
0.138899
0.138744
0.138583
0.138417
0.138246
0.138072
0.137896
0.137719
0.137541
0.137363
0.137184
0.137005
0.136825
0.136645
0.136464
0.136284
0.136103
0.135923
0.135742
0.135562
0.135382
0.135202
0.135023
0.134846
0.134669
0.134494
0.134321
0.13415
0.133982
0.133818
0.133657
0.133501
0.133351
0.133207
0.13307
0.132941
0.132821
0.132711
0.132612
0.132526
0.132453
0.132395
0.132353
0.132329
0.132323
0.132336
0.132371
0.132428
0.132508
0.132612
0.13274
0.132894
0.133069
0.133261
0.13347
0.133694
0.133933
0.134186
0.134453
0.134732
0.135023
0.135324
0.135636
0.135956
0.136284
0.136618
0.136957
0.1373
0.137646
0.137993
0.138339
0.138685
0.139028
0.139366
0.139699
0.140026
0.140344
0.140654
0.140952
0.14124
0.141514
0.141775
0.142021
0.142251
0.140046
0.14013
0.140205
0.140272
0.14033
0.140381
0.140423
0.140458
0.140486
0.140506
0.14052
0.140528
0.140529
0.140525
0.140514
0.140498
0.140476
0.140449
0.140416
0.140378
0.140334
0.140285
0.14023
0.140169
0.140102
0.14003
0.139951
0.139865
0.139773
0.139674
0.139568
0.139454
0.139333
0.139204
0.139068
0.138925
0.138774
0.138618
0.138457
0.138292
0.138125
0.137957
0.137787
0.137617
0.137445
0.137273
0.137099
0.136925
0.136751
0.136576
0.1364
0.136224
0.136048
0.135871
0.135695
0.135518
0.135342
0.135166
0.13499
0.134815
0.134642
0.13447
0.134299
0.134131
0.133965
0.133803
0.133645
0.133491
0.133342
0.133199
0.133063
0.132935
0.132816
0.132706
0.132608
0.132522
0.132448
0.13239
0.132347
0.132321
0.132314
0.132326
0.132359
0.132414
0.132492
0.132594
0.132721
0.132874
0.133049
0.133243
0.133453
0.13368
0.133922
0.134178
0.134449
0.134732
0.135028
0.135335
0.135652
0.135979
0.136313
0.136654
0.137002
0.137353
0.137708
0.138064
0.138421
0.138777
0.13913
0.13948
0.139825
0.140163
0.140494
0.140815
0.141126
0.141426
0.141713
0.141986
0.142244
0.142487
0.140046
0.140129
0.140204
0.14027
0.140327
0.140375
0.140416
0.140448
0.140474
0.140492
0.140503
0.140507
0.140506
0.140498
0.140484
0.140464
0.140439
0.140408
0.140371
0.140329
0.140281
0.140227
0.140168
0.140102
0.140031
0.139953
0.139869
0.139778
0.13968
0.139575
0.139463
0.139344
0.139218
0.139084
0.138944
0.138797
0.138646
0.138491
0.138334
0.138175
0.138015
0.137853
0.13769
0.137525
0.13736
0.137193
0.137025
0.136857
0.136687
0.136517
0.136347
0.136175
0.136003
0.135831
0.135659
0.135486
0.135313
0.135141
0.134969
0.134797
0.134626
0.134457
0.134289
0.134124
0.133961
0.1338
0.133644
0.133492
0.133345
0.133203
0.133069
0.132941
0.132823
0.132714
0.132615
0.132528
0.132454
0.132395
0.13235
0.132323
0.132313
0.132323
0.132354
0.132407
0.132482
0.132581
0.132706
0.132856
0.13303
0.133225
0.133436
0.133665
0.133909
0.134168
0.134441
0.134728
0.135028
0.135339
0.135661
0.135993
0.136334
0.136682
0.137036
0.137395
0.137758
0.138123
0.13849
0.138855
0.139219
0.13958
0.139936
0.140285
0.140628
0.140961
0.141285
0.141597
0.141897
0.142182
0.142453
0.142708
0.140045
0.140128
0.140202
0.140266
0.140321
0.140367
0.140405
0.140435
0.140457
0.140472
0.14048
0.140481
0.140476
0.140465
0.140447
0.140424
0.140394
0.140359
0.140318
0.140272
0.140219
0.140161
0.140097
0.140026
0.13995
0.139866
0.139777
0.13968
0.139577
0.139466
0.139349
0.139225
0.139094
0.138958
0.138816
0.138671
0.138524
0.138375
0.138224
0.138072
0.137918
0.137762
0.137605
0.137447
0.137287
0.137127
0.136965
0.136802
0.136638
0.136473
0.136307
0.13614
0.135973
0.135805
0.135636
0.135467
0.135299
0.13513
0.134961
0.134793
0.134625
0.134459
0.134294
0.134131
0.13397
0.133812
0.133657
0.133507
0.133361
0.133221
0.133088
0.132961
0.132843
0.132734
0.132635
0.132548
0.132473
0.132411
0.132365
0.132335
0.132323
0.132331
0.132358
0.132407
0.132479
0.132575
0.132696
0.132842
0.133015
0.133209
0.133421
0.13365
0.133895
0.134156
0.134431
0.13472
0.135023
0.135338
0.135664
0.136001
0.136346
0.1367
0.137061
0.137427
0.137797
0.138171
0.138546
0.138921
0.139294
0.139665
0.140032
0.140393
0.140747
0.141092
0.141428
0.141753
0.142065
0.142364
0.142647
0.142915
0.140045
0.140126
0.140198
0.14026
0.140312
0.140356
0.140391
0.140418
0.140436
0.140448
0.140452
0.14045
0.140441
0.140425
0.140404
0.140376
0.140343
0.140303
0.140258
0.140207
0.14015
0.140086
0.140017
0.139941
0.139859
0.139771
0.139676
0.139574
0.139465
0.13935
0.139228
0.139101
0.138969
0.138834
0.138696
0.138557
0.138416
0.138274
0.13813
0.137984
0.137836
0.137687
0.137537
0.137385
0.137231
0.137076
0.13692
0.136763
0.136604
0.136444
0.136283
0.136121
0.135958
0.135795
0.13563
0.135465
0.1353
0.135135
0.13497
0.134805
0.13464
0.134477
0.134314
0.134154
0.133996
0.13384
0.133687
0.133539
0.133394
0.133256
0.133123
0.132997
0.132879
0.132769
0.13267
0.132581
0.132505
0.132441
0.132393
0.132361
0.132345
0.132349
0.132373
0.132418
0.132486
0.132578
0.132694
0.132836
0.133004
0.133196
0.133407
0.133636
0.133882
0.134143
0.13442
0.134711
0.135015
0.135333
0.135662
0.136002
0.136352
0.136711
0.137077
0.137449
0.137826
0.138207
0.13859
0.138974
0.139357
0.139737
0.140114
0.140486
0.140851
0.141208
0.141556
0.141893
0.142218
0.14253
0.142826
0.143107
0.140044
0.140124
0.140193
0.140252
0.140302
0.140342
0.140373
0.140396
0.140411
0.140419
0.140419
0.140412
0.140399
0.14038
0.140354
0.140322
0.140284
0.14024
0.14019
0.140134
0.140072
0.140004
0.139929
0.139849
0.139761
0.139668
0.139567
0.139461
0.139348
0.13923
0.139107
0.138981
0.138853
0.138724
0.138593
0.138461
0.138327
0.138191
0.138054
0.137915
0.137774
0.137632
0.137488
0.137342
0.137194
0.137045
0.136895
0.136743
0.136589
0.136435
0.136278
0.136121
0.135963
0.135804
0.135644
0.135483
0.135321
0.13516
0.134998
0.134836
0.134675
0.134514
0.134354
0.134196
0.13404
0.133887
0.133736
0.133589
0.133445
0.133307
0.133175
0.133049
0.132931
0.132821
0.13272
0.13263
0.132552
0.132487
0.132436
0.1324
0.132381
0.132381
0.1324
0.132441
0.132504
0.13259
0.132701
0.132837
0.133
0.133189
0.133398
0.133626
0.133871
0.134132
0.134408
0.1347
0.135006
0.135325
0.135656
0.135999
0.136352
0.136715
0.137086
0.137463
0.137846
0.138234
0.138624
0.139015
0.139407
0.139796
0.140183
0.140565
0.140941
0.14131
0.14167
0.142019
0.142356
0.14268
0.14299
0.143283
0.140043
0.14012
0.140187
0.140242
0.140288
0.140325
0.140352
0.140371
0.140382
0.140385
0.140381
0.14037
0.140352
0.140328
0.140298
0.140261
0.140219
0.14017
0.140115
0.140054
0.139987
0.139914
0.139835
0.139749
0.139657
0.139558
0.139454
0.139345
0.139231
0.139114
0.138997
0.138877
0.138757
0.138635
0.138511
0.138386
0.138259
0.13813
0.138
0.137868
0.137734
0.137598
0.13746
0.137321
0.137179
0.137036
0.136891
0.136745
0.136597
0.136447
0.136296
0.136144
0.13599
0.135835
0.135679
0.135522
0.135365
0.135207
0.135048
0.13489
0.134731
0.134573
0.134416
0.13426
0.134106
0.133954
0.133805
0.133659
0.133516
0.133379
0.133247
0.133121
0.133002
0.132891
0.132789
0.132697
0.132617
0.132549
0.132494
0.132455
0.132433
0.132428
0.132442
0.132477
0.132534
0.132614
0.132719
0.132849
0.133005
0.133189
0.133395
0.13362
0.133863
0.134123
0.134399
0.13469
0.134996
0.135315
0.135648
0.135993
0.136348
0.136714
0.137088
0.13747
0.137858
0.138251
0.138648
0.139046
0.139445
0.139843
0.140239
0.140631
0.141018
0.141397
0.141768
0.142129
0.142479
0.142816
0.143138
0.143445
0.140042
0.140116
0.140179
0.140231
0.140273
0.140305
0.140328
0.140342
0.140348
0.140347
0.140338
0.140322
0.1403
0.140271
0.140236
0.140195
0.140147
0.140094
0.140034
0.139969
0.139897
0.139819
0.139734
0.139644
0.139548
0.139448
0.139343
0.139235
0.139127
0.139018
0.138907
0.138796
0.138682
0.138568
0.138452
0.138334
0.138215
0.138093
0.13797
0.137845
0.137718
0.137589
0.137458
0.137325
0.13719
0.137053
0.136914
0.136773
0.13663
0.136486
0.13634
0.136192
0.136043
0.135892
0.135741
0.135587
0.135433
0.135279
0.135123
0.134968
0.134812
0.134656
0.134501
0.134347
0.134195
0.134044
0.133896
0.133751
0.133609
0.133472
0.133339
0.133213
0.133093
0.132981
0.132877
0.132783
0.1327
0.132629
0.132572
0.132528
0.132501
0.132491
0.1325
0.132529
0.132579
0.132653
0.13275
0.132873
0.133022
0.133197
0.133399
0.133621
0.133861
0.134119
0.134393
0.134683
0.134987
0.135307
0.135639
0.135985
0.136342
0.136709
0.137086
0.137471
0.137863
0.138261
0.138663
0.139067
0.139473
0.139879
0.140284
0.140685
0.141081
0.141471
0.141853
0.142225
0.142587
0.142936
0.143272
0.143592
0.14004
0.140111
0.14017
0.140218
0.140255
0.140282
0.1403
0.140309
0.14031
0.140304
0.14029
0.140269
0.140242
0.140208
0.140168
0.140122
0.14007
0.140012
0.139948
0.139877
0.139801
0.139719
0.139631
0.139539
0.139443
0.139344
0.139246
0.139146
0.139046
0.138945
0.138842
0.138739
0.138634
0.138527
0.138419
0.138309
0.138197
0.138084
0.137968
0.13785
0.13773
0.137608
0.137484
0.137357
0.137229
0.137098
0.136965
0.13683
0.136693
0.136554
0.136412
0.136269
0.136125
0.135978
0.13583
0.13568
0.13553