/*--------------------------------*- C++ -*----------------------------------*\
  =========                 |
  \\      /  F ield         | OpenFOAM: The Open Source CFD Toolbox
   \\    /   O peration     | Website:  https://openfoam.org
    \\  /    A nd           | Version:  8
     \\/     M anipulation  |
\*---------------------------------------------------------------------------*/
FoamFile
{
    version     2.0;
    format      ascii;
    class       volScalarField;
    location    "34";
    object      p;
}
// * * * * * * * * * * * * * * * * * * * * * * * * * * * * * * * * * * * * * //

dimensions      [0 2 -2 0 0 0 0];

internalField   nonuniform List<scalar> 
277560
(
-0.0199531
0.00929863
0.0199018
0.0270425
0.036592
0.0460785
0.0556014
0.0654099
0.0755044
0.0859121
0.0966702
0.107805
0.119337
0.131285
0.143661
0.156475
0.169733
0.183439
0.197593
0.212193
0.227234
0.24271
0.258612
0.274929
0.291651
0.308763
0.32625
0.344098
0.362289
0.380806
0.399631
0.418745
0.438127
0.45776
0.477623
0.497695
0.517956
0.538386
0.558963
0.579668
0.600479
0.621378
0.642341
0.663351
0.684387
0.705429
0.726458
0.747454
0.768398
0.789273
0.810059
0.83074
0.851298
0.871717
0.89198
0.912073
0.931979
0.951685
0.971176
0.99044
1.00946
1.02823
1.04674
1.06496
1.0829
1.10054
1.11787
1.13489
1.15157
1.16792
1.18391
1.19956
1.21484
1.22975
1.24429
1.25844
1.2722
1.28557
1.29854
1.3111
1.32326
1.335
1.34633
1.35724
1.36773
1.37781
1.38747
1.39672
1.40555
1.41397
1.42199
1.42961
1.43683
1.44366
1.45011
1.45617
1.46187
1.4672
1.47218
1.4768
1.48109
1.48504
1.48867
1.49198
1.49499
1.49771
1.50013
1.50228
1.50416
1.50578
1.50716
1.50829
1.50919
1.50987
1.51034
1.51058
1.51058
1.5105
1.51098
1.51132
-0.0186035
0.0080509
0.0198985
0.0270254
0.0364194
0.0459123
0.0554102
0.0651827
0.0752452
0.0856207
0.0963458
0.107447
0.118946
0.13086
0.143201
0.155981
0.169204
0.182874
0.196992
0.211556
0.22656
0.241998
0.257862
0.274141
0.290823
0.307895
0.325342
0.343148
0.361297
0.379772
0.398553
0.417622
0.43696
0.456547
0.476363
0.496387
0.5166
0.536981
0.557508
0.578162
0.598922
0.619767
0.640678
0.661633
0.682614
0.7036
0.724572
0.74551
0.766397
0.787212
0.807939
0.828559
0.849056
0.869412
0.889613
0.909641
0.929484
0.949124
0.968551
0.987748
1.0067
1.02541
1.04384
1.062
1.07987
1.09744
1.11471
1.13165
1.14826
1.16454
1.18047
1.19604
1.21125
1.22609
1.24056
1.25464
1.26833
1.28163
1.29452
1.30702
1.3191
1.33077
1.34203
1.35288
1.3633
1.37331
1.3829
1.39208
1.40084
1.4092
1.41715
1.4247
1.43185
1.43862
1.445
1.451
1.45663
1.4619
1.46681
1.47137
1.47559
1.47948
1.48304
1.48629
1.48924
1.49189
1.49426
1.49635
1.49817
1.49973
1.50105
1.50213
1.50297
1.5036
1.50401
1.5042
1.50415
1.50402
1.50448
1.50473
-0.0185329
0.00763303
0.0198287
0.0268524
0.0361597
0.0456178
0.0550608
0.0647751
0.0747811
0.0850994
0.0957665
0.10681
0.11825
0.130104
0.142385
0.155104
0.168265
0.181873
0.195928
0.210428
0.225367
0.24074
0.256537
0.272749
0.289363
0.306365
0.323742
0.341477
0.359554
0.377955
0.396661
0.415655
0.434916
0.454425
0.474162
0.494106
0.514237
0.534534
0.554978
0.575546
0.59622
0.616978
0.6378
0.658666
0.679556
0.70045
0.721329
0.742174
0.762966
0.783686
0.804317
0.82484
0.845239
0.865497
0.885598
0.905527
0.925268
0.944808
0.964133
0.983229
1.00208
1.02068
1.03902
1.05707
1.07484
1.09231
1.10947
1.12631
1.14282
1.15899
1.17482
1.19029
1.20541
1.22015
1.23451
1.24849
1.26209
1.27529
1.28808
1.30048
1.31247
1.32405
1.33521
1.34596
1.35629
1.36621
1.37571
1.38479
1.39347
1.40173
1.4096
1.41706
1.42413
1.43081
1.43711
1.44303
1.44858
1.45377
1.4586
1.46309
1.46723
1.47105
1.47454
1.47773
1.48061
1.4832
1.4855
1.48754
1.48931
1.49082
1.49209
1.49313
1.49394
1.49453
1.49491
1.49508
1.49501
1.49487
1.49532
1.4956
-0.0186016
0.00746178
0.019645
0.0265675
0.0357922
0.0451753
0.0545349
0.0641648
0.0740865
0.0843194
0.0949003
0.105857
0.117209
0.128975
0.141166
0.153794
0.166864
0.180379
0.19434
0.208744
0.223587
0.238862
0.25456
0.270671
0.287183
0.304082
0.321353
0.338982
0.35695
0.375241
0.393836
0.412716
0.431862
0.451255
0.470872
0.490696
0.510705
0.530879
0.551196
0.571637
0.59218
0.612807
0.633495
0.654226
0.674979
0.695735
0.716474
0.737177
0.757825
0.778401
0.798884
0.819259
0.839508
0.859615
0.879563
0.899338
0.918924
0.938307
0.957474
0.976411
0.995105
1.01355
1.03172
1.04961
1.06722
1.08452
1.10152
1.11819
1.13454
1.15055
1.16621
1.18152
1.19646
1.21103
1.22523
1.23905
1.25247
1.26551
1.27814
1.29037
1.30219
1.3136
1.3246
1.33518
1.34535
1.35509
1.36442
1.37334
1.38185
1.38995
1.39764
1.40494
1.41185
1.41836
1.4245
1.43026
1.43565
1.44067
1.44535
1.44967
1.45366
1.45733
1.46067
1.4637
1.46643
1.46887
1.47103
1.47292
1.47455
1.47592
1.47706
1.47796
1.47863
1.47909
1.47935
1.47939
1.4792
1.47894
1.47928
1.47945
-0.0186374
0.00732412
0.0193718
0.0261908
0.0353134
0.0445881
0.0538375
0.0633568
0.0731668
0.0832871
0.0937544
0.104596
0.115833
0.127482
0.139555
0.152064
0.165013
0.178406
0.192243
0.206521
0.221237
0.236383
0.251951
0.267929
0.284306
0.301069
0.318202
0.33569
0.353516
0.371663
0.390111
0.408843
0.427838
0.447077
0.466539
0.486205
0.506054
0.526065
0.546218
0.566492
0.586866
0.60732
0.627835
0.64839
0.668964
0.68954
0.710096
0.730615
0.751076
0.771463
0.791756
0.811938
0.831993
0.851903
0.871653
0.891228
0.910613
0.929794
0.948758
0.96749
0.985978
1.00421
1.02218
1.03986
1.05726
1.07435
1.09114
1.1076
1.12374
1.13953
1.15498
1.17008
1.18481
1.19918
1.21316
1.22677
1.23998
1.2528
1.26523
1.27725
1.28886
1.30006
1.31085
1.32122
1.33118
1.34071
1.34984
1.35855
1.36685
1.37474
1.38224
1.38934
1.39604
1.40236
1.4083
1.41387
1.41907
1.42391
1.42839
1.43254
1.43635
1.43984
1.44301
1.44587
1.44844
1.45072
1.45273
1.45446
1.45595
1.45718
1.45818
1.45896
1.45951
1.45986
1.46001
1.45995
1.45966
1.45932
1.45959
1.45971
-0.0186755
0.00718813
0.0190318
0.0257276
0.0347253
0.0438625
0.0529756
0.0623586
0.0720307
0.0820119
0.0923391
0.10304
0.114134
0.125639
0.137567
0.149928
0.162728
0.17597
0.189654
0.203778
0.218337
0.233325
0.248731
0.264546
0.280758
0.297353
0.314316
0.331631
0.349282
0.367251
0.385519
0.404067
0.422877
0.441927
0.461198
0.48067
0.500322
0.520133
0.540084
0.560152
0.580318
0.600562
0.620863
0.641201
0.661557
0.68191
0.702243
0.722535
0.742768
0.762922
0.782982
0.802928
0.822744
0.842413
0.86192
0.88125
0.900389
0.91932
0.938034
0.956514
0.974749
0.992727
1.01044
1.02786
1.045
1.06184
1.07836
1.09457
1.11044
1.12598
1.14116
1.156
1.17047
1.18456
1.19829
1.21163
1.22458
1.23714
1.24929
1.26105
1.2724
1.28333
1.29386
1.30396
1.31365
1.32293
1.33178
1.34023
1.34826
1.3559
1.36313
1.36997
1.37641
1.38248
1.38816
1.39347
1.39842
1.403
1.40724
1.41114
1.4147
1.41795
1.42088
1.4235
1.42583
1.42788
1.42966
1.43117
1.43243
1.43345
1.43424
1.4348
1.43515
1.4353
1.43525
1.435
1.43453
1.43401
1.43411
1.43409
-0.0187223
0.00704413
0.0186329
0.025181
0.0340309
0.0430033
0.0519548
0.0611762
0.0706849
0.0805015
0.0906628
0.101196
0.112122
0.123456
0.135212
0.147399
0.160023
0.173086
0.18659
0.200531
0.214905
0.229704
0.24492
0.260543
0.276559
0.292955
0.309717
0.326828
0.344271
0.36203
0.380084
0.398417
0.417006
0.435834
0.45488
0.474122
0.493542
0.513117
0.532828
0.552655
0.572576
0.592571
0.61262
0.632703
0.652801
0.672894
0.692962
0.712987
0.73295
0.752832
0.772616
0.792284
0.811818
0.831204
0.850425
0.869467
0.888315
0.906955
0.925373
0.943557
0.961494
0.979173
0.99658
1.01371
1.03054
1.04707
1.06329
1.07919
1.09475
1.10998
1.12486
1.13938
1.15354
1.16733
1.18074
1.19377
1.20641
1.21866
1.2305
1.24195
1.25298
1.26361
1.27382
1.28362
1.29299
1.30196
1.3105
1.31864
1.32637
1.33369
1.34062
1.34715
1.3533
1.35906
1.36445
1.36946
1.37412
1.37842
1.38237
1.38598
1.38927
1.39224
1.39489
1.39725
1.39932
1.40112
1.40264
1.40391
1.40494
1.40572
1.40628
1.40663
1.40677
1.40672
1.40648
1.40605
1.4054
1.40471
1.40467
1.40454
-0.0187735
0.00688284
0.0181777
0.024554
0.0332329
0.042015
0.05078
0.0598153
0.0691359
0.078763
0.0887335
0.0990743
0.109806
0.120944
0.132502
0.144488
0.15691
0.169768
0.183064
0.196795
0.210955
0.225539
0.240536
0.255936
0.271727
0.287896
0.304426
0.321302
0.338508
0.356025
0.373835
0.391918
0.410256
0.428828
0.447614
0.466594
0.485747
0.505052
0.524489
0.544038
0.563677
0.583387
0.603148
0.622939
0.642741
0.662535
0.682301
0.70202
0.721674
0.741244
0.760712
0.780061
0.799274
0.818336
0.83723
0.855942
0.874457
0.892762
0.910844
0.928689
0.946285
0.963621
0.980684
0.997464
1.01395
1.03013
1.046
1.06155
1.07676
1.09163
1.10616
1.12032
1.13413
1.14756
1.16061
1.17329
1.18557
1.19746
1.20894
1.22003
1.23071
1.24097
1.25082
1.26026
1.26928
1.27788
1.28606
1.29384
1.30121
1.30818
1.31476
1.32094
1.32673
1.33214
1.33718
1.34185
1.34616
1.35011
1.35373
1.357
1.35996
1.36259
1.36492
1.36696
1.36871
1.37019
1.3714
1.37237
1.37309
1.37358
1.37386
1.37392
1.37378
1.37346
1.37296
1.37228
1.37138
1.37045
1.3702
1.36987
-0.0188264
0.00669784
0.0176675
0.0238495
0.0323341
0.0409014
0.0494562
0.0582815
0.0673899
0.0768035
0.0865589
0.0966828
0.107196
0.118113
0.129448
0.141208
0.153401
0.166028
0.17909
0.192584
0.206505
0.220845
0.235596
0.250746
0.266284
0.282195
0.298465
0.315078
0.332015
0.349261
0.366795
0.384599
0.402654
0.420938
0.439433
0.458117
0.47697
0.495972
0.515101
0.534338
0.553661
0.573051
0.592488
0.611951
0.631422
0.65088
0.670306
0.689682
0.708989
0.728209
0.747323
0.766315
0.785168
0.803866
0.822394
0.840736
0.85888
0.87681
0.894515
0.91198
0.929195
0.946146
0.962823
0.979215
0.995312
1.0111
1.02658
1.04173
1.05655
1.07102
1.08515
1.09892
1.11232
1.12535
1.13801
1.15028
1.16216
1.17364
1.18473
1.19541
1.20568
1.21554
1.22499
1.23402
1.24264
1.25084
1.25862
1.266
1.27297
1.27954
1.28571
1.2915
1.2969
1.30192
1.30656
1.31084
1.31477
1.31834
1.32157
1.32448
1.32706
1.32933
1.3313
1.33298
1.33438
1.33551
1.33639
1.33702
1.33742
1.33759
1.33756
1.33732
1.33689
1.33629
1.33552
1.33457
1.33343
1.33226
1.33179
1.33128
-0.0188796
0.0064856
0.0171037
0.0230699
0.0313375
0.0396665
0.0479879
0.0565802
0.0654532
0.0746298
0.0841466
0.0940299
0.1043
0.114973
0.12606
0.13757
0.149509
0.161881
0.174683
0.187914
0.201569
0.215639
0.230117
0.244991
0.260248
0.275875
0.291856
0.308176
0.324817
0.341762
0.358991
0.376486
0.394227
0.412193
0.430366
0.448723
0.467245
0.48591
0.5047
0.523591
0.542566
0.561602
0.580681
0.599782
0.618886
0.637973
0.657025
0.676022
0.694946
0.713779
0.732503
0.751101
0.769557
0.787854
0.805978
0.823913
0.841647
0.859164
0.876453
0.8935
0.910294
0.926822
0.943074
0.959038
0.974704
0.990063
1.0051
1.01982
1.0342
1.04824
1.06193
1.07525
1.08822
1.10081
1.11302
1.12484
1.13628
1.14732
1.15796
1.1682
1.17802
1.18744
1.19644
1.20503
1.2132
1.22095
1.22828
1.23522
1.24174
1.24787
1.2536
1.25895
1.26391
1.26849
1.2727
1.27655
1.28004
1.28319
1.286
1.28848
1.29064
1.2925
1.29406
1.29534
1.29634
1.29708
1.29756
1.29781
1.29784
1.29764
1.29725
1.29666
1.29589
1.29495
1.29385
1.29259
1.29113
1.28967
1.28893
1.28818
-0.0189322
0.00624442
0.0164874
0.0222176
0.0302457
0.038314
0.0463799
0.0547166
0.0633317
0.0722487
0.0815041
0.0911238
0.101128
0.111532
0.122348
0.133584
0.145247
0.157337
0.169856
0.182799
0.196163
0.209938
0.224117
0.238688
0.253638
0.268954
0.28462
0.30062
0.316937
0.333552
0.350448
0.367605
0.385003
0.402622
0.420442
0.438443
0.456603
0.474902
0.493319
0.511835
0.530428
0.549079
0.567767
0.586474
0.605178
0.623861
0.642504
0.661088
0.679595
0.698007
0.716306
0.734475
0.752498
0.770359
0.788043
0.805536
0.822823
0.839892
0.856728
0.87332
0.889656
0.905723
0.921511
0.93701
0.952208
0.967097
0.981667
0.995909
1.00981
1.02337
1.03658
1.04943
1.06191
1.07402
1.08575
1.09709
1.10804
1.1186
1.12875
1.1385
1.14785
1.15678
1.16529
1.17339
1.18107
1.18834
1.19519
1.20164
1.20768
1.21332
1.21858
1.22344
1.22792
1.23203
1.23577
1.23914
1.24217
1.24485
1.2472
1.24922
1.25093
1.25234
1.25345
1.25429
1.25486
1.25517
1.25524
1.25508
1.2547
1.25411
1.25333
1.25237
1.25123
1.24993
1.24849
1.2469
1.24513
1.24336
1.24234
1.24136
-0.0189837
0.00597359
0.01582
0.0212947
0.0290617
0.0368476
0.0446364
0.052696
0.0610314
0.0696669
0.0786387
0.0879726
0.0976887
0.107802
0.118324
0.129263
0.140624
0.152411
0.164622
0.177254
0.190301
0.203758
0.217613
0.231855
0.246473
0.261452
0.276776
0.29243
0.308396
0.324656
0.341191
0.357982
0.375009
0.392253
0.409692
0.427307
0.445076
0.462979
0.480995
0.499104
0.517286
0.53552
0.553787
0.572067
0.590339
0.608587
0.626789
0.644928
0.662985
0.680943
0.698784
0.716491
0.734048
0.75144
0.768651
0.785667
0.802474
0.819059
0.835408
0.85151
0.867352
0.882923
0.898213
0.91321
0.927904
0.942287
0.956348
0.970079
0.983472
0.996519
1.00921
1.02154
1.03351
1.0451
1.0563
1.06713
1.07756
1.08759
1.09722
1.10645
1.11527
1.12367
1.13166
1.13924
1.1464
1.15314
1.15947
1.16539
1.17091
1.17603
1.18076
1.18511
1.18908
1.19267
1.19589
1.19876
1.20128
1.20345
1.2053
1.20683
1.20804
1.20896
1.20959
1.20995
1.21005
1.20989
1.2095
1.20889
1.20806
1.20704
1.20583
1.20444
1.2029
1.2012
1.19937
1.1974
1.19526
1.19314
1.1918
1.19053
-0.0190335
0.00567307
0.0151026
0.0203035
0.0277883
0.0352709
0.0427619
0.0505234
0.0585579
0.0668906
0.0755576
0.084584
0.0939902
0.103791
0.113996
0.124616
0.135654
0.147114
0.158994
0.171291
0.184
0.197113
0.21062
0.22451
0.238771
0.253388
0.268346
0.283628
0.299217
0.315095
0.331243
0.347642
0.364272
0.381113
0.398144
0.415345
0.432695
0.450173
0.46776
0.485434
0.503175
0.520964
0.538779
0.556603
0.574414
0.592195
0.609926
0.627589
0.645166
0.662639
0.679991
0.697204
0.714265
0.731155
0.747861
0.764368
0.780662
0.796731
0.812561
0.828139
0.843455
0.858496
0.873254
0.887715
0.901872
0.915714
0.929233
0.942419
0.955265
0.967763
0.979905
0.991685
1.0031
1.01413
1.02478
1.03505
1.04492
1.0544
1.06347
1.07214
1.0804
1.08824
1.09568
1.10269
1.10929
1.11547
1.12124
1.12661
1.13157
1.13614
1.14031
1.14411
1.14752
1.15056
1.15324
1.15556
1.15754
1.15918
1.16049
1.16148
1.16217
1.16257
1.16269
1.16253
1.16212
1.16147
1.16059
1.15949
1.1582
1.15671
1.15504
1.15321
1.15123
1.14912
1.14688
1.14452
1.14199
1.1395
1.13782
1.13626
-0.0190815
0.00534326
0.0143366
0.019246
0.0264281
0.0335874
0.0407607
0.0482038
0.055917
0.0639264
0.0722678
0.0809659
0.0900411
0.0995078
0.109376
0.119655
0.130348
0.141459
0.152986
0.164926
0.177273
0.19002
0.203156
0.216671
0.230551
0.244782
0.259349
0.274235
0.289423
0.304894
0.32063
0.336611
0.352818
0.36923
0.385826
0.402587
0.419492
0.436519
0.453649
0.47086
0.488133
0.505447
0.522784
0.540123
0.557444
0.57473
0.591961
0.60912
0.626187
0.643146
0.65998
0.676671
0.693204
0.709563
0.725734
0.741702
0.757453
0.772975
0.788254
0.803278
0.818036
0.832517
0.846709
0.860604
0.874191
0.88746
0.900404
0.913013
0.92528
0.937197
0.948756
0.959951
0.970775
0.981222
0.991286
1.00096
1.01024
1.01913
1.02761
1.03569
1.04336
1.05061
1.05745
1.06388
1.06988
1.07547
1.08065
1.08542
1.0898
1.09377
1.09736
1.10057
1.1034
1.10586
1.10795
1.1097
1.1111
1.11216
1.11291
1.11334
1.11347
1.11331
1.11287
1.11218
1.11123
1.11005
1.10864
1.10702
1.10522
1.10323
1.10107
1.09876
1.09631
1.09374
1.09106
1.08826
1.08531
1.08241
1.08035
1.07847
-0.0191274
0.0049848
0.0135235
0.0181244
0.0249841
0.0318007
0.0386369
0.0457419
0.0531142
0.0607805
0.0687762
0.077126
0.0858499
0.0949621
0.104472
0.114389
0.124717
0.135458
0.146611
0.158172
0.170135
0.182494
0.195237
0.208353
0.22183
0.235652
0.249805
0.264272
0.279035
0.294075
0.309375
0.324914
0.340673
0.356631
0.372768
0.389064
0.405497
0.422047
0.438694
0.455416
0.472195
0.489009
0.50584
0.522667
0.539472
0.556236
0.57294
0.589567
0.606098
0.622517
0.638804
0.654946
0.670924
0.686724
0.702331
0.717731
0.732911
0.747856
0.762555
0.776996
0.791167
0.805057
0.818656
0.831954
0.844941
0.857608
0.869946
0.881948
0.893605
0.904911
0.915856
0.926436
0.936644
0.946473
0.955918
0.964974
0.973636
0.9819
0.98976
0.997214
1.00426
1.01089
1.01711
1.02291
1.0283
1.03327
1.03782
1.04197
1.04573
1.04908
1.05205
1.05464
1.05686
1.0587
1.06019
1.06133
1.06212
1.06259
1.06273
1.06257
1.06211
1.06136
1.06035
1.05908
1.05756
1.05582
1.05386
1.0517
1.04936
1.04684
1.04417
1.04136
1.03842
1.03536
1.03221
1.02896
1.02557
1.02224
1.01979
1.01757
-0.0191713
0.00459856
0.0126649
0.0169409
0.0234591
0.0299143
0.0363947
0.0431428
0.050155
0.057459
0.0650899
0.0730718
0.0814247
0.0901628
0.0992953
0.10883
0.118772
0.129122
0.13988
0.151042
0.162601
0.17455
0.186878
0.199575
0.212626
0.226018
0.239735
0.253759
0.268074
0.282662
0.297502
0.312576
0.327863
0.343344
0.358998
0.374804
0.390741
0.40679
0.422929
0.439138
0.455397
0.471686
0.487985
0.504277
0.52054
0.536757
0.55291
0.56898
0.58495
0.600802
0.616518
0.632083
0.64748
0.662695
0.677712
0.692517
0.707098
0.72144
0.735532
0.749362
0.762919
0.776191
0.789168
0.801842
0.814201
0.826238
0.837943
0.84931
0.860329
0.870994
0.881299
0.891235
0.900798
0.909981
0.918779
0.927187
0.9352
0.942814
0.950024
0.956828
0.963223
0.969205
0.974774
0.979926
0.984663
0.988984
0.992891
0.996392
0.999495
1.00221
1.00453
1.00647
1.00804
1.00925
1.0101
1.0106
1.01076
1.0106
1.01012
1.00933
1.00825
1.0069
1.00527
1.0034
1.00129
0.998958
0.996418
0.993685
0.990776
0.987704
0.984485
0.981135
0.977669
0.974101
0.97045
0.966708
0.962848
0.959063
0.956189
0.953599
-0.0192132
0.00418552
0.0117623
0.0156977
0.0218558
0.0279316
0.0340383
0.0404112
0.047045
0.0539682
0.0612155
0.0688108
0.0767739
0.0851187
0.0938542
0.102988
0.112524
0.122465
0.132808
0.143549
0.154684
0.166203
0.178096
0.190352
0.202957
0.215897
0.229157
0.242718
0.256563
0.270675
0.285034
0.29962
0.314414
0.329395
0.344542
0.359836
0.375255
0.390778
0.406387
0.422059
0.437775
0.453515
0.469261
0.484992
0.500691
0.516339
0.531917
0.547407
0.562792
0.578053
0.593174
0.608138
0.622929
0.637533
0.651936
0.666121
0.680078
0.693792
0.707252
0.720445
0.733362
0.74599
0.758321
0.770344
0.78205
0.79343
0.804477
0.815182
0.825538
0.835537
0.845174
0.854441
0.863333
0.871844
0.87997
0.887703
0.895042
0.90198
0.908515
0.914643
0.920362
0.925669
0.930562
0.93504
0.939103
0.94275
0.945984
0.948811
0.95124
0.953278
0.954931
0.956206
0.95711
0.957649
0.957835
0.957675
0.95718
0.956361
0.955229
0.953796
0.952077
0.950083
0.947829
0.945329
0.942598
0.939652
0.936506
0.933175
0.929676
0.926024
0.922237
0.918327
0.914314
0.910212
0.906039
0.90179
0.897436
0.893172
0.889856
0.88688
-0.019253
0.00374677
0.0108174
0.0143969
0.0201771
0.0258561
0.0315719
0.0375519
0.0437895
0.050314
0.0571599
0.0643504
0.0719054
0.0798387
0.0881588
0.0968727
0.105985
0.115496
0.125405
0.135708
0.146399
0.157468
0.168907
0.180702
0.192841
0.205309
0.21809
0.231168
0.244523
0.258139
0.271995
0.286072
0.300351
0.31481
0.32943
0.344189
0.359068
0.374045
0.3891
0.404214
0.419365
0.434535
0.449706
0.464856
0.479969
0.495026
0.510008
0.524896
0.539673
0.55432
0.568823
0.583163
0.597327
0.611297
0.625061
0.638604
0.651913
0.664976
0.67778
0.690313
0.702566
0.714528
0.726187
0.737536
0.748565
0.759266
0.76963
0.77965
0.789318
0.798628
0.807573
0.816148
0.824345
0.832161
0.839589
0.846626
0.853266
0.859506
0.865342
0.870772
0.875792
0.8804
0.884595
0.888376
0.891741
0.894692
0.89723
0.899362
0.901095
0.902439
0.903398
0.903981
0.904195
0.904047
0.903547
0.902704
0.901529
0.900033
0.898228
0.896126
0.893741
0.891087
0.888177
0.885027
0.881652
0.878069
0.874292
0.870339
0.866226
0.861969
0.857586
0.853093
0.848505
0.843842
0.839121
0.834338
0.829461
0.824693
0.820907
0.817519
-0.019291
0.00328349
0.00983198
0.0130409
0.0184259
0.0236914
0.0289994
0.0345696
0.0403939
0.0465027
0.0529297
0.0596982
0.0668275
0.0743315
0.0822185
0.0904948
0.0991646
0.108229
0.117686
0.127532
0.13776
0.148361
0.159326
0.170642
0.182295
0.194272
0.206556
0.219129
0.231975
0.245074
0.258408
0.271956
0.285699
0.299617
0.313688
0.327893
0.342211
0.356621
0.371103
0.385637
0.400204
0.414785
0.42936
0.443911
0.458418
0.472864
0.487228
0.501494
0.515641
0.529655
0.543518
0.557214
0.570726
0.584042
0.597146
0.610025
0.622665
0.635055
0.647181
0.659034
0.670601
0.681874
0.692841
0.703494
0.713824
0.723823
0.733483
0.742796
0.751755
0.760354
0.768586
0.776447
0.783928
0.791027
0.797737
0.804055
0.809976
0.815497
0.820613
0.825324
0.829624
0.833514
0.83699
0.840053
0.842702
0.844938
0.84676
0.848176
0.849194
0.849823
0.85007
0.849942
0.849445
0.848591
0.847385
0.84584
0.843966
0.841773
0.839275
0.836484
0.833414
0.830079
0.826493
0.822674
0.818635
0.814394
0.809967
0.805371
0.800623
0.795742
0.790743
0.785645
0.780464
0.77522
0.769931
0.764593
0.759176
0.753882
0.749608
0.745791
-0.0193272
0.00279691
0.00880763
0.0116318
0.0166049
0.0214408
0.026325
0.031469
0.0368637
0.0425402
0.0485317
0.0548613
0.0615481
0.068606
0.0760429
0.0838644
0.0920747
0.100675
0.109662
0.119033
0.12878
0.138896
0.149369
0.160187
0.171337
0.182804
0.194571
0.206623
0.21894
0.231504
0.244296
0.257296
0.270485
0.283841
0.297345
0.310976
0.324714
0.338538
0.352429
0.366366
0.380331
0.394304
0.408267
0.422199
0.436082
0.449896
0.463624
0.477247
0.490747
0.504106
0.51731
0.530341
0.543184
0.555825
0.568249
0.580444
0.592395
0.604091
0.615521
0.626672
0.637535
0.648098
0.658354
0.668291
0.677903
0.687181
0.696117
0.704703
0.712934
0.720802
0.728303
0.735429
0.742176
0.748538
0.754512
0.760092
0.765275
0.770058
0.774437
0.778408
0.781972
0.785124
0.787864
0.790191
0.792107
0.793608
0.7947
0.795383
0.795669
0.795566
0.795083
0.794226
0.793003
0.791423
0.789497
0.787232
0.784641
0.781734
0.778526
0.775028
0.771256
0.767222
0.762944
0.758435
0.753714
0.748796
0.7437
0.738441
0.73304
0.727512
0.721878
0.716153
0.710358
0.70451
0.698631
0.692716
0.686735
0.680893
0.676108
0.671839
-0.0193618
0.0022883
0.00774613
0.010172
0.0147171
0.019108
0.0235529
0.028255
0.0332042
0.0384325
0.0439726
0.0498473
0.0560753
0.0626708
0.0696413
0.0769916
0.0847259
0.0928446
0.101346
0.110225
0.119475
0.129087
0.139051
0.149355
0.159983
0.170923
0.182157
0.193668
0.205439
0.21745
0.229682
0.242117
0.254733
0.26751
0.280429
0.293469
0.306609
0.31983
0.333113
0.346437
0.359784
0.373133
0.386465
0.399761
0.413001
0.426167
0.43924
0.452202
0.465035
0.477722
0.490248
0.502596
0.514752
0.5267
0.538427
0.549919
0.561164
0.572149
0.582863
0.593295
0.603434
0.613271
0.622797
0.632001
0.640877
0.649415
0.65761
0.665453
0.672937
0.680058
0.686809
0.693184
0.699179
0.704788
0.710008
0.714834
0.719263
0.723291
0.726916
0.730134
0.732943
0.735343
0.737332
0.738909
0.740074
0.740828
0.741172
0.74111
0.740649
0.7398
0.738571
0.736971
0.735008
0.732689
0.730026
0.727027
0.723705
0.720071
0.716137
0.711918
0.707428
0.702681
0.697694
0.692482
0.687063
0.681453
0.675671
0.669735
0.663662
0.657473
0.651185
0.644818
0.638391
0.631923
0.625436
0.618926
0.612364
0.605955
0.600642
0.595906
-0.019395
0.00175902
0.00664926
0.00866357
0.0127653
0.0166962
0.0206871
0.0249322
0.0294209
0.0341856
0.0392591
0.0446634
0.0504172
0.0565347
0.0630231
0.0698867
0.0771291
0.0847509
0.0927498
0.101121
0.109858
0.118951
0.128389
0.138161
0.148252
0.158648
0.169331
0.180286
0.191493
0.202934
0.214591
0.226442
0.238469
0.250651
0.262968
0.275401
0.287929
0.300533
0.313192
0.325888
0.338601
0.351309
0.363995
0.376637
0.389218
0.401718
0.414119
0.426403
0.438553
0.450552
0.462384
0.474032
0.485483
0.496722
0.507734
0.518508
0.529029
0.539287
0.54927
0.558967
0.568367
0.577461
0.58624
0.594696
0.60282
0.610604
0.618041
0.625124
0.631848
0.638206
0.644191
0.649801
0.655028
0.65987
0.664322
0.66838
0.672039
0.675299
0.678155
0.680606
0.682648
0.684282
0.685505
0.686318
0.686721
0.686715
0.686299
0.685479
0.68426
0.682653
0.680668
0.678313
0.675596
0.672527
0.669115
0.66537
0.661304
0.65693
0.652259
0.647307
0.642087
0.636614
0.630905
0.624977
0.618846
0.612531
0.606048
0.59942
0.592661
0.585795
0.578838
0.571812
0.564735
0.55763
0.550516
0.543394
0.536231
0.529238
0.523375
0.518152
-0.0194271
0.00121041
0.00551876
0.00710897
0.0107524
0.0142092
0.0177317
0.0215053
0.0255189
0.0298057
0.0343978
0.039317
0.0445818
0.0502064
0.0561979
0.0625596
0.0692952
0.076405
0.0838864
0.0917345
0.0999422
0.1085
0.117398
0.126623
0.136161
0.145997
0.156114
0.166496
0.177124
0.18798
0.199044
0.210298
0.22172
0.233292
0.244994
0.256806
0.268708
0.28068
0.292703
0.304756
0.316818
0.328871
0.340894
0.352867
0.364773
0.376592
0.388305
0.399897
0.411348
0.422643
0.433765
0.444699
0.45543
0.465945
0.476228
0.486268
0.496051
0.505567
0.514804
0.52375
0.532397
0.540735
0.548754
0.556447
0.563804
0.57082
0.577486
0.583797
0.589746
0.595327
0.600535
0.605366
0.609814
0.613875
0.617545
0.620822
0.623701
0.62618
0.628256
0.629927
0.631191
0.632047
0.632495
0.632533
0.632163
0.631385
0.630202
0.628613
0.626627
0.624253
0.621501
0.618381
0.614902
0.611073
0.606903
0.602402
0.597584
0.59246
0.587043
0.581347
0.575387
0.569178
0.562738
0.556082
0.549229
0.542196
0.535004
0.52767
0.520215
0.512658
0.50502
0.497321
0.489582
0.481824
0.474072
0.466322
0.458544
0.450949
0.444524
0.438798
-0.0194582
0.000643895
0.00435644
0.00551045
0.00868123
0.0116503
0.0146908
0.0179792
0.0215038
0.0252987
0.0293954
0.0338155
0.0385771
0.0436946
0.0491749
0.0550207
0.0612352
0.0678185
0.074768
0.0820785
0.0897428
0.0977516
0.106094
0.114757
0.123727
0.132988
0.142525
0.152319
0.162354
0.17261
0.183068
0.193709
0.204514
0.215464
0.226538
0.237717
0.24898
0.260307
0.271678
0.283073
0.294471
0.305853
0.317199
0.328489
0.339705
0.350828
0.361841
0.372725
0.383464
0.394041
0.40444
0.414646
0.424644
0.43442
0.443962
0.453254
0.462287
0.471048
0.479525
0.487709
0.49559
0.503158
0.510405
0.517322
0.523903
0.530138
0.536022
0.541548
0.54671
0.551504
0.555923
0.559963
0.56362
0.56689
0.569769
0.572254
0.574342
0.57603
0.577316
0.578198
0.578675
0.578745
0.578408
0.577663
0.576512
0.574954
0.572994
0.570631
0.567871
0.564722
0.561197
0.557305
0.553057
0.548459
0.543524
0.538262
0.532684
0.526802
0.520632
0.514185
0.507478
0.500525
0.493346
0.485954
0.47837
0.470612
0.462699
0.454651
0.446488
0.43823
0.4299
0.421516
0.413102
0.40468
0.396274
0.387882
0.379474
0.371263
0.364258
0.358014
-0.0194887
6.09023e-05
0.00316407
0.00387034
0.00655481
0.00902316
0.0115687
0.0143585
0.0173809
0.0206706
0.0242586
0.0281663
0.0324113
0.0370082
0.0419637
0.0472801
0.0529599
0.0590032
0.0654071
0.0721664
0.0792735
0.0867191
0.0944921
0.10258
0.110968
0.119641
0.128583
0.137777
0.147204
0.156847
0.166687
0.176705
0.186881
0.197197
0.207632
0.218165
0.228776
0.239445
0.250151
0.260874
0.271594
0.282292
0.292947
0.303541
0.314055
0.32447
0.334768
0.344933
0.354947
0.364793
0.374457
0.383922
0.393176
0.402202
0.410989
0.419524
0.427794
0.435788
0.443495
0.450905
0.458009
0.464797
0.471261
0.477392
0.483184
0.488629
0.49372
0.498452
0.502818
0.506814
0.510435
0.513676
0.516533
0.519003
0.521081
0.522766
0.524055
0.524944
0.525432
0.525518
0.5252
0.524477
0.523348
0.521814
0.519875
0.517533
0.514789
0.511647
0.508108
0.504181
0.499877
0.495209
0.490186
0.484817
0.479112
0.473082
0.46674
0.460097
0.453167
0.445965
0.438505
0.430804
0.422879
0.414747
0.406426
0.397936
0.389296
0.380526
0.371648
0.362682
0.35365
0.344574
0.335475
0.326379
0.317308
0.308264
0.299214
0.290375
0.282777
0.276004
-0.0195188
-0.000537093
0.00194347
0.00219097
0.00437604
0.00633124
0.00836936
0.010648
0.0131557
0.0159276
0.0189942
0.0223767
0.0260925
0.0301558
0.0345738
0.039348
0.0444804
0.0499708
0.0558163
0.0620113
0.0685484
0.0754179
0.0826086
0.0901077
0.0979011
0.105973
0.114308
0.122889
0.131699
0.140719
0.14993
0.159314
0.168852
0.178521
0.188304
0.198179
0.208125
0.218123
0.228152
0.238191
0.248221
0.258223
0.268176
0.278062
0.287861
0.297556
0.307129
0.316563
0.32584
0.334946
0.343863
0.352578
0.361075
0.369341
0.377363
0.385129
0.392626
0.399844
0.406772
0.413399
0.419716
0.425715
0.431386
0.436723
0.441717
0.446363
0.450652
0.454582
0.458144
0.461335
0.464149
0.466584
0.468634
0.470297
0.471568
0.472447
0.472929
0.473014
0.472699
0.471983
0.470864
0.469343
0.467418
0.465091
0.46236
0.459229
0.455698
0.451772
0.447452
0.442745
0.437661
0.432214
0.426413
0.420269
0.413792
0.406993
0.399883
0.392477
0.384786
0.376826
0.368611
0.360158
0.351484
0.342608
0.333546
0.32432
0.314948
0.305453
0.295853
0.286173
0.276433
0.266657
0.256866
0.247087
0.237343
0.227637
0.217934
0.208456
0.200253
0.192936
-0.0195488
-0.0011486
0.000696416
0.000474701
0.00214784
0.00357809
0.00509701
0.00685257
0.00883351
0.0110756
0.0136089
0.0164541
0.0196286
0.0231463
0.0270146
0.0312347
0.0358075
0.0407331
0.046008
0.0516268
0.0575817
0.0638631
0.0704596
0.0773584
0.0845455
0.0920059
0.0997238
0.107682
0.115864
0.124251
0.132824
0.141564
0.15045
0.159463
0.168582
0.177787
0.187057
0.196373
0.205713
0.215057
0.224386
0.233681
0.242921
0.252088
0.261163
0.270128
0.278965
0.287658
0.296189
0.304543
0.312705
0.320659
0.328391
0.335888
0.343136
0.350125
0.356841
0.363273
0.369412
0.375248
0.380771
0.385972
0.390843
0.395378
0.399568
0.403407
0.406889
0.410009
0.412761
0.41514
0.417143
0.418765
0.420003
0.420854
0.421314
0.421381
0.421054
0.42033
0.419207
0.417685
0.415763
0.41344
0.410717
0.407593
0.404069
0.400146
0.395828
0.391116
0.386014
0.380527
0.374663
0.368436
0.361858
0.354939
0.347689
0.34012
0.332244
0.324072
0.31562
0.306901
0.297931
0.288726
0.279303
0.269681
0.259878
0.249914
0.239809
0.229584
0.219261
0.208863
0.198411
0.18793
0.177442
0.166974
0.15655
0.146174
0.135813
0.125686
0.11687
0.108998
-0.0195791
-0.0017721
-0.000575264
-0.00127611
-0.000126819
0.000767302
0.00175584
0.00297695
0.00441984
0.00612081
0.00810935
0.010406
0.0130279
0.0159885
0.0192957
0.0229503
0.0269525
0.0313018
0.035995
0.0410262
0.0463878
0.05207
0.0580615
0.0643497
0.0709211
0.0777608
0.0848528
0.0921803
0.0997255
0.10747
0.115394
0.123478
0.131702
0.140047
0.148493
0.157017
0.165601
0.174224
0.182865
0.191505
0.200123
0.208701
0.217219
0.225657
0.233999
0.242224
0.250317
0.258259
0.266036
0.27363
0.281028
0.288212
0.295172
0.301891
0.308358
0.314561
0.320489
0.326129
0.331473
0.33651
0.341232
0.345629
0.349695
0.353421
0.356801
0.359828
0.362498
0.364803
0.36674
0.368304
0.369491
0.370297
0.370719
0.370753
0.370399
0.369652
0.368512
0.366977
0.365045
0.362716
0.359989
0.356863
0.353339
0.349418
0.3451
0.340386
0.33528
0.329783
0.3239