/*--------------------------------*- C++ -*----------------------------------*\
  =========                 |
  \\      /  F ield         | OpenFOAM: The Open Source CFD Toolbox
   \\    /   O peration     | Website:  https://openfoam.org
    \\  /    A nd           | Version:  8
     \\/     M anipulation  |
\*---------------------------------------------------------------------------*/
FoamFile
{
    version     2.0;
    format      ascii;
    class       volScalarField;
    location    "0.11";
    object      nut;
}
// * * * * * * * * * * * * * * * * * * * * * * * * * * * * * * * * * * * * * //

dimensions      [0 2 -1 0 0 0 0];

internalField   nonuniform List<scalar> 
112642
(
2.78786e-08
2.78833e-08
2.78733e-08
2.78707e-08
2.78691e-08
2.7868e-08
2.78673e-08
2.78667e-08
2.78663e-08
2.78659e-08
2.78656e-08
2.78654e-08
2.78652e-08
2.7865e-08
2.78649e-08
2.78647e-08
2.78646e-08
2.78645e-08
2.78644e-08
2.78643e-08
2.78642e-08
2.78641e-08
2.78641e-08
2.7864e-08
2.7864e-08
2.78639e-08
2.78638e-08
2.78638e-08
2.78638e-08
2.78637e-08
2.78637e-08
2.78636e-08
2.78636e-08
2.78636e-08
2.78635e-08
2.78635e-08
2.78635e-08
2.78635e-08
2.78634e-08
2.78634e-08
2.78634e-08
2.78634e-08
2.78633e-08
2.78633e-08
2.78633e-08
2.78633e-08
2.78633e-08
2.78633e-08
2.78632e-08
2.78632e-08
2.78632e-08
2.78632e-08
2.78632e-08
2.78632e-08
2.78632e-08
2.78631e-08
2.78631e-08
2.78631e-08
2.78631e-08
2.78631e-08
2.78631e-08
2.78631e-08
2.78631e-08
2.78631e-08
2.78631e-08
2.78631e-08
2.7863e-08
2.7863e-08
2.7863e-08
2.7863e-08
2.7863e-08
2.7863e-08
2.7863e-08
2.7863e-08
2.7863e-08
2.7863e-08
2.7863e-08
2.7863e-08
2.7863e-08
2.7863e-08
2.7863e-08
2.7863e-08
2.7863e-08
2.7863e-08
2.7863e-08
2.7863e-08
2.7863e-08
2.7863e-08
2.7863e-08
2.7863e-08
2.7863e-08
2.7863e-08
2.7863e-08
2.7863e-08
2.7863e-08
2.7863e-08
2.7863e-08
2.7863e-08
2.7863e-08
2.7863e-08
2.7863e-08
2.7863e-08
2.7863e-08
2.7863e-08
2.7863e-08
2.7863e-08
2.7863e-08
2.7863e-08
2.7863e-08
2.7863e-08
2.7863e-08
2.7863e-08
2.7863e-08
2.7863e-08
2.7863e-08
2.7863e-08
2.7863e-08
2.7863e-08
2.7863e-08
2.78631e-08
2.78631e-08
2.78631e-08
2.78631e-08
2.78631e-08
2.78631e-08
2.78631e-08
2.78631e-08
2.78631e-08
2.78631e-08
2.78631e-08
2.78631e-08
2.78632e-08
2.78632e-08
2.78632e-08
2.78632e-08
2.78632e-08
2.78632e-08
2.78632e-08
2.78633e-08
2.78633e-08
2.78633e-08
2.78633e-08
2.78633e-08
2.78633e-08
2.78634e-08
2.78634e-08
2.78634e-08
2.78634e-08
2.78634e-08
2.78635e-08
2.78635e-08
2.78635e-08
2.78635e-08
2.78636e-08
2.78636e-08
2.78636e-08
2.78637e-08
2.78637e-08
2.78637e-08
2.78638e-08
2.78638e-08
2.78639e-08
2.78639e-08
2.78639e-08
2.7864e-08
2.7864e-08
2.78641e-08
2.78642e-08
2.78642e-08
2.78643e-08
2.78644e-08
2.78644e-08
2.78645e-08
2.78646e-08
2.78647e-08
2.78648e-08
2.78649e-08
2.7865e-08
2.78651e-08
2.78653e-08
2.78654e-08
2.78656e-08
2.78658e-08
2.7866e-08
2.78662e-08
2.78665e-08
2.78668e-08
2.78672e-08
2.78676e-08
2.78681e-08
2.78687e-08
2.78694e-08
2.78703e-08
2.78715e-08
2.7873e-08
2.78753e-08
2.78787e-08
2.78841e-08
2.79039e-08
2.78948e-08
2.78954e-08
2.79203e-08
2.7896e-08
2.78878e-08
2.7883e-08
2.78798e-08
2.78777e-08
2.7876e-08
2.78747e-08
2.78737e-08
2.78728e-08
2.78721e-08
2.78715e-08
2.78709e-08
2.78704e-08
2.787e-08
2.78697e-08
2.78693e-08
2.7869e-08
2.78688e-08
2.78685e-08
2.78683e-08
2.78681e-08
2.78679e-08
2.78677e-08
2.78676e-08
2.78674e-08
2.78673e-08
2.78671e-08
2.7867e-08
2.78669e-08
2.78668e-08
2.78667e-08
2.78666e-08
2.78665e-08
2.78664e-08
2.78663e-08
2.78662e-08
2.78662e-08
2.78661e-08
2.7866e-08
2.7866e-08
2.78659e-08
2.78658e-08
2.78658e-08
2.78657e-08
2.78657e-08
2.78656e-08
2.78656e-08
2.78655e-08
2.78655e-08
2.78654e-08
2.78654e-08
2.78654e-08
2.78653e-08
2.78653e-08
2.78653e-08
2.78652e-08
2.78652e-08
2.78652e-08
2.78651e-08
2.78651e-08
2.78651e-08
2.78651e-08
2.78651e-08
2.7865e-08
2.7865e-08
2.7865e-08
2.7865e-08
2.7865e-08
2.78649e-08
2.78649e-08
2.78649e-08
2.78649e-08
2.78649e-08
2.78649e-08
2.78648e-08
2.78648e-08
2.78648e-08
2.78648e-08
2.78648e-08
2.78648e-08
2.78648e-08
2.78648e-08
2.78648e-08
2.78648e-08
2.78648e-08
2.78648e-08
2.78648e-08
2.78648e-08
2.78648e-08
2.78648e-08
2.78648e-08
2.78648e-08
2.78648e-08
2.78648e-08
2.78648e-08
2.78648e-08
2.78648e-08
2.78648e-08
2.78648e-08
2.78648e-08
2.78648e-08
2.78648e-08
2.78648e-08
2.78648e-08
2.78648e-08
2.78648e-08
2.78648e-08
2.78649e-08
2.78649e-08
2.78649e-08
2.78649e-08
2.78649e-08
2.78649e-08
2.78649e-08
2.7865e-08
2.7865e-08
2.7865e-08
2.7865e-08
2.7865e-08
2.78651e-08
2.78651e-08
2.78651e-08
2.78651e-08
2.78652e-08
2.78652e-08
2.78652e-08
2.78652e-08
2.78653e-08
2.78653e-08
2.78653e-08
2.78654e-08
2.78654e-08
2.78655e-08
2.78655e-08
2.78655e-08
2.78656e-08
2.78656e-08
2.78657e-08
2.78657e-08
2.78658e-08
2.78658e-08
2.78659e-08
2.78659e-08
2.7866e-08
2.78661e-08
2.78661e-08
2.78662e-08
2.78663e-08
2.78663e-08
2.78664e-08
2.78665e-08
2.78666e-08
2.78667e-08
2.78668e-08
2.78669e-08
2.7867e-08
2.78671e-08
2.78672e-08
2.78673e-08
2.78674e-08
2.78676e-08
2.78677e-08
2.78678e-08
2.7868e-08
2.78682e-08
2.78683e-08
2.78685e-08
2.78687e-08
2.78689e-08
2.78691e-08
2.78694e-08
2.78696e-08
2.78699e-08
2.78702e-08
2.78705e-08
2.78709e-08
2.78713e-08
2.78717e-08
2.78722e-08
2.78727e-08
2.78732e-08
2.78739e-08
2.78746e-08
2.78754e-08
2.78763e-08
2.78774e-08
2.78786e-08
2.78801e-08
2.78818e-08
2.7884e-08
2.78867e-08
2.78901e-08
2.78947e-08
2.79014e-08
2.79114e-08
2.7928e-08
2.79766e-08
2.79279e-08
2.79058e-08
2.79535e-08
2.79167e-08
2.7904e-08
2.78963e-08
2.78912e-08
2.78877e-08
2.78851e-08
2.78829e-08
2.78812e-08
2.78798e-08
2.78786e-08
2.78776e-08
2.78767e-08
2.78759e-08
2.78753e-08
2.78747e-08
2.78741e-08
2.78736e-08
2.78732e-08
2.78728e-08
2.78724e-08
2.78721e-08
2.78718e-08
2.78715e-08
2.78712e-08
2.7871e-08
2.78707e-08
2.78705e-08
2.78703e-08
2.78701e-08
2.78699e-08
2.78697e-08
2.78696e-08
2.78694e-08
2.78693e-08
2.78691e-08
2.7869e-08
2.78689e-08
2.78688e-08
2.78686e-08
2.78685e-08
2.78684e-08
2.78683e-08
2.78682e-08
2.78682e-08
2.78681e-08
2.7868e-08
2.78679e-08
2.78678e-08
2.78678e-08
2.78677e-08
2.78676e-08
2.78676e-08
2.78675e-08
2.78675e-08
2.78674e-08
2.78673e-08
2.78673e-08
2.78672e-08
2.78672e-08
2.78672e-08
2.78671e-08
2.78671e-08
2.7867e-08
2.7867e-08
2.7867e-08
2.78669e-08
2.78669e-08
2.78669e-08
2.78668e-08
2.78668e-08
2.78668e-08
2.78668e-08
2.78667e-08
2.78667e-08
2.78667e-08
2.78667e-08
2.78667e-08
2.78666e-08
2.78666e-08
2.78666e-08
2.78666e-08
2.78666e-08
2.78666e-08
2.78666e-08
2.78666e-08
2.78666e-08
2.78666e-08
2.78666e-08
2.78665e-08
2.78665e-08
2.78665e-08
2.78665e-08
2.78665e-08
2.78666e-08
2.78666e-08
2.78666e-08
2.78666e-08
2.78666e-08
2.78666e-08
2.78666e-08
2.78666e-08
2.78666e-08
2.78666e-08
2.78666e-08
2.78667e-08
2.78667e-08
2.78667e-08
2.78667e-08
2.78667e-08
2.78668e-08
2.78668e-08
2.78668e-08
2.78668e-08
2.78669e-08
2.78669e-08
2.78669e-08
2.78669e-08
2.7867e-08
2.7867e-08
2.78671e-08
2.78671e-08
2.78671e-08
2.78672e-08
2.78672e-08
2.78673e-08
2.78673e-08
2.78674e-08
2.78674e-08
2.78675e-08
2.78675e-08
2.78676e-08
2.78676e-08
2.78677e-08
2.78678e-08
2.78678e-08
2.78679e-08
2.7868e-08
2.78681e-08
2.78681e-08
2.78682e-08
2.78683e-08
2.78684e-08
2.78685e-08
2.78686e-08
2.78687e-08
2.78688e-08
2.78689e-08
2.7869e-08
2.78692e-08
2.78693e-08
2.78694e-08
2.78696e-08
2.78697e-08
2.78699e-08
2.787e-08
2.78702e-08
2.78704e-08
2.78706e-08
2.78708e-08
2.7871e-08
2.78712e-08
2.78714e-08
2.78717e-08
2.78719e-08
2.78722e-08
2.78725e-08
2.78728e-08
2.78731e-08
2.78734e-08
2.78738e-08
2.78742e-08
2.78746e-08
2.78751e-08
2.78756e-08
2.78761e-08
2.78767e-08
2.78773e-08
2.7878e-08
2.78788e-08
2.78796e-08
2.78806e-08
2.78816e-08
2.78828e-08
2.78841e-08
2.78856e-08
2.78874e-08
2.78894e-08
2.78918e-08
2.78946e-08
2.78982e-08
2.79025e-08
2.7908e-08
2.79153e-08
2.7926e-08
2.79419e-08
2.79678e-08
2.80413e-08
2.79484e-08
2.79142e-08
2.79838e-08
2.7936e-08
2.79193e-08
2.7909e-08
2.79023e-08
2.78975e-08
2.78939e-08
2.7891e-08
2.78886e-08
2.78866e-08
2.7885e-08
2.78836e-08
2.78824e-08
2.78814e-08
2.78804e-08
2.78796e-08
2.78789e-08
2.78782e-08
2.78776e-08
2.7877e-08
2.78765e-08
2.7876e-08
2.78756e-08
2.78752e-08
2.78748e-08
2.78745e-08
2.78741e-08
2.78738e-08
2.78735e-08
2.78733e-08
2.7873e-08
2.78728e-08
2.78726e-08
2.78723e-08
2.78721e-08
2.78719e-08
2.78718e-08
2.78716e-08
2.78714e-08
2.78713e-08
2.78711e-08
2.7871e-08
2.78708e-08
2.78707e-08
2.78706e-08
2.78705e-08
2.78703e-08
2.78702e-08
2.78701e-08
2.787e-08
2.78699e-08
2.78698e-08
2.78698e-08
2.78697e-08
2.78696e-08
2.78695e-08
2.78694e-08
2.78694e-08
2.78693e-08
2.78692e-08
2.78692e-08
2.78691e-08
2.78691e-08
2.7869e-08
2.7869e-08
2.78689e-08
2.78689e-08
2.78688e-08
2.78688e-08
2.78687e-08
2.78687e-08
2.78687e-08
2.78686e-08
2.78686e-08
2.78686e-08
2.78685e-08
2.78685e-08
2.78685e-08
2.78685e-08
2.78684e-08
2.78684e-08
2.78684e-08
2.78684e-08
2.78684e-08
2.78684e-08
2.78684e-08
2.78684e-08
2.78683e-08
2.78683e-08
2.78683e-08
2.78683e-08
2.78683e-08
2.78683e-08
2.78683e-08
2.78683e-08
2.78683e-08
2.78684e-08
2.78684e-08
2.78684e-08
2.78684e-08
2.78684e-08
2.78684e-08
2.78684e-08
2.78684e-08
2.78685e-08
2.78685e-08
2.78685e-08
2.78685e-08
2.78686e-08
2.78686e-08
2.78686e-08
2.78687e-08
2.78687e-08
2.78687e-08
2.78688e-08
2.78688e-08
2.78688e-08
2.78689e-08
2.78689e-08
2.7869e-08
2.7869e-08
2.78691e-08
2.78691e-08
2.78692e-08
2.78693e-08
2.78693e-08
2.78694e-08
2.78695e-08
2.78695e-08
2.78696e-08
2.78697e-08
2.78698e-08
2.78699e-08
2.78699e-08
2.787e-08
2.78701e-08
2.78702e-08
2.78703e-08
2.78704e-08
2.78706e-08
2.78707e-08
2.78708e-08
2.78709e-08
2.78711e-08
2.78712e-08
2.78713e-08
2.78715e-08
2.78716e-08
2.78718e-08
2.7872e-08
2.78722e-08
2.78723e-08
2.78725e-08
2.78727e-08
2.7873e-08
2.78732e-08
2.78734e-08
2.78737e-08
2.78739e-08
2.78742e-08
2.78745e-08
2.78748e-08
2.78751e-08
2.78754e-08
2.78758e-08
2.78762e-08
2.78766e-08
2.7877e-08
2.78774e-08
2.78779e-08
2.78784e-08
2.7879e-08
2.78796e-08
2.78802e-08
2.78809e-08
2.78816e-08
2.78824e-08
2.78833e-08
2.78843e-08
2.78853e-08
2.78865e-08
2.78878e-08
2.78893e-08
2.78909e-08
2.78927e-08
2.78948e-08
2.78972e-08
2.78999e-08
2.79032e-08
2.79071e-08
2.79119e-08
2.79178e-08
2.79254e-08
2.79352e-08
2.79494e-08
2.79707e-08
2.80048e-08
2.81003e-08
2.79646e-08
2.79246e-08
2.80115e-08
2.79543e-08
2.7934e-08
2.79213e-08
2.7913e-08
2.79071e-08
2.79025e-08
2.78988e-08
2.78958e-08
2.78934e-08
2.78913e-08
2.78896e-08
2.78881e-08
2.78867e-08
2.78855e-08
2.78845e-08
2.78835e-08
2.78827e-08
2.78819e-08
2.78812e-08
2.78806e-08
2.788e-08
2.78794e-08
2.78789e-08
2.78784e-08
2.7878e-08
2.78775e-08
2.78771e-08
2.78768e-08
2.78764e-08
2.78761e-08
2.78758e-08
2.78755e-08
2.78752e-08
2.7875e-08
2.78747e-08
2.78745e-08
2.78743e-08
2.78741e-08
2.78739e-08
2.78737e-08
2.78735e-08
2.78733e-08
2.78731e-08
2.7873e-08
2.78728e-08
2.78727e-08
2.78725e-08
2.78724e-08
2.78723e-08
2.78722e-08
2.7872e-08
2.78719e-08
2.78718e-08
2.78717e-08
2.78716e-08
2.78715e-08
2.78714e-08
2.78714e-08
2.78713e-08
2.78712e-08
2.78711e-08
2.7871e-08
2.7871e-08
2.78709e-08
2.78709e-08
2.78708e-08
2.78707e-08
2.78707e-08
2.78706e-08
2.78706e-08
2.78705e-08
2.78705e-08
2.78705e-08
2.78704e-08
2.78704e-08
2.78703e-08
2.78703e-08
2.78703e-08
2.78703e-08
2.78702e-08
2.78702e-08
2.78702e-08
2.78702e-08
2.78702e-08
2.78701e-08
2.78701e-08
2.78701e-08
2.78701e-08
2.78701e-08
2.78701e-08
2.78701e-08
2.78701e-08
2.78701e-08
2.78701e-08
2.78701e-08
2.78701e-08
2.78701e-08
2.78702e-08
2.78702e-08
2.78702e-08
2.78702e-08
2.78702e-08
2.78703e-08
2.78703e-08
2.78703e-08
2.78703e-08
2.78704e-08
2.78704e-08
2.78704e-08
2.78705e-08
2.78705e-08
2.78706e-08
2.78706e-08
2.78707e-08
2.78707e-08
2.78708e-08
2.78708e-08
2.78709e-08
2.7871e-08
2.7871e-08
2.78711e-08
2.78712e-08
2.78712e-08
2.78713e-08
2.78714e-08
2.78715e-08
2.78716e-08
2.78717e-08
2.78718e-08
2.78719e-08
2.7872e-08
2.78721e-08
2.78722e-08
2.78723e-08
2.78724e-08
2.78725e-08
2.78727e-08
2.78728e-08
2.7873e-08
2.78731e-08
2.78733e-08
2.78734e-08
2.78736e-08
2.78738e-08
2.7874e-08
2.78742e-08
2.78744e-08
2.78746e-08
2.78748e-08
2.7875e-08
2.78752e-08
2.78755e-08
2.78758e-08
2.7876e-08
2.78763e-08
2.78766e-08
2.78769e-08
2.78773e-08
2.78776e-08
2.7878e-08
2.78784e-08
2.78788e-08
2.78792e-08
2.78796e-08
2.78801e-08
2.78806e-08
2.78812e-08
2.78817e-08
2.78824e-08
2.7883e-08
2.78837e-08
2.78845e-08
2.78853e-08
2.78862e-08
2.78871e-08
2.78881e-08
2.78892e-08
2.78905e-08
2.78918e-08
2.78933e-08
2.78949e-08
2.78968e-08
2.78988e-08
2.79011e-08
2.79037e-08
2.79068e-08
2.79103e-08
2.79143e-08
2.79192e-08
2.79253e-08
2.79327e-08
2.79421e-08
2.79545e-08
2.79719e-08
2.79982e-08
2.80396e-08
2.81539e-08
2.79849e-08
2.79365e-08
2.80376e-08
2.79716e-08
2.79481e-08
2.79333e-08
2.79234e-08
2.79164e-08
2.79109e-08
2.79065e-08
2.79029e-08
2.79e-08
2.78975e-08
2.78954e-08
2.78936e-08
2.7892e-08
2.78906e-08
2.78893e-08
2.78882e-08
2.78871e-08
2.78862e-08
2.78854e-08
2.78846e-08
2.78838e-08
2.78832e-08
2.78825e-08
2.7882e-08
2.78814e-08
2.78809e-08
2.78804e-08
2.788e-08
2.78796e-08
2.78792e-08
2.78788e-08
2.78784e-08
2.78781e-08
2.78778e-08
2.78775e-08
2.78772e-08
2.7877e-08
2.78767e-08
2.78764e-08
2.78762e-08
2.7876e-08
2.78758e-08
2.78756e-08
2.78754e-08
2.78752e-08
2.7875e-08
2.78749e-08
2.78747e-08
2.78745e-08
2.78744e-08
2.78742e-08
2.78741e-08
2.7874e-08
2.78739e-08
2.78737e-08
2.78736e-08
2.78735e-08
2.78734e-08
2.78733e-08
2.78732e-08
2.78731e-08
2.7873e-08
2.78729e-08
2.78729e-08
2.78728e-08
2.78727e-08
2.78726e-08
2.78726e-08
2.78725e-08
2.78725e-08
2.78724e-08
2.78724e-08
2.78723e-08
2.78723e-08
2.78722e-08
2.78722e-08
2.78721e-08
2.78721e-08
2.78721e-08
2.7872e-08
2.7872e-08
2.7872e-08
2.7872e-08
2.7872e-08
2.78719e-08
2.78719e-08
2.78719e-08
2.78719e-08
2.78719e-08
2.78719e-08
2.78719e-08
2.78719e-08
2.78719e-08
2.78719e-08
2.78719e-08
2.78719e-08
2.78719e-08
2.78719e-08
2.7872e-08
2.7872e-08
2.7872e-08
2.7872e-08
2.78721e-08
2.78721e-08
2.78721e-08
2.78722e-08
2.78722e-08
2.78722e-08
2.78723e-08
2.78723e-08
2.78724e-08
2.78724e-08
2.78725e-08
2.78726e-08
2.78726e-08
2.78727e-08
2.78728e-08
2.78728e-08
2.78729e-08
2.7873e-08
2.78731e-08
2.78732e-08
2.78733e-08
2.78733e-08
2.78734e-08
2.78735e-08
2.78737e-08
2.78738e-08
2.78739e-08
2.7874e-08
2.78741e-08
2.78743e-08
2.78744e-08
2.78745e-08
2.78747e-08
2.78748e-08
2.7875e-08
2.78752e-08
2.78754e-08
2.78755e-08
2.78757e-08
2.78759e-08
2.78761e-08
2.78763e-08
2.78766e-08
2.78768e-08
2.7877e-08
2.78773e-08
2.78776e-08
2.78778e-08
2.78781e-08
2.78784e-08
2.78788e-08
2.78791e-08
2.78794e-08
2.78798e-08
2.78802e-08
2.78806e-08
2.7881e-08
2.78814e-08
2.78819e-08
2.78824e-08
2.78829e-08
2.78835e-08
2.78841e-08
2.78847e-08
2.78853e-08
2.7886e-08
2.78868e-08
2.78876e-08
2.78884e-08
2.78893e-08
2.78903e-08
2.78914e-08
2.78925e-08
2.78937e-08
2.78951e-08
2.78966e-08
2.78982e-08
2.79e-08
2.7902e-08
2.79042e-08
2.79066e-08
2.79094e-08
2.79125e-08
2.79162e-08
2.79204e-08
2.79253e-08
2.79311e-08
2.79383e-08
2.79472e-08
2.79584e-08
2.7973e-08
2.79936e-08
2.80244e-08
2.80724e-08
2.82044e-08
2.80078e-08
2.79462e-08
2.80623e-08
2.79883e-08
2.79618e-08
2.79449e-08
2.79337e-08
2.79255e-08
2.79192e-08
2.79141e-08
2.79099e-08
2.79065e-08
2.79037e-08
2.79012e-08
2.78991e-08
2.78972e-08
2.78956e-08
2.78941e-08
2.78927e-08
2.78915e-08
2.78905e-08
2.78895e-08
2.78885e-08
2.78877e-08
2.78869e-08
2.78862e-08
2.78855e-08
2.78849e-08
2.78843e-08
2.78837e-08
2.78832e-08
2.78827e-08
2.78822e-08
2.78818e-08
2.78814e-08
2.7881e-08
2.78806e-08
2.78803e-08
2.78799e-08
2.78796e-08
2.78793e-08
2.7879e-08
2.78787e-08
2.78785e-08
2.78782e-08
2.7878e-08
2.78778e-08
2.78776e-08
2.78773e-08
2.78771e-08
2.7877e-08
2.78768e-08
2.78766e-08
2.78764e-08
2.78763e-08
2.78761e-08
2.7876e-08
2.78758e-08
2.78757e-08
2.78756e-08
2.78754e-08
2.78753e-08
2.78752e-08
2.78751e-08
2.7875e-08
2.78749e-08
2.78748e-08
2.78747e-08
2.78746e-08
2.78746e-08
2.78745e-08
2.78744e-08
2.78743e-08
2.78743e-08
2.78742e-08
2.78742e-08
2.78741e-08
2.7874e-08
2.7874e-08
2.7874e-08
2.78739e-08
2.78739e-08
2.78738e-08
2.78738e-08
2.78738e-08
2.78738e-08
2.78737e-08
2.78737e-08
2.78737e-08
2.78737e-08
2.78737e-08
2.78737e-08
2.78737e-08
2.78737e-08
2.78737e-08
2.78737e-08
2.78737e-08
2.78737e-08
2.78737e-08
2.78737e-08
2.78737e-08
2.78738e-08
2.78738e-08
2.78738e-08
2.78738e-08
2.78739e-08
2.78739e-08
2.78739e-08
2.7874e-08
2.7874e-08
2.78741e-08
2.78741e-08
2.78742e-08
2.78743e-08
2.78743e-08
2.78744e-08
2.78745e-08
2.78745e-08
2.78746e-08
2.78747e-08
2.78748e-08
2.78749e-08
2.7875e-08
2.78751e-08
2.78752e-08
2.78753e-08
2.78754e-08
2.78755e-08
2.78756e-08
2.78757e-08
2.78759e-08
2.7876e-08
2.78762e-08
2.78763e-08
2.78765e-08
2.78766e-08
2.78768e-08
2.7877e-08
2.78771e-08
2.78773e-08
2.78775e-08
2.78777e-08
2.7878e-08
2.78782e-08
2.78784e-08
2.78787e-08
2.78789e-08
2.78792e-08
2.78794e-08
2.78797e-08
2.788e-08
2.78803e-08
2.78807e-08
2.7881e-08
2.78814e-08
2.78817e-08
2.78821e-08
2.78825e-08
2.7883e-08
2.78834e-08
2.78839e-08
2.78844e-08
2.78849e-08
2.78854e-08
2.7886e-08
2.78866e-08
2.78873e-08
2.7888e-08
2.78887e-08
2.78894e-08
2.78903e-08
2.78911e-08
2.78921e-08
2.78931e-08
2.78941e-08
2.78953e-08
2.78965e-08
2.78979e-08
2.78993e-08
2.79009e-08
2.79026e-08
2.79045e-08
2.79066e-08
2.79089e-08
2.79115e-08
2.79144e-08
2.79175e-08
2.79212e-08
2.79254e-08
2.79303e-08
2.7936e-08
2.79428e-08
2.79511e-08
2.79614e-08
2.79743e-08
2.79911e-08
2.80145e-08
2.80495e-08
2.81036e-08
2.82521e-08
2.80264e-08
2.79578e-08
2.80851e-08
2.80042e-08
2.7975e-08
2.79563e-08
2.79437e-08
2.79345e-08
2.79273e-08
2.79215e-08
2.79168e-08
2.7913e-08
2.79097e-08
2.79069e-08
2.79045e-08
2.79023e-08
2.79005e-08
2.78988e-08
2.78973e-08
2.78959e-08
2.78947e-08
2.78935e-08
2.78925e-08
2.78915e-08
2.78906e-08
2.78898e-08
2.7889e-08
2.78883e-08
2.78876e-08
2.78869e-08
2.78863e-08
2.78858e-08
2.78853e-08
2.78848e-08
2.78843e-08
2.78838e-08
2.78834e-08
2.7883e-08
2.78826e-08
2.78823e-08
2.78819e-08
2.78816e-08
2.78813e-08
2.7881e-08
2.78807e-08
2.78804e-08
2.78802e-08
2.78799e-08
2.78797e-08
2.78794e-08
2.78792e-08
2.7879e-08
2.78788e-08
2.78786e-08
2.78784e-08
2.78783e-08
2.78781e-08
2.78779e-08
2.78778e-08
2.78776e-08
2.78775e-08
2.78773e-08
2.78772e-08
2.78771e-08
2.7877e-08
2.78769e-08
2.78768e-08
2.78766e-08
2.78765e-08
2.78765e-08
2.78764e-08
2.78763e-08
2.78762e-08
2.78761e-08
2.78761e-08
2.7876e-08
2.78759e-08
2.78759e-08
2.78758e-08
2.78758e-08
2.78757e-08
2.78757e-08
2.78756e-08
2.78756e-08
2.78756e-08
2.78755e-08
2.78755e-08
2.78755e-08
2.78755e-08
2.78755e-08
2.78754e-08
2.78754e-08
2.78754e-08
2.78754e-08
2.78754e-08
2.78754e-08
2.78754e-08
2.78755e-08
2.78755e-08
2.78755e-08
2.78755e-08
2.78755e-08
2.78756e-08
2.78756e-08
2.78756e-08
2.78757e-08
2.78757e-08
2.78758e-08
2.78758e-08
2.78759e-08
2.78759e-08
2.7876e-08
2.7876e-08
2.78761e-08
2.78762e-08
2.78763e-08
2.78763e-08
2.78764e-08
2.78765e-08
2.78766e-08
2.78767e-08
2.78768e-08
2.78769e-08
2.7877e-08
2.78772e-08
2.78773e-08
2.78774e-08
2.78775e-08
2.78777e-08
2.78778e-08
2.7878e-08
2.78781e-08
2.78783e-08
2.78785e-08
2.78786e-08
2.78788e-08
2.7879e-08
2.78792e-08
2.78794e-08
2.78797e-08
2.78799e-08
2.78801e-08
2.78804e-08
2.78806e-08
2.78809e-08
2.78812e-08
2.78814e-08
2.78818e-08
2.78821e-08
2.78824e-08
2.78827e-08
2.78831e-08
2.78835e-08
2.78839e-08
2.78843e-08
2.78847e-08
2.78851e-08
2.78856e-08
2.78861e-08
2.78866e-08
2.78871e-08
2.78877e-08
2.78883e-08
2.78889e-08
2.78896e-08
2.78903e-08
2.7891e-08
2.78918e-08
2.78927e-08
2.78935e-08
2.78945e-08
2.78955e-08
2.78965e-08
2.78977e-08
2.78989e-08
2.79002e-08
2.79016e-08
2.79032e-08
2.79048e-08
2.79066e-08
2.79086e-08
2.79108e-08
2.79131e-08
2.79158e-08
2.79187e-08
2.7922e-08
2.79256e-08
2.79297e-08
2.79345e-08
2.794e-08
2.79465e-08
2.79542e-08
2.79635e-08
2.79751e-08
2.79897e-08
2.80085e-08
2.80347e-08
2.80736e-08
2.81334e-08
2.82958e-08
2.80487e-08
2.79698e-08
2.81073e-08
2.80195e-08
2.79879e-08
2.79673e-08
2.79535e-08
2.79433e-08
2.79353e-08
2.79289e-08
2.79236e-08
2.79193e-08
2.79157e-08
2.79125e-08
2.79098e-08
2.79074e-08
2.79053e-08
2.79035e-08
2.79018e-08
2.79002e-08
2.78988e-08
2.78976e-08
2.78964e-08
2.78953e-08
2.78943e-08
2.78933e-08
2.78925e-08
2.78917e-08
2.78909e-08
2.78902e-08
2.78895e-08
2.78889e-08
2.78883e-08
2.78877e-08
2.78872e-08
2.78867e-08
2.78862e-08
2.78857e-08
2.78853e-08
2.78849e-08
2.78845e-08
2.78841e-08
2.78838e-08
2.78835e-08
2.78831e-08
2.78828e-08
2.78825e-08
2.78822e-08
2.7882e-08
2.78817e-08
2.78815e-08
2.78812e-08
2.7881e-08
2.78808e-08
2.78806e-08
2.78804e-08
2.78802e-08
2.788e-08
2.78798e-08
2.78797e-08
2.78795e-08
2.78794e-08
2.78792e-08
2.78791e-08
2.78789e-08
2.78788e-08
2.78787e-08
2.78786e-08
2.78785e-08
2.78784e-08
2.78783e-08
2.78782e-08
2.78781e-08
2.7878e-08
2.78779e-08
2.78778e-08
2.78778e-08
2.78777e-08
2.78776e-08
2.78776e-08
2.78775e-08
2.78775e-08
2.78774e-08
2.78774e-08
2.78774e-08
2.78773e-08
2.78773e-08
2.78773e-08
2.78772e-08
2.78772e-08
2.78772e-08
2.78772e-08
2.78772e-08
2.78772e-08
2.78772e-08
2.78772e-08
2.78772e-08
2.78772e-08
2.78772e-08
2.78773e-08
2.78773e-08
2.78773e-08
2.78773e-08
2.78774e-08
2.78774e-08
2.78775e-08
2.78775e-08
2.78776e-08
2.78776e-08
2.78777e-08
2.78777e-08
2.78778e-08
2.78779e-08
2.7878e-08
2.7878e-08
2.78781e-08
2.78782e-08
2.78783e-08
2.78784e-08
2.78785e-08
2.78786e-08
2.78788e-08
2.78789e-08
2.7879e-08
2.78791e-08
2.78793e-08
2.78794e-08
2.78796e-08
2.78797e-08
2.78799e-08
2.78801e-08
2.78802e-08
2.78804e-08
2.78806e-08
2.78808e-08
2.7881e-08
2.78812e-08
2.78815e-08
2.78817e-08
2.7882e-08
2.78822e-08
2.78825e-08
2.78828e-08
2.7883e-08
2.78833e-08
2.78837e-08
2.7884e-08
2.78843e-08
2.78847e-08
2.78851e-08
2.78854e-08
2.78858e-08
2.78863e-08
2.78867e-08
2.78872e-08
2.78876e-08
2.78881e-08
2.78887e-08
2.78892e-08
2.78898e-08
2.78904e-08
2.78911e-08
2.78917e-08
2.78924e-08
2.78932e-08
2.7894e-08
2.78948e-08
2.78957e-08
2.78966e-08
2.78976e-08
2.78987e-08
2.78998e-08
2.7901e-08
2.79023e-08
2.79036e-08
2.79051e-08
2.79067e-08
2.79084e-08
2.79103e-08
2.79123e-08
2.79146e-08
2.7917e-08
2.79196e-08
2.79225e-08
2.79258e-08
2.79295e-08
2.79335e-08
2.79381e-08
2.79435e-08
2.79496e-08
2.79568e-08
2.79653e-08
2.79757e-08
2.79886e-08
2.80047e-08
2.80255e-08
2.80542e-08
2.80969e-08
2.81617e-08
2.83383e-08
2.80718e-08
2.79822e-08
2.81284e-08
2.80344e-08
2.80004e-08
2.79782e-08
2.79631e-08
2.7952e-08
2.79432e-08
2.79361e-08
2.79303e-08
2.79256e-08
2.79216e-08
2.79181e-08
2.79151e-08
2.79125e-08
2.79102e-08
2.79081e-08
2.79062e-08
2.79045e-08
2.7903e-08
2.79016e-08
2.79003e-08
2.78991e-08
2.78979e-08
2.78969e-08
2.78959e-08
2.7895e-08
2.78942e-08
2.78934e-08
2.78926e-08
2.78919e-08
2.78913e-08
2.78907e-08
2.78901e-08
2.78895e-08
2.7889e-08
2.78885e-08
2.7888e-08
2.78875e-08
2.78871e-08
2.78867e-08
2.78863e-08
2.78859e-08
2.78856e-08
2.78852e-08
2.78849e-08
2.78846e-08
2.78843e-08
2.7884e-08
2.78837e-08
2.78835e-08
2.78832e-08
2.7883e-08
2.78827e-08
2.78825e-08
2.78823e-08
2.78821e-08
2.78819e-08
2.78817e-08
2.78815e-08
2.78814e-08
2.78812e-08
2.7881e-08
2.78809e-08
2.78808e-08
2.78806e-08
2.78805e-08
2.78804e-08
2.78802e-08
2.78801e-08
2.788e-08
2.78799e-08
2.78798e-08
2.78798e-08
2.78797e-08
2.78796e-08
2.78795e-08
2.78794e-08
2.78794e-08
2.78793e-08
2.78793e-08
2.78792e-08
2.78792e-08
2.78791e-08
2.78791e-08
2.78791e-08
2.7879e-08
2.7879e-08
2.7879e-08
2.7879e-08
2.7879e-08
2.7879e-08
2.7879e-08
2.7879e-08
2.7879e-08
2.7879e-08
2.7879e-08
2.7879e-08
2.7879e-08
2.78791e-08
2.78791e-08
2.78791e-08
2.78792e-08
2.78792e-08
2.78793e-08
2.78793e-08
2.78794e-08
2.78794e-08
2.78795e-08
2.78796e-08
2.78796e-08
2.78797e-08
2.78798e-08
2.78799e-08
2.788e-08
2.78801e-08
2.78802e-08
2.78803e-08
2.78804e-08
2.78806e-08
2.78807e-08
2.78808e-08
2.7881e-08
2.78811e-08
2.78813e-08
2.78814e-08
2.78816e-08
2.78818e-08
2.7882e-08
2.78822e-08
2.78823e-08
2.78826e-08
2.78828e-08
2.7883e-08
2.78832e-08
2.78835e-08
2.78837e-08
2.7884e-08
2.78843e-08
2.78845e-08
2.78848e-08
2.78851e-08
2.78855e-08
2.78858e-08
2.78862e-08
2.78865e-08
2.78869e-08
2.78873e-08
2.78877e-08
2.78881e-08
2.78886e-08
2.7889e-08
2.78895e-08
2.789e-08
2.78906e-08
2.78911e-08
2.78917e-08
2.78923e-08
2.7893e-08
2.78937e-08
2.78944e-08
2.78951e-08
2.78959e-08
2.78967e-08
2.78976e-08
2.78985e-08
2.78995e-08
2.79005e-08
2.79016e-08
2.79028e-08
2.79041e-08
2.79054e-08
2.79068e-08
2.79084e-08
2.791e-08
2.79118e-08
2.79137e-08
2.79157e-08
2.7918e-08
2.79204e-08
2.79231e-08
2.7926e-08
2.79292e-08
2.79329e-08
2.79369e-08
2.79413e-08
2.79464e-08
2.79523e-08
2.79591e-08
2.7967e-08
2.79763e-08
2.79877e-08
2.80018e-08
2.80194e-08
2.80421e-08
2.80733e-08
2.81193e-08
2.81891e-08
2.83785e-08
2.80955e-08
2.79919e-08
2.81488e-08
2.80488e-08
2.80127e-08
2.79888e-08
2.79726e-08
2.79605e-08
2.7951e-08
2.79433e-08
2.7937e-08
2.79318e-08
2.79274e-08
2.79236e-08
2.79204e-08
2.79175e-08
2.7915e-08
2.79127e-08
2.79106e-08
2.79088e-08
2.79071e-08
2.79055e-08
2.79041e-08
2.79028e-08
2.79016e-08
2.79004e-08
2.78994e-08
2.78984e-08
2.78975e-08
2.78966e-08
2.78958e-08
2.7895e-08
2.78943e-08
2.78936e-08
2.78929e-08
2.78923e-08
2.78917e-08
2.78912e-08
2.78907e-08
2.78902e-08
2.78897e-08
2.78892e-08
2.78888e-08
2.78884e-08
2.7888e-08
2.78876e-08
2.78872e-08
2.78869e-08
2.78866e-08
2.78863e-08
2.7886e-08
2.78857e-08
2.78854e-08
2.78851e-08
2.78849e-08
2.78846e-08
2.78844e-08
2.78842e-08
2.7884e-08
2.78838e-08
2.78836e-08
2.78834e-08
2.78832e-08
2.7883e-08
2.78829e-08
2.78827e-08
2.78825e-08
2.78824e-08
2.78823e-08
2.78821e-08
2.7882e-08
2.78819e-08
2.78818e-08
2.78817e-08
2.78816e-08
2.78815e-08
2.78814e-08
2.78813e-08
2.78813e-08
2.78812e-08
2.78811e-08
2.78811e-08
2.7881e-08
2.7881e-08
2.78809e-08
2.78809e-08
2.78808e-08
2.78808e-08
2.78808e-08
2.78808e-08
2.78807e-08
2.78807e-08
2.78807e-08
2.78807e-08
2.78807e-08
2.78807e-08
2.78807e-08
2.78808e-08
2.78808e-08
2.78808e-08
2.78808e-08
2.78809e-08
2.78809e-08
2.78809e-08
2.7881e-08
2.7881e-08
2.78811e-08
2.78812e-08
2.78812e-08
2.78813e-08
2.78814e-08
2.78815e-08
2.78816e-08
2.78817e-08
2.78818e-08
2.78819e-08
2.7882e-08
2.78821e-08
2.78822e-08
2.78824e-08
2.78825e-08
2.78826e-08
2.78828e-08
2.78829e-08
2.78831e-08
2.78833e-08
2.78834e-08
2.78836e-08
2.78838e-08
2.7884e-08
2.78842e-08
2.78845e-08
2.78847e-08
2.78849e-08
2.78852e-08
2.78854e-08
2.78857e-08
2.7886e-08
2.78863e-08
2.78866e-08
2.78869e-08
2.78872e-08
2.78875e-08
2.78879e-08
2.78883e-08
2.78886e-08
2.7889e-08
2.78895e-08
2.78899e-08
2.78903e-08
2.78908e-08
2.78913e-08
2.78918e-08
2.78924e-08
2.78929e-08
2.78935e-08
2.78941e-08
2.78948e-08
2.78954e-08
2.78961e-08
2.78969e-08
2.78977e-08
2.78985e-08
2.78994e-08
2.79003e-08
2.79012e-08
2.79022e-08
2.79033e-08
2.79045e-08
2.79057e-08
2.7907e-08
2.79083e-08
2.79098e-08
2.79114e-08
2.7913e-08
2.79148e-08
2.79168e-08
2.79188e-08
2.79211e-08
2.79236e-08
2.79262e-08
2.79291e-08
2.79323e-08
2.79359e-08
2.79398e-08
2.79442e-08
2.7949e-08
2.79546e-08
2.7961e-08
2.79683e-08
2.79769e-08
2.79871e-08
2.79994e-08
2.80147e-08
2.80338e-08
2.80583e-08
2.80917e-08
2.81411e-08
2.82153e-08
2.84173e-08
2.8114e-08
2.80032e-08
2.81677e-08
2.80629e-08
2.80246e-08
2.79993e-08
2.79819e-08
2.7969e-08
2.79587e-08
2.79504e-08
2.79436e-08
2.7938e-08
2.79333e-08
2.79291e-08
2.79256e-08
2.79225e-08
2.79197e-08
2.79173e-08
2.7915e-08
2.7913e-08
2.79112e-08
2.79095e-08
2.7908e-08
2.79065e-08
2.79052e-08
2.7904e-08
2.79028e-08
2.79017e-08
2.79007e-08
2.78998e-08
2.78989e-08
2.78981e-08
2.78973e-08
2.78965e-08
2.78958e-08
2.78951e-08
2.78945e-08
2.78939e-08
2.78933e-08
2.78928e-08
2.78923e-08
2.78918e-08
2.78913e-08
2.78908e-08
2.78904e-08
2.789e-08
2.78896e-08
2.78892e-08
2.78889e-08
2.78885e-08
2.78882e-08
2.78879e-08
2.78876e-08
2.78873e-08
2.7887e-08
2.78867e-08
2.78865e-08
2.78862e-08
2.7886e-08
2.78858e-08
2.78856e-08
2.78854e-08
2.78852e-08
2.7885e-08
2.78848e-08
2.78846e-08
2.78845e-08
2.78843e-08
2.78842e-08
2.7884e-08
2.78839e-08
2.78838e-08
2.78836e-08
2.78835e-08
2.78834e-08
2.78833e-08
2.78832e-08
2.78831e-08
2.78831e-08
2.7883e-08
2.78829e-08
2.78829e-08
2.78828e-08
2.78827e-08
2.78827e-08
2.78826e-08
2.78826e-08
2.78826e-08
2.78825e-08
2.78825e-08
2.78825e-08
2.78825e-08
2.78825e-08
2.78825e-08
2.78825e-08
2.78825e-08
2.78825e-08
2.78825e-08
2.78825e-08
2.78826e-08
2.78826e-08
2.78826e-08
2.78827e-08
2.78827e-08
2.78828e-08
2.78828e-08
2.78829e-08
2.7883e-08
2.7883e-08
2.78831e-08
2.78832e-08
2.78833e-08
2.78834e-08
2.78835e-08
2.78836e-08
2.78837e-08
2.78839e-08
2.7884e-08
2.78841e-08
2.78843e-08
2.78844e-08
2.78846e-08
2.78847e-08
2.78849e-08
2.78851e-08
2.78853e-08
2.78855e-08
2.78857e-08
2.78859e-08
2.78861e-08
2.78863e-08
2.78866e-08
2.78868e-08
2.78871e-08
2.78873e-08
2.78876e-08
2.78879e-08
2.78882e-08
2.78885e-08
2.78888e-08
2.78892e-08
2.78895e-08
2.78899e-08
2.78903e-08
2.78907e-08
2.78911e-08
2.78916e-08
2.7892e-08
2.78925e-08
2.7893e-08
2.78935e-08
2.7894e-08
2.78946e-08
2.78952e-08
2.78958e-08
2.78964e-08
2.78971e-08
2.78978e-08
2.78985e-08
2.78993e-08
2.79001e-08
2.7901e-08
2.79019e-08
2.79028e-08
2.79038e-08
2.79048e-08
2.79059e-08
2.79071e-08
2.79084e-08
2.79097e-08
2.79111e-08
2.79126e-08
2.79142e-08
2.79159e-08
2.79177e-08
2.79196e-08
2.79217e-08
2.7924e-08
2.79264e-08
2.79291e-08
2.7932e-08
2.79352e-08
2.79386e-08
2.79424e-08
2.79467e-08
2.79514e-08
2.79567e-08
2.79627e-08
2.79695e-08
2.79775e-08
2.79868e-08
2.79977e-08
2.80109e-08
2.80273e-08
2.80478e-08
2.80741e-08
2.81097e-08
2.81622e-08
2.82407e-08
2.8453e-08
2.81354e-08
2.80151e-08
2.81864e-08
2.80765e-08
2.80364e-08
2.80096e-08
2.79912e-08
2.79773e-08
2.79663e-08
2.79574e-08
2.79501e-08
2.79441e-08
2.7939e-08
2.79346e-08
2.79308e-08
2.79274e-08
2.79245e-08
2.79218e-08
2.79194e-08
2.79172e-08
2.79153e-08
2.79135e-08
2.79118e-08
2.79102e-08
2.79088e-08
2.79075e-08
2.79062e-08
2.79051e-08
2.7904e-08
2.7903e-08
2.7902e-08
2.79011e-08
2.79002e-08
2.78994e-08
2.78987e-08
2.78979e-08
2.78973e-08
2.78966e-08
2.7896e-08
2.78954e-08
2.78948e-08
2.78943e-08
2.78938e-08
2.78933e-08
2.78928e-08
2.78924e-08
2.78919e-08
2.78915e-08
2.78912e-08
2.78908e-08
2.78904e-08
2.78901e-08
2.78898e-08
2.78894e-08
2.78891e-08
2.78889e-08
2.78886e-08
2.78883e-08
2.78881e-08
2.78878e-08
2.78876e-08
2.78874e-08
2.78872e-08
2.7887e-08
2.78868e-08
2.78866e-08
2.78864e-08
2.78862e-08
2.78861e-08