/*--------------------------------*- C++ -*----------------------------------*\
  =========                 |
  \\      /  F ield         | OpenFOAM: The Open Source CFD Toolbox
   \\    /   O peration     | Website:  https://openfoam.org
    \\  /    A nd           | Version:  8
     \\/     M anipulation  |
\*---------------------------------------------------------------------------*/
FoamFile
{
    version     2.0;
    format      ascii;
    class       volScalarField;
    location    "0.11";
    object      p;
}
// * * * * * * * * * * * * * * * * * * * * * * * * * * * * * * * * * * * * * //

dimensions      [0 2 -2 0 0 0 0];

internalField   nonuniform List<scalar> 
112642
(
4.14517
4.12461
4.10389
4.08284
4.06125
4.03896
4.01594
3.99224
3.96794
3.94311
3.9178
3.89202
3.86581
3.83921
3.81222
3.78487
3.75718
3.72916
3.70084
3.67223
3.64334
3.6142
3.5848
3.55516
3.52529
3.49521
3.4649
3.43438
3.40368
3.37278
3.34172
3.31047
3.27905
3.24748
3.21575
3.18388
3.15187
3.11971
3.08743
3.05503
3.02251
2.98988
2.95712
2.92426
2.89129
2.85823
2.82507
2.79181
2.75845
2.72501
2.69148
2.65786
2.62416
2.59038
2.55653
2.52259
2.48858
2.45451
2.42036
2.38614
2.35187
2.31752
2.28311
2.24864
2.21411
2.17952
2.14487
2.11016
2.0754
2.04057
2.00569
1.97075
1.93575
1.90069
1.86557
1.8304
1.79517
1.75989
1.72455
1.68915
1.65368
1.61817
1.58259
1.54697
1.51127
1.47551
1.43971
1.40384
1.36791
1.33192
1.29586
1.25975
1.22358
1.18733
1.15103
1.11466
1.07823
1.04173
1.00516
0.968522
0.931816
0.895042
0.858197
0.821277
0.784288
0.74723
0.710091
0.672876
0.635586
0.598227
0.560778
0.523252
0.485647
0.447956
0.410196
0.372333
0.33439
0.296371
0.25826
0.220059
0.181764
0.143389
0.104922
0.06637
0.0277157
-0.0110208
-0.0498512
-0.0887758
-0.127791
-0.1669
-0.2061
-0.245399
-0.284791
-0.324279
-0.363871
-0.403559
-0.443345
-0.483233
-0.523223
-0.563314
-0.603496
-0.643788
-0.684186
-0.724678
-0.765281
-0.805985
-0.846791
-0.8877
-0.928719
-0.969837
-1.01106
-1.05239
-1.09382
-1.13535
-1.17698
-1.21871
-1.26055
-1.30249
-1.34452
-1.38665
-1.42886
-1.47117
-1.51358
-1.55609
-1.59866
-1.64132
-1.68406
-1.72687
-1.76975
-1.8127
-1.8557
-1.89877
-1.94188
-1.98506
-2.02827
-2.07151
-2.1148
-2.15811
-2.20145
-2.2448
-2.28819
-2.33159
-2.37498
-2.41838
-2.46178
-2.50516
-2.5485
-2.5918
-2.63503
-2.6782
-2.72125
-2.76416
-2.80688
-2.84935
-2.89148
-2.93318
-2.97445
-3.01538
-3.05614
-3.09694
4.15727
4.13682
4.11619
4.09533
4.0741
4.05222
4.02961
4.00633
3.9824
3.9579
3.93288
3.90738
3.88144
3.85507
3.82831
3.80118
3.77368
3.74585
3.7177
3.68923
3.66049
3.63146
3.60217
3.57263
3.54284
3.51282
3.48257
3.45209
3.42142
3.39055
3.35947
3.32822
3.29679
3.26519
3.23342
3.2015
3.16943
3.1372
3.10484
3.07235
3.03973
3.00699
2.97412
2.94113
2.90802
2.87481
2.8415
2.80808
2.77456
2.74093
2.70722
2.67341
2.63952
2.60553
2.57146
2.53731
2.50308
2.46877
2.43438
2.39992
2.36539
2.33079
2.29611
2.26137
2.22657
2.19169
2.15676
2.12176
2.0867
2.05156
2.01638
1.98112
1.94581
1.91043
1.87499
1.83949
1.80393
1.76831
1.73263
1.69688
1.66107
1.62521
1.58928
1.55329
1.51724
1.48112
1.44495
1.40871
1.3724
1.33604
1.29961
1.26311
1.22656
1.18993
1.15324
1.11648
1.07965
1.04276
1.00579
0.96877
0.931659
0.894492
0.85724
0.819924
0.782532
0.745066
0.707525
0.669903
0.632209
0.594436
0.556584
0.51865
0.480635
0.442538
0.404363
0.366097
0.327748
0.289316
0.250798
0.212189
0.173494
0.134709
0.0958401
0.0568813
0.0178311
-0.0213113
-0.0605396
-0.0998609
-0.139272
-0.178778
-0.218371
-0.258065
-0.297848
-0.337725
-0.377696
-0.417773
-0.457938
-0.498202
-0.538567
-0.579023
-0.619583
-0.660237
-0.700995
-0.741847
-0.7828
-0.823851
-0.865007
-0.906256
-0.947606
-0.989052
-1.0306
-1.07225
-1.11399
-1.15583
-1.19776
-1.23979
-1.28191
-1.32413
-1.36644
-1.40882
-1.45131
-1.49387
-1.53653
-1.57926
-1.62206
-1.66494
-1.70789
-1.75089
-1.79396
-1.83709
-1.88027
-1.92348
-1.96675
-2.01006
-2.0534
-2.09676
-2.14015
-2.18355
-2.22696
-2.2704
-2.31382
-2.35726
-2.40068
-2.44408
-2.48747
-2.5308
-2.5741
-2.61735
-2.6605
-2.70355
-2.74648
-2.78924
-2.83176
-2.87398
-2.91587
-2.95732
-2.99838
-3.03928
-3.08014
-3.12094
4.16936
4.14902
4.12843
4.10775
4.08679
4.06529
4.04315
4.02028
3.99675
3.97262
3.94792
3.92273
3.89706
3.87096
3.84445
3.81754
3.79025
3.76262
3.73464
3.70635
3.67775
3.64885
3.61967
3.59023
3.56053
3.53059
3.5004
3.46998
3.43934
3.40849
3.37744
3.34619
3.31475
3.28313
3.25133
3.21936
3.18724
3.15496
3.12252
3.08994
3.05723
3.02438
2.9914
2.95829
2.92505
2.8917
2.85824
2.82466
2.79097
2.75718
2.72328
2.68928
2.65519
2.621
2.58672
2.55235
2.5179
2.48335
2.44873
2.41402
2.37924
2.34437
2.30944
2.27442
2.23934
2.20418
2.16896
2.13366
2.0983
2.06286
2.02736
1.99179
1.95616
1.92045
1.88468
1.84885
1.81295
1.77698
1.74096
1.70486
1.6687
1.63247
1.59618
1.55983
1.52341
1.48691
1.45037
1.41375
1.37706
1.34031
1.30349
1.26661
1.22966
1.19264
1.15555
1.1184
1.08117
1.04387
1.0065
0.969066
0.931549
0.893971
0.856309
0.818579
0.780771
0.742891
0.704933
0.666898
0.628782
0.590595
0.552316
0.51397
0.475531
0.437017
0.398424
0.359733
0.320969
0.282114
0.243183
0.204154
0.165042
0.125843
0.0865591
0.0471858
0.00772217
-0.0318252
-0.0714656
-0.111198
-0.151018
-0.19092
-0.230921
-0.271016
-0.311195
-0.351472
-0.391841
-0.432302
-0.47286
-0.513511
-0.554253
-0.595095
-0.636023
-0.677052
-0.718172
-0.759391
-0.800704
-0.842107
-0.883607
-0.925206
-0.96689
-1.00868
-1.05055
-1.09252
-1.13458
-1.17673
-1.21896
-1.26129
-1.3037
-1.34621
-1.38878
-1.43144
-1.47418
-1.517
-1.5599
-1.60286
-1.64589
-1.68898
-1.73213
-1.77534
-1.81859
-1.86189
-1.90523
-1.94861
-1.99202
-2.03547
-2.07893
-2.12239
-2.16588
-2.20937
-2.25287
-2.29635
-2.33984
-2.38329
-2.42674
-2.47014
-2.51351
-2.55682
-2.60007
-2.64324
-2.68631
-2.72924
-2.77203
-2.81458
-2.85689
-2.89886
-2.94041
-2.98163
-3.02256
-3.06337
-3.10446
-3.14536
4.18137
4.16114
4.14068
4.12011
4.09938
4.07824
4.05652
4.03411
4.011
3.98726
3.96293
3.93806
3.9127
3.88688
3.86063
3.83396
3.80691
3.77948
3.75169
3.72357
3.69513
3.66637
3.63732
3.60799
3.57839
3.54853
3.51842
3.48805
3.45746
3.42665
3.39561
3.36438
3.33294
3.3013
3.26948
3.23749
3.20531
3.17297
3.14047
3.10781
3.07501
3.04206
3.00897
2.97575
2.94239
2.9089
2.87529
2.84156
2.80771
2.77375
2.73967
2.70549
2.67119
2.6368
2.60232
2.56773
2.53304
2.49827
2.4634
2.42845
2.39341
2.35829
2.32308
2.2878
2.25243
2.21699
2.18147
2.14587
2.1102
2.07446
2.03864
2.00275
1.96679
1.93076
1.89465
1.85848
1.82223
1.78591
1.74953
1.71307
1.67655
1.63996
1.6033
1.56657
1.52977
1.4929
1.45596
1.41896
1.38188
1.34474
1.30752
1.27024
1.23288
1.19546
1.15796
1.12039
1.08275
1.04504
1.00726
0.969404
0.93147
0.893466
0.855385
0.81723
0.778997
0.740689
0.702302
0.663838
0.625294
0.586675
0.54797
0.509185
0.470321
0.431373
0.392346
0.35323
0.314034
0.274746
0.235384
0.195927
0.156392
0.11676
0.0770544
0.0372543
-0.00263478
-0.0425997
-0.0826628
-0.122814
-0.163047
-0.20337
-0.243783
-0.284281
-0.324875
-0.365552
-0.406328
-0.447186
-0.488144
-0.529184
-0.570316
-0.611542
-0.652855
-0.694258
-0.735756
-0.777336
-0.819017
-0.860786
-0.90263
-0.944573
-0.986611
-1.02873
-1.07094
-1.11323
-1.15561
-1.19807
-1.24061
-1.28324
-1.32595
-1.36872
-1.41158
-1.45451
-1.49751
-1.54058
-1.58371
-1.62691
-1.67016
-1.71346
-1.75681
-1.80022
-1.84365
-1.88712
-1.93062
-1.97416
-2.0177
-2.06128
-2.10485
-2.14843
-2.192
-2.23557
-2.27914
-2.32269
-2.36621
-2.4097
-2.45315
-2.49656
-2.5399
-2.58318
-2.62637
-2.66945
-2.71241
-2.75522
-2.79782
-2.84017
-2.88221
-2.92389
-2.96518
-3.00613
-3.04694
-3.08776
-3.12897
-3.17015
4.19316
4.17326
4.15295
4.13247
4.11194
4.09108
4.06977
4.04781
4.02515
4.00181
3.97787
3.95335
3.92831
3.90278
3.87681
3.8504
3.82358
3.79636
3.76878
3.74084
3.71256
3.68396
3.65505
3.62585
3.59636
3.56659
3.53655
3.50626
3.47573
3.44496
3.41396
3.38274
3.35131
3.31967
3.28784
3.25581
3.2236
3.19121
3.15865
3.12593
3.09305
3.06
3.02681
2.99348
2.95999
2.92637
2.89262
2.85874
2.82473
2.79061
2.75635
2.72199
2.6875
2.65291
2.61821
2.5834
2.54849
2.51349
2.47838
2.44318
2.40788
2.3725
2.33703
2.30146
2.26581
2.23008
2.19426
2.15836
2.12239
2.08633
2.05019
2.01398
1.97769
1.94131
1.90487
1.86834
1.83175
1.79508
1.75833
1.72151
1.68462
1.64765
1.61061
1.5735
1.53632
1.49905
1.46173
1.42432
1.38685
1.3493
1.31168
1.27398
1.23622
1.19838
1.16046
1.12248
1.08442
1.04628
1.00807
0.969784
0.931421
0.892986
0.854472
0.815879
0.777212
0.738465
0.699642
0.660736
0.621753
0.582691
0.543547
0.50432
0.465016
0.425625
0.386156
0.346596
0.306961
0.267238
0.227432
0.187534
0.14756
0.1075
0.0673527
0.0271174
-0.0131972
-0.053602
-0.0940891
-0.134667
-0.175325
-0.216073
-0.256908
-0.297826
-0.338828
-0.379925
-0.421108
-0.462372
-0.503725
-0.545169
-0.586699
-0.62831
-0.670008
-0.711796
-0.753669
-0.795626
-0.837673
-0.879801
-0.922009
-0.964308
-1.00669
-1.04914
-1.09169
-1.1343
-1.177
-1.21978
-1.26262
-1.30555
-1.34855
-1.3916
-1.43474
-1.47794
-1.52119
-1.56451
-1.60788
-1.6513
-1.69477
-1.73828
-1.78183
-1.82541
-1.86903
-1.91266
-1.95632
-1.99999
-2.04367
-2.08736
-2.13104
-2.17472
-2.21838
-2.26201
-2.30563
-2.34922
-2.39277
-2.43629
-2.47974
-2.52314
-2.56645
-2.60967
-2.65279
-2.69578
-2.73862
-2.78127
-2.82367
-2.86579
-2.90756
-2.94895
-2.98995
-3.03076
-3.07149
-3.11238
-3.15373
-3.19489
4.2048
4.1853
4.16517
4.14483
4.12445
4.10384
4.08287
4.06133
4.03911
4.01622
3.99267
3.96851
3.94381
3.9186
3.8929
3.86676
3.84019
3.81321
3.78584
3.7581
3.73
3.70156
3.67281
3.64374
3.61437
3.5847
3.55477
3.52456
3.4941
3.46339
3.43243
3.40124
3.36983
3.33819
3.30636
3.27432
3.24208
3.20964
3.17703
3.14424
3.11129
3.07816
3.04487
3.01143
2.97783
2.94409
2.9102
2.87617
2.84201
2.80772
2.7733
2.73875
2.70407
2.66928
2.63437
2.59935
2.56422
2.52897
2.49363
2.45818
2.42263
2.38698
2.35124
2.3154
2.27947
2.24344
2.20733
2.17113
2.13484
2.09846
2.062
2.02545
1.98883
1.95212
1.91532
1.87845
1.84149
1.80446
1.76735
1.73016
1.69289
1.65554
1.61812
1.58062
1.54304
1.50538
1.46765
1.42984
1.39196
1.354
1.31596
1.27785
1.23966
1.2014
1.16306
1.12464
1.08615
1.04758
1.00893
0.970212
0.931409
0.892533
0.853572
0.814539
0.775425
0.73623
0.69696
0.657603
0.618174
0.578657
0.539064
0.499385
0.459629
0.419785
0.379868
0.339856
0.299766
0.259595
0.21934
0.179
0.138575
0.0980688
0.0574742
0.0168034
-0.0239604
-0.0647969
-0.10573
-0.146734
-0.187826
-0.229008
-0.27027
-0.31161
-0.353039
-0.39455
-0.436146
-0.477824
-0.519586
-0.561429
-0.603358
-0.645369
-0.687457
-0.729634
-0.771881
-0.814219
-0.856635
-0.899125
-0.941697
-0.984348
-1.02708
-1.06988
-1.11275
-1.15569
-1.19871
-1.2418
-1.28495
-1.32817
-1.37145
-1.4148
-1.4582
-1.50166
-1.54517
-1.58873
-1.63233
-1.67598
-1.71966
-1.76338
-1.80711
-1.85088
-1.89466
-1.93846
-1.98226
-2.02606
-2.06985
-2.11364
-2.15742
-2.20119
-2.24491
-2.28861
-2.33227
-2.3759
-2.41947
-2.46297
-2.50641
-2.54977
-2.59304
-2.63619
-2.67923
-2.7221
-2.7648
-2.80727
-2.84947
-2.89132
-2.93281
-2.97393
-3.01474
-3.05541
-3.09614
-3.1371
-3.17862
-3.21977
4.21618
4.19711
4.17732
4.15714
4.13688
4.11646
4.09579
4.07463
4.05285
4.03038
4.00725
3.98348
3.95914
3.93425
3.90886
3.883
3.85669
3.82997
3.80282
3.7753
3.7474
3.71914
3.69054
3.66163
3.63239
3.60286
3.57303
3.54292
3.51254
3.48189
3.45099
3.41985
3.38846
3.35685
3.32501
3.29297
3.26071
3.22825
3.19559
3.16275
3.12972
3.09652
3.06314
3.0296
2.9959
2.96204
2.92801
2.89385
2.85954
2.82509
2.79049
2.75577
2.72091
2.68592
2.6508
2.61557
2.58021
2.54475
2.50916
2.47346
2.43766
2.40175
2.36573
2.32962
2.29339
2.25708
2.22067
2.18416
2.14755
2.11086
2.07407
2.03719
2.00022
1.96317
1.92603
1.8888
1.85148
1.81408
1.77659
1.73902
1.70137
1.66364
1.62582
1.58792
1.54994
1.51188
1.47374
1.43552
1.39722
1.35884
1.32038
1.28184
1.24322
1.20453
1.16575
1.1269
1.08796
1.04895
1.00986
0.970691
0.931438
0.89211
0.852697
0.813211
0.773634
0.733992
0.694253
0.654445
0.614552
0.574574
0.53452
0.494381
0.454163
0.413858
0.373475
0.333007
0.292458
0.251826
0.211108
0.17031
0.129433
0.0884691
0.0474232
0.00630039
-0.0349121
-0.0762008
-0.117574
-0.159022
-0.200559
-0.242171
-0.283868
-0.325643
-0.367499
-0.409437
-0.451451
-0.493544
-0.535726
-0.577973
-0.620307
-0.662711
-0.705203
-0.747765
-0.790404
-0.833113
-0.875905
-0.918759
-0.961693
-1.0047
-1.04777
-1.09091
-1.13412
-1.1774
-1.22073
-1.26412
-1.30759
-1.3511
-1.39467
-1.43829
-1.48197
-1.52568
-1.56945
-1.61324
-1.65707
-1.70094
-1.74483
-1.78873
-1.83266
-1.87659
-1.92054
-1.96447
-2.00841
-2.05234
-2.09625
-2.14013
-2.18399
-2.22782
-2.27162
-2.31535
-2.35905
-2.40268
-2.44625
-2.48974
-2.53316
-2.57646
-2.61966
-2.66272
-2.70564
-2.74838
-2.79091
-2.83318
-2.87513
-2.91673
-2.95794
-2.99882
-3.03947
-3.08009
-3.1209
-3.16198
-3.20344
-3.2446
4.2271
4.20868
4.18931
4.16938
4.14926
4.12897
4.10853
4.0877
4.06634
4.04431
4.02161
3.99825
3.97428
3.94974
3.92467
3.89912
3.8731
3.84662
3.81973
3.79243
3.76475
3.73669
3.70828
3.67953
3.65045
3.62104
3.59134
3.56134
3.53105
3.50049
3.46966
3.43857
3.40723
3.37564
3.34382
3.31178
3.27951
3.24703
3.21434
3.18145
3.14837
3.1151
3.08165
3.04801
3.01421
2.98023
2.94609
2.91179
2.87734
2.84273
2.80796
2.77306
2.73802
2.70284
2.66753
2.63209
2.59651
2.56081
2.52498
2.48905
2.45299
2.41681
2.38053
2.34413
2.30763
2.27101
2.2343
2.19748
2.16056
2.12354
2.08642
2.04921
2.01189
1.97449
1.93699
1.8994
1.86172
1.82394
1.78608
1.74812
1.71008
1.67195
1.63373
1.59543
1.55705
1.51857
1.48001
1.44137
1.40265
1.36383
1.32495
1.28597
1.24691
1.20778
1.16855
1.12925
1.08987
1.0504
1.01085
0.971223
0.931511
0.89172
0.851845
0.811889
0.771851
0.731734
0.691531
0.651249
0.610885
0.570436
0.529914
0.489296
0.44861
0.407833
0.366977
0.326035
0.285017
0.243917
0.202728
0.161466
0.120118
0.078689
0.0371814
-0.00440564
-0.0460717
-0.0878175
-0.129644
-0.171547
-0.213529
-0.25559
-0.297727
-0.33994
-0.382233
-0.424599
-0.467046
-0.509565
-0.552156
-0.594826
-0.637566
-0.680379
-0.723265
-0.766215
-0.809248
-0.852344
-0.895507
-0.938731
-0.982028
-1.02539
-1.0688
-1.11229
-1.15584
-1.19944
-1.24309
-1.2868
-1.33056
-1.37437
-1.41822
-1.46212
-1.50605
-1.55002
-1.59402
-1.63806
-1.68212
-1.72619
-1.77028
-1.81437
-1.85848
-1.90258
-1.94667
-1.99075
-2.03481
-2.07885
-2.12286
-2.16684
-2.21077
-2.25467
-2.2985
-2.34227
-2.38597
-2.42962
-2.47316
-2.51663
-2.55998
-2.60323
-2.64634
-2.68929
-2.73207
-2.77465
-2.81698
-2.85901
-2.90071
-2.94203
-2.98298
-3.02366
-3.06423
-3.10487
-3.14576
-3.18689
-3.22825
-3.26908
4.23755
4.2199
4.20107
4.18149
4.16154
4.1414
4.12115
4.10061
4.07961
4.05801
4.03574
4.01281
3.98924
3.96507
3.94036
3.91512
3.8894
3.86321
3.83658
3.80954
3.78208
3.75424
3.72602
3.69746
3.66854
3.63929
3.60972
3.57984
3.54966
3.51919
3.48844
3.45742
3.42613
3.39459
3.3628
3.33076
3.2985
3.26601
3.2333
3.20038
3.16724
3.13392
3.10039
3.06667
3.03277
2.99869
2.96443
2.93001
2.89541
2.86065
2.82574
2.79067
2.75545
2.72008
2.68456
2.64891
2.61312
2.57719
2.54113
2.50495
2.46863
2.43219
2.39563
2.35896
2.32217
2.28526
2.24824
2.21111
2.17387
2.13652
2.09907
2.06151
2.02386
1.98609
1.94823
1.91027
1.87222
1.83406
1.79581
1.75747
1.71902
1.6805
1.64187
1.60316
1.56436
1.52546
1.48648
1.4474
1.40824
1.369
1.32966
1.29024
1.25073
1.21114
1.17146
1.1317
1.09185
1.05193
1.01191
0.971811
0.931628
0.891363
0.85101
0.810581
0.770064
0.729464
0.688785
0.648017
0.607174
0.56624
0.525229
0.484135
0.442959
0.401701
0.360362
0.318936
0.277438
0.235852
0.194186
0.15245
0.110619
0.0687225
0.0267361
-0.0153226
-0.0574556
-0.0996691
-0.141955
-0.184323
-0.22676
-0.269277
-0.311864
-0.354524
-0.397262
-0.440067
-0.482947
-0.525894
-0.568912
-0.611998
-0.655154
-0.698378
-0.74167
-0.785018
-0.828436
-0.871918
-0.91546
-0.959057
-1.00273
-1.04644
-1.09021
-1.13403
-1.17791
-1.22184
-1.26582
-1.30982
-1.35389
-1.39799
-1.44212
-1.48629
-1.53048
-1.5747
-1.61895
-1.66321
-1.70748
-1.75176
-1.79603
-1.84032
-1.88459
-1.92884
-1.97308
-2.01729
-2.06147
-2.10563
-2.14972
-2.19377
-2.23777
-2.28171
-2.32558
-2.36937
-2.41309
-2.4567
-2.50023
-2.54363
-2.58693
-2.63009
-2.67309
-2.71592
-2.75853
-2.80092
-2.84304
-2.88481
-2.92623
-2.96729
-3.00801
-3.04855
-3.08906
-3.12974
-3.1707
-3.21176
-3.25297
-3.29333
4.24738
4.23067
4.21255
4.19342
4.17376
4.15375
4.13369
4.11338
4.09272
4.07152
4.04969
4.02719
4.00404
3.98027
3.95592
3.93103
3.90563
3.87974
3.8534
3.82661
3.7994
3.77179
3.74379
3.71542
3.68668
3.6576
3.62818
3.59844
3.56838
3.53802
3.50736
3.47642
3.44519
3.4137
3.38195
3.34994
3.31769
3.2852
3.25247
3.21952
3.18635
3.15298
3.11938
3.08559
3.05161
3.01743
2.98307
2.94851
2.91379
2.87888
2.84382
2.80858
2.77319
2.73763
2.70191
2.66605
2.63005
2.5939
2.5576
2.52117
2.4846
2.4479
2.41107
2.37411
2.33703
2.29983
2.2625
2.22506
2.18749
2.14981
2.11203
2.07412
2.03611
1.99799
1.95976
1.92143
1.88299
1.84445
1.80581
1.76707
1.72823
1.68928
1.65025
1.61111
1.57188
1.53255
1.49313
1.45362
1.41402
1.37432
1.33454
1.29466
1.25469
1.21463
1.17449
1.13425
1.09394
1.05353
1.01304
0.972455
0.93179
0.891037
0.850204
0.809277
0.768275
0.727183
0.686006
0.64475
0.603407
0.56198
0.520473
0.478884
0.437211
0.395457
0.353621
0.311704
0.269712
0.227631
0.185479
0.143243
0.100935
0.0585456
0.016084
-0.02646
-0.0690767
-0.111761
-0.154523
-0.197354
-0.240265
-0.283242
-0.326286
-0.369406
-0.412595
-0.455844
-0.499163
-0.542551
-0.585995
-0.629513
-0.673087
-0.716727
-0.760422
-0.804178
-0.847996
-0.891858
-0.935781
-0.979758
-1.02379
-1.06787
-1.11199
-1.15616
-1.20036
-1.24462
-1.28891
-1.33324
-1.37758
-1.42198
-1.46638
-1.51081
-1.55527
-1.59973
-1.64421
-1.68869
-1.73318
-1.77765
-1.82212
-1.86658
-1.911
-1.95541
-1.99978
-2.04411
-2.08841
-2.13264
-2.17683
-2.22094
-2.265
-2.30897
-2.35286
-2.39666
-2.44036
-2.48395
-2.52743
-2.57078
-2.61399
-2.65705
-2.69991
-2.7426
-2.78504
-2.8272
-2.86907
-2.91059
-2.95173
-2.99253
-3.03306
-3.07351
-3.114
-3.15477
-3.19568
-3.23663
-3.27745
-3.31718
4.25654
4.24089
4.22367
4.20514
4.18583
4.16607
4.14616
4.12606
4.10569
4.08486
4.06345
4.04139
4.01868
3.99532
3.97136
3.94683
3.92177
3.8962
3.87015
3.84364
3.8167
3.78934
3.76157
3.7334
3.70487
3.67596
3.64671
3.61711
3.58719
3.55695
3.5264
3.49555
3.4644
3.43298
3.40128
3.3693
3.33707
3.30459
3.27187
3.2389
3.20571
3.17228
3.13863
3.10478
3.07072
3.03644
3.00197
2.96731
2.93246
2.89742
2.8622
2.8268
2.79123
2.7555
2.7196
2.68353
2.64731
2.61094
2.57441
2.53773
2.50091
2.46394
2.42684
2.38961
2.35223
2.31472
2.27709
2.23933
2.20144
2.16343
2.12529
2.08704
2.04867
2.01019
1.97159
1.93288
1.89405
1.85512
1.81608
1.77693
1.73768
1.69832
1.65885
1.61929
1.57963
1.53986
1.5
1.46003
1.41998
1.37982
1.33957
1.29922
1.25878
1.21825
1.17763
1.13692
1.09611
1.05522
1.01423
0.973158
0.931999
0.890748
0.849411
0.80799
0.766478
0.724882
0.683204
0.641437
0.599589
0.557656
0.515639
0.473537
0.431364
0.389095
0.346756
0.304332
0.261829
0.219252
0.176592
0.133858
0.0910476
0.048163
0.00520429
-0.0378261
-0.0809299
-0.124108
-0.167349
-0.210661
-0.254045
-0.29749
-0.341008
-0.384591
-0.428231
-0.471941
-0.515705
-0.559536
-0.603428
-0.647371
-0.691369
-0.735433
-0.779537
-0.823702
-0.867916
-0.912174
-0.956479
-1.00084
-1.04523
-1.08967
-1.13414
-1.17865
-1.2232
-1.26778
-1.31238
-1.35701
-1.40166
-1.44633
-1.49101
-1.5357
-1.58041
-1.62512
-1.66982
-1.71451
-1.75919
-1.80386
-1.84851
-1.89314
-1.93772
-1.98225
-2.02676
-2.0712
-2.11559
-2.15991
-2.20415
-2.24833
-2.29241
-2.33642
-2.38031
-2.42411
-2.46778
-2.51134
-2.55475
-2.59803
-2.64114
-2.68407
-2.7268
-2.76931
-2.81154
-2.85349
-2.89508
-2.93631
-2.9772
-3.01779
-3.05818
-3.09856
-3.13909
-3.17982
-3.22069
-3.26136
-3.30159
-3.34058
4.26488
4.25051
4.23433
4.21654
4.19774
4.17827
4.15858
4.13866
4.11854
4.09804
4.07703
4.05541
4.03314
4.01021
3.98665
3.96251
3.9378
3.91257
3.88684
3.86063
3.83396
3.80686
3.77933
3.75139
3.72307
3.69436
3.66529
3.63586
3.60609
3.57598
3.54555
3.5148
3.48375
3.4524
3.42076
3.38884
3.35664
3.32419
3.29147
3.2585
3.22528
3.19183
3.15814
3.12423
3.09009
3.05573
3.02117
2.9864
2.95143
2.91626
2.8809
2.84535
2.80961
2.7737
2.73761
2.70134
2.66491
2.62831
2.59155
2.55463
2.51756
2.48033
2.44296
2.40544
2.36777
2.32996
2.29201
2.25393
2.21572
2.17737
2.13889
2.10028
2.06156
2.0227
1.98372
1.94463
1.90541
1.86608
1.82663
1.78707
1.74739
1.7076
1.66771
1.62771
1.5876
1.54738
1.50707
1.46664
1.42612
1.38549
1.34477
1.30395
1.26303
1.222
1.1809
1.13969
1.09839
1.05699
1.0155
0.973923
0.932255
0.890495
0.848646
0.806707
0.764683
0.722566
0.680373
0.638084
0.595717
0.553262
0.510725
0.468107
0.425402
0.382621
0.33976
0.296814
0.253799
0.2107
0.167531
0.124279
0.0809578
0.0375666
-0.00589794
-0.0494314
-0.0930375
-0.136704
-0.180445
-0.224247
-0.268111
-0.312042
-0.356031
-0.400086
-0.444195
-0.48836
-0.532586
-0.576864
-0.6212
-0.665583
-0.710017
-0.754493
-0.799024
-0.843596
-0.888207
-0.932866
-0.977559
-1.0223
-1.06706
-1.11185
-1.15669
-1.20154
-1.24641
-1.29131
-1.33623
-1.38116
-1.4261
-1.47106
-1.51601
-1.56096
-1.60591
-1.65085
-1.69578
-1.74068
-1.78555
-1.8304
-1.87522
-1.91999
-1.96472
-2.00939
-2.054
-2.09854
-2.14301
-2.1874
-2.2317
-2.27592
-2.32003
-2.36404
-2.40793
-2.4517
-2.49534
-2.53883
-2.58218
-2.62535
-2.66835
-2.71114
-2.75371
-2.79601
-2.83803
-2.87972
-2.92106
-2.96203
-3.00266
-3.04306
-3.08335
-3.12372
-3.16425
-3.20495
-3.2456
-3.28587
-3.32536
-3.36331
4.27241
4.25942
4.24442
4.22753
4.2094
4.19034
4.1709
4.15118
4.13129
4.11108
4.09045
4.06924
4.04741
4.02491
4.00179
3.97804
3.95371
3.92883
3.90343
3.87754
3.85117
3.82434
3.79708
3.76939
3.74129
3.71279
3.68391
3.65466
3.62505
3.5951
3.5648
3.53418
3.50323
3.47197
3.4404
3.40855
3.3764
3.34398
3.31128
3.27832
3.2451
3.21162
3.1779
3.14394
3.10974
3.0753
3.04066
3.00578
2.9707
2.9354
2.89991
2.8642
2.82831
2.79222
2.75594
2.71948
2.68284
2.64602
2.60904
2.57188
2.53455
2.49707
2.45942
2.42161
2.38366
2.34555
2.30729
2.26888
2.23034
2.19165
2.15282
2.11386
2.07476
2.03553
1.99617
1.95668
1.91706
1.87733
1.83746
1.79748
1.75738
1.71716
1.67683
1.63637
1.59581
1.55514
1.51435
1.47346
1.43246
1.39135
1.35015
1.30883
1.26742
1.2259
1.18429
1.14257
1.10076
1.05885
1.01685
0.974751
0.932563
0.890278
0.847906
0.805436
0.762886
0.720239
0.67751
0.634689
0.591792
0.548795
0.505731
0.462572
0.419338
0.376024
0.332627
0.289155
0.245607
0.201977
0.158282
0.114507
0.070667
0.026752
-0.0172309
-0.0612752
-0.105392
-0.149569
-0.19381
-0.23811
-0.282472
-0.326891
-0.371372
-0.415899
-0.46048
-0.505119
-0.549809
-0.594544
-0.639322
-0.68415
-0.729022
-0.77393
-0.81888
-0.863871
-0.908886
-0.953939
-0.999024
-1.04414
-1.08927
-1.13444
-1.17961
-1.22481
-1.27002
-1.31524
-1.36046
-1.4057
-1.45093
-1.49616
-1.54138
-1.58658
-1.63177
-1.67694
-1.72207
-1.76718
-1.81225
-1.85727
-1.90223
-1.94715
-1.99201
-2.0368
-2.08151
-2.12613
-2.17068
-2.21512
-2.25947
-2.30371
-2.34783
-2.39183
-2.4357
-2.47942
-2.523
-2.56643
-2.60967
-2.65273
-2.69559
-2.73822
-2.78061
-2.8227
-2.86447
-2.9059
-2.94696
-2.98768
-3.0281
-3.06836
-3.10859
-3.14895
-3.18943
-3.23003
-3.27032
-3.31
-3.34863
-3.38541
4.27905
4.26752
4.25384
4.23803
4.2207
4.2022
4.1831
4.16362
4.14394
4.124
4.1037
4.08289
4.06149
4.03944
4.01674
3.99341
3.96948
3.94498
3.91993
3.89437
3.86831
3.84178
3.8148
3.78737
3.75951
3.73124
3.70258
3.67352
3.64409
3.61431
3.58416
3.55366
3.52284
3.49168
3.46021
3.42843
3.39635
3.36397
3.3313
3.29836
3.26514
3.23165
3.19791
3.16391
3.12965
3.09516
3.06043
3.02546
2.99028
2.95486
2.91923
2.88339
2.84734
2.81108
2.77462
2.73797
2.70113
2.6641
2.62688
2.58948
2.55191
2.51416
2.47624
2.43815
2.3999
2.36149
2.32292
2.28419
2.24531
2.20627
2.16709
2.12777
2.0883
2.04869
2.00894
1.96905
1.92903
1.88888
1.84859
1.80819
1.76765
1.72698
1.6862
1.64529
1.60427
1.56312
1.52186
1.48049
1.439
1.39741
1.3557
1.31388
1.27196
1.22994
1.1878
1.14557
1.10324
1.06081
1.01828
0.975645
0.932924
0.890101
0.847186
0.804181
0.761082
0.717897
0.674618
0.631254
0.587805
0.544266
0.500646
0.456947
0.413159
0.369301
0.325357
0.281338
0.237249
0.193077
0.148843
0.104529
0.0601522
0.0157132
-0.0288015
-0.0733725
-0.118007
-0.162702
-0.207456
-0.252268
-0.297134
-0.342055
-0.387025
-0.432046
-0.477111
-0.522226
-0.567382
-0.612582
-0.657821
-0.703093
-0.748407
-0.793753
-0.839126
-0.884535
-0.929965
-0.975416
-1.02089
-1.06638
-1.11189
-1.15742
-1.20294
-1.24849
-1.29402
-1.33957
-1.3851
-1.43063
-1.47614
-1.52165
-1.56713
-1.61258
-1.658
-1.70338
-1.74873
-1.79402
-1.83928
-1.88446
-1.92958
-1.97463
-2.0196
-2.0645
-2.10929
-2.154
-2.1986
-2.24308
-2.28745
-2.3317
-2.37582
-2.41979
-2.46362
-2.50729
-2.5508
-2.59412
-2.63725
-2.68018
-2.72288
-2.76532
-2.80749
-2.84935
-2.89088
-2.93203
-2.97283
-3.0133
-3.05355
-3.09371
-3.13389
-3.17421
-3.21464
-3.25495
-3.29475
-3.33364
-3.37123
-3.40682
4.28478
4.27479
4.26253
4.24792
4.23155
4.21374
4.19512
4.17594
4.1565
4.1368
4.1168
4.09637
4.07538
4.05377
4.03152
4.00862
3.9851
3.96099
3.93632
3.91111
3.88538
3.85917
3.83248
3.80532
3.77773
3.74971
3.72127
3.69243
3.6632
3.63359
3.60361
3.57327
3.54257
3.51154
3.48017
3.44848
3.41647
3.38415
3.35153
3.31862
3.28541
3.25193
3.21817
3.18414
3.14985
3.1153
3.0805
3.04545
3.01017
2.97464
2.93889
2.90291
2.8667
2.83029
2.79366
2.75681
2.71977
2.68252
2.64509
2.60745
2.56963
2.53162
2.49343
2.45506
2.41651
2.3778
2.33891
2.29985
2.26063
2.22125
2.18172
2.14202
2.10218
2.06218
2.02204
1.98176
1.94132
1.90075
1.86004
1.81919
1.77821
1.73709
1.69585
1.65448
1.61297
1.57136
1.52961
1.48775
1.44576
1.40366
1.36144
1.31911
1.27667
1.23412
1.19147
1.1487
1.10583
1.06286
1.01979
0.976607
0.933339
0.889961
0.8465
0.802935
0.759277
0.715531
0.671698
0.627769
0.583758
0.539658
0.495476
0.451214
0.406865
0.362445
0.31794
0.273368
0.22871
0.183995
0.139203
0.0943456
0.0494168
0.00443274
-0.0406234
-0.0857261
-0.130902
-0.176119
-0.221399
-0.266728
-0.312109
-0.357541
-0.40301
-0.448526
-0.494087
-0.539685
-0.585322
-0.630986
-0.676692
-0.722423
-0.768182
-0.813968
-0.859776
-0.905602
-0.951439
-0.997301
-1.04317
-1.08905
-1.13493
-1.18081
-1.2267
-1.27258
-1.31844
-1.36431
-1.41014
-1.45596
-1.50176
-1.54753
-1.59327
-1.63896
-1.68461
-1.7302
-1.77575
-1.82123
-1.86664
-1.91198
-1.95724
-2.00241
-2.0475
-2.09248
-2.13736
-2.18212
-2.22677
-2.27128
-2.31566
-2.3599
-2.40399
-2.44793
-2.4917
-2.5353
-2.5787
-2.62191
-2.66492
-2.70769
-2.75019
-2.79243
-2.83437
-2.87599
-2.91723
-2.95812
-2.99866
-3.03892
-3.07902
-3.1191
-3.15924
-3.19949
-3.23968
-3.27964
-3.3188
-3.35677
-3.39316
-3.42736
4.2896
4.28117
4.27038
4.25712
4.24185
4.2249
4.20688
4.1881
4.16893
4.14949
4.12978
4.10967
4.08909
4.06791
4.0461
4.02365
4.00056
3.97687
3.95259
3.92775
3.90237
3.87649
3.85011
3.82326
3.79594
3.76819
3.73999
3.71138
3.68237
3.65295
3.62315
3.59298
3.56244
3.53154
3.50029
3.4687
3.43678
3.40454
3.37197
3.3391
3.30592
3.27245
3.23869
3.20464
3.17032
3.13572
3.10086
3.06574
3.03037
2.99474
2.95888
2.92277
2.88642
2.84985
2.81304
2.77602
2.73878
2.70132
2.66367
2.6258
2.58773
2.54946
2.51099
2.47234
2.43351
2.39448
2.35527
2.31589
2.27634
2.23661
2.19671
2.15665
2.11642
2.07604
2.03549
1.9948
1.95394
1.91294
1.8718
1.8305
1.78907
1.7475
1.70578
1.66394
1.62195
1.57984
1.5376
1.49523
1.45274
1.41011
1.36738
1.32452
1.28155
1.23847
1.19527
1.15195
1.10854
1.06501
1.02138
0.977641
0.93381
0.889867
0.845832
0.801701
0.757473
0.71315
0.668739
0.624236
0.579647
0.53497
0.490216
0.445367
0.40045
0.355447
0.310373
0.265224
0.220001
0.174716
0.12935
0.0839358
0.0384497
-0.00709797
-0.0526975
-0.0983562
-0.144073
-0.189835
-0.235647
-0.281508
-0.327417
-0.373358
-0.419347
-0.465369
-0.511426
-0.557517
-0.603636
-0.649788
-0.695957
-0.742147
-0.788359
-0.834594
-0.880832
-0.927088
-0.973342
-1.01961
-1.06587
-1.11213
-1.15839
-1.20464
-1.25088
-1.2971
-1.34329
-1.38946
-1.4356
-1.48172
-1.52778
-1.57382
-1.6198
-1.66573
-1.7116
-1.7574
-1.80314
-1.8488
-1.89437
-1.93986
-1.98524
-2.03053
-2.07571
-2.12077
-2.16571
-2.21052
-2.25519
-2.29972
-2.3441
-2.38832
-2.43238
-2.47625
-2.51995
-2.56345
-2.60675
-2.64982
-2.69266
-2.73525
-2.77756
-2.81957
-2.86126
-2.90259
-2.94357
-2.98418
-3.02448
-3.06457
-3.10454
-3.14454
-3.18461
-3.22471
-3.2646
-3.30398
-3.34235
-3.37921
-3.41437
-3.44715
4.29355
4.28662
4.27736
4.26553
4.25151
4.23556
4.2183
4.20003
4.18123
4.16206
4.14262
4.12284
4.10262
4.08187
4.0605
4.0385
4.01586
3.99259
3.96872
3.94427
3.91927
3.89373
3.86769
3.84115
3.81414
3.78666
3.75873
3.73037
3.70158
3.67238
3.64278
3.61279
3.58241
3.55167
3.52055
3.48908
3.45727
3.42511
3.39262
3.3598
3.32666
3.29321
3.25946
3.22541
3.19107
3.15644
3.12153
3.08634
3.05089
3.01517
2.97919
2.94296
2.90648
2.86975
2.83279
2.79559
2.75816
2.7205
2.68262
2.64452
2.60621
2.56768
2.52896
2.49002
2.45089
2.41156
2.37203
2.33232
2.29242
2.25234
2.21208
2.17164
2.13103
2.09025
2.0493
2.00819
1.96692
1.92548
1.88389
1.84214
1.80025
1.7582
1.71601
1.67367
1.6312
1.58858
1.54583
1.50295
1.45993
1.41679
1.37352
1.33012
1.28661
1.24296
1.19921
1.15534
1.11136
1.06726
1.02306
0.978748
0.934337
0.889815
0.845196
0.800475
0.755663
0.710748
0.665749
0.620651
0.575471
0.5302
0.484848
0.439416
0.393901
0.348312
0.302648
0.256909
0.211106
0.165231
0.119291
0.0732938
0.0272351
-0.0188793
-0.0650475
-0.111271
-0.157538
-0.203851
-0.250213
-0.296617
-0.343055
-0.389531
-0.436036
-0.482579
-0.529144
-0.575736
-0.622348
-0.668982
-0.715627
-0.76229
-0.808958
-0.855632
-0.90232
-0.948993
-0.995679
-1.04235
-1.08901
-1.13566
-1.18229
-1.2289
-1.27549
-1.32204
-1.36857
-1.41505
-1.46149
-1.50788
-1.55423
-1.60051
-1.64674
-1.6929
-1.73898
-1.78498
-1.8309
-1.87672
-1.92245
-1.96807
-2.01357
-2.05896
-2.10423
-2.14935
-2.19434
-2.23919
-2.28387
-2.3284
-2.37276
-2.41695
-2.46094
-2.50474
-2.54834
-2.59174
-2.63489
-2.67781
-2.72048
-2.76286
-2.80495
-2.84672
-2.88814
-2.92919
-2.96989
-3.01024
-3.05033
-3.09025
-3.13011
-3.17004
-3.20995
-3.24982
-3.28923
-3.32792
-3.3653
-3.40097
-3.43475
-3.46616
4.29666
4.29119
4.28343
4.27309
4.26043
4.24565
4.22928
4.21167
4.19332
4.17449
4.15534
4.13586
4.116
4.09564
4.07472
4.05317
4.03098
4.00816
3.98472
3.96067
3.93606
3.9109
3.88521
3.859
3.8323
3.80512
3.77748
3.74938
3.72084
3.69188
3.66249
3.63269
3.6025
3.57192
3.54095
3.50962
3.47792
3.44586