/*--------------------------------*- C++ -*----------------------------------*\
  =========                 |
  \\      /  F ield         | OpenFOAM: The Open Source CFD Toolbox
   \\    /   O peration     | Website:  https://openfoam.org
    \\  /    A nd           | Version:  8
     \\/     M anipulation  |
\*---------------------------------------------------------------------------*/
FoamFile
{
    version     2.0;
    format      ascii;
    class       surfaceScalarField;
    location    "0.11";
    object      phi;
}
// * * * * * * * * * * * * * * * * * * * * * * * * * * * * * * * * * * * * * //

dimensions      [0 3 -1 0 0 0 0];

internalField   nonuniform List<scalar> 
225079
(
-0.00359676
0.0263957
-0.0083874
0.0707894
-0.0119808
0.115192
-0.0167776
0.159596
-0.0215764
0.203998
-0.0251767
0.2484
-0.0287772
0.2916
-0.0323776
0.336
-0.0359777
0.3792
-0.0395775
0.4248
-0.0419772
0.466799
-0.0455767
0.511199
-0.0491761
0.555599
-0.0527754
0.597599
-0.0539746
0.640799
-0.0575736
0.685199
-0.0611725
0.727199
-0.0635713
0.770399
-0.0659701
0.812399
-0.0671688
0.854399
-0.0707673
0.897598
-0.0719659
0.938399
-0.0743644
0.980398
-0.0755628
1.0224
-0.0779611
1.0632
-0.0791595
1.104
-0.0815577
1.146
-0.0827561
1.1844
-0.0839544
1.2252
-0.0863525
1.266
-0.0875509
1.3044
-0.0887491
1.344
-0.0899474
1.3824
-0.0899458
1.4208
-0.0911441
1.4592
-0.0911424
1.4964
-0.0923407
1.5348
-0.0935389
1.572
-0.0935372
1.608
-0.0947355
1.644
-0.0947339
1.68
-0.0947322
1.716
-0.0947306
1.7496
-0.0947289
1.7856
-0.0947272
1.8192
-0.0947256
1.8528
-0.0947239
1.8864
-0.0935224
1.9188
-0.0935208
1.9512
-0.0935192
1.9836
-0.0923177
2.0136
-0.0923161
2.046
-0.0911146
2.0748
-0.0905131
2.10564
-0.0896716
2.13468
-0.0887102
2.16336
-0.0877487
2.19168
-0.0867874
2.2194
-0.085586
2.24652
-0.0843846
2.27304
-0.0831833
2.2992
-0.081862
2.32464
-0.0804207
2.34948
-0.0789795
2.37384
-0.0775381
2.3976
-0.075977
2.42076
-0.0742957
2.4432
-0.0727345
2.46528
-0.0710533
2.48664
-0.0692523
2.50728
-0.0674511
2.52744
-0.0655301
2.54688
-0.0636091
2.56572
-0.061568
2.58396
-0.059527
2.6016
-0.0576061
2.61864
-0.0554451
2.63484
-0.0532841
2.65044
-0.0511233
2.66556
-0.0488425
2.67984
-0.0466816
2.69364
-0.0445208
2.7066
-0.04212
2.71884
-0.0398393
2.73072
-0.0374386
2.74164
-0.0350379
2.75196
-0.0326372
2.76168
-0.0302366
2.77068
-0.027836
2.77896
-0.0253154
2.78652
-0.0227948
2.79348
-0.0202743
2.79972
-0.0177538
2.80536
-0.0151134
2.81004
-0.012713
2.81436
-0.0101326
2.8178
-0.00757631
2.82058
-0.00500792
2.82266
-0.00243975
2.82404
0.000128618
2.82475
0.00269674
2.82475
0.00526506
2.82404
0.00783316
2.82266
0.0103893
2.82058
0.0129694
2.8178
0.0153695
2.81436
0.0180096
2.81004
0.0205296
2.80536
0.0230496
2.79972
0.0255694
2.79348
0.0280893
2.78652
0.0304892
2.77896
0.0328891
2.77068
0.0352889
2.76168
0.0376886
2.75196
0.0400884
2.74164
0.0423682
2.73072
0.0447678
2.71884
0.0469274
2.7066
0.049087
2.69364
0.0513667
2.67984
0.0535262
2.66556
0.0556857
2.65044
0.0578451
2.63484
0.0597647
2.61864
0.061804
2.6016
0.0638433
2.58396
0.0657627
2.56572
0.067682
2.54688
0.0694812
2.52744
0.0712805
2.50728
0.0729597
2.48664
0.0745188
2.46528
0.0761979
2.4432
0.0777571
2.42076
0.079196
2.3976
0.0806351
2.37384
0.0820741
2.34948
0.083393
2.32464
0.084592
2.2992
0.0857909
2.27304
0.0869897
2.24652
0.0879486
2.2194
0.0889073
2.19168
0.0898661
2.16336
0.0907049
2.13468
0.0913035
2.10564
0.0925022
2.0748
0.0925008
2.046
0.0936994
2.0136
0.093698
1.9836
0.0936966
1.9512
0.0948952
1.9188
0.0948936
1.8864
0.094892
1.8528
0.0948905
1.8192
0.0948889
1.7856
0.0948874
1.7496
0.0948857
1.716
0.0948842
1.68
0.0936825
1.644
0.0936808
1.608
0.0924789
1.572
0.0912772
1.5348
0.0912756
1.4964
0.0900738
1.4592
0.0900721
1.4208
0.0888703
1.3824
0.0876684
1.344
0.0864667
1.3044
0.0840646
1.266
0.0828628
1.2252
0.0816609
1.1844
0.0792589
1.146
0.078057
1.104
0.075655
1.0632
0.0744531
1.0224
0.0720512
0.980402
0.0708494
0.938402
0.0672474
0.897602
0.0660457
0.854402
0.063644
0.812401
0.0612424
0.770401
0.0576409
0.727201
0.0540396
0.685201
0.0528387
0.640801
0.0492379
0.597601
0.0456374
0.5556
0.0420373
0.5112
0.0396378
0.466799
0.0360386
0.424799
0.0324402
0.379198
0.0288425
0.335997
0.0252456
0.291597
0.0216493
0.248396
0.0168525
0.203997
0.0120522
0.1596
0.00844336
0.115209
0.00362743
0.0708155
0.0264277
-0.00479531
0.0311899
-0.00958444
0.0755774
-0.0131764
0.118783
-0.0179712
0.16439
-0.0215666
0.207593
-0.0239638
0.250796
-0.028761
0.296397
-0.0323583
0.339597
-0.0359554
0.382797
-0.0395522
0.428396
-0.0431489
0.470396
-0.0467455
0.514796
-0.0479422
0.556796
-0.0515384
0.601195
-0.0551345
0.644395
-0.0575305
0.687595
-0.0599263
0.729595
-0.062322
0.772794
-0.0647176
0.814794
-0.0683128
0.857994
-0.0695082
0.898794
-0.0731032
0.941993
-0.0742984
0.981594
-0.0766933
1.02479
-0.0778884
1.06439
-0.0802831
1.10639
-0.081478
1.14719
-0.0838727
1.18679
-0.0850675
1.22639
-0.0850624
1.26599
-0.0862572
1.30559
-0.087452
1.34519
-0.0886466
1.38359
-0.0898414
1.42199
-0.0910361
1.46039
-0.0922309
1.49759
-0.0922258
1.53479
-0.0922207
1.57199
-0.0934155
1.60919
-0.0934104
1.64399
-0.0946051
1.68119
-0.0934002
1.71479
-0.094595
1.75079
-0.0945901
1.78559
-0.094585
1.81919
-0.0945801
1.85279
-0.0945752
1.88639
-0.0933706
1.91759
-0.0933656
1.95119
-0.092161
1.98239
-0.0933559
2.01479
-0.0909517
2.04359
-0.090947
2.07479
-0.0903424
2.10503
-0.0894979
2.13383
-0.0886535
2.16251
-0.0875691
2.19059
-0.086485
2.21831
-0.0854007
2.24543
-0.0843166
2.27195
-0.0829925
2.29787
-0.0816685
2.32331
-0.0802245
2.34803
-0.0789007
2.37251
-0.0773371
2.39603
-0.0757732
2.41919
-0.0742095
2.44163
-0.0725261
2.4636
-0.0707225
2.48483
-0.0689191
2.50548
-0.0671159
2.52564
-0.0651923
2.54496
-0.0633892
2.56392
-0.0614662
2.58204
-0.0594232
2.59956
-0.0572601
2.61648
-0.0552172
2.6328
-0.0531744
2.6484
-0.0508917
2.66328
-0.0487291
2.67768
-0.0464466
2.69136
-0.0441643
2.70432
-0.0418818
2.71656
-0.0394797
2.72832
-0.0371974
2.73936
-0.0347954
2.74956
-0.0323934
2.75928
-0.0298713
2.76816
-0.0274698
2.77656
-0.0250678
2.78412
-0.0225463
2.79096
-0.0200247
2.7972
-0.0175035
2.80284
-0.0149821
2.80752
-0.0124607
2.81184
-0.00986736
2.81521
-0.00731038
2.81802
-0.00474143
2.82009
-0.00218468
2.82149
0.000384154
2.82218
0.00295278
2.82218
0.0055095
2.82149
0.00807801
2.8201
0.0106345
2.81802
0.0132266
2.81521
0.0157467
2.81184
0.0182667
2.80752
0.0207869
2.80284
0.0233068
2.7972
0.0258268
2.79096
0.0282262
2.78412
0.0306261
2.77656
0.0331454
2.76816
0.0355448
2.75928
0.0379442
2.74956
0.0402233
2.73936
0.0426225
2.72832
0.0449014
2.71656
0.0471805
2.70432
0.0494592
2.69136
0.0516179
2.67768
0.0538965
2.66328
0.0559349
2.6484
0.0579733
2.6328
0.0601314
2.61648
0.0621696
2.59956
0.0640877
2.58204
0.0658858
2.56392
0.0678033
2.54496
0.0696012
2.52564
0.0713988
2.50548
0.0731963
2.48484
0.0748739
2.4636
0.0764312
2.44164
0.0779882
2.4192
0.0795455
2.39604
0.0808626
2.37252
0.0822994
2.34804
0.0836163
2.32332
0.0849329
2.29788
0.0860096
2.27196
0.087086
2.24544
0.0881626
2.21832
0.0892389
2.1906
0.0900751
2.16252
0.0909112
2.13384
0.0915072
2.10505
0.091503
2.07481
0.0938993
2.0436
0.0926947
2.01481
0.0938905
1.98241
0.0938859
1.95121
0.0950816
1.91761
0.095077
1.88641
0.0950724
1.85281
0.0950675
1.81921
0.0950628
1.78561
0.0938576
1.75081
0.0950528
1.71481
0.0938475
1.68121
0.0938424
1.64401
0.0926371
1.60921
0.0926318
1.57201
0.0926266
1.53481
0.0914211
1.49761
0.0902155
1.46041
0.0890099
1.42201
0.0878041
1.38361
0.0865984
1.34521
0.0853927
1.30561
0.0853871
1.26601
0.0841811
1.22641
0.0817751
1.18681
0.0805692
1.14721
0.0781629
1.10641
0.0769571
1.06441
0.074551
1.02481
0.0733451
0.981607
0.0697387
0.942008
0.068533
0.898807
0.0649269
0.858007
0.0625213
0.814807
0.0601157
0.772807
0.0577103
0.729606
0.0553053
0.687606
0.0517004
0.644405
0.0480958
0.601205
0.0468921
0.556804
0.0432885
0.514803
0.0396854
0.470402
0.0360827
0.428401
0.032481
0.3828
0.0288801
0.339598
0.0240796
0.296397
0.0216801
0.250795
0.0180799
0.207596
0.0132775
0.164402
0.00967208
0.118813
0.00484264
0.0756441
0.0312687
-0.00479329
0.0359819
-0.00838187
0.0791646
-0.0131709
0.123571
-0.0167625
0.167981
-0.0203541
0.211184
-0.025148
0.25559
-0.0287424
0.299991
-0.0323371
0.343191
-0.0359317
0.386391
-0.0383263
0.43079
-0.0431202
0.47519
-0.0455143
0.517189
-0.0491081
0.560389
-0.0527015
0.604788
-0.055095
0.646788
-0.0574882
0.689988
-0.0610809
0.733187
-0.0634737
0.775187
-0.0658661
0.817187
-0.0670587
0.859186
-0.0706505
0.902385
-0.0718426
0.943186
-0.0754341
0.985185
-0.0766259
1.02598
-0.0790172
1.06678
-0.0802088
1.10758
-0.0814002
1.14838
-0.0825916
1.18798
-0.083783
1.22758
-0.086174
1.26838
-0.0873652
1.30678
-0.0885564
1.34638
-0.0897475
1.38478
-0.0909389
1.42318
-0.0909301
1.46038
-0.0921213
1.49878
-0.0921128
1.53478
-0.0933039
1.57318
-0.0932953
1.60918
-0.0944866
1.64518
-0.0932783
1.67998
-0.0944697
1.71598
-0.0944612
1.75078
-0.0944524
1.78558
-0.0944444
1.81918
-0.0944359
1.85278
-0.0932279
1.88519
-0.0944193
1.91879
-0.0932115
1.94999
-0.0932034
1.98239
-0.0919956
2.01359
-0.0919874
2.04359
-0.0919798
2.07479
-0.0901723
2.10323
-0.0893245
2.13299
-0.0883572
2.16155
-0.0873901
2.18963
-0.0864225
2.21735
-0.0852155
2.24423
-0.0840084
2.27075
-0.0826817
2.29655
-0.081355
2.32199
-0.0801484
2.34683
-0.0785816
2.37095
-0.0771353
2.39459
-0.075569
2.41763
-0.0738831
2.43995
-0.0721967
2.46191
-0.070511
2.48315
-0.0688251
2.50379
-0.0668993
2.52371
-0.0650939
2.54315
-0.0630483
2.56187
-0.0611232
2.58011
-0.0591982
2.59763
-0.0571529
2.61443
-0.054988
2.63063
-0.0528237
2.64623
-0.0506587
2.66111
-0.0484947
2.67551
-0.0462103
2.68907
-0.0439261
2.70203
-0.0416419
2.71427
-0.0393583
2.72603
-0.0369547
2.73695
-0.034551
2.74715
-0.0321476
2.75687
-0.0297444
2.76575
-0.0272211
2.77403
-0.0246984
2.78159
-0.0222957
2.78855
-0.019773
2.79467
-0.0172504
2.80032
-0.014728
2.805
-0.012206
2.80932
-0.00962418
2.81263
-0.00706654
2.81546
-0.00449699
2.81752
-0.00192724
2.81892
0.000642113
2.81961
0.00321123
2.81961
0.00577996
2.81892
0.00834888
2.81753
0.0109057
2.81546
0.0134863
2.81263
0.0160068
2.80932
0.0185268
2.805
0.0210467
2.80032
0.0235664
2.79468
0.0259661
2.78856
0.0284859
2.7816
0.0310049
2.77404
0.033404
2.76576
0.0358031
2.75688
0.0382017
2.74716
0.0406005
2.73696
0.0428792
2.72604
0.0451572
2.71428
0.0474353
2.70204
0.0497131
2.68908
0.0518712
2.67552
0.0540284
2.66112
0.0561862
2.64624
0.0583435
2.63064
0.0603802
2.61445
0.0622971
2.59764
0.0642139
2.58013
0.0662503
2.56189
0.0680467
2.54317
0.0699628
2.52373
0.0716387
2.50381
0.0733147
2.48317
0.07499
2.46193
0.0766658
2.43997
0.078221
2.41765
0.0796562
2.39461
0.0812109
2.37097
0.0824057
2.34685
0.0837205
2.32201
0.0850351
2.29657
0.0862292
2.27077
0.0874235
2.24425
0.0883769
2.21737
0.0893309
2.18965
0.0902848
2.16157
0.0911179
2.13301
0.0929114
2.10325
0.0929046
2.07481
0.0928972
2.04361
0.0940902
2.01361
0.0940828
1.98241
0.0952756
1.95001
0.0940674
1.91881
0.0952599
1.88521
0.0952518
1.85281
0.0952441
1.81921
0.0952355
1.78561
0.0952271
1.75081
0.0940185
1.71601
0.0952103
1.68001
0.0940015
1.64522
0.0939927
1.60922
0.0927834
1.57322
0.0927746
1.53482
0.0915652
1.49882
0.0915559
1.46042
0.0903465
1.42322
0.0891369
1.38482
0.0879272
1.34642
0.0867173
1.30682
0.0843071
1.26842
0.0830972
1.22762
0.0818874
1.18802
0.0806773
1.14842
0.0794673
1.10762
0.0770568
1.06682
0.0758468
1.02602
0.0722362
0.985218
0.0710264
0.943217
0.0674159
0.902418
0.0662065
0.859217
0.0637968
0.817216
0.0613875
0.775216
0.0577781
0.733216
0.0553696
0.690014
0.0529614
0.646813
0.0493533
0.604813
0.045746
0.560411
0.0433394
0.51721
0.038533
0.475209
0.0361279
0.430806
0.0325235
0.386404
0.02892
0.343202
0.0253169
0.3
0.0205136
0.255598
0.0169089
0.211201
0.0133003
0.16801
0.00848713
0.123626
0.00483404
0.0792968
0.0361036
-0.00359535
0.0395762
-0.0083819
0.08395
-0.0131704
0.128358
-0.0167593
0.171569
-0.0215474
0.215971
-0.0251381
0.25918
-0.0287294
0.303581
-0.0323213
0.346783
-0.0359133
0.389982
-0.039505
0.434382
-0.0418967
0.477581
-0.0454879
0.52078
-0.0490787
0.56398
-0.0514695
0.607179
-0.0550597
0.650378
-0.0574498
0.692378
-0.0598398
0.735577
-0.0622294
0.777576
-0.0658184
0.820775
-0.0682074
0.861575
-0.0693966
0.903575
-0.071785
0.945574
-0.0741731
0.987573
-0.0753615
1.02717
-0.0777494
1.06917
-0.0789376
1.10877
-0.0813252
1.15077
-0.082513
1.18917
-0.0849004
1.22997
-0.0860881
1.26957
-0.0872758
1.30797
-0.0872635
1.34637
-0.0884513
1.38597
-0.0896386
1.42437
-0.0908261
1.46157
-0.090814
1.49877
-0.0932011
1.53717
-0.0931889
1.57317
-0.0931767
1.60917
-0.0931646
1.64517
-0.0943521
1.68117
-0.0943403
1.71597
-0.0943285
1.75077
-0.0943164
1.78557
-0.0943044
1.81917
-0.0942927
1.85277
-0.0942808
1.88517
-0.0930695
1.91757
-0.093058
1.94997
-0.0930463
1.98237
-0.0918356
2.01237
-0.0918243
2.04357
-0.0906131
2.07357
-0.0900021
2.10262
-0.0891517
2.13214
-0.0881811
2.16058
-0.0873305
2.18878
-0.0861205
2.21614
-0.0850302
2.24314
-0.0838205
2.26954
-0.0826104
2.29534
-0.0812806
2.32066
-0.0798312
2.34538
-0.0783824
2.3695
-0.0769329
2.39314
-0.0752439
2.41594
-0.0737951
2.4385
-0.0721068
2.46022
-0.0702979
2.48134
-0.0684895
2.50198
-0.0666817
2.5219
-0.064874
2.54134
-0.062946
2.55994
-0.0608988
2.57806
-0.0588511
2.59558
-0.0568045
2.61238
-0.0547571
2.62858
-0.0525905
2.64406
-0.0505444
2.65906
-0.0482576
2.67323
-0.0459713
2.68679
-0.0436858
2.69975
-0.0415203
2.71211
-0.0391147
2.72363
-0.0367092
2.73455
-0.0343043
2.74475
-0.0318996
2.75447
-0.029495
2.76335
-0.0269707
2.77151
-0.0245665
2.77919
-0.0220425
2.78603
-0.0195186
2.79215
-0.016995
2.79779
-0.014472
2.80247
-0.0118287
2.80667
-0.00936616
2.81017
-0.00679527
2.81289
-0.00423709
2.81497
-0.00166706
2.81635
0.000902838
2.81704
0.00347246
2.81704
0.00604194
2.81635
0.00859926
2.81497
0.0111679
2.81289
0.0136288
2.81017
0.016269
2.80668
0.0187895
2.80248
0.0213093
2.7978
0.0238289
2.79216
0.0263483
2.78604
0.0287475
2.7792
0.0312666
2.77152
0.0336654
2.76336
0.036064
2.75448
0.0384625
2.74476
0.0408602
2.73456
0.0432578
2.72364
0.0454156
2.71213
0.0476933
2.69977
0.0499702
2.68681
0.0522464
2.67325
0.0542834
2.65909
0.0564397
2.64409
0.0584752
2.62861
0.0605116
2.61241
0.0625467
2.59561
0.0645822
2.57809
0.0664969
2.55997
0.0682919
2.54137
0.0700867
2.52193
0.0718808
2.50201
0.0736742
2.48137
0.0753484
2.46025
0.0767819
2.43853
0.0784552
2.41597
0.0798878
2.39318
0.0813211
2.36954
0.0827538
2.34542
0.0840658
2.3207
0.0852576
2.29538
0.0864496
2.26958
0.087521
2.24318
0.0887126
2.21618
0.0895436
2.18882
0.0904944
2.16062
0.0913254
2.13218
0.0919157
2.10266
0.0931056
2.07362
0.0930954
2.04362
0.0942859
2.01242
0.0942749
1.98242
0.0942642
1.95002
0.0954537
1.91762
0.0954423
1.88522
0.0954311
1.85282
0.0954194
1.81923
0.0954075
1.78563
0.0953958
1.75083
0.0953841
1.71603
0.0941713
1.68123
0.094159
1.64523
0.0941464
1.60923
0.0941337
1.57323
0.09172
1.53723
0.0917071
1.49883
0.0904937
1.46163
0.0892798
1.42443
0.0880663
1.38603
0.0880527
1.34643
0.0868389
1.30803
0.0856249
1.26963
0.0832103
1.23003
0.0819961
1.18923
0.0795813
1.15083
0.0783672
1.10883
0.0759525
1.06923
0.0747382
1.02723
0.0723234
0.987632
0.0699088
0.945632
0.0686951
0.903631
0.0662809
0.861631
0.0626666
0.82083
0.060253
0.777629
0.05784
0.735628
0.0554272
0.692427
0.0518145
0.650426
0.0494029
0.607224
0.0457914
0.564022
0.0421807
0.52082
0.039771
0.477618
0.0361618
0.434415
0.0325534
0.390012
0.0289457
0.346809
0.0253377
0.303607
0.0217292
0.259207
0.0169176
0.216012
0.0133006
0.171627
0.00847896
0.128447
0.00361955
0.0841556
0.0397211
-0.00480042
0.0443752
-0.00958644
0.0887346
-0.0131753
0.131946
-0.0167619
0.175154
-0.0203473
0.219556
-0.0251342
0.263966
-0.028722
0.307169
-0.0323107
0.350371
-0.0358996
0.393571
-0.0394884
0.43797
-0.0430769
0.481169
-0.046665
0.524368
-0.0490532
0.566368
-0.0526404
0.610766
-0.0550278
0.652766
-0.0586144
0.695964
-0.0610011
0.737963
-0.0633875
0.779963
-0.0645739
0.821962
-0.068159
0.86516
-0.0705443
0.90596
-0.0729294
0.947959
-0.0741145
0.988758
-0.0764991
1.02956
-0.0776839
1.07036
-0.0800681
1.11116
-0.0812523
1.15196
-0.0824367
1.19036
-0.0836207
1.23116
-0.0848045
1.27076
-0.0859885
1.30916
-0.0883722
1.34876
-0.0895557
1.38716
-0.08954
1.42436
-0.0907238
1.46276
-0.0919075
1.49996
-0.0918917
1.53716
-0.0918763
1.57316
-0.09306
1.61036
-0.0930442
1.64516
-0.0930284
1.68116
-0.0942122
1.71716
-0.0941965
1.75076
-0.0941811
1.78556
-0.0941655
1.81916
-0.0929508
1.85156
-0.0929356
1.88516
-0.0941201
1.91876
-0.0929052
1.94876
-0.0916907
1.98116
-0.0916755
2.01236
-0.0904612
2.04236
-0.090447
2.07356
-0.0898328
2.102
-0.0889787
2.13128
-0.0881248
2.15972
-0.0870311
2.18768
-0.085938
2.21504
-0.0848446
2.24204
-0.0836318
2.26832
-0.0824187
2.29412
-0.0810863
2.31932
-0.0796341
2.34393
-0.0783015
2.36817
-0.0767296
2.39157
-0.0751579
2.41437
-0.0734664
2.43681
-0.0717751
2.45853
-0.0700844
2.47965
-0.0683934
2.50029
-0.0665826
2.52009
-0.0645327
2.53929
-0.0627228
2.55813
-0.060792
2.57613
-0.0587432
2.59353
-0.0566934
2.61033
-0.054525
2.62641
-0.0523557
2.6419
-0.0501871
2.6569
-0.0480187
2.67106
-0.0457312
2.6845
-0.0434434
2.69746
-0.0411556
2.70982
-0.0387482
2.72122
-0.0364615
2.73226
-0.0340552
2.74234
-0.0316483
2.75206
-0.0291224
2.76082
-0.0268367
2.76922
-0.0241912
2.77654
-0.021786
2.78363
-0.0192616
2.78963
-0.0167368
2.79527
-0.014213
2.79995
-0.0116887
2.80415
-0.00909333
2.80757
-0.0065462
2.81034
-0.00397464
2.81239
-0.001404
2.81378
0.00116646
2.81447
0.00373659
2.81447
0.00630653
2.81378
0.00887554
2.8124
0.011421
2.81035
0.0140142
2.80758
0.0165344
2.80416
0.0190551
2.79996
0.0215748
2.79528
0.024095
2.78964
0.0264942
2.78364
0.0291332
2.77656
0.0314119
2.76924
0.0339304
2.76084
0.0363278
2.75209
0.0387258
2.74237
0.0410035
2.73229
0.0434002
2.72125
0.0456767
2.70985
0.0479529
2.69749
0.0502295
2.68453
0.0523851
2.67109
0.0545405
2.65693
0.056695
2.64193
0.0588505
2.62645
0.0608844
2.61037
0.0629193
2.59357
0.064832
2.57618
0.0666257
2.55818
0.0686592
2.53934
0.0704518
2.52014
0.072124
2.50034
0.0737965
2.4797
0.0754683
2.45858
0.0771398
2.43686
0.078691
2.41442
0.0802419
2.39162
0.0815519
2.36822
0.0829823
2.34399
0.0842924
2.31939
0.0854816
2.29419
0.0866712
2.26839
0.0877399
2.24211
0.0888089
2.21511
0.0898772
2.18775
0.0907051
2.15979
0.0915328
2.13135
0.0921201
2.10207
0.0921075
2.07363
0.0932946
2.04243
0.0932805
2.01244
0.0944672
1.98124
0.0956532
1.94884
0.0944384
1.91884
0.0944239
1.88524
0.0956099
1.85164
0.0955946
1.81924
0.0955794
1.78564
0.0955637
1.75084
0.0943473
1.71724
0.0943312
1.68124
0.094315
1.64524
0.093098
1.61044
0.0930819
1.57324
0.0930652
1.53725
0.0918477
1.50005
0.0906301
1.46285
0.090613
1.42445
0.0893947
1.38725
0.0869764
1.34885
0.0857583
1.30925
0.0845397
1.27085
0.083321
1.23125
0.0821027
1.19045
0.080884
1.15205
0.0784649
1.11125
0.0772465
1.07045
0.0748275
1.02965
0.0736089
0.988851
0.0711901
0.94805
0.0687713
0.90605
0.065152
0.86525
0.0639344
0.822048
0.0615167
0.780047
0.0590993
0.738046
0.0554817
0.696044
0.0530652
0.652842
0.0494486
0.610841
0.0470333
0.566437
0.0434181
0.524435
0.0398037
0.481232
0.0361899
0.438029
0.0325767
0.393625
0.0289639
0.350422
0.0253499
0.307221
0.0205339
0.264023
0.0169153
0.219631
0.0132906
0.175252
0.00966282
0.132075
0.00480924
0.0890089
0.0445317
-0.00480558
0.0491797
-0.00839473
0.0923225
-0.0131831
0.136733
-0.0179673
0.179938
-0.0215501
0.223138
-0.025134
0.26755
-0.0287181
0.310752
-0.0323033
0.353956
-0.0370884
0.398356
-0.0394745
0.440356
-0.0430598
0.484754
-0.0454453
0.526753
-0.0490298
0.569952
-0.0514144
0.613151
-0.0549981
0.656349
-0.0573818
0.698348
-0.0597651
0.740347
-0.0633475
0.783545
-0.0657301
0.824344
-0.066913
0.866343
-0.069295
0.908342
-0.0716764
0.95034
-0.0740577
0.991139
-0.0764385
1.03194
-0.0776197
1.07154
-0.0800002
1.11354
-0.0811808
1.15314
-0.083561
1.19274
-0.0847415
1.23234
-0.0859219
1.27194
-0.0871023
1.31034
-0.0882821
1.34994
-0.0882628
1.38714
-0.0894429
1.42554
-0.0906228
1.46394
-0.0918028
1.50114
-0.0917833
1.53714
-0.0929632
1.57434
-0.0929437
1.61034
-0.0941237
1.64634
-0.0941046
1.68114
-0.0940851
1.71714
-0.0940661
1.75074
-0.0940466
1.78554
-0.0940278
1.81914
-0.0940086
1.85154
-0.0939898
1.88514
-0.0927712
1.91754
-0.0927527
1.94874
-0.0927343
1.98114
-0.0915165
2.01114
-0.0914983
2.04234
-0.0902802
2.07234
-0.0896631
2.10138
-0.0888057
2.13042
-0.0878284
2.15874
-0.086852
2.18671
-0.0858745
2.21407
-0.0846585
2.24083
-0.0834421
2.26711
-0.082227
2.29291
-0.080891
2.31799
-0.0795558
2.34259
-0.0779802
2.36659
-0.0764061
2.38999
-0.0749515
2.41291
-0.0733765
2.43523
-0.0716824
2.45683
-0.0699885
2.47796
-0.0680556
2.49836
-0.0662429
2.51828
-0.064429
2.53748
-0.0624968
2.5562
-0.0604448
2.57408
-0.0583924
2.59148
-0.056341
2.60828
-0.0542898
2.62436
-0.0522388
2.63984
-0.0499482
2.65461
-0.0476586
2.66877
-0.0454877
2.68233
-0.0433179
2.69529
-0.040909
2.70741
-0.0386205
2.71893
-0.0360923
2.72973
-0.0338036
2.74005
-0.0313959
2.74965
-0.0289885
2.75842
-0.0264614
2.7667
-0.0240546
2.77414
-0.0214081
2.78098
-0.0190019
2.78722
-0.0164767
2.79274
-0.0139503
2.79742
-0.0114266
2.80162
-0.00884076
2.80498
-0.00626889
2.80777
-0.00370925
2.80984
-0.00113798
2.8112
0.00143306
2.8119
0.00400371
2.8119
0.00657413
2.81121
0.00913217
2.80984
0.011702
2.80778
0.0142817
2.805
0.0168037
2.80164
0.0193229
2.79744
0.0218433
2.79276
0.0242427
2.78724
0.0268817
2.781
0.0292804
2.77416
0.0317988
2.76672
0.0341969
2.75845
0.0365945
2.74969
0.0388712
2.74009
0.0413883
2.72977
0.043665
2.71897
0.0460614
2.70745
0.0482167
2.69533
0.0503707
2.68238
0.0526461
2.66882
0.0549204
2.65466
0.0569542
2.6399
0.0589878
2.62442
0.0610209
2.60834
0.063053
2.59154
0.0650855
2.57414
0.0669976
2.55626
0.0687879
2.53755
0.0705794
2.51835
0.0724906
2.49843
0.0741606
2.47803
0.0758303
2.45691
0.0773788
2.43531
0.0788078
2.41299
0.0803573
2.39007
0.0819049
2.36668
0.0832129
2.34268
0.0845199
2.31808
0.0857079
2.293
0.0868942
2.2672
0.0880809
2.24092
0.0890258
2.21416
0.0899718
2.1868
0.0909168
2.15885
0.0917414
2.13053
0.0923264
2.10149
0.09351
2.07245
0.0934934
2.04245
0.0946771
2.01125
0.0946599
1.98125
0.0946425
1.94885
0.0958248
1.91766
0.0958069
1.88526
0.0957882
1.85166
0.0957697
1.81926
0.0957504
1.78566
0.0957315
1.75086
0.0957117
1.71726
0.0956923
1.68126
0.0944715
1.64646
0.0944511
1.61046
0.0932299
1.57447
0.0932092
1.53727
0.0919875
1.50127
0.0907656
1.46407
0.0895436
1.42567
0.0895222
1.38727
0.0882995
1.35007
0.0870771
1.31047
0.0858545
1.27207
0.0846319
1.23247
0.0822085
1.19287
0.0809854
1.15327
0.0785618
1.11367
0.0773389
1.07167
0.0749151
1.03207
0.0724918
0.991274
0.0700683
0.950474
0.0676454
0.908472
0.0664235
0.866471
0.064001
0.82447
0.0603779
0.78367
0.0579562
0.740467
0.0555348
0.698465
0.0519132
0.656464
0.0494932
0.613261
0.0458728
0.570057
0.043454
0.526854
0.039835
0.484851
0.0374173
0.440446
0.0325981
0.398444
0.0289794
0.35404
0.0253593
0.310841
0.0217369
0.267645
0.0181111
0.223256
0.0132792
0.180083
0.00844529
0.136908
0.00480432
0.0926494
0.0493338
-0.00360828
0.0527866
-0.00840204
0.0971149
-0.0119907
0.140321
-0.0167736
0.18472
-0.021554
0.227917
-0.0251347
0.27113
-0.0287153
0.314332
-0.0322969
0.357537
-0.035879
0.401937
-0.0394615
0.443938
-0.0418441
0.487137
-0.0454259
0.530335
-0.0490073
0.573533
-0.0525881
0.616731
-0.0549691
0.65873
-0.0573497
0.700728
-0.0609292
0.743926
-0.0621095
0.784725
-0.0656882
0.827923
-0.068067
0.868722
-0.0704454
0.91072
-0.0716243
0.951519
-0.0740018
0.993517
-0.07518
1.03312
-0.0787566
1.07511
-0.0787346
1.11352
-0.0811112
1.15551
-0.0822881
1.19391
-0.083465
1.23351
-0.0846417
1.27311
-0.0870172
1.31271
-0.0869944
1.34991
-0.08937
1.38951
-0.0905463
1.42671
-0.0905231
1.46391
-0.0904999
1.50111
-0.091676
1.53831
-0.0928521
1.57551
-0.0928288
1.61031
-0.092806
1.64631
-0.0939821
1.68231
-0.0927595
1.71591
-0.0939356
1.75191
-0.0939129
1.78551
-0.0926905
1.81792
-0.0938674
1.85272
-0.0938445
1.88512
-0.0926228
1.91632
-0.0926006
1.94872
-0.0925785
1.98112
-0.0925566
2.01112
-0.0913355
2.04112
-0.0901145
2.07112
-0.0894933
2.10076
-0.0885126
2.12944
-0.0876518
2.15788
-0.0866715
2.18573
-0.0855719
2.21297
-0.0844727
2.23973
-0.0832529
2.26589
-0.0820335
2.29169
-0.0806949
2.31665
-0.079236
2.34113
-0.0777787
2.36513
-0.0763202
2.38853
-0.0747427
2.41133
-0.0730463
2.43354
-0.0714693
2.45526
-0.0696527
2.47614
-0.0679563
2.49666
-0.0660203
2.51634
-0.0642052
2.53566
-0.0621498
2.55414
-0.0602153
2.57215
-0.0582813
2.58955
-0.0561075
2.60611
-0.0540532
2.62231
-0.0518801
2.63767
-0.0497073
2.65243
-0.0475348
2.66659
-0.0453635
2.68016
-0.0429516
2.69288
-0.0406611
2.70512
-0.0382499
2.71652
-0.0359591
2.72744
-0.0335495
2.73764
-0.0311402
2.74724
-0.0287314
2.75601
-0.0262019
2.76417
-0.0237947
2.77173
-0.0212668
2.77845
-0.0187393
2.78469
-0.0162122
2.79021
-0.0136864
2.7949
-0.01104
2.79898
-0.00857485
2.80252
-0.0060132
2.80521
-0.00344085
2.80726
-0.000868933
2.80863
0.0017027
2.80933
0.0042739
2.80933
0.00684481
2.80864
0.00941528
2.80727
0.0119724
2.80522
0.014434
2.80253
0.0170745
2.799
0.0195954
2.79492
0.022115
2.79024
0.0246342
2.78472
0.027153
2.77848
0.0295524
2.77176
0.0320694
2.76421
0.0344671
2.75605
0.0368643
2.74729
0.0392611
2.73769
0.0415366
2.72749
0.0439317
2.71658
0.0462074
2.70518
0.0486016
2.69294
0.0507564
2.68022
0.0529098
2.66666
0.0550629
2.6525
0.0572154
2.63775
0.0592467
2.62239
0.0613985
2.60619
0.0633098
2.58963
0.0652207
2.57223
0.0672504
2.55423
0.0690405
2.53576
0.0709493
2.51644
0.0726177
2.49676
0.0744057
2.47624
0.0759532
2.45536
0.0776213
2.43364
0.0791681
2.41145
0.0805936
2.38865
0.0820204
2.36525
0.0834451
2.34125
0.0847503
2.31677
0.0859342
2.29182
0.0871177
2.26602
0.0881816
2.23986
0.0892452
2.2131
0.0901875
2.18586
0.0910094
2.15802
0.091951
2.12959
0.0925322
2.10091
0.0937133
2.07127
0.0948941
2.04127
0.0948738
2.01127
0.0948531
1.98127
0.0948322
1.94888
0.0960117
1.91648
0.0959895
1.88528
0.0947668
1.85288
0.0959448
1.81808
0.0959223
1.78568
0.0946981
1.75208
0.0958753
1.71608
0.0946506
1.68249
0.0946271
1.64649
0.0946027
1.61049
0.0933772
1.57569
0.0921515
1.53849
0.0921265
1.50129
0.0921012
1.46409
0.0908749
1.42689
0.0884475
1.3897
0.0884218
1.3501
0.0859935
1.3129
0.0847666
1.2733
0.0835397
1.2337
0.0823123
1.1941
0.0798842
1.1557
0.0798579
1.1137
0.076229
1.0753
0.0750021
1.0333
0.072574
0.993702
0.0713476
0.9517
0.06892
0.9109
0.0664929
0.868898
0.0628653
0.828098
0.0616399
0.784895
0.0580128
0.744094
0.0555876
0.700891
0.0531626
0.658888
0.0495372
0.616886
0.0459126
0.573682
0.0422885
0.530478
0.0398656
0.487274
0.0362425
0.44407
0.0326188
0.402068
0.0289944
0.357665
0.0253682
0.314467
0.021739
0.271274
0.0169061
0.228089
0.0120699
0.18492
0.00843409
0.140544
0.00360367
0.0974796
0.0529391
-0.0048074
0.0575929
-0.00960607
0.101912
-0.0131947
0.143908
-0.016778
0.188302
-0.0203576
0.231496
-0.023936
0.274707
-0.0287128
0.319109
-0.0322911
0.361115
-0.0358698
0.405516
-0.0394489
0.447517
-0.0430281
0.490715
-0.0466068
0.533913
-0.0489857
0.575912
-0.0513641
0.619109
-0.0549412
0.662307
-0.0573187
0.703106
-0.0596957
0.746303
-0.0632716
0.788301
-0.0644483
0.829099
-0.068023
0.872296
-0.069199
0.911896
-0.0727725
0.955092
-0.073948
0.994692
-0.0763217
1.03549
-0.0774958
1.07629
-0.0798692
1.11589
-0.0810429
1.15669
-0.0822165
1.19509
-0.0845886
1.23588
-0.0857617
1.27429
-0.0857353
1.31268
-0.0881072
1.35228
-0.0880801
1.38948
-0.0892525
1.42788
-0.0904248
1.46508
-0.0915976
1.50228
-0.0915701
1.53828
-0.091543
1.57548
-0.0927157
1.61149
-0.0938872
1.64748
-0.0926615
1.68109
-0.0938337
1.71709
-0.0938072
1.75189
-0.0937801
1.78549
-0.0937539
1.81789
-0.093727
1.85269
-0.0925016
1.88389
-0.0936742
1.91749
-0.0924491
1.94749
-0.091224
1.97989
-0.0911984
2.01109
-0.0911722
2.04109
-0.0899484
2.0699
-0.0893229
2.10014
-0.0884593
2.12858
-0.0875951
2.15702
-0.0864913
2.18462
-0.0855084
2.21198
-0.0842851
2.2385
-0.0831819
2.26478
-0.08172
2.29023
-0.0803783
2.31531
-0.0790369
2.33979
-0.0776949
2.36379
-0.0761141
2.38695
-0.0745336
2.40975
-0.0729534
2.43196
-0.0711336
2.45344
-0.069435
2.47444
-0.0676157
2.49484
-0.0657969
2.51452
-0.0638593
2.53372
-0.062041
2.55233
-0.0601041
2.57021
-0.0579267
2.58737
-0.0559904
2.60417
-0.0538146
2.62013
-0.0516392
2.6355
-0.0494652
2.65026
-0.0472895
2.66442
-0.0449963
2.67786
-0.0427024
2.69058
-0.0404089
2.70283
-0.0381168
2.71423
-0.035704
2.72503
-0.0332928
2.73523
-0.030882
2.74483
-0.0283504
2.75347
-0.0259414
2.76176
-0.0234108
2.7692
-0.0210015
2.77604
-0.0184739
2.78216
-0.0159455
2.78769
-0.0134187
2.79237
-0.0108912
2.79645
-0.00829318
2.79992
-0.00573163
2.80265
-0.00316938
2.8047
-0.00059678
2.80606
0.00197546
2.80676
0.00454723
2.80676
0.00711863
2.80607
0.00967636
2.80471
0.0122348
2.80266
0.0148288
2.79994
0.0173492
2.79648
0.0198703
2.7924
0.0223898
2.78772
0.02491
2.7822
0.0273085
2.77608
0.0298255
2.76925
0.0322243
2.76181
0.0347403
2.75353
0.037137
2.74489
0.0395334
2.7353
0.041928
2.7251
0.0442033
2.7143
0.046477
2.7029
0.0487502
2.69067
0.0510241
2.67795
0.0531752
2.66451
0.0553281
2.65035
0.0574794
2.63559
0.0596302
2.62024
0.0615404
2.60428
0.0636892
2.58748
0.0655985
2.57032
0.0673862
2.55245
0.0692946
2.53385
0.0710814
2.51465
0.0728678
2.49497
0.0745347
2.47457
0.0763201
2.45358
0.077865
2.4321
0.0794095
2.4099
0.0809535
2.3871
0.0822559
2.36395
0.0835589
2.33995
0.0848614
2.31547
0.0862836
2.29039
0.0873441
2.26496
0.0885244
2.23868
0.0894651
2.21216
0.0905244
2.1848
0.0913431
2.15721
0.0921624
2.12877
0.0927393
2.10033
0.0939181
2.07009
0.0938938
2.04129
0.09387
2.0113
0.0950467
1.9801
0.0962231
1.9477
0.0949964
1.9177
0.0961721
1.8841
0.0961456
1.85291
0.0961198
1.81811
0.0960927
1.78571
0.0960661
1.75211
0.0948374
1.71731
0.0960112
1.68131
0.0947813
1.64772
0.0935525
1.61172
0.0935237
1.57572
0.0934941
1.53852
0.0922645
1.50252
0.0910339
1.46532
0.0898032
1.42812
0.0897728
1.38973
0.0873406
1.35253
0.0873105
1.31293
0.0860792
1.27453
0.0836462
1.23613
0.0824149
1.19533
0.0811835
1.15693
0.0787511
1.11613
0.0775194
1.07653
0.0750867
1.03573
0.0738562
0.994932
0.0702225
0.955333
0.0689922
0.91213
0.0653595
0.872531
0.0641296
0.829327
0.0604981
0.788526
0.0580682