/*--------------------------------*- C++ -*----------------------------------*\
  =========                 |
  \\      /  F ield         | OpenFOAM: The Open Source CFD Toolbox
   \\    /   O peration     | Website:  https://openfoam.org
    \\  /    A nd           | Version:  9
     \\/     M anipulation  |
\*---------------------------------------------------------------------------*/
FoamFile
{
    format      ascii;
    class       volScalarField;
    location    "0.005";
    object      alphat;
}
// * * * * * * * * * * * * * * * * * * * * * * * * * * * * * * * * * * * * * //

dimensions      [1 -1 -1 0 0 0 0];

internalField   nonuniform List<scalar> 
5373
(
0.0162925
0.016256
0.016256
0.0162559
0.0162559
0.0162159
0.0162159
0.0162158
0.0162158
0.0162157
0.0162156
0.0161778
0.0161779
0.016178
0.016178
0.0161781
0.0161782
0.0161782
0.0161783
0.0161345
0.0161346
0.0161347
0.0161348
0.0161349
0.016135
0.0161351
0.0161352
0.0161353
0.0160881
0.0160883
0.0160884
0.0160886
0.0160887
0.0160889
0.016089
0.0160891
0.0160893
0.0160894
0.0160896
0.0160342
0.0160344
0.0160346
0.0160348
0.016035
0.0160352
0.0160354
0.0160356
0.0160358
0.016036
0.0160361
0.0159697
0.01597
0.0159702
0.0159705
0.0159708
0.015971
0.0159713
0.0159715
0.0159718
0.015972
0.0159723
0.0159725
0.0158927
0.0158931
0.0158934
0.0158938
0.0158941
0.0158945
0.0158948
0.0158951
0.0158955
0.0158958
0.0158961
0.0158964
0.0158968
0.0158015
0.015802
0.0158024
0.0158029
0.0158033
0.0158037
0.0158042
0.0158046
0.0158051
0.0158055
0.0158059
0.0158063
0.0158067
0.0156922
0.0156928
0.0156934
0.015694
0.0156945
0.0156951
0.0156957
0.0156962
0.0156968
0.0156974
0.0156979
0.0156985
0.015699
0.0156995
0.0155616
0.0155623
0.0155631
0.0155638
0.0155646
0.0155653
0.0155661
0.0155668
0.0155675
0.0155682
0.0155689
0.0155696
0.0155703
0.015571
0.0154033
0.0154043
0.0154052
0.0154062
0.0154072
0.0154081
0.0154091
0.01541
0.0154109
0.0154118
0.0154127
0.0154136
0.0154145
0.0154154
0.0154162
0.0152134
0.0152146
0.0152158
0.0152171
0.0152183
0.0152194
0.0152206
0.0152218
0.0152229
0.0152241
0.0152252
0.0152263
0.0152274
0.0152285
0.0152295
0.0149838
0.0149854
0.0149869
0.0149884
0.0149899
0.0149913
0.0149928
0.0149942
0.0149956
0.014997
0.0149983
0.0149997
0.015001
0.0150024
0.0150037
0.0147065
0.0147084
0.0147102
0.014712
0.0147138
0.0147156
0.0147173
0.014719
0.0147207
0.0147223
0.014724
0.0147256
0.0147271
0.0147287
0.0147302
0.0143725
0.0143747
0.0143768
0.0143789
0.014381
0.014383
0.014385
0.014387
0.014389
0.0143909
0.0143927
0.0143946
0.0143964
0.0143982
0.0143999
0.0139701
0.0139726
0.013975
0.0139775
0.0139798
0.0139822
0.0139844
0.0139867
0.0139889
0.013991
0.0139931
0.0139952
0.0139972
0.0139991
0.0140011
0.0140029
0.0134964
0.0134991
0.0135017
0.0135043
0.0135068
0.0135092
0.0135116
0.0135139
0.0135162
0.0135184
0.0135205
0.0135226
0.0135247
0.0135266
0.0135285
0.0135304
0.0129442
0.0129469
0.0129495
0.012952
0.0129545
0.0129568
0.0129591
0.0129613
0.0129634
0.0129655
0.0129674
0.0129693
0.0129711
0.0129729
0.0129745
0.0129761
0.0123138
0.0123164
0.0123188
0.012321
0.0123231
0.0123251
0.012327
0.0123288
0.0123305
0.012332
0.0123335
0.0123349
0.0123362
0.0123373
0.0123385
0.0123396
0.0116143
0.0116162
0.0116179
0.0116195
0.011621
0.0116224
0.0116236
0.0116247
0.0116256
0.0116264
0.011627
0.0116275
0.011628
0.0116284
0.0116287
0.0116289
0.0108676
0.0108685
0.0108692
0.0108697
0.01087
0.0108702
0.0108703
0.0108703
0.0108701
0.0108698
0.0108693
0.0108686
0.0108677
0.0108668
0.0108657
0.0108644
0.0101193
0.0101189
0.0101183
0.0101176
0.0101167
0.0101156
0.0101143
0.0101129
0.0101113
0.0101093
0.0101072
0.0101048
0.0101023
0.0100995
0.0100966
0.0100935
0.00946314
0.00946153
0.00945969
0.00945765
0.00945541
0.00945293
0.00945015
0.00944712
0.00944387
0.00944041
0.00943675
0.00943289
0.00942883
0.00942459
0.00942017
0.00941556
0.00906584
0.00906597
0.00906581
0.0090654
0.00906474
0.00906384
0.00906268
0.00906119
0.0090594
0.00905721
0.00905402
0.0090498
0.00904465
0.00903869
0.009032
0.00902467
0.00891491
0.00891169
0.00890833
0.0089049
0.00890135
0.00889755
0.00889347
0.00888926
0.00888496
0.0088806
0.00887622
0.00887184
0.00886753
0.00886334
0.00885936
0.00885565
0.00891411
0.00891476
0.00891511
0.00891527
0.00891525
0.00891502
0.00891467
0.00891419
0.00891358
0.00891285
0.00891199
0.008911
0.0089099
0.00890875
0.00890757
0.00890638
0.00897749
0.0089801
0.00898246
0.00898465
0.00898672
0.00898868
0.00899056
0.00899236
0.00899409
0.00899575
0.00899735
0.00899889
0.00900038
0.00900181
0.00900321
0.00900458
0.0089698
0.00897458
0.00897912
0.00898352
0.00898781
0.00899202
0.00899615
0.00900021
0.0090042
0.00900813
0.00901199
0.0090158
0.00901954
0.00902321
0.00902684
0.00903044
0.00881183
0.00881848
0.00882485
0.00883104
0.00883709
0.00884301
0.00884881
0.0088545
0.00886008
0.00886553
0.00887087
0.00887608
0.00888116
0.0088861
0.00889092
0.00889563
0.00846307
0.00847131
0.00847923
0.00848694
0.00849433
0.00850147
0.0085084
0.00851512
0.00852163
0.00852792
0.00853399
0.00853982
0.0085454
0.00855071
0.00855576
0.00856069
0.00791964
0.00792898
0.00793797
0.00794676
0.00795534
0.00796374
0.00797167
0.00797916
0.00798628
0.00799304
0.00799942
0.00800541
0.00801098
0.00801619
0.00802129
0.00802613
0.00719908
0.0072094
0.00721941
0.00722921
0.00723881
0.00724817
0.00725725
0.00726576
0.0072736
0.00728088
0.00728763
0.00729381
0.00729936
0.00730479
0.00730985
0.00731441
0.00633359
0.0063447
0.00635559
0.00636633
0.0063769
0.00638725
0.00639734
0.00640709
0.00641589
0.00642397
0.00643137
0.00643805
0.00644415
0.00644997
0.00645521
0.00645969
0.00537661
0.00538785
0.00539898
0.00541006
0.00542105
0.00543189
0.00544254
0.00545293
0.00546256
0.00547132
0.00547933
0.00548655
0.00549324
0.0054995
0.00550496
0.00550944
0.00441638
0.0044264
0.00443641
0.00444644
0.00445646
0.0044664
0.00447621
0.00448581
0.004495
0.00450322
0.00451069
0.00451737
0.00452368
0.00452943
0.0045342
0.00453781
0.0035454
0.00355338
0.00356139
0.00356944
0.00357748
0.00358545
0.00359327
0.00360086
0.00360812
0.00361457
0.00362013
0.00362492
0.00362943
0.00363317
0.00363577
0.00363698
0.00279229
0.0027984
0.00280455
0.00281072
0.00281685
0.00282289
0.00282876
0.00283438
0.00283962
0.00284431
0.00284797
0.00285103
0.00285362
0.00285527
0.00285568
0.00285416
0.00215246
0.00215702
0.00216161
0.00216621
0.00217077
0.00217522
0.0021795
0.00218351
0.00218718
0.00219038
0.00219268
0.00219446
0.00219562
0.0021958
0.00219442
0.00219116
0.00161593
0.00161924
0.00162258
0.00162592
0.00162922
0.00163241
0.00163545
0.00163826
0.00164076
0.00164285
0.00164424
0.00164516
0.00164542
0.00164459
0.00164234
0.00163837
0.00117202
0.00117434
0.00117668
0.00117903
0.00118134
0.00118357
0.00118568
0.0011876
0.00118926
0.0011906
0.00119141
0.00119181
0.00119154
0.00119029
0.00118784
0.00118385
0.000810242
0.000811765
0.000813317
0.000814876
0.000816415
0.000817903
0.000819303
0.000820572
0.000821659
0.000822502
0.000822975
0.000823108
0.000822655
0.000821415
0.000819189
0.000815618
0.000521036
0.000521819
0.000522641
0.000523488
0.000524341
0.00052518
0.000525982
0.000526721
0.000527365
0.000527876
0.00052817
0.000528228
0.000527864
0.000526926
0.000525239
0.00052243
0.000304309
0.000303711
0.000303152
0.000302635
0.000302159
0.000301724
0.000301336
0.000301008
0.000300762
0.000300626
0.000300537
0.000300489
0.000300362
0.000300066
0.00029952
0.000298221
0.000149946
0.000148721
0.000147538
0.000146315
0.000145052
0.000143768
0.000142429
0.000141042
0.000139844
0.000138738
0.000137817
0.00013705
0.00013634
0.000135742
0.000135183
0.000133886
1.3671e-06
1.34977e-06
1.32303e-06
1.29297e-06
1.26054e-06
1.21613e-06
1.15574e-06
1.11869e-06
1.58656e-06
1.63294e-06
1.51989e-06
1.1121e-06
1.04501e-06
1.02451e-06
1.36618e-06
1.60499e-06
0.0163383
0.0163384
0.0163385
0.0163387
0.0163388
0.0163389
0.016339
0.0163391
0.0163393
0.0163394
0.0163395
0.0163396
0.0163397
0.0163399
0.01634
0.0163401
0.0163402
0.0163403
0.0163405
0.0163406
0.0163407
0.0163408
0.0163409
0.0163411
0.0163412
0.0163413
0.0163414
0.0163415
0.0163417
0.0163418
0.0163419
0.016342
0.0163422
0.0163423
0.0163424
0.0163425
0.0163427
0.0163428
0.0163429
0.016343
0.0163431
0.0163433
0.0163434
0.0163435
0.0163436
0.0163438
0.0163439
0.016344
0.0163441
0.0163411
0.016341
0.0163409
0.0163408
0.0163406
0.0163405
0.0163404
0.0163402
0.0163401
0.0163399
0.0163398
0.0163396
0.0163395
0.0163393
0.0163391
0.0163389
0.0163388
0.0163386
0.0163384
0.0163382
0.016338
0.0163378
0.0163376
0.0163374
0.0163372
0.016337
0.0163368
0.0163365
0.0163363
0.0163361
0.0163358
0.0163356
0.0163353
0.0163351
0.0163348
0.0163346
0.0163343
0.0163341
0.0163338
0.0163335
0.0163332
0.016333
0.0163327
0.0163324
0.0163321
0.0163318
0.0163315
0.0163312
0.0163308
0.0163266
0.0163264
0.0163263
0.0163262
0.0163261
0.016326
0.0163259
0.0163258
0.0163257
0.0163256
0.0163255
0.0163254
0.0163253
0.0163252
0.0163251
0.016325
0.0163249
0.0163248
0.0163247
0.0163246
0.0163245
0.0163244
0.0163243
0.0163242
0.0163241
0.016324
0.0163239
0.0163238
0.0163237
0.0163236
0.0163235
0.0163234
0.0163233
0.0163231
0.016323
0.0163229
0.0163228
0.0163227
0.0163226
0.0163225
0.0163224
0.0163222
0.0163221
0.016322
0.0163219
0.0163218
0.0163216
0.0163215
0.0163214
0.0163213
0.0162924
0.0162926
0.0162928
0.016293
0.016293
0.016293
0.016293
0.0162929
0.0162928
0.0162927
0.0162926
0.0162925
0.0162923
0.0162922
0.016292
0.0162919
0.0162917
0.0162915
0.0162913
0.0162912
0.016291
0.0162908
0.0162906
0.0162904
0.0162902
0.01629
0.0162898
0.0162896
0.0162894
0.0162891
0.0162889
0.0162887
0.0162885
0.0162883
0.0162881
0.0162878
0.0162876
0.0162874
0.0162872
0.016287
0.0162867
0.0162865
0.0162863
0.0162861
0.0162858
0.0162856
0.0162854
0.0162852
0.0162849
0.0162847
0.0162558
0.0162555
0.0162553
0.0162552
0.016255
0.0162549
0.0162549
0.0162548
0.0162548
0.016255
0.0162552
0.0162555
0.0162558
0.016256
0.0162563
0.0162566
0.0162568
0.0162571
0.0162574
0.0162576
0.0162579
0.0162582
0.0162585
0.0162587
0.016259
0.0162593
0.0162595
0.0162598
0.0162601
0.0162604
0.0162607
0.0162609
0.016261
0.0162611
0.016261
0.016261
0.0162609
0.0162608
0.0162607
0.0162605
0.0162604
0.0162603
0.0162601
0.0162599
0.0162598
0.0162596
0.0162594
0.0162592
0.016259
0.0162588
0.0162156
0.0162158
0.0162161
0.0162164
0.0162168
0.0162171
0.0162175
0.0162179
0.0162183
0.0162186
0.016219
0.0162194
0.0162197
0.0162201
0.0162205
0.0162208
0.0162212
0.0162216
0.016222
0.0162221
0.0162222
0.0162221
0.016222
0.0162219
0.0162218
0.0162216
0.0162215
0.0162213
0.0162213
0.0162213
0.0162215
0.0162219
0.0162223
0.0162226
0.016223
0.0162234
0.0162238
0.0162241
0.0162245
0.0162249
0.0162253
0.0162257
0.016226
0.0162264
0.0162268
0.0162272
0.0162276
0.016228
0.0162284
0.0162287
0.0161785
0.0161789
0.0161793
0.0161798
0.0161803
0.0161805
0.0161808
0.0161813
0.0161818
0.0161823
0.0161827
0.0161832
0.0161837
0.0161842
0.0161847
0.0161852
0.0161857
0.0161862
0.0161867
0.0161872
0.0161877
0.0161882
0.0161887
0.0161892
0.0161893
0.0161893
0.0161892
0.0161891
0.016189
0.016189
0.0161893
0.0161897
0.0161902
0.0161907
0.0161912
0.0161917
0.0161922
0.0161927
0.0161932
0.0161938
0.0161943
0.0161948
0.0161953
0.0161958
0.0161963
0.0161968
0.0161973
0.0161978
0.0161983
0.0161989
0.0161355
0.016136
0.0161366
0.0161372
0.0161376
0.0161381
0.0161388
0.0161394
0.01614
0.0161407
0.0161413
0.0161419
0.0161426
0.0161432
0.0161439
0.0161445
0.0161452
0.0161458
0.0161465
0.0161471
0.0161478
0.0161484
0.0161491
0.0161497
0.0161504
0.016151
0.0161517
0.0161523
0.016153
0.0161537
0.0161543
0.016155
0.0161557
0.0161563
0.016157
0.0161577
0.0161583
0.016159
0.0161597
0.0161604
0.016161
0.0161617
0.0161624
0.0161631
0.0161637
0.0161644
0.0161651
0.0161658
0.0161664
0.0161671
0.0160899
0.0160906
0.0160914
0.0160922
0.016093
0.0160938
0.0160947
0.0160955
0.0160964
0.0160972
0.016098
0.0160989
0.0160997
0.0161006
0.0161014
0.0161022
0.0161031
0.0161039
0.0161048
0.0161056
0.0161065
0.0161074
0.0161082
0.0161091
0.0161099
0.0161108
0.0161116
0.0161125
0.0161134
0.0161142
0.0161151
0.016116
0.0161169
0.0161177
0.0161186
0.0161195
0.0161203
0.0161212
0.0161221
0.016123
0.0161239
0.0161248
0.0161256
0.0161265
0.0161274
0.0161283
0.0161292
0.0161301
0.016131
0.0161319
0.0160365
0.0160375
0.0160385
0.0160395
0.0160406
0.0160417
0.0160428
0.0160439
0.016045
0.016046
0.0160471
0.0160482
0.0160493
0.0160504
0.0160515
0.0160526
0.0160537
0.0160548
0.016056
0.0160571
0.0160582
0.0160593
0.0160604
0.0160615
0.0160627
0.0160638
0.0160649
0.0160661
0.0160672
0.0160683
0.0160695
0.0160706
0.0160717
0.0160729
0.016074
0.0160752
0.0160763
0.0160775
0.0160786
0.0160798
0.016081
0.0160821
0.0160833
0.0160845
0.0160856
0.0160868
0.016088
0.0160891
0.0160903
0.0160915
0.015973
0.0159742
0.0159755
0.0159769
0.0159783
0.0159797
0.0159811
0.0159825
0.0159839
0.0159854
0.0159868
0.0159882
0.0159896
0.015991
0.0159925
0.0159939
0.0159954
0.0159968
0.0159982
0.0159997
0.0160012
0.0160026
0.0160041
0.0160055
0.016007
0.0160085
0.01601
0.0160115
0.0160129
0.0160144
0.0160159
0.0160174
0.0160189
0.0160204
0.0160219
0.0160234
0.0160249
0.0160265
0.016028
0.0160295
0.016031
0.0160326
0.0160341
0.0160356
0.0160372
0.0160387
0.0160403
0.0160418
0.0160434
0.0160449
0.0158974
0.0158989
0.0159007
0.0159024
0.0159042
0.0159061
0.0159079
0.0159097
0.0159115
0.0159133
0.0159152
0.015917
0.0159189
0.0159207
0.0159226
0.0159244
0.0159263
0.0159282
0.0159301
0.015932
0.0159339
0.0159358
0.0159377
0.0159396
0.0159415
0.0159434
0.0159454
0.0159473
0.0159493
0.0159512
0.0159532
0.0159551
0.0159571
0.0159591
0.0159611
0.015963
0.015965
0.015967
0.015969
0.015971
0.0159731
0.0159751
0.0159771
0.0159792
0.0159812
0.0159833
0.0159854
0.0159874
0.0159895
0.0159916
0.0158075
0.0158095
0.0158117
0.015814
0.0158163
0.0158186
0.015821
0.0158233
0.0158257
0.015828
0.0158304
0.0158328
0.0158351
0.0158375
0.0158399
0.0158424
0.0158448
0.0158472
0.0158497
0.0158521
0.0158546
0.015857
0.0158595
0.015862
0.0158645
0.015867
0.0158696
0.0158721
0.0158746
0.0158772
0.0158797
0.0158823
0.0158849
0.0158875
0.0158901
0.0158927
0.0158953
0.015898
0.0159006
0.0159033
0.015906
0.0159086
0.0159113
0.0159141
0.0159168
0.0159195
0.0159222
0.015925
0.0159277
0.0159304
0.0157006
0.0157031
0.0157059
0.0157088
0.0157117
0.0157147
0.0157176
0.0157206
0.0157236
0.0157266
0.0157297
0.0157327
0.0157358
0.0157389
0.0157419
0.0157451
0.0157482
0.0157513
0.0157545
0.0157576
0.0157608
0.015764
0.0157672
0.0157705
0.0157737
0.015777
0.0157803
0.0157836
0.0157869
0.0157902
0.0157935
0.0157969
0.0158003
0.0158037
0.0158071
0.0158106
0.0158141
0.0158176
0.0158211
0.0158246
0.0158281
0.0158317
0.0158352
0.0158388
0.0158424
0.015846
0.0158496
0.0158533
0.0158569
0.0158605
0.0155723
0.0155754
0.015579
0.0155826
0.0155863
0.0155901
0.0155938
0.0155976
0.0156014
0.0156052
0.0156091
0.015613
0.0156169
0.0156208
0.0156247
0.0156287
0.0156327
0.0156368
0.0156408
0.0156449
0.015649
0.0156531
0.0156573
0.0156614
0.0156656
0.0156699
0.0156741
0.0156784
0.0156827
0.0156871
0.0156915
0.0156959
0.0157003
0.0157048
0.0157093
0.0157139
0.0157184
0.015723
0.0157276
0.0157323
0.015737
0.0157416
0.0157464
0.0157511
0.0157559
0.0157606
0.0157654
0.0157702
0.0157751
0.0157799
0.0154178
0.0154218
0.0154262
0.0154307
0.0154353
0.01544
0.0154447
0.0154494
0.0154542
0.015459
0.0154639
0.0154688
0.0154737
0.0154787
0.0154837
0.0154888
0.0154939
0.015499
0.0155042
0.0155094
0.0155147
0.01552
0.0155253
0.0155307
0.0155361
0.0155416
0.0155471
0.0155527
0.0155583
0.015564
0.0155697
0.0155755
0.0155813
0.0155872
0.0155931
0.0155991
0.0156051
0.0156112
0.0156173
0.0156234
0.0156296
0.0156358
0.015642
0.0156483
0.0156546
0.0156609
0.0156673
0.0156737
0.0156801
0.0156865
0.0152314
0.0152363
0.0152417
0.0152473
0.015253
0.0152588
0.0152646
0.0152705
0.0152765
0.0152825
0.0152886
0.0152947
0.0153009
0.0153072
0.0153135
0.0153199
0.0153264
0.0153329
0.0153395
0.0153462
0.0153529
0.0153597
0.0153665
0.0153734
0.0153804
0.0153875
0.0153946
0.0154019
0.0154092
0.0154166
0.0154241
0.0154317
0.0154393
0.015447
0.0154548
0.0154627
0.0154706
0.0154786
0.0154866
0.0154947
0.0155029
0.0155111
0.0155194
0.0155277
0.0155361
0.0155445
0.015553
0.0155615
0.0155701
0.0155786
0.0150059
0.0150118
0.0150184
0.0150251
0.0150321
0.0150391
0.0150462
0.0150534
0.0150608
0.0150682
0.0150757
0.0150833
0.0150911
0.0150989
0.0151068
0.0151148
0.015123
0.0151312
0.0151396
0.015148
0.0151565
0.0151652
0.0151739
0.0151828
0.0151917
0.0152008
0.0152101
0.0152195
0.015229
0.0152386
0.0152484
0.0152583
0.0152683
0.0152784
0.0152886
0.015299
0.0153094
0.01532
0.0153306
0.0153414
0.0153522
0.0153632
0.0153742
0.0153853
0.0153964
0.0154077
0.015419
0.0154303
0.0154417
0.0154532
0.0147328
0.0147398
0.0147475
0.0147556
0.0147638
0.0147722
0.0147808
0.0147895
0.0147984
0.0148074
0.0148166
0.0148259
0.0148354
0.0148451
0.0148549
0.0148649
0.0148751
0.0148854
0.0148959
0.0149065
0.0149173
0.0149283
0.0149394
0.0149507
0.0149621
0.0149738
0.0149857
0.0149978
0.0150102
0.0150227
0.0150354
0.0150483
0.0150614
0.0150747
0.0150882
0.0151018
0.0151156
0.0151296
0.0151437
0.015158
0.0151724
0.015187
0.0152017
0.0152165
0.0152314
0.0152464
0.0152615
0.0152767
0.015292
0.0153073
0.0144028
0.0144108
0.0144196
0.0144289
0.0144385
0.0144483
0.0144583
0.0144686
0.0144791
0.0144899
0.0145009
0.0145122
0.0145237
0.0145355
0.0145475
0.0145598
0.0145723
0.0145851
0.0145981
0.0146114
0.0146249
0.0146387
0.0146527
0.014667
0.0146816
0.0146965
0.0147117
0.0147272
0.0147431
0.0147593
0.0147758
0.0147926
0.0148097
0.0148271
0.0148448
0.0148628
0.014881
0.0148995
0.0149183
0.0149372
0.0149565
0.0149759
0.0149955
0.0150153
0.0150353
0.0150554
0.0150756
0.015096
0.0151165
0.0151371
0.014006
0.0140147
0.0140244
0.0140347
0.0140454
0.0140564
0.0140678
0.0140796
0.0140918
0.0141043
0.0141172
0.0141305
0.0141442
0.0141582
0.0141727
0.0141875
0.0142027
0.0142183
0.0142343
0.0142507
0.0142674
0.0142846
0.0143021
0.01432
0.0143383
0.0143571
0.0143764
0.0143962
0.0144165
0.0144373
0.0144586
0.0144804
0.0145026
0.0145253
0.0145485
0.0145721
0.0145961
0.0146206
0.0146454
0.0146707
0.0146963
0.0147222
0.0147484
0.0147749
0.0148017
0.0148287
0.0148559
0.0148833
0.0149108
0.0149385
0.0135334
0.0135422
0.0135523
0.013563
0.0135743
0.0135861
0.0135986
0.0136115
0.0136251
0.0136391
0.0136538
0.013669
0.0136848
0.0137012
0.0137181
0.0137356
0.0137537
0.0137723
0.0137915
0.0138113
0.0138317
0.0138527
0.0138742
0.0138963
0.013919
0.0139424
0.0139665
0.0139914
0.014017
0.0140434
0.0140706
0.0140985
0.0141272
0.0141566
0.0141867
0.0142176
0.0142491
0.0142813
0.0143142
0.0143476
0.0143817
0.0144163
0.0144513
0.0144869
0.0145228
0.0145591
0.0145957
0.0146325
0.0146695
0.0147067
0.0129787
0.0129867
0.0129961
0.0130064
0.0130174
0.0130293
0.013042
0.0130555
0.0130698
0.0130848
0.0131007
0.0131174
0.013135
0.0131533
0.0131725
0.0131924
0.0132133
0.0132349
0.0132574
0.0132807
0.0133049
0.0133299
0.0133558
0.0133825
0.0134099
0.0134384
0.0134679
0.0134985
0.0135302
0.0135631
0.0135972
0.0136325
0.0136689
0.0137064
0.0137452
0.013785
0.013826
0.0138681
0.0139112
0.0139553
0.0140004
0.0140464
0.0140931
0.0141406
0.0141888
0.0142375
0.0142867
0.0143363
0.0143861
0.0144361
0.0123412
0.012347
0.0123543
0.0123628
0.0123724
0.0123831
0.0123949
0.0124078
0.0124218
0.0124369
0.0124531
0.0124704
0.0124888
0.0125083
0.012529
0.0125508
0.0125737
0.0125978
0.012623
0.0126494
0.0126771
0.0127059
0.0127359
0.0127672
0.0127997
0.0128332
0.0128682
0.0129047
0.0129429
0.0129828
0.0130244
0.0130678
0.013113
0.01316
0.0132088
0.0132594
0.0133118
0.0133659
0.0134218
0.0134794
0.0135385
0.0135991
0.0136611
0.0137243
0.0137886
0.0138538
0.0139197
0.0139863
0.0140533
0.0141205
0.011629
0.011631
0.0116346
0.0116395
0.011646
0.0116539
0.0116633
0.0116741
0.0116864
0.0117
0.0117151
0.0117316
0.0117496
0.011769
0.0117898
0.0118121
0.011836
0.0118613
0.0118881
0.0119165
0.0119466
0.0119782
0.0120115
0.0120465
0.0120833
0.0121211
0.0121608
0.0122026
0.0122467
0.0122932
0.0123422
0.0123937
0.0124479
0.0125048
0.0125645
0.012627
0.0126923
0.0127605
0.0128315
0.0129052
0.0129815
0.0130603
0.0131414
0.0132247
0.0133098
0.0133965
0.0134845
0.0135736
0.0136632
0.0137533
0.0108625
0.0108592
0.0108575
0.0108575
0.010859
0.0108623
0.0108672
0.0108739
0.0108824
0.0108927
0.0109047
0.0109184
0.0109338
0.010951
0.01097
0.0109907
0.0110133
0.0110377
0.011064
0.0110923
0.0111226
0.0111549
0.0111894
0.0112262
0.0112652
0.0113066
0.0113493
0.0113945
0.0114427
0.0114941
0.0115489
0.0116072
0.0116692
0.0117352
0.0118053
0.0118796
0.0119582
0.0120412
0.0121286
0.0122205
0.0123166
0.0124169
0.0125211
0.0126289
0.01274
0.012854
0.0129702
0.0130883
0.0132075
0.0133275
0.0100894
0.0100794
0.0100704
0.0100633
0.0100583
0.010055
0.0100536
0.0100538
0.0100556
0.0100594
0.0100652
0.0100732
0.0100832
0.010095
0.0101086
0.0101243
0.0101419
0.0101617
0.0101837
0.010208
0.0102347
0.010264
0.0102959
0.0103306
0.0103683
0.010409
0.0104527
0.0104981
0.010547
0.0105998
0.0106569
0.0107187
0.0107855
0.0108577
0.0109355
0.0110193
0.0111095
0.0112062
0.0113095
0.0114197
0.0115367
0.0116604
0.0117906
0.0119269
0.0120689
0.0122158
0.0123669
0.0125213
0.0126782
0.0128364
0.00940927
0.00939273
0.00937728
0.00936391
0.00935281
0.00934423
0.00933768
0.00933002
0.00931671
0.00930096
0.00929429
0.00929393
0.00929536
0.00929795
0.00930161
0.0093063
0.00931227
0.00931996
0.00932973
0.0093419
0.00935674
0.00937447
0.00939535
0.00941968
0.00944778
0.00947997
0.00951652
0.00955686
0.00960006
0.00964789
0.00970103
0.00975995
0.00982518
0.00989733
0.00997703
0.0100649
0.0101616
0.0102675
0.0103832
0.0105089
0.010645
0.0107915
0.0109482
0.0111149
0.011291
0.0114756
0.0116677
0.0118659
0.0120688
0.0122747
0.00901404
0.00898114
0.00895513
0.00892788
0.00889749
0.00886402
0.00882805
0.00879665
0.0087737
0.00876326
0.00875956
0.00875869
0.00875874
0.00875994
0.00876239
0.00876033
0.00875207
0.00873884
0.00872256
0.0087072
0.00869335
0.00868124
0.00867115
0.00866347
0.00865929
0.00866042
0.00866671
0.00867994
0.00870016
0.00872698
0.00876182
0.00880448
0.00885493
0.0089139
0.00898251
0.00906208
0.00915389
0.00925895
0.00937784
0.00951116
0.00965961
0.00982371
0.0100036
0.0101991
0.0104096
0.0106341
0.0108714
0.0111195
0.0113765
0.0116396
0.00885104
0.00883635
0.00881549
0.00879625
0.00877467
0.00875152
0.00872777
0.00870407
0.0086805
0.0086564
0.00863073
0.00860299
0.00857286
0.00854023
0.00850501
0.00846706
0.00842688
0.00838529
0.00834315
0.00830153
0.00826128
0.00822314
0.00818787
0.00815624
0.00812762
0.0081007
0.00807764
0.00805927
0.00804593
0.00803688
0.00803106
0.00803107
0.00803739
0.00805199
0.00807686
0.00811532
0.0081726
0.00825297
0.00835517
0.00847771
0.00862198
0.00878991
0.00898245
0.00919883
0.00943874
0.00970101
0.00998402
0.0102855
0.0106025
0.0109315
0.00890467
0.00889578
0.00888334
0.00886846
0.00885077
0.00883025
0.00880686
0.00878043
0.00875066
0.00871722
0.00867981
0.00863835
0.00859278
0.00854311
0.00848943
0.00843196
0.00837104
0.00830707
0.00824044
0.00817161
0.008101
0.00802909
0.0079564
0.00788349
0.00781091
0.00773946
0.00767051
0.0076053
0.00754625
0.00749497
0.00745136
0.00741126
0.00737841
0.00735506
0.00734285
0.00734354
0.00735895
0.0073914
0.00744258
0.00751556
0.00761629
0.0077532
0.00793433
0.00815167
0.00840695
0.00869747
0.00902098
0.00937443
0.00975409
0.0101551
0.00900651
0.00900803
0.00900644
0.00900182
0.00899397
0.00898268
0.00896773
0.00894884
0.00892575
0.00889819
0.00886591
0.00882871
0.00878643
0.00873888
0.00868593
0.00862746
0.00856334
0.00849347
0.00841773
0.00833605
0.0082484
0.00815479
0.00805538
0.00795054
0.00784066
0.00772656
0.00760935
0.00749043
0.00737167
0.00725506
0.00714282
0.00703698
0.0069383
0.00685004
0.00677572
0.00671786
0.00667461
0.00665006
0.00665012
0.00667751
0.00673576
0.00682433
0.00695229
0.00712292
0.00736199
0.00765838
0.00800791
0.00840485
0.00884419
0.00931955
0.00903564
0.00904754
0.00905751
0.0090652
0.00907029
0.00907255
0.00907169
0.00906744
0.00905951
0.00904761
0.00903146
0.00901075
0.00898521
0.0089545
0.00891818
0.00887591
0.00882733
0.00877198
0.00870937
0.00863893
0.00856022
0.00847273
0.00837591
0.0082693
0.00815248
0.0080252
0.00788733
0.00773903
0.00758084
0.00741386
0.00723992
0.00706184
0.00688372
0.00671069
0.00654537
0.00639033
0.00624892
0.00612795
0.00603809
0.00598467
0.00596896
0.00599643
0.00607352
0.00620088
0.00638245
0.00663679
0.00698267
0.00740359
0.00789178
0.00843809
0.00890277
0.00892204
0.00894107
0.00895918
0.00897603
0.00899131
0.00900474
0.00901603
0.00902486
0.00903092
0.00903388
0.00903334
0.00902888
0.00902013
0.00900665
0.00898798
0.00896366
0.00893312
0.00889605
0.00885123
0.00879812
0.00873593
0.00866385
0.00858098
0.00848613
0.00837851
0.00825694
0.00812032
0.00796758
0.00779779
0.00761031
0.00740498
0.00718257
0.00694525
0.00669951
0.00645315
0.00620992
0.00597734
0.00576445
0.00558027
0.00543417
0.00534504
0.00532366
0.00537474
0.00550335
0.00570581
0.00599902
0.00640664
0.00692142
0.00752768
0.00856846
0.00859148
0.00861632
0.00864194
0.00866781
0.00869354
0.00871877
0.00874316
0.00876638
0.0087881
0.00880795
0.00882555
0.00884053
0.00885245
0.00886084
0.0088653
0.00886555
0.00886054
0.00885024
0.00883369
0.00881001
0.00877808
0.00873713
0.00868635
0.00862415
0.00854956
0.00846129
0.0083577
0.00823704
0.00809747
0.00793718
0.00775422
0.00754667
0.00731285
0.00705174
0.00676407
0.00645934
0.0061436
0.00582588
0.00551878
0.00523818
0.00500269
0.00482973
0.00473609
0.00474796
0.00487262
0.00510852
0.00546096
0.00596318
0.00660811
0.00803341
0.00805782
0.008086
0.00811654
0.00814872
0.00818203
0.00821604
0.00825037
0.00828467
0.0083186
0.00835181
0.00838395
0.00841466
0.00844355
0.00847022
0.00849425
0.00851518
0.00853238
0.00854533
0.00855334
0.0085558
0.00855134
0.0085391
0.00851854
0.00848804
0.00844627
0.00839278
0.00832563
0.0082426
0.00814151
0.00802059
0.00787754
0.00770983
0.00751479
0.0072895
0.00703109
0.00673678
0.00640923
0.00605355
0.00567785
0.00529674
0.00493154
0.00460882
0.00435853
0.00421088
0.00418905
0.00431871
0.00460878
0.00505301
0.00570151
0.00732088
0.00734669
0.00737718
0.00741123
0.00744799
0.00748683
0.00752725
0.00756886
0.00761129
0.00765422
0.00769733
0.00774031
0.00778282
0.00782453
0.00786507
0.00790405
0.00794102
0.00797545
0.00800682
0.00803447
0.00805771
0.00807553
0.0080872
0.00809215
0.00808903
0.00807589
0.00805282
0.00801764
0.00796842
0.00790338
0.00782056
0.0077178
0.00759259
0.00744252
0.00726429
0.00705486
0.0068109
0.00652901
0.00620588
0.00584198
0.00544196
0.00501748
0.00459135
0.00419943
0.00388695
0.00370016
0.00367923
0.00385018
0.00423331
0.00483213
0.00646579
0.00649399
0.00652697
0.00656417
0.00660454
0.00664755
0.00669269
0.00673955
0.00678779
0.0068371
0.00688722
0.00693787
0.00698878
0.00703965
0.00709017
0.00713997
0.00718868
0.00723583
0.00728092
0.0073234
0.0073626
0.00739778
0.00742821
0.00745309
0.00747117
0.00748155
0.00748365
0.00747519
0.00745453
0.00742043
0.00737079
0.00730381
0.00721719
0.00710865
0.00697536
0.00681458
0.00662336
0.00639862
0.00613687
0.00583216
0.00548042
0.00508228
0.00464349
0.00418344
0.00374512
0.00339362
0.00319991
0.00322191
0.00349275
0.00402617
0.00551547
0.00554636
0.00558124
0.00562066
0.00566341
0.00570899
0.00575689
0.00580683
0.00585849
0.00591159
0.00596593
0.00602129
0.00607745
0.00613416
0.00619117
0.00624818
0.00630485
0.0063608
0.00641558
0.00646873
0.00651966
0.00656776
0.00661235
0.00665262
0.00668758
0.0067164
0.00673809
0.00675132
0.00675478
0.00674672
0.00672509
0.00668885
0.0066357
0.00656373
0.00647046
0.00635354
0.00621052
0.00603888
0.00583586
0.00559871
0.00531887
0.00499051
0.00461073
0.00417763
0.00370423
0.00324069
0.00288052
0.00272535
0.00285556
0.00331326
0.00454226
0.00457193
0.00460527
0.0046434
0.00468497
0.00472949
0.00477653
0.00482579
0.004877
0.00492994
0.00498452
0.00504054
0.00509784
0.00515625
0.00521556
0.00527554
0.00533594
0.00539643
0.00545667
0.00551624
0.00557469
0.00563147
0.005686
0.0057375
0.00578517
0.00582822
0.00586574
0.00589652
0.00591931
0.00593279
0.00593556
0.00592587
0.00590172
0.00586186
0.00580394
0.00572603
0.00562604
0.00550195
0.00535162
0.00517303
0.00496405
0.00471273
0.00441501
0.00406283
0.00364614
0.00316915
0.0026993
0.00237048
0.00231995
0.00265174
0.00363683
0.0036582
0.00368439
0.00371556
0.00375036
0.00378829
0.00382889
0.00387189
0.00391705
0.00396419
0.00401322
0.00406403
0.0041165
0.00417054
0.00422605
0.00428286
0.0043408
0.00439966
0.00445919
0.00451912
0.00457907
0.00463866
0.00469741
0.00475466
0.00480973
0.00486197
0.00491053
0.0049544
0.00499246
0.00502343
0.00504613
0.00505903
0.00506077
0.00504942
0.00502305
0.00498022
0.00491899
0.00483778
0.00473479
0.00460862
0.00445835
0.00427932
0.00406127
0.00379872
0.00347959
0.00307894
0.00259881
0.00214545
0.0019188
0.00207798
0.00285012
0.00286235
0.00287989
0.00290204
0.00292763
0.00295616
0.00298722
0.00302052
0.00305587
0.0030931
0.00313215
0.00317295
0.00321544
0.00325957
0.00330529
0.00335252
0.00340118
0.00345118
0.0035024
0.00355473
0.00360795
0.00366188
0.0037162
0.00377052
0.00382437
0.00387727
0.00392864
0.0039777
0.00402355
0.00406518
0.00410153
0.00413125
0.00415315
0.00416552
0.00416689
0.00415521
0.00412888
0.00408668
0.00402685
0.00394832
0.00385037
0.00373296
0.00358618
0.0034044
0.00318272
0.00289427
0.00249771
0.00200844
0.00163548
0.00161461
0.00218526
0.00219105
0.00220184
0.00221653
0.00223423
0.00225447
0.00227686
0.00230115
0.00232716
0.00235474
0.00238385
0.00241442
0.00244641
0.00247978
0.00251449
0.00255049
0.00258771
0.00262611
0.00266562
0.00270616
0.00274765
0.00278997
0.00283298
0.00287645
0.00292016
0.00296389
0.00300734
0.00305019
0.00309196
0.00313212
0.00317004
0.00320491
0.00323582
0.00326147
0.00328069
0.00329185
0.00329356
0.00328425
0.0032621
0.00322612
0.00317526
0.00310954
0.00302453
0.00291432
0.00277804
0.00259737
0.00232793
0.00190411
0.00144972
0.00126178
0.00163186
0.0016337
0.00163983
0.0016491
0.00166087
0.00167469
0.00169027
0.00170738
0.00172585
0.00174558
0.0017665
0.00178858
0.0018118
0.0018361
0.00186145
0.00188779
0.0019151
0.0019433
0.00197236
0.00200221