/*--------------------------------*- C++ -*----------------------------------*\
  =========                 |
  \\      /  F ield         | OpenFOAM: The Open Source CFD Toolbox
   \\    /   O peration     | Website:  https://openfoam.org
    \\  /    A nd           | Version:  9
     \\/     M anipulation  |
\*---------------------------------------------------------------------------*/
FoamFile
{
    format      ascii;
    class       volScalarField;
    location    "0.005";
    object      nut;
}
// * * * * * * * * * * * * * * * * * * * * * * * * * * * * * * * * * * * * * //

dimensions      [0 2 -1 0 0 0 0];

internalField   nonuniform List<scalar> 
10802
(
0.0141029
0.014116
0.0140977
0.0140837
0.0140373
0.0140017
0.0139641
0.0139352
0.0139041
0.0138665
0.0138338
0.0137973
0.0137586
0.0137176
0.0136742
0.0136284
0.0135803
0.0135298
0.0134769
0.0134226
0.013367
0.0133096
0.0132499
0.0131875
0.0131223
0.0130539
0.0129825
0.0129082
0.0128312
0.0127519
0.0126711
0.0125893
0.0125075
0.0124266
0.0123475
0.0122712
0.0121986
0.0121305
0.0120674
0.01201
0.0119584
0.0119129
0.0118735
0.0118399
0.0118121
0.0117895
0.0117717
0.0117584
0.0117491
0.0117434
0.0117408
0.0117409
0.0117435
0.011748
0.0117541
0.0117617
0.0117705
0.0117802
0.0117907
0.0118017
0.0118132
0.0118249
0.0118367
0.0118486
0.0118605
0.0118723
0.0118838
0.0118951
0.0119062
0.0119169
0.0119273
0.0119374
0.011947
0.0119563
0.0119652
0.0119737
0.0119818
0.0119895
0.0119968
0.0120038
0.0140998
0.0141148
0.0141005
0.0140841
0.01404
0.0140015
0.0139637
0.0139372
0.0139025
0.013863
0.0138302
0.013792
0.0137518
0.013709
0.0136635
0.0136153
0.0135644
0.0135107
0.0134542
0.0133962
0.0133368
0.013275
0.0132101
0.0131416
0.0130692
0.0129927
0.0129121
0.0128276
0.0127394
0.0126481
0.0125545
0.0124597
0.0123647
0.012271
0.01218
0.0120929
0.0120113
0.0119361
0.0118685
0.0118089
0.011758
0.0117158
0.0116822
0.0116569
0.0116392
0.0116285
0.0116242
0.0116258
0.011632
0.0116425
0.0116565
0.0116733
0.0116924
0.0117133
0.0117356
0.0117589
0.0117828
0.0118071
0.0118316
0.0118561
0.0118804
0.0119045
0.011928
0.0119511
0.0119735
0.0119952
0.0120162
0.0120364
0.0120558
0.0120745
0.0120923
0.0121094
0.0121256
0.012141
0.0121557
0.0121696
0.0121828
0.0121952
0.012207
0.0122181
0.0140973
0.0141152
0.0141007
0.0140845
0.014043
0.0140008
0.0139637
0.0139369
0.0139032
0.0138615
0.0138279
0.0137877
0.0137459
0.0137013
0.0136538
0.0136034
0.0135501
0.013494
0.0134355
0.0133748
0.0133119
0.0132457
0.0131754
0.0131005
0.0130206
0.0129354
0.0128449
0.0127492
0.0126487
0.0125442
0.0124366
0.0123272
0.0122179
0.0121104
0.0120067
0.0119091
0.0118192
0.0117391
0.0116699
0.0116129
0.0115682
0.0115356
0.0115147
0.0115048
0.011506
0.0115156
0.011533
0.0115572
0.0115867
0.0116206
0.0116579
0.0116977
0.0117392
0.0117819
0.0118251
0.0118683
0.0119113
0.0119536
0.0119951
0.0120355
0.0120748
0.0121128
0.0121494
0.0121845
0.0122182
0.0122505
0.0122812
0.0123105
0.0123383
0.0123648
0.0123898
0.0124135
0.012436
0.0124571
0.0124771
0.0124959
0.0125137
0.0125303
0.012546
0.0125607
0.0140953
0.0141158
0.0141002
0.014085
0.0140438
0.0139999
0.0139658
0.0139368
0.0139031
0.0138601
0.0138257
0.0137835
0.0137403
0.0136939
0.0136446
0.0135921
0.0135364
0.013478
0.0134174
0.0133547
0.0132885
0.0132178
0.0131419
0.0130603
0.0129725
0.0128781
0.0127771
0.0126695
0.0125558
0.0124369
0.0123141
0.0121892
0.0120645
0.0119427
0.0118266
0.0117192
0.0116235
0.0115419
0.0114764
0.0114281
0.0113967
0.0113821
0.0113844
0.0114006
0.0114295
0.0114693
0.0115181
0.0115741
0.0116355
0.0117008
0.0117685
0.0118376
0.011907
0.0119759
0.0120437
0.0121099
0.0121741
0.0122361
0.0122957
0.0123527
0.0124072
0.012459
0.0125083
0.0125549
0.0125992
0.0126409
0.0126804
0.0127176
0.0127526
0.0127856
0.0128167
0.0128458
0.0128732
0.0128988
0.0129229
0.0129455
0.0129666
0.0129864
0.0130049
0.0130222
0.0140938
0.0141183
0.0140998
0.0140854
0.0140439
0.0139991
0.0139682
0.0139369
0.0139032
0.0138597
0.0138239
0.0137797
0.0137352
0.0136872
0.0136362
0.0135817
0.0135242
0.0134641
0.0134022
0.0133369
0.0132669
0.0131914
0.0131098
0.0130213
0.0129253
0.0128213
0.0127092
0.0125889
0.0124611
0.0123268
0.0121876
0.012046
0.011905
0.0117685
0.0116404
0.0115252
0.011427
0.0113495
0.0112946
0.0112634
0.0112557
0.0112707
0.0113062
0.0113597
0.0114281
0.0115088
0.0115986
0.011695
0.0117954
0.0118977
0.0120002
0.0121016
0.0122007
0.0122967
0.0123891
0.0124775
0.0125616
0.0126414
0.0127168
0.0127879
0.0128547
0.0129175
0.0129764
0.0130316
0.0130832
0.0131315
0.0131766
0.0132187
0.013258
0.0132948
0.013329
0.0133609
0.0133907
0.0134185
0.0134443
0.0134684
0.0134909
0.0135118
0.0135312
0.0135493
0.0140938
0.0141199
0.0140991
0.0140859
0.014044
0.0139982
0.0139691
0.0139372
0.0139033
0.0138599
0.0138224
0.0137762
0.0137307
0.0136812
0.0136285
0.0135725
0.0135135
0.0134528
0.013389
0.0133207
0.0132468
0.0131665
0.013079
0.0129835
0.0128791
0.0127652
0.0126415
0.012508
0.0123652
0.0122145
0.0120579
0.0118986
0.0117407
0.0115894
0.0114505
0.0113302
0.0112342
0.0111672
0.011131
0.0111289
0.0111567
0.0112133
0.0112948
0.0113973
0.011516
0.0116464
0.0117843
0.011926
0.0120684
0.0122092
0.0123463
0.0124785
0.0126047
0.0127244
0.0128372
0.0129431
0.0130421
0.0131344
0.0132202
0.0132998
0.0133737
0.0134421
0.0135054
0.013564
0.0136182
0.0136682
0.0137145
0.0137574
0.0137969
0.0138336
0.0138674
0.0138987
0.0139277
0.0139545
0.0139793
0.0140023
0.0140235
0.0140432
0.0140614
0.0140783
0.0140922
0.0141207
0.0140984
0.0140864
0.0140439
0.0139974
0.0139695
0.0139377
0.0139036
0.0138606
0.0138212
0.0137731
0.0137267
0.0136757
0.0136217
0.0135645
0.0135051
0.0134433
0.0133773
0.0133058
0.0132281
0.013143
0.0130497
0.0129471
0.0128341
0.0127101
0.0125745
0.0124271
0.0122687
0.0121007
0.0119258
0.0117479
0.0115725
0.0114068
0.0112588
0.0111373
0.0110501
0.0110015
0.0109968
0.0110336
0.0111099
0.011221
0.0113609
0.0115225
0.0116991
0.0118842
0.0120724
0.0122594
0.0124417
0.0126169
0.0127832
0.0129397
0.0130857
0.0132213
0.0133465
0.0134618
0.0135675
0.0136643
0.0137528
0.0138336
0.0139073
0.0139745
0.0140358
0.0140917
0.0141427
0.0141892
0.0142316
0.0142704
0.0143058
0.0143382
0.0143678
0.014395
0.0144198
0.0144426
0.0144635
0.0144826
0.0145002
0.0145164
0.0145312
0.0145449
0.0140902
0.014121
0.0140976
0.0140869
0.0140438
0.0139966
0.0139697
0.0139386
0.013904
0.0138615
0.0138202
0.0137705
0.0137232
0.0136709
0.0136159
0.0135581
0.0134985
0.0134352
0.0133668
0.0132923
0.0132108
0.013121
0.0130219
0.0129122
0.0127907
0.0126564
0.0125085
0.0123469
0.0121722
0.0119862
0.011792
0.0115948
0.0114017
0.011222
0.0110672
0.0109496
0.0108778
0.0108587
0.0108955
0.0109859
0.0111242
0.011302
0.0115095
0.0117363
0.0119733
0.0122125
0.0124476
0.012674
0.0128884
0.0130888
0.0132744
0.0134446
0.0135999
0.0137407
0.0138679
0.0139824
0.0140853
0.0141775
0.0142601
0.0143339
0.0143999
0.0144589
0.0145117
0.0145588
0.014601
0.0146388
0.0146726
0.014703
0.0147302
0.0147547
0.0147767
0.0147965
0.0148143
0.0148304
0.0148449
0.014858
0.0148699
0.0148807
0.0148904
0.0148992
0.0140879
0.0141211
0.0140966
0.0140874
0.0140436
0.0139959
0.0139701
0.01394
0.0139045
0.0138626
0.0138194
0.0137684
0.0137203
0.0136668
0.0136112
0.0135535
0.0134931
0.0134281
0.0133574
0.01328
0.0131948
0.0131005
0.0129957
0.012879
0.0127489
0.0126042
0.012444
0.0122678
0.0120764
0.0118717
0.0116576
0.0114403
0.0112292
0.0110365
0.0108776
0.0107688
0.0107209
0.0107428
0.010835
0.0109923
0.0112044
0.0114577
0.0117376
0.0120304
0.0123247
0.0126115
0.0128844
0.0131392
0.0133737
0.0135868
0.0137788
0.0139502
0.0141024
0.0142368
0.0143549
0.0144584
0.0145488
0.0146275
0.0146959
0.0147553
0.0148068
0.0148513
0.0148898
0.0149231
0.0149518
0.0149766
0.014998
0.0150164
0.0150322
0.0150458
0.0150576
0.0150677
0.0150764
0.0150838
0.0150902
0.0150957
0.0151004
0.0151044
0.0151078
0.0151107
0.0140855
0.0141208
0.0140955
0.0140877
0.0140433
0.013996
0.013971
0.013942
0.0139051
0.013864
0.0138189
0.013767
0.0137179
0.0136636
0.0136079
0.0135502
0.0134887
0.0134221
0.0133492
0.013269
0.0131802
0.0130815
0.0129711
0.0128476
0.012709
0.012554
0.0123812
0.0121903
0.0119818
0.011758
0.0115233
0.0112854
0.0110562
0.0108515
0.0106919
0.0105979
0.0105839
0.0106582
0.0108189
0.0110553
0.0113502
0.0116832
0.012035
0.0123888
0.0127317
0.0130547
0.0133523
0.0136217
0.0138619
0.0140736
0.0142583
0.0144181
0.0145551
0.0146719
0.0147708
0.0148539
0.0149234
0.014981
0.0150285
0.0150674
0.0150989
0.0151242
0.0151442
0.0151598
0.0151717
0.0151806
0.0151868
0.0151908
0.0151931
0.0151939
0.0151936
0.0151924
0.0151905
0.0151882
0.0151854
0.0151824
0.0151792
0.0151758
0.0151724
0.0151689
0.0140829
0.0141202
0.0140941
0.0140875
0.014043
0.0139978
0.0139731
0.0139441
0.0139058
0.0138655
0.0138187
0.0137663
0.0137162
0.0136614
0.0136059
0.0135477
0.0134851
0.0134168
0.0133419
0.013259
0.0131669
0.0130639
0.0129483
0.012818
0.0126711
0.0125058
0.0123207
0.0121149
0.0118891
0.0116457
0.01139
0.0111311
0.0108837
0.0106681
0.010512
0.0104387
0.0104684
0.0106075
0.0108488
0.0111737
0.0115559
0.011968
0.012386
0.0127909
0.0131698
0.0135148
0.013822
0.0140908
0.0143221
0.0145186
0.0146832
0.0148195
0.0149308
0.0150204
0.0150915
0.0151468
0.0151888
0.0152196
0.0152413
0.0152553
0.015263
0.0152654
0.0152638
0.015259
0.015252
0.0152432
0.0152331
0.0152219
0.0152102
0.0151981
0.0151859
0.0151736
0.0151615
0.0151495
0.0151377
0.0151263
0.0151153
0.0151046
0.0150945
0.0150847
0.0140804
0.0141195
0.0140926
0.0140871
0.0140426
0.013998
0.0139752
0.0139462
0.0139067
0.0138672
0.0138188
0.0137662
0.0137149
0.0136602
0.0136046
0.0135458
0.0134821
0.0134124
0.0133355
0.0132502
0.0131549
0.0130479
0.0129271
0.0127903
0.0126354
0.01246
0.0122625
0.0120419
0.0117988
0.0115357
0.0112586
0.0109784
0.0107125
0.0104869
0.0103368
0.0102922
0.0103756
0.0105909
0.0109231
0.0113424
0.0118123
0.0122982
0.0127724
0.0132154
0.0136155
0.013967
0.0142686
0.0145222
0.0147311
0.0149
0.0150336
0.0151367
0.0152137
0.015269
0.0153061
0.0153283
0.0153383
0.015338
0.0153303
0.015317
0.0152993
0.0152783
0.015255
0.0152303
0.0152046
0.0151784
0.0151521
0.0151261
0.0151006
0.0150758
0.0150518
0.0150287
0.0150065
0.0149854
0.0149653
0.0149462
0.0149281
0.014911
0.0148949
0.0148797
0.0140778
0.0141186
0.014091
0.0140863
0.014042
0.0139976
0.0139773
0.0139482
0.0139078
0.0138689
0.0138192
0.0137665
0.0137143
0.0136597
0.0136039
0.0135444
0.0134798
0.0134088
0.0133301
0.0132424
0.0131442
0.0130333
0.0129076
0.0127646
0.0126018
0.0124166
0.012207
0.0119718
0.0117113
0.0114284
0.0111298
0.010828
0.0105437
0.0103089
0.0101674
0.0101599
0.0103059
0.0106074
0.0110381
0.0115539
0.0121075
0.0126582
0.0131762
0.0136428
0.0140489
0.0143919
0.0146738
0.0148993
0.0150743
0.0152055
0.0152993
0.0153617
0.0153984
0.0154141
0.0154126
0.0153981
0.0153739
0.0153423
0.0153054
0.0152647
0.0152217
0.0151775
0.0151329
0.0150886
0.0150451
0.0150027
0.0149617
0.0149224
0.0148848
0.014849
0.014815
0.0147829
0.0147526
0.0147241
0.0146973
0.0146722
0.0146486
0.0146266
0.014606
0.0145867
0.0140752
0.0141176
0.0140893
0.0140854
0.0140412
0.0139968
0.0139795
0.0139502
0.013909
0.0138707
0.0138199
0.0137671
0.0137142
0.0136597
0.0136036
0.0135436
0.0134781
0.0134058
0.0133255
0.0132357
0.0131346
0.0130201
0.0128898
0.0127408
0.0125704
0.0123757
0.0121543
0.0119047
0.0116271
0.0113245
0.0110043
0.0106808
0.010378
0.0101349
0.0100064
0.0100382
0.0102569
0.0106539
0.0111876
0.0117987
0.0124292
0.0130334
0.0135814
0.0140571
0.0144549
0.014776
0.0150261
0.0152129
0.0153449
0.0154308
0.0154785
0.0154953
0.0154872
0.0154603
0.0154194
0.0153682
0.0153097
0.0152466
0.0151809
0.015114
0.0150474
0.0149819
0.0149181
0.0148567
0.0147978
0.0147418
0.0146887
0.0146387
0.0145916
0.0145475
0.0145061
0.0144674
0.0144312
0.0143973
0.0143655
0.0143358
0.014308
0.0142821
0.0142578
0.0142352
0.0140727
0.0141166
0.0140876
0.0140844
0.0140402
0.0139958
0.0139808
0.0139522
0.0139103
0.0138725
0.0138207
0.0137678
0.0137144
0.0136599
0.0136036
0.0135431
0.0134768
0.0134034
0.0133216
0.0132298
0.0131262
0.0130083
0.0128736
0.012719
0.0125413
0.0123374
0.0121045
0.0118409
0.0115465
0.0112245
0.0108827
0.0105375
0.0102161
0.00996489
0.00985098
0.00992959
0.0102281
0.0107266
0.0113648
0.012067
0.0127652
0.0134109
0.0139756
0.014447
0.0148239
0.0151118
0.0153202
0.01546
0.0155423
0.0155776
0.0155743
0.0155424
0.015489
0.0154196
0.0153395
0.0152523
0.0151614
0.0150691
0.0149774
0.0148876
0.0148007
0.0147175
0.0146385
0.0145642
0.014494
0.0144278
0.0143653
0.0143064
0.0142508
0.0141984
0.014149
0.0141025
0.0140588
0.0140178
0.0139792
0.013943
0.013909
0.0138773
0.0138477
0.0138201
0.0140703
0.0141154
0.0140859
0.0140832
0.0140391
0.0139949
0.0139812
0.013954
0.0139116
0.0138743
0.0138216
0.0137687
0.013715
0.0136604
0.0136039
0.0135429
0.0134759
0.0134016
0.0133184
0.0132249
0.0131188
0.0129978
0.0128589
0.012699
0.0125144
0.0123017
0.0120578
0.0117806
0.0114698
0.0111286
0.0107656
0.0103986
0.0100584
0.00979912
0.00970168
0.00983151
0.0102158
0.0108198
0.0115619
0.0123492
0.0131054
0.0137807
0.0143499
0.0148053
0.0151507
0.0153963
0.0155554
0.0156419
0.0156694
0.0156499
0.0155953
0.0155148
0.0154162
0.0153057
0.0151885
0.0150686
0.014949
0.014832
0.0147193
0.0146121
0.0145103
0.0144134
0.0143214
0.0142338
0.0141507
0.0140717
0.0139969
0.013926
0.0138589
0.0137955
0.0137358
0.0136795
0.0136265
0.0135766
0.0135297
0.0134857
0.0134444
0.0134057
0.0133695
0.0133356
0.014068
0.0141143
0.0140842
0.0140819
0.0140379
0.0139943
0.0139829
0.0139558
0.0139129
0.0138761
0.0138226
0.0137696
0.0137156
0.0136611
0.0136044
0.0135431
0.0134755
0.0134002
0.0133159
0.0132207
0.0131124
0.0129885
0.0128458
0.0126808
0.0124897
0.0122686
0.0120141
0.0117238
0.0113971
0.0110372
0.0106532
0.0102647
0.00990556
0.00963767
0.00955785
0.00974207
0.0102164
0.0109281
0.0117715
0.012637
0.0134413
0.0141356
0.0146987
0.0151285
0.0154341
0.0156305
0.0157347
0.015764
0.0157335
0.015659
0.0155524
0.0154239
0.015282
0.0151332
0.0149828
0.0148348
0.0146919
0.0145554
0.0144246
0.0142993
0.0141791
0.0140641
0.013954
0.0138488
0.0137484
0.0136529
0.0135621
0.013476
0.0133943
0.0133171
0.0132442
0.0131755
0.0131107
0.0130498
0.0129925
0.0129388
0.0128884
0.0128412
0.012797
0.0127557
0.0140661
0.0141131
0.0140826
0.0140806
0.0140366
0.0139938
0.0139846
0.0139575
0.0139141
0.0138778
0.0138235
0.0137705
0.0137164
0.0136618
0.013605
0.0135434
0.0134754
0.0133993
0.0133139
0.0132172
0.0131069
0.0129803
0.012834
0.0126643
0.0124671
0.0122381
0.0119735
0.0116705
0.0113285
0.0109505
0.0105461
0.0101362
0.00975799
0.00948046
0.00941878
0.00965906
0.0102262
0.0110459
0.011987
0.0129235
0.0137672
0.0144711
0.0150195
0.015416
0.0156755
0.0158175
0.0158633
0.0158316
0.015743
0.0156132
0.0154556
0.0152815
0.0150998
0.0149174
0.0147395
0.0145683
0.0144031
0.0142435
0.0140891
0.0139402
0.0137966
0.0136585
0.013526
0.0133991
0.013278
0.0131626
0.0130528
0.0129487
0.0128501
0.0127569
0.012669
0.0125861
0.0125082
0.0124349
0.0123662
0.0123017
0.0122414
0.0121849
0.0121321
0.0120827
0.0140642
0.0141119
0.014081
0.0140793
0.0140354
0.0139934
0.0139854
0.0139583
0.0139153
0.0138795
0.0138244
0.0137715
0.0137173
0.0136627
0.0136059
0.013544
0.0134755
0.0133988
0.0133124
0.0132143
0.0131022
0.0129731
0.0128236
0.0126495
0.0124465
0.01221
0.0119358
0.0116208
0.0112641
0.0108686
0.0104443
0.0100135
0.00961604
0.00932731
0.009283
0.0095801
0.0102412
0.011168
0.0122026
0.0132034
0.0140788
0.0147849
0.0153118
0.0156694
0.015878
0.0159622
0.0159456
0.0158535
0.0157066
0.0155226
0.0153164
0.0151001
0.0148832
0.0146732
0.0144693
0.0142706
0.0140769
0.0138883
0.013705
0.0135274
0.0133559
0.0131907
0.0130321
0.0128803
0.0127355
0.0125977
0.0124668
0.012343
0.0122259
0.0121154
0.0120114
0.0119137
0.0118219
0.0117358
0.0116552
0.0115798
0.0115093
0.0114435
0.011382
0.0113247
0.0140626
0.0141108
0.0140794
0.0140779
0.0140341
0.0139932
0.0139855
0.0139586
0.0139165
0.0138812
0.0138253
0.0137725
0.0137182
0.0136637
0.0136068
0.0135448
0.0134759
0.0133986
0.0133113
0.0132121
0.0130983
0.012967
0.0128144
0.0126362
0.0124278
0.0121843
0.011901
0.0115746
0.0112038
0.0107916
0.010348
0.0098966
0.00948003
0.00917811
0.00915078
0.00950329
0.0102578
0.0112899
0.0124137
0.013473
0.0143739
0.0150765
0.0155769
0.0158916
0.0160463
0.0160702
0.0159917
0.0158388
0.0156343
0.0153979
0.0151459
0.0148911
0.014646
0.0144056
0.0141692
0.0139367
0.0137087
0.0134858
0.0132687
0.0130581
0.0128546
0.0126589
0.0124714
0.0122923
0.0121219
0.0119602
0.0118072
0.0116628
0.0115268
0.0113989
0.0112789
0.0111664
0.0110612
0.0109628
0.010871
0.0107853
0.0107055
0.0106311
0.0105619
0.0104975
0.0140612
0.0141096
0.0140779
0.0140766
0.0140329
0.0139932
0.0139854
0.0139585
0.0139176
0.0138828
0.0138262
0.0137735
0.0137191
0.0136647
0.0136078
0.0135457
0.0134765
0.0133987
0.0133107
0.0132103
0.0130951
0.0129617
0.0128063
0.0126244
0.012411
0.0121608
0.0118691
0.0115318
0.0111476
0.0107193
0.0102572
0.00978583
0.00935032
0.00903383
0.00902111
0.00942653
0.0102729
0.0114077
0.0126166
0.0137297
0.0146514
0.0153463
0.0158171
0.0160865
0.0161862
0.016148
0.0160077
0.0157949
0.0155349
0.0152495
0.014956
0.0146723
0.0143916
0.0141132
0.0138374
0.013565
0.013297
0.0130348
0.0127794
0.0125322
0.0122939
0.0120654
0.0118472
0.0116396
0.011443
0.0112572
0.0110823
0.0109179
0.0107638
0.0106197
0.010485
0.0103595
0.0102425
0.0101337
0.0100326
0.00993861
0.00985139
0.00977048
0.00969545
0.0096259
0.0140599
0.0141085
0.0140765
0.0140752
0.0140318
0.0139938
0.0139852
0.0139583
0.0139187
0.0138843
0.013827
0.0137745
0.01372
0.0136658
0.0136089
0.0135467
0.0134772
0.013399
0.0133103
0.013209
0.0130925
0.0129572
0.0127992
0.0126138
0.0123958
0.0121395
0.0118397
0.0114922
0.0110953
0.0106517
0.0101719
0.00968117
0.00922711
0.00889538
0.00889291
0.00934813
0.0102838
0.0115183
0.0128088
0.0139719
0.014911
0.0155958
0.0160349
0.0162572
0.0162999
0.0162009
0.0159995
0.0157284
0.0154164
0.0150873
0.0147611
0.014437
0.0141136
0.0137909
0.0134701
0.0131526
0.0128402
0.012535
0.0122385
0.0119523
0.0116776
0.0114154
0.0111664
0.0109308
0.0107089
0.0105006
0.0103056
0.0101236
0.00995416
0.00979665
0.00965049
0.00951507
0.00938974
0.00927386
0.00916679
0.00906792
0.00897668
0.0088925
0.00881485
0.00874324
0.0140588
0.0141074
0.0140751
0.0140739
0.0140308
0.0139947
0.0139849
0.013958
0.0139198
0.0138857
0.0138278
0.0137755
0.013721
0.0136668
0.01361
0.0135477
0.013478
0.0133994
0.0133102
0.0132081
0.0130903
0.0129534
0.0127931
0.0126045
0.0123822
0.0121202
0.0118128
0.0114557
0.0110468
0.0105887
0.010092
0.0095826
0.00911058
0.00876301
0.00876589
0.00926715
0.0102883
0.0116195
0.0129883
0.0141987
0.0151536
0.015827
0.0162339
0.0164094
0.0163937
0.0162345
0.0159724
0.0156442
0.015282
0.0149132
0.0145463
0.0141779
0.0138077
0.0134367
0.0130669
0.0127008
0.0123412
0.0119907
0.0116515
0.0113256
0.0110146
0.0107195
0.0104412
0.0101798
0.00993555
0.00970811
0.00949705
0.00930177
0.00912152
0.00895549
0.00880282
0.00866262
0.00853402
0.00841615
0.00830818
0.00820931
0.0081188
0.00803595
0.0079601
0.00789066
0.0140577
0.0141063
0.0140739
0.0140727
0.0140299
0.0139957
0.0139846
0.0139576
0.0139208
0.0138871
0.0138286
0.0137765
0.0137219
0.0136679
0.0136112
0.0135488
0.013479
0.0134001
0.0133104
0.0132076
0.0130887
0.0129502
0.0127878
0.0125963
0.01237
0.0121027
0.0117883
0.0114221
0.0110019
0.0105299
0.0100172
0.00948998
0.00900058
0.00863636
0.00864072
0.00918308
0.0102853
0.0117096
0.0131541
0.0144101
0.0153798
0.0160418
0.016417
0.0165468
0.0164753
0.0162556
0.0159332
0.0155478
0.0151337
0.014728
0.0143174
0.013901
0.0134798
0.0130563
0.0126339
0.0122164
0.0118073
0.0114102
0.011028
0.0106631
0.0103173
0.00999199
0.00968779
0.00940498
0.00914338
0.00890247
0.00868146
0.00847939
0.00829514
0.00812751
0.00797527
0.00783722
0.00771214
0.0075989
0.00749641
0.00740366
0.00731973
0.00724375
0.00717494
0.0071126
0.0140568
0.0141053
0.0140726
0.0140715
0.014029
0.0139965
0.0139842
0.0139571
0.0139218
0.0138884
0.0138293
0.0137774
0.0137228
0.013669
0.0136124
0.01355
0.01348
0.0134008
0.0133107
0.0132073
0.0130874
0.0129476
0.0127833
0.0125891
0.0123592
0.0120869
0.011766
0.0113913
0.0109603
0.0104754
0.00994731
0.00940313
0.00889704
0.00851566
0.00851792
0.00909564
0.0102741
0.0117877
0.0133054
0.0146062
0.0155909
0.0162422
0.0165865
0.0166707
0.0165452
0.016268
0.0158895
0.0154544
0.0150023
0.0145468
0.0140836
0.0136122
0.0131346
0.0126545
0.0121765
0.0117054
0.0112459
0.0108024
0.0103784
0.00997698
0.00960017
0.00924937
0.0089252
0.00862768
0.00835626
0.00810999
0.00788756
0.00768745
0.007508
0.00734751
0.00720424
0.00707655
0.00696284
0.00686164
0.00677158
0.00669142
0.00662003
0.00655642
0.00649968
0.00644902
0.014056
0.0141043
0.0140715
0.0140703
0.0140282
0.0139968
0.0139837
0.0139566
0.0139228
0.0138897
0.0138299
0.0137783
0.0137237
0.01367
0.0136135
0.0135512
0.013481
0.0134017
0.0133112
0.0132072
0.0130865
0.0129455
0.0127794
0.0125828
0.0123495
0.0120727
0.0117457
0.011363
0.010922
0.0104247
0.00988218
0.00932184
0.00879981
0.00840142
0.00839753
0.00900489
0.0102542
0.011853
0.0134421
0.0147874
0.0157884
0.0164309
0.016746
0.0167844
0.0166072
0.0162734
0.015838
0.0153503
0.0148553
0.014351
0.0138345
0.0133067
0.0127711
0.0122331
0.0116986
0.0111739
0.010665
0.0101772
0.00971495
0.00928173
0.00887994
0.00851095
0.0081752
0.00787224
0.00760096
0.00735965
0.00714625
0.00695845
0.00679383
0.00664999
0.00652459
0.00641544
0.00632053
0.00623803
0.00616631
0.00610393
0.00604962
0.00600229
0.00596099
0.00592488
0.0140553
0.0141034
0.0140704
0.0140691
0.0140275
0.0139968
0.0139832
0.013956
0.0139237
0.0138909
0.0138305
0.0137792
0.0137245
0.0136711
0.0136147
0.0135523
0.0134821
0.0134026
0.0133118
0.0132073
0.0130859
0.0129438
0.0127761
0.0125774
0.0123409
0.0120599
0.0117272
0.0113371
0.0108867
0.0103777
0.0098215
0.00924584
0.00870856
0.00829367
0.00828003
0.00891173
0.0102258
0.0119057
0.0135643
0.0149545
0.0159735
0.0166101
0.0169009
0.016893
0.0166668
0.0162782
0.015788
0.0152508
0.0147089
0.0141521
0.013579
0.0129922
0.0123968
0.0117998
0.0112088
0.0106316
0.0100758
0.00954759
0.00905243
0.00859429
0.00817581
0.00779823
0.00746149
0.0071644
0.00690483
0.00668001
0.00648673
0.00632159
0.00618121
0.00606234
0.00596199
0.00587744
0.00580629
0.00574647
0.00569616
0.00565386
0.00561825
0.00558826
0.00556297
0.00554161
0.0140547
0.0141025
0.0140693
0.0140681
0.0140268
0.0139965
0.0139827
0.0139555
0.0139246
0.013892
0.0138311
0.01378
0.0137253
0.0136721
0.0136158
0.0135535
0.0134832
0.0134035
0.0133125
0.0132076
0.0130855
0.0129424
0.0127734
0.0125726
0.0123334
0.0120484
0.0117105
0.0113135
0.0108541
0.0103342
0.00976499
0.00917484
0.00862304
0.00819197
0.00816623
0.00881694
0.0101894
0.0119458
0.0136723
0.0151079
0.0161468
0.0167793
0.0170451
0.0170047
0.016728
0.0162848
0.0157415
0.0151586
0.0145643
0.0139513
0.0133191
0.0126717
0.012016
0.0113605
0.0107145
0.0100879
0.00948958
0.00892706
0.00840649
0.00793242
0.00750755
0.00713272
0.00680698
0.00652783
0.00629166
0.00609409
0.00593041
0.00579592
0.00568617
0.0055971
0.00552516
0.00546727
0.00542085
0.00538375
0.00535421
0.00533077
0.00531224
0.0052977
0.00528636
0.0052776
0.0140541
0.0141017
0.0140684
0.014067
0.0140263
0.0139962
0.0139822
0.0139548
0.0139255
0.013893
0.0138316
0.0137808
0.0137261
0.0136731
0.0136169
0.0135546
0.0134843
0.0134045
0.0133132
0.013208
0.0130854
0.0129414
0.0127711
0.0125684
0.0123266
0.0120381
0.0116953
0.0112918
0.0108241
0.0102939
0.00971239
0.00910854
0.00854309
0.00809599
0.00805674
0.00872126
0.0101457
0.0119741
0.0137669
0.0152489
0.0163104
0.0169429
0.01719
0.0171132
0.016789
0.0162921
0.0156944
0.015064
0.0144172
0.0137473
0.0130551
0.012347
0.0116334
0.0109233
0.0102274
0.00955671
0.00892161
0.00833135
0.00779339
0.00731293
0.00689251
0.00653202
0.0062289
0.00597863
0.0057754
0.00561277
0.00548433
0.00538406
0.00530661
0.0052474
0.00520263
0.0051692
0.00514462
0.00512696
0.00511463
0.00510639
0.0051013
0.00509974
0.00510027
0.00510159
0.0140536
0.0141009
0.0140675
0.0140661
0.0140257
0.0139958
0.0139817
0.0139542
0.0139263
0.0138941
0.0138321
0.0137816
0.0137269
0.013674
0.0136179
0.0135557
0.0134854
0.0134055
0.0133141
0.0132085
0.0130854
0.0129406
0.0127691
0.0125649
0.0123207
0.0120289
0.0116815
0.011272
0.0107965
0.0102565
0.00966345
0.00904663
0.0084684
0.00800548
0.00795192
0.00862552
0.010096
0.0119915
0.0138489
0.0153783
0.0164648
0.0171005
0.0173315
0.0172221
0.0168527
0.0163028
0.0156497
0.0149718
0.0142723
0.0135453
0.0127985
0.0120365
0.0112684
0.0105056
0.0097612
0.00904866
0.00838072
0.00776861
0.0072211
0.00674369
0.00633818
0.00600262
0.00573183
0.00551839
0.00535376
0.00522929
0.00513698
0.00506987
0.00502216
0.00498922
0.00496744
0.00495396
0.00494663
0.00494614
0.00494794
0.00495114
0.00495567
0.00496135
0.00496775
0.00497456
0.0140532
0.0141003
0.0140666
0.0140651
0.0140253
0.0139955
0.0139811
0.0139536
0.0139271
0.013895
0.0138326
0.0137823
0.0137276
0.0136749
0.0136189
0.0135568
0.0134864
0.0134065
0.0133149
0.013209
0.0130855
0.0129401
0.0127676
0.0125618
0.0123155
0.0120206
0.0116691
0.0112539
0.0107711
0.010222
0.00961791
0.00898882
0.00839866
0.00792085
0.0078514
0.00853071
0.0100413
0.0119991
0.0139195
0.0154968
0.0166109
0.0172533
0.0174718
0.0173343
0.0169228
0.0163202
0.0156084
0.0148854
0.0141352
0.013361
0.0125628
0.011747
0.0109248
0.0101104
0.00931945
0.00856828
0.00787233
0.00724497
0.00669615
0.00623121
0.00585019
0.00554813
0.00531619
0.00514342
0.00501843
0.00493068
0.00487117
0.00483263
0.00480949
0.0047974
0.00479566
0.00479841
0.0048035
0.00481118
0.00482051
0.00483081
0.00484161
0.00485259
0.00486351
0.00487423
0.0140528
0.0140997
0.0140658
0.0140642
0.0140249
0.0139951
0.0139806
0.013953
0.0139278
0.0138959
0.013833
0.013783
0.0137283
0.0136758
0.0136199
0.0135578
0.0134874
0.0134075
0.0133158
0.0132097
0.0130858
0.0129397
0.0127663
0.0125592
0.0123109
0.0120132
0.0116578
0.0112374
0.0107478
0.01019
0.00957554
0.00893482
0.00833356
0.00784199
0.0077553
0.00843792
0.0099829
0.0119981
0.0139796
0.0156054
0.0167495
0.0174022
0.0176128
0.0174516
0.017002
0.0163488
0.0155753
0.0148121
0.0140212
0.0132002
0.0123509
0.0114818
0.0106065
0.00974188
0.00890675
0.00812048
0.00740149
0.00676542
0.00622308
0.00577877
0.00542957
0.00516623
0.00497551
0.0048428
0.00475433
0.00469842
0.00466581
0.00464978
0.00464835
0.00465259
0.00466062
0.00467198
0.00468531
0.0046997
0.00471455
0.00472946
0.00474414
0.0047584
0.00477214
0.00478527
0.0140525
0.0140992
0.0140651
0.0140634
0.0140245
0.0139947
0.0139801
0.0139523
0.0139284
0.0138967
0.0138334
0.0137837
0.0137289
0.0136766
0.0136208
0.0135588
0.0134884
0.0134084
0.0133166
0.0132103
0.0130861
0.0129395
0.0127653
0.0125569
0.0123068
0.0120066
0.0116476
0.0112224
0.0107263
0.0101604
0.00953613
0.00888437
0.00827267
0.00776868
0.00766487
0.00834798
0.00992201
0.0119904
0.0140302
0.0157046
0.016881
0.0175474
0.0177545
0.017575
0.0170931
0.016397
0.0155752
0.0147688
0.0139343
0.0130654
0.0121651
0.0112436
0.0103166
0.00940378
0.00852704
0.00770919
0.00697185
0.00633289
0.00580347
0.00538574
0.00507248
0.00484925
0.00469818
0.00460154
0.0045441
0.00451395
0.00450254
0.0045059
0.00451442
0.00452795
0.00454438
0.00456233
0.00458094
0.00459963
0.00461801
0.00463584
0.00465297
0.0046693
0.00468478
0.00469941
0.0140521
0.0140987
0.0140644
0.0140626
0.0140242
0.0139942
0.0139796
0.0139517
0.0139287
0.0138974
0.0138338
0.0137843
0.0137295
0.0136774
0.0136217
0.0135597
0.0134894
0.0134094
0.0133175
0.013211
0.0130865
0.0129394
0.0127644
0.012555
0.0123032
0.0120007
0.0116384
0.0112086
0.0107066
0.0101331
0.00949949
0.00883723
0.00821563
0.00770057
0.00757977
0.00826142
0.00985955
0.0119765
0.0140723
0.0157951
0.0170054
0.0176891
0.017897
0.0177039
0.0171947
0.01646
0.0155919
0.0147472
0.0138704
0.0129555
0.0120063
0.0110345
0.0100581
0.00909932
0.00818361
0.00733737
0.00658558
0.00594819
0.00543603
0.00504795
0.00477133
0.00458608
0.00447009
0.00440344
0.00437035
0.0043611
0.00436656
0.00437865
0.00439608
0.00441637
0.00443805
0.00446016
0.00448209
0.00450346
0.00452404
0.00454368
0.00456231
0.0045799
0.00459646
0.004612
0.0140519
0.0140983
0.0140637
0.0140619
0.0140239
0.0139938
0.0139791
0.0139511
0.0139288
0.0138978
0.0138341
0.0137849
0.0137301
0.0136781
0.0136226
0.0135606
0.0134903
0.0134103
0.0133183
0.0132117
0.0130869
0.0129395
0.0127638
0.0125533
0.0123001
0.0119954
0.01163
0.011196
0.0106884
0.0101078
0.00946544
0.0087932
0.00816214
0.00763689
0.00749989
0.00817871
0.00979643
0.0119577
0.0141066
0.0158773
0.0171231
0.017827
0.0180398
0.0178378
0.0173059
0.0165369
0.0156258
0.0147474
0.0138303
0.0128719
0.0118765
0.0108571
0.00983378
0.00883155
0.00787921
0.00700701
0.0062434
0.0056102
0.00511719
0.00475893
0.00451675
0.00436507
0.00427842
0.00423566
0.00422197
0.00422785
0.00424163
0.00426166
0.00428493
0.00430967
0.0043348
0.00435961
0.00438369
0.00440678
0.00442876
0.00444956
0.00446915
0.00448756
0.00450481
0.00452094
0.0140516
0.014098
0.0140631
0.0140612
0.0140237
0.0139934
0.0139786
0.0139505
0.0139288
0.013898
0.0138344
0.0137854
0.0137306
0.0136788
0.0136233
0.0135615
0.0134912
0.0134112
0.0133192
0.0132124
0.0130874
0.0129396
0.0127633
0.0125519
0.0122973
0.0119906
0.0116225
0.0111846
0.0106718
0.0100844
0.00943379
0.0087521
0.00811199
0.00757699
0.00742556
0.00810018
0.00973338
0.0119347
0.0141341
0.0159519
0.0172341
0.017961
0.0181824
0.0179758
0.0174259
0.0166268
0.0156763
0.0147668
0.0138146
0.012816
0.0117777
0.0107138
0.00964628
0.00860288
0.00761579
0.00671909
0.00594476
0.00531627
0.00484179
0.00451095
0.00429886
0.00417503
0.00411152
0.00408704
0.00409029
0.00410289
0.00412375
0.00414891
0.00417603
0.0042037
0.00423108
0.00425765
0.00428312
0.00430735
0.00433025
0.00435181
0.00437205
0.00439101
0.00440873
0.00442527
0.0140514
0.0140977
0.0140625
0.0140606
0.0140234
0.013993
0.0139781
0.0139499
0.0139287
0.013898
0.0138347
0.0137859
0.0137311
0.0136794
0.0136241
0.0135623
0.013492
0.013412
0.01332
0.0132131
0.0130879
0.0129397
0.0127629
0.0125507
0.0122949
0.0119864
0.0116156
0.0111741
0.0106564
0.0100628
0.0094044
0.00871374
0.00806498
0.0075208
0.00735965
0.00802595