/*--------------------------------*- C++ -*----------------------------------*\
  =========                 |
  \\      /  F ield         | OpenFOAM: The Open Source CFD Toolbox
   \\    /   O peration     | Website:  https://openfoam.org
    \\  /    A nd           | Version:  9
     \\/     M anipulation  |
\*---------------------------------------------------------------------------*/
FoamFile
{
    format      ascii;
    class       volScalarField;
    location    "0.005";
    object      nut;
}
// * * * * * * * * * * * * * * * * * * * * * * * * * * * * * * * * * * * * * //

dimensions      [0 2 -1 0 0 0 0];

internalField   nonuniform List<scalar> 
5373
(
0.01397
0.0139397
0.0139397
0.0139396
0.0139396
0.013906
0.0139059
0.0139059
0.0139058
0.0139058
0.0139057
0.0138742
0.0138743
0.0138743
0.0138744
0.0138744
0.0138745
0.0138746
0.0138746
0.0138379
0.013838
0.0138381
0.0138382
0.0138383
0.0138383
0.0138384
0.0138385
0.0138386
0.0137992
0.0137994
0.0137995
0.0137996
0.0137997
0.0137999
0.0138
0.0138001
0.0138002
0.0138004
0.0138005
0.0137542
0.0137543
0.0137545
0.0137547
0.0137548
0.013755
0.0137552
0.0137553
0.0137555
0.0137557
0.0137558
0.0137002
0.0137004
0.0137006
0.0137009
0.0137011
0.0137013
0.0137015
0.0137017
0.013702
0.0137022
0.0137024
0.0137026
0.0136356
0.0136359
0.0136362
0.0136365
0.0136368
0.0136371
0.0136374
0.0136377
0.013638
0.0136383
0.0136386
0.0136389
0.0136391
0.013559
0.0135594
0.0135598
0.0135602
0.0135606
0.013561
0.0135614
0.0135617
0.0135621
0.0135625
0.0135629
0.0135632
0.0135636
0.013467
0.0134676
0.0134681
0.0134686
0.0134691
0.0134696
0.0134701
0.0134706
0.0134711
0.0134716
0.0134721
0.0134725
0.013473
0.0134735
0.0133569
0.0133576
0.0133583
0.0133589
0.0133596
0.0133603
0.0133609
0.0133615
0.0133622
0.0133628
0.0133634
0.013364
0.0133646
0.0133652
0.0132232
0.0132241
0.013225
0.0132258
0.0132266
0.0132275
0.0132283
0.0132291
0.0132299
0.0132307
0.0132315
0.0132323
0.0132331
0.0132339
0.0132346
0.0130625
0.0130636
0.0130647
0.0130657
0.0130668
0.0130678
0.0130689
0.0130699
0.0130709
0.0130719
0.0130729
0.0130739
0.0130749
0.0130758
0.0130768
0.0128678
0.0128692
0.0128705
0.0128718
0.0128731
0.0128744
0.0128757
0.0128769
0.0128782
0.0128794
0.0128806
0.0128818
0.012883
0.0128842
0.0128853
0.0126321
0.0126338
0.0126354
0.012637
0.0126386
0.0126401
0.0126416
0.0126431
0.0126446
0.0126461
0.0126475
0.012649
0.0126504
0.0126518
0.0126531
0.0123477
0.0123497
0.0123515
0.0123534
0.0123552
0.0123571
0.0123588
0.0123606
0.0123623
0.012364
0.0123657
0.0123673
0.0123689
0.0123705
0.012372
0.0120045
0.0120067
0.0120089
0.012011
0.0120131
0.0120152
0.0120172
0.0120192
0.0120211
0.012023
0.0120249
0.0120267
0.0120285
0.0120303
0.012032
0.0120337
0.0116
0.0116024
0.0116047
0.011607
0.0116092
0.0116114
0.0116135
0.0116155
0.0116176
0.0116195
0.0116214
0.0116233
0.0116251
0.0116268
0.0116286
0.0116302
0.0111279
0.0111303
0.0111326
0.0111349
0.011137
0.0111391
0.0111411
0.0111431
0.011145
0.0111468
0.0111486
0.0111503
0.0111519
0.0111534
0.0111549
0.0111564
0.0105885
0.0105908
0.0105929
0.0105949
0.0105968
0.0105986
0.0106002
0.0106018
0.0106033
0.0106048
0.0106061
0.0106073
0.0106085
0.0106096
0.0106106
0.0106116
0.00998945
0.00999115
0.0099927
0.00999413
0.00999546
0.00999668
0.00999779
0.00999881
0.00999965
0.0100004
0.0100009
0.0100014
0.0100019
0.0100023
0.0100026
0.0100028
0.00934962
0.00935042
0.00935104
0.00935152
0.00935188
0.00935211
0.00935221
0.0093522
0.0093521
0.00935191
0.00935152
0.00935093
0.00935022
0.00934941
0.00934849
0.00934743
0.00870816
0.00870784
0.00870737
0.00870675
0.00870598
0.00870507
0.00870403
0.00870284
0.00870142
0.00869976
0.00869793
0.00869592
0.00869375
0.00869142
0.00868894
0.00868629
0.00814581
0.00814443
0.00814286
0.00814111
0.00813919
0.00813706
0.00813466
0.00813206
0.00812926
0.00812628
0.00812313
0.0081198
0.00811631
0.00811265
0.00810883
0.00810486
0.00780632
0.00780641
0.00780626
0.00780589
0.0078053
0.00780451
0.00780349
0.00780219
0.00780062
0.00779871
0.00779594
0.00779228
0.00778782
0.00778266
0.00777687
0.00777053
0.00767924
0.00767643
0.0076735
0.00767051
0.00766741
0.0076641
0.00766054
0.00765687
0.00765312
0.00764932
0.0076455
0.00764168
0.00763792
0.00763426
0.00763078
0.00762751
0.00768175
0.00768224
0.00768247
0.00768255
0.00768246
0.0076822
0.00768183
0.00768135
0.00768076
0.00768006
0.00767926
0.00767835
0.00767733
0.00767628
0.00767521
0.00767412
0.00773984
0.00774199
0.00774393
0.00774573
0.00774742
0.00774902
0.00775054
0.007752
0.0077534
0.00775474
0.00775603
0.00775727
0.00775846
0.00775962
0.00776073
0.00776182
0.00773628
0.00774028
0.00774406
0.00774772
0.0077513
0.0077548
0.00775823
0.00776161
0.00776493
0.0077682
0.00777141
0.00777457
0.00777768
0.00778074
0.00778375
0.00778673
0.0076025
0.00760807
0.0076134
0.00761857
0.00762362
0.00762857
0.00763342
0.00763817
0.00764282
0.00764737
0.00765183
0.00765617
0.00766041
0.00766453
0.00766855
0.00767246
0.00730337
0.00731029
0.00731692
0.00732338
0.00732956
0.00733553
0.00734132
0.00734693
0.00735237
0.00735762
0.00736268
0.00736753
0.00737218
0.0073766
0.00738079
0.00738486
0.00683559
0.00684343
0.00685098
0.00685834
0.00686554
0.00687257
0.00687921
0.00688548
0.00689142
0.00689705
0.00690237
0.00690735
0.00691198
0.00691629
0.0069205
0.00692449
0.00621442
0.00622309
0.0062315
0.00623975
0.00624781
0.00625567
0.0062633
0.00627043
0.00627699
0.00628308
0.00628871
0.00629384
0.00629845
0.00630295
0.00630713
0.00631086
0.00546776
0.00547712
0.00548631
0.00549536
0.00550428
0.005513
0.0055215
0.00552971
0.00553711
0.00554389
0.00555009
0.00555566
0.00556074
0.00556559
0.00556993
0.00557361
0.00464187
0.00465137
0.00466078
0.00467014
0.00467943
0.0046886
0.00469761
0.00470639
0.00471452
0.0047219
0.00472864
0.00473469
0.0047403
0.00474554
0.00475008
0.00475377
0.00381301
0.00382148
0.00382995
0.00383844
0.00384691
0.00385533
0.00386363
0.00387176
0.00387953
0.00388647
0.00389277
0.00389838
0.00390368
0.00390849
0.00391247
0.00391543
0.00306111
0.00306785
0.00307463
0.00308143
0.00308823
0.00309496
0.00310158
0.00310799
0.00311412
0.00311956
0.00312423
0.00312824
0.00313201
0.00313511
0.00313724
0.00313815
0.00241093
0.00241608
0.00242127
0.00242648
0.00243166
0.00243676
0.00244171
0.00244645
0.00245087
0.0024548
0.00245786
0.00246039
0.00246252
0.00246385
0.0024641
0.00246268
0.00185852
0.00186236
0.00186623
0.00187011
0.00187395
0.0018777
0.0018813
0.00188468
0.00188776
0.00189043
0.00189233
0.00189378
0.00189471
0.00189478
0.00189351
0.00189061
0.00139528
0.00139806
0.00140087
0.00140369
0.00140646
0.00140915
0.00141171
0.00141406
0.00141615
0.00141789
0.00141903
0.00141975
0.00141992
0.00141914
0.00141713
0.00141364
0.001012
0.00101395
0.00101592
0.00101789
0.00101984
0.00102171
0.00102348
0.00102508
0.00102647
0.00102757
0.00102823
0.00102852
0.00102824
0.00102712
0.00102495
0.00102146
0.000699631
0.000700909
0.000702211
0.000703519
0.000704812
0.00070606
0.000707233
0.000708293
0.000709196
0.000709889
0.000710262
0.000710343
0.000709919
0.000708817
0.00070686
0.000703742
0.000449919
0.000450571
0.000451256
0.000451962
0.000452674
0.000453375
0.000454044
0.000454659
0.000455192
0.00045561
0.000455841
0.000455869
0.000455533
0.000454701
0.000453221
0.000450773
0.000262784
0.000262253
0.000261756
0.000261295
0.000260869
0.00026048
0.000260131
0.000259835
0.000259609
0.000259478
0.000259387
0.000259333
0.000259211
0.000258943
0.000258456
0.00025732
0.000129493
0.000128427
0.000127398
0.000126336
0.000125238
0.000124122
0.000122959
0.000121755
0.000120715
0.000119753
0.000118952
0.000118284
0.000117665
0.000117143
0.000116654
0.000115527
1.18073e-06
1.1657e-06
1.14254e-06
1.11651e-06
1.08845e-06
1.05004e-06
9.97833e-07
9.65793e-07
1.36964e-06
1.4096e-06
1.31194e-06
9.59886e-07
9.0193e-07
8.84195e-07
1.17899e-06
1.38498e-06
0.0140077
0.0140078
0.0140079
0.014008
0.0140081
0.0140082
0.0140083
0.0140084
0.0140085
0.0140086
0.0140087
0.0140088
0.0140089
0.014009
0.0140091
0.0140092
0.0140093
0.0140093
0.0140094
0.0140095
0.0140096
0.0140097
0.0140098
0.0140099
0.01401
0.0140101
0.0140102
0.0140103
0.0140104
0.0140105
0.0140106
0.0140107
0.0140108
0.0140109
0.014011
0.0140111
0.0140112
0.0140113
0.0140114
0.0140115
0.0140116
0.0140117
0.0140118
0.0140119
0.0140119
0.014012
0.0140121
0.0140122
0.0140123
0.0140102
0.0140101
0.01401
0.0140099
0.0140098
0.0140097
0.0140096
0.0140095
0.0140093
0.0140092
0.0140091
0.0140089
0.0140088
0.0140086
0.0140085
0.0140083
0.0140082
0.014008
0.0140078
0.0140077
0.0140075
0.0140073
0.0140071
0.014007
0.0140068
0.0140066
0.0140064
0.0140062
0.014006
0.0140058
0.0140056
0.0140054
0.0140052
0.0140049
0.0140047
0.0140045
0.0140043
0.014004
0.0140038
0.0140036
0.0140033
0.0140031
0.0140028
0.0140026
0.0140023
0.014002
0.0140018
0.0140015
0.0140012
0.013999
0.0139988
0.0139987
0.0139987
0.0139986
0.0139985
0.0139984
0.0139983
0.0139982
0.0139982
0.0139981
0.013998
0.0139979
0.0139978
0.0139977
0.0139977
0.0139976
0.0139975
0.0139974
0.0139973
0.0139972
0.0139971
0.0139971
0.013997
0.0139969
0.0139968
0.0139967
0.0139966
0.0139965
0.0139964
0.0139964
0.0139963
0.0139962
0.0139961
0.013996
0.0139959
0.0139958
0.0139957
0.0139956
0.0139955
0.0139954
0.0139953
0.0139952
0.0139951
0.013995
0.0139949
0.0139948
0.0139947
0.0139946
0.0139945
0.01397
0.0139701
0.0139703
0.0139705
0.0139705
0.0139705
0.0139705
0.0139704
0.0139704
0.0139703
0.0139702
0.01397
0.0139699
0.0139698
0.0139697
0.0139695
0.0139694
0.0139692
0.0139691
0.0139689
0.0139687
0.0139686
0.0139684
0.0139682
0.0139681
0.0139679
0.0139677
0.0139675
0.0139673
0.0139672
0.013967
0.0139668
0.0139666
0.0139664
0.0139662
0.013966
0.0139658
0.0139656
0.0139655
0.0139653
0.0139651
0.0139649
0.0139647
0.0139645
0.0139643
0.0139641
0.0139639
0.0139637
0.0139635
0.0139633
0.0139395
0.0139393
0.0139391
0.013939
0.0139389
0.0139388
0.0139387
0.0139387
0.0139387
0.0139388
0.0139391
0.0139393
0.0139395
0.0139397
0.01394
0.0139402
0.0139404
0.0139407
0.0139409
0.0139411
0.0139414
0.0139416
0.0139418
0.0139421
0.0139423
0.0139425
0.0139428
0.013943
0.0139432
0.0139435
0.0139437
0.0139439
0.013944
0.013944
0.013944
0.013944
0.0139439
0.0139438
0.0139437
0.0139436
0.0139435
0.0139433
0.0139432
0.0139431
0.0139429
0.0139428
0.0139426
0.0139424
0.0139423
0.0139421
0.0139057
0.0139058
0.0139061
0.0139064
0.0139067
0.013907
0.0139073
0.0139077
0.013908
0.0139083
0.0139086
0.0139089
0.0139092
0.0139096
0.0139099
0.0139102
0.0139105
0.0139108
0.0139112
0.0139113
0.0139113
0.0139113
0.0139112
0.0139111
0.013911
0.0139109
0.0139107
0.0139106
0.0139105
0.0139105
0.0139108
0.013911
0.0139114
0.0139117
0.013912
0.0139123
0.0139126
0.013913
0.0139133
0.0139136
0.0139139
0.0139142
0.0139146
0.0139149
0.0139152
0.0139155
0.0139159
0.0139162
0.0139165
0.0139168
0.0138748
0.0138751
0.0138755
0.0138759
0.0138764
0.0138765
0.0138768
0.0138772
0.0138776
0.013878
0.0138785
0.0138789
0.0138793
0.0138797
0.0138801
0.0138806
0.013881
0.0138814
0.0138818
0.0138823
0.0138827
0.0138831
0.0138836
0.013884
0.0138841
0.0138841
0.013884
0.0138839
0.0138838
0.0138838
0.013884
0.0138844
0.0138848
0.0138852
0.0138857
0.0138861
0.0138865
0.0138869
0.0138874
0.0138878
0.0138882
0.0138887
0.0138891
0.0138895
0.01389
0.0138904
0.0138908
0.0138912
0.0138917
0.0138921
0.0138388
0.0138393
0.0138398
0.0138403
0.0138406
0.0138411
0.0138416
0.0138422
0.0138427
0.0138433
0.0138438
0.0138444
0.0138449
0.0138455
0.013846
0.0138466
0.0138471
0.0138477
0.0138482
0.0138488
0.0138493
0.0138499
0.0138504
0.013851
0.0138516
0.0138521
0.0138527
0.0138532
0.0138538
0.0138544
0.0138549
0.0138555
0.0138561
0.0138566
0.0138572
0.0138577
0.0138583
0.0138589
0.0138594
0.01386
0.0138606
0.0138612
0.0138617
0.0138623
0.0138629
0.0138634
0.013864
0.0138646
0.0138651
0.0138657
0.0138008
0.0138014
0.0138021
0.0138028
0.0138035
0.0138042
0.0138049
0.0138056
0.0138063
0.0138071
0.0138078
0.0138085
0.0138092
0.01381
0.0138107
0.0138114
0.0138121
0.0138129
0.0138136
0.0138143
0.013815
0.0138158
0.0138165
0.0138172
0.013818
0.0138187
0.0138194
0.0138202
0.0138209
0.0138216
0.0138224
0.0138231
0.0138238
0.0138246
0.0138253
0.0138261
0.0138268
0.0138275
0.0138283
0.013829
0.0138298
0.0138305
0.0138313
0.013832
0.0138327
0.0138335
0.0138342
0.013835
0.0138357
0.0138365
0.0137562
0.013757
0.0137579
0.0137588
0.0137597
0.0137607
0.0137616
0.0137625
0.0137635
0.0137644
0.0137653
0.0137663
0.0137672
0.0137682
0.0137691
0.0137701
0.013771
0.013772
0.0137729
0.0137739
0.0137748
0.0137758
0.0137767
0.0137777
0.0137786
0.0137796
0.0137805
0.0137815
0.0137825
0.0137834
0.0137844
0.0137854
0.0137863
0.0137873
0.0137883
0.0137892
0.0137902
0.0137912
0.0137921
0.0137931
0.0137941
0.0137951
0.013796
0.013797
0.013798
0.013799
0.0138
0.013801
0.0138019
0.0138029
0.0137031
0.0137041
0.0137053
0.0137065
0.0137077
0.0137089
0.0137101
0.0137113
0.0137125
0.0137137
0.013715
0.0137162
0.0137174
0.0137186
0.0137199
0.0137211
0.0137223
0.0137236
0.0137248
0.0137261
0.0137273
0.0137285
0.0137298
0.013731
0.0137323
0.0137335
0.0137348
0.0137361
0.0137373
0.0137386
0.0137398
0.0137411
0.0137424
0.0137436
0.0137449
0.0137462
0.0137475
0.0137487
0.01375
0.0137513
0.0137526
0.0137539
0.0137551
0.0137564
0.0137577
0.013759
0.0137603
0.0137616
0.0137629
0.0137642
0.0136397
0.0136411
0.0136426
0.0136441
0.0136457
0.0136472
0.0136488
0.0136504
0.013652
0.0136535
0.0136551
0.0136567
0.0136583
0.0136599
0.0136615
0.0136631
0.0136647
0.0136663
0.0136679
0.0136695
0.0136712
0.0136728
0.0136744
0.013676
0.0136777
0.0136793
0.013681
0.0136826
0.0136843
0.0136859
0.0136876
0.0136892
0.0136909
0.0136925
0.0136942
0.0136959
0.0136976
0.0136992
0.0137009
0.0137026
0.0137043
0.013706
0.0137077
0.0137094
0.0137111
0.0137128
0.0137146
0.0137163
0.013718
0.0137198
0.0135643
0.013566
0.013568
0.01357
0.013572
0.013574
0.013576
0.013578
0.0135801
0.0135821
0.0135842
0.0135862
0.0135883
0.0135903
0.0135924
0.0135945
0.0135966
0.0135987
0.0136007
0.0136028
0.0136049
0.0136071
0.0136092
0.0136113
0.0136134
0.0136156
0.0136177
0.0136198
0.013622
0.0136242
0.0136263
0.0136285
0.0136307
0.0136328
0.013635
0.0136372
0.0136394
0.0136417
0.0136439
0.0136461
0.0136484
0.0136506
0.0136529
0.0136551
0.0136574
0.0136597
0.0136619
0.0136642
0.0136665
0.0136688
0.0134744
0.0134766
0.0134791
0.0134816
0.0134842
0.0134867
0.0134893
0.0134919
0.0134945
0.0134971
0.0134998
0.0135024
0.013505
0.0135077
0.0135104
0.013513
0.0135157
0.0135184
0.0135211
0.0135238
0.0135266
0.0135293
0.013532
0.0135348
0.0135376
0.0135403
0.0135431
0.0135459
0.0135487
0.0135515
0.0135543
0.0135572
0.01356
0.0135629
0.0135658
0.0135687
0.0135716
0.0135745
0.0135775
0.0135804
0.0135834
0.0135863
0.0135893
0.0135923
0.0135953
0.0135983
0.0136013
0.0136043
0.0136074
0.0136104
0.0133664
0.0133692
0.0133723
0.0133755
0.0133787
0.013382
0.0133853
0.0133886
0.0133919
0.0133952
0.0133985
0.0134019
0.0134053
0.0134087
0.0134121
0.0134155
0.0134189
0.0134224
0.0134259
0.0134294
0.0134329
0.0134364
0.01344
0.0134435
0.0134471
0.0134507
0.0134543
0.0134579
0.0134616
0.0134653
0.013469
0.0134727
0.0134764
0.0134802
0.013484
0.0134878
0.0134917
0.0134955
0.0134994
0.0135033
0.0135072
0.0135111
0.013515
0.013519
0.0135229
0.0135269
0.0135309
0.0135349
0.0135389
0.0135429
0.013236
0.0132395
0.0132434
0.0132474
0.0132515
0.0132556
0.0132597
0.0132638
0.013268
0.0132722
0.0132764
0.0132807
0.0132849
0.0132892
0.0132936
0.0132979
0.0133023
0.0133068
0.0133112
0.0133157
0.0133202
0.0133247
0.0133293
0.0133339
0.0133385
0.0133431
0.0133478
0.0133525
0.0133573
0.0133621
0.013367
0.0133718
0.0133768
0.0133817
0.0133867
0.0133917
0.0133967
0.0134018
0.0134069
0.0134121
0.0134172
0.0134224
0.0134276
0.0134328
0.0134381
0.0134434
0.0134486
0.013454
0.0134593
0.0134646
0.0130785
0.0130828
0.0130876
0.0130925
0.0130975
0.0131026
0.0131077
0.0131128
0.013118
0.0131233
0.0131286
0.0131339
0.0131393
0.0131447
0.0131502
0.0131557
0.0131613
0.0131669
0.0131726
0.0131783
0.0131841
0.0131899
0.0131958
0.0132017
0.0132076
0.0132136
0.0132197
0.0132258
0.0132321
0.0132383
0.0132447
0.0132511
0.0132575
0.013264
0.0132706
0.0132772
0.0132838
0.0132905
0.0132973
0.0133041
0.0133109
0.0133178
0.0133247
0.0133317
0.0133386
0.0133457
0.0133527
0.0133598
0.0133669
0.013374
0.0128873
0.0128926
0.0128984
0.0129044
0.0129105
0.0129166
0.0129229
0.0129292
0.0129356
0.0129421
0.0129486
0.0129553
0.012962
0.0129688
0.0129757
0.0129826
0.0129896
0.0129967
0.0130039
0.0130112
0.0130185
0.0130259
0.0130334
0.013041
0.0130486
0.0130564
0.0130642
0.0130722
0.0130803
0.0130885
0.0130967
0.0131051
0.0131136
0.0131221
0.0131307
0.0131395
0.0131483
0.0131571
0.0131661
0.0131751
0.0131842
0.0131933
0.0132025
0.0132118
0.0132211
0.0132305
0.0132399
0.0132494
0.0132589
0.0132684
0.0126555
0.0126617
0.0126685
0.0126756
0.0126829
0.0126903
0.0126978
0.0127054
0.0127132
0.0127211
0.0127291
0.0127372
0.0127455
0.0127539
0.0127624
0.012771
0.0127798
0.0127887
0.0127977
0.0128069
0.0128162
0.0128256
0.0128351
0.0128448
0.0128546
0.0128646
0.0128747
0.0128851
0.0128955
0.0129062
0.012917
0.0129279
0.012939
0.0129503
0.0129616
0.0129732
0.0129848
0.0129966
0.0130085
0.0130205
0.0130326
0.0130448
0.0130571
0.0130695
0.013082
0.0130945
0.0131071
0.0131198
0.0131326
0.0131454
0.0123747
0.0123818
0.0123896
0.0123978
0.0124062
0.0124148
0.0124237
0.0124327
0.0124419
0.0124513
0.0124609
0.0124707
0.0124807
0.0124909
0.0125014
0.012512
0.0125228
0.0125339
0.0125451
0.0125566
0.0125682
0.0125801
0.0125921
0.0126043
0.0126168
0.0126296
0.0126426
0.0126559
0.0126694
0.0126832
0.0126973
0.0127116
0.0127261
0.0127409
0.0127559
0.0127711
0.0127865
0.0128021
0.0128179
0.0128339
0.0128501
0.0128664
0.0128829
0.0128995
0.0129163
0.0129331
0.0129501
0.0129671
0.0129843
0.0130015
0.0120365
0.0120442
0.0120528
0.0120619
0.0120713
0.012081
0.012091
0.0121013
0.012112
0.0121229
0.0121342
0.0121457
0.0121576
0.0121698
0.0121824
0.0121952
0.0122084
0.0122219
0.0122357
0.0122498
0.0122642
0.012279
0.0122941
0.0123094
0.0123252
0.0123413
0.0123579
0.0123748
0.0123922
0.01241
0.0124281
0.0124467
0.0124657
0.012485
0.0125047
0.0125247
0.0125451
0.0125658
0.0125869
0.0126082
0.0126298
0.0126517
0.0126738
0.0126961
0.0127186
0.0127413
0.0127641
0.0127871
0.0128101
0.0128333
0.011633
0.0116408
0.0116497
0.0116592
0.0116692
0.0116796
0.0116905
0.0117018
0.0117136
0.0117259
0.0117387
0.0117519
0.0117656
0.0117798
0.0117945
0.0118097
0.0118253
0.0118414
0.0118581
0.0118752
0.0118928
0.0119109
0.0119294
0.0119485
0.011968
0.0119881
0.0120088
0.0120302
0.0120522
0.0120748
0.0120981
0.012122
0.0121465
0.0121716
0.0121973
0.0122236
0.0122504
0.0122778
0.0123057
0.0123341
0.0123629
0.0123921
0.0124218
0.0124518
0.0124821
0.0125126
0.0125434
0.0125744
0.0126055
0.0126368
0.0111587
0.0111659
0.0111743
0.0111833
0.0111931
0.0112035
0.0112146
0.0112264
0.0112388
0.011252
0.0112658
0.0112803
0.0112955
0.0113114
0.011328
0.0113454
0.0113634
0.0113821
0.0114016
0.0114218
0.0114427
0.0114643
0.0114866
0.0115097
0.0115334
0.0115579
0.0115833
0.0116097
0.011637
0.0116653
0.0116945
0.0117248
0.011756
0.0117881
0.0118213
0.0118553
0.0118903
0.0119262
0.0119629
0.0120005
0.0120388
0.0120778
0.0121174
0.0121576
0.0121984
0.0122395
0.012281
0.0123228
0.0123648
0.0124069
0.0106132
0.0106184
0.0106249
0.0106324
0.0106409
0.0106503
0.0106606
0.0106718
0.010684
0.0106971
0.0107112
0.0107262
0.0107422
0.0107591
0.010777
0.0107959
0.0108158
0.0108366
0.0108585
0.0108814
0.0109053
0.0109302
0.0109562
0.0109833
0.0110114
0.0110403
0.0110705
0.011102
0.011135
0.0111694
0.0112052
0.0112425
0.0112814
0.0113217
0.0113636
0.0114069
0.0114518
0.0114981
0.0115459
0.011595
0.0116454
0.0116969
0.0117496
0.0118033
0.0118578
0.0119131
0.0119689
0.0120252
0.0120817
0.0121385
0.010003
0.010005
0.0100082
0.0100126
0.0100183
0.0100253
0.0100335
0.0100429
0.0100535
0.0100654
0.0100784
0.0100928
0.0101083
0.0101252
0.0101432
0.0101626
0.0101832
0.0102052
0.0102285
0.0102531
0.0102791
0.0103065
0.0103354
0.0103657
0.0103975
0.0104303
0.0104647
0.0105008
0.0105389
0.0105791
0.0106213
0.0106658
0.0107125
0.0107615
0.0108128
0.0108665
0.0109226
0.0109811
0.0110418
0.0111049
0.0111701
0.0112374
0.0113066
0.0113775
0.0114499
0.0115235
0.0115982
0.0116736
0.0117496
0.0118257
0.00934591
0.0093432
0.0093418
0.00934189
0.00934328
0.00934612
0.00935042
0.00935623
0.00936362
0.00937252
0.00938292
0.00939482
0.00940822
0.00942313
0.00943957
0.00945756
0.00947714
0.00949832
0.00952117
0.0095457
0.00957199
0.00960008
0.00963002
0.0096619
0.00969577
0.0097317
0.0097687
0.00980791
0.00984966
0.00989413
0.0099415
0.00999191
0.0100455
0.0101024
0.0101628
0.0102268
0.0102945
0.0103658
0.0104409
0.0105196
0.0106019
0.0106878
0.0107768
0.0108689
0.0109636
0.0110606
0.0111595
0.0112598
0.011361
0.0114627
0.00868281
0.00867416
0.00866649
0.00866039
0.008656
0.0086532
0.00865195
0.00865216
0.00865372
0.00865696
0.00866207
0.00866902
0.00867765
0.00868789
0.00869977
0.00871335
0.0087287
0.00874591
0.00876504
0.0087862
0.00880946
0.00883492
0.0088627
0.00889291
0.00892566
0.00896109
0.00899902
0.00903849
0.00908091
0.00912673
0.00917627
0.0092298
0.00928761
0.00934999
0.00941722
0.00948957
0.00956728
0.00965052
0.00973945
0.00983413
0.00993456
0.0100406
0.0101521
0.0102687
0.01039
0.0105154
0.0106442
0.0107757
0.0109091
0.0110435
0.00809941
0.00808512
0.00807175
0.00806015
0.00805051
0.00804304
0.00803733
0.00803069
0.00801921
0.00800564
0.0079999
0.0079996
0.00800089
0.0080032
0.00800644
0.0080106
0.0080159
0.0080227
0.00803132
0.00804204
0.00805508
0.00807064
0.00808895
0.00811025
0.00813482
0.00816293
0.00819481
0.00822997
0.00826761
0.00830925
0.00835544
0.00840661
0.00846321
0.00852572
0.0085947
0.00867068
0.00875414
0.00884553
0.0089452
0.00905344
0.00917044
0.00929625
0.00943075
0.00957364
0.00972438
0.00988225
0.0100463
0.0102155
0.0103883
0.0105636
0.00776128
0.00773283
0.00771027
0.00768664
0.00766032
0.00763135
0.00760026
0.00757312
0.00755328
0.00754423
0.00754102
0.00754026
0.00754033
0.00754142
0.00754361
0.00754194
0.00753496
0.00752374
0.00750995
0.00749696
0.00748532
0.00747521
0.00746686
0.0074606
0.00745739
0.00745879
0.00746466
0.00747652
0.00749442
0.00751802
0.00754854
0.00758579
0.00762975
0.00768103
0.00774058
0.00780953
0.00788897
0.00797976
0.00808237
0.00819729
0.00832512
0.00846628
0.00862088
0.00878867
0.00896917
0.00916153
0.00936455
0.00957668
0.00979601
0.0100203
0.00762336
0.0076105
0.00759229
0.0075755
0.00755671
0.00753658
0.00751595
0.0074954
0.00747499
0.00745415
0.00743199
0.00740807
0.00738212
0.00735406
0.00732379
0.0072912
0.00725673
0.00722107
0.00718499
0.00714939
0.00711499
0.00708246
0.00705241
0.00702552
0.00700125
0.0069785
0.0069591
0.00694377
0.00693281
0.00692551
0.00692102
0.00692156
0.00692755
0.00694065
0.00696257
0.00699617
0.00704596
0.00711559
0.00720394
0.00730973
0.00743412
0.00757875
0.00774441
0.00793041
0.00813644
0.00836145
0.00860402
0.00886213
0.00913323
0.00941415
0.0076725
0.00766452
0.00765351
0.00764042
0.00762493
0.00760703
0.0075867
0.00756377
0.007538
0.0075091
0.00747682
0.00744108
0.00740183
0.00735909
0.00731293
0.00726353
0.0072112
0.00715627
0.00709908
0.00704003
0.00697947
0.00691783
0.00685553
0.00679308
0.00673093
0.00666978
0.00661082
0.00655512
0.00650474
0.00646103
0.00642392
0.00638988
0.00636209
0.00634249
0.00633243
0.00633346
0.00634715
0.00637549
0.0064199
0.00648304
0.00656999
0.00668801
0.00684401
0.00703102
0.0072505
0.00750008
0.00777774
0.0080808
0.00840594
0.00874891
0.00776324
0.00776415
0.00776242
0.00775811
0.00775107
0.0077411
0.00772802
0.00771159
0.00769158
0.00766776
0.00763992
0.00760789
0.00757151
0.00753064
0.00748515
0.00743493
0.0073799
0.00731994
0.00725497
0.0071849
0.00710972
0.00702944
0.00694419
0.00685427
0.00676003
0.00666216
0.00656162
0.00645962
0.00635774
0.00625768
0.00616137
0.00607058
0.00598596
0.00591031
0.00584659
0.00579697
0.00575997
0.00573909
0.00573932
0.00576307
0.00581336
0.00588969
0.0059999
0.00614674
0.00635244
0.00660732
0.00690767
0.00724849
0.00762526
0.00803233
0.0077909
0.00780068
0.00780886
0.00781511
0.00781918
0.00782086
0.00781992
0.0078161
0.00780918
0.00779888
0.00778496
0.00776717
0.00774527
0.00771896
0.00768786
0.00765169
0.00761012
0.00756277
0.00750919
0.00744892
0.00738157
0.00730668
0.00722379
0.00713249
0.00703241
0.00692334
0.00680514
0.00667793
0.00654219
0.00639883
0.00624942
0.00609638
0.00594324
0.00579439
0.00565207
0.00551848
0.0053966
0.00529229
0.0052147
0.00516845
0.00515474
0.00517824
0.00524445
0.0053539
0.00551008
0.00572886
0.00602635
0.00638817
0.00680738
0.00727579
0.00767824
0.00769428
0.00771019
0.00772538
0.00773955
0.00775244
0.00776379
0.00777337
0.00778088
0.00778608
0.00778866
0.00778827
0.00778457
0.00777722
0.00776585
0.00775006
0.00772947
0.00770358
0.0076721
0.007634
0.00758882
0.00753586
0.00747443
0.00740373
0.00732277
0.00723082
0.00712687
0.00700996
0.00687915
0.00673361
0.00657277
0.00639646
0.00620532
0.00600119
0.00578962
0.00557735
0.00536759
0.00516681
0.00498278
0.00482334
0.00469669
0.00461916
0.00460008
0.00464353
0.00475381
0.00492788
0.00518011
0.0055308
0.00597333
0.00649376
0.00739112
0.00741034
0.0074312
0.00745283
0.00747475
0.00749662
0.00751814
0.007539
0.00755892
0.0075776
0.00759474
0.00761001
0.00762306
0.00763354
0.00764105
0.00764522
0.00764583
0.00764197
0.00763361
0.00761994
0.00760018
0.00757337
0.00753885
0.00749593
0.00744321
0.00737987
0.00730478
0.00721652
0.00711357
0.00699431
0.00685716
0.00670042
0.00652239
0.0063216
0.0060971
0.00584949
0.00558691
0.00531456
0.00504017
0.00477463
0.00453166
0.00432737
0.0041769
0.00409495
0.00410414
0.00421079
0.0044136
0.0047169
0.00514901
0.00570322
0.00693029
0.00695066
0.00697438
0.00700024
0.00702759
0.00705599
0.00708507
0.0071145
0.00714397
0.00717317
0.00720182
0.00722961
0.00725622
0.00728133
0.00730458
0.00732562
0.00734406
0.00735934
0.00737103
0.00737852
0.00738131
0.0073782
0.00736846
0.00735161
0.00732628
0.00729129
0.00724626
0.0071895
0.0071191
0.00703315
0.00693011
0.00680798
0.00666454
0.00649744
0.00630413
0.00608208
0.00582885
0.00554667
0.0052399
0.00491546
0.00458594
0.0042697
0.00398976
0.0037721
0.00364299
0.00362272
0.00373348
0.00398308
0.00436544
0.00492319
0.00631596
0.00633754
0.00636326
0.00639215
0.00642346
0.00645664
0.00649126
0.00652696
0.00656344
0.0066004
0.00663758
0.00667469
0.00671147
0.00674761
0.0067828
0.00681671
0.00684895
0.00687906
0.0069066
0.00693101
0.00695168
0.00696776
0.00697861
0.00698375
0.006982
0.0069717
0.0069529
0.00692373
0.00688251
0.0068277
0.00675759
0.00667029
0.00656361
0.00643545
0.00628291
0.00610334
0.0058938
0.00565131
0.00537296
0.00505908
0.00471363
0.00434665
0.0039777
0.00363774
0.00336602
0.00320276
0.003183
0.00332944
0.00365935
0.00417458
0.00557839
0.00560208
0.00562999
0.00566163
0.00569608
0.00573288
0.00577158
0.00581182
0.00585331
0.00589577
0.00593899
0.00598271
0.00602671
0.00607073
0.00611449
0.0061577
0.00620003
0.00624107
0.0062804
0.00631754
0.00635194
0.00638293
0.00640991
0.00643218
0.00644867
0.00645859
0.00646146
0.00645529
0.00643867
0.00641052
0.00636902
0.00631258
0.00623922
0.00614693
0.00603325
0.00589575
0.00573186
0.00553887
0.00531372
0.0050512
0.00474775
0.00440385
0.00402443
0.00362612
0.00324595
0.00294023
0.00277075
0.00278815
0.00302092
0.00348007
0.00475855
0.00478462
0.00481423
0.00484783
0.00488438
0.00492343
0.00496453
0.00500744
0.00505189
0.00509763
0.00514448
0.00519225
0.00524076
0.00528979
0.00533913
0.00538852
0.00543767
0.00548625
0.00553389
0.00558017
0.00562462
0.00566669
0.0057058
0.00574127
0.00577224
0.00579799
0.00581767
0.00583013
0.00583423
0.00582847
0.00581106
0.00578109
0.00573656
0.00567579
0.00559663
0.00549701
0.00537476
0.00522768
0.00505334
0.00484933
0.00460817
0.00432479
0.00399664
0.00362202
0.00321209
0.00280997
0.00249651
0.00236039
0.00247154
0.00286531
0.00391889
0.003944
0.00397236
0.00400491
0.00404048
0.00407866
0.00411905
0.0041614
0.00420548
0.00425108
0.00429813
0.00434647
0.00439594
0.00444641
0.0044977
0.00454962
0.00460194
0.00465439
0.00470667
0.00475843
0.00480928
0.00485877
0.00490636
0.00495143
0.00499326
0.00503118
0.0050644
0.00509189
0.00511256
0.00512527
0.0051288
0.00512164
0.00510203
0.00506889
0.00502016
0.00495415
0.00486902
0.004763
0.00463418
0.00448081
0.00430098
0.00408433
0.00382729
0.00352287
0.0031623
0.00274914
0.00234129
0.00205487
0.00200949
0.00229454
0.00313771
0.00315574
0.003178
0.00320462
0.0032344
0.00326693
0.00330181
0.00333878
0.00337765
0.00341826
0.00346053
0.00350436
0.00354966
0.00359634
0.00364432
0.00369346
0.00374362
0.00379461
0.00384622
0.00389822
0.00395029
0.00400211
0.00405325
0.00410317
0.00415127
0.004197
0.00423962
0.00427827
0.00431198
0.00433964
0.00436022
0.00437242
0.00437502
0.00436635
0.00434474
0.00430891
0.00425716
0.00418811
0.00410014
0.00399203
0.00386297
0.00370887
0.00352083
0.00329408
0.00301811
0.00267132
0.00225519
0.00186142
0.00166345
0.00179915
0.00245894
0.00246918
0.00248405
0.00250293
0.00252483
0.00254929
0.00257596
0.0026046
0.00263502
0.00266709
0.00270076
0.00273595
0.00277263
0.00281074
0.00285026
0.00289111
0.00293322
0.00297651
0.0030209
0.00306628
0.00311247
0.00315931
0.00320655
0.00325383
0.00330075
0.00334693
0.00339183
0.00343481
0.00347509
0.00351179
0.00354399
0.00357052
0.00359036
0.00360202
0.0036042
0.00359512
0.00357338
0.00353791
0.00348715
0.00342014
0.00333627
0.00323545
0.00310909
0.00295228
0.00276079
0.00251131
0.00216784
0.0017436
0.00141913
0.00139893
0.00188532
0.00189007
0.00189917
0.00191168
0.00192681
0.00194415
0.00196338
0.00198426
0.00200664
0.0020304
0.00205549
0.00208186
0.00210948
0.0021383
0.0021683
0.00219943
0.00223164
0.00226489
0.00229912
0.00233428
0.00237028
0.00240703
0.00244442
0.00248224
0.00252031
0.00255844
0.00259639
0.00263386
0.00267046
0.00270572
0.0027391
0.00276989
0.00279733
0.00282025
0.00283767
0.00284814
0.00285046
0.00284325
0.00282492
0.0027946
0.00275135
0.00269517
0.00262222
0.00252737
0.00240985
0.00225382
0.00202065
0.0016535
0.00125898
0.0010941
0.00140787
0.00140928
0.00141441
0.00142229
0.00143233
0.00144417
0.00145754
0.00147225
0.00148814