/*--------------------------------*- C++ -*----------------------------------*\
  =========                 |
  \\      /  F ield         | OpenFOAM: The Open Source CFD Toolbox
   \\    /   O peration     | Website:  https://openfoam.org
    \\  /    A nd           | Version:  9
     \\/     M anipulation  |
\*---------------------------------------------------------------------------*/
FoamFile
{
    format      ascii;
    class       surfaceScalarField;
    location    "0.005";
    object      phi;
}
// * * * * * * * * * * * * * * * * * * * * * * * * * * * * * * * * * * * * * //

dimensions      [1 0 -1 0 0 0 0];

internalField   nonuniform List<scalar> 
10580
(
0.000272111
-3.05891
-2.67414
0.000236258
-2.67417
0.00025835
-2.67419
0.00028044
0.000302519
-2.67422
-2.33644
0.000202765
-2.33645
0.000227806
-2.33647
0.000252844
-2.33649
0.00027788
-2.33651
0.000302909
0.000327935
-2.33653
-2.04427
0.000163067
-2.04428
0.0001907
-2.0443
0.000218332
-2.04432
0.000245961
-2.04434
0.000273588
-2.04436
0.000301212
-2.04439
0.000328834
0.00035645
-2.04442
-1.78941
0.00014617
-1.78942
0.000176077
-1.78944
0.000205985
-1.78945
0.000235892
-1.78947
0.000265789
-1.7895
0.000295691
-1.78952
0.000325587
-1.78955
0.000355481
0.000385374
-1.78958
-1.56798
0.000100146
-1.568
0.000132048
-1.56801
0.000163948
-1.56803
0.000195846
-1.56806
0.000227744
-1.56808
0.000259632
-1.5681
0.000291528
-1.56813
0.000323414
-1.56816
0.000355298
-1.56819
0.000387187
0.000419061
-1.56823
-1.37516
0.000121858
-1.37518
0.000155496
-1.37521
0.000189129
-1.37523
0.000222755
-1.37526
0.000256382
-1.37529
0.000290009
-1.37533
0.00032363
-1.37536
0.000357249
-1.37539
0.00039087
-1.37543
0.000424484
0.000458094
-1.37547
-1.20743
0.000119461
-1.20746
0.000154594
-1.2075
0.000189715
-1.20753
0.000224842
-1.20757
0.000259964
-1.20761
0.000295083
-1.20765
0.0003302
-1.20769
0.000365318
-1.20773
0.000400434
-1.20778
0.000435548
-1.20782
0.000470656
0.000505758
-1.20787
-1.06133
0.000127433
-1.06137
0.000163839
-1.06142
0.000200241
-1.06147
0.000236637
-1.06151
0.000273032
-1.06156
0.000309423
-1.06161
0.000345815
-1.06167
0.000382205
-1.06172
0.000418593
-1.06177
0.000454979
-1.06183
0.000491367
-1.06189
0.000527748
0.000564118
-1.06195
-0.934035
0.000186763
-0.934096
0.000224223
-0.934157
0.000261681
-0.934219
0.000299132
-0.934283
0.000336585
-0.934348
0.000374031
-0.934413
0.000411483
-0.93448
0.000448929
-0.934548
0.000486377
-0.934617
0.000523823
-0.934687
0.000561268
-0.934758
0.000598714
0.000636138
-0.93483
-0.822804
0.000226093
-0.822881
0.000264415
-0.82296
0.000302732
-0.823039
0.000341037
-0.823119
0.000379339
-0.8232
0.000417642
-0.823282
0.000455942
-0.823365
0.000494244
-0.823449
0.000532549
-0.823533
0.000570848
-0.823618
0.000609146
-0.823705
0.000647451
-0.823792
0.000685745
0.000724023
-0.82388
-0.725538
0.000323317
-0.725635
0.000362294
-0.725734
0.000401253
-0.725833
0.000440211
-0.725933
0.000479167
-0.726033
0.000518124
-0.726135
0.00055708
-0.726236
0.000596034
-0.726339
0.000634991
-0.726442
0.00067395
-0.726546
0.000712905
-0.72665
0.000751863
-0.726755
0.000790815
0.000829746
-0.726861
-0.640113
0.00040223
-0.640231
0.000441668
-0.64035
0.000481102
-0.64047
0.000520516
-0.640589
0.000559935
-0.640709
0.00059935
-0.64083
0.000638767
-0.640951
0.000678188
-0.641073
0.000717603
-0.641195
0.000757026
-0.641317
0.000796445
-0.64144
0.000835867
-0.641564
0.000875289
-0.641688
0.000914708
0.000954101
-0.641812
-0.565101
0.000540903
-0.56524
0.00058062
-0.565379
0.000620321
-0.565519
0.000660012
-0.565658
0.000699699
-0.565798
0.000739387
-0.565939
0.000779077
-0.566079
0.00081877
-0.56622
0.000858465
-0.566361
0.000898162
-0.566503
0.00093786
-0.566644
0.000977559
-0.566786
0.00101726
-0.566929
0.00105696
0.00109663
-0.567071
-0.499012
0.000698244
-0.499169
0.000738038
-0.499327
0.000777818
-0.499485
0.000817584
-0.499642
0.000857349
-0.4998
0.000897117
-0.499958
0.000936888
-0.500116
0.000976663
-0.500274
0.00101644
-0.500432
0.00105623
-0.50059
0.00109601
-0.500748
0.0011358
-0.500906
0.0011756
-0.501065
0.00121539
0.00125515
-0.501223
-0.44068
0.000870558
-0.440852
0.000910217
-0.441025
0.000949861
-0.441196
0.000989493
-0.441368
0.00102913
-0.44154
0.00106877
-0.441711
0.00110841
-0.441883
0.00114807
-0.442054
0.00118773
-0.442225
0.0012274
-0.442396
0.00126707
-0.442567
0.00130675
-0.442738
0.00134644
-0.442909
0.00138613
0.00142579
-0.443079
-0.389134
0.00105287
-0.389316
0.00109213
-0.389498
0.00113137
-0.389679
0.00117062
-0.389859
0.00120988
-0.39004
0.00124915
-0.39022
0.00128844
-0.3904
0.00132774
-0.390579
0.00136705
-0.390758
0.00140638
-0.390936
0.00144572
-0.391115
0.00148507
-0.391293
0.00152443
-0.39147
0.00156381
0.00160316
-0.391648
-0.343365
0.00120058
-0.343551
0.00123915
-0.343737
0.00127771
-0.343922
0.00131626
-0.344106
0.00135484
-0.344289
0.00139344
-0.344472
0.00143206
-0.344654
0.0014707
-0.344836
0.00150938
-0.345017
0.00154807
-0.345198
0.00158679
-0.345377
0.00162553
-0.345557
0.0016643
-0.345735
0.0017031
-0.345913
0.00174191
0.0017807
-0.346091
-0.303052
0.00138549
-0.303236
0.001423
-0.303419
0.00146051
-0.3036
0.00149803
-0.303781
0.00153559
-0.303961
0.00157319
-0.30414
0.00161083
-0.304317
0.00164851
-0.304494
0.00168623
-0.30467
0.00172399
-0.304845
0.0017618
-0.305019
0.00179964
-0.305193
0.00183753
-0.305365
0.00187547
-0.305536
0.00191344
0.00195141
-0.305707
-0.267402
0.00156197
-0.267577
0.00159799
-0.26775
0.00163403
-0.267922
0.00167012
-0.268093
0.00170626
-0.268262
0.00174247
-0.26843
0.00177875
-0.268597
0.00181509
-0.268762
0.0018515
-0.268926
0.00188799
-0.269089
0.00192454
-0.26925
0.00196116
-0.269411
0.00199785
-0.26957
0.00203461
-0.269728
0.00207144
0.00210831
-0.269885
-0.235881
0.00172407
-0.236041
0.00175812
-0.2362
0.00179223
-0.236356
0.00182642
-0.23651
0.00186071
-0.236663
0.0018951
-0.236814
0.00192961
-0.236963
0.00196421
-0.23711
0.00199893
-0.237256
0.00203376
-0.2374
0.0020687
-0.237543
0.00210375
-0.237684
0.00213891
-0.237824
0.00217418
-0.237962
0.00220957
0.00224505
-0.238098
-0.208002
0.00186624
-0.208142
0.00189784
-0.208279
0.00192956
-0.208414
0.00196142
-0.208547
0.00199344
-0.208677
0.00202562
-0.208806
0.00205796
-0.208932
0.00209047
-0.209056
0.00212315
-0.209178
0.002156
-0.209299
0.00218901
-0.209417
0.0022222
-0.209534
0.00225555
-0.209649
0.00228907
-0.209762
0.00232276
0.00235663
-0.209873
-0.183339
0.00198417
-0.183454
0.00201284
-0.183566
0.00204171
-0.183676
0.00207079
-0.183782
0.00210011
-0.183886
0.00212967
-0.183988
0.00215947
-0.184087
0.00218951
-0.184184
0.0022198
-0.184278
0.00225033
-0.18437
0.00228111
-0.18446
0.00231213
-0.184548
0.00234341
-0.184634
0.00237493
-0.184718
0.0024067
0.00243877
-0.1848
-0.161484
0.0020733
-0.16157
0.00209871
-0.161653
0.00212443
-0.161733
0.00215048
-0.161809
0.00217688
-0.161883
0.00220363
-0.161955
0.00223073
-0.162023
0.00225819
-0.16209
0.002286
-0.162153
0.00231416
-0.162215
0.00234266
-0.162274
0.00237151
-0.162332
0.0024007
-0.162387
0.00243022
-0.16244
0.00246009
0.00249039
-0.162492
-0.142081
0.00213296
-0.142138
0.00215481
-0.14219
0.00217709
-0.14224
0.00219983
-0.142286
0.00222305
-0.142329
0.00224677
-0.142369
0.00227097
-0.142407
0.00229563
-0.142441
0.00232073
-0.142473
0.0023462
-0.142503
0.00237202
-0.142529
0.00239828
-0.142554
0.00242498
-0.142576
0.00245211
-0.142595
0.00247968
0.00250786
-0.142613
-0.124666
0.00215641
-0.124686
0.00217492
-0.124703
0.00219402
-0.124716
0.00221365
-0.124727
0.00223378
-0.124735
0.00225446
-0.12474
0.00227585
-0.124742
0.00229794
-0.124742
0.00232063
-0.12474
0.00234383
-0.124735
0.00236754
-0.124729
0.00239181
-0.12472
0.00241667
-0.12471
0.00244213
-0.124699
0.00246815
0.00249485
-0.124686
-0.108785
0.00214441
-0.10877
0.00215936
-0.108751
0.00217511
-0.108729
0.00219163
-0.108704
0.00220886
-0.108676
0.00222683
-0.108646
0.00224564
-0.108613
0.0022653
-0.108579
0.00228574
-0.108542
0.00230693
-0.108503
0.00232886
-0.108463
0.00235153
-0.108421
0.00237502
-0.108378
0.00239931
-0.108334
0.00242437
0.00245035
-0.10829
-0.0942142
0.00209881
-0.0941651
0.00211035
-0.0941129
0.00212285
-0.0940576
0.00213631
-0.0939994
0.00215072
-0.0939386
0.00216605
-0.0938753
0.00218228
-0.0938094
0.00219941
-0.0937411
0.00221741
-0.0936704
0.00223626
-0.0935975
0.00225592
-0.0935223
0.00227641
-0.0934451
0.00229778
-0.0933658
0.00232001
-0.0932844
0.002343
0.00236697
-0.093201
-0.0807775
0.00200935
-0.0806851
0.00201787
-0.0805897
0.00202752
-0.0804917
0.00203827
-0.0803911
0.00205013
-0.0802881
0.00206304
-0.0801828
0.00207699
-0.0800753
0.00209195
-0.0799658
0.00210788
-0.0798543
0.00212476
-0.079741
0.00214256
-0.0796258
0.00216125
-0.0795088
0.0021808
-0.07939
0.00220117
-0.0792694
0.00222238
0.00224471
-0.0791471
-0.0685593
0.00188557
-0.068433
0.00189157
-0.0683043
0.00189881
-0.0681733
0.00190728
-0.0680401
0.00191695
-0.0679049
0.00192778
-0.0677676
0.00193974
-0.0676284
0.00195278
-0.0674874
0.00196688
-0.0673447
0.00198198
-0.0672002
0.00199807
-0.067054
0.00201509
-0.0669062
0.00203302
-0.0667569
0.00205183
-0.066606
0.00207151
0.0020924
-0.0664537
-0.0577944
0.00173719
-0.057644
0.00174117
-0.0574917
0.00174647
-0.0573375
0.00175309
-0.0571815
0.00176097
-0.0570238
0.00177007
-0.0568644
0.00178036
-0.0567034
0.00179178
-0.0565408
0.00180431
-0.0563767
0.00181789
-0.0562112
0.00183249
-0.0560441
0.00184808
-0.0558757
0.0018646
-0.0557059
0.00188204
-0.0555348
0.00190038
0.00191997
-0.0553624
-0.0485427
0.00157418
-0.0483782
0.00157666
-0.0482123
0.00158051
-0.0480449
0.0015857
-0.0478761
0.0015922
-0.047706
0.00159995
-0.0475346
0.00160892
-0.0473618
0.00161906
-0.0471879
0.00163032
-0.0470127
0.00164268
-0.0468362
0.00165609
-0.0466587
0.00167051
-0.04648
0.0016859
-0.0463002
0.00170223
-0.0461193
0.0017195
0.00173805
-0.0459374
-0.0407292
0.00140569
-0.0405597
0.00140713
-0.0403891
0.00140995
-0.0402175
0.00141411
-0.0400449
0.00141958
-0.0398713
0.00142632
-0.0396966
0.00143427
-0.039521
0.00144341
-0.0393443
0.0014537
-0.0391668
0.0014651
-0.0389883
0.00147759
-0.0388089
0.00149111
-0.0386286
0.00150564
-0.0384475
0.00152114
-0.0382656
0.0015376
0.0015554
-0.0380829
-0.0341962
0.00123885
-0.0340287
0.00123961
-0.0338605
0.00124173
-0.0336915
0.00124516
-0.0335218
0.00124988
-0.0333514
0.00125585
-0.0331801
0.00126303
-0.0330081
0.00127139
-0.0328353
0.00128091
-0.0326618
0.00129157
-0.0324875
0.00130334
-0.0323126
0.00131619
-0.0321371
0.00133009
-0.0319609
0.00134501
-0.0317843
0.00136094
0.00137826
-0.0316071
-0.0287556
0.00107863
-0.0285949
0.00107899
-0.0284339
0.00108064
-0.0282723
0.00108356
-0.0281101
0.00108772
-0.0279473
0.00109308
-0.0277839
0.00109964
-0.0276199
0.00110737
-0.0274553
0.00111626
-0.02729
0.00112631
-0.0271242
0.00113751
-0.0269578
0.00114983
-0.026791
0.00116328
-0.0266238
0.00117781
-0.0264563
0.00119344
0.00121056
-0.0262886
-0.024223
0.000928161
-0.0240723
0.000928295
-0.0239213
0.000929644
-0.0237699
0.000932184
-0.0236181
0.000935895
-0.0234658
0.000940763
-0.0233129
0.000946779
-0.0231595
0.000953945
-0.0230055
0.00096227
-0.022851
0.000971769
-0.0226959
0.000982457
-0.0225404
0.000994345
-0.0223846
0.00100744
-0.0222285
0.00102174
-0.0220724
0.00103726
0.00105444
-0.0219162
-0.0204365
0.000789085
-0.0202974
0.000789116
-0.020158
0.000790261
-0.0200183
0.000792507
-0.0198783
0.000795841
-0.0197378
0.00080026
-0.0195967
0.000805773
-0.0194552
0.000812398
-0.0193131
0.000820163
-0.0191704
0.000829111
-0.0190273
0.000839291
-0.0188837
0.000850751
-0.0187398
0.000863531
-0.0185957
0.000877662
-0.0184516
0.000893208
0.000910654
-0.0183078
-0.0172631
0.000662001
-0.017136
0.000662002
-0.0170088
0.000663006
-0.0168813
0.000665005
-0.0167534
0.000667997
-0.0166252
0.00067199
-0.0164964
0.000677004
-0.0163671
0.000683075
-0.0162372
0.000690252
-0.0161067
0.000698605
-0.0159756
0.000708227
-0.015844
0.000719206
-0.0157121
0.000731623
-0.01558
0.000745569
-0.0154481
0.000761231
0.000778949
-0.0153164
-0.014596
0.000546858
-0.0144809
0.000546867
-0.0143656
0.000547762
-0.0142502
0.000549539
-0.0141344
0.000552204
-0.0140181
0.000555772
-0.0139014
0.000560277
-0.0137841
0.000565766
-0.0136662
0.000572306
-0.0135475
0.000579995
-0.0134283
0.000588973
-0.0133085
0.000599384
-0.0131882
0.000611341
-0.0130676
0.000625013
-0.0129471
0.000640739
0.000659063
-0.0128273
-0.012348
0.000443234
-0.0122444
0.000443266
-0.0121407
0.000444064
-0.0120368
0.000445629
-0.0119326
0.000447971
-0.0118279
0.000451112
-0.0117227
0.000455093
-0.011617
0.000459971
-0.0115105
0.000465823
-0.0114032
0.000472767
-0.0112953
0.000480996
-0.0111866
0.000490716
-0.0110773
0.000502054
-0.0109676
0.000515288
-0.0108576
0.000530791
0.000550656
-0.0107492
-0.0104469
0.000350508
-0.0103542
0.000350562
-0.0102614
0.000351265
-0.0101684
0.000352621
-0.0100751
0.000354642
-0.00998133
0.000357354
-0.00988705
0.000360804
-0.00979213
0.000365052
-0.00969648
0.000370179
-0.00960003
0.000376313
-0.00950272
0.000383692
-0.00940461
0.000392602
-0.00930572
0.000403166
-0.00920605
0.00041562
-0.00910622
0.000430961
0.000452105
-0.00900767
-0.00883162
0.000267998
-0.00874911
0.000268059
-0.00866651
0.00026866
-0.00858369
0.000269802
-0.00850055
0.000271499
-0.00841697
0.000273783
-0.00833287
0.000276698
-0.00824812
0.000280307
-0.00816263
0.000284686
-0.00807628
0.000289962
-0.00798899
0.000296403
-0.00790077
0.00030438
-0.00781162
0.000314012
-0.00772133
0.000325339
-0.00763057
0.0003402
0.000362443
-0.00754091
-0.00744862
0.000195089
-0.00737569
0.000195131
-0.00730264
0.000195608
-0.00722936
0.000196519
-0.00715574
0.000197879
-0.00708168
0.000199723
-0.00700707
0.000202095
-0.00693182
0.000205049
-0.00685579
0.000208658
-0.00677887
0.000213043
-0.00670094
0.000218478
-0.00662196
0.000225394
-0.00654188
0.00023393
-0.00646043
0.000243892
-0.00637767
0.000257436
0.000280582
-0.0062958
-0.00624672
0.000131422
-0.00618299
0.000131405
-0.0061191
0.000131722
-0.00605495
0.000132367
-0.00599043
0.000133353
-0.00592542
0.000134721
-0.00585984
0.000136512
-0.00579356
0.00013877
-0.00572647
0.000141562
-0.00565843
0.000145004
-0.00558931
0.000149356
-0.00551895
0.000155042
-0.00544727
0.000162246
-0.00537406
0.000170677
-0.00529868
0.000182061
0.000205213
-0.00522331
-0.00516723
7.69705e-05
-0.0051127
7.68699e-05
-0.00505797
7.6996e-05
-0.00500295
7.73419e-05
-0.00494751
7.79127e-05
-0.00489154
7.87554e-05
-0.00483494
7.99124e-05
-0.00477758
8.1406e-05
-0.00471932
8.32987e-05
-0.00466
8.56898e-05
-0.00459946
8.88132e-05
-0.00453745
9.30308e-05
-0.00447377
9.85633e-05
-0.0044084
0.000105312
-0.00434034
0.000114003
0.000134903
-0.00427003
-0.00411558
3.19717e-05
-0.00407057
3.18644e-05
-0.00402541
3.18377e-05
-0.00397997
3.19043e-05
-0.00393415
3.20885e-05
-0.00388782
3.24272e-05
-0.00384083
3.29214e-05
-0.003793
3.35759e-05
-0.00374418
3.44793e-05
-0.0036942
3.57034e-05
-0.0036428
3.74171e-05
-0.0035896
3.98328e-05
-0.00353422
4.31847e-05
-0.00347649
4.75825e-05
-0.00341603
5.35394e-05
6.70221e-05
-0.00334815
-0.00263843
-0.00260657
-0.00257473
-0.00254283
-0.00251074
-0.00247831
-0.00244539
-0.00241182
-0.00237734
-0.00234163
-0.00230422
-0.00226438
-0.0022212
-0.00217362
-0.00212008
-0.00205305
-4.53654
0.00166077
-4.53625
0.00165506
-4.53595
0.0016493
-4.53566
0.00164354
-4.53535
0.00163776
-4.53505
0.00163198
-4.53474
0.0016262
-4.53442
0.00162041
-4.53411
0.00161461
-4.53379
0.00160881
-4.53346
0.00160301
-4.53314
0.00159721
-4.53281
0.0015914
-4.53247
0.00158558
-4.53213
0.00157977
-4.53179
0.00157395
-4.53144
0.00156813
-4.53109
0.0015623
-4.53074
0.00155647
-4.53038
0.00155064
-4.53002
0.00154481
-4.52965
0.00153898
-4.52928
0.00153314
-4.5289
0.0015273
-4.52852
0.00152145
-4.52814
0.00151561
-4.52775
0.00150976
-4.52736
0.00150391
-4.52696
0.00149806
-4.52656
0.00149221
-4.52615
0.00148636
-4.52574
0.0014805
-4.52532
0.00147464
-4.5249
0.00146878
-4.52447
0.00146292
-4.52404
0.00145706
-4.52361
0.0014512
-4.52316
0.00144533
-4.52272
0.00143947
-4.52226
0.0014336
-4.52181
0.00142773
-4.52134
0.00142186
-4.52087
0.00141599
-4.5204
0.00141012
-4.51992
0.00140424
-4.51943
0.00139837
-4.51894
0.0013925
-4.51844
0.00138658
0.00137979
-4.51794
-4.02074
0.00159333
-4.02067
0.00158548
-4.0206
0.00157759
-4.02053
0.00156967
-4.02045
0.00156172
-4.02037
0.00155376
-4.02029
0.00154577
-4.02021
0.00153775
-4.02012
0.00152972
-4.02004
0.00152166
-4.01995
0.00151357
-4.01986
0.00150546
-4.01976
0.00149733
-4.01967
0.00148917
-4.01957
0.00148099
-4.01947
0.00147279
-4.01936
0.00146456
-4.01926
0.0014563
-4.01915
0.00144802
-4.01904
0.00143972
-4.01892
0.00143139
-4.01881
0.00142303
-4.01869
0.00141465
-4.01857
0.00140624
-4.01844
0.0013978
-4.01832
0.00138934
-4.01819
0.00138085
-4.01806
0.00137234
-4.01792
0.0013638
-4.01779
0.00135522
-4.01765
0.00134663
-4.0175
0.001338
-4.01736
0.00132934
-4.01721
0.00132066
-4.01706
0.00131194
-4.01691
0.0013032
-4.01675
0.00129442
-4.01659
0.00128562
-4.01643
0.00127678
-4.01626
0.00126791
-4.01609
0.00125901
-4.01592
0.00125008
-4.01575
0.00124111
-4.01557
0.00123212
-4.01539
0.00122309
-4.0152
0.00121402
-4.01501
0.00120492
-4.01482
0.00119571
0.00118586
-4.01463
-3.50281
0.00162849
-3.50284
0.00162046
-3.50287
0.00161259
-3.5029
0.00160487
-3.50292
0.00159712
-3.50295
0.00158933
-3.50298
0.00158153
-3.50301
0.00157371
-3.50304
0.00156587
-3.50306
0.00155801
-3.50309
0.00155015
-3.50312
0.00154227
-3.50315
0.00153438
-3.50318
0.00152649
-3.50321
0.00151859
-3.50324
0.00151069
-3.50327
0.00150279
-3.5033
0.00149488
-3.50333
0.00148698
-3.50336
0.00147907
-3.50339
0.00147116
-3.50342
0.00146326
-3.50346
0.00145535
-3.50349
0.00144745
-3.50352
0.00143954
-3.50356
0.00143165
-3.50359
0.00142375
-3.50363
0.00141586
-3.50366
0.00140797
-3.5037
0.00140008
-3.50373
0.0013922
-3.50377
0.00138432
-3.50381
0.00137645
-3.50385
0.00136859
-3.50389
0.00136073
-3.50393
0.00135288
-3.50397
0.00134503
-3.50402
0.0013372
-3.50406
0.00132937
-3.5041
0.00132155
-3.50415
0.00131374
-3.5042
0.00130593
-3.50424
0.00129814
-3.50429
0.00129036
-3.50434
0.00128259
-3.5044
0.00127483
-3.50445
0.00126707
-3.5045
0.00125932
-3.50456
0.00125146
0.00124209
-3.50462
-3.05889
0.0016035
-3.05886
0.00159357
-3.05883
0.00158401
-3.0588
0.0015745
-3.05877
0.00156495
-3.05873
0.00155535
-3.0587
0.00154571
-3.05866
0.00153602
-3.05862
0.00152629
-3.05858
0.00151652
-3.05854
0.0015068
-3.05849
0.00149724
-3.05844
0.00148767
-3.0584
0.0014781
-3.05835
0.00146853
-3.05829
0.00145895
-3.05824
0.00144936
-3.05819
0.00143978
-3.05813
0.0014302
-3.05807
0.00142061
-3.05801
0.00141103
-3.05795
0.00140145
-3.05789
0.00139188
-3.05782
0.0013823
-3.05775
0.00137274
-3.05769
0.00136317
-3.05762
0.00135362
-3.05754
0.00134407
-3.05747
0.00133453
-3.05739
0.00132505
-3.05732
0.00131578
-3.05724
0.00130647
-3.05716
0.00129714
-3.05708
0.00128779
-3.057
0.00127844
-3.05691
0.00126909
-3.05683
0.00125973
-3.05674
0.00125038
-3.05665
0.00124104
-3.05656
0.0012317
-3.05647
0.00122238
-3.05638
0.00121306
-3.05629
0.00120376
-3.05619
0.00119447
-3.05609
0.0011852
-3.05599
0.00117594
-3.05589
0.00116669
-3.05579
0.00115746
-3.05569
0.00114816
0.00113813
-3.05558
-2.67425
0.00163152
-2.67428
0.00161936
-2.6743
0.00160768
-2.67432
0.00159591
-2.67434
0.00158414
-2.67436
0.00157233
-2.67437
0.0015605
-2.67439
0.00154864
-2.6744
0.00153674
-2.67441
0.00152482
-2.67441
0.00151295
-2.67442
0.00150121
-2.67442
0.00148948
-2.67442
0.00147774
-2.67441
0.001466
-2.67441
0.00145427
-2.6744
0.00144255
-2.67439
0.00143091
-2.67438
0.00141949
-2.67437
0.00140802
-2.67436
0.00139651
-2.67434
0.00138497
-2.67432
0.0013734
-2.6743
0.0013618
-2.67428
0.0013502
-2.67425
0.00133854
-2.67423
0.0013267
-2.6742
0.00131468
-2.67417
0.00130268
-2.67413
0.00129076
-2.67409
0.00127909
-2.67406
0.00126752
-2.67401
0.00125606
-2.67397
0.00124458
-2.67393
0.00123311
-2.67388
0.00122165
-2.67383
0.00121019
-2.67378
0.00119874
-2.67372
0.0011873
-2.67367
0.00117587
-2.67361
0.00116446
-2.67355
0.00115307
-2.67349
0.0011417
-2.67342
0.00113034
-2.67336
0.00111901
-2.67329
0.00110771
-2.67322
0.00109642
-2.67315
0.00108517
-2.67307
0.00107394
0.00106257
-2.673
-2.33655
0.00164568
-2.33656
0.00163128
-2.33657
0.00161678
-2.33658
0.00160238
-2.33658
0.00158833
-2.33658
0.0015735
-2.33658
0.00155846
-2.33657
0.00154385
-2.33657
0.00152923
-2.33656
0.0015146
-2.33654
0.00149996
-2.33653
0.00148531
-2.33651
0.00147065
-2.33649
0.00145599
-2.33646
0.00144132
-2.33644
0.00142666
-2.3364
0.00141202
-2.33637
0.00139744
-2.33634
0.00138306
-2.3363
0.00136863
-2.33625
0.00135418
-2.33621
0.00133975
-2.33616
0.00132551
-2.33611
0.00131149
-2.33606
0.00129725
-2.336
0.00128297
-2.33594
0.00126842
-2.33588
0.00125342
-2.33582
0.00123818
-2.33575
0.00122304
-2.33568
0.00120802
-2.3356
0.00119321
-2.33553
0.00117872
-2.33545
0.00116431
-2.33536
0.00114992
-2.33528
0.00113556
-2.33519
0.00112123
-2.3351
0.00110694
-2.335
0.00109268
-2.3349
0.00107845
-2.3348
0.00106427
-2.3347
0.00105012
-2.3346
0.00103601
-2.33449
0.00102194
-2.33438
0.00100792
-2.33426
0.000993936
-2.33415
0.000980002
-2.33403
0.000966122
-2.33391
0.000952318
0.000938754
-2.33378
-2.04446
0.00169207
-2.0445
0.00167382
-2.04454
0.00165562
-2.04458
0.00163749
-2.04461
0.00161922
-2.04464
0.00160007
-2.04466
0.00158102
-2.04468
0.00156241
-2.04469
0.00154378
-2.0447
0.00152512
-2.04471
0.00150645
-2.04471
0.00148776
-2.04471
0.00146906
-2.0447
0.00145035
-2.04469
0.00143163
-2.04468
0.00141291
-2.04466
0.00139418
-2.04464
0.00137546
-2.04461
0.00135674
-2.04458
0.00133802
-2.04455
0.00131932
-2.04451
0.00130066
-2.04447
0.0012822
-2.04442
0.00126396
-2.04437
0.00124555
-2.04431
0.00122715
-2.04425
0.00120868
-2.04419
0.00118996
-2.04412
0.00117106
-2.04405
0.00115222
-2.04398
0.00113347
-2.0439
0.00111481
-2.04381
0.00109637
-2.04373
0.00107801
-2.04364
0.00105969
-2.04354
0.00104142
-2.04345
0.0010232
-2.04334
0.00100503
-2.04324
0.00098691
-2.04313
0.000968852
-2.04301
0.000950853
-2.0429
0.000932915
-2.04278
0.000915042
-2.04265
0.000897235
-2.04252
0.000879497
-2.04239
0.00086183
-2.04226
0.000844238
-2.04212
0.000826729
-2.04197
0.000809327
0.000792062
-2.04183
-1.78963
0.00175124
-1.78969
0.00172799
-1.78974
0.00170467
-1.78978
0.00168129
-1.78982
0.00165748
-1.78985
0.00163345
-1.78988
0.00160963
-1.78991
0.00158583
-1.78992
0.001562
-1.78994
0.00153812
-1.78994
0.00151421
-1.78995
0.00149027
-1.78994
0.0014663
-1.78994
0.00144232
-1.78992
0.00141831
-1.7899
0.0013943
-1.78988
0.00137028
-1.78985
0.00134626
-1.78982
0.00132223
-1.78978
0.00129822
-1.78973
0.00127422
-1.78968
0.00125023
-1.78963
0.00122626
-1.78956
0.00120231
-1.7895
0.00117839
-1.78942
0.0011545
-1.78935
0.00113065
-1.78926
0.00110684
-1.78917
0.00108308
-1.78908
0.00105937
-1.78898
0.00103571
-1.78888
0.00101212
-1.78877
0.000988584
-1.78866
0.00096512
-1.78854
0.000941728
-1.78842
0.000918412
-1.78829
0.000895177
-1.78816
0.000872026
-1.78802
0.000848964
-1.78788
0.000825994
-1.78773
0.000803121
-1.78758
0.000780348
-1.78742
0.00075768
-1.78726
0.00073512
-1.78709
0.000712672
-1.78692
0.00069034
-1.78674
0.000668128
-1.78656
0.000646051
-1.78638
0.000624147
0.000602586
-1.78619
-1.56832
0.00184333
-1.5684
0.00181331
-1.56848
0.00178312
-1.56855
0.00175283
-1.56862
0.00172243
-1.56868
0.00169194
-1.56873
0.00166136
-1.56877
0.0016307
-1.56881
0.00159996
-1.56884
0.00156916
-1.56887
0.00153829
-1.56889
0.00150738
-1.5689
0.00147641
-1.5689
0.00144541
-1.56889
0.00141438
-1.56888
0.00138332
-1.56887
0.00135224
-1.56884
0.00132116
-1.56881
0.00129007
-1.56877
0.00125899
-1.56872
0.00122793
-1.56867
0.00119688
-1.56861
0.00116586
-1.56854
0.00113488
-1.56847
0.00110394
-1.56839
0.00107305
-1.5683
0.00104222
-1.5682
0.00101145
-1.5681
0.000980753
-1.56799
0.000950138
-1.56787
0.000919609
-1.56775
0.000889175
-1.56762
0.000858842
-1.56748
0.000828617
-1.56734
0.000798508
-1.56719
0.000768521
-1.56704
0.000738663
-1.56687
0.00070894
-1.5667
0.00067936
-1.56653
0.000649929
-1.56634
0.000620653
-1.56616
0.000591538
-1.56596
0.000562592
-1.56576
0.00053382
-1.56555
0.000505229
-1.56534
0.000476824
-1.56512
0.000448613
-1.56489
0.000420614
-1.56466
0.000392877
0.000365566
-1.56442
-1.3756
0.00196923
-1.37571
0.00193081
-1.37582
0.00189212
-1.37592
0.00185324
-1.37602
0.00181419
-1.3761
0.00177497
-1.37617
0.00173561
-1.37624
0.00169611
-1.37629
0.00165648
-1.37634
0.00161673
-1.37638
0.00157687
-1.37641
0.00153693
-1.37643
0.0014969
-1.37644
0.0014568
-1.37644
0.00141665
-1.37644
0.00137644
-1.37642
0.0013362
-1.3764
0.00129595
-1.37636
0.00125568
-1.37632
0.00121542
-1.37627
0.00117517
-1.3762
0.00113495
-1.37613
0.00109476
-1.37605
0.00105463
-1.37596
0.00101457
-1.37586
0.000974581
-1.37576
0.000934681
-1.37564
0.000894882
-1.37552
0.000855196
-1.37538
0.000815635
-1.37524
0.000776211
-1.37508
0.000736936
-1.37492
0.000697821
-1.37475
0.000658878
-1.37458
0.000620118
-1.37439
0.000581552
-1.37419
0.000543193
-1.37399
0.000505049
-1.37378
0.000467133
-1.37356
0.000429455
-1.37333
0.000392025
-1.37309
0.000354853
-1.37285
0.00031795
-1.37259
0.000281326
-1.37233
0.000244989
-1.37207
0.00020895
-1.37179
0.00017322
-1.37151
0.000137824
-1.37122
0.000102833
6.8523e-05
-1.37092
-1.20805
0.00214257
-1.20821
0.00209348
-1.20836
0.00204398
-1.2085
0.0019942
-1.20863
0.00194412
-1.20875
0.00189378
-1.20886
0.00184318
-1.20895
0.00179236
-1.20904
0.00174132
-1.20911
0.00169008
-1.20917
0.00163866
-1.20922
0.00158709
-1.20926
0.00153537
-1.20929
0.00148353
-1.2093
0.00143158
-1.20931
0.00137957
-1.2093
0.00132747
-1.20928
0.00127533
-1.20924
0.00122317
-1.2092
0.00117101
-1.20914
0.00111886
-1.20908
0.00106675
-1.209
0.00101469
-1.2089
0.000962704
-1.2088
0.000910814
-1.20868
0.000859039
-1.20856
0.000807398
-1.20842
0.00075591
-1.20827
0.000704597
-1.20811
0.000653476
-1.20793
0.000602567
-1.20775
0.00055189
-1.20755
0.000501463
-1.20734
0.000451304
-1.20712
0.000401433
-1.20689
0.000351866
-1.20665
0.000302623
-1.2064
0.000253721
-1.20614
0.000205176
-1.20587
0.000157006
-1.20559
0.000109226
-1.20529
6.18538e-05
-1.20499
1.49046e-05
-1.20468
-3.1606e-05
-1.20435
-7.76629e-05
-1.20402
-0.000123252
-1.20368
-0.000168355
-1.20333
-0.000212939
-1.20297
-0.000256909
-0.00029992
-1.2026
-1.06217
0.00237169
-1.06239
0.00230938
-1.06259
0.00224647
-1.06278
0.00218308
-1.06296
0.00211923
-1.06312
0.00205495
-1.06327
0.00199027
-1.0634
0.00192521
-1.06352
0.00185979
-1.06362
0.00179406
-1.06371
0.00172803
-1.06378
0.00166173
-1.06384
0.0015952
-1.06389
0.00152846
-1.06392
0.00146155
-1.06393
0.00139449
-1.06393
0.00132731
-1.06392
0.00126005
-1.06389
0.00119274
-1.06384
0.0011254
-1.06378
0.00105808
-1.06371
0.00099079
-1.06362
0.000923577
-1.06351
0.000856468
-1.06339
0.000789494
-1.06325
0.000722686
-1.0631
0.000656077
-1.06293
0.000589697
-1.06275
0.000523577
-1.06256
0.000457749
-1.06235
0.000392243
-1.06212
0.000327088
-1.06188
0.000262317
-1.06163
0.000197957
-1.06136
0.000134038
-1.06108
7.05881e-05
-1.06079
7.63654e-06
-1.06048
-5.47895e-05
-1.06016
-0.000116663
-1.05982
-0.000177957
-1.05947
-0.000238646
-1.05911
-0.000298704
-1.05874
-0.000358108
-1.05835
-0.000416832
-1.05796
-0.000474854
-1.05755
-0.000532152
-1.05713
-0.0005887
-1.0567
-0.000644451
-1.05625
-0.000699279
-0.000752705
-1.0558
-0.935126
0.00266858
-0.935407
0.00259015
-0.935672
0.00251084
-0.935919
0.00243079
-0.93615
0.00235003
-0.936364
0.00226859
-0.93656
0.00218651
-0.936739
0.00210384
-0.936899
0.00202062
-0.937042
0.00193688
-0.937167
0.00185267
-0.937273
0.00176804
-0.937361
0.00168303
-0.93743
0.00159768
-0.937481
0.00151203
-0.937512
0.00142615
-0.937525
0.00134007
-0.937519
0.00125382
-0.937494
0.00116747
-0.937449
0.00108107
-0.937386
0.000994663
-0.937303
0.000908292
-0.937202
0.000822008
-0.937081
0.00073586
-0.936942
0.000649897
-0.936783
0.000564166
-0.936606
0.000478717
-0.93641
0.000393597
-0.936195
0.000308856
-0.935962
0.000224541
-0.93571
0.0001407
-0.93544
5.73798e-05
-0.935153
-2.53728e-05
-0.934847
-0.000107512
-0.934524
-0.000188991
-0.934184
-0.000269766
-0.933826
-0.000349793
-0.933452
-0.000429029
-0.933061
-0.000507431
-0.932654
-0.000584957
-0.932232
-0.000661568
-0.931793
-0.000737225
-0.931339
-0.000811889
-0.930871
-0.000885524
-0.930387
-0.000958094
-0.92989
-0.00102957
-0.929379
-0.0010999
-0.928854
-0.00116903
-0.928317
-0.00123681
-0.0013026
-0.927767
-0.824253
0.00304222
-0.824608
0.00294461
-0.824943
0.00284571
-0.825257
0.0027457
-0.825552
0.00264462
-0.825826
0.00254251
-0.826079
0.00243945
-0.826311
0.00233548
-0.826521
0.00223067
-0.826709
0.00212508
-0.826875
0.00201877
-0.827019
0.00191179
-0.82714
0.00180422
-0.827238
0.00169613
-0.827314
0.00158756
-0.827366
0.0014786
-0.827395
0.0013693
-0.827401
0.00125977
-0.827384
0.00115001
-0.827343
0.00104014
-0.827279
0.000930214
-0.827191
0.00082031
-0.827079
0.000710496
-0.826944
0.000600842
-0.826786
0.000491423
-0.826604
0.00038231
-0.826399
0.000273576
-0.82617
0.000165294
-0.825919
5.75366e-05
-0.825645
-4.9624e-05
-0.825348
-0.000156115
-0.825029
-0.000261866
-0.824687
-0.000366803
-0.824324
-0.000470858
-0.823939
-0.00057396
-0.823533
-0.00067604
-0.823105
-0.00077703
-0.822658
-0.000876864
-0.82219
-0.000975475
-0.821702
-0.0010728
-0.821195
-0.00116878
-0.820668
-0.00126335
-0.820124
-0.00135645
-0.819561
-0.00144803
-0.818981
-0.00153803
-0.818385
-0.00162641
-0.817771
-0.0017131
-0.817142
-0.00179801
-0.816498
-0.00188095
-0.00196112
-0.81584
-0.727319
0.00350012
-0.727754
0.00338014
-0.728167
0.00325838
-0.728556
0.003135
-0.728922
0.00301007
-0.729263
0.00288368
-0.729579
0.00275589
-0.729871
0.00262679
-0.730136
0.00249646
-0.730376
0.00236498
-0.73059
0.00223244
-0.730777
0.00209893
-0.730937
0.00196452
-0.731071
0.00182932
-0.731176
0.0016934
-0.731255
0.00155686
-0.731305
0.00141981
-0.731328
0.00128233
-0.731322
0.00114448
-0.731289
0.00100641
-0.731227
0.000868197
-0.731136
0.000729944
-0.731017
0.000591749
-0.73087
0.000453714
-0.730695
0.00031594
-0.730491
0.000178533
-0.730259
4.15957e-05
-0.729999
-9.47655e-05
-0.729711
-0.000230445
-0.729395
-0.000365338
-0.729052
-0.000499336
-0.728682
-0.000632334
-0.728284
-0.000764224
-0.72786
-0.000894901
-0.72741
-0.00102426
-0.726934