/*--------------------------------*- C++ -*----------------------------------*\
  =========                 |
  \\      /  F ield         | OpenFOAM: The Open Source CFD Toolbox
   \\    /   O peration     | Website:  https://openfoam.org
    \\  /    A nd           | Version:  9
     \\/     M anipulation  |
\*---------------------------------------------------------------------------*/
FoamFile
{
    format      ascii;
    class       volVectorField;
    location    "0.005";
    object      U;
}
// * * * * * * * * * * * * * * * * * * * * * * * * * * * * * * * * * * * * * //

dimensions      [0 1 -1 0 0 0 0];

internalField   nonuniform List<vector> 
5373
(
(30.6027 -0.722683 0)
(30.8055 -0.792704 0)
(30.8056 -0.792042 0)
(30.8057 -0.79138 9.70325e-18)
(30.8059 -0.79072 -2.75003e-17)
(30.992 -0.776392 8.90609e-23)
(30.9921 -0.77554 1.16739e-17)
(30.9921 -0.774686 -1.16736e-17)
(30.9922 -0.773829 1.16734e-17)
(30.9923 -0.772969 -2.33458e-17)
(30.9925 -0.772049 -4.95027e-22)
(31.2236 -0.821954 2.12464e-22)
(31.2237 -0.820789 0)
(31.2239 -0.819622 6.96156e-18)
(31.2241 -0.818451 -6.96149e-18)
(31.2242 -0.817278 -1.39227e-17)
(31.2244 -0.816104 -5.24282e-23)
(31.2245 -0.81493 1.39215e-17)
(31.2249 -0.813752 2.6546e-26)
(31.4705 -0.844393 -5.0361e-22)
(31.4708 -0.842852 0)
(31.471 -0.841307 0)
(31.4712 -0.839755 8.25157e-18)
(31.4715 -0.8382 -8.25153e-18)
(31.4717 -0.836643 0)
(31.4719 -0.835085 -8.25084e-18)
(31.4721 -0.833527 1.6501e-17)
(31.4725 -0.831964 -2.25717e-17)
(31.7531 -0.902097 -4.86471e-18)
(31.7535 -0.900026 -4.86541e-18)
(31.7538 -0.897948 1.06352e-24)
(31.7542 -0.895862 9.73036e-18)
(31.7546 -0.893772 2.96908e-22)
(31.755 -0.89168 9.72955e-18)
(31.7554 -0.889588 -9.72916e-18)
(31.7558 -0.887495 -9.72898e-18)
(31.7562 -0.885401 9.72856e-18)
(31.7566 -0.883308 0)
(31.7572 -0.881207 8.0511e-22)
(32.0665 -0.962473 -5.71489e-18)
(32.0672 -0.959726 6.98459e-22)
(32.0678 -0.95697 1.14286e-17)
(32.0684 -0.954203 -5.71431e-18)
(32.069 -0.951429 5.71284e-18)
(32.0696 -0.948653 -5.71342e-18)
(32.0703 -0.945875 5.71307e-18)
(32.0709 -0.943095 -5.71302e-18)
(32.0715 -0.940315 0)
(32.0721 -0.937534 0)
(32.073 -0.934742 -4.69158e-22)
(32.4202 -1.05617 0)
(32.4212 -1.05254 6.69217e-18)
(32.4222 -1.0489 -1.94083e-24)
(32.4231 -1.04524 -6.68897e-18)
(32.4241 -1.04157 8.16449e-22)
(32.4251 -1.0379 -6.68836e-18)
(32.4261 -1.03423 4.10187e-22)
(32.4271 -1.03055 -2.02154e-22)
(32.4281 -1.02688 6.68801e-18)
(32.429 -1.0232 0)
(32.4301 -1.01952 -4.0812e-22)
(32.4312 -1.01583 -8.93568e-18)
(32.8141 -1.17586 -3.90347e-18)
(32.8156 -1.17112 7.8109e-18)
(32.8171 -1.16636 -3.90739e-18)
(32.8186 -1.16159 0)
(32.8201 -1.1568 -9.53545e-22)
(32.8216 -1.152 -3.90631e-18)
(32.8231 -1.1472 1.83134e-24)
(32.8246 -1.1424 3.90414e-18)
(32.8261 -1.13759 -3.90467e-18)
(32.8276 -1.13278 3.90468e-18)
(32.8291 -1.12797 -7.8086e-18)
(32.8306 -1.12316 1.5617e-17)
(32.8324 -1.11832 -1.03694e-17)
(33.2531 -1.3296 -4.44467e-21)
(33.2554 -1.32348 2.22214e-21)
(33.2576 -1.31733 4.55138e-18)
(33.2599 -1.31115 -3.316e-24)
(33.2622 -1.30497 -3.31436e-24)
(33.2644 -1.29877 -4.54995e-18)
(33.2667 -1.29256 0)
(33.269 -1.28635 4.55063e-18)
(33.2712 -1.28014 -4.55035e-18)
(33.2735 -1.27392 -3.47103e-23)
(33.2757 -1.26769 -2.77712e-22)
(33.278 -1.26146 5.55271e-22)
(33.2805 -1.2552 1.46632e-21)
(33.7305 -1.53006 0)
(33.7338 -1.52227 -2.64554e-18)
(33.7371 -1.51445 2.64551e-18)
(33.7405 -1.50659 0)
(33.7438 -1.49872 0)
(33.7471 -1.49083 0)
(33.7504 -1.48292 -2.58561e-21)
(33.7537 -1.47501 0)
(33.757 -1.46709 1.32687e-25)
(33.7604 -1.45917 0)
(33.7637 -1.45123 4.03923e-23)
(33.7669 -1.44328 -3.2304e-22)
(33.7702 -1.43532 -6.46145e-22)
(33.7738 -1.42733 -1.69631e-21)
(34.2489 -1.77148 3.00596e-21)
(34.2536 -1.76171 3.00588e-21)
(34.2584 -1.7519 3.07828e-18)
(34.2631 -1.74204 -3.01056e-21)
(34.2678 -1.73216 -6.15593e-18)
(34.2726 -1.72226 6.15553e-18)
(34.2773 -1.71234 -3.07604e-18)
(34.282 -1.7024 -3.07728e-18)
(34.2867 -1.69246 3.07775e-18)
(34.2914 -1.68249 0)
(34.2961 -1.67252 4.69354e-23)
(34.3008 -1.66253 3.75523e-22)
(34.3055 -1.65252 0)
(34.3104 -1.64246 4.01886e-18)
(34.7937 -2.07309 -1.79555e-18)
(34.8003 -2.06105 1.79197e-18)
(34.8069 -2.04896 -3.49329e-21)
(34.8134 -2.03682 3.57651e-18)
(34.82 -2.02463 -7.14899e-18)
(34.8265 -2.01243 7.15187e-18)
(34.8331 -2.00019 -3.4994e-21)
(34.8396 -1.98794 -8.05251e-24)
(34.8461 -1.97566 -1.75333e-21)
(34.8526 -1.96336 -8.03615e-24)
(34.859 -1.95104 -3.57438e-18)
(34.8655 -1.9387 -5.45324e-23)
(34.8719 -1.92633 0)
(34.8784 -1.91394 3.57235e-18)
(34.8851 -1.90149 -4.64211e-18)
(35.3695 -2.41475 2.08637e-18)
(35.3784 -2.40013 -8.11839e-21)
(35.3872 -2.38544 0)
(35.396 -2.37068 -2.07766e-18)
(35.4048 -2.35587 2.07743e-18)
(35.4135 -2.34103 -2.07717e-18)
(35.4223 -2.32615 7.4352e-24)
(35.431 -2.31125 2.07865e-18)
(35.4397 -2.29631 -2.07429e-18)
(35.4484 -2.28134 6.34809e-24)
(35.457 -2.26634 2.07667e-18)
(35.4656 -2.25131 2.07523e-18)
(35.4742 -2.23625 -6.33715e-24)
(35.4829 -2.22116 2.07553e-18)
(35.4917 -2.20598 -5.36195e-18)
(35.9645 -2.80185 -1.88762e-20)
(35.9759 -2.78434 0)
(35.9874 -2.76674 0)
(35.9988 -2.74906 -4.71646e-21)
(36.0102 -2.73132 -2.41481e-18)
(36.0215 -2.71353 9.76532e-24)
(36.0328 -2.6957 1.10369e-23)
(36.0441 -2.67782 4.82481e-18)
(36.0554 -2.65991 -2.41549e-18)
(36.0666 -2.64196 2.41383e-18)
(36.0778 -2.62397 -2.41335e-18)
(36.0889 -2.60593 2.41173e-18)
(36.1 -2.58786 -4.82225e-18)
(36.1112 -2.56974 2.41058e-18)
(36.1225 -2.55152 -3.10415e-18)
(36.5718 -3.22797 1.09867e-20)
(36.5862 -3.20722 1.09816e-20)
(36.6005 -3.18638 1.4056e-18)
(36.6148 -3.16543 -2.80517e-18)
(36.6291 -3.14442 1.39956e-18)
(36.6433 -3.12334 5.48646e-21)
(36.6575 -3.10222 1.58083e-24)
(36.6716 -3.08105 -2.74202e-21)
(36.6857 -3.05983 2.74218e-21)
(36.6997 -3.03856 -1.37076e-21)
(36.7137 -3.01724 6.8521e-22)
(36.7276 -2.99588 8.56043e-23)
(36.7414 -2.97446 -6.84654e-22)
(36.7553 -2.953 -2.8054e-18)
(36.7694 -2.93141 -3.48524e-21)
(37.1864 -3.68175 0)
(37.2039 -3.65737 -2.56093e-20)
(37.2213 -3.63288 -6.39986e-21)
(37.2386 -3.60827 1.64462e-18)
(37.2559 -3.58359 6.38834e-21)
(37.2731 -3.55885 -1.65019e-18)
(37.2902 -3.53405 6.39524e-21)
(37.3073 -3.5092 1.6397e-18)
(37.3242 -3.48429 -1.63606e-18)
(37.3412 -3.45933 -1.63718e-18)
(37.358 -3.43433 9.99066e-24)
(37.3748 -3.40927 3.26913e-18)
(37.3915 -3.38416 -1.63332e-18)
(37.4082 -3.35899 0)
(37.4251 -3.3337 4.06225e-21)
(37.7837 -4.17925 -9.73129e-19)
(37.8044 -4.15077 9.42932e-19)
(37.8249 -4.12216 1.49649e-20)
(37.8453 -4.09343 -1.9072e-18)
(37.8656 -4.06464 1.90665e-18)
(37.8858 -4.03578 1.90607e-18)
(37.9059 -4.00687 1.49309e-20)
(37.9259 -3.97791 -1.9049e-18)
(37.9457 -3.9489 1.90801e-18)
(37.9655 -3.91985 3.71834e-21)
(37.9852 -3.89075 -1.90864e-18)
(38.0048 -3.8616 0)
(38.0242 -3.83241 -1.16509e-22)
(38.0435 -3.80317 0)
(38.0628 -3.77389 0)
(38.0824 -3.74448 4.71577e-21)
(38.4007 -4.65254 0)
(38.4242 -4.61922 1.75427e-20)
(38.4474 -4.58577 0)
(38.4705 -4.55222 1.13934e-18)
(38.4935 -4.51861 -1.13021e-18)
(38.5162 -4.48496 8.75951e-21)
(38.5389 -4.45128 1.12066e-18)
(38.5613 -4.41756 -1.12903e-18)
(38.5836 -4.38382 4.37513e-21)
(38.6058 -4.35004 -1.1282e-18)
(38.6278 -4.31625 2.19415e-21)
(38.6496 -4.28243 1.11864e-18)
(38.6713 -4.24858 1.36521e-22)
(38.6928 -4.21472 1.0914e-21)
(38.7143 -4.18082 1.11954e-18)
(38.736 -4.14684 -1.40561e-18)
(39.0183 -5.11202 -1.32037e-18)
(39.044 -5.07298 2.61917e-18)
(39.0695 -5.03384 -1.31942e-18)
(39.0947 -4.99463 -1.33953e-18)
(39.1196 -4.9554 1.32874e-18)
(39.1444 -4.91618 -1.02946e-20)
(39.1688 -4.87695 1.30715e-18)
(39.1931 -4.83774 -1.12606e-23)
(39.2171 -4.79854 -1.31131e-18)
(39.2409 -4.75936 5.14115e-21)
(39.2645 -4.72019 -2.56958e-21)
(39.2879 -4.68105 0)
(39.3111 -4.64193 1.60421e-22)
(39.334 -4.60284 -4.16154e-25)
(39.3568 -4.56377 1.31078e-18)
(39.3798 -4.52466 -6.42502e-21)
(39.6362 -5.5421 -2.43394e-20)
(39.6633 -5.49634 -7.54354e-19)
(39.69 -5.45054 1.55679e-18)
(39.7164 -5.40475 -7.78097e-19)
(39.7425 -5.359 0)
(39.7682 -5.31332 1.21502e-20)
(39.7935 -5.26772 -7.89339e-19)
(39.8186 -5.2222 6.59933e-24)
(39.8433 -5.17676 -6.06165e-21)
(39.8677 -5.13142 7.82376e-19)
(39.8918 -5.08618 0)
(39.9156 -5.04104 -1.55142e-18)
(39.9391 -4.996 3.10147e-18)
(39.9622 -4.95107 -1.55175e-18)
(39.9852 -4.90624 -1.54962e-18)
(40.0085 -4.86148 1.92939e-18)
(40.2508 -5.93085 -8.93484e-19)
(40.2781 -5.87721 8.02301e-24)
(40.3049 -5.82363 9.21624e-19)
(40.3312 -5.77016 0)
(40.357 -5.71686 0)
(40.3824 -5.66374 0)
(40.4072 -5.61082 1.43815e-20)
(40.4317 -5.55809 0)
(40.4557 -5.50558 0)
(40.4793 -5.45328 -7.18306e-21)
(40.5025 -5.40119 0)
(40.5253 -5.34934 3.58786e-21)
(40.5476 -5.29771 9.18331e-19)
(40.5695 -5.24632 -9.18016e-19)
(40.5913 -5.19517 0)
(40.6132 -5.14427 -8.82056e-21)
(40.8591 -6.2643 -3.42078e-20)
(40.885 -6.20176 -5.13047e-19)
(40.9103 -6.13945 5.81257e-19)
(40.9348 -6.07743 0)
(40.9588 -6.01575 0)
(40.9821 -5.95444 0)
(41.0048 -5.89349 0)
(41.027 -5.83293 0)
(41.0485 -5.77275 0)
(41.0695 -5.71296 0)
(41.09 -5.65357 4.26316e-21)
(41.1099 -5.59458 -4.26339e-21)
(41.1293 -5.53599 0)
(41.1481 -5.47782 0)
(41.1667 -5.42007 1.09041e-18)
(41.1854 -5.36278 -2.6486e-18)
(41.4486 -6.53627 8.1276e-20)
(41.471 -6.46367 -6.50073e-19)
(41.4925 -6.39152 6.09287e-19)
(41.5133 -6.31988 0)
(41.5332 -6.24882 -2.02974e-20)
(41.5523 -6.17834 6.49501e-19)
(41.5707 -6.10847 -2.02919e-20)
(41.5884 -6.0392 -1.27823e-18)
(41.6054 -5.97054 6.49147e-19)
(41.6218 -5.90249 -1.01396e-20)
(41.6375 -5.83508 6.43875e-19)
(41.6526 -5.76831 -1.29771e-18)
(41.6671 -5.7022 6.48453e-19)
(41.681 -5.63675 -6.48687e-19)
(41.6945 -5.572 6.53679e-19)
(41.7082 -5.50807 -1.22452e-20)
(42.0033 -6.73046 7.2091e-19)
(42.0204 -6.64744 -1.63388e-18)
(42.0363 -6.56526 7.68806e-19)
(42.0511 -6.48398 0)
(42.065 -6.40363 -7.4465e-19)
(42.078 -6.32424 1.53725e-18)
(42.09 -6.24581 -1.51316e-18)
(42.1013 -6.16835 7.44547e-19)
(42.1117 -6.09186 1.20067e-20)
(42.1212 -6.01635 3.67323e-24)
(42.1298 -5.9418 0)
(42.1377 -5.86821 7.62568e-19)
(42.1446 -5.79556 -7.68219e-19)
(42.1508 -5.72383 0)
(42.1565 -5.65304 -1.71477e-24)
(42.1619 -5.58341 -9.20704e-19)
(42.4527 -6.85756 -5.60873e-20)
(42.46 -6.76363 5.04834e-19)
(42.4661 -6.67083 -3.92617e-19)
(42.471 -6.57923 4.48667e-19)
(42.4749 -6.48893 -8.97288e-19)
(42.4777 -6.39994 4.76664e-19)
(42.4794 -6.31229 0)
(42.4802 -6.22589 -2.80346e-20)
(42.4801 -6.14064 -1.40218e-20)
(42.4793 -6.0562 2.8041e-20)
(42.4776 -5.97255 0)
(42.4752 -5.89006 7.01303e-21)
(42.4721 -5.80878 8.97295e-19)
(42.4685 -5.72872 -8.97951e-19)
(42.4641 -5.64994 -7.01816e-21)
(42.4588 -5.57298 -1.67159e-20)
(42.6761 -6.86732 6.47174e-20)
(42.6705 -6.76446 -5.17782e-19)
(42.6635 -6.66333 -2.42228e-23)
(42.6549 -6.56371 5.1804e-19)
(42.6455 -6.46533 0)
(42.6344 -6.36844 -3.24004e-20)
(42.623 -6.27372 0)
(42.61 -6.18119 5.51073e-19)
(42.5963 -6.09051 -5.18813e-19)
(42.5816 -6.00166 -5.35205e-19)
(42.5661 -5.91459 5.19147e-19)
(42.55 -5.82932 5.19319e-19)
(42.5333 -5.74586 -5.18969e-19)
(42.5163 -5.66423 5.19639e-19)
(42.4985 -5.5844 7.04446e-24)
(42.4777 -5.50648 -6.17351e-19)
(42.5815 -6.80649 -3.71016e-19)
(42.5597 -6.69414 2.96883e-19)
(42.5364 -6.5841 -4.45436e-19)
(42.5117 -6.4764 2.22782e-19)
(42.4855 -6.37098 0)
(42.4581 -6.26783 5.94399e-19)
(42.4296 -6.16689 9.72134e-24)
(42.3998 -6.06819 -3.71574e-20)
(42.3689 -5.97171 -5.94931e-19)
(42.3369 -5.87737 0)
(42.3038 -5.78513 -9.30083e-21)
(42.2697 -5.69505 -9.30399e-21)
(42.2346 -5.6075 0)
(42.1985 -5.52243 0)
(42.1614 -5.4395 -9.31369e-21)
(42.1232 -5.35897 7.30291e-19)
(42.0685 -6.62569 1.70161e-19)
(42.0207 -6.50643 0)
(41.9713 -6.38997 3.40636e-19)
(41.9204 -6.27633 -2.55558e-19)
(41.8682 -6.1655 0)
(41.8146 -6.05742 -4.26301e-20)
(41.7598 -5.95206 0)
(41.7038 -5.84935 3.84087e-19)
(41.6466 -5.74926 -3.41563e-19)
(41.5884 -5.65174 0)
(41.5291 -5.55676 1.06855e-20)
(41.4689 -5.46426 2.13793e-20)
(41.4078 -5.3742 0)
(41.3457 -5.2865 3.42409e-19)
(41.2824 -5.20119 -3.31865e-19)
(41.2174 -5.11891 4.07629e-19)
(41.1428 -6.32836 -6.87615e-19)
(41.0672 -6.20434 4.91434e-19)
(40.9901 -6.0837 3.93438e-19)
(40.9116 -5.96643 1.18812e-23)
(40.8317 -5.85246 -4.43155e-19)
(40.7505 -5.74175 4.4347e-19)
(40.6681 -5.63421 1.174e-23)
(40.5844 -5.52978 -3.94706e-19)
(40.4997 -5.42839 -2.4684e-20)
(40.4138 -5.32996 -3.70548e-19)
(40.3269 -5.23442 3.95505e-19)
(40.2388 -5.14171 -4.08154e-19)
(40.15 -5.05174 7.92096e-19)
(40.0602 -4.96445 -3.96312e-19)
(39.969 -4.87987 3.84202e-19)
(39.8757 -4.7987 -9.45291e-19)
(39.963 -5.95293 -2.28981e-19)
(39.8591 -5.8263 -4.97175e-24)
(39.7538 -5.70348 1.14697e-19)
(39.6471 -5.58443 0)
(39.5392 -5.46907 2.29794e-19)
(39.4301 -5.35732 -2.87474e-19)
(39.3198 -5.24908 5.7544e-20)
(39.2083 -5.14429 0)
(39.0957 -5.04284 3.95162e-24)
(38.982 -4.94466 -2.88545e-20)
(38.8673 -4.84967 0)
(38.7514 -4.75778 -4.62497e-19)
(38.6348 -4.66893 4.62909e-19)
(38.5174 -4.58302 -4.63356e-19)
(38.3983 -4.50009 4.78268e-19)
(38.2766 -4.4209 5.52853e-19)
(38.6737 -5.5243 -1.34841e-19)
(38.5426 -5.39672 1.98948e-23)
(38.4103 -5.2733 -1.35142e-19)
(38.2769 -5.15397 0)
(38.1423 -5.03863 3.38654e-19)
(38.0066 -4.9272 -2.71212e-19)
(37.8699 -4.81958 -6.78894e-20)
(37.7321 -4.71567 0)
(37.5932 -4.61538 6.80445e-20)
(37.4534 -4.51862 2.72505e-19)
(37.3126 -4.4253 -5.4565e-19)
(37.1708 -4.33534 2.56077e-19)
(37.0282 -4.24865 2.7349e-19)
(36.885 -4.16515 1.03941e-23)
(36.7401 -4.08485 -2.74154e-19)
(36.5922 -4.00857 0)
(37.3842 -5.07287 4.81533e-19)
(37.2284 -4.94568 3.21476e-19)
(37.0717 -4.82287 2.61017e-23)
(36.9141 -4.70435 -1.6117e-19)
(36.7555 -4.59005 -8.0706e-20)
(36.5959 -4.47984 4.84864e-19)
(36.4354 -4.37365 -4.8555e-19)
(36.274 -4.27137 8.10218e-20)
(36.1116 -4.17293 2.84042e-19)
(35.9484 -4.07823 0)
(35.7843 -3.98719 -4.06972e-20)
(35.6193 -3.89972 2.03806e-20)
(35.4536 -3.81574 0)
(35.2876 -3.73517 -1.02209e-20)
(35.1197 -3.65801 0)
(34.9487 -3.58511 -4.84746e-20)
(36.1595 -4.62026 -4.51137e-24)
(35.9821 -4.49437 -1.93352e-19)
(35.804 -4.37298 1.93665e-19)
(35.6252 -4.256 3.87952e-19)
(35.4456 -4.14335 -7.69506e-24)
(35.2652 -4.03493 9.7307e-20)
(35.0839 -3.93065 -9.74631e-20)
(34.9019 -3.83044 -1.95254e-19)
(34.719 -3.73424 0)
(34.5353 -3.64196 0)
(34.3508 -3.55354 -1.47205e-19)
(34.1655 -3.4689 -2.45864e-20)
(33.9798 -3.38797 1.96974e-19)
(33.7938 -3.31066 1.2334e-20)
(33.606 -3.23697 -1.97708e-19)
(33.4149 -3.16781 2.90281e-19)
(35.0269 -4.18241 -2.34602e-19)
(34.831 -4.05839 -2.35036e-19)
(34.6346 -3.9389 -4.70969e-19)
(34.4376 -3.82384 -1.50456e-23)
(34.2399 -3.71315 1.18174e-19)
(34.0416 -3.60675 1.34039e-23)
(33.8425 -3.50456 -3.55815e-19)
(33.6426 -3.40655 5.93834e-24)
(33.442 -3.31267 0)
(33.2406 -3.22288 2.98228e-19)
(33.0384 -3.13714 1.24668e-23)
(32.8355 -3.0554 -4.49151e-19)
(32.6322 -2.9776 4.81968e-19)
(32.429 -2.90368 -4.811e-19)
(32.2239 -2.83362 2.41057e-19)
(32.0154 -2.76837 0)
(33.9877 -3.76887 4.31894e-19)
(33.776 -3.64705 4.32819e-19)
(33.564 -3.52969 -1.44568e-19)
(33.3515 -3.41673 -1.44863e-19)
(33.1385 -3.3081 -2.90352e-19)
(32.9248 -3.20374 2.90954e-19)
(32.7103 -3.10364 -4.37335e-19)
(32.4951 -3.00776 2.92167e-19)
(32.2791 -2.9161 0)
(32.0623 -2.82869 -1.46719e-19)
(31.8447 -2.74551 7.35243e-20)
(31.6264 -2.66657 0)
(31.4078 -2.59186 -2.30839e-21)
(31.1894 -2.52132 -1.85105e-20)
(30.9691 -2.45495 0)
(30.7454 -2.39379 8.50856e-20)
(33.0291 -3.38446 1.77781e-19)
(32.804 -3.26502 -7.12881e-19)
(32.5787 -3.14991 1.7866e-19)
(32.353 -3.03909 7.16425e-19)
(32.1267 -2.9325 0)
(31.8998 -2.83013 1.79978e-19)
(31.6721 -2.73198 1.80422e-19)
(31.4436 -2.63807 -1.80865e-19)
(31.2142 -2.54845 1.81302e-19)
(30.9839 -2.46319 1.81777e-19)
(30.7526 -2.38235 -3.64492e-19)
(30.5205 -2.30602 1.82728e-19)
(30.2882 -2.23425 2.8629e-21)
(30.0561 -2.16705 2.29664e-20)
(29.822 -2.10449 -1.38191e-19)
(29.5844 -2.04774 3.11957e-19)
(32.136 -3.03098 1.09793e-19)
(31.8993 -2.91399 4.4052e-19)
(31.6624 -2.80115 0)
(31.4253 -2.69244 1.10772e-19)
(31.1875 -2.58783 -2.22216e-19)
(30.9491 -2.48732 -2.22877e-19)
(30.7098 -2.39096 1.11756e-19)
(30.4696 -2.2988 0)
(30.2282 -2.21094 1.12421e-19)
(29.9858 -2.12751 1.12767e-19)
(29.7422 -2.0487 1.13127e-19)
(29.4975 -1.97465 -1.70221e-19)
(29.2525 -1.90552 -3.55795e-21)
(29.0076 -1.8414 2.85576e-20)
(28.7605 -1.78254 2.29249e-19)
(28.5095 -1.7303 -2.54662e-19)
(31.2952 -2.7085 6.76654e-19)
(31.0483 -2.59397 0)
(30.8014 -2.48338 0)
(30.5542 -2.37673 -1.43416e-23)
(30.3064 -2.27399 2.7448e-19)
(30.0578 -2.17521 -4.13156e-19)
(29.8082 -2.08044 -2.76402e-19)
(29.5574 -1.98979 1.38678e-19)
(29.3053 -1.90341 1.39178e-19)
(29.0518 -1.82149 -1.39677e-19)
(28.7968 -1.74431 0)
(28.5404 -1.67217 1.40748e-19)
(28.2834 -1.60529 -1.36872e-19)
(28.0263 -1.54395 -1.94754e-25)
(27.7662 -1.4888 -7.12219e-20)
(27.5026 -1.44145 -1.55836e-19)
(30.4933 -2.41577 -6.66211e-19)
(30.2377 -2.30367 0)
(29.9819 -2.19529 0)
(29.7258 -2.09063 -5.05774e-19)
(29.4691 -1.98968 -3.38533e-19)
(29.2114 -1.89249 3.39924e-19)
(28.9526 -1.79916 3.03238e-24)
(28.6924 -1.70981 -1.15964e-23)
(28.4306 -1.62463 -6.98589e-24)
(28.167 -1.54389 -1.72789e-19)
(27.9014 -1.46797 -1.73547e-19)
(27.634 -1.39731 -8.7163e-20)
(27.3656 -1.33225 -5.47259e-21)
(27.0963 -1.27329 -8.79746e-20)
(26.823 -1.22169 -8.84093e-20)
(26.547 -1.17936 1.90683e-19)
(29.7135 -2.15072 -1.02531e-19)
(29.4501 -2.04104 1.03002e-19)
(29.1867 -1.93485 -1.03487e-19)
(28.9228 -1.83214 1.03957e-19)
(28.6583 -1.73293 0)
(28.3926 -1.63727 1.04928e-19)
(28.1257 -1.54528 -2.10829e-19)
(27.8571 -1.45709 1.05908e-19)
(27.5866 -1.37292 2.12839e-19)
(27.3138 -1.29307 2.13884e-19)
(27.0386 -1.21806 2.14963e-19)
(26.761 -1.14849 0)
(26.4819 -1.08475 0)
(26.2008 -1.02746 -3.55309e-24)
(25.9142 -0.978796 2.19657e-19)
(25.6252 -0.941806 2.33798e-19)
(28.9306 -1.91071 0)
(28.6608 -1.80348 1.2735e-19)
(28.3909 -1.69951 9.59704e-24)
(28.1205 -1.59878 9.5085e-24)
(27.8492 -1.50133 -1.29355e-19)
(27.5768 -1.40723 -1.30046e-19)
(27.3027 -1.31657 6.53656e-19)
(27.0268 -1.22952 0)
(26.7487 -1.14628 -3.96474e-19)
(26.4679 -1.06718 2.65791e-19)
(26.1839 -0.992848 -1.33655e-19)
(25.897 -0.924071 -2.68892e-19)
(25.6081 -0.861199 1.35253e-19)
(25.3157 -0.804665 4.65508e-24)
(25.015 -0.758061 -2.74017e-19)
(24.7119 -0.727501 2.88263e-19)
(28.1023 -1.69227 -1.26231e-18)
(27.8278 -1.58767 0)
(27.5531 -1.48609 1.35724e-18)
(27.2777 -1.38755 -8.03099e-20)
(27.0013 -1.29205 -6.46332e-19)
(26.7234 -1.19967 -7.3149e-19)
(26.4437 -1.11052 -1.261e-23)
(26.1619 -1.02477 7.40429e-19)
(25.8774 -0.942603 0)
(25.5897 -0.86432 -3.33245e-19)
(25.298 -0.790591 -3.35424e-19)
(25.0029 -0.722381 -5.32479e-24)
(24.7055 -0.660022 1.80616e-19)
(24.4024 -0.603555 8.56135e-20)
(24.0865 -0.557875 -1.7251e-19)
(23.7675 -0.533586 0)
(27.143 -1.49131 9.96908e-20)
(26.867 -1.38977 1.00367e-19)
(26.5905 -1.29101 -3.33482e-18)
(26.3131 -1.19502 0)
(26.0344 -1.10182 1.02471e-19)
(25.7539 -1.01149 7.22224e-19)
(25.471 -0.924159 -1.55849e-18)
(25.1856 -0.839958 -9.41752e-19)
(24.8969 -0.759047 0)
(24.6043 -0.681704 4.24689e-19)
(24.3067 -0.608649 2.33632e-24)
(24.0049 -0.541049 1.07787e-19)
(23.7002 -0.479352 9.50563e-20)
(23.3876 -0.423076 0)
(23.0555 -0.377418 -3.1292e-25)
(22.7185 -0.357763 4.56215e-19)
(25.8581 -1.29564 4.1191e-18)
(25.5863 -1.19862 0)
(25.3137 -1.10406 2.02876e-18)
(25.04 -1.012 2.17779e-18)
(24.7645 -0.9225 1.06484e-18)
(24.4867 -0.835664 1.0739e-18)
(24.2061 -0.751577 1.08312e-18)
(23.9221 -0.670295 -9.55927e-19)
(23.6341 -0.591995 -1.37755e-19)
(23.341 -0.517027 0)
(23.0414 -0.44616 7.01293e-19)
(22.7362 -0.380485 -7.0772e-19)
(22.4272 -0.32003 0)
(22.1075 -0.263605 1.44216e-19)
(21.7601 -0.216224 4.36888e-19)
(21.4028 -0.197667 -7.46574e-19)
(23.72 -1.09509 -8.79992e-20)
(23.4616 -1.00509 0)
(23.2028 -0.917269 0)
(22.9426 -0.831525 -2.90091e-18)
(22.6806 -0.747939 9.15791e-20)
(22.4161 -0.66645 -1.85047e-19)
(22.1484 -0.587021 1.58925e-18)
(21.8763 -0.50987 1.51177e-18)
(21.5993 -0.435268 -7.64145e-19)
(21.3158 -0.363644 9.66017e-20)
(21.0239 -0.295138 6.83859e-19)
(20.7243 -0.230136 6.91783e-19)
(20.4189 -0.169389 7.49779e-20)
(20.0987 -0.113537 -2.0236e-19)
(19.7374 -0.0693477 0)
(19.3539 -0.0583416 -2.09283e-19)
(17.5215 -0.711719 -4.59047e-18)
(17.3102 -0.645643 -1.49751e-19)
(17.0995 -0.58189 4.84735e-18)
(16.8888 -0.51975 4.90351e-18)
(16.6775 -0.458646 -2.48041e-18)
(16.4644 -0.399184 -2.5099e-18)
(16.2485 -0.341705 -2.54041e-18)
(16.029 -0.286052 1.60776e-19)
(15.8049 -0.23252 1.14002e-18)
(15.5732 -0.181041 -1.65061e-19)
(15.3306 -0.132727 -1.17152e-18)
(15.0766 -0.088172 -1.35872e-18)
(14.8134 -0.0483636 4.31249e-20)
(14.5227 -0.0163373 0)
(14.1546 0.00566993 0)
(13.7199 0.0105835 0)
(29.7292 -0.878965 0)
(29.7274 -0.877872 0)
(29.7257 -0.876769 0)
(29.7239 -0.875678 0)
(29.7222 -0.874604 0)
(29.7203 -0.873548 0)
(29.7185 -0.87251 0)
(29.7166 -0.871491 0)
(29.7148 -0.870491 0)
(29.7128 -0.869511 0)
(29.7109 -0.86855 0)
(29.7089 -0.867609 0)
(29.707 -0.866689 0)
(29.705 -0.865789 0)
(29.7029 -0.864911 0)
(29.7009 -0.864054 0)
(29.6988 -0.863218 0)
(29.6967 -0.862405 0)
(29.6945 -0.861614 0)
(29.6923 -0.860846 0)
(29.6902 -0.860101 0)
(29.6879 -0.85938 0)
(29.6857 -0.858682 0)
(29.6834 -0.858009 0)
(29.6811 -0.85736 0)
(29.6788 -0.856737 0)
(29.6764 -0.856139 0)
(29.674 -0.855566 0)
(29.6716 -0.85502 0)
(29.6691 -0.8545 0)
(29.6666 -0.854008 0)
(29.6641 -0.853543 0)
(29.6615 -0.853105 0)
(29.6589 -0.852696 0)
(29.6563 -0.852315 0)
(29.6537 -0.851964 0)
(29.651 -0.851642 0)
(29.6483 -0.85135 0)
(29.6455 -0.851088 0)
(29.6427 -0.850857 0)
(29.6399 -0.850657 0)
(29.637 -0.850489 0)
(29.6341 -0.850353 0)
(29.6312 -0.85025 0)
(29.6283 -0.85018 0)
(29.6254 -0.850144 0)
(29.6222 -0.850144 0)
(29.6179 -0.850181 -1.09215e-18)
(29.6141 -0.850252 1.27992e-18)
(30.3402 -0.654329 0)
(30.3397 -0.650402 0)
(30.3394 -0.64644 -7.88438e-17)
(30.339 -0.642457 7.88452e-17)
(30.3386 -0.638453 0)
(30.3382 -0.63443 3.9424e-17)
(30.3377 -0.630386 -3.94247e-17)
(30.3373 -0.626322 0)
(30.3368 -0.622238 0)
(30.3363 -0.618134 3.94271e-17)
(30.3358 -0.614009 -3.94278e-17)
(30.3353 -0.609864 3.94287e-17)
(30.3347 -0.605697 -3.94295e-17)
(30.3342 -0.60151 0)
(30.3336 -0.597302 3.94313e-17)
(30.333 -0.593072 -7.88643e-17)
(30.3323 -0.588821 3.9433e-17)
(30.3317 -0.584548 0)
(30.331 -0.580253 0)
(30.3303 -0.575936 3.94359e-17)
(30.3296 -0.571597 1.45719e-23)
(30.3289 -0.567235 -3.94379e-17)
(30.3281 -0.56285 0)
(30.3274 -0.558442 0)
(30.3266 -0.554011 3.9441e-17)
(30.3258 -0.549556 -3.94421e-17)
(30.3249 -0.545078 0)
(30.3241 -0.540575 0)
(30.3232 -0.536048 0)
(30.3223 -0.531496 -1.97233e-17)
(30.3213 -0.526919 3.94478e-17)
(30.3204 -0.522317 8.94592e-24)
(30.3194 -0.51769 9.10545e-24)
(30.3184 -0.513036 -1.97257e-17)
(30.3174 -0.508357 1.97264e-17)
(30.3164 -0.503651 -1.9727e-17)
(30.3153 -0.498918 -1.97277e-17)
(30.3142 -0.494158 1.97283e-17)
(30.3131 -0.48937 0)
(30.312 -0.484555 9.86486e-18)
(30.3108 -0.479711 -9.8652e-18)
(30.3096 -0.474839 9.86556e-18)
(30.3084 -0.469939 -1.97318e-17)
(30.3072 -0.465008 9.86629e-18)
(30.3059 -0.460049 0)
(30.3046 -0.45506 -4.93352e-18)
(30.3032 -0.450037 4.93371e-18)
(30.3019 -0.444915 0)
(30.301 -0.438874 0)
(30.4336 -0.811287 0)
(30.4346 -0.807948 0)
(30.4349 -0.804558 0)
(30.4354 -0.801166 0)
(30.4358 -0.79777 0)
(30.4362 -0.794371 0)
(30.4367 -0.790968 0)
(30.4371 -0.787563 0)
(30.4376 -0.784154 0)
(30.438 -0.780742 0)
(30.4384 -0.777327 0)
(30.4389 -0.773908 0)
(30.4393 -0.770487 0)
(30.4398 -0.767063 0)
(30.4402 -0.763636 0)
(30.4407 -0.760206 0)
(30.4411 -0.756773 0)
(30.4416 -0.753337 4.51219e-17)
(30.442 -0.749898 -4.51219e-17)
(30.4425 -0.746456 0)
(30.4429 -0.743012 0)
(30.4434 -0.739565 0)
(30.4438 -0.736114 0)
(30.4443 -0.732661 0)
(30.4447 -0.729206 0)
(30.4452 -0.725747 0)
(30.4457 -0.722285 0)
(30.4461 -0.718821 0)
(30.4466 -0.715353 0)
(30.4471 -0.711883 0)
(30.4476 -0.70841 0)
(30.4481 -0.704934 0)
(30.4486 -0.701455 0)
(30.4491 -0.697972 2.25601e-17)
(30.4496 -0.694487 -2.25601e-17)
(30.4501 -0.690999 0)
(30.4506 -0.687507 0)
(30.4511 -0.684012 0)
(30.4517 -0.680514 0)
(30.4522 -0.677013 0)
(30.4527 -0.673509 0)
(30.4533 -0.670001 1.12797e-17)
(30.4539 -0.666489 -1.12796e-17)
(30.4544 -0.662975 0)
(30.455 -0.659456 0)
(30.4556 -0.655935 5.63973e-18)
(30.4562 -0.652409 -5.6397e-18)
(30.4567 -0.648879 0)
(30.4575 -0.645345 0)
(30.4584 -0.641787 0)
(30.6019 -0.72043 -4.57385e-17)
(30.6026 -0.716468 -7.26693e-24)
(30.6024 -0.71254 5.16144e-17)
(30.6023 -0.708753 0)
(30.6022 -0.704937 5.16151e-17)
(30.602 -0.701099 -5.16157e-17)
(30.6018 -0.697244 -5.16163e-17)
(30.6017 -0.693376 5.16169e-17)
(30.6014 -0.689497 0)
(30.6012 -0.685609 0)
(30.601 -0.681711 -2.58096e-17)
(30.6007 -0.677805 2.581e-17)
(30.6004 -0.673896 0)
(30.6001 -0.669985 2.58108e-17)
(30.5998 -0.666072 3.8467e-24)
(30.5994 -0.662159 -2.58117e-17)
(30.5991 -0.658246 0)
(30.5987 -0.654335 2.58126e-17)
(30.5983 -0.650425 -2.58131e-17)
(30.5979 -0.646517 0)
(30.5974 -0.642612 0)
(30.597 -0.638709 -2.58146e-17)
(30.5965 -0.634811 2.58152e-17)
(30.596 -0.630916 -2.58157e-17)
(30.5955 -0.627026 2.58163e-17)
(30.5949 -0.62314 -2.58168e-17)
(30.5944 -0.61926 2.58174e-17)
(30.5938 -0.615385 -2.5818e-17)
(30.5932 -0.611517 -6.08699e-24)
(30.5926 -0.607654 2.58192e-17)
(30.592 -0.603798 0)
(30.5914 -0.599949 1.29102e-17)
(30.5907 -0.596108 -1.29105e-17)
(30.5901 -0.592275 0)
(30.5894 -0.58845 -1.29111e-17)
(30.5887 -0.584635 1.29115e-17)
(30.588 -0.580829 1.29118e-17)
(30.5872 -0.577033 -1.29121e-17)
(30.5865 -0.573246 -1.29125e-17)
(30.5857 -0.56947 1.29128e-17)
(30.5849 -0.565705 0)
(30.5841 -0.561951 -6.45675e-18)
(30.5833 -0.558208 -2.0452e-24)
(30.5824 -0.554477 6.45711e-18)
(30.5816 -0.550759 0)
(30.5807 -0.547053 0)
(30.5798 -0.543359 0)
(30.5789 -0.539669 0)
(30.5779 -0.535895 0)
(30.5773 -0.531163 0)
(30.8056 -0.789242 2.62134e-17)
(30.8067 -0.783805 0)
(30.8071 -0.778767 0)
(30.8076 -0.77365 -2.951e-17)
(30.8081 -0.768525 5.90201e-17)
(30.8085 -0.763377 -2.95101e-17)
(30.8089 -0.758205 2.95101e-17)
(30.8092 -0.753005 -5.90203e-17)
(30.8096 -0.747773 2.95102e-17)
(30.8099 -0.742521 -2.95101e-17)
(30.8102 -0.737313 2.951e-17)
(30.8104 -0.732257 0)
(30.8107 -0.727197 0)
(30.8109 -0.722135 -2.95098e-17)
(30.811 -0.71707 2.95098e-17)
(30.8112 -0.712002 -2.95098e-17)
(30.8113 -0.706931 -2.94001e-25)
(30.8114 -0.701859 2.95098e-17)
(30.8114 -0.696785 0)
(30.8115 -0.691709 0)
(30.8115 -0.686633 0)
(30.8115 -0.681555 0)
(30.8115 -0.676477 0)
(30.8114 -0.671399 0)
(30.8113 -0.666321 0)
(30.8112 -0.661243 1.47551e-17)
(30.8111 -0.656166 -1.47552e-17)
(30.8109 -0.651091 -1.47553e-17)
(30.8107 -0.646025 1.47553e-17)
(30.8105 -0.640997 0)
(30.8102 -0.636151 0)
(30.8099 -0.631263 0)
(30.8096 -0.626349 -1.47558e-17)
(30.8093 -0.621417 1.4756e-17)
(30.8089 -0.616473 0)
(30.8085 -0.611519 0)
(30.8081 -0.606556 0)
(30.8077 -0.601589 0)
(30.8072 -0.596617 0)
(30.8067 -0.591644 0)
(30.8062 -0.586669 0)
(30.8056 -0.581694 -7.37906e-18)
(30.805 -0.576721 7.37922e-18)
(30.8044 -0.571749 0)
(30.8038 -0.56678 0)
(30.8031 -0.561814 0)
(30.8024 -0.556852 -1.84497e-18)
(30.8016 -0.551894 1.84502e-18)
(30.801 -0.546939 -9.22533e-19)
(30.8008 -0.541953 1.06584e-18)
(30.9921 -0.768342 6.01289e-17)
(30.9931 -0.762337 -3.37728e-17)
(30.9934 -0.756317 0)
(30.9937 -0.750293 3.37725e-17)
(30.994 -0.744263 -1.71201e-24)
(30.9942 -0.73823 -1.27543e-24)
(30.9944 -0.732193 -6.75443e-17)
(30.9946 -0.726152 3.37721e-17)
(30.9947 -0.720108 0)
(30.9948 -0.714062 3.37721e-17)
(30.9948 -0.708014 -6.75442e-17)
(30.9948 -0.701966 3.37722e-17)
(30.9948 -0.695916 0)
(30.9947 -0.689867 0)
(30.9946 -0.68382 0)
(30.9944 -0.677776 1.68863e-17)
(30.9942 -0.67175 -1.68864e-17)
(30.994 -0.665797 -1.68865e-17)
(30.9937 -0.660041 3.37733e-17)
(30.9934 -0.65424 -1.68868e-17)
(30.993 -0.648405 0)
(30.9926 -0.642541 0)
(30.9921 -0.636652 1.68877e-17)
(30.9916 -0.630744 -1.68881e-17)
(30.9911 -0.624824 1.68885e-17)
(30.9905 -0.618858 -1.68889e-17)
(30.9899 -0.612728 -1.68893e-17)
(30.9893 -0.606442 3.37794e-17)
(30.9886 -0.600156 -1.68901e-17)
(30.9879 -0.593916 -1.68905e-17)
(30.9871 -0.587739 1.68908e-17)
(30.9863 -0.581689 1.68911e-17)
(30.9854 -0.57575 -8.44571e-18)
(30.9845 -0.569823 -1.68918e-17)
(30.9835 -0.563907 8.44605e-18)
(30.9825 -0.558003 0)
(30.9815 -0.552112 -8.44641e-18)
(30.9804 -0.546235 8.4466e-18)
(30.9793 -0.540371 8.4468e-18)
(30.9782 -0.534521 -1.6894e-17)
(30.977 -0.528686 1.68944e-17)
(30.9757 -0.522866 -1.26711e-17)
(30.9744 -0.517063 4.22382e-18)
(30.9731 -0.511275 0)
(30.9718 -0.505505 0)
(30.9704 -0.499753 0)
(30.9689 -0.494019 0)
(30.9674 -0.488305 0)
(30.9659 -0.482621 0)
(30.965 -0.477002 0)
(31.2249 -0.809202 0)
(31.2263 -0.801455 0)
(31.2271 -0.79367 0)
(31.2279 -0.785975 0)
(31.2287 -0.778605 0)
(31.2294 -0.770532 0)
(31.23 -0.762281 0)
(31.2305 -0.754415 1.93098e-17)
(31.231 -0.74654 -1.93096e-17)
(31.2314 -0.738658 0)
(31.2318 -0.730769 -1.93094e-17)
(31.2321 -0.722873 1.93093e-17)
(31.2323 -0.714972 0)
(31.2324 -0.707067 0)
(31.2325 -0.699159 1.93091e-17)
(31.2325 -0.691249 -1.93091e-17)
(31.2325 -0.683337 0)
(31.2324 -0.675425 0)
(31.2322 -0.667513 0)
(31.2319 -0.659604 0)
(31.2316 -0.651704 0)
(31.2312 -0.643845 0)
(31.2308 -0.636175 0)
(31.2303 -0.628726 0)
(31.2297 -0.621088 0)
(31.229 -0.613448 0)
(31.2283 -0.605716 0)
(31.2275 -0.59771 0)
(31.2267 -0.589492 0)
(31.2257 -0.581319 0)
(31.2248 -0.573205 0)
(31.2238 -0.565165 0)
(31.2227 -0.557324 0)
(31.2215 -0.549532 0)
(31.2203 -0.541756 0)
(31.219 -0.533996 0)
(31.2177 -0.526253 0)
(31.2162 -0.518527 0)
(31.2148 -0.51082 0)
(31.2132 -0.503133 0)
(31.2116 -0.495466 0)
(31.21 -0.487821 0)
(31.2083 -0.480197 0)
(31.2065 -0.472597 0)
(31.2046 -0.46502 2.41519e-18)
(31.2028 -0.457468 -2.41528e-18)
(31.2007 -0.449942 0)
(31.1986 -0.442445 0)
(31.1967 -0.434989 0)
(31.1953 -0.427616 0)
(31.4728 -0.826226 1.97394e-17)
(31.4746 -0.816526 2.20863e-17)
(31.4757 -0.806858 -2.20858e-17)
(31.4768 -0.797166 0)
(31.4777 -0.787076 0)
(31.4786 -0.776788 0)
(31.4794 -0.766756 2.20843e-17)
(31.4802 -0.756781 -2.2084e-17)
(31.4808 -0.746794 0)
(31.4813 -0.736794 0)
(31.4817 -0.726784 -2.20834e-17)
(31.4821 -0.716765 2.20832e-17)
(31.4823 -0.706739 0)
(31.4824 -0.696706 2.20831e-17)