/*--------------------------------*- C++ -*----------------------------------*\
  =========                 |
  \\      /  F ield         | OpenFOAM: The Open Source CFD Toolbox
   \\    /   O peration     | Website:  https://openfoam.org
    \\  /    A nd           | Version:  8
     \\/     M anipulation  |
\*---------------------------------------------------------------------------*/
FoamFile
{
    version     2.0;
    format      ascii;
    class       volScalarField;
    location    "6.2";
    object      p;
}
// * * * * * * * * * * * * * * * * * * * * * * * * * * * * * * * * * * * * * //

dimensions      [0 2 -2 0 0 0 0];

internalField   nonuniform List<scalar> 
262620
(
-1.35636
-1.35658
-1.35726
-1.35828
-1.35961
-1.36126
-1.3632
-1.36541
-1.36787
-1.37057
-1.3735
-1.37663
-1.37996
-1.38346
-1.38712
-1.39094
-1.39489
-1.39896
-1.40315
-1.40744
-1.41183
-1.41629
-1.42083
-1.42543
-1.43008
-1.43478
-1.43952
-1.44429
-1.44909
-1.4539
-1.45872
-1.46355
-1.46839
-1.47321
-1.47803
-1.48284
-1.48762
-1.49239
-1.49713
-1.50184
-1.50653
-1.51118
-1.51579
-1.52036
-1.5249
-1.52939
-1.53384
-1.53824
-1.54259
-1.54689
-1.55115
-1.55535
-1.5595
-1.5636
-1.56765
-1.57164
-1.57558
-1.57946
-1.58329
-1.58706
-1.59078
-1.59444
-1.59805
-1.6016
-1.6051
-1.60854
-1.61193
-1.61526
-1.61854
-1.62177
-1.62494
-1.62807
-1.63113
-1.63415
-1.63712
-1.64003
-1.6429
-1.64571
-1.64848
-1.65119
-1.65386
-1.65649
-1.65906
-1.66159
-1.66408
-1.66652
-1.66892
-1.67127
-1.67358
-1.67585
-1.67807
-1.68026
-1.68241
-1.68451
-1.68658
-1.68861
-1.6906
-1.69256
-1.69448
-1.69636
-1.69821
-1.70002
-1.7018
-1.70355
-1.70526
-1.70694
-1.70859
-1.71021
-1.7118
-1.71336
-1.71489
-1.71639
-1.71786
-1.71931
-1.72073
-1.72212
-1.72348
-1.72482
-1.72614
-1.72743
-1.35623
-1.35645
-1.35712
-1.35814
-1.35947
-1.36112
-1.36305
-1.36526
-1.36773
-1.37043
-1.37336
-1.37649
-1.37981
-1.38331
-1.38698
-1.39079
-1.39474
-1.39882
-1.40301
-1.4073
-1.41169
-1.41615
-1.42069
-1.42529
-1.42995
-1.43465
-1.43939
-1.44416
-1.44896
-1.45377
-1.4586
-1.46343
-1.46827
-1.4731
-1.47792
-1.48272
-1.48751
-1.49228
-1.49703
-1.50174
-1.50643
-1.51108
-1.5157
-1.52027
-1.52481
-1.5293
-1.53375
-1.53816
-1.54251
-1.54682
-1.55108
-1.55528
-1.55944
-1.56354
-1.56759
-1.57158
-1.57552
-1.57941
-1.58324
-1.58702
-1.59074
-1.5944
-1.59801
-1.60157
-1.60507
-1.60852
-1.61191
-1.61524
-1.61853
-1.62176
-1.62493
-1.62806
-1.63113
-1.63415
-1.63712
-1.64003
-1.6429
-1.64572
-1.64849
-1.65121
-1.65388
-1.65651
-1.65909
-1.66162
-1.66411
-1.66655
-1.66895
-1.6713
-1.67362
-1.67589
-1.67812
-1.68031
-1.68245
-1.68456
-1.68663
-1.68866
-1.69066
-1.69262
-1.69454
-1.69642
-1.69827
-1.70009
-1.70187
-1.70362
-1.70533
-1.70702
-1.70867
-1.71029
-1.71188
-1.71344
-1.71498
-1.71648
-1.71795
-1.7194
-1.72082
-1.72221
-1.72358
-1.72492
-1.72624
-1.72753
-1.356
-1.35621
-1.35688
-1.3579
-1.35923
-1.36087
-1.3628
-1.36501
-1.36747
-1.37018
-1.3731
-1.37623
-1.37956
-1.38306
-1.38672
-1.39054
-1.39449
-1.39857
-1.40276
-1.40706
-1.41144
-1.41591
-1.42045
-1.42506
-1.42971
-1.43442
-1.43916
-1.44394
-1.44874
-1.45356
-1.45839
-1.46322
-1.46806
-1.4729
-1.47772
-1.48253
-1.48733
-1.4921
-1.49685
-1.50157
-1.50626
-1.51092
-1.51554
-1.52012
-1.52466
-1.52916
-1.53362
-1.53802
-1.54239
-1.5467
-1.55096
-1.55517
-1.55933
-1.56344
-1.56749
-1.57149
-1.57544
-1.57933
-1.58316
-1.58695
-1.59067
-1.59434
-1.59796
-1.60152
-1.60502
-1.60847
-1.61187
-1.61521
-1.6185
-1.62173
-1.62492
-1.62804
-1.63112
-1.63414
-1.63712
-1.64004
-1.64291
-1.64573
-1.64851
-1.65123
-1.65391
-1.65654
-1.65912
-1.66166
-1.66415
-1.66659
-1.669
-1.67136
-1.67367
-1.67595
-1.67818
-1.68037
-1.68252
-1.68463
-1.68671
-1.68874
-1.69074
-1.6927
-1.69462
-1.69651
-1.69837
-1.70019
-1.70197
-1.70372
-1.70544
-1.70713
-1.70878
-1.71041
-1.712
-1.71356
-1.7151
-1.7166
-1.71808
-1.71953
-1.72095
-1.72235
-1.72372
-1.72506
-1.72638
-1.72767
-1.35565
-1.35586
-1.35652
-1.35753
-1.35886
-1.3605
-1.36243
-1.36464
-1.3671
-1.3698
-1.37272
-1.37585
-1.37918
-1.38268
-1.38634
-1.39016
-1.39412
-1.3982
-1.40239
-1.40669
-1.41108
-1.41555
-1.42009
-1.4247
-1.42936
-1.43407
-1.43882
-1.4436
-1.44841
-1.45323
-1.45807
-1.46291
-1.46775
-1.47259
-1.47742
-1.48224
-1.48704
-1.49182
-1.49658
-1.50131
-1.50601
-1.51067
-1.5153
-1.51989
-1.52444
-1.52894
-1.5334
-1.53782
-1.54219
-1.54651
-1.55078
-1.555
-1.55917
-1.56328
-1.56734
-1.57135
-1.5753
-1.5792
-1.58305
-1.58684
-1.59057
-1.59425
-1.59787
-1.60144
-1.60495
-1.60841
-1.61181
-1.61516
-1.61846
-1.6217
-1.62489
-1.62802
-1.63111
-1.63414
-1.63712
-1.64005
-1.64292
-1.64575
-1.64853
-1.65126
-1.65395
-1.65658
-1.65917
-1.66172
-1.66421
-1.66667
-1.66907
-1.67144
-1.67376
-1.67604
-1.67828
-1.68048
-1.68264
-1.68475
-1.68683
-1.68887
-1.69088
-1.69284
-1.69477
-1.69667
-1.69852
-1.70035
-1.70214
-1.70389
-1.70562
-1.70731
-1.70897
-1.7106
-1.7122
-1.71376
-1.7153
-1.71681
-1.71829
-1.71975
-1.72117
-1.72257
-1.72395
-1.72529
-1.72661
-1.72791
-1.35519
-1.35539
-1.35605
-1.35705
-1.35838
-1.36001
-1.36194
-1.36414
-1.3666
-1.3693
-1.37222
-1.37535
-1.37867
-1.38218
-1.38584
-1.38966
-1.39362
-1.3977
-1.4019
-1.4062
-1.41059
-1.41507
-1.41962
-1.42423
-1.4289
-1.43361
-1.43837
-1.44316
-1.44797
-1.4528
-1.45764
-1.46249
-1.46734
-1.47219
-1.47703
-1.48186
-1.48667
-1.49146
-1.49622
-1.50096
-1.50567
-1.51034
-1.51498
-1.51958
-1.52414
-1.52866
-1.53313
-1.53755
-1.54193
-1.54626
-1.55054
-1.55477
-1.55895
-1.56308
-1.56715
-1.57117
-1.57513
-1.57904
-1.58289
-1.58669
-1.59043
-1.59412
-1.59776
-1.60133
-1.60486
-1.60832
-1.61174
-1.6151
-1.6184
-1.62165
-1.62485
-1.62799
-1.63109
-1.63413
-1.63712
-1.64005
-1.64294
-1.64578
-1.64857
-1.65131
-1.654
-1.65664
-1.65924
-1.66179
-1.6643
-1.66676
-1.66917
-1.67155
-1.67388
-1.67617
-1.67841
-1.68062
-1.68278
-1.68491
-1.68699
-1.68904
-1.69105
-1.69302
-1.69496
-1.69686
-1.69872
-1.70055
-1.70235
-1.70411
-1.70584
-1.70754
-1.7092
-1.71084
-1.71244
-1.71402
-1.71556
-1.71707
-1.71856
-1.72002
-1.72145
-1.72286
-1.72424
-1.72559
-1.72691
-1.72821
-1.35462
-1.35481
-1.35546
-1.35646
-1.35778
-1.35941
-1.36133
-1.36353
-1.36598
-1.36868
-1.3716
-1.37473
-1.37805
-1.38156
-1.38522
-1.38904
-1.393
-1.39709
-1.40129
-1.40559
-1.40999
-1.41447
-1.41903
-1.42365
-1.42832
-1.43305
-1.43781
-1.4426
-1.44742
-1.45226
-1.45712
-1.46198
-1.46684
-1.4717
-1.47655
-1.48138
-1.48621
-1.49101
-1.49578
-1.50053
-1.50525
-1.50994
-1.51459
-1.5192
-1.52377
-1.5283
-1.53278
-1.53722
-1.54161
-1.54596
-1.55025
-1.55449
-1.55868
-1.56282
-1.56691
-1.57094
-1.57491
-1.57883
-1.5827
-1.58651
-1.59027
-1.59397
-1.59761
-1.6012
-1.60474
-1.60822
-1.61164
-1.61502
-1.61833
-1.62159
-1.6248
-1.62796
-1.63106
-1.63412
-1.63712
-1.64006
-1.64296
-1.64581
-1.64861
-1.65136
-1.65406
-1.65672
-1.65933
-1.66189
-1.6644
-1.66687
-1.6693
-1.67168
-1.67402
-1.67632
-1.67858
-1.68079
-1.68296
-1.6851
-1.68719
-1.68925
-1.69127
-1.69325
-1.69519
-1.6971
-1.69897
-1.70081
-1.70262
-1.70439
-1.70612
-1.70783
-1.7095
-1.71114
-1.71275
-1.71433
-1.71589
-1.71741
-1.7189
-1.72037
-1.72181
-1.72322
-1.7246
-1.72596
-1.72729
-1.7286
-1.35394
-1.35412
-1.35476
-1.35576
-1.35706
-1.35869
-1.3606
-1.3628
-1.36525
-1.36794
-1.37086
-1.37399
-1.37731
-1.38082
-1.38449
-1.38831
-1.39227
-1.39636
-1.40057
-1.40488
-1.40928
-1.41377
-1.41833
-1.42296
-1.42764
-1.43237
-1.43714
-1.44195
-1.44678
-1.45163
-1.45649
-1.46136
-1.46624
-1.47111
-1.47597
-1.48082
-1.48566
-1.49047
-1.49526
-1.50002
-1.50476
-1.50946
-1.51412
-1.51875
-1.52333
-1.52788
-1.53238
-1.53683
-1.54124
-1.54559
-1.5499
-1.55416
-1.55836
-1.56252
-1.56662
-1.57066
-1.57465
-1.57859
-1.58247
-1.5863
-1.59007
-1.59379
-1.59745
-1.60105
-1.6046
-1.60809
-1.61153
-1.61492
-1.61825
-1.62153
-1.62475
-1.62792
-1.63104
-1.6341
-1.63712
-1.64008
-1.64299
-1.64585
-1.64866
-1.65143
-1.65414
-1.65681
-1.65943
-1.662
-1.66453
-1.66701
-1.66945
-1.67184
-1.67419
-1.6765
-1.67877
-1.68099
-1.68318
-1.68532
-1.68743
-1.6895
-1.69152
-1.69351
-1.69547
-1.69739
-1.69927
-1.70112
-1.70293
-1.70471
-1.70646
-1.70817
-1.70985
-1.7115
-1.71312
-1.71471
-1.71627
-1.7178
-1.7193
-1.72078
-1.72222
-1.72364
-1.72503
-1.7264
-1.72774
-1.72905
-1.35316
-1.35333
-1.35396
-1.35494
-1.35624
-1.35786
-1.35977
-1.36196
-1.3644
-1.36709
-1.37001
-1.37314
-1.37646
-1.37996
-1.38363
-1.38746
-1.39142
-1.39552
-1.39973
-1.40404
-1.40846
-1.41295
-1.41752
-1.42216
-1.42685
-1.43159
-1.43637
-1.44119
-1.44603
-1.45089
-1.45577
-1.46066
-1.46554
-1.47043
-1.4753
-1.48017
-1.48502
-1.48985
-1.49465
-1.49943
-1.50418
-1.5089
-1.51358
-1.51822
-1.52283
-1.52739
-1.5319
-1.53637
-1.5408
-1.54517
-1.5495
-1.55377
-1.558
-1.56217
-1.56628
-1.57035
-1.57436
-1.57831
-1.58221
-1.58605
-1.58984
-1.59357
-1.59725
-1.60087
-1.60444
-1.60795
-1.61141
-1.61481
-1.61815
-1.62145
-1.62469
-1.62787
-1.63101
-1.63409
-1.63712
-1.64009
-1.64302
-1.6459
-1.64872
-1.6515
-1.65423
-1.65691
-1.65955
-1.66213
-1.66467
-1.66717
-1.66962
-1.67203
-1.67439
-1.67672
-1.67899
-1.68123
-1.68343
-1.68559
-1.6877
-1.68978
-1.69182
-1.69382
-1.69579
-1.69772
-1.69961
-1.70147
-1.7033
-1.70509
-1.70684
-1.70857
-1.71026
-1.71192
-1.71355
-1.71515
-1.71672
-1.71826
-1.71977
-1.72125
-1.7227
-1.72413
-1.72553
-1.72691
-1.72825
-1.72957
-1.35228
-1.35243
-1.35305
-1.35402
-1.35531
-1.35691
-1.35882
-1.361
-1.36344
-1.36613
-1.36904
-1.37217
-1.37549
-1.379
-1.38267
-1.3865
-1.39047
-1.39457
-1.39878
-1.4031
-1.40752
-1.41203
-1.4166
-1.42125
-1.42595
-1.43071
-1.4355
-1.44033
-1.44519
-1.45006
-1.45495
-1.45985
-1.46476
-1.46966
-1.47455
-1.47943
-1.4843
-1.48915
-1.49397
-1.49877
-1.50353
-1.50827
-1.51297
-1.51763
-1.52225
-1.52683
-1.53137
-1.53586
-1.5403
-1.5447
-1.54904
-1.55334
-1.55758
-1.56177
-1.56591
-1.56999
-1.57402
-1.57799
-1.58191
-1.58577
-1.58958
-1.59333
-1.59703
-1.60067
-1.60426
-1.60779
-1.61126
-1.61468
-1.61805
-1.62136
-1.62462
-1.62782
-1.63097
-1.63407
-1.63712
-1.64011
-1.64305
-1.64595
-1.64879
-1.65159
-1.65433
-1.65703
-1.65968
-1.66228
-1.66484
-1.66735
-1.66982
-1.67224
-1.67462
-1.67696
-1.67925
-1.6815
-1.68371
-1.68588
-1.68801
-1.69011
-1.69216
-1.69418
-1.69615
-1.6981
-1.7
-1.70187
-1.70371
-1.70551
-1.70728
-1.70902
-1.71072
-1.71239
-1.71403
-1.71564
-1.71722
-1.71877
-1.72029
-1.72179
-1.72325
-1.72469
-1.7261
-1.72748
-1.72884
-1.73017
-1.35129
-1.35143
-1.35203
-1.35299
-1.35427
-1.35587
-1.35776
-1.35994
-1.36237
-1.36506
-1.36797
-1.37109
-1.37442
-1.37792
-1.3816
-1.38543
-1.3894
-1.3935
-1.39773
-1.40206
-1.40648
-1.41099
-1.41558
-1.42024
-1.42496
-1.42972
-1.43453
-1.43937
-1.44424
-1.44914
-1.45404
-1.45896
-1.46388
-1.4688
-1.47371
-1.47861
-1.48349
-1.48836
-1.4932
-1.49802
-1.50281
-1.50756
-1.51229
-1.51697
-1.52161
-1.52621
-1.53077
-1.53528
-1.53975
-1.54417
-1.54853
-1.55285
-1.55711
-1.56133
-1.56549
-1.56959
-1.57364
-1.57764
-1.58158
-1.58546
-1.58929
-1.59307
-1.59678
-1.60045
-1.60405
-1.6076
-1.6111
-1.61454
-1.61793
-1.62126
-1.62454
-1.62776
-1.63093
-1.63405
-1.63711
-1.64013
-1.64309
-1.646
-1.64887
-1.65168
-1.65444
-1.65716
-1.65983
-1.66245
-1.66502
-1.66755
-1.67004
-1.67248
-1.67487
-1.67722
-1.67953
-1.6818
-1.68403
-1.68622
-1.68836
-1.69047
-1.69254
-1.69457
-1.69656
-1.69852
-1.70044
-1.70232
-1.70417
-1.70599
-1.70777
-1.70952
-1.71123
-1.71292
-1.71457
-1.71619
-1.71779
-1.71935
-1.72088
-1.72239
-1.72386
-1.72531
-1.72673
-1.72813
-1.7295
-1.73083
-1.3502
-1.35032
-1.35091
-1.35186
-1.35313
-1.35471
-1.3566
-1.35877
-1.3612
-1.36388
-1.36678
-1.36991
-1.37323
-1.37673
-1.38041
-1.38425
-1.38822
-1.39233
-1.39656
-1.4009
-1.40534
-1.40986
-1.41446
-1.41913
-1.42386
-1.42864
-1.43346
-1.43832
-1.44321
-1.44811
-1.45304
-1.45797
-1.46291
-1.46785
-1.47278
-1.4777
-1.48261
-1.4875
-1.49236
-1.4972
-1.50201
-1.50679
-1.51153
-1.51624
-1.52091
-1.52553
-1.53011
-1.53465
-1.53914
-1.54358
-1.54797
-1.55231
-1.5566
-1.56084
-1.56502
-1.56915
-1.57323
-1.57724
-1.58121
-1.58512
-1.58897
-1.59277
-1.59651
-1.6002
-1.60383
-1.6074
-1.61092
-1.61438
-1.61779
-1.62115
-1.62445
-1.62769
-1.63089
-1.63403
-1.63711
-1.64015
-1.64313
-1.64607
-1.64895
-1.65178
-1.65457
-1.6573
-1.65999
-1.66263
-1.66523
-1.66777
-1.67028
-1.67274
-1.67515
-1.67752
-1.67985
-1.68213
-1.68438
-1.68658
-1.68874
-1.69087
-1.69295
-1.695
-1.69701
-1.69898
-1.70092
-1.70282
-1.70468
-1.70651
-1.70831
-1.71007
-1.7118
-1.7135
-1.71517
-1.7168
-1.71841
-1.71998
-1.72153
-1.72305
-1.72454
-1.726
-1.72743
-1.72884
-1.73022
-1.73156
-1.34902
-1.34912
-1.34969
-1.35063
-1.35188
-1.35345
-1.35533
-1.35749
-1.35992
-1.36259
-1.36549
-1.36861
-1.37193
-1.37544
-1.37912
-1.38296
-1.38694
-1.39106
-1.39529
-1.39964
-1.40409
-1.40862
-1.41323
-1.41792
-1.42266
-1.42745
-1.43229
-1.43717
-1.44207
-1.447
-1.45194
-1.4569
-1.46186
-1.46682
-1.47177
-1.47671
-1.48164
-1.48655
-1.49144
-1.49631
-1.50114
-1.50594
-1.51071
-1.51544
-1.52014
-1.52479
-1.5294
-1.53396
-1.53847
-1.54294
-1.54736
-1.55173
-1.55604
-1.5603
-1.56451
-1.56867
-1.57277
-1.57682
-1.58081
-1.58474
-1.58862
-1.59245
-1.59621
-1.59993
-1.60358
-1.60718
-1.61073
-1.61421
-1.61765
-1.62103
-1.62435
-1.62762
-1.63084
-1.634
-1.63711
-1.64017
-1.64318
-1.64614
-1.64904
-1.6519
-1.6547
-1.65746
-1.66017
-1.66283
-1.66545
-1.66802
-1.67054
-1.67302
-1.67545
-1.67784
-1.68019
-1.6825
-1.68476
-1.68698
-1.68916
-1.6913
-1.69341
-1.69547
-1.6975
-1.69949
-1.70144
-1.70336
-1.70524
-1.70708
-1.7089
-1.71068
-1.71242
-1.71414
-1.71582
-1.71747
-1.71909
-1.72068
-1.72224
-1.72377
-1.72527
-1.72675
-1.72819
-1.72961
-1.731
-1.73236
-1.34774
-1.34782
-1.34838
-1.34929
-1.35053
-1.35209
-1.35396
-1.35611
-1.35853
-1.3612
-1.3641
-1.36722
-1.37054
-1.37404
-1.37773
-1.38157
-1.38556
-1.38968
-1.39392
-1.39828
-1.40274
-1.40728
-1.41191
-1.4166
-1.42136
-1.42617
-1.43103
-1.43592
-1.44085
-1.44579
-1.45076
-1.45573
-1.46072
-1.4657
-1.47068
-1.47564
-1.4806
-1.48553
-1.49045
-1.49534
-1.5002
-1.50503
-1.50982
-1.51458
-1.5193
-1.52398
-1.52862
-1.53321
-1.53775
-1.54225
-1.5467
-1.55109
-1.55544
-1.55973
-1.56397
-1.56815
-1.57228
-1.57636
-1.58037
-1.58434
-1.58825
-1.5921
-1.59589
-1.59963
-1.60332
-1.60694
-1.61051
-1.61403
-1.61749
-1.6209
-1.62425
-1.62754
-1.63079
-1.63398
-1.63711
-1.6402
-1.64323
-1.64621
-1.64914
-1.65202
-1.65485
-1.65763
-1.66037
-1.66305
-1.66569
-1.66828
-1.67083
-1.67333
-1.67578
-1.67819
-1.68056
-1.68289
-1.68517
-1.68741
-1.68961
-1.69178
-1.6939
-1.69598
-1.69803
-1.70004
-1.70201
-1.70394
-1.70584
-1.70771
-1.70953
-1.71133
-1.71309
-1.71482
-1.71652
-1.71819
-1.71982
-1.72143
-1.723
-1.72455
-1.72607
-1.72756
-1.72902
-1.73045
-1.73186
-1.73323
-1.34637
-1.34643
-1.34696
-1.34786
-1.34909
-1.35063
-1.35249
-1.35463
-1.35704
-1.3597
-1.3626
-1.36571
-1.36903
-1.37254
-1.37623
-1.38007
-1.38407
-1.3882
-1.39245
-1.39682
-1.40128
-1.40584
-1.41048
-1.41519
-1.41997
-1.4248
-1.42967
-1.43459
-1.43953
-1.4445
-1.44949
-1.45448
-1.45949
-1.4645
-1.4695
-1.47449
-1.47947
-1.48444
-1.48938
-1.4943
-1.49919
-1.50404
-1.50887
-1.51366
-1.51841
-1.52312
-1.52778
-1.5324
-1.53698
-1.5415
-1.54598
-1.55041
-1.55478
-1.55911
-1.56338
-1.56759
-1.57175
-1.57586
-1.57991
-1.5839
-1.58784
-1.59172
-1.59555
-1.59932
-1.60303
-1.60669
-1.61029
-1.61383
-1.61732
-1.62076
-1.62414
-1.62746
-1.63073
-1.63395
-1.63711
-1.64023
-1.64328
-1.64629
-1.64925
-1.65215
-1.65501
-1.65782
-1.66058
-1.66328
-1.66595
-1.66856
-1.67113
-1.67366
-1.67614
-1.67857
-1.68096
-1.68331
-1.68561
-1.68788
-1.6901
-1.69229
-1.69443
-1.69653
-1.6986
-1.70063
-1.70262
-1.70457
-1.70649
-1.70837
-1.71022
-1.71204
-1.71382
-1.71556
-1.71728
-1.71896
-1.72062
-1.72224
-1.72383
-1.72539
-1.72693
-1.72843
-1.72991
-1.73136
-1.73278
-1.73416
-1.3449
-1.34494
-1.34545
-1.34633
-1.34754
-1.34908
-1.35092
-1.35305
-1.35545
-1.3581
-1.361
-1.36411
-1.36743
-1.37094
-1.37463
-1.37848
-1.38248
-1.38661
-1.39088
-1.39525
-1.39973
-1.40431
-1.40896
-1.41369
-1.41848
-1.42333
-1.42822
-1.43316
-1.43812
-1.44311
-1.44813
-1.45315
-1.45818
-1.46321
-1.46824
-1.47326
-1.47827
-1.48326
-1.48824
-1.49318
-1.4981
-1.50299
-1.50785
-1.51267
-1.51745
-1.52219
-1.52689
-1.53154
-1.53615
-1.54071
-1.54522
-1.54968
-1.55409
-1.55844
-1.56275
-1.56699
-1.57119
-1.57533
-1.57941
-1.58344
-1.58741
-1.59132
-1.59518
-1.59898
-1.60272
-1.60641
-1.61005
-1.61362
-1.61714
-1.62061
-1.62402
-1.62737
-1.63067
-1.63392
-1.63711
-1.64025
-1.64334
-1.64638
-1.64936
-1.6523
-1.65518
-1.65801
-1.6608
-1.66354
-1.66622
-1.66887
-1.67146
-1.67401
-1.67651
-1.67897
-1.68139
-1.68376
-1.68609
-1.68838
-1.69062
-1.69283
-1.69499
-1.69712
-1.69921
-1.70126
-1.70327
-1.70524
-1.70718
-1.70909
-1.71096
-1.71279
-1.71459
-1.71636
-1.71809
-1.71979
-1.72146
-1.7231
-1.72471
-1.72629
-1.72784
-1.72936
-1.73086
-1.73232
-1.73376
-1.73515
-1.34334
-1.34336
-1.34385
-1.34471
-1.3459
-1.34742
-1.34925
-1.35137
-1.35376
-1.35641
-1.3593
-1.36241
-1.36572
-1.36924
-1.37293
-1.37678
-1.38079
-1.38493
-1.38921
-1.39359
-1.39809
-1.40267
-1.40734
-1.41209
-1.4169
-1.42177
-1.42668
-1.43164
-1.43663
-1.44164
-1.44668
-1.45173
-1.45679
-1.46185
-1.46691
-1.47196
-1.47699
-1.48202
-1.48702
-1.492
-1.49695
-1.50187
-1.50676
-1.51162
-1.51643
-1.52121
-1.52594
-1.53063
-1.53527
-1.53986
-1.54441
-1.5489
-1.55335
-1.55774
-1.56207
-1.56636
-1.57059
-1.57476
-1.57888
-1.58294
-1.58694
-1.59089
-1.59479
-1.59862
-1.6024
-1.60612
-1.60979
-1.6134
-1.61695
-1.62045
-1.62389
-1.62728
-1.63061
-1.63389
-1.63711
-1.64028
-1.6434
-1.64647
-1.64948
-1.65245
-1.65536
-1.65822
-1.66104
-1.6638
-1.66652
-1.66919
-1.67181
-1.67439
-1.67692
-1.6794
-1.68184
-1.68424
-1.6866
-1.68891
-1.69118
-1.69341
-1.6956
-1.69775
-1.69986
-1.70193
-1.70396
-1.70596
-1.70792
-1.70985
-1.71174
-1.71359
-1.71541
-1.7172
-1.71895
-1.72068
-1.72237
-1.72403
-1.72565
-1.72725
-1.72882
-1.73036
-1.73187
-1.73335
-1.73481
-1.73621
-1.3417
-1.34168
-1.34216
-1.34299
-1.34417
-1.34567
-1.34748
-1.34959
-1.35198
-1.35462
-1.3575
-1.3606
-1.36392
-1.36743
-1.37113
-1.37499
-1.379
-1.38315
-1.38744
-1.39184
-1.39634
-1.40094
-1.40563
-1.4104
-1.41522
-1.42011
-1.42505
-1.43003
-1.43504
-1.44009
-1.44515
-1.45023
-1.45531
-1.4604
-1.46549
-1.47057
-1.47564
-1.4807
-1.48573
-1.49075
-1.49573
-1.50069
-1.50561
-1.5105
-1.51535
-1.52016
-1.52493
-1.52966
-1.53434
-1.53897
-1.54355
-1.54808
-1.55256
-1.55699
-1.56136
-1.56568
-1.56995
-1.57416
-1.57831
-1.58241
-1.58645
-1.59044
-1.59437
-1.59824
-1.60205
-1.60581
-1.60951
-1.61316
-1.61675
-1.62028
-1.62376
-1.62718
-1.63054
-1.63386
-1.63711
-1.64032
-1.64347
-1.64657
-1.64961
-1.65261
-1.65555
-1.65845
-1.66129
-1.66408
-1.66683
-1.66953
-1.67218
-1.67478
-1.67734
-1.67986
-1.68233
-1.68475
-1.68713
-1.68947
-1.69177
-1.69402
-1.69624
-1.69841
-1.70055
-1.70264
-1.7047
-1.70672
-1.70871
-1.71065
-1.71257
-1.71444
-1.71629
-1.71809
-1.71987
-1.72161
-1.72332
-1.725
-1.72665
-1.72827
-1.72986
-1.73141
-1.73294
-1.73445
-1.73591
-1.73734
-1.33996
-1.33992
-1.34037
-1.34119
-1.34234
-1.34382
-1.34563
-1.34772
-1.35009
-1.35273
-1.3556
-1.35871
-1.36202
-1.36554
-1.36923
-1.3731
-1.37712
-1.38128
-1.38557
-1.38999
-1.39451
-1.39912
-1.40383
-1.40861
-1.41346
-1.41837
-1.42333
-1.42833
-1.43337
-1.43844
-1.44353
-1.44864
-1.45376
-1.45888
-1.464
-1.46911
-1.47422
-1.4793
-1.48438
-1.48942
-1.49445
-1.49944
-1.5044
-1.50933
-1.51422
-1.51906
-1.52387
-1.52863
-1.53335
-1.53802
-1.54264
-1.54721
-1.55173
-1.5562
-1.56061
-1.56497
-1.56928
-1.57353
-1.57772
-1.58186
-1.58594
-1.58996
-1.59393
-1.59784
-1.60169
-1.60549
-1.60922
-1.61291
-1.61653
-1.6201
-1.62361
-1.62707
-1.63047
-1.63382
-1.63711
-1.64035
-1.64354
-1.64667
-1.64975
-1.65278
-1.65575
-1.65868
-1.66156
-1.66438
-1.66716
-1.66989
-1.67257
-1.67521
-1.67779
-1.68034
-1.68283
-1.68529
-1.6877
-1.69006
-1.69239
-1.69467
-1.69691
-1.69911
-1.70127
-1.7034
-1.70548
-1.70753
-1.70953
-1.71151
-1.71344
-1.71534
-1.71721
-1.71904
-1.72084
-1.7226
-1.72433
-1.72603
-1.7277
-1.72934
-1.73095
-1.73253
-1.73408
-1.7356
-1.73709
-1.73853
-1.33814
-1.33807
-1.3385
-1.33929
-1.34042
-1.34189
-1.34367
-1.34576
-1.34812
-1.35074
-1.35361
-1.35671
-1.36003
-1.36354
-1.36724
-1.37111
-1.37514
-1.37931
-1.38361
-1.38804
-1.39257
-1.39721
-1.40193
-1.40673
-1.41161
-1.41654
-1.42152
-1.42655
-1.43162
-1.43672
-1.44184
-1.44697
-1.45212
-1.45727
-1.46243
-1.46758
-1.47272
-1.47784
-1.48295
-1.48803
-1.49309
-1.49812
-1.50312
-1.50809
-1.51302
-1.51791
-1.52275
-1.52756
-1.53232
-1.53703
-1.54169
-1.5463
-1.55086
-1.55537
-1.55982
-1.56422
-1.56857
-1.57286
-1.5771
-1.58127
-1.58539
-1.58946
-1.59347
-1.59742
-1.60131
-1.60514
-1.60892
-1.61264
-1.61631
-1.61991
-1.62346
-1.62696
-1.6304
-1.63378
-1.63711
-1.64039
-1.64361
-1.64678
-1.64989
-1.65296
-1.65597
-1.65893
-1.66184
-1.6647
-1.66751
-1.67027
-1.67298
-1.67565
-1.67827
-1.68084
-1.68337
-1.68585
-1.68829
-1.69069
-1.69304
-1.69535
-1.69762
-1.69985
-1.70204
-1.70419
-1.7063
-1.70837
-1.71041
-1.7124
-1.71436
-1.71629
-1.71818
-1.72003
-1.72186
-1.72364
-1.7254
-1.72712
-1.72881
-1.73047
-1.7321
-1.7337
-1.73527
-1.73681
-1.73832
-1.73978
-1.33624
-1.33614
-1.33653
-1.3373
-1.33841
-1.33986
-1.34163
-1.3437
-1.34605
-1.34866
-1.35153
-1.35462
-1.35794
-1.36145
-1.36515
-1.36903
-1.37306
-1.37725
-1.38156
-1.386
-1.39055
-1.3952
-1.39995
-1.40477
-1.40966
-1.41462
-1.41963
-1.42469
-1.42978
-1.43491
-1.44006
-1.44523
-1.45041
-1.45559
-1.46078
-1.46597
-1.47114
-1.4763
-1.48145
-1.48657
-1.49167
-1.49675
-1.50179
-1.50679
-1.51176
-1.51669
-1.52158
-1.52643
-1.53123
-1.53598
-1.54069
-1.54534
-1.54995
-1.5545
-1.559
-1.56344
-1.56783
-1.57216
-1.57644
-1.58066
-1.58482
-1.58893
-1.59298
-1.59697
-1.60091
-1.60478
-1.6086
-1.61236
-1.61607
-1.61972
-1.62331
-1.62684
-1.63032
-1.63374
-1.63711
-1.64043
-1.64369
-1.64689
-1.65004
-1.65314
-1.65619
-1.65919
-1.66213
-1.66503
-1.66787
-1.67067
-1.67342
-1.67612
-1.67877
-1.68137
-1.68393
-1.68645
-1.68892
-1.69135
-1.69373
-1.69607
-1.69837
-1.70063
-1.70285
-1.70502
-1.70716
-1.70926
-1.71132
-1.71335
-1.71533
-1.71728
-1.7192
-1.72108
-1.72292
-1.72474
-1.72652
-1.72826
-1.72998
-1.73166
-1.73331
-1.73493
-1.73653
-1.73809
-1.73962
-1.74109
-1.33425
-1.33412
-1.33448
-1.33523
-1.33631
-1.33774
-1.3395
-1.34155
-1.34389
-1.34649
-1.34935
-1.35244
-1.35576
-1.35927
-1.36298
-1.36686
-1.3709
-1.37509
-1.37942
-1.38387
-1.38844
-1.39311
-1.39787
-1.40271
-1.40763
-1.41261
-1.41765
-1.42273
-1.42786
-1.43301
-1.4382
-1.4434
-1.44861
-1.45384
-1.45906
-1.46428
-1.4695
-1.4747
-1.47988
-1.48505
-1.49019
-1.4953
-1.50039
-1.50544
-1.51045
-1.51542
-1.52036
-1.52525
-1.53009
-1.53489
-1.53964
-1.54434
-1.54899
-1.55358
-1.55813
-1.56262
-1.56705
-1.57143
-1.57575
-1.58002
-1.58423
-1.58838
-1.59247
-1.59651
-1.60048
-1.60441
-1.60827
-1.61207
-1.61582
-1.61951
-1.62314
-1.62672
-1.63024
-1.6337
-1.63711
-1.64047
-1.64376
-1.64701
-1.6502
-1.65334
-1.65642
-1.65946
-1.66244
-1.66537
-1.66825
-1.67109
-1.67387
-1.6766
-1.67929
-1.68193
-1.68452
-1.68707
-1.68958
-1.69203
-1.69445
-1.69682
-1.69915
-1.70144
-1.70369
-1.70589
-1.70806
-1.71019
-1.71228
-1.71433
-1.71635
-1.71832
-1.72027
-1.72217
-1.72404
-1.72588
-1.72769
-1.72946
-1.7312
-1.7329
-1.73458
-1.73622
-1.73784
-1.73943
-1.74097
-1.74247
-1.33218
-1.33201
-1.33235
-1.33307
-1.33413
-1.33554
-1.33727
-1.33931
-1.34164
-1.34423
-1.34709
-1.35017
-1.35348
-1.357
-1.36071
-1.36459
-1.36864
-1.37284
-1.37719
-1.38165
-1.38624
-1.39092
-1.39571
-1.40057
-1.40551
-1.41052
-1.41558
-1.4207
-1.42585
-1.43104
-1.43626
-1.44149
-1.44674
-1.452
-1.45727
-1.46253
-1.46778
-1.47302
-1.47825
-1.48346
-1.48864
-1.4938
-1.49893
-1.50402
-1.50908
-1.5141
-1.51908
-1.52401
-1.5289
-1.53375
-1.53855
-1.54329
-1.54799
-1.55263
-1.55722
-1.56176
-1.56624
-1.57067
-1.57504
-1.57935
-1.5836
-1.5878
-1.59194
-1.59602
-1.60005
-1.60401
-1.60792
-1.61177
-1.61556
-1.61929
-1.62297
-1.62659
-1.63015
-1.63366
-1.63711
-1.64051
-1.64385
-1.64713
-1.65036
-1.65354
-1.65667
-1.65974
-1.66276
-1.66573
-1.66865
-1.67152
-1.67434
-1.67711
-1.67984
-1.68251
-1.68514
-1.68772
-1.69026
-1.69275
-1.6952
-1.69761
-1.69997
-1.70229
-1.70457
-1.70681
-1.709
-1.71116
-1.71328
-1.71536
-1.71741
-1.71941
-1.72138
-1.72332
-1.72521
-1.72708
-1.72891
-1.73071
-1.73247
-1.7342
-1.7359
-1.73757
-1.73921
-1.74082
-1.74239
-1.74391
-1.33003
-1.32983
-1.33013
-1.33082
-1.33186
-1.33325
-1.33496
-1.33699
-1.3393
-1.34189
-1.34473
-1.34781
-1.35112
-1.35464
-1.35835
-1.36224
-1.3663
-1.37051
-1.37486
-1.37934
-1.38394
-1.38865
-1.39345
-1.39834
-1.40331
-1.40834
-1.41344
-1.41858
-1.42377
-1.42899
-1.43424
-1.43951
-1.4448
-1.4501
-1.4554
-1.4607
-1.466
-1.47128
-1.47655
-1.4818
-1.48703
-1.49223
-1.4974
-1.50254
-1.50765
-1.51272
-1.51774
-1.52273
-1.52767
-1.53256
-1.53741
-1.5422
-1.54695
-1.55164
-1.55628
-1.56086
-1.56539
-1.56987
-1.57429
-1.57865
-1.58295
-1.5872
-1.59139
-1.59552
-1.59959
-1.6036
-1.60755
-1.61145
-1.61529
-1.61907
-1.62279
-1.62646
-1.63006
-1.63362
-1.63711
-1.64055
-1.64393
-1.64726
-1.65054
-1.65376
-1.65692
-1.66004
-1.6631
-1.66611
-1.66907
-1.67197
-1.67483
-1.67764
-1.6804
-1.68312
-1.68578
-1.6884
-1.69097
-1.6935
-1.69598
-1.69842
-1.70082
-1.70317
-1.70548
-1.70776
-1.70998
-1.71217
-1.71432
-1.71644
-1.71851
-1.72055
-1.72254
-1.72451
-1.72643
-1.72833
-1.73018
-1.73201
-1.7338
-1.73556
-1.73728
-1.73898
-1.74064
-1.74228
-1.74387
-1.74541
-1.3278
-1.32756
-1.32784
-1.3285
-1.32951
-1.33087
-1.33257
-1.33457
-1.33687
-1.33945
-1.34228
-1.34536
-1.34867
-1.35218
-1.3559
-1.3598
-1.36386
-1.36808
-1.37245
-1.37695
-1.38157
-1.38629
-1.39112
-1.39603
-1.40102
-1.40608
-1.41121
-1.41638
-1.4216
-1.42686
-1.43214
-1.43745
-1.44278
-1.44811
-1.45346
-1.4588
-1.46414
-1.46947
-1.47478
-1.48008
-1.48535
-1.4906
-1.49582
-1.50101
-1.50616
-1.51128
-1.51636
-1.52139
-1.52638
-1.53132
-1.53622
-1.54107
-1.54586
-1.55061
-1.5553
-1.55993
-1.56452
-1.56904
-1.57351
-1.57792
-1.58227
-1.58657
-1.59081
-1.59499
-1.59911
-1.60317
-1.60717
-1.61112
-1.61501
-1.61883
-1.6226
-1.62632
-1.62997
-1.63357
-1.63711
-1.64059
-1.64402
-1.6474
-1.65071
-1.65398
-1.65719
-1.66034
-1.66345
-1.6665
-1.6695
-1.67245
-1.67535
-1.67819
-1.68099
-1.68375
-1.68645
-1.68911
-1.69172
-1.69428
-1.6968
-1.69927
-1.70171
-1.70409
-1.70644
-1.70874
-1.71101
-1.71323
-1.71541
-1.71755
-1.71966
-1.72173
-1.72375
-1.72575
-1.7277
-1.72963
-1.73151
-1.73336
-1.73518
-1.73697
-1.73872
-1.74044
-1.74213
-1.74379
-1.74541
-1.74697
-1.32549
-1.32521
-1.32546
-1.32609
-1.32707
-1.32841
-1.33009
-1.33208
-1.33436
-1.33693
-1.33975
-1.34283
-1.34613
-1.34965
-1.35336
-1.35727
-1.36134
-1.36557
-1.36995
-1.37447
-1.3791
-1.38385
-1.3887
-1.39363
-1.39865
-1.40374
-1.40889
-1.4141
-1.41935
-1.42464
-1.42997
-1.43532
-1.44068
-1.44606
-1.45144
-1.45683
-1.46221
-1.46759
-1.47295
-1.47829
-1.48361
-1.48891
-1.49418
-1.49942
-1.50462
-1.50979
-1.51492
-1.52
-1.52505
-1.53004
-1.53499
-1.53989
-1.54474
-1.54953
-1.55428
-1.55897
-1.5636
-1.56818
-1.5727
-1.57716
-1.58157
-1.58592
-1.59021
-1.59444
-1.59861
-1.60273
-1.60678
-1.61078
-1.61471
-1.61859
-1.62241
-1.62617
-1.62987
-1.63352
-1.63711
-1.64064
-1.64411
-1.64753
-1.6509
-1.65421
-1.65746
-1.66066
-1.66381
-1.6669
-1.66995
-1.67294
-1.67588
-1.67877
-1.68161
-1.6844
-1.68714
-1.68984
-1.69249
-1.69509
-1.69765
-1.70016
-1.70263
-1.70505
-1.70743
-1.70977
-1.71207
-1.71432
-1.71654
-1.71871
-1.72085
-1.72295
-1.72501
-1.72704
-1.72902
-1.73097
-1.73289
-1.73477
-1.73662
-1.73843
-1.74021
-1.74196
-1.74368
-1.74537
-1.74701
-1.74859
-1.3231
-1.32279
-1.323
-1.3236
-1.32455
-1.32587
-1.32752
-1.32949
-1.33176
-1.33432
-1.33714
-1.3402
-1.3435
-1.34702
-1.35074
-1.35465
-1.35873
-1.36298
-1.36737
-1.3719
-1.37655
-1.38132
-1.38619
-1.39115
-1.3962
-1.40132
-1.4065
-1.41174
-1.41703
-1.42236
-1.42772
-1.4331
-1.43851
-1.44393
-1.44936
-1.45479
-1.46022
-1.46564
-1.47105
-1.47644
-1.48181
-1.48716
-1.49248
-1.49777
-1.50303
-1.50825
-1.51343
-1.51857
-1.52366
-1.52871
-1.53371
-1.53867
-1.54357
-1.54842
-1.55322
-1.55797
-1.56265
-1.56729
-1.57186
-1.57638
-1.58084
-1.58524
-1.58959
-1.59387
-1.5981
-1.60226
-1.60637
-1.61042
-1.61441
-1.61834
-1.62221
-1.62602
-1.62977
-1.63347
-1.63711
-1.64069
-1.64421
-1.64768
-1.65109
-1.65444
-1.65774
-1.66099
-1.66418
-1.66732
-1.67041
-1.67344
-1.67643
-1.67936
-1.68224
-1.68508
-1.68786
-1.6906
-1.69329
-1.69593
-1.69852
-1.70107
-1.70358
-1.70604
-1.70846
-1.71083
-1.71317
-1.71546
-1.71771
-1.71992
-1.72209
-1.72422
-1.72632
-1.72837
-1.73039
-1.73237
-1.73432
-1.73623
-1.73811
-1.73995
-1.74176
-1.74354
-1.74528
-1.747
-1.74867
-1.75027
-1.32064
-1.32028
-1.32046
-1.32103
-1.32196
-1.32325
-1.32488
-1.32683
-1.32908
-1.33162
-1.33443
-1.33749
-1.34079
-1.34431
-1.34803
-1.35195
-1.35604
-1.36029
-1.3647
-1.36925
-1.37392
-1.37871
-1.3836
-1.38859
-1.39366
-1.39881
-1.40403
-1.4093
-1.41462
-1.41999
-1.42539
-1.43082
-1.43627
-1.44173
-1.4472
-1.45268
-1.45816
-1.46362
-1.46908
-1.47452
-1.47995
-1.48535
-1.49072
-1.49606
-1.50137
-1.50665
-1.51188
-1.51708
-1.52223
-1.52734
-1.53239
-1.5374
-1.54236
-1.54727
-1.55213
-1.55693
-1.56167
-1.56636
-1.57099
-1.57557
-1.58009
-1.58454
-1.58894
-1.59328
-1.59756
-1.60178
-1.60595
-1.61005
-1.61409
-1.61807
-1.622
-1.62586
-1.62967
-1.63341
-1.6371
-1.64073
-1.64431
-1.64782
-1.65128
-1.65469
-1.65804
-1.66133
-1.66457
-1.66776
-1.67089
-1.67397
-1.677
-1.67998
-1.6829
-1.68578
-1.68861
-1.69138
-1.69411
-1.6968
-1.69943
-1.70202
-1.70457
-1.70707
-1.70952
-1.71194
-1.71431
-1.71663
-1.71892
-1.72117
-1.72337
-1.72554
-1.72767
-1.72976
-1.73181
-1.73382
-1.7358
-1.73774
-1.73965
-1.74153
-1.74337
-1.74517
-1.74695
-1.74869
-1.75039
-1.75201
-1.3181
-1.31771
-1.31785
-1.31838
-1.31928
-1.32054
-1.32215
-1.32408
-1.32632
-1.32885
-1.33165
-1.3347
-1.338
-1.34151
-1.34524
-1.34916
-1.35326
-1.35753
-1.36195
-1.36651
-1.3712
-1.37601
-1.38093
-1.38595
-1.39105
-1.39623
-1.40148
-1.40678
-1.41214
-1.41755
-1.42299
-1.42846
-1.43395
-1.43946
-1.44498
-1.4505
-1.45603
-1.46154
-1.46705
-1.47255
-1.47802
-1.48348
-1.4889
-1.4943
-1.49967
-1.505
-1.51029
-1.51554
-1.52075
-1.52591
-1.53103
-1.5361
-1.54112
-1.54608
-1.55099
-1.55585
-1.56066
-1.56541