/*--------------------------------*- C++ -*---------------------------------*\ 
| ========                 |                                                 | 
| \      /  F ield         | OpenFOAM: The Open Source CFD Toolbox           | 
|  \    /   O peration     | Version:  v1812                                 | 
|   \  /    A nd           | Web:      www.OpenFOAM.com                      | 
|    \/     M anipulation  |                                                 | 
\*--------------------------------------------------------------------------*/ 
FoamFile
{
    version     2.0;
    format      ascii;
    class       volVectorField;
    location    "/home/james/dafoam/myRuns/bezier_coanda_opt/0.00000000001/";
    object      sens_CL_shapey;
}
// * * * * * * * * * * * * * * * * * * * * * * * * * * * * * * * * * * * * * //

dimensions      [0 0 0 0 0 0 0];
internalField   uniform (0 0 0);
boundaryField
{
    allWalls
    {
        type  wall;
        value nonuniform List<vector>
196
(
(0.018945 -0.010886 0.000272)
(-0.024498 0.018753 0.000286)
(-0.074759 0.062287 0.000163)
(-0.087202 0.088194 0.000183)
(-0.075904 0.090648 0.000345)
(-0.065151 0.092569 0.000328)
(-0.049579 0.080565 0.000354)
(-0.036536 0.070296 0.000423)
(-0.033027 0.077730 0.000454)
(-0.024191 0.068542 0.000487)
(-0.029963 0.093257 0.000524)
(-0.035167 0.122267 0.000883)
(-0.030452 0.119457 0.000915)
(-0.028134 0.126348 0.001241)
(-0.023998 0.128855 0.002016)
(-0.021641 0.138373 0.002305)
(-0.020364 0.154884 0.002614)
(-0.017213 0.164442 0.002939)
(-0.014176 0.178295 0.003272)
(-0.010932 0.197412 0.003604)
(-0.007141 0.217019 0.004306)
(-0.002417 0.251042 0.005037)
(0.003410 0.291154 0.004541)
(0.010943 0.336680 0.004214)
(0.019460 0.385661 0.003407)
(0.026744 0.404199 0.001959)
(0.030213 0.383784 0.001401)
(0.036520 0.408235 0.000902)
(0.040765 0.418959 0.000509)
(0.042626 0.402921 0.000210)
(0.047610 0.423178 -0.000010)
(0.050925 0.428174 -0.000077)
(0.054274 0.435359 -0.000052)
(0.057365 0.441515 -0.000052)
(0.060341 0.447961 -0.000052)
(0.063085 0.453708 -0.000052)
(0.065531 0.458250 -0.000121)
(0.067564 0.460857 -0.000181)
(0.069154 0.461406 -0.000172)
(0.070380 0.460445 -0.000172)
(0.071231 0.457884 -0.000172)
(0.071420 0.451858 -0.000172)
(0.070688 0.440883 -0.000172)
(0.069536 0.428345 -0.000115)
(0.069254 0.421123 -0.000059)
(0.069378 0.414423 -0.000059)
(0.065770 0.377300 -0.000059)
(0.056333 0.313896 -0.000059)
(0.050404 0.276426 -0.000059)
(0.060542 0.336385 -0.000101)
(-0.095257 0.661566 -0.000101)
(0.027334 -0.175886 -0.000059)
(-0.028384 0.143180 -0.000059)
(-0.058662 0.345000 -0.000059)
(-0.055641 0.335747 -0.000059)
(-0.050757 0.310811 -0.000059)
(-0.052463 0.324357 -0.000115)
(-0.054935 0.343659 -0.000172)
(-0.056040 0.355453 -0.000172)
(-0.056135 0.361686 -0.000172)
(-0.055884 0.366403 -0.000172)
(-0.055365 0.370159 -0.000172)
(-0.054470 0.372287 -0.000112)
(-0.053180 0.372617 -0.000052)
(-0.051549 0.371413 -0.000052)
(-0.049648 0.369231 -0.000052)
(-0.047528 0.366437 -0.000052)
(-0.045230 0.363376 -0.000052)
(-0.042804 0.360559 -0.000052)
(-0.039789 0.353626 0.000032)
(-0.039237 0.373490 0.000043)
(-0.034761 0.354133 -0.000132)
(-0.029214 0.329056 -0.000370)
(-0.027940 0.355982 -0.000680)
(-0.023995 0.363393 -0.001032)
(-0.017663 0.345342 -0.002565)
(-0.010216 0.305711 -0.003006)
(-0.003629 0.262706 -0.002135)
(0.001792 0.231114 -0.002175)
(0.006112 0.205609 -0.002653)
(0.009934 0.185455 -0.002993)
(0.013242 0.170727 -0.002711)
(0.015714 0.153179 -0.002251)
(0.018960 0.144523 -0.001828)
(0.023700 0.146024 -0.001622)
(0.024862 0.133946 -0.001426)
(0.019595 0.094638 -0.001233)
(0.024938 0.098797 -0.001037)
(0.036538 0.124108 -0.000886)
(0.034778 0.101841 -0.000769)
(0.031370 0.078590 -0.000647)
(0.037125 0.080988 -0.000540)
(0.038091 0.073785 -0.000445)
(0.031067 0.050491 -0.000469)
(0.029480 0.037197 -0.000397)
(0.022019 0.018612 -0.000267)
(0.030560 0.016574 -0.000257)
(0.056326 0.034115 0.000017)
(0.053571 0.041625 0.000268)
(0.033980 0.014805 0.000267)
(0.037827 0.553946 -0.000144)
(0.001729 0.717450 -0.000144)
(0.008025 0.624370 -0.000144)
(0.034973 0.978441 -0.000144)
(0.056479 1.591622 -0.000144)
(0.053297 1.410337 -0.000137)
(0.057737 1.099843 -0.000130)
(0.265677 5.313128 -0.000130)
(0.879592 17.522167 -0.000130)
(-27.031446 -2.030923 -0.000075)
(221.261678 -282.521426 -0.000130)
(-8.829613 -4.090806 -0.000075)
(-28.048838 -15.820835 -0.000021)
(-198.882544 216.488668 -0.000075)
(-1.837437 130.707808 -0.000021)
(4.885733 55.430193 -0.000021)
(1.897347 21.005324 -0.000021)
(1.238194 8.508118 -0.000021)
(1.116436 5.382985 -0.000021)
(0.798106 3.419732 -0.000021)
(1.953114 5.503613 -0.000021)
(3.317534 8.256478 -0.000021)
(0.899433 3.211530 -0.000021)
(-2.435579 -4.111003 -0.000009)
(2.367915 3.876896 0.000002)
(14.873926 23.093601 0.000002)
(18.751197 22.833863 0.000002)
(-11.012576 -14.790462 0.000002)
(-49.255648 -51.807822 0.000002)
(-43.465743 -49.352209 0.000002)
(-14.544234 -20.779604 0.000002)
(10.040281 9.082389 0.000002)
(23.726614 20.705459 0.000002)
(17.722081 13.995043 0.000002)
(9.652725 6.125277 0.000002)
(3.626886 1.958546 0.000002)
(-1.639648 -2.412255 0.000002)
(0.084704 -1.884000 0.000002)
(1.926170 0.171780 0.000002)
(1.950428 0.066687 0.000002)
(0.851256 -0.766863 0.000002)
(0.036157 -0.754498 0.000002)
(1.108882 -0.398005 0.000002)
(1.220398 -0.269080 0.000002)
(1.085216 -0.025979 0.000002)
(1.115784 0.134790 0.000002)
(0.906258 0.158344 0.000002)
(0.952283 0.147513 0.000002)
(0.751265 0.085204 0.000002)
(0.442791 -0.025072 0.000002)
(0.211771 -0.147154 0.000002)
(0.017242 -0.223283 0.000002)
(-0.032162 -0.227532 0.000002)
(-0.058135 -0.137230 0.000002)
(-0.219476 0.011894 0.000002)
(-0.440403 0.143871 0.000002)
(-0.663765 0.253524 0.000002)
(-0.824979 0.343860 0.000002)
(-1.024930 0.484084 0.000002)
(-1.076138 0.561952 0.000002)
(-0.842415 0.478984 0.000002)
(-0.846808 0.536409 0.000002)
(-1.103964 0.736699 0.000002)
(-1.354119 0.934990 0.000002)
(-1.529309 1.135865 0.000002)
(-1.430164 1.181673 0.000002)
(-1.100970 1.023604 0.000002)
(-0.810833 0.834112 0.000002)
(-0.618432 0.670393 0.000002)
(-0.237005 0.188667 0.000002)
(0.233590 -0.467964 0.000002)
(0.561339 -0.988134 0.000002)
(0.775803 -1.420387 -0.000009)
(0.839664 -1.696579 -0.000021)
(0.818162 -1.894593 -0.000021)
(0.678205 -1.810267 -0.000021)
(0.523781 -1.645951 -0.000021)
(0.450777 -1.620960 -0.000021)
(0.398302 -1.558541 -0.000021)
(0.427741 -1.676151 -0.000021)
(0.318083 -1.612794 -0.000021)
(0.091923 -0.996263 -0.000021)
(-57.347701 -0.295296 -0.000075)
(57.645483 -0.039017 -0.000075)
(0.751742 0.052034 -0.000021)
(3.421580 -14.779894 -0.000021)
(2.556566 -6.744247 -0.000075)
(-0.448627 11.415833 -0.000130)
(-0.143260 3.889779 -0.000130)
(-0.025871 0.740759 -0.000137)
(-0.017965 0.578795 -0.000144)
(-0.039164 1.081203 -0.000144)
(-0.036914 0.922604 -0.000144)
(0.000981 0.410867 -0.000144)
(0.041378 0.159155 -0.000144)
(-0.096670 0.888979 -0.000144)
)
;
    }
}
