/*--------------------------------*- C++ -*----------------------------------*\
  =========                 |
  \\      /  F ield         | OpenFOAM: The Open Source CFD Toolbox
   \\    /   O peration     | Website:  https://openfoam.org
    \\  /    A nd           | Version:  8
     \\/     M anipulation  |
\*---------------------------------------------------------------------------*/
FoamFile
{
    version     2.0;
    format      ascii;
    class       volScalarField;
    location    "227";
    object      epsilon;
}
// * * * * * * * * * * * * * * * * * * * * * * * * * * * * * * * * * * * * * //

dimensions      [0 2 -3 0 0 0 0];

internalField   nonuniform List<scalar> 
1250
(
8.76326e-05
0.000102049
0.00012302
0.000137434
0.000152882
0.00015954
0.000171951
0.00019351
0.000228924
0.000272069
0.00032201
0.000368015
0.000408226
0.000434894
0.000450447
0.000453735
0.000454543
0.000457731
0.000465791
0.000480566
0.000502893
0.00052701
0.000554859
0.000580125
0.000605597
0.000625909
0.00064506
0.000658893
0.000672234
0.000681182
0.000690014
0.000695253
0.000700431
0.000703508
0.000705685
0.000705953
0.000705764
0.000704688
0.000702069
0.000699225
0.000694446
0.000686648
0.00067745
0.000669242
0.000668641
0.000676943
0.000736458
0.000880754
0.00113884
0.00138547
8.7629e-05
0.000102043
0.000123021
0.000137434
0.000152884
0.000159539
0.00017195
0.000193513
0.000228923
0.000272067
0.000322009
0.000368016
0.000408225
0.000434893
0.000450453
0.000453736
0.000454544
0.00045773
0.00046579
0.000480568
0.000502898
0.000527006
0.000554856
0.000580125
0.00060561
0.000625928
0.000645135
0.000658931
0.000672171
0.000681165
0.000689986
0.000695575
0.000700525
0.000703316
0.000705992
0.000706129
0.000705927
0.000704647
0.000702256
0.000699193
0.000694505
0.00068666
0.000677538
0.000669327
0.00066869
0.000673388
0.00073279
0.000881586
0.00112873
0.00137362
8.76292e-05
0.000102047
0.000123018
0.000137424
0.000152882
0.000159535
0.000171946
0.00019351
0.000228923
0.000272066
0.000322006
0.000368015
0.000408225
0.000434891
0.000450452
0.00045374
0.000454548
0.000457734
0.000465791
0.00048057
0.000502894
0.000527009
0.000554857
0.000580124
0.000605595
0.000625915
0.000645126
0.00065896
0.000672251
0.000681072
0.000689786
0.000695483
0.000700782
0.000703307
0.000705714
0.000705774
0.000705774
0.000704576
0.000702126
0.000699196
0.000694537
0.000686816
0.000677447
0.000669661
0.000669184
0.000673808
0.000732842
0.000885208
0.00112409
0.00135964
8.76282e-05
0.00010205
0.000123019
0.000137431
0.000152881
0.000159538
0.000171947
0.000193512
0.000228925
0.000272066
0.000322005
0.000368016
0.000408226
0.000434891
0.00045045
0.000453739
0.000454547
0.000457733
0.000465795
0.000480567
0.0005029
0.000527006
0.000554856
0.000580122
0.000605592
0.000625905
0.000645112
0.000658953
0.000672235
0.000681146
0.000689845
0.000695393
0.000700747
0.000703438
0.000706074
0.000706055
0.000705762
0.000704622
0.000702168
0.000699115
0.000694341
0.000686587
0.000677678
0.000669352
0.000670584
0.000674177
0.000731023
0.000888564
0.00113483
0.00136801
8.76333e-05
0.000102049
0.000123016
0.000137423
0.00015288
0.00015954
0.000171951
0.000193515
0.000228925
0.000272069
0.000322007
0.000368015
0.000408227
0.000434891
0.000450447
0.000453738
0.000454546
0.000457732
0.000465794
0.000480568
0.000502899
0.000527008
0.000554854
0.000580119
0.000605604
0.000625894
0.000645091
0.000658943
0.000672181
0.00068107
0.000689721
0.000695203
0.000700631
0.000703308
0.000705584
0.000705722
0.000705791
0.000704536
0.000702115
0.000699093
0.000694384
0.00068666
0.000677529
0.000669544
0.000670638
0.000676173
0.000735634
0.000887235
0.00114412
0.00138435
8.64468e-05
8.73863e-05
9.07774e-05
9.76233e-05
0.000105728
0.00011235
0.000119806
0.000129838
0.00014185
0.000155008
0.000168382
0.000182313
0.000198181
0.000214853
0.000233353
0.000252062
0.000273499
0.000295271
0.00031997
0.000344198
0.000370715
0.000396005
0.000423598
0.000449723
0.000478362
0.000505108
0.000534185
0.00056046
0.000588598
0.000612783
0.000638339
0.000659506
0.000680951
0.0006982
0.000715332
0.000727964
0.000740602
0.000749104
0.000757508
0.00076219
0.00076666
0.00076877
0.000768424
0.000766505
0.000762224
0.000763889
0.000768272
0.000807407
0.000849985
0.000967532
8.64468e-05
8.73863e-05
9.07774e-05
9.76244e-05
0.000105728
0.00011235
0.000119798
0.000129834
0.000141846
0.000155008
0.00016838
0.000182318
0.000198191
0.000214843
0.000233361
0.000252045
0.0002735
0.000295278
0.00031997
0.000344201
0.000370712
0.000396009
0.000423595
0.000449724
0.000478375
0.000505113
0.000534177
0.000560458
0.000588631
0.000612834
0.000638392
0.00065949
0.000680948
0.000698169
0.000715297
0.000727917
0.000740712
0.000749062
0.000757603
0.000762286
0.000766659
0.000768643
0.000768277
0.000766275
0.000761904
0.000761553
0.00076246
0.000790049
0.000825667
0.000964216
8.64469e-05
8.73863e-05
9.07772e-05
9.76227e-05
0.000105733
0.000112349
0.000119808
0.000129836
0.000141855
0.000155019
0.00016838
0.000182308
0.000198182
0.000214856
0.000233357
0.000252057
0.000273499
0.000295272
0.00031997
0.000344199
0.000370713
0.000396014
0.000423602
0.000449721
0.00047837
0.000505105
0.000534187
0.000560444
0.000588614
0.000612802
0.000638376
0.000659442
0.000680895
0.000698114
0.000715209
0.000727964
0.000740624
0.000749091
0.000757542
0.000762203
0.000766672
0.00076882
0.00076844
0.000766524
0.000761973
0.000763124
0.000771411
0.000796413
0.000828132
0.000944698
8.64468e-05
8.73863e-05
9.07774e-05
9.76242e-05
0.000105729
0.000112347
0.000119802
0.000129835
0.000141846
0.000155017
0.000168385
0.000182308
0.000198188
0.000214844
0.000233364
0.000252048
0.000273501
0.000295271
0.000319971
0.000344199
0.000370714
0.000396012
0.000423599
0.000449717
0.000478372
0.000505108
0.000534174
0.000560448
0.000588592
0.000612751
0.000638351
0.000659495
0.000680951
0.000698161
0.000715165
0.000727899
0.000740674
0.000749097
0.000757479
0.00076215
0.000766615
0.000768662
0.000768288
0.00076643
0.000762447
0.000761111
0.000766231
0.000805703
0.000849671
0.000967224
8.64468e-05
8.73863e-05
9.07772e-05
9.76223e-05
0.000105734
0.000112349
0.00011981
0.000129839
0.000141853
0.000155018
0.000168382
0.000182309
0.000198186
0.000214854
0.000233359
0.00025206
0.000273501
0.000295279
0.000319973
0.000344204
0.000370715
0.000396005
0.000423595
0.000449718
0.000478365
0.000505103
0.000534162
0.000560434
0.000588603
0.000612787
0.000638363
0.000659446
0.000680957
0.000698186
0.000715258
0.000727839
0.000740609
0.000748995
0.00075753
0.000762218
0.000766549
0.000768766
0.000768435
0.000766652
0.00076173
0.00076125
0.000761494
0.00078886
0.000829736
0.000953078
0.000106135
0.00011422
0.000130614
0.000163457
0.00020106
0.000246704
0.00029551
0.000352485
0.000416742
0.000493772
0.000580226
0.000679358
0.000786524
0.000897409
0.00100893
0.00111708
0.00122185
0.00132075
0.00141564
0.00150457
0.00158991
0.00166869
0.00174309
0.00180845
0.00186834
0.00191778
0.00195937
0.00199115
0.00201401
0.00202807
0.00203524
0.00203384
0.00202825
0.00201713
0.00199973
0.00197945
0.00195576
0.00192985
0.00190065
0.00187284
0.00183835
0.00181096
0.00177024
0.0017463
0.00169922
0.00167593
0.00162814
0.00159931
0.00155867
0.00146576
0.000106135
0.000114221
0.000130614
0.00016352
0.000201068
0.000246723
0.000295508
0.000352509
0.000416757
0.000493779
0.000580234
0.000679318
0.000786503
0.000897464
0.00100893
0.00111715
0.00122188
0.00132074
0.00141563
0.00150457
0.00158988
0.0016687
0.00174311
0.00180842
0.00186835
0.00191771
0.00195928
0.00199097
0.00201416
0.00202796
0.00203564
0.00203423
0.00202864
0.00201689
0.00199945
0.00197906
0.00195542
0.0019302
0.00190092
0.00187327
0.00183866
0.00181154
0.00177055
0.00174667
0.00169981
0.00167564
0.00162751
0.00159995
0.00155552
0.00147069
0.000106135
0.00011422
0.000130612
0.000163457
0.000201054
0.00024672
0.000295511
0.000352486
0.00041674
0.000493783
0.000580225
0.000679319
0.000786513
0.000897394
0.00100892
0.00111708
0.00122189
0.00132076
0.00141564
0.00150457
0.00158988
0.00166867
0.0017431
0.00180845
0.00186832
0.0019178
0.00195933
0.00199108
0.00201403
0.00202812
0.00203574
0.00203439
0.00202839
0.00201719
0.00199971
0.00197943
0.00195494
0.0019297
0.00190089
0.00187286
0.00183865
0.0018111
0.00177025
0.00174607
0.00169928
0.00167628
0.00162755
0.00160052
0.00155736
0.00146415
0.000106136
0.000114221
0.000130614
0.000163518
0.000201059
0.000246737
0.000295518
0.000352506
0.000416737
0.00049382
0.000580225
0.000679374
0.000786525
0.000897401
0.00100891
0.00111711
0.00122187
0.0013208
0.00141565
0.00150458
0.00158989
0.00166867
0.00174308
0.00180844
0.00186833
0.00191774
0.00195932
0.00199109
0.00201387
0.00202783
0.00203544
0.00203407
0.00202868
0.00201692
0.00199922
0.00197938
0.00195543
0.00192964
0.00190052
0.00187249
0.00183807
0.00181141
0.00177016
0.00174654
0.00169968
0.00167562
0.00162749
0.0015991
0.00155945
0.00146626
0.000106135
0.00011422
0.000130612
0.000163463
0.000201056
0.000246724
0.000295515
0.000352502
0.000416737
0.000493814
0.000580231
0.000679321
0.000786518
0.000897451
0.00100893
0.00111708
0.00122184
0.00132075
0.00141565
0.00150458
0.0015899
0.00166868
0.00174308
0.0018084
0.00186831
0.00191768
0.00195925
0.00199097
0.00201398
0.00202803
0.00203533
0.00203401
0.00202849
0.0020173
0.00199966
0.00197903
0.00195505
0.00192991
0.00190082
0.00187291
0.00183835
0.001811
0.00177027
0.00174673
0.00169928
0.0016763
0.00162691
0.00159966
0.00155625
0.00146986
0.000210557
0.000379185
0.00050948
0.000766668
0.00105333
0.00145435
0.00188381
0.00236094
0.00283145
0.00327672
0.00366445
0.00398776
0.00425118
0.00447702
0.00467967
0.00486952
0.00504377
0.00520204
0.00533278
0.00544053
0.00550927
0.00555773
0.00555966
0.00554806
0.00551822
0.00546449
0.00539613
0.00531882
0.00523062
0.00513975
0.00504018
0.00494124
0.00483511
0.00473082
0.00462164
0.00451427
0.00441071
0.00430572
0.0042077
0.00410547
0.00401246
0.00391358
0.00382366
0.00372884
0.00364439
0.00355019
0.00347039
0.00336889
0.00328082
0.00299891
0.000210561
0.000379303
0.000509465
0.000767111
0.00105335
0.00145438
0.00188387
0.0023609
0.00283145
0.00327672
0.00366453
0.00398772
0.00425098
0.00447712
0.00467972
0.00486967
0.00504387
0.00520206
0.00533276
0.00544051
0.00550925
0.00555774
0.00555967
0.00554803
0.00551836
0.00546437
0.00539595
0.00531839
0.00523033
0.00513942
0.00503971
0.00494071
0.00483434
0.00473004
0.00462201
0.00451486
0.00441142
0.00430643
0.00420825
0.00410595
0.00401182
0.00391292
0.00382431
0.00372821
0.00364478
0.00354959
0.00347086
0.00336839
0.00328197
0.00299818
0.000210574
0.000379203
0.000509446
0.000766721
0.00105328
0.00145436
0.0018839
0.00236087
0.0028314
0.00327674
0.00366459
0.00398779
0.004251
0.00447692
0.00467965
0.00486954
0.00504389
0.0052021
0.00533279
0.0054405
0.00550924
0.00555769
0.00555966
0.00554807
0.00551832
0.00546457
0.0053961
0.00531864
0.00523056
0.00513975
0.00503999
0.00494105
0.00483506
0.00472955
0.00462111
0.00451404
0.00441026
0.00430626
0.00420817
0.00410589
0.00401263
0.00391223
0.00382363
0.00372747
0.00364376
0.00355002
0.00347021
0.00336773
0.00328065
0.00299895
0.000210561
0.000379311
0.000509503
0.000767073
0.00105335
0.00145434
0.00188387
0.00236087
0.00283142
0.00327672
0.00366458
0.00398784
0.00425108
0.00447694
0.00467959
0.00486955
0.0050439
0.00520218
0.00533283
0.00544053
0.00550926
0.00555767
0.00555967
0.00554799
0.00551834
0.00546442
0.00539599
0.00531859
0.00523025
0.00513925
0.00503996
0.00494105
0.00483517
0.00473017
0.00462149
0.00451459
0.0044101
0.0043054
0.00420729
0.00410479
0.00401233
0.00391314
0.00382415
0.00372828
0.00364371
0.00354921
0.00347056
0.00336849
0.00327997
0.00299809
0.000210557
0.000379182
0.000509504
0.000766926
0.00105334
0.00145432
0.0018839
0.0023609
0.00283145
0.00327668
0.00366443
0.00398784
0.00425115
0.00447698
0.00467962
0.00486949
0.00504377
0.00520213
0.00533284
0.00544054
0.00550928
0.00555768
0.00555965
0.00554797
0.0055183
0.0054643
0.00539615
0.00531838
0.00523044
0.00513963
0.00503959
0.00494045
0.00483443
0.0047296
0.0046215
0.00451474
0.00441089
0.004306
0.00420783
0.00410548
0.0040117
0.00391239
0.00382417
0.00372857
0.00364446
0.00354978
0.00347099
0.00336792
0.00328157
0.00299737
0.00477391
0.00494891
0.00506998
0.00515168
0.00518888
0.0052141
0.00524897
0.00532015
0.00542303
0.0055542
0.00570107
0.00585502
0.00599819
0.00613279
0.00625527
0.00636468
0.00646315
0.00655071
0.00663197
0.006707
0.00677635
0.00683774
0.00688905
0.00693361
0.00696441
0.00698709
0.00699331
0.00698912
0.00697722
0.00695344
0.00691791
0.00687731
0.00682574
0.00677264
0.00670953
0.00664515
0.006575
0.00650327
0.00642902
0.00635198
0.00627421
0.00619582
0.00611388
0.00603884
0.00595769
0.00588277
0.00580261
0.00573623
0.00566957
0.00569719
0.00477391
0.00494892
0.00506998
0.0051517
0.00518887
0.00521404
0.00524895
0.00532018
0.0054231
0.0055542
0.00570085
0.00585477
0.00599847
0.00613308
0.00625538
0.0063647
0.00646313
0.00655069
0.00663195
0.00670697
0.00677652
0.00683772
0.00688894
0.00693352
0.00696441
0.00698707
0.00699321
0.00698892
0.00697697
0.00695304
0.00691786
0.00687739
0.00682571
0.00677253
0.00671076
0.00664664
0.00657702
0.00650543
0.00643066
0.0063545
0.00627568
0.00619873
0.00611633
0.0060376
0.00595528
0.00587975
0.00579942
0.0057333
0.00566773
0.00569593
0.00477391
0.00494891
0.00506996
0.00515171
0.0051889
0.00521399
0.00524888
0.00532016
0.00542305
0.00555452
0.00570078
0.00585441
0.00599832
0.00613305
0.00625552
0.00636483
0.00646312
0.00655059
0.00663199
0.00670692
0.00677657
0.00683799
0.00688906
0.00693349
0.00696441
0.00698706
0.00699328
0.00698908
0.00697723
0.0069535
0.00691824
0.00687767
0.0068269
0.00677259
0.00671049
0.0066453
0.00657536
0.00650396
0.00642771
0.00635307
0.00627519
0.00619788
0.00611764
0.0060404
0.00595814
0.00588278
0.00580216
0.00573576
0.00566904
0.0056964
0.00477391
0.00494891
0.00506995
0.0051517
0.00518897
0.00521407
0.00524888
0.00532011
0.00542301
0.0055545
0.0057011
0.00585429
0.00599805
0.00613291
0.00625548
0.0063648
0.00646314
0.00655059
0.00663194
0.0067069
0.00677646
0.00683804
0.00688922
0.00693358
0.00696443
0.00698693
0.00699318
0.0069889
0.00697694
0.00695281
0.00691822
0.00687703
0.0068262
0.00677143
0.00670979
0.00664682
0.00657519
0.00650585
0.00642918
0.0063518
0.00627288
0.00619425
0.00611429
0.00603697
0.00595497
0.00588012
0.00579977
0.00573391
0.00566843
0.00569655
0.00477391
0.00494893
0.00506998
0.00515166
0.00518892
0.00521413
0.00524896
0.00532013
0.00542292
0.00555429
0.0057013
0.00585478
0.00599792
0.00613278
0.0062554
0.00636472
0.00646317
0.00655075
0.00663183
0.00670692
0.00677629
0.0068379
0.00688918
0.00693364
0.00696446
0.00698717
0.00699313
0.00698884
0.00697686
0.00695324
0.00691808
0.00687777
0.00682629
0.00677343
0.00670948
0.00664627
0.0065763
0.00650542
0.00643091
0.00635424
0.00627595
0.00619752
0.0061164
0.0060401
0.00595643
0.00588025
0.00579968
0.00573303
0.00566713
0.00569524
)
;

boundaryField
{
    inlet
    {
        type            turbulentMixingLengthDissipationRateInlet;
        mixingLength    0.5;
        phi             phi;
        k               k;
        value           nonuniform List<scalar> 
25
(
7.7439e-05
7.7439e-05
7.7439e-05
7.7439e-05
7.7439e-05
8.64044e-05
8.64044e-05
8.64044e-05
8.64044e-05
8.64044e-05
0.000105523
0.000105523
0.000105523
0.000105523
0.000105523
0.000136504
0.000136504
0.000136504
0.000136504
0.000136504
0.000181748
0.000181748
0.000181748
0.000181748
0.000181748
)
;
    }
    outlet
    {
        type            inletOutlet;
        inletValue      uniform 1;
        value           nonuniform List<scalar> 
25
(
0.00138547
0.00137362
0.00135964
0.00136801
0.00138435
0.000967532
0.000964216
0.000944698
0.000967224
0.000953078
0.00146576
0.00147069
0.00146415
0.00146626
0.00146986
0.00299891
0.00299818
0.00299895
0.00299809
0.00299737
0.00569719
0.00569593
0.0056964
0.00569655
0.00569524
)
;
    }
    side1
    {
        type            cyclicAMI;
        value           nonuniform List<scalar> 
250
(
8.76329e-05
8.64468e-05
0.000106135
0.000210557
0.00477391
0.000102049
8.73863e-05
0.00011422
0.000379183
0.00494892
0.000123018
9.07773e-05
0.000130613
0.000509492
0.00506998
0.000137429
9.76228e-05
0.00016346
0.000766797
0.00515167
0.000152881
0.000105731
0.000201058
0.00105334
0.0051889
0.00015954
0.000112349
0.000246714
0.00145434
0.00521412
0.000171951
0.000119808
0.000295512
0.00188386
0.00524897
0.000193512
0.000129838
0.000352493
0.00236092
0.00532014
0.000228925
0.000141852
0.00041674
0.00283145
0.00542298
0.000272069
0.000155013
0.000493793
0.0032767
0.00555424
0.000322009
0.000168382
0.000580228
0.00366444
0.00570118
0.000368015
0.000182311
0.00067934
0.0039878
0.0058549
0.000408226
0.000198183
0.000786521
0.00425116
0.00599806
0.000434893
0.000214853
0.00089743
0.004477
0.00613278
0.000450447
0.000233356
0.00100893
0.00467965
0.00625534
0.000453736
0.000252061
0.00111708
0.0048695
0.0063647
0.000454545
0.0002735
0.00122184
0.00504377
0.00646316
0.000457732
0.000295275
0.00132075
0.00520208
0.00655073
0.000465792
0.000319972
0.00141564
0.00533281
0.0066319
0.000480567
0.000344201
0.00150457
0.00544053
0.00670696
0.000502896
0.000370715
0.0015899
0.00550927
0.00677632
0.000527009
0.000396005
0.00166869
0.00555771
0.00683782
0.000554857
0.000423596
0.00174309
0.00555965
0.00688911
0.000580122
0.00044972
0.00180842
0.00554802
0.00693362
0.000605601
0.000478363
0.00186832
0.00551826
0.00696444
0.000625901
0.000505105
0.00191773
0.0054644
0.00698713
0.000645076
0.000534174
0.00195931
0.00539614
0.00699322
0.000658918
0.000560447
0.00199106
0.0053186
0.00698898
0.000672207
0.0005886
0.00201399
0.00523053
0.00697704
0.000681126
0.000612785
0.00202805
0.00513969
0.00695334
0.000689868
0.000638351
0.00203528
0.00503989
0.00691799
0.000695228
0.000659476
0.00203393
0.00494084
0.00687754
0.000700531
0.000680954
0.00202837
0.00483477
0.00682602
0.000703408
0.000698193
0.00201722
0.00473021
0.00677304
0.000705634
0.000715295
0.0019997
0.00462157
0.0067095
0.000705837
0.000727902
0.00197924
0.00451451
0.00664571
0.000705778
0.000740606
0.00195541
0.0044108
0.00657565
0.000704612
0.000749049
0.00192988
0.00430586
0.00650435
0.000702092
0.000757519
0.00190073
0.00420776
0.00642996
0.000699159
0.000762204
0.00187288
0.00410548
0.00635311
0.000694415
0.000766604
0.00183835
0.00401208
0.00627508
0.000686654
0.000768768
0.00181098
0.00391299
0.00619667
0.00067749
0.00076843
0.00177025
0.00382392
0.00611514
0.000669393
0.000766578
0.00174651
0.00372871
0.00603947
0.00066964
0.000761977
0.00169925
0.00364443
0.00595706
0.000676558
0.00076257
0.00167611
0.00354998
0.00588151
0.000736046
0.000764883
0.00162752
0.00347069
0.00580115
0.000883994
0.000798133
0.00159948
0.0033684
0.00573463
0.00114148
0.000839861
0.00155746
0.0032812
0.00566835
0.00138491
0.000960305
0.00146781
0.00299814
0.00569621
)
;
    }
    side2
    {
        type            cyclicAMI;
        value           nonuniform List<scalar> 
250
(
8.76329e-05
8.64468e-05
0.000106135
0.000210557
0.00477391
0.000102049
8.73863e-05
0.00011422
0.000379183
0.00494892
0.000123018
9.07773e-05
0.000130613
0.000509492
0.00506998
0.000137429
9.76228e-05
0.00016346
0.000766797
0.00515167
0.000152881
0.000105731
0.000201058
0.00105334
0.0051889
0.00015954
0.000112349
0.000246714
0.00145434
0.00521412
0.000171951
0.000119808
0.000295512
0.00188386
0.00524897
0.000193512
0.000129838
0.000352493
0.00236092
0.00532014
0.000228925
0.000141852
0.00041674
0.00283145
0.00542298
0.000272069
0.000155013
0.000493793
0.0032767
0.00555424
0.000322009
0.000168382
0.000580228
0.00366444
0.00570118
0.000368015
0.000182311
0.00067934
0.0039878
0.0058549
0.000408226
0.000198183
0.000786521
0.00425116
0.00599806
0.000434893
0.000214853
0.00089743
0.004477
0.00613278
0.000450447
0.000233356
0.00100893
0.00467965
0.00625534
0.000453736
0.000252061
0.00111708
0.0048695
0.0063647
0.000454545
0.0002735
0.00122184
0.00504377
0.00646316
0.000457732
0.000295275
0.00132075
0.00520208
0.00655073
0.000465792
0.000319972
0.00141564
0.00533281
0.0066319
0.000480567
0.000344201
0.00150457
0.00544053
0.00670696
0.000502896
0.000370715
0.0015899
0.00550927
0.00677632
0.000527009
0.000396005
0.00166869
0.00555771
0.00683782
0.000554857
0.000423596
0.00174309
0.00555965
0.00688911
0.000580122
0.00044972
0.00180842
0.00554802
0.00693362
0.000605601
0.000478363
0.00186832
0.00551826
0.00696444
0.000625901
0.000505105
0.00191773
0.0054644
0.00698713
0.000645076
0.000534174
0.00195931
0.00539614
0.00699322
0.000658918
0.000560447
0.00199106
0.0053186
0.00698898
0.000672207
0.0005886
0.00201399
0.00523053
0.00697704
0.000681126
0.000612785
0.00202805
0.00513969
0.00695334
0.000689868
0.000638351
0.00203528
0.00503989
0.00691799
0.000695228
0.000659476
0.00203393
0.00494084
0.00687754
0.000700531
0.000680954
0.00202837
0.00483477
0.00682602
0.000703408
0.000698193
0.00201722
0.00473021
0.00677304
0.000705634
0.000715295
0.0019997
0.00462157
0.0067095
0.000705837
0.000727902
0.00197924
0.00451451
0.00664571
0.000705778
0.000740606
0.00195541
0.0044108
0.00657565
0.000704612
0.000749049
0.00192988
0.00430586
0.00650435
0.000702092
0.000757519
0.00190073
0.00420776
0.00642996
0.000699159
0.000762204
0.00187288
0.00410548
0.00635311
0.000694415
0.000766604
0.00183835
0.00401208
0.00627508
0.000686654
0.000768768
0.00181098
0.00391299
0.00619667
0.00067749
0.00076843
0.00177025
0.00382392
0.00611514
0.000669393
0.000766578
0.00174651
0.00372871
0.00603947
0.00066964
0.000761977
0.00169925
0.00364443
0.00595706
0.000676558
0.00076257
0.00167611
0.00354998
0.00588151
0.000736046
0.000764883
0.00162752
0.00347069
0.00580115
0.000883994
0.000798133
0.00159948
0.0033684
0.00573463
0.00114148
0.000839861
0.00155746
0.0032812
0.00566835
0.00138491
0.000960305
0.00146781
0.00299814
0.00569621
)
;
    }
    walls
    {
        type            epsilonWallFunction;
        value           nonuniform List<scalar> 
250
(
0.00477391
0.00477391
0.00477391
0.00477391
0.00477391
0.00494891
0.00494892
0.00494891
0.00494891
0.00494893
0.00506998
0.00506998
0.00506996
0.00506995
0.00506998
0.00515168
0.0051517
0.00515171
0.0051517
0.00515166
0.00518888
0.00518887
0.0051889
0.00518897
0.00518892
0.0052141
0.00521404
0.00521399
0.00521407
0.00521413
0.00524897
0.00524895
0.00524888
0.00524888
0.00524896
0.00532015
0.00532018
0.00532016
0.00532011
0.00532013
0.00542303
0.0054231
0.00542305
0.00542301
0.00542292
0.0055542
0.0055542
0.00555452
0.0055545
0.00555429
0.00570107
0.00570085
0.00570078
0.0057011
0.0057013
0.00585502
0.00585477
0.00585441
0.00585429
0.00585478
0.00599819
0.00599847
0.00599832
0.00599805
0.00599792
0.00613279
0.00613308
0.00613305
0.00613291
0.00613278
0.00625527
0.00625538
0.00625552
0.00625548
0.0062554
0.00636468
0.0063647
0.00636483
0.0063648
0.00636472
0.00646315
0.00646313
0.00646312
0.00646314
0.00646317
0.00655071
0.00655069
0.00655059
0.00655059
0.00655075
0.00663197
0.00663195
0.00663199
0.00663194
0.00663183
0.006707
0.00670697
0.00670692
0.0067069
0.00670692
0.00677635
0.00677652
0.00677657
0.00677646
0.00677629
0.00683774
0.00683772
0.00683799
0.00683804
0.0068379
0.00688905
0.00688894
0.00688906
0.00688922
0.00688918
0.00693361
0.00693352
0.00693349
0.00693358
0.00693364
0.00696441
0.00696441
0.00696441
0.00696443
0.00696446
0.00698709
0.00698707
0.00698706
0.00698693
0.00698717
0.00699331
0.00699321
0.00699328
0.00699318
0.00699313
0.00698912
0.00698892
0.00698908
0.0069889
0.00698884
0.00697722
0.00697697
0.00697723
0.00697694
0.00697686
0.00695344
0.00695304
0.0069535
0.00695281
0.00695324
0.00691791
0.00691786
0.00691824
0.00691822
0.00691808
0.00687731
0.00687739
0.00687767
0.00687703
0.00687777
0.00682574
0.00682571
0.0068269
0.0068262
0.00682629
0.00677264
0.00677253
0.00677259
0.00677143
0.00677343
0.00670953
0.00671076
0.00671049
0.00670979
0.00670948
0.00664515
0.00664664
0.0066453
0.00664682
0.00664627
0.006575
0.00657702
0.00657536
0.00657519
0.0065763
0.00650327
0.00650543
0.00650396
0.00650585
0.00650542
0.00642902
0.00643066
0.00642771
0.00642918
0.00643091
0.00635198
0.0063545
0.00635307
0.0063518
0.00635424
0.00627421
0.00627568
0.00627519
0.00627288
0.00627595
0.00619582
0.00619873
0.00619788
0.00619425
0.00619752
0.00611388
0.00611633
0.00611764
0.00611429
0.0061164
0.00603884
0.0060376
0.0060404
0.00603697
0.0060401
0.00595769
0.00595528
0.00595814
0.00595497
0.00595643
0.00588277
0.00587975
0.00588278
0.00588012
0.00588025
0.00580261
0.00579942
0.00580216
0.00579977
0.00579968
0.00573623
0.0057333
0.00573576
0.00573391
0.00573303
0.00566957
0.00566773
0.00566904
0.00566843
0.00566713
0.00569719
0.00569593
0.0056964
0.00569655
0.00569524
)
;
    }
}


// ************************************************************************* //
