/*--------------------------------*- C++ -*----------------------------------*\
  =========                 |
  \\      /  F ield         | OpenFOAM: The Open Source CFD Toolbox
   \\    /   O peration     | Website:  https://openfoam.org
    \\  /    A nd           | Version:  8
     \\/     M anipulation  |
\*---------------------------------------------------------------------------*/
FoamFile
{
    version     2.0;
    format      ascii;
    class       volScalarField;
    location    "0.25";
    object      p;
}
// * * * * * * * * * * * * * * * * * * * * * * * * * * * * * * * * * * * * * //

dimensions      [0 2 -2 0 0 0 0];

internalField   nonuniform List<scalar> 
111804
(
1.15521
1.14572
1.13741
1.1292
1.121
1.11271
1.1043
1.09577
1.08713
1.07838
1.06951
1.06054
1.05147
1.0423
1.03304
1.0237
1.01427
1.00476
0.995184
0.985534
0.975816
0.966038
0.956198
0.946301
0.936347
0.926346
0.916293
0.906191
0.896048
0.885861
0.875637
0.865373
0.855072
0.844739
0.834371
0.823973
0.813546
0.803088
0.792606
0.7821
0.771571
0.761018
0.750442
0.739845
0.729229
0.718595
0.707944
0.697276
0.686589
0.675888
0.665172
0.654443
0.643699
0.632944
0.622176
0.611395
0.600603
0.589801
0.578986
0.568162
0.55733
0.546486
0.535632
0.524769
0.513898
0.503018
0.492128
0.481232
0.470327
0.459413
0.448492
0.437562
0.426624
0.415677
0.404722
0.393761
0.382789
0.371812
0.360826
0.349832
0.338828
0.327817
0.316798
0.305773
0.294735
0.283688
0.272637
0.261573
0.2505
0.239418
0.228326
0.217228
0.206117
0.194996
0.183865
0.172726
0.161575
0.150411
0.139238
0.128053
0.116857
0.105649
0.0944299
0.0831975
0.0719538
0.0606992
0.0494296
0.0381469
0.0268516
0.0155451
0.00422184
-0.0071147
-0.0184649
-0.0298305
-0.0412062
-0.0526023
-0.0640117
-0.0754332
-0.0868717
-0.0983259
-0.109798
-0.121283
-0.132784
-0.144301
-0.155837
-0.167387
-0.178955
-0.190539
-0.20214
-0.213759
-0.225392
-0.237045
-0.248713
-0.260398
-0.272103
-0.283824
-0.295562
-0.307317
-0.31909
-0.330881
-0.342685
-0.354509
-0.36635
-0.378205
-0.39008
-0.401969
-0.413874
-0.425795
-0.437733
-0.449684
-0.46165
-0.473632
-0.485628
-0.497634
-0.509653
-0.521686
-0.53373
-0.545786
-0.557851
-0.569925
-0.582005
-0.594095
-0.606191
-0.618296
-0.630402
-0.642512
-0.654625
-0.666734
-0.678846
-0.690954
-0.703056
-0.715155
-0.727245
-0.739329
-0.751398
-0.76345
-0.775491
-0.78751
-0.79951
-0.811483
-0.823434
-0.835353
-0.847238
-0.859088
-0.870901
-0.882669
-0.894385
-0.906054
-0.917665
-0.929218
-0.940705
-0.952119
-0.963466
-0.974746
-0.985961
-0.997104
-1.00823
-1.01947
-1.03097
-1.04419
1.15926
1.15085
1.14244
1.13409
1.12587
1.11765
1.10932
1.10087
1.09231
1.08364
1.07484
1.06594
1.05694
1.04783
1.03862
1.02933
1.01995
1.01048
1.00094
0.991324
0.981638
0.97188
0.962062
0.952181
0.942242
0.932247
0.9222
0.912098
0.901952
0.891762
0.881525
0.871249
0.860931
0.850579
0.840189
0.829764
0.819307
0.808819
0.798301
0.787756
0.777184
0.766589
0.755968
0.745322
0.734653
0.723966
0.713259
0.702532
0.691785
0.68102
0.670238
0.659442
0.648629
0.637802
0.626958
0.616102
0.605232
0.59435
0.583454
0.572548
0.561628
0.550698
0.539756
0.528804
0.517842
0.506867
0.495885
0.484893
0.47389
0.462877
0.451856
0.440824
0.429784
0.418734
0.407676
0.396607
0.38553
0.374445
0.36335
0.352245
0.341132
0.330009
0.318878
0.307737
0.296586
0.285425
0.274256
0.263077
0.251887
0.240688
0.229479
0.21826
0.207031
0.19579
0.184539
0.173278
0.162005
0.150722
0.139425
0.128121
0.1168
0.105472
0.0941276
0.0827739
0.0714071
0.0600279
0.0486359
0.0372295
0.0258115
0.0143798
0.0029345
-0.00852497
-0.0199984
-0.0314861
-0.0429863
-0.0545036
-0.0660344
-0.0775795
-0.0891392
-0.100715
-0.112306
-0.123913
-0.135534
-0.14717
-0.158824
-0.170493
-0.182178
-0.193879
-0.205596
-0.21733
-0.229078
-0.240845
-0.252626
-0.264424
-0.276237
-0.288069
-0.299916
-0.311778
-0.323658
-0.335552
-0.347463
-0.359389
-0.371331
-0.383287
-0.395259
-0.407244
-0.419246
-0.43126
-0.443289
-0.455329
-0.467385
-0.479452
-0.491531
-0.50362
-0.515719
-0.527829
-0.53995
-0.55208
-0.564215
-0.576355
-0.588504
-0.600657
-0.612815
-0.624975
-0.637137
-0.649299
-0.66146
-0.673615
-0.685769
-0.697915
-0.710057
-0.722184
-0.734303
-0.746413
-0.758502
-0.770573
-0.782626
-0.794654
-0.806657
-0.818636
-0.830578
-0.842492
-0.854366
-0.866198
-0.877989
-0.889726
-0.901413
-0.913048
-0.924616
-0.93612
-0.947555
-0.958918
-0.970211
-0.981429
-0.992589
-1.00371
-1.01491
-1.02641
-1.03812
-1.04995
1.16322
1.15564
1.14744
1.13906
1.13079
1.12258
1.11433
1.10597
1.09748
1.08889
1.08017
1.07134
1.0624
1.05335
1.04421
1.03497
1.02563
1.01621
1.00671
0.997131
0.987472
0.977746
0.967947
0.958086
0.94816
0.93818
0.928139
0.918042
0.907896
0.8977
0.887457
0.87717
0.86684
0.856469
0.846057
0.83561
0.825126
0.814608
0.804057
0.793475
0.782865
0.772227
0.761563
0.750869
0.740152
0.72941
0.718647
0.707862
0.697057
0.686229
0.675384
0.664518
0.653637
0.642737
0.631822
0.620891
0.609943
0.59898
0.588004
0.577013
0.56601
0.554992
0.543962
0.532919
0.521864
0.510797
0.499719
0.488629
0.477529
0.466416
0.455293
0.444161
0.433016
0.421861
0.410696
0.399521
0.388335
0.377139
0.365934
0.354718
0.343492
0.332254
0.321009
0.309752
0.298486
0.287206
0.27592
0.264623
0.253313
0.241995
0.230663
0.219324
0.207972
0.196609
0.185236
0.173851
0.162454
0.151047
0.139626
0.128196
0.11675
0.105296
0.0938272
0.0823473
0.0708538
0.0593489
0.0478307
0.0362994
0.0247538
0.0131974
0.00162383
-0.00995964
-0.0215601
-0.0331725
-0.0447979
-0.0564414
-0.0680961
-0.0797666
-0.091449
-0.10315
-0.114864
-0.126593
-0.138336
-0.150095
-0.16187
-0.173658
-0.185463
-0.197283
-0.209119
-0.220967
-0.232833
-0.244715
-0.25661
-0.268522
-0.280449
-0.292391
-0.304348
-0.31632
-0.328306
-0.340308
-0.352323
-0.364352
-0.376395
-0.388453
-0.400524
-0.412606
-0.424701
-0.436811
-0.448929
-0.461062
-0.473204
-0.485358
-0.497518
-0.50969
-0.521868
-0.534057
-0.546252
-0.558454
-0.570657
-0.582865
-0.595078
-0.607294
-0.619511
-0.631726
-0.643941
-0.656152
-0.66836
-0.68056
-0.692753
-0.704936
-0.717109
-0.729269
-0.741414
-0.753545
-0.765654
-0.777737
-0.789802
-0.801836
-0.813846
-0.825818
-0.83776
-0.849659
-0.861519
-0.87333
-0.885097
-0.896807
-0.90846
-0.920053
-0.931581
-0.943035
-0.954422
-0.965729
-0.976968
-0.988135
-0.999242
-1.01039
-1.02175
-1.03335
-1.04485
-1.05562
1.16683
1.16009
1.15232
1.14405
1.13574
1.12753
1.11933
1.11104
1.10264
1.09412
1.08548
1.07673
1.06785
1.05888
1.04979
1.04061
1.03133
1.02195
1.01249
1.00295
0.993331
0.983631
0.97386
0.964021
0.954116
0.944148
0.934117
0.924027
0.913884
0.903686
0.893438
0.883144
0.872803
0.862414
0.851986
0.841519
0.831009
0.820464
0.809883
0.799267
0.788619
0.777941
0.767231
0.756495
0.745728
0.734935
0.724118
0.713279
0.702413
0.691524
0.680614
0.669684
0.658732
0.647762
0.636775
0.625767
0.614741
0.603701
0.592642
0.581568
0.570479
0.559373
0.548254
0.537121
0.525972
0.514811
0.503635
0.492449
0.481248
0.470036
0.45881
0.447573
0.436324
0.425062
0.413788
0.402506
0.391209
0.379901
0.368583
0.357252
0.345912
0.334558
0.323197
0.31182
0.300435
0.289037
0.27763
0.26621
0.25478
0.243337
0.231883
0.22042
0.208943
0.197455
0.185955
0.174444
0.162921
0.151386
0.139838
0.128279
0.116706
0.105123
0.093526
0.081917
0.0702948
0.0586605
0.0470124
0.035352
0.0236777
0.0119917
0.000290335
-0.0114243
-0.0231516
-0.0348933
-0.0466477
-0.0584176
-0.0702001
-0.0819989
-0.0938085
-0.105635
-0.117474
-0.12933
-0.141197
-0.15308
-0.164979
-0.176889
-0.188816
-0.200758
-0.212713
-0.224682
-0.236667
-0.248664
-0.260677
-0.272703
-0.284745
-0.296799
-0.308869
-0.32095
-0.333045
-0.345154
-0.357274
-0.369408
-0.381555
-0.393711
-0.405882
-0.418064
-0.430252
-0.442454
-0.454667
-0.466889
-0.479119
-0.491357
-0.503604
-0.515853
-0.528111
-0.540376
-0.552646
-0.564916
-0.57719
-0.589464
-0.60174
-0.614017
-0.62629
-0.638559
-0.650826
-0.663083
-0.675334
-0.687579
-0.69981
-0.712026
-0.724232
-0.73642
-0.748588
-0.760738
-0.772863
-0.784961
-0.79703
-0.809069
-0.821076
-0.833048
-0.844976
-0.856863
-0.868703
-0.880495
-0.89223
-0.903908
-0.915526
-0.927075
-0.938556
-0.949963
-0.961291
-0.972545
-0.983728
-0.994848
-1.00596
-1.01718
-1.02865
-1.04017
-1.05115
-1.06083
1.17076
1.16429
1.15699
1.14899
1.14073
1.13249
1.12431
1.11609
1.10776
1.09933
1.09077
1.08209
1.0733
1.06439
1.05537
1.04624
1.03702
1.0277
1.01829
1.00879
0.999203
0.98954
0.9798
0.969987
0.960104
0.95015
0.940134
0.930055
0.919918
0.909723
0.899474
0.889174
0.878822
0.868424
0.85798
0.847493
0.836962
0.82639
0.81578
0.805133
0.794451
0.783733
0.772981
0.762202
0.751389
0.740546
0.729676
0.718779
0.707856
0.696909
0.685934
0.674939
0.663919
0.652878
0.641817
0.630734
0.619631
0.60851
0.59737
0.586211
0.575037
0.563845
0.552635
0.541408
0.530167
0.518911
0.507638
0.496351
0.485051
0.473736
0.462407
0.451063
0.439708
0.428337
0.416955
0.405559
0.394151
0.38273
0.371296
0.35985
0.348393
0.33692
0.325438
0.313943
0.302437
0.290916
0.279386
0.267842
0.256287
0.244719
0.233139
0.221547
0.209944
0.198327
0.186699
0.175058
0.163405
0.151739
0.140061
0.128371
0.116668
0.104952
0.0932239
0.0814822
0.0697286
0.0579613
0.046182
0.0343882
0.0225822
0.0107633
-0.00106963
-0.0129162
-0.0247749
-0.0366485
-0.0485341
-0.0604355
-0.0723482
-0.0842755
-0.0962159
-0.108172
-0.12014
-0.132122
-0.144118
-0.156128
-0.168151
-0.180188
-0.192238
-0.204304
-0.21638
-0.228472
-0.240577
-0.252694
-0.264824
-0.276968
-0.289126
-0.301294
-0.313475
-0.325669
-0.337875
-0.350091
-0.362318
-0.374558
-0.386807
-0.399067
-0.411337
-0.423616
-0.435903
-0.4482
-0.460505
-0.472814
-0.485134
-0.497455
-0.509784
-0.522117
-0.534453
-0.546793
-0.559135
-0.571474
-0.583817
-0.596158
-0.608494
-0.620828
-0.633157
-0.645481
-0.657795
-0.670099
-0.682393
-0.694674
-0.706942
-0.719192
-0.731424
-0.743637
-0.755826
-0.767991
-0.780128
-0.792238
-0.804312
-0.81635
-0.828352
-0.840313
-0.852228
-0.864099
-0.875916
-0.88768
-0.899383
-0.911025
-0.922599
-0.934103
-0.945532
-0.956884
-0.968157
-0.979356
-0.990489
-1.00158
-1.01272
-1.02404
-1.03551
-1.04675
-1.05715
-1.06653
1.17482
1.16837
1.16142
1.15378
1.14569
1.13748
1.1293
1.12112
1.11286
1.10451
1.09603
1.08743
1.07871
1.06988
1.06093
1.05187
1.04271
1.03344
1.02408
1.01463
1.00509
0.995465
0.985759
0.975976
0.966118
0.956186
0.946187
0.936122
0.925996
0.915808
0.90556
0.895257
0.884901
0.874493
0.864036
0.853532
0.842982
0.832386
0.82175
0.811072
0.800358
0.789604
0.778812
0.767989
0.757131
0.74624
0.735319
0.724366
0.713386
0.70238
0.691345
0.680284
0.669196
0.658084
0.646949
0.635793
0.624612
0.61341
0.60219
0.590946
0.579685
0.568403
0.557103
0.545785
0.534449
0.523096
0.511726
0.500339
0.488936
0.477518
0.466083
0.454632
0.443168
0.43169
0.420194
0.408687
0.397162
0.385627
0.374076
0.362512
0.350934
0.339343
0.327738
0.316121
0.30449
0.292844
0.281189
0.269517
0.257835
0.246138
0.23443
0.222707
0.210974
0.199225
0.187466
0.175692
0.163907
0.152109
0.140296
0.128472
0.116634
0.104785
0.0929202
0.0810449
0.0691557
0.0572528
0.0453385
0.0334087
0.0214683
0.00951257
-0.00245467
-0.0144365
-0.0264299
-0.0384387
-0.0504574
-0.0624928
-0.0745401
-0.0865998
-0.0986731
-0.11076
-0.12286
-0.134972
-0.147099
-0.159236
-0.17139
-0.183552
-0.195732
-0.20792
-0.220122
-0.232338
-0.244566
-0.256803
-0.269054
-0.281317
-0.293591
-0.305875
-0.318171
-0.330477
-0.342795
-0.355122
-0.367457
-0.379804
-0.392156
-0.404519
-0.41689
-0.429267
-0.441651
-0.454043
-0.46644
-0.478841
-0.491246
-0.503652
-0.516063
-0.528478
-0.540891
-0.553306
-0.565719
-0.578128
-0.590538
-0.602942
-0.615338
-0.627729
-0.640111
-0.652486
-0.664848
-0.677196
-0.689529
-0.701848
-0.714148
-0.726428
-0.738687
-0.750919
-0.763124
-0.775303
-0.787449
-0.799564
-0.811638
-0.823673
-0.835666
-0.847616
-0.859516
-0.87136
-0.88315
-0.894883
-0.90655
-0.918148
-0.929679
-0.94113
-0.952507
-0.963802
-0.975021
-0.986162
-0.997259
-1.00836
-1.01956
-1.03091
-1.04222
-1.05303
-1.06304
-1.07246
1.17886
1.17238
1.16568
1.1584
1.15057
1.14245
1.13429
1.12614
1.11794
1.10966
1.10127
1.09275
1.08412
1.07536
1.06648
1.05749
1.04839
1.03919
1.02989
1.02049
1.01099
1.00141
0.991739
0.981991
0.972161
0.962255
0.952278
0.94223
0.932116
0.921936
0.911693
0.901394
0.891034
0.88062
0.870153
0.859636
0.849068
0.838451
0.827791
0.817087
0.806338
0.795551
0.784722
0.773858
0.762957
0.752019
0.741046
0.730043
0.719007
0.70794
0.696842
0.685717
0.674564
0.663382
0.652174
0.640944
0.629685
0.618405
0.607101
0.595774
0.584424
0.573055
0.561663
0.550253
0.53882
0.52737
0.515901
0.504413
0.492907
0.481383
0.469841
0.458284
0.446708
0.435118
0.42351
0.411887
0.400247
0.388594
0.376924
0.365239
0.35354
0.341826
0.330096
0.318353
0.306596
0.294824
0.283039
0.271238
0.259425
0.247598
0.235757
0.223902
0.212034
0.200154
0.188256
0.176351
0.164427
0.152493
0.140544
0.128583
0.116607
0.10462
0.0926171
0.0806038
0.0685741
0.0565359
0.0444797
0.0324138
0.0203337
0.00823965
-0.0038658
-0.0159856
-0.0281169
-0.040263
-0.0524203
-0.0645914
-0.0767746
-0.0889706
-0.101181
-0.113402
-0.125635
-0.137881
-0.15014
-0.16241
-0.174694
-0.186988
-0.199295
-0.211611
-0.223942
-0.236281
-0.248633
-0.260995
-0.273368
-0.285751
-0.298143
-0.310545
-0.32296
-0.335378
-0.347809
-0.360245
-0.372692
-0.385145
-0.397605
-0.410069
-0.422542
-0.435017
-0.447499
-0.459985
-0.472473
-0.484964
-0.497457
-0.509951
-0.522444
-0.534935
-0.547428
-0.559916
-0.5724
-0.584877
-0.597352
-0.609816
-0.622274
-0.634719
-0.647154
-0.659577
-0.671984
-0.684373
-0.696745
-0.709097
-0.721428
-0.733732
-0.746013
-0.758265
-0.770485
-0.782672
-0.794824
-0.806939
-0.819012
-0.831037
-0.84302
-0.854952
-0.86683
-0.878649
-0.89041
-0.902102
-0.913729
-0.925283
-0.93676
-0.948161
-0.959478
-0.970717
-0.981878
-0.992979
-1.00405
-1.01518
-1.02642
-1.03771
-1.04874
-1.05913
-1.06887
-1.07842
1.1828
1.17635
1.1698
1.16284
1.15532
1.14738
1.13927
1.13115
1.12301
1.11479
1.10648
1.09805
1.08949
1.08082
1.07202
1.0631
1.05407
1.04493
1.03569
1.02634
1.0169
1.00736
0.997739
0.988026
0.978231
0.968353
0.958401
0.948374
0.938276
0.928109
0.917876
0.907579
0.897222
0.886804
0.87633
0.865801
0.85522
0.844586
0.833903
0.823173
0.812397
0.801577
0.790715
0.779809
0.768867
0.757883
0.746863
0.735807
0.724718
0.713592
0.702432
0.691243
0.680025
0.668774
0.657495
0.64619
0.634856
0.623495
0.612106
0.600697
0.589261
0.577801
0.566318
0.554813
0.543286
0.531737
0.520166
0.508577
0.496966
0.485336
0.473687
0.462019
0.450332
0.438628
0.426905
0.415165
0.403408
0.391634
0.379842
0.368035
0.35621
0.344372
0.332515
0.320644
0.308758
0.296855
0.284939
0.273006
0.261061
0.249098
0.237124
0.225132
0.213128
0.201109
0.189075
0.177029
0.164968
0.152893
0.140804
0.128702
0.116586
0.104457
0.0923138
0.0801576
0.0679877
0.0558057
0.0436092
0.0314001
0.0191783
0.00694254
-0.00530366
-0.0175665
-0.0298379
-0.0421245
-0.0544226
-0.0667345
-0.0790565
-0.091391
-0.10374
-0.116098
-0.128469
-0.140852
-0.153246
-0.165651
-0.178067
-0.190494
-0.202932
-0.21538
-0.227838
-0.240307
-0.252785
-0.265272
-0.277769
-0.290274
-0.302789
-0.315311
-0.327839
-0.340377
-0.35292
-0.36547
-0.378026
-0.390585
-0.403152
-0.415723
-0.428296
-0.440871
-0.45345
-0.46603
-0.478609
-0.49119
-0.503772
-0.516351
-0.528925
-0.541496
-0.554064
-0.566625
-0.579177
-0.591725
-0.604261
-0.616786
-0.629299
-0.641799
-0.654285
-0.666753
-0.679201
-0.69163
-0.704037
-0.716421
-0.728778
-0.741107
-0.753406
-0.765672
-0.777903
-0.790098
-0.80225
-0.814364
-0.826428
-0.838446
-0.850407
-0.862321
-0.87417
-0.885961
-0.897683
-0.90934
-0.92092
-0.932424
-0.943849
-0.955192
-0.96645
-0.977629
-0.98874
-0.999808
-1.01088
-1.02202
-1.03326
-1.04438
-1.05505
-1.06508
-1.0747
-1.08429
1.18662
1.18027
1.17381
1.16711
1.1599
1.15221
1.14423
1.13616
1.12806
1.1199
1.11167
1.10332
1.09485
1.08625
1.07754
1.0687
1.05974
1.05067
1.04149
1.03221
1.02282
1.01333
1.00375
0.994082
0.984325
0.97448
0.964556
0.954554
0.944478
0.934326
0.924105
0.913817
0.903463
0.893046
0.882568
0.87203
0.861438
0.85079
0.840087
0.829335
0.818531
0.807683
0.796786
0.785845
0.774861
0.763835
0.752767
0.741663
0.730518
0.719336
0.708118
0.696868
0.685581
0.674265
0.662912
0.651532
0.640122
0.628681
0.617212
0.605718
0.594194
0.582644
0.571069
0.55947
0.547846
0.536198
0.524527
0.512834
0.501117
0.489379
0.477621
0.465841
0.454041
0.44222
0.430381
0.418522
0.406645
0.394749
0.382832
0.370901
0.358949
0.346983
0.334998
0.322995
0.310978
0.298942
0.286891
0.274824
0.262741
0.250643
0.238529
0.226398
0.214255
0.202094
0.189921
0.177732
0.165528
0.153311
0.141078
0.128832
0.116571
0.104298
0.0920088
0.0797084
0.0673934
0.0550646
0.0427243
0.0303687
0.0180023
0.00562077
-0.00677181
-0.0191769
-0.0315949
-0.0440247
-0.0564664
-0.0689219
-0.0813862
-0.0938642
-0.106353
-0.118851
-0.131364
-0.143884
-0.156418
-0.168961
-0.181512
-0.194075
-0.206646
-0.219228
-0.231818
-0.244417
-0.257024
-0.269638
-0.282262
-0.294891
-0.307528
-0.32017
-0.332818
-0.345472
-0.358131
-0.370794
-0.383462
-0.39613
-0.408803
-0.421478
-0.434154
-0.446829
-0.459509
-0.472181
-0.484855
-0.497524
-0.510192
-0.522854
-0.535511
-0.548158
-0.560802
-0.573434
-0.586057
-0.598667
-0.611266
-0.623848
-0.636419
-0.64897
-0.661503
-0.674014
-0.686502
-0.698969
-0.711408
-0.723819
-0.736201
-0.74855
-0.760864
-0.773144
-0.78538
-0.797577
-0.809728
-0.821836
-0.833889
-0.845889
-0.857835
-0.869716
-0.88154
-0.893291
-0.904978
-0.916588
-0.92812
-0.939572
-0.950936
-0.962218
-0.973421
-0.984543
-0.99561
-1.00666
-1.01774
-1.02888
-1.04001
-1.05087
-1.06118
-1.07094
-1.0805
-1.09005
1.19032
1.18411
1.17776
1.17123
1.16433
1.15692
1.14913
1.14114
1.1331
1.125
1.11683
1.10856
1.10018
1.09167
1.08304
1.07428
1.0654
1.0564
1.04729
1.03807
1.02874
1.01931
1.00978
1.00016
0.99044
0.980635
0.970743
0.96077
0.950716
0.940587
0.93038
0.920104
0.909756
0.899343
0.888866
0.878322
0.867721
0.857061
0.846342
0.83557
0.824743
0.813867
0.802939
0.791964
0.780944
0.769873
0.758763
0.747607
0.736412
0.725174
0.7139
0.702587
0.691237
0.679851
0.668429
0.656974
0.645487
0.63397
0.622418
0.610837
0.599228
0.587587
0.57592
0.564224
0.552504
0.540756
0.528982
0.517185
0.505362
0.493514
0.481645
0.469752
0.457836
0.4459
0.433941
0.421963
0.409962
0.39794
0.3859
0.373839
0.361761
0.349662
0.337546
0.325409
0.313257
0.301086
0.288898
0.276692
0.26447
0.252231
0.239976
0.227704
0.215416
0.203113
0.190793
0.178459
0.16611
0.153744
0.141366
0.128972
0.116564
0.10414
0.0917053
0.0792538
0.0667911
0.0543135
0.0418224
0.0293197
0.016803
0.00427333
-0.00826786
-0.0208212
-0.033387
-0.0459649
-0.0585543
-0.0711552
-0.0837658
-0.0963898
-0.109022
-0.121667
-0.13432
-0.146984
-0.159657
-0.172341
-0.185033
-0.197732
-0.210441
-0.223156
-0.235882
-0.248613
-0.26135
-0.274095
-0.286847
-0.299601
-0.312362
-0.325128
-0.337896
-0.350669
-0.363444
-0.376223
-0.389001
-0.401781
-0.414563
-0.427341
-0.440119
-0.452896
-0.465671
-0.478441
-0.491206
-0.503965
-0.516717
-0.529464
-0.542199
-0.554928
-0.567641
-0.580348
-0.593035
-0.605709
-0.618369
-0.631007
-0.64363
-0.65623
-0.668809
-0.681362
-0.693888
-0.70639
-0.718856
-0.731293
-0.743696
-0.756061
-0.768391
-0.780674
-0.792916
-0.805111
-0.817258
-0.829351
-0.84139
-0.853371
-0.865291
-0.877144
-0.88893
-0.900646
-0.912285
-0.923848
-0.935323
-0.94672
-0.958026
-0.969245
-0.980386
-0.991463
-1.00249
-1.01353
-1.0246
-1.03569
-1.04664
-1.05719
-1.06716
-1.07675
-1.08626
-1.0957
1.1939
1.18786
1.18164
1.17526
1.16859
1.16148
1.15392
1.14608
1.13811
1.13008
1.12197
1.11378
1.10548
1.09706
1.08851
1.07984
1.07104
1.06212
1.05308
1.04393
1.03467
1.0253
1.01582
1.00625
0.996578
0.986812
0.976958
0.967017
0.956992
0.946886
0.9367
0.926439
0.916103
0.905697
0.895223
0.884678
0.874069
0.863399
0.85267
0.841879
0.831035
0.82013
0.809175
0.798168
0.78711
0.776002
0.764846
0.753645
0.7424
0.731109
0.719777
0.708403
0.69699
0.685537
0.674049
0.662519
0.650956
0.639359
0.627726
0.61606
0.604363
0.592632
0.580873
0.569083
0.557262
0.545412
0.533537
0.521632
0.509703
0.497745
0.485762
0.473755
0.461723
0.449667
0.437589
0.425486
0.41336
0.401214
0.389045
0.376855
0.364644
0.352412
0.34016
0.32789
0.315599
0.303288
0.290961
0.278612
0.266249
0.253865
0.241465
0.229047
0.216613
0.204162
0.191695
0.179212
0.166712
0.154198
0.141668
0.129122
0.116563
0.103988
0.0913989
0.0787968
0.0661796
0.0535494
0.040907
0.0282499
0.0155812
0.00289969
-0.00979433
-0.0225009
-0.0352163
-0.0479471
-0.060686
-0.0734371
-0.0861988
-0.0989692
-0.111751
-0.124542
-0.137342
-0.150151
-0.162969
-0.175794
-0.188628
-0.20147
-0.214317
-0.227171
-0.240032
-0.252897
-0.265769
-0.278646
-0.291525
-0.30441
-0.317296
-0.330186
-0.343079
-0.355971
-0.368863
-0.381758
-0.394649
-0.40754
-0.420429
-0.433314
-0.446195
-0.459075
-0.471944
-0.484809
-0.497665
-0.510514
-0.523353
-0.536182
-0.548997
-0.561799
-0.574588
-0.587361
-0.600116
-0.612851
-0.625568
-0.638266
-0.650935
-0.663583
-0.676202
-0.688794
-0.701358
-0.713891
-0.726383
-0.738841
-0.751262
-0.763641
-0.775976
-0.788266
-0.800506
-0.812697
-0.824832
-0.836914
-0.848931
-0.860888
-0.872777
-0.884597
-0.896343
-0.908016
-0.919607
-0.931113
-0.942535
-0.953869
-0.965112
-0.976274
-0.987358
-0.998386
-1.00939
-1.02041
-1.03145
-1.04241
-1.05312
-1.06333
-1.07305
-1.08253
-1.09194
-1.10124
1.19736
1.19154
1.18545
1.17919
1.17273
1.16589
1.1586
1.15095
1.14309
1.13513
1.1271
1.11898
1.11076
1.10243
1.09397
1.08538
1.07667
1.06783
1.05887
1.04979
1.04059
1.03129
1.02187
1.01235
1.00273
0.993014
0.9832
0.973296
0.963304
0.953225
0.943063
0.932821
0.922501
0.912105
0.901635
0.891094
0.880484
0.869809
0.859069
0.848266
0.8374
0.826476
0.815494
0.804458
0.793365
0.782218
0.771022
0.759777
0.748482
0.737141
0.725753
0.714322
0.702844
0.691327
0.679769
0.668167
0.656529
0.644851
0.633139
0.621389
0.609602
0.597784
0.585929
0.574043
0.562123
0.550173
0.538192
0.526182
0.514143
0.502074
0.489978
0.477854
0.465704
0.453528
0.441324
0.429098
0.416846
0.40457
0.39227
0.379948
0.367603
0.355234
0.342846
0.330435
0.318005
0.305551
0.29308
0.280589
0.268077
0.255548
0.242999
0.230432
0.217848
0.205245
0.192628
0.17999
0.167338
0.154669
0.141984
0.129284
0.116568
0.103838
0.091093
0.0783333
0.0655608
0.0527727
0.0399747
0.0271602
0.0143356
0.00149719
-0.0113525
-0.0242136
-0.0370871
-0.0499705
-0.0628641
-0.07577
-0.0886829
-0.101607
-0.114539
-0.127482
-0.140432
-0.153389
-0.166354
-0.179326
-0.192305
-0.205288
-0.218279
-0.231274
-0.244272
-0.257276
-0.270283
-0.283294
-0.296305
-0.309318
-0.322334
-0.335349
-0.348365
-0.361379
-0.374392
-0.3874
-0.400408
-0.41341
-0.426406
-0.439399
-0.452383
-0.465363
-0.478331
-0.491289
-0.504239
-0.517176
-0.530099
-0.543008
-0.555903
-0.568779
-0.581639
-0.594481
-0.607301
-0.620097
-0.63287
-0.645617
-0.658338
-0.671029
-0.683689
-0.696316
-0.70891
-0.721468
-0.733987
-0.746464
-0.758898
-0.771286
-0.783627
-0.795916
-0.808152
-0.820333
-0.832455
-0.844515
-0.856509
-0.868436
-0.880294
-0.892073
-0.903778
-0.915398
-0.926938
-0.938387
-0.949748
-0.961016
-0.972199
-0.983298
-0.994335
-1.00532
-1.0163
-1.02728
-1.03823
-1.04902
-1.05942
-1.06934
-1.07887
-1.08827
-1.09757
-1.10665
1.20069
1.1951
1.18918
1.18305
1.17675
1.17015
1.16314
1.15571
1.14801
1.14015
1.13219
1.12415
1.11601
1.10777
1.0994
1.0909
1.08228
1.07352
1.06464
1.05564
1.04652
1.03728
1.02793
1.01847
1.0089
0.999234
0.989468
0.979605
0.969649
0.959602
0.949468
0.93925
0.928949
0.918566
0.908106
0.897572
0.886965
0.876288
0.86554
0.854724
0.843845
0.832901
0.821897
0.810832
0.799708
0.788527
0.777293
0.766003
0.754664
0.74327
0.73183
0.720339
0.708803
0.69722
0.685593
0.673921
0.662207
0.650453
0.638659
0.626823
0.61495
0.60304
0.591092
0.579109
0.567092
0.55504
0.542954
0.530835
0.518686
0.506506
0.494292
0.482051
0.46978
0.457481
0.445154
0.4328
0.420418
0.408012
0.395579
0.383121
0.370639
0.358132
0.345604
0.33305
0.320475
0.307879
0.295259
0.28262
0.26996
0.257279
0.244581
0.231858
0.219122
0.206364
0.193589
0.180796
0.167987
0.155159
0.142316
0.129456
0.116582
0.103691
0.0907867
0.0778656
0.0649333
0.0519849
0.0390246
0.0260499
0.0130658
6.4829e-05
-0.0129427
-0.0259653
-0.0389969
-0.0520384
-0.0650916
-0.0781531
-0.0912232
-0.104305
-0.117391
-0.130487
-0.143589
-0.156699
-0.169815
-0.182935
-0.196062
-0.209193
-0.222328
-0.235466
-0.248607
-0.26175
-0.274896
-0.288041
-0.301186
-0.314332
-0.327478
-0.34062
-0.353759
-0.366896
-0.38003
-0.393156
-0.406278
-0.419394
-0.4325
-0.445598
-0.458687
-0.471766
-0.484832
-0.497887
-0.510924
-0.52395
-0.536957
-0.549949
-0.562918
-0.575871
-0.588799
-0.601706
-0.614589
-0.627444
-0.64027
-0.653069
-0.665834
-0.678568
-0.691266
-0.703926
-0.716547
-0.729128
-0.741667
-0.75416
-0.766604
-0.778997
-0.791339
-0.803625
-0.815852
-0.828019
-0.840121
-0.852158
-0.864124
-0.876017
-0.887834
-0.899572
-0.911226
-0.922795
-0.934274
-0.945664
-0.956963
-0.968168
-0.979284
-0.990327
-1.00131
-1.01226
-1.0232
-1.03412
-1.04493
-1.05547
-1.06558
-1.07524
-1.08464
-1.09395
-1.1031
-1.11195
1.2039
1.19854
1.19282
1.18683
1.18068
1.17428
1.16752
1.16036
1.15285
1.14512
1.13726
1.1293
1.12124
1.11308
1.1048
1.0964
1.08786
1.0792
1.0704
1.06148
1.05244
1.04327
1.03399
1.02459
1.01509
1.00547
0.995758
0.98594
0.976025
0.966017
0.955915
0.945721
0.935444
0.92508
0.914635
0.904111
0.893509
0.882833
0.87208
0.861259
0.850366
0.839407
0.828383
0.817293
0.806141
0.794927
0.783656
0.772326
0.760943
0.7495
0.738007
0.726461
0.714865
0.703218
0.691524
0.679783
0.667996
0.656165
0.644289
0.632369
0.620409
0.608408
0.596366
0.584287
0.572169
0.560014
0.547823
0.535595
0.523334
0.511039
0.49871
0.486349
0.473956
0.461532
0.449078
0.436595
0.424082
0.411542
0.398972
0.386379
0.373757
0.361108
0.348436
0.335737
0.323016
0.31027
0.297501
0.284711
0.271896
0.259063
0.246207
0.23333
0.220434
0.207518
0.194583
0.18163
0.168659
0.15567
0.142664
0.129641
0.116603
0.103548
0.0904782
0.0773942
0.0642954
0.0511837
0.0380575
0.0249191
0.0117688
-0.00139477
-0.0145689
-0.0277526
-0.0409494
-0.0541527
-0.0673678
-0.0805913
-0.0938214
-0.107062
-0.120307
-0.133561
-0.14682
-0.160083
-0.173354
-0.186626
-0.199903
-0.213184
-0.226466
-0.239751
-0.253036
-0.266323
-0.279607
-0.292892
-0.306173
-0.319453
-0.332729
-0.346001
-0.359268
-0.372528
-0.385782
-0.399029
-0.412266
-0.425495
-0.438712
-0.451916
-0.465108
-0.478287
-0.491451
-0.504599
-0.517728
-0.53084
-0.543931
-0.557003
-0.570048
-0.583072
-0.596069
-0.609041
-0.621983
-0.634894
-0.647772
-0.660617
-0.673428
-0.686198
-0.698932
-0.711622
-0.724268
-0.73687
-0.749422
-0.761928
-0.774377
-0.786776
-0.799113
-0.811388
-0.823603
-0.835752
-0.847831
-0.859839
-0.871772
-0.883628
-0.895401
-0.907089
-0.918691
-0.930202
-0.941621
-0.952945
-0.964176
-0.975314
-0.986372
-0.997356
-1.00829
-1.0192
-1.03008
-1.04089
-1.0515
-1.06177
-1.07161
-1.08107
-1.09036
-1.09955
-1.10851
-1.11714
1.20696
1.20185
1.19636
1.19054
1.18452
1.17829
1.17178
1.16487
1.15758
1.15002
1.14227
1.13441
1.12644
1.11837
1.11018
1.10187
1.09343
1.08485
1.07615
1.06731
1.05835
1.04926
1.04005
1.03072
1.02128
1.01173
1.00207
0.9923
0.982432
0.972464
0.962398
0.952239
0.941986
0.931647
0.921219
0.910709
0.900116
0.889443
0.878693
0.867868
0.856965
0.845994
0.834952
0.823841
0.812662
0.80142
0.790114
0.778747
0.767321
0.755832
0.744289
0.73269
0.721033
0.709326
0.697566
0.685755
0.673896
0.661986
0.650031
0.638029
0.62598
0.613888
0.601753
0.589576
0.577357
0.565099
0.552801
0.540464
0.528089
0.515679
0.503233
0.49075
0.478234
0.465684
0.453101
0.440488
0.427839
0.415165
0.402457
0.389722
0.376956
0.364164
0.351344
0.3385
0.325626
0.31273
0.299807
0.286862
0.273891
0.260899
0.247884
0.234846
0.221789
0.208709
0.195612
0.182494
0.169357
0.156201
0.14303
0.129838
0.116632
0.103407
0.0901712
0.0769169
0.0636482
0.0503668
0.0370731
0.0237645
0.0104453
-0.00288661
-0.0162288
-0.0295809
-0.0429446
-0.0563151
-0.0696967
-0.0830834
-0.0964816
-0.109882
-0.123291
-0.136705
-0.150125
-0.163546
-0.176975
-0.190401
-0.203835
-0.217266
-0.2307
-0.244132
-0.257564
-0.270996
-0.284423
-0.297847
-0.311268
-0.324683
-0.338093
-0.351494
-0.364891
-0.378277
-0.391653
-0.405019
-0.418374
-0.431715
-0.445041
-0.458355
-0.47165
-0.48493
-0.498191
-0.51143
-0.524653
-0.53785
-0.551022
-0.564173
-0.577293
-0.590387
-0.60345
-0.616483
-0.629484
-0.642449
-0.655377
-0.668265
-0.681118
-0.693924
-0.706687
-0.719404
-0.732073
-0.74469
-0.757257
-0.769767
-0.782222
-0.794614
-0.806944
-0.819208
-0.831403
-0.84353
-0.855581
-0.867557
-0.87945
-0.891263
-0.902987
-0.914623
-0.92617
-0.937619
-0.948969
-0.960226
-0.971389
-0.982464
-0.993457
-1.00439
-1.01527
-1.02612
-1.0369
-1.04756
-1.05794
-1.06794
-1.07752
-1.08684
-1.09602
-1.10507
-1.11382
-1.12218
1.20988
1.20503
1.19978
1.19416
1.18828
1.18222
1.1759
1.16924
1.1622
1.15483
1.14723
1.13948
1.13161
1.12362
1.11553
1.10731
1.09896
1.09049
1.08187
1.07313
1.06425
1.05525
1.04611
1.03686
1.02749
1.018
1.0084
0.998685
0.988867
0.978943
0.968919
0.958796
0.948577
0.938263
0.927859
0.917366
0.906788
0.896122
0.885376
0.87455
0.863642
0.852661
0.841605
0.830476
0.819275
0.808004
0.796669
0.785265
0.773799
0.762267
0.750676
0.739023
0.727312
0.715544
0.703719
0.691841
0.679908
0.667923
0.655888
0.643802
0.631668
0.619484
0.607255
0.594981
0.582663
0.570298
0.557893
0.545446
0.532959
0.520431
0.507864
0.495261
0.482618
0.46994
0.457226
0.444479
0.431696
0.41888
0.406034
0.393154
0.380244
0.367306
0.354335
0.341338
0.328312
0.315259
0.30218
0.289074
0.275946
0.262789
0.249612
0.23641
0.223187
0.209941
0.196675
0.183387
0.17008
0.156755
0.143411
0.130047
0.11667
0.103272
0.0898609
0.0764343
0.0629928
0.0495368
0.0360684
0.0225868
0.00909377
-0.00441132
-0.0179246
-0.0314519
-0.0449845
-0.0585283
-0.0720785
-0.085636
-0.0992008
-0.112769
-0.126346
-0.139923
-0.153506
-0.167092
-0.180678
-0.194266
-0.207856
-0.221443
-0.23503
-0.248614
-0.262197
-0.275774
-0.289347
-0.302914
-0.316474
-0.330027
-0.343572
-0.357108
-0.370632
-0.384144
-0.397644
-0.411132
-0.424603
-0.438059
-0.451496
-0.464916
-0.478317
-0.491696
-0.505055
-0.518388
-0.531697
-0.54498
-0.558233
-0.57146
-0.584653
-0.597816
-0.610943
-0.624037
-0.637092
-0.650108
-0.663083
-0.676014
-0.688904
-0.701743