/*--------------------------------*- C++ -*----------------------------------*\
  =========                 |
  \\      /  F ield         | OpenFOAM: The Open Source CFD Toolbox
   \\    /   O peration     | Website:  https://openfoam.org
    \\  /    A nd           | Version:  8
     \\/     M anipulation  |
\*---------------------------------------------------------------------------*/
FoamFile
{
    version     2.0;
    format      ascii;
    class       surfaceScalarField;
    location    "0.25";
    object      phi;
}
// * * * * * * * * * * * * * * * * * * * * * * * * * * * * * * * * * * * * * //

dimensions      [0 3 -1 0 0 0 0];

internalField   nonuniform List<scalar> 
223385
(
-0.00359975
0.0263998
-0.00840013
0.0708004
-0.0119998
0.1152
-0.0167995
0.1596
-0.0215991
0.204
-0.0251988
0.2484
-0.0287986
0.2916
-0.0323982
0.336
-0.0359978
0.3792
-0.0395974
0.4248
-0.041997
0.4668
-0.0455965
0.5112
-0.0491961
0.5556
-0.0527956
0.5976
-0.0539951
0.6408
-0.0575945
0.685199
-0.061194
0.727199
-0.0635934
0.770399
-0.0659929
0.812399
-0.0671923
0.854399
-0.0707917
0.897599
-0.0719912
0.938399
-0.0743906
0.980399
-0.07559
1.0224
-0.0779895
1.0632
-0.0791889
1.104
-0.0815883
1.146
-0.0827877
1.1844
-0.0839872
1.2252
-0.0863865
1.266
-0.087586
1.3044
-0.0887854
1.344
-0.0899848
1.3824
-0.0899843
1.4208
-0.0911837
1.4592
-0.0911832
1.4964
-0.0923826
1.5348
-0.093582
1.572
-0.0935815
1.608
-0.0947809
1.644
-0.0947804
1.68
-0.0947799
1.716
-0.0947794
1.7496
-0.0947788
1.7856
-0.0947783
1.8192
-0.0947778
1.8528
-0.0947773
1.8864
-0.0935768
1.9188
-0.0935763
1.9512
-0.0935758
1.9836
-0.0923754
2.0136
-0.0923749
2.046
-0.0911744
2.0748
-0.0905739
2.10564
-0.0897335
2.13468
-0.088773
2.16336
-0.0878126
2.19168
-0.0868522
2.2194
-0.0856518
2.24652
-0.0844513
2.27304
-0.0832509
2.2992
-0.0819305
2.32464
-0.0804902
2.34948
-0.0790498
2.37384
-0.0776094
2.3976
-0.076049
2.42076
-0.0743687
2.4432
-0.0728083
2.46528
-0.071128
2.48664
-0.0693276
2.50728
-0.0675273
2.52744
-0.065607
2.54688
-0.0636867
2.56572
-0.0616464
2.58396
-0.0596061
2.6016
-0.0576859
2.61864
-0.0555256
2.63484
-0.0533653
2.65044
-0.0512051
2.66556
-0.0489248
2.67984
-0.0467646
2.69364
-0.0446044
2.7066
-0.0422042
2.71884
-0.039924
2.73072
-0.0375238
2.74164
-0.0351236
2.75196
-0.0327234
2.76168
-0.0303233
2.77068
-0.0279231
2.77896
-0.025403
2.78652
-0.0228828
2.79348
-0.0203627
2.79972
-0.0178426
2.80536
-0.0152025
2.81004
-0.0128024
2.81436
-0.0102223
2.8178
-0.00766623
2.82058
-0.00509815
2.82266
-0.00253013
2.82404
3.79452e-05
2.82475
0.00260595
2.82475
0.00517401
2.82404
0.007742
2.82266
0.010298
2.82058
0.012878
2.8178
0.015278
2.81436
0.017918
2.81004
0.0204379
2.80536
0.0229579
2.79972
0.0254778
2.79348
0.0279977
2.78652
0.0303977
2.77896
0.0327976
2.77068
0.0351975
2.76168
0.0375974
2.75196
0.0399973
2.74164
0.0422771
2.73072
0.044677
2.71884
0.0468368
2.7066
0.0489966
2.69364
0.0512765
2.67984
0.0534363
2.66556
0.0555961
2.65044
0.0577559
2.63484
0.0596757
2.61864
0.0617155
2.6016
0.0637552
2.58396
0.065675
2.56572
0.0675947
2.54688
0.0693945
2.52744
0.0711942
2.50728
0.0728739
2.48664
0.0744336
2.46528
0.0761133
2.4432
0.077673
2.42076
0.0791126
2.3976
0.0805523
2.37384
0.0819919
2.34948
0.0833116
2.32464
0.0845112
2.2992
0.0857108
2.27304
0.0869105
2.24652
0.0878701
2.2194
0.0888297
2.19168
0.0897892
2.16336
0.0906288
2.13468
0.0912284
2.10564
0.0924279
2.0748
0.0924274
2.046
0.093627
2.0136
0.0936265
1.9836
0.093626
1.9512
0.0948256
1.9188
0.094825
1.8864
0.0948245
1.8528
0.094824
1.8192
0.0948234
1.7856
0.0948229
1.7496
0.0948224
1.716
0.0948218
1.68
0.0936213
1.644
0.0936207
1.608
0.0924201
1.572
0.0912195
1.5348
0.0912189
1.4964
0.0900183
1.4592
0.0900177
1.4208
0.0888171
1.3824
0.0876165
1.344
0.0864159
1.3044
0.0840152
1.266
0.0828146
1.2252
0.081614
1.1844
0.0792133
1.146
0.0780127
1.104
0.075612
1.0632
0.0744114
1.0224
0.0720107
0.980401
0.0708101
0.938401
0.0672094
0.897601
0.0660088
0.854401
0.0636081
0.812401
0.0612075
0.770401
0.0576068
0.727201
0.0540062
0.685201
0.0528056
0.640801
0.049205
0.597601
0.0456044
0.555601
0.0420038
0.511201
0.0396033
0.466801
0.0360027
0.424801
0.0324023
0.3792
0.0288018
0.336
0.0252015
0.2916
0.0216011
0.2484
0.0168007
0.204
0.0120002
0.1596
0.00839979
0.1152
0.00360033
0.0707995
0.0264003
-0.00479827
0.031198
-0.00959848
0.0756006
-0.0131986
0.1188
-0.0179976
0.164399
-0.0215961
0.207598
-0.0239948
0.250798
-0.0287936
0.296398
-0.0323924
0.339598
-0.0359912
0.382798
-0.0395899
0.428398
-0.0431885
0.470398
-0.0467871
0.514798
-0.0479858
0.556798
-0.0515843
0.601198
-0.0551827
0.644398
-0.0575812
0.687598
-0.0599796
0.729598
-0.062378
0.772798
-0.0647764
0.814798
-0.0683747
0.857998
-0.0695731
0.898798
-0.0731713
0.941998
-0.0743697
0.981598
-0.076768
1.0248
-0.0779663
1.0644
-0.0803646
1.1064
-0.0815629
1.1472
-0.0839612
1.1868
-0.0851595
1.2264
-0.0851578
1.266
-0.0863561
1.3056
-0.0875544
1.3452
-0.0887527
1.3836
-0.089951
1.422
-0.0911493
1.4604
-0.0923477
1.4976
-0.092346
1.5348
-0.0923444
1.572
-0.0935427
1.6092
-0.0935411
1.644
-0.0947395
1.6812
-0.0935379
1.7148
-0.0947363
1.7508
-0.0947348
1.7856
-0.0947332
1.8192
-0.0947317
1.8528
-0.0947302
1.8864
-0.0935287
1.9176
-0.0935272
1.9512
-0.0923258
1.9824
-0.0935242
2.0148
-0.091123
2.0436
-0.0911215
2.0748
-0.0905201
2.10504
-0.0896788
2.13384
-0.0888374
2.16252
-0.0877561
2.1906
-0.0866749
2.21832
-0.0855936
2.24544
-0.0845123
2.27196
-0.0831911
2.29788
-0.0818699
2.32332
-0.0804287
2.34804
-0.0791076
2.37252
-0.0775465
2.39604
-0.0759854
2.4192
-0.0744243
2.44164
-0.0727433
2.4636
-0.0709422
2.48484
-0.0691412
2.50548
-0.0673403
2.52564
-0.0654193
2.54496
-0.0636184
2.56392
-0.0616975
2.58204
-0.0596567
2.59956
-0.0574958
2.61648
-0.055455
2.6328
-0.0534142
2.6484
-0.0511335
2.66328
-0.0489727
2.67768
-0.046692
2.69136
-0.0444114
2.70432
-0.0421307
2.71656
-0.0397302
2.72832
-0.0374495
2.73936
-0.035049
2.74956
-0.0326485
2.75928
-0.030128
2.76816
-0.0277276
2.77656
-0.025327
2.78412
-0.0228067
2.79096
-0.0202863
2.7972
-0.017766
2.80284
-0.0152457
2.80752
-0.0127254
2.81184
-0.0101331
2.81521
-0.00757685
2.81802
-0.00500866
2.8201
-0.00245254
2.82149
0.000115614
2.82218
0.0026837
2.82218
0.00523981
2.82149
0.00780787
2.8201
0.0103639
2.81802
0.0129558
2.81521
0.0154758
2.81184
0.0179957
2.80752
0.0205156
2.80284
0.0230354
2.7972
0.0255553
2.79096
0.027955
2.78412
0.0303549
2.77656
0.0328746
2.76816
0.0352743
2.75928
0.037674
2.74956
0.0399536
2.73936
0.0423532
2.72832
0.0446328
2.71656
0.0469124
2.70432
0.0491919
2.69136
0.0513513
2.67768
0.0536308
2.66328
0.0556702
2.6484
0.0577096
2.6328
0.0598689
2.61648
0.0619083
2.59956
0.0638276
2.58204
0.0656269
2.56392
0.067546
2.54496
0.0693453
2.52564
0.0711444
2.50548
0.0729435
2.48484
0.0746227
2.4636
0.0761818
2.44164
0.0777408
2.4192
0.0792998
2.39604
0.0806188
2.37252
0.0820578
2.34804
0.0833767
2.32332
0.0846956
2.29788
0.0857745
2.27196
0.0868533
2.24544
0.0879321
2.21832
0.0890109
2.1906
0.0898496
2.16252
0.0906884
2.13384
0.091287
2.10504
0.0912857
2.0748
0.0936845
2.0436
0.0924829
2.0148
0.0936816
1.9824
0.0936801
1.9512
0.0948787
1.9176
0.0948772
1.8864
0.0948757
1.8528
0.0948741
1.8192
0.0948725
1.7856
0.0936709
1.7508
0.0948693
1.7148
0.0936676
1.6812
0.093666
1.644
0.0924643
1.6092
0.0924625
1.572
0.0924609
1.5348
0.0912591
1.4976
0.0900573
1.4604
0.0888555
1.422
0.0876537
1.3836
0.0864518
1.3452
0.08525
1.3056
0.0852482
1.266
0.0840463
1.2264
0.0816444
1.1868
0.0804426
1.1472
0.0780406
1.1064
0.0768388
1.0644
0.0744369
1.0248
0.073235
0.981603
0.069633
0.942003
0.0684311
0.898803
0.0648292
0.858003
0.0624273
0.814803
0.0600254
0.772803
0.0576236
0.729602
0.0552217
0.687602
0.0516199
0.644402
0.0480181
0.601202
0.0468165
0.556802
0.0432148
0.514802
0.0396131
0.470402
0.0360115
0.428402
0.0324099
0.382802
0.0288084
0.339602
0.0240068
0.296402
0.0216051
0.250802
0.0180031
0.207602
0.0132018
0.164402
0.00960205
0.1188
0.00480237
0.0755991
0.0312027
-0.00479796
0.035996
-0.00839647
0.0791991
-0.0131967
0.1236
-0.0167962
0.167998
-0.0203941
0.211196
-0.0251916
0.255596
-0.0287892
0.299996
-0.0323871
0.343196
-0.0359849
0.386396
-0.0383827
0.430796
-0.0431803
0.475196
-0.0455779
0.517196
-0.0491755
0.560396
-0.052773
0.604795
-0.0551704
0.646795
-0.0575679
0.689995
-0.0611652
0.733195
-0.0635625
0.775195
-0.0659598
0.817195
-0.0671572
0.859195
-0.0707543
0.902395
-0.0719516
0.943195
-0.0755487
0.985195
-0.0767459
1.02599
-0.0791431
1.06679
-0.0803403
1.10759
-0.0815374
1.14839
-0.0827346
1.18799
-0.0839318
1.22759
-0.0863289
1.26839
-0.0875261
1.30679
-0.0887232
1.34639
-0.0899204
1.38479
-0.0911177
1.42319
-0.0911149
1.46039
-0.0923121
1.49879
-0.0923094
1.5348
-0.0935065
1.57319
-0.0935038
1.6092
-0.0947011
1.6452
-0.0934985
1.68
-0.0946958
1.716
-0.0946932
1.7508
-0.0946904
1.7856
-0.0946879
1.8192
-0.0946853
1.8528
-0.0934829
1.8852
-0.0946802
1.9188
-0.0934778
1.95
-0.0934754
1.9824
-0.092273
2.0136
-0.0922705
2.0436
-0.0922682
2.0748
-0.0904659
2.10324
-0.0896235
2.133
-0.0886614
2.16156
-0.0876992
2.18964
-0.0867369
2.21736
-0.0855348
2.24424
-0.0843327
2.27076
-0.0830107
2.29656
-0.0816887
2.322
-0.0804867
2.34684
-0.0789247
2.37096
-0.0774828
2.3946
-0.075921
2.41764
-0.0742393
2.43996
-0.0725574
2.46192
-0.0708757
2.48316
-0.069194
2.5038
-0.0672724
2.52372
-0.0654708
2.54316
-0.0634292
2.56188
-0.0615077
2.58012
-0.0595863
2.59764
-0.0575448
2.61444
-0.0553834
2.63064
-0.0532222
2.64624
-0.0510608
2.66112
-0.0488997
2.67552
-0.0466185
2.68908
-0.0443374
2.70204
-0.0420562
2.71428
-0.0397753
2.72604
-0.0373743
2.73696
-0.0349733
2.74716
-0.0325724
2.75688
-0.0301716
2.76576
-0.0276507
2.77404
-0.0251301
2.7816
-0.0227294
2.78856
-0.0202087
2.79468
-0.0176881
2.80032
-0.0151675
2.805
-0.0126471
2.80932
-0.0100667
2.81263
-0.00751035
2.81546
-0.00494205
2.81753
-0.00237369
2.81892
0.000194551
2.81962
0.00276272
2.81962
0.00533076
2.81892
0.00789887
2.81753
0.0104549
2.81546
0.0130349
2.81263
0.0155549
2.80932
0.0180747
2.805
0.0205945
2.80032
0.0231143
2.79468
0.025514
2.78856
0.0280337
2.7816
0.0305532
2.77404
0.0329528
2.76576
0.0353523
2.75688
0.0377517
2.74716
0.0401511
2.73696
0.0424305
2.72604
0.0447097
2.71428
0.0469889
2.70204
0.0492681
2.68908
0.0514273
2.67552
0.0535863
2.66112
0.0557454
2.64624
0.0579044
2.63064
0.0599432
2.61444
0.0618621
2.59764
0.063781
2.58012
0.0658197
2.56188
0.0676184
2.54316
0.069537
2.52372
0.0712156
2.5038
0.0728942
2.48316
0.0745726
2.46192
0.0762512
2.43996
0.0778095
2.41764
0.0792479
2.3946
0.0808061
2.37096
0.0820044
2.34684
0.0833226
2.322
0.0846408
2.29656
0.0858388
2.27076
0.0870369
2.24424
0.0879948
2.21736
0.0889528
2.18964
0.0899108
2.16156
0.0907485
2.133
0.0925464
2.10324
0.0925442
2.0748
0.0925418
2.0436
0.0937395
2.0136
0.0937371
1.9824
0.0949347
1.95
0.0937321
1.9188
0.0949297
1.8852
0.0949271
1.8528
0.0949246
1.8192
0.0949219
1.7856
0.0949192
1.7508
0.0937164
1.716
0.0949138
1.68
0.093711
1.64521
0.0937082
1.60921
0.0925052
1.57321
0.0925024
1.53481
0.0912994
1.49881
0.0912965
1.46041
0.0900936
1.42321
0.0888905
1.38481
0.0876875
1.34641
0.0864844
1.30681
0.0840812
1.26841
0.0828782
1.22761
0.0816751
1.18801
0.080472
1.14841
0.0792689
1.10761
0.0768657
1.06681
0.0756626
1.02601
0.0720593
0.985206
0.0708562
0.943206
0.0672529
0.902406
0.0660499
0.859206
0.0636467
0.817206
0.0612436
0.775206
0.0576404
0.733206
0.0552374
0.690006
0.0528344
0.646805
0.0492313
0.604805
0.0456284
0.560405
0.0432255
0.517205
0.0384225
0.475205
0.0360197
0.430805
0.032417
0.386405
0.0288142
0.343205
0.0252112
0.300005
0.0204078
0.255606
0.0168051
0.211205
0.0132044
0.168003
0.00840484
0.1236
0.00480281
0.0792012
0.0360055
-0.00359798
0.039594
-0.008395
0.0839961
-0.0131944
0.128399
-0.0167943
0.171598
-0.0215923
0.215994
-0.0251891
0.259193
-0.0287856
0.303593
-0.0323823
0.346793
-0.0359792
0.389993
-0.0395759
0.434393
-0.0419727
0.477593
-0.0455693
0.520792
-0.0491658
0.563992
-0.0515623
0.607192
-0.0551587
0.650392
-0.057555
0.692392
-0.0599514
0.735592
-0.0623476
0.777591
-0.0659437
0.820791
-0.0683399
0.861591
-0.0695361
0.903591
-0.0719322
0.945591
-0.0743282
0.987591
-0.0755243
1.02719
-0.0779203
1.06919
-0.0791164
1.10879
-0.0815124
1.15079
-0.0827084
1.18919
-0.0851044
1.22999
-0.0863004
1.26959
-0.0874964
1.30799
-0.0874925
1.34639
-0.0886886
1.38599
-0.0898846
1.42439
-0.0910806
1.46159
-0.0910768
1.49879
-0.0934727
1.53719
-0.0934689
1.57319
-0.0934651
1.60919
-0.0934613
1.64519
-0.0946574
1.68119
-0.0946537
1.71599
-0.09465
1.75079
-0.0946463
1.78559
-0.0946426
1.81919
-0.094639
1.85279
-0.0946353
1.88519
-0.0934319
1.91759
-0.0934283
1.94999
-0.0934248
1.98239
-0.0922215
2.01239
-0.0922181
2.04359
-0.0910147
2.07359
-0.0904114
2.10263
-0.0895682
2.13215
-0.088605
2.16059
-0.0877619
2.18879
-0.0865588
2.21615
-0.0854758
2.24315
-0.0842728
2.26955
-0.0830699
2.29535
-0.0817469
2.32067
-0.0803041
2.34539
-0.0788615
2.36951
-0.0774187
2.39315
-0.0757361
2.41595
-0.0742935
2.43851
-0.0726111
2.46023
-0.0708085
2.48135
-0.0690061
2.50199
-0.0672038
2.52191
-0.0654016
2.54135
-0.0634793
2.55995
-0.0614373
2.57808
-0.0593951
2.5956
-0.0573532
2.6124
-0.0553111
2.6286
-0.0531493
2.64408
-0.0511076
2.65908
-0.0488257
2.67324
-0.046544
2.6868
-0.0442625
2.69976
-0.042101
2.71212
-0.0396995
2.72364
-0.037298
2.73456
-0.0348967
2.74476
-0.0324955
2.75448
-0.0300943
2.76336
-0.0275732
2.77152
-0.0251721
2.7792
-0.0226511
2.78604
-0.0201302
2.79216
-0.0176093
2.7978
-0.0150886
2.80248
-0.0124478
2.80668
-0.00998727
2.81017
-0.00741862
2.81289
-0.00486219
2.81497
-0.00229381
2.81635
0.00027452
2.81705
0.00284277
2.81705
0.00541097
2.81635
0.00796713
2.81497
0.0105351
2.8129
0.0129951
2.81017
0.0156349
2.80668
0.0181548
2.80248
0.0206745
2.7978
0.0231941
2.79216
0.0257137
2.78604
0.0281132
2.7792
0.0306326
2.77152
0.033032
2.76336
0.0354313
2.75448
0.0378305
2.74476
0.0402296
2.73456
0.0426286
2.72364
0.0447876
2.71212
0.0470667
2.69976
0.0493454
2.6868
0.051624
2.67324
0.0536629
2.65908
0.0558215
2.64408
0.0578599
2.6286
0.0598985
2.6124
0.0619368
2.5956
0.0639751
2.57808
0.0658933
2.55996
0.0676915
2.54136
0.0694897
2.52192
0.0712877
2.502
0.0730854
2.48136
0.0747634
2.46024
0.0762012
2.43852
0.0778789
2.41597
0.0793164
2.39317
0.0807542
2.36953
0.0821917
2.34541
0.0835091
2.32069
0.0847063
2.29537
0.0859037
2.26957
0.0869809
2.24317
0.0881781
2.21617
0.0890151
2.18881
0.0899721
2.16061
0.0908092
2.13217
0.091406
2.10265
0.0926028
2.07361
0.0925995
2.04361
0.0937964
2.01241
0.0937929
1.98241
0.0937894
1.95001
0.094986
1.91761
0.0949824
1.88521
0.0949788
1.85281
0.0949751
1.81921
0.0949713
1.78561
0.0949676
1.75081
0.0949639
1.71601
0.0937598
1.68121
0.0937559
1.64521
0.093752
1.60921
0.093748
1.57321
0.0913437
1.53721
0.0913397
1.49881
0.0901355
1.46161
0.0889312
1.42441
0.087727
1.38601
0.0877228
1.34641
0.0865185
1.30801
0.0853142
1.26961
0.0829098
1.23001
0.0817054
1.18921
0.0793009
1.15081
0.0780966
1.10881
0.0756921
1.06921
0.0744877
1.02721
0.0720832
0.98761
0.0696787
0.94561
0.0684744
0.90361
0.06607
0.86161
0.0624655
0.82081
0.0600611
0.77761
0.0576568
0.73561
0.0552524
0.69241
0.0516481
0.65041
0.0492439
0.60721
0.0456396
0.564009
0.0420355
0.520809
0.0396314
0.477609
0.0360274
0.434409
0.0324234
0.390009
0.0288192
0.346809
0.0252146
0.30361
0.0216103
0.25921
0.0168078
0.216008
0.0132077
0.171603
0.0084069
0.128401
0.00360281
0.0840053
0.0396083
-0.0047978
0.0443918
-0.00959396
0.0887923
-0.013192
0.131998
-0.0167918
0.175198
-0.0203905
0.219593
-0.0251869
0.263989
-0.0287825
0.307188
-0.0323781
0.350389
-0.0359739
0.393589
-0.0395697
0.437989
-0.0431654
0.481188
-0.0467609
0.524388
-0.0491566
0.566388
-0.0527519
0.610787
-0.0551474
0.652787
-0.0587426
0.695987
-0.0611379
0.737987
-0.0635331
0.779987
-0.0647283
0.821986
-0.0683232
0.865186
-0.0707182
0.905986
-0.0731132
0.947986
-0.0743082
0.988786
-0.0767031
1.02959
-0.0778981
1.07039
-0.0802929
1.11119
-0.0814878
1.15199
-0.0826828
1.19039
-0.0838776
1.23119
-0.0850724
1.27079
-0.0862673
1.30919
-0.0886621
1.34879
-0.0898569
1.38719
-0.0898519
1.42439
-0.0910467
1.46279
-0.0922416
1.49999
-0.0922367
1.53719
-0.0922318
1.57319
-0.0934267
1.61039
-0.0934218
1.64519
-0.0934169
1.68119
-0.0946118
1.71719
-0.0946069
1.75079
-0.0946022
1.78559
-0.0945974
1.81919
-0.0933928
1.85159
-0.0933882
1.88519
-0.0945834
1.91879
-0.0933789
1.94879
-0.0921745
1.98119
-0.0921698
2.01239
-0.0909655
2.04239
-0.0909612
2.07359
-0.0903569
2.10203
-0.0895127
2.13131
-0.0886685
2.15975
-0.0875844
2.18771
-0.0865005
2.21507
-0.0854164
2.24207
-0.0842126
2.26835
-0.0830087
2.29415
-0.081685
2.31935
-0.0802414
2.34395
-0.0789177
2.36819
-0.0773542
2.39159
-0.0757907
2.41439
-0.0741074
2.43683
-0.0724241
2.45855
-0.070741
2.47967
-0.0690578
2.50031
-0.0672547
2.52011
-0.0652118
2.53931
-0.063409
2.55815
-0.0614859
2.57615
-0.0594434
2.59355
-0.0574007
2.61035
-0.0552383
2.62643
-0.0530757
2.64191
-0.0509133
2.65691
-0.048751
2.67107
-0.0464689
2.68451
-0.0441868
2.69747
-0.0419047
2.70983
-0.0395026
2.72123
-0.0372209
2.73228
-0.0348192
2.74236
-0.0324174
2.75208
-0.0298958
2.76084
-0.0276144
2.76924
-0.024973
2.77656
-0.0225717
2.78364
-0.0200506
2.78964
-0.0175295
2.79528
-0.0150086
2.79996
-0.0124876
2.80416
-0.00989487
2.80758
-0.00735022
2.81035
-0.00478144
2.8124
-0.00221295
2.81378
0.000355484
2.81448
0.00292381
2.81448
0.00549208
2.81378
0.00806007
2.8124
0.0106042
2.81035
0.0131962
2.80758
0.015716
2.80416
0.0182358
2.79996
0.0207554
2.79528
0.0232751
2.78964
0.0256745
2.78364
0.0283139
2.77656
0.0305932
2.76924
0.0331123
2.76084
0.0355112
2.75208
0.0379103
2.74236
0.0401892
2.73228
0.0425879
2.72124
0.0448665
2.70984
0.047145
2.69748
0.0494236
2.68452
0.0515819
2.67108
0.0537402
2.65692
0.0558982
2.64193
0.0580565
2.62645
0.0600943
2.61037
0.0621324
2.59357
0.0640499
2.57617
0.0658476
2.55817
0.0678854
2.53933
0.0696828
2.52013
0.0713601
2.50033
0.0730375
2.47969
0.0747147
2.45857
0.0763918
2.43685
0.0779489
2.41441
0.0795058
2.39161
0.0808225
2.36821
0.0822593
2.34397
0.083576
2.31937
0.0847724
2.29417
0.085969
2.26837
0.0870453
2.24209
0.0881216
2.21509
0.0891978
2.18773
0.0900339
2.15977
0.0908699
2.13133
0.0914658
2.10205
0.0914617
2.07361
0.0926575
2.04241
0.092653
2.01241
0.0938487
1.98121
0.0950443
1.94881
0.0938396
1.91881
0.093835
1.88521
0.0950305
1.85161
0.0950256
1.81921
0.0950208
1.78561
0.0950159
1.75081
0.0938107
1.71721
0.0938057
1.68121
0.0938006
1.64521
0.0925953
1.61041
0.0925903
1.57321
0.0925851
1.53721
0.0913797
1.50001
0.0901742
1.46281
0.0901689
1.42441
0.0889633
1.38722
0.0865577
1.34882
0.0853522
1.30922
0.0841465
1.27082
0.0829408
1.23122
0.0817353
1.19042
0.0805296
1.15202
0.0781238
1.11122
0.0769182
1.07042
0.0745125
1.02962
0.0733068
0.988816
0.0709011
0.948016
0.0684953
0.906016
0.0648894
0.865216
0.0636839
0.822016
0.0612783
0.780016
0.0588727
0.738016
0.055267
0.696016
0.0528615
0.652815
0.0492559
0.610815
0.0468506
0.566415
0.0432451
0.524415
0.0396397
0.481215
0.0360344
0.438014
0.0324291
0.393614
0.0288234
0.350414
0.0252176
0.307215
0.0204129
0.264015
0.0168112
0.219609
0.013211
0.175203
0.00960837
0.132003
0.00480306
0.0888106
0.0444114
-0.00479768
0.0491895
-0.00839368
0.0923883
-0.01319
0.136794
-0.0179888
0.179997
-0.0215879
0.223192
-0.0251848
0.267586
-0.0287799
0.310783
-0.0323745
0.353983
-0.037169
0.398383
-0.039564
0.440383
-0.0431587
0.484783
-0.0455534
0.526783
-0.0491479
0.569982
-0.0515424
0.613182
-0.0551367
0.656381
-0.057531
0.698381
-0.0599252
0.740381
-0.0635191
0.783581
-0.0659131
0.824381
-0.0671073
0.86638
-0.0695012
0.90838
-0.071895
0.95038
-0.0742888
0.99118
-0.0766824
1.03198
-0.0778763
1.07158
-0.0802699
1.11358
-0.0814636
1.15318
-0.0838572
1.19278
-0.085051
1.23238
-0.0862447
1.27198
-0.0874384
1.31038
-0.088632
1.34998
-0.0886259
1.38718
-0.0898196
1.42558
-0.0910132
1.46398
-0.0922069
1.50118
-0.0922008
1.53718
-0.0933945
1.57438
-0.0933884
1.61038
-0.0945821
1.64638
-0.0945762
1.68118
-0.0945702
1.71718
-0.0945643
1.75078
-0.0945583
1.78558
-0.0945525
1.81918
-0.0945466
1.85158
-0.0945408
1.88518
-0.0933351
1.91758
-0.0933295
1.94878
-0.0933238
1.98118
-0.0921184
2.01118
-0.0921129
2.04238
-0.0909074
2.07238
-0.0903023
2.10142
-0.089457
2.13046
-0.0884918
2.15878
-0.0875269
2.18674
-0.0865617
2.2141
-0.0853569
2.24086
-0.084152
2.26714
-0.0829475
2.29294
-0.0816227
2.31803
-0.0802982
2.34263
-0.0787336
2.36663
-0.0771695
2.39003
-0.0757252
2.41295
-0.0741608
2.43527
-0.0724766
2.45687
-0.0707926
2.47799
-0.0688689
2.49839
-0.0670652
2.51831
-0.0652612
2.53751
-0.0633377
2.55623
-0.0612943
2.57411
-0.0592508
2.59151
-0.0572075
2.60831
-0.0551644
2.62439
-0.0531213
2.63987
-0.0508384
2.65463
-0.0485557
2.66879
-0.0463927
2.68235
-0.04423
2.69531
-0.0418276
2.70743
-0.0395453
2.71895
-0.0370232
2.72975
-0.0347408
2.74007
-0.0323388
2.74967
-0.0299369
2.75843
-0.0274151
2.76671
-0.0250133
2.77415
-0.0223717
2.78099
-0.0199702
2.78724
-0.017449
2.79276
-0.0149274
2.79744
-0.0124066
2.80164
-0.00982522
2.805
-0.00725642
2.80778
-0.00469969
2.80985
-0.00213108
2.81121
0.000437451
2.81191
0.00300586
2.81191
0.0055742
2.81121
0.00813043
2.80985
0.0106986
2.80778
0.0132781
2.805
0.0157983
2.80164
0.0183176
2.79744
0.0208373
2.79276
0.0232367
2.78724
0.025876
2.781
0.0282752
2.77416
0.0307943
2.76672
0.0331933
2.75844
0.0355921
2.74968
0.0378707
2.74008
0.0403894
2.72976
0.042668
2.71896
0.0450664
2.70745
0.0472246
2.69533
0.0493824
2.68237
0.0516605
2.66881
0.0539384
2.65465
0.0559761
2.63989
0.0580137
2.62441
0.0600512
2.60833
0.0620885
2.59153
0.0641258
2.57413
0.066043
2.55625
0.0678396
2.53753
0.0696367
2.51833
0.0715536
2.49841
0.0732302
2.47801
0.0749067
2.45689
0.0764628
2.43529
0.0778991
2.41297
0.0794556
2.39005
0.0810114
2.36665
0.0823274
2.34265
0.0836431
2.31805
0.0848391
2.29297
0.0860346
2.26717
0.0872303
2.24089
0.0881853
2.21413
0.0891408
2.18677
0.0900959
2.15882
0.0909309
2.1305
0.091526
2.10146
0.0927208
2.07242
0.0927154
2.04242
0.0939102
2.01122
0.0939047
1.98122
0.0938992
1.94882
0.0950936
1.91762
0.0950879
1.88522
0.095082
1.85162
0.0950761
1.81922
0.09507
1.78562
0.0950641
1.75082
0.0950579
1.71722
0.0950518
1.68122
0.0938453
1.64642
0.093839
1.61042
0.0926324
1.57442
0.092626
1.53722
0.0914193
1.50122
0.0902126
1.46402
0.0890059
1.42562
0.0889993
1.38722
0.0877924
1.35002
0.0865856
1.31042
0.0853787
1.27202
0.0841719
1.23242
0.0817648
1.19282
0.0805578
1.15322
0.0781507
1.11362
0.0769438
1.07162
0.0745366
1.03202
0.0721295
0.991223
0.0697224
0.950423
0.0673154
0.908423
0.0661086
0.866423
0.0637017
0.824423
0.0600945
0.783623
0.0576877
0.740422
0.0552808
0.698422
0.0516739
0.656422
0.0492673
0.613222
0.0456605
0.570022
0.043254
0.526821
0.0396474
0.484821
0.037241
0.440421
0.032434
0.398421
0.028827
0.354022
0.0252205
0.310822
0.0216165
0.267619
0.0180154
0.22321
0.0132138
0.180004
0.0084088
0.136808
0.00480326
0.0924161
0.0492146
-0.00359782
0.0527873
-0.00839354
0.097184
-0.0119888
0.140389
-0.0167862
0.184794
-0.021585
0.227991
-0.0251825
0.271183
-0.0287775
0.314378
-0.0323713
0.357577
-0.035965
0.401977
-0.0395588
0.443977
-0.0419527
0.487177
-0.0455462
0.530376
-0.0491397
0.573576
-0.052733
0.616775
-0.0551264
0.658775
-0.0575198
0.700775
-0.0611127
0.743974
-0.062306
0.784774
-0.0658987
0.827973
-0.0682915
0.868773
-0.0706843
0.910773
-0.0718772
0.951573
-0.0742698
0.993572
-0.0754626
1.03317
-0.0790549
1.07517
-0.0790477
1.11357
-0.0814401
1.15557
-0.0826327
1.19397
-0.0838252
1.23357
-0.0850178
1.27317
-0.08741
1.31277
-0.0874027
1.34997
-0.0897949
1.38957
-0.0909874
1.42677
-0.0909801
1.46397
-0.0909728
1.50117
-0.0921653
1.53837
-0.0933578
1.57557
-0.0933505
1.61037
-0.0933434
1.64637
-0.094536
1.68237
-0.093329
1.71597
-0.0945216
1.75197
-0.0945146
1.78557
-0.0933077
1.81797
-0.0945005
1.85277
-0.0944935
1.88517
-0.0932869
1.91637
-0.0932801
1.94878
-0.0932734
1.98118
-0.0932667
2.01118
-0.0920603
2.04118
-0.0908539
2.07118
-0.0902475
2.10082
-0.0892813
2.1295
-0.088435
2.15794
-0.0874689
2.18578
-0.086383
2.21302
-0.0852973
2.23978
-0.0840914
2.26594
-0.0828856
2.29174
-0.0815601
2.3167
-0.0801144
2.34118
-0.0786694
2.36518
-0.0772239
2.38858
-0.0756588
2.41138
-0.073974
2.43358
-0.072409
2.4553
-0.0706042
2.47618
-0.0689194
2.4967
-0.0669948
2.51638
-0.0651905
2.5357
-0.063146
2.55418
-0.0612219
2.57218
-0.0592979
2.58959
-0.057134
2.60615
-0.05509
2.62235
-0.0529263
2.63771
-0.0507627
2.65247
-0.0485993
2.66663
-0.0464362
2.68019
-0.0440329
2.69291
-0.0417501
2.70515
-0.039347
2.71655
-0.0370641
2.72747
-0.0346616
2.73767
-0.0322592
2.74727
-0.0298569
2.75603
-0.0273344
2.76419
-0.0249326
2.77175
-0.0224106
2.77847
-0.0198888
2.78471
-0.017367
2.79023
-0.0148457
2.79491
-0.0122042
2.799
-0.00974306
2.80254
-0.00718579
2.80522
-0.00461693
2.80728
-0.0020482
2.80865
0.000520441
2.80934
0.00308894
2.80934
0.00565736
2.80865
0.00822563
2.80728
0.0107815
2.80523
0.0132415
2.80254
0.0158811
2.799
0.0184009
2.79492
0.0209203
2.79024
0.0234396
2.78472
0.0259587
2.77848
0.028358
2.77176
0.0308766
2.7642
0.0332754
2.75604
0.035674
2.74729
0.0380726
2.73769
0.0403507
2.72749
0.0427487
2.71657
0.0450269
2.70517
0.0474246
2.69293
0.0495825
2.68021
0.05174
2.66665
0.0538974
2.65249
0.0560547
2.63773
0.0580915
2.62237
0.0602486
2.60617
0.0621654
2.58961
0.0640822
2.57221
0.0661186
2.55421
0.0679151
2.53573
0.0698313
2.51641
0.0715073
2.49673
0.0733032
2.47621
0.074859
2.45534
0.0765349
2.43362
0.0780904
2.41142
0.0795256
2.38862
0.0809611
2.36522
0.0823961
2.34122
0.0837112
2.31674
0.0849059
2.29178
0.0861005
2.26598
0.0871752
2.23982
0.0882498
2.21306
0.089204
2.18582
0.0900382
2.15798
0.0909922
2.12954
0.0915861
2.10086
0.09278
2.07122
0.0939739
2.04122
0.0939674
2.01122
0.0939608
1.98122
0.0939542
1.94882
0.0951476
1.91642
0.0951406
1.88523
0.0939335
1.85283
0.0951265
1.81803
0.0951195
1.78563
0.0939119
1.75203
0.0951048
1.71603
0.0938971
1.68243
0.0938897
1.64643
0.0938822
1.61043
0.0926743
1.57563
0.0914664
1.53843
0.0914587
1.50123
0.0914509
1.46403
0.0902429
1.42683
0.0878346
1.38963
0.0878267
1.35003
0.0854182
1.31283
0.08421
1.27323
0.0830019
1.23363
0.0817936
1.19403
0.0793851
1.15563
0.0793772
1.11363
0.0757685
1.07523
0.0745603
1.03323
0.0721518
0.993632
0.0709438
0.951631
0.0685354
0.910831
0.066127
0.868831
0.0625185
0.828031
0.0613106
0.784831
0.0577022
0.744031
0.0552942
0.70083
0.0528862
0.65883
0.0492781
0.61683
0.0456701
0.57363
0.0420621
0.530429
0.0396544
0.487229
0.0360465
0.444029
0.0324384
0.402029
0.0288303
0.35763
0.0252238
0.314428
0.0216205
0.271222
0.0168191
0.228012
0.0120155
0.184808
0.00840904
0.140415
0.00360308
0.0972221
0.0528177
-0.00479737
0.0575846
-0.0095932
0.10198
-0.0131878
0.143984
-0.0167838
0.18839
-0.0203821
0.231589
-0.02398
0.274781
-0.0287752
0.319173
-0.0323686
0.361171
-0.0359614
0.40557
-0.0395541
0.44757
-0.0431469
0.49077
-0.0467394
0.533969
-0.0491321
0.575969
-0.0515247
0.619168
-0.0551168
0.662367
-0.0575091
0.703167
-0.0599012
0.746366
-0.063493
0.788366
-0.0646851
0.829165
-0.0682766
0.872365
-0.0694685
0.911965
-0.0730597
0.955164
-0.0742515
0.994764
-0.0766428
1.03556
-0.0778343
1.07636
-0.0802256
1.11596
-0.0814171
1.15676
-0.0826085
1.19516
-0.0849996
1.23596
-0.0861909
1.27436
-0.0861825
1.31276
-0.0885735
1.35236
-0.0885649
1.38956
-0.0897562
1.42796
-0.0909474
1.46516
-0.0921388
1.50236
-0.0921302
1.53836
-0.0921217
1.57556
-0.0933131
1.61156
-0.0945043
1.64756
-0.0932963
1.68117
-0.0944876
1.71716
-0.0944794
1.75197
-0.094471
1.78557
-0.0944629
1.81797
-0.0944547
1.85277
-0.0932469
1.88397
-0.0944385
1.91757
-0.0932308
1.94757
-0.0920232
1.97997
-0.0920154
2.01117
-0.0920074
2.04117
-0.0908002
2.06997
-0.0901925
2.10021
-0.0893454
2.12865
-0.088498
2.15709
-0.0874109
2.18469
-0.086444
2.21205
-0.085237
2.23857
-0.0841501
2.26485
-0.0827036
2.29029
-0.0813771
2.31537
-0.0800508
2.33985
-0.0787242
2.36385
-0.0771581
2.38701
-0.0755921
2.40982
-0.0740262
2.43202
-0.0722204
2.4535
-0.070535
2.4745
-0.0687294
2.4949
-0.0669239
2.51458
-0.0649989
2.53378
-0.0631936
2.55238
-0.0612688
2.57026
-0.0591038
2.58742
-0.0571793
2.60422
-0.0550148
2.62018
-0.0528505
2.63554
-0.0506866
2.6503
-0.0485222
2.66446
-0.0462386
2.6779
-0.0439548
2.69062
-0.0416711
2.70287
-0.0393878
2.71427
-0.0369844
2.72507
-0.0345814
2.73527
-0.0321786
2.74487
-0.0296555
2.75351
-0.0272533
2.76179
-0.0247305
2.76923
-0.0223282
2.77607
-0.0198063
2.78219
-0.0172843
2.78771
-0.0147627
2.79239
-0.012241
2.79647
-0.00964766
2.79994
-0.00709049
2.80267
-0.00453313
2.80472
-0.00196427
2.80608
0.000604478
2.80677
0.00317307
2.80677
0.00574155
2.80608
0.00829752
2.80472
0.0108537
2.80267
0.0134457
2.79995
0.0159653
2.79648
0.018485
2.7924
0.0210043
2.78772
0.0235238
2.7822
0.0259228
2.77608
0.0284413
2.76924
0.0308403
2.76181
0.0333585
2.75353
0.0357569
2.74489
0.0381552
2.73529
0.040553
2.72509
0.0428309
2.71429
0.0451084
2.70289
0.0473858
2.69065
0.0496633
2.67793
0.0518201
2.66449
0.0539773
2.65033
0.0561341
2.63557
0.0582907
2.62021
0.0602072
2.60425
0.0623633
2.58746
0.0642795
2.5703
0.0660752
2.55242
0.0679911
2.53382
0.0697866
2.51462
0.0715819
2.49494
0.0732574
2.47454
0.0750524
2.45354
0.0766073
2.43206
0.0781621
2.40986
0.0797167
2.38706
0.0810309
2.3639
0.0823452
2.3399
0.0836594
2.31542
0.0850935
2.29034
0.0861671
2.26491
0.0873607
2.23863
0.0883144
2.21211
0.0893876
2.18475
0.0902207
2.15715
0.091054
2.12871
0.0916466
2.10027
0.0928398
2.07003
0.092832
2.04123
0.0928244
2.01123
0.094017
1.98003
0.0952095
1.94763
0.0940011
1.91763
0.0951933
1.88403
0.095185
1.85283
0.0951769
1.81803
0.0951684
1.78564
0.09516
1.75204
0.0939511
1.71724
0.095143
1.68124
0.0939337
1.64764
0.0927248
1.61164
0.0927159
1.57564
0.0927068
1.53844
0.0914977
1.50244
0.0902884
1.46524
0.089079
1.42804
0.0890697
1.38964
0.08666
1.35244
0.0866509
1.31284
0.0854414
1.27444
0.0830315
1.23604
0.081822
1.19524
0.0806125
1.15684
0.0782027
1.11604
0.0769932
1.07644
0.0745833
1.03564
0.073374
0.994841
0.0697638
0.955241
0.0685545
0.912041
0.0649445
0.872441
0.0637353
0.82924
0.0601256
0.78844
0.0577162
0.74644
0.0553069
0.70324
0.0516974
0.66244
0.0492883
0.619239
0.0468793
0.576039
0.04327
0.534038
0.0396608
0.490838
0.0360516
0.447638