/*--------------------------------*- C++ -*----------------------------------*\
  =========                 |
  \\      /  F ield         | OpenFOAM: The Open Source CFD Toolbox
   \\    /   O peration     | Website:  https://openfoam.org
    \\  /    A nd           | Version:  8
     \\/     M anipulation  |
\*---------------------------------------------------------------------------*/
FoamFile
{
    version     2.0;
    format      ascii;
    class       volVectorField;
    location    "0.25";
    object      U;
}
// * * * * * * * * * * * * * * * * * * * * * * * * * * * * * * * * * * * * * //

dimensions      [0 1 -1 0 0 0 0];

internalField   nonuniform List<vector> 
111804
(
(15 4.12112e-08 -2.26609e-24)
(15 5.54602e-07 -5.88526e-23)
(15 1.43471e-06 -3.5114e-22)
(14.9999 3.38353e-06 1.10766e-22)
(14.9999 5.34714e-06 1.99838e-21)
(14.9999 7.23361e-06 -2.07811e-21)
(14.9999 9.23939e-06 -7.97952e-23)
(14.9999 1.16863e-05 8.33637e-22)
(14.9999 1.44052e-05 2.66201e-21)
(14.9999 1.75234e-05 -4.42395e-21)
(14.9999 2.06921e-05 -1.18237e-22)
(14.9999 2.41083e-05 7.83391e-21)
(14.9999 2.78571e-05 5.19452e-21)
(14.9999 3.15885e-05 5.53219e-21)
(14.9998 3.55788e-05 5.00708e-21)
(14.9998 3.95339e-05 8.45824e-21)
(14.9998 4.35943e-05 -6.38128e-21)
(14.9998 4.79166e-05 1.13816e-20)
(14.9998 5.20546e-05 -8.50158e-21)
(14.9998 5.62386e-05 -1.27146e-20)
(14.9998 6.04564e-05 -2.30249e-20)
(14.9998 6.48159e-05 -9.8766e-21)
(14.9998 6.89773e-05 -1.02577e-20)
(14.9998 7.33255e-05 -5.92221e-21)
(14.9998 7.74987e-05 5.09453e-21)
(14.9998 8.18865e-05 1.12901e-20)
(14.9998 8.61189e-05 -1.77826e-20)
(14.9998 9.02881e-05 2.3808e-20)
(14.9998 9.4556e-05 -1.64894e-22)
(14.9998 9.87853e-05 1.24225e-20)
(14.9998 0.00010305 1.22967e-20)
(14.9998 0.000107138 1.51083e-22)
(14.9998 0.000111261 1.25913e-20)
(14.9998 0.000115405 1.29911e-20)
(14.9998 0.000119304 -1.3073e-20)
(14.9998 0.000123378 1.46527e-22)
(14.9998 0.00012731 -2.03384e-20)
(14.9998 0.000131252 1.3077e-20)
(14.9998 0.000135325 -5.63882e-21)
(14.9998 0.000139091 2.6335e-20)
(14.9998 0.000143015 -2.63014e-20)
(14.9998 0.000146776 2.10302e-20)
(14.9998 0.000150415 5.02182e-21)
(14.9998 0.000154103 -1.25489e-22)
(14.9998 0.000157804 1.29876e-20)
(14.9998 0.000161325 4.32854e-21)
(14.9998 0.000165016 1.26916e-20)
(14.9998 0.000168549 -2.11533e-20)
(14.9998 0.000171872 -1.2597e-20)
(14.9998 0.000175354 2.99907e-20)
(14.9998 0.000178634 8.96416e-21)
(14.9998 0.000181998 2.41523e-20)
(14.9998 0.000185195 2.38657e-20)
(14.9998 0.000188513 -9.14538e-21)
(14.9998 0.000191623 -9.33042e-21)
(14.9998 0.000194671 -1.14341e-20)
(14.9998 0.000197699 -2.25203e-20)
(14.9998 0.000200747 9.47315e-21)
(14.9998 0.000203571 1.09743e-20)
(14.9998 0.000206513 -1.0775e-20)
(14.9999 0.000209351 1.05788e-20)
(14.9999 0.000211976 -7.83975e-23)
(14.9999 0.000214734 1.01495e-20)
(14.9999 0.00021733 -7.95779e-23)
(14.9999 0.000219946 9.70327e-21)
(14.9999 0.000222498 -1.95326e-20)
(14.9999 0.000224879 0)
(14.9999 0.000227425 -8.948e-21)
(14.9999 0.000229767 8.71616e-21)
(14.9999 0.000232023 8.47202e-21)
(14.9999 0.000234226 1.85794e-20)
(14.9999 0.000236371 -1.03402e-20)
(14.9999 0.000238423 -1.55702e-20)
(14.9999 0.000240429 1.80914e-20)
(14.9999 0.000242496 -2.11889e-20)
(14.9999 0.000244427 1.05468e-20)
(14.9999 0.000246152 2.41601e-20)
(14.9999 0.000248072 -4.32458e-21)
(14.9999 0.000249756 0)
(14.9999 0.000251414 0)
(14.9999 0.000252907 0)
(14.9999 0.000254502 -5.36053e-21)
(14.9999 0.000255981 0)
(14.9999 0.000257446 -6.16379e-21)
(14.9999 0.000258715 2.19667e-20)
(14.9999 0.000259924 8.58999e-21)
(14.9999 0.000261233 -3.72994e-20)
(14.9999 0.000262332 7.43064e-21)
(15 0.000263409 7.77696e-21)
(15 0.000264412 -1.11813e-20)
(15 0.000265409 -2.84015e-21)
(15 0.00026634 2.55155e-21)
(15 0.000267126 2.22826e-21)
(15 0.00026786 2.06932e-20)
(15 0.000268492 2.43427e-20)
(15 0.00026912 -1.00033e-20)
(15 0.000269634 -2.27928e-20)
(15 0.000270154 0)
(15 0.000270525 4.51979e-22)
(15 0.000270857 1.14643e-20)
(15 0.000271134 -1.44288e-22)
(15 0.000271356 -1.10235e-20)
(15 0.000271539 0)
(15 0.000271572 2.29564e-20)
(15 0.00027161 -5.43823e-21)
(15 0.000271532 -9.79569e-21)
(15 0.000271449 -3.94197e-21)
(15 0.000271261 -1.14607e-20)
(15 0.000271019 -1.40387e-20)
(15 0.000270627 5.76332e-21)
(15 0.000270168 3.14546e-21)
(15 0.000269699 1.14657e-20)
(15.0001 0.000269152 -3.82917e-21)
(15.0001 0.00026858 1.14889e-20)
(15.0001 0.00026779 -8.83456e-21)
(15.0001 0.0002671 -6.61486e-21)
(15.0001 0.000266344 -1.64324e-20)
(15.0001 0.000265382 5.37764e-21)
(15.0001 0.000264403 2.83652e-20)
(15.0001 0.000263299 -1.71867e-20)
(15.0001 0.000262298 -1.12644e-20)
(15.0001 0.000261119 1.29017e-20)
(15.0001 0.000259909 1.1276e-20)
(15.0001 0.000258448 4.16009e-21)
(15.0001 0.000257187 -3.70966e-20)
(15.0001 0.000255703 7.71922e-21)
(15.0001 0.00025407 3.15257e-21)
(15.0001 0.000252497 -2.22049e-20)
(15.0001 0.000250869 2.81119e-20)
(15.0001 0.000249135 2.20108e-21)
(15.0001 0.000247334 -1.0974e-20)
(15.0001 0.00024547 -7.60284e-21)
(15.0001 0.000243508 2.04787e-20)
(15.0001 0.000241318 -2.07693e-20)
(15.0001 0.0002393 9.4289e-21)
(15.0001 0.000237089 1.08415e-20)
(15.0002 0.000234801 1.07094e-20)
(15.0002 0.000232527 -2.16542e-20)
(15.0002 0.000230069 -3.24627e-20)
(15.0002 0.000227746 1.03519e-22)
(15.0002 0.000225183 1.05115e-20)
(15.0002 0.000222497 0)
(15.0002 0.000219929 1.2132e-20)
(15.0002 0.000217107 0)
(15.0002 0.000214295 -1.03597e-20)
(15.0002 0.000211453 1.29317e-20)
(15.0002 0.00020853 -2.91166e-21)
(15.0002 0.000205364 1.32374e-20)
(15.0002 0.000202322 1.00785e-20)
(15.0002 0.000199082 -2.73538e-20)
(15.0002 0.000195922 -5.902e-21)
(15.0002 0.000192525 4.28566e-21)
(15.0002 0.000189292 2.39055e-20)
(15.0002 0.000185809 -4.77668e-21)
(15.0002 0.000182135 0)
(15.0002 0.000178637 5.12092e-21)
(15.0002 0.000174921 2.41846e-20)
(15.0002 0.000171203 2.37309e-20)
(15.0002 0.000167525 -2.38799e-20)
(15.0002 0.000163694 5.97273e-21)
(15.0002 0.000159657 1.55536e-22)
(15.0002 0.000155784 8.59243e-21)
(15.0002 0.00015154 -8.60073e-21)
(15.0002 0.000147427 1.71009e-20)
(15.0002 0.000143307 1.01946e-21)
(15.0002 0.000139002 -3.1223e-20)
(15.0002 0.000134881 -7.82426e-21)
(15.0002 0.000130453 -7.13136e-21)
(15.0002 0.000126026 -1.77962e-22)
(15.0002 0.000121619 1.9278e-22)
(15.0002 0.000116979 7.08834e-21)
(15.0002 0.000112356 2.39373e-25)
(15.0002 0.000107662 -4.19392e-20)
(15.0002 0.00010306 2.15116e-20)
(15.0002 9.8355e-05 -2.09673e-20)
(15.0002 9.34344e-05 1.94053e-20)
(15.0002 8.8744e-05 -1.90009e-20)
(15.0002 8.38112e-05 1.60321e-21)
(15.0002 7.90743e-05 1.74622e-20)
(15.0002 7.40631e-05 -1.57826e-21)
(15.0002 6.91911e-05 -1.12663e-20)
(15.0002 6.43259e-05 1.07301e-20)
(15.0002 5.94814e-05 4.02436e-21)
(15.0002 5.4369e-05 -5.39124e-21)
(15.0002 4.95434e-05 -2.0979e-20)
(15.0002 4.48089e-05 9.7011e-21)
(15.0002 3.9988e-05 -7.2073e-21)
(15.0002 3.54515e-05 3.85537e-21)
(15.0002 3.08474e-05 8.12336e-21)
(15.0002 2.66252e-05 -3.28936e-21)
(15.0002 2.26774e-05 1.03819e-21)
(15.0001 1.875e-05 3.62273e-21)
(15.0001 1.52992e-05 -4.03338e-21)
(15.0001 1.21665e-05 2.38962e-21)
(15.0001 9.58419e-06 1.07854e-21)
(15.0001 7.12874e-06 1.53017e-21)
(15.0001 4.50978e-06 -7.34952e-22)
(15.0001 1.91421e-06 -4.84302e-22)
(15 7.13662e-07 2.418e-22)
(15 8.09435e-08 -2.84747e-23)
(14.999 5.77986e-06 4.26115e-23)
(14.9996 1.40639e-05 -4.80664e-22)
(14.9998 8.08702e-06 -1.19363e-22)
(14.9997 1.34532e-05 -1.99318e-21)
(14.9996 2.46768e-05 2.83366e-21)
(14.9996 3.56042e-05 -2.11752e-21)
(14.9995 4.45699e-05 -4.56098e-21)
(14.9995 5.32417e-05 1.71362e-22)
(14.9995 6.22435e-05 1.55951e-21)
(14.9995 7.19508e-05 3.65647e-22)
(14.9995 8.17885e-05 -5.25719e-21)
(14.9995 9.18829e-05 2.81334e-21)
(14.9995 0.000102447 8.48883e-21)
(14.9995 0.000113174 -5.72053e-21)
(14.9994 0.000124394 2.36235e-20)
(14.9994 0.000135768 2.06619e-21)
(14.9994 0.000147293 -1.55722e-20)
(14.9994 0.000159243 -2.15872e-21)
(14.9994 0.00017114 1.03026e-20)
(14.9994 0.000183188 -4.48611e-23)
(14.9994 0.000195309 -5.51158e-21)
(14.9994 0.00020769 -1.92813e-20)
(14.9994 0.000219865 -1.37021e-20)
(14.9994 0.000232297 -4.24873e-23)
(14.9994 0.000244538 -6.3617e-21)
(14.9994 0.000257046 1.29733e-20)
(14.9994 0.0002695 5.43434e-22)
(14.9994 0.000281834 4.00005e-22)
(14.9994 0.000294181 -7.64399e-21)
(14.9994 0.000306532 -7.27098e-21)
(14.9994 0.000318863 7.29021e-21)
(14.9994 0.000331037 3.77623e-22)
(14.9994 0.000343257 -2.33557e-20)
(14.9994 0.000355439 6.19484e-20)
(14.9994 0.000367305 8.21016e-21)
(14.9994 0.000379308 1.5308e-20)
(14.9994 0.000391042 -1.6692e-20)
(14.9994 0.000402777 -2.96413e-22)
(14.9994 0.00041469 1.54948e-20)
(14.9994 0.000426103 3.86234e-20)
(14.9994 0.000437698 2.42879e-20)
(14.9994 0.000449 -3.18914e-21)
(14.9994 0.000460104 1.48545e-20)
(14.9994 0.000471178 0)
(14.9994 0.000482205 5.36734e-21)
(14.9994 0.000492941 -9.46299e-21)
(14.9994 0.000503844 3.31808e-20)
(14.9994 0.000514358 -1.8506e-20)
(14.9994 0.000524576 -3.3358e-20)
(14.9995 0.000534948 9.59409e-21)
(14.9995 0.000545073 1.3867e-20)
(14.9995 0.000555071 6.92601e-21)
(14.9995 0.000564779 4.64251e-20)
(14.9995 0.000574659 2.33212e-20)
(14.9995 0.000584103 -1.08983e-22)
(14.9995 0.000593432 7.84204e-21)
(14.9995 0.000602665 -1.01866e-20)
(14.9995 0.000611709 -2.08858e-20)
(14.9995 0.000620458 3.43633e-20)
(14.9995 0.000629276 2.35674e-20)
(14.9995 0.000637786 8.82522e-22)
(14.9995 0.000646005 0)
(14.9996 0.000654288 1.10364e-20)
(14.9996 0.000662248 -1.07784e-20)
(14.9996 0.000670099 2.13219e-20)
(14.9996 0.000677747 6.15612e-23)
(14.9996 0.000685216 -7.8783e-23)
(14.9996 0.000692675 -2.06372e-20)
(14.9996 0.000699782 -2.21838e-20)
(14.9996 0.000706683 4.65469e-24)
(14.9996 0.000713382 2.22616e-20)
(14.9997 0.000719997 2.24994e-20)
(14.9997 0.000726349 -1.12614e-20)
(14.9997 0.000732454 4.8857e-21)
(14.9997 0.0007386 -1.13319e-20)
(14.9997 0.000744437 -1.89904e-20)
(14.9997 0.000749949 7.28105e-21)
(14.9997 0.000755586 1.14813e-20)
(14.9997 0.00076079 1.82618e-20)
(14.9997 0.00076583 -6.39542e-21)
(14.9998 0.000770554 1.77192e-20)
(14.9998 0.000775291 5.84435e-21)
(14.9998 0.000779788 -2.89273e-20)
(14.9998 0.000784152 -1.17675e-20)
(14.9998 0.000788126 1.17715e-20)
(14.9998 0.000791935 2.10534e-20)
(14.9998 0.000795714 -2.70127e-24)
(14.9998 0.000799219 1.18851e-20)
(14.9999 0.000802466 2.93609e-23)
(14.9999 0.000805544 -1.53396e-20)
(14.9999 0.000808578 -1.50394e-20)
(14.9999 0.000811273 -2.6783e-20)
(14.9999 0.000813697 2.1629e-20)
(14.9999 0.000815924 2.41711e-20)
(14.9999 0.000817983 5.37538e-21)
(14.9999 0.000819988 4.43443e-21)
(15 0.000821605 -1.33332e-20)
(15 0.000823141 -1.2192e-20)
(15 0.000824273 -4.02479e-24)
(15 0.000825309 1.20547e-20)
(15 0.000826166 1.2112e-20)
(15 0.000826843 -3.65647e-24)
(15 0.000827422 -1.22548e-20)
(15 0.000827595 -2.45338e-20)
(15.0001 0.000827684 9.39474e-21)
(15.0001 0.000827378 1.04525e-20)
(15.0001 0.000827015 -1.43143e-20)
(15.0001 0.000826478 -2.27268e-23)
(15.0001 0.000825735 9.51428e-21)
(15.0001 0.000824713 2.4447e-20)
(15.0001 0.000823337 -2.78654e-20)
(15.0002 0.000821912 -1.21626e-20)
(15.0002 0.000820304 -2.29583e-23)
(15.0002 0.000818426 4.40251e-21)
(15.0002 0.000816257 2.76957e-21)
(15.0002 0.000814048 1.00437e-20)
(15.0002 0.000811659 -1.21875e-20)
(15.0002 0.000808856 5.70651e-21)
(15.0002 0.000805905 1.31735e-22)
(15.0003 0.000802692 -6.3183e-21)
(15.0003 0.000799481 3.08858e-20)
(15.0003 0.000795927 -9.53251e-23)
(15.0003 0.000792188 -2.40733e-20)
(15.0003 0.00078798 -1.96726e-20)
(15.0003 0.000783889 4.29058e-23)
(15.0003 0.00077944 2.84103e-20)
(15.0003 0.000774648 -8.54825e-21)
(15.0004 0.000769882 1.19921e-20)
(15.0004 0.000764837 1.829e-20)
(15.0004 0.000759493 -2.13308e-20)
(15.0004 0.000754041 -2.37965e-20)
(15.0004 0.000748353 3.39718e-20)
(15.0004 0.000742425 2.33418e-20)
(15.0004 0.000736095 -1.05554e-20)
(15.0004 0.000729733 -1.31951e-22)
(15.0005 0.000723154 -2.34693e-22)
(15.0005 0.000716332 -1.17148e-20)
(15.0005 0.000709368 -3.51785e-20)
(15.0005 0.000702026 6.60221e-22)
(15.0005 0.000694728 3.65725e-20)
(15.0005 0.000687085 2.42175e-20)
(15.0005 0.000679075 -1.56469e-21)
(15.0005 0.000671114 -1.04537e-22)
(15.0005 0.000662796 2.33307e-21)
(15.0006 0.00065424 0)
(15.0006 0.000645544 2.88182e-21)
(15.0006 0.000636688 1.13674e-20)
(15.0006 0.000627314 1.0947e-20)
(15.0006 0.000618095 -2.21421e-20)
(15.0006 0.000608516 -4.02297e-21)
(15.0006 0.000598756 1.07409e-20)
(15.0006 0.000588681 4.8888e-21)
(15.0006 0.000578739 2.09165e-20)
(15.0006 0.000568422 -1.59675e-20)
(15.0006 0.000557624 2.12923e-20)
(15.0007 0.000546969 -1.66374e-20)
(15.0007 0.000535938 2.74839e-20)
(15.0007 0.000524808 -2.76987e-20)
(15.0007 0.000513594 7.16896e-21)
(15.0007 0.000502104 1.68921e-20)
(15.0007 0.000490227 2.48963e-20)
(15.0007 0.000478506 9.89672e-21)
(15.0007 0.000466154 7.63926e-21)
(15.0007 0.00045395 1.00661e-20)
(15.0007 0.000441689 9.30867e-21)
(15.0007 0.000429056 -2.73332e-20)
(15.0007 0.000416522 -2.74111e-20)
(15.0007 0.000403553 9.51504e-21)
(15.0007 0.000390474 -9.17747e-21)
(15.0007 0.000377383 2.25938e-22)
(15.0007 0.000364034 -9.22765e-21)
(15.0007 0.000350592 -5.31258e-20)
(15.0007 0.000337078 3.9432e-22)
(15.0007 0.000323504 2.64046e-20)
(15.0007 0.000309706 1.80328e-20)
(15.0007 0.00029576 1.51896e-20)
(15.0007 0.000282052 -4.14486e-20)
(15.0007 0.000268025 1.67071e-20)
(15.0007 0.000254222 9.10277e-21)
(15.0007 0.000240071 1.61641e-20)
(15.0007 0.000226146 1.30963e-20)
(15.0007 0.000212209 -8.77617e-21)
(15.0007 0.000198355 -6.10711e-21)
(15.0007 0.000184328 -1.92749e-20)
(15.0007 0.000170722 -1.53827e-20)
(15.0007 0.000157194 -5.53909e-21)
(15.0007 0.000143743 -1.52861e-20)
(15.0007 0.000130792 3.73422e-21)
(15.0007 0.000117935 -3.53157e-21)
(15.0007 0.000105556 3.36612e-21)
(15.0006 9.33739e-05 -2.20664e-22)
(15.0006 8.12339e-05 -4.75974e-21)
(15.0006 6.98881e-05 3.43214e-21)
(15.0006 5.88637e-05 1.01345e-20)
(15.0006 4.72812e-05 -8.73262e-22)
(15.0005 3.28613e-05 -1.50784e-22)
(15.0004 1.7824e-05 -2.62045e-21)
(15.0003 1.0883e-05 1.3622e-21)
(15.0005 1.92217e-05 -2.21925e-22)
(15.0014 8.13287e-06 -1.98807e-22)
(14.9982 3.26559e-06 8.11936e-23)
(14.9991 2.69815e-05 7.60491e-23)
(14.9995 2.3753e-05 3.78614e-22)
(14.9995 2.30806e-05 -1.15723e-21)
(14.9993 3.56559e-05 -1.17633e-21)
(14.9992 5.51123e-05 4.99948e-21)
(14.9992 7.33589e-05 -1.29429e-21)
(14.9992 8.97208e-05 0)
(14.9991 0.000105776 -9.86184e-21)
(14.9991 0.000122673 1.52992e-20)
(14.9991 0.000139961 -1.34999e-20)
(14.9991 0.000157523 2.9789e-21)
(14.9991 0.000175421 3.11512e-21)
(14.999 0.000193649 -1.23688e-20)
(14.999 0.0002125 9.37215e-21)
(14.999 0.0002316 4.52416e-21)
(14.999 0.000250875 -2.23049e-20)
(14.999 0.00027063 -2.30197e-20)
(14.999 0.00029042 6.96268e-21)
(14.999 0.000310455 7.36878e-21)
(14.999 0.000330674 2.583e-20)
(14.999 0.000351079 5.95021e-21)
(14.999 0.000371486 7.76304e-21)
(14.9989 0.00039208 -1.42099e-20)
(14.9989 0.000412485 6.60428e-21)
(14.9989 0.000433136 -2.91e-20)
(14.9989 0.000453813 2.95417e-20)
(14.9989 0.000474299 6.95439e-21)
(14.9989 0.000494771 7.32908e-21)
(14.9989 0.000515319 -7.3641e-21)
(14.9989 0.000535728 -1.55103e-20)
(14.9989 0.000556099 2.32138e-20)
(14.9989 0.000576455 -3.89212e-20)
(14.9989 0.000596727 -2.39396e-20)
(14.9989 0.000616651 3.2033e-20)
(14.999 0.000636708 3.09207e-20)
(14.999 0.000656376 1.54509e-20)
(14.999 0.000675973 -8.54443e-21)
(14.999 0.000695694 6.6146e-21)
(14.999 0.000714916 -3.05532e-20)
(14.999 0.000734121 3.93624e-20)
(14.999 0.000753142 9.13538e-21)
(14.999 0.000771839 1.49969e-20)
(14.999 0.000790546 1.48959e-20)
(14.999 0.000809019 0)
(14.999 0.000827067 -9.43498e-21)
(14.999 0.000845172 4.38971e-21)
(14.999 0.000862879 2.43077e-20)
(14.9991 0.000880264 -1.96745e-20)
(14.9991 0.000897587 -1.40302e-20)
(14.9991 0.000914678 1.77952e-20)
(14.9991 0.000931579 -2.37344e-20)
(14.9991 0.000947917 -1.68728e-20)
(14.9991 0.000964377 3.67673e-20)
(14.9991 0.000980383 1.02194e-20)
(14.9991 0.000996223 1.2966e-20)
(14.9992 0.00101169 2.7435e-20)
(14.9992 0.00102694 1.96347e-21)
(14.9992 0.00104186 -2.11262e-20)
(14.9992 0.00105663 2.24861e-20)
(14.9992 0.00107102 3.32314e-20)
(14.9992 0.001085 1.14714e-20)
(14.9993 0.00109891 1.07808e-20)
(14.9993 0.00111248 7.6902e-23)
(14.9993 0.0011257 -3.24666e-20)
(14.9993 0.0011386 2.09556e-20)
(14.9993 0.00115128 1.10276e-20)
(14.9993 0.0011637 1.00165e-20)
(14.9994 0.00117574 -2.09198e-20)
(14.9994 0.00118743 -1.33091e-23)
(14.9994 0.00119884 2.12331e-21)
(14.9994 0.00121007 -1.12397e-20)
(14.9994 0.00122093 -1.42779e-20)
(14.9994 0.0012313 1.97201e-20)
(14.9995 0.00124149 1.9533e-20)
(14.9995 0.00125146 -7.72706e-21)
(14.9995 0.001261 -7.4373e-21)
(14.9995 0.00127028 -2.58814e-20)
(14.9995 0.00127915 4.7735e-21)
(14.9996 0.00128776 -6.43576e-21)
(14.9996 0.00129585 -2.35674e-20)
(14.9996 0.00130383 2.95247e-20)
(14.9996 0.00131147 6.2758e-22)
(14.9996 0.00131882 -2.3792e-20)
(14.9997 0.00132558 -3.9704e-23)
(14.9997 0.00133214 2.91714e-23)
(14.9997 0.00133844 -1.6425e-20)
(14.9997 0.00134446 1.20244e-20)
(14.9997 0.00135002 2.03745e-20)
(14.9998 0.00135527 3.48815e-21)
(14.9998 0.00136026 3.12162e-21)
(14.9998 0.00136478 1.62792e-23)
(14.9998 0.00136899 -1.47193e-20)
(14.9999 0.00137284 -2.22923e-20)
(14.9999 0.0013764 -1.22905e-20)
(14.9999 0.00137975 3.68749e-20)
(14.9999 0.00138251 1.11309e-20)
(14.9999 0.00138499 -1.23414e-20)
(15 0.00138701 1.18279e-20)
(15 0.00138887 2.10664e-22)
(15 0.00139033 -1.25319e-20)
(15 0.00139139 4.61978e-22)
(15.0001 0.00139228 0)
(15.0001 0.00139271 1.12174e-21)
(15.0001 0.00139285 -1.09553e-20)
(15.0001 0.00139241 -1.77907e-21)
(15.0001 0.00139173 1.45292e-20)
(15.0002 0.00139075 -1.73205e-20)
(15.0002 0.00138941 -1.23809e-20)
(15.0002 0.00138773 8.04833e-25)
(15.0002 0.00138557 -1.05367e-23)
(15.0003 0.00138314 2.4768e-20)
(15.0003 0.00138036 1.23126e-20)
(15.0003 0.00137711 -1.23309e-20)
(15.0003 0.00137355 1.23512e-20)
(15.0003 0.00136972 1.74162e-20)
(15.0004 0.00136565 -2.46732e-20)
(15.0004 0.00136096 -1.87911e-20)
(15.0004 0.00135595 6.20176e-21)
(15.0004 0.00135056 3.09456e-20)
(15.0005 0.00134504 6.70133e-21)
(15.0005 0.00133896 -1.92904e-20)
(15.0005 0.00133257 0)
(15.0005 0.00132574 1.22262e-20)
(15.0005 0.0013186 2.02074e-20)
(15.0006 0.00131099 -1.21635e-20)
(15.0006 0.00130311 -1.20861e-20)
(15.0006 0.00129501 1.21265e-20)
(15.0006 0.00128637 -1.87523e-20)
(15.0006 0.0012773 -1.20032e-20)
(15.0007 0.001268 1.20403e-20)
(15.0007 0.00125836 2.22527e-20)
(15.0007 0.00124832 -3.318e-20)
(15.0007 0.00123784 -9.55946e-22)
(15.0007 0.00122703 -1.05338e-20)
(15.0008 0.00121594 1.1437e-20)
(15.0008 0.00120447 -2.35789e-20)
(15.0008 0.00119258 1.18012e-20)
(15.0008 0.00118028 2.41036e-20)
(15.0008 0.00116785 1.27375e-20)
(15.0009 0.00115492 -1.03438e-20)
(15.0009 0.00114154 -1.14179e-20)
(15.0009 0.00112792 3.65979e-20)
(15.0009 0.00111391 -1.10973e-22)
(15.0009 0.0010996 -1.13625e-20)
(15.001 0.00108482 0)
(15.001 0.0010698 2.93069e-20)
(15.001 0.00105421 -2.98469e-20)
(15.001 0.0010387 0)
(15.001 0.00102251 1.54245e-20)
(15.001 0.00100603 -1.56712e-20)
(15.0011 0.000989222 1.10553e-20)
(15.0011 0.000972277 5.01156e-21)
(15.0011 0.000954901 2.20398e-20)
(15.0011 0.000937001 -1.52009e-22)
(15.0011 0.000919091 -3.33243e-20)
(15.0011 0.000900619 1.04986e-20)
(15.0011 0.000881802 -4.07658e-20)
(15.0012 0.000862914 2.75926e-20)
(15.0012 0.000843569 -1.74076e-20)
(15.0012 0.000823928 -1.0217e-20)
(15.0012 0.000804177 -1.75082e-20)
(15.0012 0.000783757 7.57875e-21)
(15.0012 0.000763385 2.82451e-20)
(15.0012 0.000742835 -8.74692e-21)
(15.0012 0.000721728 -4.67049e-20)
(15.0012 0.000700675 -3.60189e-20)
(15.0012 0.000679107 2.7372e-20)
(15.0012 0.000657329 -3.62966e-20)
(15.0013 0.00063542 0)
(15.0013 0.00061335 -2.70328e-20)
(15.0013 0.000590992 -8.9782e-21)
(15.0013 0.000568604 3.46629e-20)
(15.0013 0.000546068 -1.77176e-20)
(15.0013 0.000523173 2.69497e-20)
(15.0013 0.000500171 -3.31336e-20)
(15.0013 0.000477326 1.72876e-20)
(15.0013 0.000454107 2.40326e-20)
(15.0013 0.000430965 2.37315e-20)
(15.0013 0.000407672 2.28676e-20)
(15.0013 0.000384443 2.0708e-21)
(15.0013 0.000361275 4.235e-22)
(15.0013 0.000338243 -8.92952e-21)
(15.0012 0.000315078 8.31701e-21)
(15.0012 0.000292322 0)
(15.0012 0.000269604 -1.75714e-20)
(15.0012 0.000247002 2.34022e-20)
(15.0012 0.000224984 -1.09484e-20)
(15.0012 0.000203182 -5.55471e-21)
(15.0012 0.000181602 2.93396e-21)
(15.0011 0.000160124 -2.09515e-20)
(15.0011 0.000138943 2.7635e-21)
(15.0011 0.000118628 7.12889e-21)
(15.0011 9.76382e-05 1.17156e-21)
(15.001 7.37793e-05 1.51026e-22)
(15.0009 4.79207e-05 -1.60568e-21)
(15.0007 3.12068e-05 6.45542e-22)
(15.0007 3.27459e-05 -8.88139e-23)
(15.0012 3.73123e-05 -9.54446e-22)
(15.0025 4.68099e-06 7.18101e-23)
(14.9976 5.2384e-06 -7.14412e-23)
(14.9985 3.06847e-05 3.69265e-22)
(14.9991 4.18857e-05 0)
(14.9992 3.85463e-05 0)
(14.9991 4.5639e-05 -5.9961e-22)
(14.9989 6.86542e-05 -9.67171e-22)
(14.9988 9.6075e-05 -2.13423e-21)
(14.9988 0.000121124 -1.04976e-21)
(14.9988 0.000144602 -3.36497e-21)
(14.9987 0.000168663 5.28332e-21)
(14.9987 0.000193313 -3.67088e-21)
(14.9987 0.00021839 -3.18721e-21)
(14.9987 0.000243816 -4.93238e-21)
(14.9986 0.000269747 2.98225e-23)
(14.9986 0.000296287 -1.9537e-20)
(14.9986 0.000323155 1.45636e-20)
(14.9986 0.000350315 4.60362e-21)
(14.9986 0.000377981 6.8958e-21)
(14.9985 0.000405853 -1.7331e-20)
(14.9985 0.000433985 7.36598e-21)
(14.9985 0.000462244 -2.62749e-20)
(14.9985 0.000490822 2.21653e-22)
(14.9985 0.000519484 5.80449e-21)
(14.9985 0.000548408 -7.5049e-21)
(14.9985 0.000577092 1.41365e-20)
(14.9985 0.000606013 2.01961e-22)
(14.9985 0.000634957 -2.86538e-20)
(14.9985 0.000663784 -1.5163e-20)
(14.9985 0.000692501 7.41883e-21)
(14.9985 0.000721407 2.84334e-23)
(14.9985 0.000750153 0)
(14.9985 0.000778767 1.54852e-20)
(14.9985 0.000807313 2.33813e-20)
(14.9985 0.000835785 -1.54845e-20)
(14.9985 0.00086396 -1.64827e-20)
(14.9985 0.000892116 -1.57363e-20)
(14.9985 0.000919955 -1.54099e-20)
(14.9985 0.000947675 -1.57131e-20)
(14.9985 0.000975346 2.01928e-21)
(14.9986 0.00100248 -3.07878e-20)
(14.9986 0.00102957 -2.45031e-20)
(14.9986 0.00105635 6.24361e-21)
(14.9986 0.0010828 5.89775e-21)
(14.9986 0.00110924 9.29729e-21)
(14.9986 0.00113537 1.51103e-20)
(14.9986 0.00116093 -1.27524e-22)
(14.9986 0.00118647 9.71043e-21)
(14.9987 0.00121152 2.91406e-20)
(14.9987 0.00123629 1.43888e-20)
(14.9987 0.00126076 -9.88423e-21)
(14.9987 0.00128496 1.39302e-20)
(14.9987 0.00130879 -7.51729e-21)
(14.9987 0.00133219 -1.00632e-20)
(14.9988 0.00135543 -1.0457e-20)
(14.9988 0.00137812 1.04319e-20)
(14.9988 0.00140058 1.57585e-20)
(14.9988 0.00142246 -1.05589e-20)
(14.9988 0.00144414 2.31819e-20)
(14.9989 0.00146541 -1.69473e-21)
(14.9989 0.00148632 -3.50455e-20)
(14.9989 0.00150679 -1.08467e-20)
(14.9989 0.00152678 1.08528e-20)
(14.9989 0.00154649 1.10031e-20)
(14.999 0.00156572 3.31262e-20)
(14.999 0.00158455 -1.08913e-20)
(14.999 0.00160301 -2.24457e-20)
(14.999 0.00162097 8.20701e-22)
(14.9991 0.00163854 1.01614e-20)
(14.9991 0.00165574 -1.12791e-20)
(14.9991 0.00167249 9.54816e-21)
(14.9991 0.00168879 2.287e-20)
(14.9992 0.00170463 1.81725e-20)
(14.9992 0.0017201 -3.18402e-20)
(14.9992 0.00173496 -2.01014e-20)
(14.9992 0.00174942 1.16184e-20)
(14.9993 0.00176361 3.82484e-21)
(14.9993 0.00177727 1.17054e-20)
(14.9993 0.00179039 4.49857e-21)
(14.9994 0.00180301 -1.40197e-20)
(14.9994 0.0018153 1.55608e-21)
(14.9994 0.00182699 -2.47521e-20)
(14.9994 0.00183833 1.77774e-20)
(14.9995 0.00184917 -6.10442e-21)
(14.9995 0.00185961 -3.61543e-20)
(14.9995 0.00186936 6.91166e-21)
(14.9996 0.00187877 2.4246e-20)
(14.9996 0.00188771 2.39999e-23)
(14.9996 0.00189623 7.94059e-21)
(14.9996 0.00190422 -1.21618e-20)
(14.9997 0.00191174 -3.32605e-20)
(14.9997 0.00191872 3.23437e-21)
(14.9997 0.00192526 2.55897e-24)
(14.9998 0.00193139 1.23594e-20)
(14.9998 0.00193693 1.24041e-20)
(14.9998 0.00194198 6.67734e-21)
(14.9999 0.00194663 9.30073e-21)
(14.9999 0.00195058 -1.12332e-20)
(14.9999 0.00195413 -1.25174e-20)
(15 0.00195708 -1.25331e-20)
(15 0.00195979 -1.23292e-20)
(15 0.00196187 3.76058e-20)
(15 0.00196333 1.25674e-20)
(15.0001 0.00196454 -1.33554e-20)
(15.0001 0.00196514 -1.25792e-20)
(15.0001 0.00196534 -1.40202e-20)
(15.0002 0.00196483 1.43769e-20)
(15.0002 0.0019639 -2.94558e-20)
(15.0002 0.00196246 -1.25429e-20)
(15.0003 0.00196041 4.05005e-20)
(15.0003 0.00195793 2.50717e-20)
(15.0003 0.00195499 -2.1579e-20)
(15.0004 0.00195148 -4.77451e-21)
(15.0004 0.00194747 -3.57748e-23)
(15.0004 0.0019429 2.93143e-23)
(15.0005 0.00193787 2.50061e-20)
(15.0005 0.00193234 -5.24334e-21)
(15.0005 0.00192642 -1.79953e-20)
(15.0005 0.00191977 -6.58873e-21)
(15.0006 0.00191269 1.87433e-20)
(15.0006 0.00190505 2.48218e-20)
(15.0006 0.00189701 0)
(15.0007 0.00188831 -1.24021e-20)
(15.0007 0.00187924 -4.78228e-21)
(15.0007 0.0018696 0)
(15.0008 0.00185936 -8.22155e-21)
(15.0008 0.00184851 -8.55187e-21)
(15.0008 0.00183735 -8.87048e-21)
(15.0009 0.00182571 -1.22745e-20)
(15.0009 0.00181338 -9.45462e-21)
(15.0009 0.00180062 1.21512e-20)
(15.0009 0.00178732 -1.2203e-20)
(15.001 0.00177349 5.68184e-23)
(15.001 0.00175911 1.33569e-20)
(15.001 0.00174429 1.10362e-20)
(15.0011 0.00172899 9.34753e-23)
(15.0011 0.0017131 -2.35399e-20)
(15.0011 0.00169675 -1.18772e-20)
(15.0011 0.00167989 0)
(15.0012 0.00166245 -1.40594e-23)
(15.0012 0.00164464 -1.09377e-21)
(15.0012 0.00162624 -2.65657e-20)
(15.0012 0.00160729 3.89058e-20)
(15.0013 0.00158786 1.35798e-20)
(15.0013 0.00156791 -5.12591e-20)
(15.0013 0.00154767 0)
(15.0014 0.0015267 1.15565e-20)
(15.0014 0.00150538 3.27984e-21)
(15.0014 0.00148338 3.95769e-21)
(15.0014 0.00146111 1.12179e-20)
(15.0014 0.00143827 -1.56473e-20)
(15.0015 0.00141492 0)
(15.0015 0.00139117 1.11586e-20)
(15.0015 0.00136699 -5.41011e-21)
(15.0015 0.00134238 5.59432e-21)
(15.0016 0.00131712 -3.84627e-20)
(15.0016 0.00129173 1.71241e-20)
(15.0016 0.00126558 -1.69324e-22)
(15.0016 0.00123896 -1.71677e-20)
(15.0016 0.00121222 1.03614e-20)
(15.0016 0.00118497 -1.04924e-20)
(15.0017 0.00115724 -1.02221e-20)
(15.0017 0.00112933 3.84134e-20)
(15.0017 0.00110067 9.75394e-21)
(15.0017 0.00107182 8.31043e-21)
(15.0017 0.00104269 -2.81378e-20)
(15.0017 0.00101305 -3.75878e-20)
(15.0017 0.000983233 2.80504e-20)
(15.0018 0.000952922 -9.25374e-21)
(15.0018 0.000922363 1.89092e-22)
(15.0018 0.000891563 8.95337e-21)
(15.0018 0.000860442 0)
(15.0018 0.000828958 3.62625e-20)
(15.0018 0.000797526 -1.80153e-20)
(15.0018 0.000765778 -1.78629e-20)
(15.0018 0.000733703 -3.53089e-20)
(15.0018 0.000701463 -9.35969e-21)
(15.0018 0.000669308 2.48021e-20)
(15.0018 0.000636658 -1.67951e-20)
(15.0018 0.000604111 -7.27465e-21)
(15.0018 0.000571448 -1.58463e-20)
(15.0018 0.000538949 -2.47826e-20)
(15.0018 0.000506375 2.38136e-20)
(15.0018 0.000473875 2.39616e-22)
(15.0018 0.000441382 -2.49521e-22)
(15.0018 0.000409253 1.34783e-20)
(15.0018 0.00037723 1.72957e-20)
(15.0017 0.000345331 6.93553e-21)
(15.0017 0.000313915 2.31932e-21)
(15.0017 0.000282843 -9.42876e-21)
(15.0017 0.000251893 -9.02451e-21)
(15.0016 0.00022116 2.24892e-22)
(15.0016 0.000190866 8.93458e-21)
(15.0016 0.000160963 -1.09887e-20)
(15.0015 0.000128512 4.42849e-21)
(15.0014 9.23611e-05 1.67531e-23)
(15.0013 6.17915e-05 0)
(15.0011 5.27426e-05 -6.7013e-22)
(15.0012 5.80301e-05 -8.38674e-22)
(15.002 4.25893e-05 1.48248e-22)
(15.0033 7.46498e-06 1.06052e-22)
(14.9971 5.26221e-06 -1.1633e-22)
(14.998 3.22235e-05 -5.52243e-22)
(14.9986 5.75211e-05 0)
(14.9989 5.94359e-05 1.20328e-21)
(14.9988 5.98094e-05 6.18284e-22)
(14.9986 7.99903e-05 -1.59388e-21)
(14.9985 0.000113492 -3.38121e-21)
(14.9984 0.000147638 -1.47736e-21)
(14.9984 0.000179192 1.25955e-21)
(14.9984 0.00021056 -6.08189e-21)
(14.9983 0.000242514 9.4097e-21)
(14.9983 0.000274996 -4.75961e-21)
(14.9982 0.000307908 1.16561e-20)
(14.9982 0.000341452 -3.38893e-23)
(14.9982 0.000375593 5.96244e-21)
(14.9982 0.000410278 -4.34626e-21)
(14.9982 0.000445321 2.21931e-20)
(14.9981 0.000480795 1.63755e-20)
(14.9981 0.000516641 -4.79283e-21)
(14.9981 0.000552966 -4.12385e-22)
(14.9981 0.000589448 -7.18246e-21)
(14.9981 0.000626154 -5.98451e-21)
(14.9981 0.000663133 -1.386e-20)
(14.9981 0.000700324 -6.1861e-21)
(14.9981 0.000737344 -1.46079e-20)
(14.9981 0.000774574 2.81724e-20)
(14.998 0.000811934 -7.8886e-21)
(14.998 0.0008492 -1.51426e-20)
(14.998 0.000886307 -1.52705e-20)
(14.998 0.000923717 -2.28116e-20)
(14.998 0.000960835 -7.76447e-21)
(14.9981 0.000997853 0)
(14.9981 0.00103478 -2.35527e-20)
(14.9981 0.00107158 -1.5825e-20)
(14.9981 0.00110815 8.42089e-22)
(14.9981 0.00114464 -7.28513e-21)
(14.9981 0.00118074 -1.57703e-20)
(14.9981 0.00121671 -2.43421e-20)
(14.9981 0.00125246 -1.583e-20)
(14.9981 0.00128773 3.13754e-20)
(14.9981 0.00132288 -2.60029e-21)
(14.9981 0.00135779 -2.47308e-20)
(14.9982 0.00139218 -6.14962e-21)
(14.9982 0.00142645 1.3904e-22)
(14.9982 0.00146044 -1.24477e-22)
(14.9982 0.00149368 -1.49106e-20)
(14.9982 0.00152679 1.47625e-20)
(14.9983 0.00155953 -1.46167e-20)
(14.9983 0.00159172 1.44864e-20)
(14.9983 0.00162362 1.38229e-22)
(14.9983 0.00165517 9.93396e-21)
(14.9983 0.00168613 1.43303e-20)
(14.9984 0.00171673 3.43069e-21)
(14.9984 0.00174697 -3.27491e-21)
(14.9984 0.00177659 3.09917e-21)
(14.9984 0.00180585 1.31916e-20)
(14.9985 0.00183451 -1.29806e-20)
(14.9985 0.00186274 -1.29691e-20)
(14.9985 0.00189049 2.34504e-20)
(14.9985 0.00191775 0)
(14.9986 0.0019445 -1.21686e-20)
(14.9986 0.00197078 -2.38424e-20)
(14.9986 0.0019965 1.16672e-20)
(14.9987 0.00202157 -1.14158e-20)
(14.9987 0.00204623 2.2341e-20)
(14.9987 0.00207041 1.12128e-20)
(14.9987 0.0020939 1.07131e-20)
(14.9988 0.00211685 -1.06538e-21)
(14.9988 0.00213931 -1.1399e-20)
(14.9988 0.00216132 -1.96913e-20)
(14.9989 0.00218269 9.60654e-21)
(14.9989 0.00220328 9.18782e-21)
(14.9989 0.00222347 2.7456e-21)
(14.999 0.00224309 -8.67442e-21)
(14.999 0.00226207 -5.01246e-21)
(14.9991 0.00228054 -8.02719e-21)
(14.9991 0.00229839 -7.84179e-21)
(14.9991 0.00231561 1.94176e-20)
(14.9992 0.00233219 -2.3894e-20)
(14.9992 0.0023483 -9.11761e-23)
(14.9992 0.00236374 1.21415e-20)