/*--------------------------------*- C++ -*----------------------------------*\
  =========                 |
  \\      /  F ield         | OpenFOAM: The Open Source CFD Toolbox
   \\    /   O peration     | Website:  https://openfoam.org
    \\  /    A nd           | Version:  8
     \\/     M anipulation  |
\*---------------------------------------------------------------------------*/
FoamFile
{
    version     2.0;
    format      ascii;
    class       volVectorField;
    location    "0.03";
    object      U;
}
// * * * * * * * * * * * * * * * * * * * * * * * * * * * * * * * * * * * * * //

dimensions      [0 1 -1 0 0 0 0];

internalField   nonuniform List<vector> 
112642
(
(15.0003 -3.16048e-07 8.18082e-21)
(15.0006 9.86588e-05 2.76403e-20)
(15.0006 0.000140955 7.20623e-20)
(15.0006 0.000105831 -1.29401e-20)
(15.0007 8.48195e-05 -1.50232e-19)
(15.0007 4.43638e-05 1.10051e-19)
(15.0007 1.5003e-05 3.18618e-21)
(15.0007 -1.47414e-05 -2.59174e-20)
(15.0007 -3.82553e-05 -6.66531e-20)
(15.0007 -6.02209e-05 9.08055e-20)
(15.0007 -7.85113e-05 2.05303e-21)
(15.0007 -9.56995e-05 -1.17093e-19)
(15.0007 -0.000112367 -6.75887e-20)
(15.0007 -0.000127054 -6.38914e-20)
(15.0007 -0.000141935 -5.19311e-20)
(15.0007 -0.000155597 -7.94541e-20)
(15.0007 -0.000168929 5.5049e-20)
(15.0007 -0.000182673 -9.03981e-20)
(15.0007 -0.000195073 6.2836e-20)
(15.0007 -0.000207308 8.81176e-20)
(15.0007 -0.000219314 1.502e-19)
(15.0007 -0.000231463 6.09167e-20)
(15.0007 -0.000242676 6.01588e-20)
(15.0007 -0.000254298 3.3053e-20)
(15.0007 -0.000265047 -2.73942e-20)
(15.0007 -0.000276375 -5.81038e-20)
(15.0007 -0.000286946 8.8048e-20)
(15.0007 -0.000297194 -1.14027e-19)
(15.0006 -0.000307614 7.70211e-22)
(15.0006 -0.000317732 -5.58362e-20)
(15.0006 -0.00032784 -5.37066e-20)
(15.0006 -0.000337281 -6.42225e-22)
(15.0006 -0.000346696 -5.22189e-20)
(15.0006 -0.000356087 -5.261e-20)
(15.0006 -0.000364562 5.17829e-20)
(15.0006 -0.000373527 -5.6786e-22)
(15.0006 -0.000381923 7.74426e-20)
(15.0006 -0.000390287 -4.87495e-20)
(15.0006 -0.000398941 2.04651e-20)
(15.0006 -0.000406623 -9.47393e-20)
(15.0006 -0.000414732 9.30524e-20)
(15.0005 -0.000422273 -7.34291e-20)
(15.0005 -0.000429401 -1.7039e-20)
(15.0005 -0.00043664 4.30258e-22)
(15.0005 -0.000443838 -4.33096e-20)
(15.0005 -0.000450489 -1.40354e-20)
(15.0005 -0.000457548 -4.12369e-20)
(15.0005 -0.000464128 6.81204e-20)
(15.0005 -0.000470086 3.99585e-20)
(15.0005 -0.000476466 -9.45248e-20)
(15.0005 -0.00048227 -2.80517e-20)
(15.0005 -0.000488259 -7.4117e-20)
(15.0005 -0.000493778 -7.25078e-20)
(15.0004 -0.000499574 2.77796e-20)
(15.0004 -0.000504789 2.80682e-20)
(15.0004 -0.000509801 3.37553e-20)
(15.0004 -0.000514712 6.58878e-20)
(15.0004 -0.000519633 -2.77533e-20)
(15.0004 -0.000523921 -3.15569e-20)
(15.0004 -0.000528468 3.07196e-20)
(15.0004 -0.000532707 -2.99233e-20)
(15.0004 -0.000536367 2.19404e-22)
(15.0004 -0.000540326 -2.82578e-20)
(15.0003 -0.00054386 2.24298e-22)
(15.0003 -0.000547415 -2.66064e-20)
(15.0003 -0.000550804 5.34621e-20)
(15.0003 -0.000553759 0)
(15.0003 -0.000557111 2.40026e-20)
(15.0003 -0.000559952 -2.32181e-20)
(15.0003 -0.000562597 -2.24148e-20)
(15.0003 -0.000565105 -4.91757e-20)
(15.0003 -0.00056747 2.73476e-20)
(15.0003 -0.000569615 4.03951e-20)
(15.0003 -0.000571644 -4.70107e-20)
(15.0002 -0.00057381 5.50361e-20)
(15.0002 -0.000575652 -2.72413e-20)
(15.0002 -0.000577009 -6.15538e-20)
(15.0002 -0.000578816 1.12813e-20)
(15.0002 -0.000580064 0)
(15.0002 -0.000581259 0)
(15.0002 -0.000582066 0)
(15.0002 -0.000583106 1.31952e-20)
(15.0002 -0.000583874 0)
(15.0002 -0.000584612 1.5442e-20)
(15.0001 -0.0005849 -5.40868e-20)
(15.0001 -0.00058507 -2.06931e-20)
(15.0001 -0.000585451 9.07714e-20)
(15.0001 -0.000585361 -1.81865e-20)
(15.0001 -0.000585238 -1.89278e-20)
(15.0001 -0.000584946 2.68789e-20)
(15.0001 -0.000584645 6.66714e-21)
(15.0001 -0.000584209 -5.95819e-21)
(15.0001 -0.000583457 -5.17607e-21)
(15.0001 -0.000582604 -4.8954e-20)
(15 -0.000581538 -5.71333e-20)
(15 -0.000580471 2.34928e-20)
(15 -0.000579165 5.31222e-20)
(15 -0.000577886 0)
(15 -0.000576307 -9.96498e-22)
(15 -0.000574654 -2.63909e-20)
(15 -0.000572906 3.58883e-22)
(15 -0.000571061 2.51527e-20)
(15 -0.000569149 0)
(15 -0.000566945 -5.19948e-20)
(15 -0.000564774 1.22168e-20)
(15 -0.00056238 2.20366e-20)
(14.9999 -0.000559991 8.75884e-21)
(14.9999 -0.00055741 2.55588e-20)
(14.9999 -0.000554742 3.11391e-20)
(14.9999 -0.000551793 -1.26354e-20)
(14.9999 -0.000548732 -6.8686e-21)
(14.9999 -0.000545683 -2.51986e-20)
(14.9999 -0.000542498 8.29735e-21)
(14.9999 -0.000539303 -2.50737e-20)
(14.9999 -0.000535697 1.9006e-20)
(14.9999 -0.000532302 1.44577e-20)
(14.9999 -0.000528813 3.53831e-20)
(14.9999 -0.000524927 -1.14459e-20)
(14.9998 -0.000521019 -6.10457e-20)
(14.9998 -0.000516869 3.66287e-20)
(14.9998 -0.000512921 2.40319e-20)
(14.9998 -0.000508627 -2.70833e-20)
(14.9998 -0.000504283 -2.39029e-20)
(14.9998 -0.000499458 -8.98751e-21)
(14.9998 -0.000495024 7.77418e-20)
(14.9998 -0.000490189 -1.60001e-20)
(14.9998 -0.000485098 -6.82407e-21)
(14.9998 -0.000480149 4.63642e-20)
(14.9998 -0.000475132 -5.80655e-20)
(14.9998 -0.000469968 -4.81062e-21)
(14.9998 -0.000464718 2.27291e-20)
(14.9998 -0.000459394 1.52212e-20)
(14.9997 -0.000453947 -4.1956e-20)
(14.9997 -0.000448126 4.24591e-20)
(14.9997 -0.000442665 -1.88427e-20)
(14.9997 -0.000436899 -2.22053e-20)
(14.9997 -0.000431045 -2.18878e-20)
(14.9997 -0.000425255 4.39175e-20)
(14.9997 -0.000419187 6.58711e-20)
(14.9997 -0.000413406 -2.12451e-22)
(14.9997 -0.00040724 -2.13588e-20)
(14.9997 -0.000400905 0)
(14.9997 -0.000394836 -2.43214e-20)
(14.9997 -0.000388357 0)
(14.9997 -0.000381957 2.09671e-20)
(14.9997 -0.000375545 -2.58859e-20)
(14.9997 -0.000369044 5.6192e-21)
(14.9997 -0.000362171 -2.65014e-20)
(14.9997 -0.000355549 -2.03803e-20)
(14.9997 -0.000348626 5.48056e-20)
(14.9997 -0.000341878 1.22245e-20)
(14.9997 -0.000334753 -8.41098e-21)
(14.9996 -0.000327971 -4.82287e-20)
(14.9996 -0.000320793 9.43285e-21)
(14.9996 -0.000313329 0)
(14.9996 -0.000306204 -1.01761e-20)
(14.9996 -0.000298761 -4.9189e-20)
(14.9996 -0.000291351 -4.84253e-20)
(14.9996 -0.000284081 4.88937e-20)
(14.9996 -0.000276582 -1.20911e-20)
(14.9996 -0.000268767 -3.20038e-22)
(14.9996 -0.000261292 -1.79327e-20)
(14.9996 -0.000253249 1.80501e-20)
(14.9996 -0.00024546 -3.61248e-20)
(14.9996 -0.000237735 -2.40006e-21)
(14.9996 -0.000229734 6.67987e-20)
(14.9996 -0.000222141 1.69488e-20)
(14.9996 -0.000214069 1.54049e-20)
(14.9996 -0.000206089 3.91538e-22)
(14.9996 -0.000198188 -4.29996e-22)
(14.9996 -0.000189992 -1.6144e-20)
(14.9996 -0.000181872 4.32131e-24)
(14.9996 -0.000173675 9.86161e-20)
(14.9996 -0.000165666 -5.14394e-20)
(14.9996 -0.000157544 5.13139e-20)
(14.9996 -0.000149082 -4.88711e-20)
(14.9996 -0.000141024 4.9184e-20)
(14.9996 -0.000132555 -4.16103e-21)
(14.9996 -0.000124379 -4.82651e-20)
(14.9996 -0.000115802 4.43218e-21)
(14.9996 -0.00010733 3.37758e-20)
(14.9996 -9.88473e-05 -3.37321e-20)
(14.9996 -9.03505e-05 -1.33836e-20)
(14.9996 -8.12303e-05 1.90022e-20)
(14.9996 -7.24173e-05 7.93403e-20)
(14.9996 -6.34853e-05 -3.95402e-20)
(14.9996 -5.40817e-05 3.21116e-20)
(14.9996 -4.49108e-05 -1.89126e-20)
(14.9997 -3.47607e-05 -4.47795e-20)
(14.9997 -2.43719e-05 2.05498e-20)
(14.9997 -1.33882e-05 -7.43538e-21)
(14.9997 -3.95228e-07 -3.08014e-20)
(14.9997 1.35335e-05 4.10394e-20)
(14.9997 3.14449e-05 -2.98413e-20)
(14.9997 4.90251e-05 -1.68713e-20)
(14.9997 7.30142e-05 -3.16015e-20)
(14.9998 8.16747e-05 2.18496e-20)
(14.9998 0.000101269 2.40946e-20)
(14.9998 6.62993e-05 -2.78711e-20)
(14.9999 1.09615e-06 2.56827e-20)
(15.0017 -0.000134118 -4.48532e-20)
(15.0018 -0.000838588 7.11305e-20)
(15.0018 -0.0010658 1.17446e-20)
(15.0018 -0.000965597 1.05613e-19)
(15.0019 -0.000923897 -1.01246e-19)
(15.002 -0.000807282 5.43605e-20)
(15.002 -0.000740591 9.22716e-20)
(15.0021 -0.000683477 -2.75221e-21)
(15.0021 -0.000652496 -2.22609e-20)
(15.0021 -0.000636061 -4.15471e-21)
(15.0021 -0.000630017 5.46836e-20)
(15.0021 -0.000632892 -2.59072e-20)
(15.0021 -0.000641331 -6.69193e-20)
(15.0021 -0.000654616 3.98804e-20)
(15.0021 -0.0006712 -1.57436e-19)
(15.0021 -0.000689439 -1.02878e-20)
(15.0021 -0.000709776 9.09231e-20)
(15.0021 -0.000732257 9.35939e-21)
(15.0021 -0.000754763 -5.55465e-20)
(15.0021 -0.000778202 2.17648e-22)
(15.002 -0.000801642 2.71652e-20)
(15.002 -0.000826605 8.86239e-20)
(15.002 -0.000850235 6.00072e-20)
(15.002 -0.000874955 1.8165e-22)
(15.002 -0.000898821 2.72916e-20)
(15.002 -0.000923803 -5.41183e-20)
(15.002 -0.000948093 -2.11124e-21)
(15.0019 -0.000972216 6.1761e-22)
(15.0019 -0.000996349 2.74062e-20)
(15.0019 -0.00102022 2.75533e-20)
(15.0019 -0.00104434 -2.71022e-20)
(15.0019 -0.00106769 -1.32208e-21)
(15.0018 -0.00109137 8.15768e-20)
(15.0018 -0.00111487 -2.12205e-19)
(15.0018 -0.0011374 -2.83954e-20)
(15.0018 -0.00116044 -5.03756e-20)
(15.0017 -0.00118259 5.60578e-20)
(15.0017 -0.00120475 9.43659e-22)
(15.0017 -0.00122744 -4.8933e-20)
(15.0017 -0.00124856 -1.21401e-19)
(15.0017 -0.00127035 -7.57689e-20)
(15.0016 -0.00129098 1.15815e-20)
(15.0016 -0.00131115 -4.4739e-20)
(15.0016 -0.00133108 0)
(15.0016 -0.00135078 -1.4887e-20)
(15.0015 -0.00136958 2.85536e-20)
(15.0015 -0.00138878 -9.77673e-20)
(15.0015 -0.00140679 5.20524e-20)
(15.0014 -0.00142395 9.6502e-20)
(15.0014 -0.00144145 -2.79146e-20)
(15.0014 -0.00145822 -3.86484e-20)
(15.0014 -0.00147452 -1.72805e-20)
(15.0013 -0.00149002 -1.29175e-19)
(15.0013 -0.00150586 -6.43791e-20)
(15.0013 -0.00152047 2.92593e-22)
(15.0013 -0.00153466 -2.28441e-20)
(15.0012 -0.00154853 2.8019e-20)
(15.0012 -0.00156184 5.69922e-20)
(15.0012 -0.00157426 -9.10967e-20)
(15.0011 -0.00158682 -6.14526e-20)
(15.0011 -0.00159853 -1.41752e-21)
(15.0011 -0.00160943 0)
(15.0011 -0.00162049 -2.82123e-20)
(15.001 -0.00163069 2.73727e-20)
(15.001 -0.0016406 -5.46578e-20)
(15.001 -0.00165002 -1.52897e-22)
(15.0009 -0.00165897 1.95088e-22)
(15.0009 -0.00166792 5.1951e-20)
(15.0009 -0.00167598 5.63222e-20)
(15.0009 -0.00168358 -1.12507e-23)
(15.0008 -0.00169068 -5.58776e-20)
(15.0008 -0.00169757 -5.6142e-20)
(15.0008 -0.00170385 2.79483e-20)
(15.0007 -0.00170952 -1.07107e-20)
(15.0007 -0.0017153 2.78189e-20)
(15.0007 -0.00172034 4.57225e-20)
(15.0007 -0.00172462 -1.70589e-20)
(15.0006 -0.0017292 -2.77427e-20)
(15.0006 -0.00173276 -4.33058e-20)
(15.0006 -0.00173597 1.47251e-20)
(15.0005 -0.00173845 -4.16145e-20)
(15.0005 -0.00174097 -1.33004e-20)
(15.0005 -0.00174294 6.76441e-20)
(15.0005 -0.00174463 2.75911e-20)
(15.0004 -0.00174544 -2.74725e-20)
(15.0004 -0.00174593 -4.79746e-20)
(15.0004 -0.00174636 5.9665e-24)
(15.0003 -0.00174617 -2.7349e-20)
(15.0003 -0.00174548 -6.39977e-23)
(15.0003 -0.00174441 3.45856e-20)
(15.0003 -0.00174328 3.37682e-20)
(15.0002 -0.00174145 6.01671e-20)
(15.0002 -0.00173905 -4.89889e-20)
(15.0002 -0.00173627 -5.41282e-20)
(15.0001 -0.00173317 -1.11128e-20)
(15.0001 -0.00173 -9.02371e-21)
(15.0001 -0.00172603 2.92207e-20)
(15.0001 -0.00172195 2.68403e-20)
(15 -0.00171707 7.06155e-24)
(15 -0.00171203 -2.65137e-20)
(15 -0.0017067 -2.61563e-20)
(15 -0.00170106 9.21449e-24)
(14.9999 -0.00169528 2.64285e-20)
(14.9999 -0.00168874 5.26963e-20)
(14.9999 -0.00168209 -1.989e-20)
(14.9999 -0.0016747 -2.21832e-20)
(14.9998 -0.00166726 3.04461e-20)
(14.9998 -0.00165953 4.84758e-23)
(14.9998 -0.00165148 -2.0004e-20)
(14.9998 -0.00164293 -5.1284e-20)
(14.9997 -0.00163375 5.82313e-20)
(14.9997 -0.00162457 2.53225e-20)
(14.9997 -0.00161509 4.72775e-23)
(14.9997 -0.0016052 -9.04403e-21)
(14.9996 -0.0015948 -5.84777e-21)
(14.9996 -0.0015844 -2.04227e-20)
(14.9996 -0.00157375 2.49144e-20)
(14.9996 -0.00156235 -1.14878e-20)
(14.9995 -0.00155074 -5.85067e-22)
(14.9995 -0.00153867 1.25941e-20)
(14.9995 -0.00152667 -6.20327e-20)
(14.9995 -0.00151406 1.87425e-22)
(14.9995 -0.00150118 4.81738e-20)
(14.9994 -0.00148745 3.89329e-20)
(14.9994 -0.00147405 -8.30616e-23)
(14.9994 -0.00146006 -5.55729e-20)
(14.9994 -0.00144552 1.65039e-20)
(14.9994 -0.00143116 -2.35793e-20)
(14.9993 -0.00141641 -3.50436e-20)
(14.9993 -0.00140124 4.12481e-20)
(14.9993 -0.00138601 4.6326e-20)
(14.9993 -0.00137048 -6.54679e-20)
(14.9993 -0.00135468 -4.51706e-20)
(14.9992 -0.00133828 1.98889e-20)
(14.9992 -0.001322 2.46104e-22)
(14.9992 -0.00130546 9.6383e-22)
(14.9992 -0.00128865 2.18704e-20)
(14.9992 -0.00127174 6.65335e-20)
(14.9991 -0.00125429 -7.00752e-22)
(14.9991 -0.00123711 -6.82158e-20)
(14.9991 -0.00121945 -4.52276e-20)
(14.9991 -0.00120132 2.35009e-21)
(14.9991 -0.00118347 1.91179e-22)
(14.9991 -0.00116513 -3.73422e-21)
(14.9991 -0.00114656 0)
(14.999 -0.00112794 -4.70409e-21)
(14.999 -0.0011092 -2.12144e-20)
(14.999 -0.00108974 -2.04143e-20)
(14.999 -0.00107071 4.11986e-20)
(14.999 -0.00105126 6.69048e-21)
(14.999 -0.00103161 -1.9937e-20)
(14.999 -0.0010116 -8.20151e-21)
(14.999 -0.000991964 -3.69547e-20)
(14.999 -0.000971879 2.86154e-20)
(14.9989 -0.000951109 -3.93216e-20)
(14.9989 -0.000930778 2.97335e-20)
(14.9989 -0.00091 -4.9688e-20)
(14.9989 -0.000889246 5.00428e-20)
(14.9989 -0.000868515 -1.21561e-20)
(14.9989 -0.000847675 -3.01141e-20)
(14.9989 -0.000826253 -4.37488e-20)
(14.9989 -0.000805482 -1.82867e-20)
(14.9989 -0.000783898 -1.2991e-20)
(14.9989 -0.000762899 -1.86276e-20)
(14.9989 -0.000742125 -1.73084e-20)
(14.9989 -0.000721066 4.96701e-20)
(14.9989 -0.000700592 4.99514e-20)
(14.9989 -0.000679835 -1.78352e-20)
(14.9989 -0.000659275 1.59451e-20)
(14.9989 -0.000639272 -4.10038e-22)
(14.9989 -0.000619127 1.6196e-20)
(14.9989 -0.000599547 9.93415e-20)
(14.9989 -0.000580165 -7.30747e-22)
(14.9989 -0.000561191 -4.87755e-20)
(14.9989 -0.000542535 -3.41683e-20)
(14.9989 -0.000523897 -3.06691e-20)
(14.9989 -0.000506369 8.14131e-20)
(14.9989 -0.000488876 -3.30452e-20)
(14.9989 -0.000472531 -1.75403e-20)
(14.9989 -0.000455962 -3.32768e-20)
(14.9989 -0.00044088 -2.92996e-20)
(14.9989 -0.000426397 1.82326e-20)
(14.9989 -0.000413039 1.4565e-20)
(14.9989 -0.000400404 4.58458e-20)
(14.9989 -0.000389582 3.57318e-20)
(14.999 -0.000380501 1.51234e-20)
(14.999 -0.000373134 4.26489e-20)
(14.999 -0.00036802 -1.18527e-20)
(14.999 -0.000366524 1.21344e-20)
(14.999 -0.000368752 -1.27158e-20)
(14.999 -0.000377421 8.621e-22)
(14.9991 -0.000393599 2.30833e-20)
(14.9991 -0.000419114 -1.64181e-20)
(14.9992 -0.000462195 -6.17794e-20)
(14.9992 -0.000511972 4.15935e-21)
(14.9993 -0.000594898 1.37575e-21)
(14.9994 -0.000619874 3.50723e-20)
(14.9994 -0.000684445 -2.94487e-20)
(14.9994 -0.000517021 8.28876e-21)
(14.9994 -8.0673e-05 5.50737e-20)
(15.0031 -0.000137357 -8.01164e-20)
(15.003 -0.000346466 -1.25777e-20)
(15.003 -0.00150497 -3.48356e-20)
(15.003 -0.00133049 5.98756e-20)
(15.0032 -0.00140463 4.09403e-20)
(15.0033 -0.00124043 -1.30054e-19)
(15.0034 -0.0011606 2.65232e-20)
(15.0035 -0.00107081 0)
(15.0035 -0.00102585 1.3631e-19)
(15.0035 -0.000998073 -1.80358e-19)
(15.0035 -0.000991813 1.3908e-19)
(15.0035 -0.000997835 -2.73776e-20)
(15.0035 -0.00101357 -2.57966e-20)
(15.0035 -0.00103719 9.27762e-20)
(15.0035 -0.00106641 -6.47236e-20)
(15.0035 -0.00109922 -2.91533e-20)
(15.0035 -0.00113515 1.34266e-19)
(15.0035 -0.00117391 1.30739e-19)
(15.0035 -0.00121348 -3.74733e-20)
(15.0034 -0.00125445 -3.78442e-20)
(15.0034 -0.00129614 -1.27325e-19)
(15.0034 -0.00133875 -2.82694e-20)
(15.0034 -0.00138085 -3.54486e-20)
(15.0034 -0.00142349 6.28777e-20)
(15.0033 -0.00146511 -2.84079e-20)
(15.0033 -0.00150758 1.21476e-19)
(15.0033 -0.00154938 -1.20162e-19)
(15.0032 -0.0015906 -2.76438e-20)
(15.0032 -0.00163158 -2.84725e-20)
(15.0032 -0.00167237 2.79926e-20)
(15.0031 -0.00171286 5.77245e-20)
(15.0031 -0.00175284 -8.47723e-20)
(15.0031 -0.00179289 1.39623e-19)
(15.003 -0.00183259 8.44061e-20)
(15.003 -0.00187117 -1.11143e-19)
(15.003 -0.00191024 -1.05577e-19)
(15.0029 -0.00194806 -5.19862e-20)
(15.0029 -0.00198569 2.83812e-20)
(15.0029 -0.00202365 -2.15901e-20)
(15.0028 -0.00205999 9.86646e-20)
(15.0028 -0.0020964 -1.25597e-19)
(15.0027 -0.00213188 -2.88624e-20)
(15.0027 -0.00216652 -4.67079e-20)
(15.0027 -0.00220089 -4.58728e-20)
(15.0026 -0.00223443 0)
(15.0026 -0.00226664 2.85559e-20)
(15.0025 -0.00229884 -1.33451e-20)
(15.0025 -0.00232974 -7.196e-20)
(15.0024 -0.00235959 5.78634e-20)
(15.0024 -0.00238914 4.06817e-20)
(15.0023 -0.00241783 -5.09737e-20)
(15.0023 -0.00244583 6.77743e-20)
(15.0023 -0.00247219 4.74722e-20)
(15.0022 -0.00249868 -1.03161e-19)
(15.0022 -0.00252374 -2.85827e-20)
(15.0021 -0.0025482 -3.57415e-20)
(15.0021 -0.00257154 -7.48511e-20)
(15.002 -0.00259416 -5.12637e-21)
(15.002 -0.00261576 5.73558e-20)
(15.0019 -0.00263689 -6.03803e-20)
(15.0019 -0.00265694 -8.87232e-20)
(15.0018 -0.00267583 -3.02608e-20)
(15.0018 -0.0026945 -2.84749e-20)
(15.0017 -0.00271225 -1.99753e-22)
(15.0017 -0.00272912 8.41385e-20)
(15.0016 -0.00274518 -5.37741e-20)
(15.0016 -0.00276062 -2.83887e-20)
(15.0015 -0.00277546 -2.53582e-20)
(15.0015 -0.0027893 5.29262e-20)
(15.0014 -0.00280233 3.32369e-23)
(15.0014 -0.00281463 -5.62523e-21)
(15.0013 -0.00282648 2.80911e-20)
(15.0013 -0.00283741 3.57772e-20)
(15.0012 -0.00284719 -4.84215e-20)
(15.0012 -0.00285654 -4.76877e-20)
(15.0011 -0.00286532 1.85676e-20)
(15.0011 -0.00287308 1.77566e-20)
(15.0011 -0.00288026 6.19361e-20)
(15.001 -0.00288645 -1.18232e-20)
(15.001 -0.00289205 1.50724e-20)
(15.0009 -0.00289645 5.61244e-20)
(15.0009 -0.00290064 -6.96208e-20)
(15.0008 -0.00290404 -2.17259e-21)
(15.0008 -0.00290682 5.58262e-20)
(15.0007 -0.00290827 8.95989e-23)
(15.0007 -0.00290931 -6.46498e-23)
(15.0006 -0.00290982 3.76296e-20)
(15.0006 -0.00290966 -2.76815e-20)
(15.0005 -0.00290862 -4.70453e-20)
(15.0005 -0.00290687 -7.59002e-21)
(15.0004 -0.00290462 -6.72662e-21)
(15.0004 -0.00290142 -3.4083e-23)
(15.0003 -0.00289755 3.27503e-20)
(15.0003 -0.00289301 5.03022e-20)
(15.0002 -0.0028879 2.74046e-20)
(15.0002 -0.00288238 -8.18769e-20)
(15.0002 -0.0028757 -2.49689e-20)
(15.0001 -0.00286853 2.71655e-20)
(15.0001 -0.00286047 -2.62931e-20)
(15 -0.00285215 -9.23031e-23)
(15 -0.00284312 2.76091e-20)
(14.9999 -0.00283338 -1.3629e-21)
(14.9999 -0.00282339 0)
(14.9998 -0.00281256 -2.76913e-21)
(14.9998 -0.00280128 2.3073e-20)
(14.9998 -0.0027889 4.14575e-21)
(14.9997 -0.00277616 -3.11834e-20)
(14.9997 -0.00276293 3.73191e-20)
(14.9996 -0.0027491 2.60614e-20)
(14.9996 -0.0027347 -1.44989e-24)
(14.9995 -0.00271948 2.2185e-23)
(14.9995 -0.00270385 -5.15447e-20)
(14.9995 -0.00268765 -2.55213e-20)
(14.9994 -0.00267072 2.54668e-20)
(14.9994 -0.00265326 -2.54176e-20)
(14.9993 -0.00263541 -3.6054e-20)
(14.9993 -0.00261727 5.04034e-20)
(14.9993 -0.00259802 3.79004e-20)
(14.9992 -0.00257829 -1.22414e-20)
(14.9992 -0.00255794 -6.28572e-20)
(14.9992 -0.00253748 -1.38144e-20)
(14.9991 -0.00251606 3.90158e-20)
(14.9991 -0.00249421 0)
(14.999 -0.00247161 -2.43512e-20)
(14.999 -0.00244865 -4.04104e-20)
(14.999 -0.00242495 2.40555e-20)
(14.9989 -0.00240091 2.38166e-20)
(14.9989 -0.00237668 -2.38171e-20)
(14.9989 -0.00235166 3.73259e-20)
(14.9988 -0.00232606 2.34139e-20)
(14.9988 -0.00230028 -2.34123e-20)
(14.9988 -0.00227409 -4.34505e-20)
(14.9987 -0.00224744 6.47612e-20)
(14.9987 -0.00222016 1.50565e-21)
(14.9987 -0.00219261 2.09066e-20)
(14.9987 -0.00216475 -2.22404e-20)
(14.9986 -0.00213645 4.53638e-20)
(14.9986 -0.00210767 -2.24664e-20)
(14.9986 -0.00207838 -4.61227e-20)
(14.9985 -0.00204916 -2.44895e-20)
(14.9985 -0.00201929 1.91592e-20)
(14.9985 -0.00198886 2.15034e-20)
(14.9985 -0.00195836 -6.91644e-20)
(14.9984 -0.00192736 2.11635e-22)
(14.9984 -0.00189613 2.12558e-20)
(14.9984 -0.00186438 0)
(14.9984 -0.00183249 -5.54059e-20)
(14.9983 -0.00179985 5.63076e-20)
(14.9983 -0.00176759 0)
(14.9983 -0.00173444 -2.89885e-20)
(14.9983 -0.00170105 2.94016e-20)
(14.9983 -0.00166731 -2.04325e-20)
(14.9983 -0.00163362 -9.64249e-21)
(14.9982 -0.00159944 -4.14374e-20)
(14.9982 -0.00156462 2.84287e-22)
(14.9982 -0.00153006 6.21315e-20)
(14.9982 -0.0014949 -1.93093e-20)
(14.9982 -0.0014595 7.61869e-20)
(14.9982 -0.00142425 -5.11479e-20)
(14.9982 -0.00138881 3.24281e-20)
(14.9981 -0.00135309 1.87973e-20)
(14.9981 -0.00131783 3.26607e-20)
(14.9981 -0.00128188 -1.44013e-20)
(14.9981 -0.00124657 -5.26185e-20)
(14.9981 -0.00121154 1.66523e-20)
(14.9981 -0.0011762 8.71164e-20)
(14.9981 -0.00114161 6.79826e-20)
(14.9981 -0.00110685 -5.1633e-20)
(14.9981 -0.00107241 6.91221e-20)
(14.9981 -0.00103861 0)
(14.9981 -0.00100505 5.18987e-20)
(14.9981 -0.000971981 1.76685e-20)
(14.9981 -0.000939405 -6.75179e-20)
(14.9981 -0.00090739 3.50671e-20)
(14.9981 -0.000875729 -5.41298e-20)
(14.9981 -0.000844415 6.68239e-20)
(14.9981 -0.000814408 -3.55652e-20)
(14.9981 -0.00078468 -5.01411e-20)
(14.9981 -0.000756141 -5.04933e-20)
(14.9982 -0.000728247 -4.97572e-20)
(14.9982 -0.000701875 -4.86652e-21)
(14.9982 -0.000676911 -9.76209e-22)
(14.9982 -0.000653668 2.13425e-20)
(14.9982 -0.000631906 -2.06475e-20)
(14.9982 -0.000612651 0)
(14.9983 -0.000595962 4.78337e-20)
(14.9983 -0.000582289 -6.76364e-20)
(14.9983 -0.000572295 3.39987e-20)
(14.9983 -0.000567817 1.86249e-20)
(14.9984 -0.000569715 -1.08829e-20)
(14.9984 -0.000580556 8.59817e-20)
(14.9985 -0.000605795 -1.29176e-20)
(14.9985 -0.000640869 -3.78514e-20)
(14.9986 -0.00070574 -6.85625e-21)
(14.9987 -0.000762907 -1.12517e-21)
(14.9989 -0.000874268 1.49775e-20)
(14.999 -0.000808835 -8.55034e-21)
(14.999 -0.000917476 2.09935e-21)
(14.999 -0.000131864 4.16318e-20)
(14.9989 -7.23706e-05 -1.98758e-20)
(15.0044 -2.62543e-05 6.55747e-20)
(15.0043 0.000740283 -6.64277e-20)
(15.0042 -0.001208 0)
(15.0043 -0.00112111 0)
(15.0044 -0.00141846 2.00664e-20)
(15.0046 -0.0013138 2.42032e-20)
(15.0048 -0.0012919 4.24456e-20)
(15.0049 -0.00121849 1.72484e-20)
(15.0049 -0.00119343 4.62761e-20)
(15.005 -0.00117929 -6.24965e-20)
(15.005 -0.00119049 3.81555e-20)
(15.005 -0.00121416 2.92924e-20)
(15.005 -0.00125001 4.12113e-20)
(15.005 -0.0012944 -2.25852e-22)
(15.005 -0.00134552 1.36691e-19)
(15.0049 -0.00140047 -9.46028e-20)
(15.0049 -0.00145887 -2.78887e-20)
(15.0049 -0.00152022 -3.99487e-20)
(15.0049 -0.00158274 9.45502e-20)
(15.0048 -0.00164654 -3.86394e-20)
(15.0048 -0.00171058 1.31319e-19)
(15.0048 -0.0017755 -1.06624e-21)
(15.0048 -0.00184001 -2.66973e-20)
(15.0047 -0.00190474 3.39152e-20)
(15.0047 -0.00196792 -6.15542e-20)
(15.0047 -0.0020316 -8.55185e-22)
(15.0046 -0.00209421 1.17679e-19)
(15.0046 -0.00215601 6.09976e-20)
(15.0045 -0.00221699 -2.89398e-20)
(15.0045 -0.0022778 -1.09364e-22)
(15.0044 -0.00233781 0)
(15.0044 -0.00239686 -5.72109e-20)
(15.0044 -0.00245553 -8.46233e-20)
(15.0043 -0.00251364 5.51925e-20)
(15.0043 -0.00257054 5.74467e-20)
(15.0042 -0.00262736 5.42974e-20)
(15.0041 -0.00268293 5.23682e-20)
(15.0041 -0.00273804 5.26242e-20)
(15.004 -0.00279286 -6.43369e-21)
(15.004 -0.00284578 1.00361e-19)
(15.0039 -0.00289856 7.87646e-20)
(15.0039 -0.00294997 -1.99239e-20)
(15.0038 -0.0030003 -1.85928e-20)
(15.0037 -0.00305019 -2.88212e-20)
(15.0037 -0.00309894 -4.64114e-20)
(15.0036 -0.00314579 3.87546e-22)
(15.0036 -0.00319231 -2.91927e-20)
(15.0035 -0.00323714 -8.67637e-20)
(15.0034 -0.00328085 -4.24258e-20)
(15.0034 -0.00332354 2.88951e-20)
(15.0033 -0.0033651 -4.03067e-20)
(15.0032 -0.00340537 2.14382e-20)
(15.0032 -0.0034442 2.86733e-20)
(15.0031 -0.00348233 2.95531e-20)
(15.0031 -0.00351865 -2.92503e-20)
(15.003 -0.00355407 -4.35567e-20)
(15.0029 -0.00358774 2.91567e-20)
(15.0029 -0.00362061 -6.33727e-20)
(15.0028 -0.00365215 4.43102e-21)
(15.0027 -0.00368262 9.43047e-20)
(15.0027 -0.00371175 2.9101e-20)
(15.0026 -0.00373951 -2.89192e-20)
(15.0025 -0.00376648 -2.91207e-20)
(15.0025 -0.00379209 -8.68641e-20)
(15.0024 -0.00381662 2.84543e-20)
(15.0023 -0.00384015 5.82504e-20)
(15.0022 -0.00386239 -2.38369e-21)
(15.0022 -0.00388366 -2.57658e-20)
(15.0021 -0.00390391 2.87359e-20)
(15.002 -0.00392305 -2.3878e-20)
(15.002 -0.00394101 -5.75742e-20)
(15.0019 -0.00395784 -4.48249e-20)
(15.0018 -0.00397372 7.89003e-20)
(15.0018 -0.00398812 4.93909e-20)
(15.0017 -0.00400154 -2.85943e-20)
(15.0016 -0.00401426 -9.73476e-21)
(15.0016 -0.00402567 -2.84983e-20)
(15.0015 -0.0040359 -1.12886e-20)
(15.0014 -0.00404485 3.29613e-20)
(15.0013 -0.00405307 -2.89814e-21)
(15.0013 -0.00405987 5.81637e-20)
(15.0012 -0.00406592 -4.26065e-20)
(15.0011 -0.00407078 1.4857e-20)
(15.0011 -0.00407478 8.49054e-20)
(15.001 -0.00407723 -1.66094e-20)
(15.0009 -0.00407897 -5.63903e-20)
(15.0009 -0.00407969 -5.22635e-23)
(15.0008 -0.00407945 -1.87726e-20)
(15.0007 -0.00407817 2.78938e-20)
(15.0007 -0.00407584 7.63829e-20)
(15.0006 -0.00407245 -6.85507e-21)
(15.0005 -0.00406814 -4.85121e-24)
(15.0005 -0.00406299 -2.78216e-20)
(15.0004 -0.00405667 -2.77928e-20)
(15.0003 -0.00404938 -1.64297e-20)
(15.0003 -0.00404132 -2.16833e-20)
(15.0002 -0.00403188 2.53601e-20)
(15.0001 -0.00402171 2.75571e-20)
(15.0001 -0.0040104 2.74777e-20)
(15 -0.00399868 2.7442e-20)
(15 -0.00398583 -8.12488e-20)
(14.9999 -0.00397186 -2.72062e-20)
(14.9998 -0.00395752 2.93284e-20)
(14.9998 -0.00394208 2.70224e-20)
(14.9997 -0.00392598 3.05166e-20)
(14.9996 -0.00390857 -3.11598e-20)
(14.9996 -0.00389049 6.35757e-20)
(14.9995 -0.00387153 2.64972e-20)
(14.9995 -0.00385154 -8.57862e-20)
(14.9994 -0.00383083 -5.25579e-20)
(14.9993 -0.00380935 4.45222e-20)
(14.9993 -0.00378699 8.83341e-21)
(14.9992 -0.00376376 7.95788e-23)
(14.9992 -0.00373969 -6.48429e-23)
(14.9991 -0.00371486 -5.14325e-20)
(14.9991 -0.00368923 1.12961e-20)
(14.999 -0.00366307 3.72819e-20)
(14.999 -0.00363564 1.28575e-20)
(14.9989 -0.00360757 -3.85358e-20)
(14.9988 -0.00357858 -5.01119e-20)
(14.9988 -0.00354906 0)
(14.9987 -0.00351842 2.48597e-20)
(14.9987 -0.00348732 9.00229e-21)
(14.9986 -0.00345528 0)
(14.9986 -0.00342242 1.68526e-20)
(14.9985 -0.00338865 1.74509e-20)
(14.9985 -0.00335452 1.80228e-20)
(14.9984 -0.00331981 2.40846e-20)
(14.9984 -0.00328412 1.90531e-20)
(14.9984 -0.0032479 -2.36757e-20)
(14.9983 -0.00321103 2.37036e-20)
(14.9983 -0.00317347 -1.13843e-22)
(14.9982 -0.00313528 -2.51719e-20)
(14.9982 -0.00309654 -2.18358e-20)
(14.9981 -0.0030573 -1.85033e-22)
(14.9981 -0.00301732 4.62741e-20)
(14.9981 -0.00297684 2.26402e-20)
(14.998 -0.00293581 0)
(14.998 -0.00289403 2.75023e-23)
(14.9979 -0.00285197 2.73334e-21)
(14.9979 -0.00280919 5.14542e-20)
(14.9979 -0.00276576 -7.45575e-20)
(14.9978 -0.00272191 -2.61617e-20)
(14.9978 -0.00267744 9.735e-20)
(14.9978 -0.00263279 0)
(14.9977 -0.00258727 -2.15409e-20)
(14.9977 -0.0025415 -6.81511e-21)
(14.9977 -0.00249483 -8.08577e-21)
(14.9976 -0.00244806 -2.07812e-20)
(14.9976 -0.00240064 2.96834e-20)
(14.9976 -0.00235269 0)
(14.9976 -0.00230431 -2.05813e-20)
(14.9975 -0.00225559 1.07236e-20)
(14.9975 -0.00220647 -1.105e-20)
(14.9975 -0.00215656 7.14421e-20)
(14.9975 -0.00210684 -3.22227e-20)
(14.9974 -0.00205629 3.19274e-22)
(14.9974 -0.00200546 3.22719e-20)
(14.9974 -0.0019548 -1.89945e-20)
(14.9974 -0.00190397 1.92484e-20)
(14.9974 -0.00185275 1.87525e-20)
(14.9974 -0.001802 -7.13776e-20)
(14.9974 -0.00175057 -1.791e-20)
(14.9973 -0.00169955 -1.618e-20)
(14.9973 -0.00164885 5.28095e-20)
(14.9973 -0.001598 7.04393e-20)
(14.9973 -0.00154777 -5.29966e-20)
(14.9973 -0.00149749 1.82017e-20)
(14.9973 -0.00144763 -3.64916e-22)
(14.9973 -0.00139834 -1.68489e-20)
(14.9973 -0.00134926 0)
(14.9973 -0.00130058 -7.12101e-20)
(14.9973 -0.00125265 3.56973e-20)
(14.9973 -0.0012052 3.57444e-20)
(14.9973 -0.00115823 7.14811e-20)
(14.9973 -0.00111163 1.96306e-20)
(14.9974 -0.00106642 -5.11876e-20)
(14.9974 -0.00102149 3.55278e-20)
(14.9974 -0.00097784 1.52905e-20)
(14.9974 -0.00093522 3.49304e-20)
(14.9974 -0.000894329 5.64033e-20)
(14.9974 -0.000854863 -5.57682e-20)
(14.9975 -0.000817394 -5.76898e-22)
(14.9975 -0.000781819 6.24255e-22)
(14.9975 -0.00074904 -3.51862e-20)
(14.9976 -0.000719247 -4.72069e-20)
(14.9976 -0.000692822 -2.04441e-20)
(14.9976 -0.000670967 -7.6983e-21)
(14.9977 -0.000655096 3.1768e-20)
(14.9977 -0.000647554 3.3137e-20)
(14.9978 -0.000649127 -9.11662e-22)
(14.9978 -0.00066738 -4.04674e-20)
(14.9979 -0.000689858 5.64601e-20)
(14.9981 -0.000743428 -2.61739e-20)
(14.9982 -0.000760834 -1.17075e-22)
(14.9984 -0.000828183 0)
(14.9985 -0.00060756 8.50691e-21)
(14.9986 -0.000648437 2.11533e-20)
(14.9985 0.000622616 -6.90305e-21)
(14.9983 1.06687e-05 -2.78579e-20)
(15.0058 0.000146996 8.82959e-20)
(15.0056 0.00137948 9.9541e-20)
(15.0054 -0.000777918 0)
(15.0055 -0.000888979 -6.06645e-20)
(15.0057 -0.0013886 -1.98776e-20)
(15.0059 -0.00137589 3.79862e-20)
(15.0061 -0.0014258 6.4209e-20)
(15.0062 -0.00137853 2.35058e-20)
(15.0063 -0.00137509 -1.64366e-20)
(15.0064 -0.00137414 7.03644e-20)
(15.0064 -0.00140017 -9.59821e-20)
(15.0064 -0.0014394 4.31335e-20)
(15.0064 -0.00149276 -9.59977e-20)
(15.0064 -0.00155602 2.54322e-22)
(15.0064 -0.00162711 -4.12741e-20)
(15.0064 -0.00170285 2.8133e-20)
(15.0063 -0.0017826 -1.34415e-19)
(15.0063 -0.00186505 -9.37622e-20)
(15.0063 -0.00194928 2.61027e-20)
(15.0063 -0.00203527 2.13854e-21)
(15.0062 -0.00212142 3.56412e-20)
(15.0062 -0.00220803 2.8647e-20)
(15.0061 -0.00229456 6.39037e-20)
(15.0061 -0.00238093 2.76635e-20)
(15.0061 -0.00246564 6.32385e-20)
(15.006 -0.00255042 -1.18683e-19)
(15.006 -0.00263416 3.22614e-20)
(15.0059 -0.00271677 6.05603e-20)
(15.0059 -0.00279816 5.96548e-20)
(15.0058 -0.00287939 8.7269e-20)
(15.0057 -0.00295906 2.91689e-20)
(15.0057 -0.00303759 0)
(15.0056 -0.00311535 8.49786e-20)
(15.0056 -0.00319209 5.60288e-20)
(15.0055 -0.00326759 -3.22012e-21)
(15.0054 -0.00334258 2.48063e-20)
(15.0054 -0.00341592 5.32176e-20)
(15.0053 -0.00348854 8.1151e-20)
(15.0052 -0.00356025 5.19236e-20)
(15.0051 -0.00363007 -1.01546e-19)
(15.0051 -0.00369938 8.75696e-21)
(15.005 -0.00376737 7.82726e-20)
(15.0049 -0.00383362 1.89204e-20)
(15.0048 -0.00389901 -4.28135e-22)
(15.0048 -0.00396313 3.78884e-22)
(15.0047 -0.00402478 4.4963e-20)
(15.0046 -0.00408566 -4.40513e-20)
(15.0045 -0.004145 4.3171e-20)
(15.0045 -0.00420245 -4.23659e-20)
(15.0044 -0.00425868 -3.9994e-22)
(15.0043 -0.0043135 -2.88786e-20)
(15.0042 -0.00436634 -4.07414e-20)
(15.0041 -0.00441772 -9.26023e-21)
(15.004 -0.00446777 8.72423e-21)
(15.004 -0.0045157 -8.14203e-21)
(15.0039 -0.00456231 -3.62251e-20)
(15.0038 -0.00460695 3.53541e-20)
(15.0037 -0.00465017 3.50376e-20)
(15.0036 -0.00469173 -6.33615e-20)