/*--------------------------------*- C++ -*----------------------------------*\
  =========                 |
  \\      /  F ield         | OpenFOAM: The Open Source CFD Toolbox
   \\    /   O peration     | Website:  https://openfoam.org
    \\  /    A nd           | Version:  8
     \\/     M anipulation  |
\*---------------------------------------------------------------------------*/
FoamFile
{
    version     2.0;
    format      ascii;
    class       volScalarField;
    location    "9.3";
    object      p;
}
// * * * * * * * * * * * * * * * * * * * * * * * * * * * * * * * * * * * * * //

dimensions      [0 2 -2 0 0 0 0];

internalField   nonuniform List<scalar> 
262620
(
-1.35617
-1.35638
-1.35706
-1.35808
-1.35941
-1.36105
-1.36299
-1.3652
-1.36766
-1.37036
-1.37328
-1.37641
-1.37973
-1.38323
-1.38689
-1.3907
-1.39465
-1.39872
-1.40291
-1.40719
-1.41157
-1.41603
-1.42056
-1.42516
-1.42981
-1.4345
-1.43924
-1.444
-1.44879
-1.4536
-1.45842
-1.46325
-1.46807
-1.4729
-1.47771
-1.48251
-1.48729
-1.49205
-1.49679
-1.5015
-1.50618
-1.51082
-1.51543
-1.52
-1.52453
-1.52902
-1.53346
-1.53786
-1.54221
-1.54651
-1.55076
-1.55496
-1.5591
-1.5632
-1.56724
-1.57123
-1.57516
-1.57904
-1.58287
-1.58664
-1.59035
-1.59401
-1.59762
-1.60116
-1.60466
-1.6081
-1.61148
-1.61482
-1.61809
-1.62132
-1.62449
-1.62761
-1.63067
-1.63369
-1.63665
-1.63956
-1.64243
-1.64524
-1.648
-1.65072
-1.65339
-1.65601
-1.65858
-1.66111
-1.66359
-1.66603
-1.66843
-1.67078
-1.67309
-1.67535
-1.67758
-1.67976
-1.68191
-1.68401
-1.68608
-1.68811
-1.6901
-1.69205
-1.69397
-1.69585
-1.6977
-1.69951
-1.70129
-1.70304
-1.70475
-1.70643
-1.70808
-1.7097
-1.71129
-1.71285
-1.71438
-1.71588
-1.71735
-1.71879
-1.72021
-1.7216
-1.72297
-1.72431
-1.72562
-1.72691
-1.35603
-1.35625
-1.35692
-1.35794
-1.35927
-1.36091
-1.36285
-1.36506
-1.36752
-1.37022
-1.37314
-1.37627
-1.37959
-1.38309
-1.38675
-1.39056
-1.39451
-1.39858
-1.40276
-1.40705
-1.41143
-1.41589
-1.42043
-1.42502
-1.42967
-1.43437
-1.43911
-1.44387
-1.44867
-1.45348
-1.4583
-1.46313
-1.46795
-1.47278
-1.47759
-1.4824
-1.48718
-1.49195
-1.49669
-1.5014
-1.50608
-1.51073
-1.51534
-1.51991
-1.52444
-1.52893
-1.53338
-1.53778
-1.54213
-1.54643
-1.55069
-1.55489
-1.55904
-1.56314
-1.56718
-1.57117
-1.57511
-1.57899
-1.58282
-1.58659
-1.59031
-1.59397
-1.59758
-1.60113
-1.60463
-1.60807
-1.61146
-1.6148
-1.61808
-1.6213
-1.62448
-1.6276
-1.63067
-1.63368
-1.63665
-1.63957
-1.64243
-1.64525
-1.64801
-1.65073
-1.6534
-1.65603
-1.6586
-1.66113
-1.66362
-1.66606
-1.66846
-1.67081
-1.67312
-1.67539
-1.67762
-1.67981
-1.68196
-1.68406
-1.68613
-1.68816
-1.69016
-1.69211
-1.69403
-1.69592
-1.69777
-1.69958
-1.70136
-1.70311
-1.70482
-1.70651
-1.70816
-1.70978
-1.71137
-1.71293
-1.71446
-1.71596
-1.71744
-1.71888
-1.7203
-1.7217
-1.72306
-1.7244
-1.72572
-1.72701
-1.3558
-1.35601
-1.35668
-1.3577
-1.35903
-1.36067
-1.3626
-1.3648
-1.36727
-1.36996
-1.37289
-1.37601
-1.37934
-1.38283
-1.38649
-1.39031
-1.39425
-1.39833
-1.40252
-1.40681
-1.41119
-1.41565
-1.42019
-1.42479
-1.42944
-1.43414
-1.43888
-1.44365
-1.44845
-1.45326
-1.45808
-1.46292
-1.46775
-1.47258
-1.4774
-1.48221
-1.487
-1.49176
-1.49651
-1.50123
-1.50591
-1.51056
-1.51518
-1.51976
-1.5243
-1.52879
-1.53324
-1.53764
-1.542
-1.54631
-1.55057
-1.55478
-1.55893
-1.56304
-1.56709
-1.57108
-1.57502
-1.57891
-1.58274
-1.58652
-1.59025
-1.59391
-1.59752
-1.60108
-1.60458
-1.60803
-1.61143
-1.61476
-1.61805
-1.62128
-1.62446
-1.62759
-1.63066
-1.63368
-1.63665
-1.63957
-1.64244
-1.64526
-1.64803
-1.65075
-1.65343
-1.65606
-1.65864
-1.66117
-1.66366
-1.66611
-1.66851
-1.67086
-1.67318
-1.67545
-1.67768
-1.67987
-1.68202
-1.68413
-1.68621
-1.68824
-1.69024
-1.6922
-1.69412
-1.69601
-1.69786
-1.69968
-1.70146
-1.70321
-1.70493
-1.70662
-1.70827
-1.70989
-1.71149
-1.71305
-1.71458
-1.71609
-1.71756
-1.71901
-1.72044
-1.72183
-1.7232
-1.72454
-1.72586
-1.72715
-1.35545
-1.35566
-1.35632
-1.35733
-1.35866
-1.3603
-1.36223
-1.36443
-1.36689
-1.36959
-1.37251
-1.37564
-1.37896
-1.38245
-1.38612
-1.38993
-1.39388
-1.39795
-1.40214
-1.40644
-1.41082
-1.41529
-1.41983
-1.42443
-1.42909
-1.43379
-1.43854
-1.44331
-1.44811
-1.45293
-1.45776
-1.4626
-1.46744
-1.47227
-1.4771
-1.48192
-1.48671
-1.49149
-1.49624
-1.50096
-1.50566
-1.51032
-1.51494
-1.51952
-1.52407
-1.52857
-1.53303
-1.53744
-1.54181
-1.54612
-1.55039
-1.5546
-1.55877
-1.56288
-1.56694
-1.57094
-1.57489
-1.57879
-1.58263
-1.58641
-1.59014
-1.59382
-1.59744
-1.601
-1.60451
-1.60797
-1.61137
-1.61471
-1.61801
-1.62125
-1.62443
-1.62756
-1.63064
-1.63367
-1.63665
-1.63958
-1.64245
-1.64528
-1.64806
-1.65079
-1.65347
-1.6561
-1.65869
-1.66123
-1.66373
-1.66618
-1.66859
-1.67095
-1.67327
-1.67555
-1.67779
-1.67998
-1.68214
-1.68425
-1.68633
-1.68837
-1.69037
-1.69234
-1.69427
-1.69616
-1.69802
-1.69984
-1.70163
-1.70338
-1.70511
-1.7068
-1.70846
-1.71008
-1.71168
-1.71325
-1.71479
-1.7163
-1.71778
-1.71923
-1.72066
-1.72206
-1.72343
-1.72478
-1.7261
-1.72739
-1.35499
-1.35519
-1.35585
-1.35686
-1.35818
-1.35981
-1.36174
-1.36393
-1.36639
-1.36909
-1.37201
-1.37513
-1.37845
-1.38195
-1.38561
-1.38943
-1.39338
-1.39746
-1.40165
-1.40595
-1.41034
-1.41481
-1.41935
-1.42396
-1.42862
-1.43334
-1.43809
-1.44287
-1.44768
-1.4525
-1.45734
-1.46219
-1.46703
-1.47188
-1.47671
-1.48153
-1.48634
-1.49112
-1.49588
-1.50062
-1.50532
-1.50999
-1.51462
-1.51922
-1.52377
-1.52828
-1.53275
-1.53717
-1.54155
-1.54588
-1.55015
-1.55438
-1.55855
-1.56267
-1.56674
-1.57076
-1.57472
-1.57862
-1.58247
-1.58627
-1.59001
-1.59369
-1.59732
-1.6009
-1.60442
-1.60788
-1.61129
-1.61465
-1.61795
-1.6212
-1.62439
-1.62754
-1.63063
-1.63366
-1.63665
-1.63959
-1.64247
-1.64531
-1.64809
-1.65083
-1.65352
-1.65616
-1.65876
-1.66131
-1.66381
-1.66627
-1.66869
-1.67106
-1.67339
-1.67567
-1.67792
-1.68012
-1.68228
-1.68441
-1.68649
-1.68854
-1.69055
-1.69252
-1.69445
-1.69635
-1.69821
-1.70004
-1.70184
-1.7036
-1.70533
-1.70703
-1.70869
-1.71032
-1.71193
-1.7135
-1.71504
-1.71656
-1.71805
-1.7195
-1.72094
-1.72234
-1.72372
-1.72507
-1.7264
-1.7277
-1.35442
-1.35462
-1.35526
-1.35626
-1.35758
-1.3592
-1.36113
-1.36332
-1.36577
-1.36847
-1.37139
-1.37451
-1.37783
-1.38133
-1.385
-1.38881
-1.39277
-1.39685
-1.40104
-1.40534
-1.40974
-1.41421
-1.41877
-1.42338
-1.42805
-1.43277
-1.43753
-1.44232
-1.44713
-1.45197
-1.45682
-1.46167
-1.46653
-1.47138
-1.47623
-1.48106
-1.48588
-1.49067
-1.49544
-1.50019
-1.5049
-1.50958
-1.51423
-1.51884
-1.5234
-1.52793
-1.53241
-1.53684
-1.54123
-1.54557
-1.54986
-1.5541
-1.55828
-1.56242
-1.5665
-1.57053
-1.5745
-1.57842
-1.58228
-1.58609
-1.58984
-1.59354
-1.59718
-1.60077
-1.6043
-1.60778
-1.6112
-1.61457
-1.61788
-1.62114
-1.62435
-1.6275
-1.6306
-1.63365
-1.63665
-1.6396
-1.64249
-1.64534
-1.64814
-1.65088
-1.65359
-1.65624
-1.65884
-1.6614
-1.66392
-1.66639
-1.66881
-1.67119
-1.67353
-1.67583
-1.67808
-1.68029
-1.68247
-1.6846
-1.68669
-1.68875
-1.69076
-1.69274
-1.69469
-1.69659
-1.69847
-1.7003
-1.70211
-1.70388
-1.70561
-1.70732
-1.70899
-1.71063
-1.71224
-1.71382
-1.71537
-1.71689
-1.71839
-1.71985
-1.72129
-1.7227
-1.72408
-1.72544
-1.72677
-1.72808
-1.35375
-1.35393
-1.35457
-1.35556
-1.35687
-1.35849
-1.3604
-1.36259
-1.36504
-1.36773
-1.37065
-1.37377
-1.37709
-1.38059
-1.38426
-1.38808
-1.39203
-1.39612
-1.40032
-1.40463
-1.40903
-1.41351
-1.41807
-1.42269
-1.42737
-1.43209
-1.43686
-1.44166
-1.44649
-1.45133
-1.45619
-1.46106
-1.46593
-1.47079
-1.47565
-1.4805
-1.48533
-1.49014
-1.49492
-1.49968
-1.50441
-1.5091
-1.51376
-1.51838
-1.52297
-1.52751
-1.532
-1.53645
-1.54085
-1.54521
-1.54951
-1.55376
-1.55797
-1.56212
-1.56621
-1.57025
-1.57424
-1.57817
-1.58205
-1.58588
-1.58964
-1.59336
-1.59701
-1.60061
-1.60416
-1.60765
-1.61109
-1.61447
-1.6178
-1.62107
-1.62429
-1.62746
-1.63058
-1.63364
-1.63665
-1.63961
-1.64252
-1.64538
-1.64819
-1.65095
-1.65366
-1.65633
-1.65895
-1.66152
-1.66404
-1.66652
-1.66896
-1.67135
-1.6737
-1.67601
-1.67827
-1.6805
-1.68268
-1.68482
-1.68693
-1.68899
-1.69102
-1.69301
-1.69496
-1.69688
-1.69876
-1.70061
-1.70242
-1.7042
-1.70594
-1.70766
-1.70934
-1.71099
-1.71261
-1.7142
-1.71575
-1.71728
-1.71879
-1.72026
-1.7217
-1.72312
-1.72451
-1.72588
-1.72722
-1.72853
-1.35297
-1.35313
-1.35376
-1.35474
-1.35604
-1.35766
-1.35957
-1.36175
-1.3642
-1.36688
-1.3698
-1.37292
-1.37624
-1.37974
-1.38341
-1.38723
-1.39119
-1.39528
-1.39949
-1.4038
-1.4082
-1.41269
-1.41726
-1.42189
-1.42658
-1.43131
-1.43609
-1.4409
-1.44574
-1.4506
-1.45547
-1.46035
-1.46523
-1.47011
-1.47498
-1.47985
-1.48469
-1.48951
-1.49432
-1.49909
-1.50384
-1.50855
-1.51322
-1.51786
-1.52246
-1.52702
-1.53153
-1.536
-1.54042
-1.54479
-1.54911
-1.55338
-1.5576
-1.56176
-1.56588
-1.56994
-1.57394
-1.57789
-1.58179
-1.58563
-1.58941
-1.59314
-1.59682
-1.60044
-1.604
-1.60751
-1.61096
-1.61436
-1.6177
-1.62099
-1.62423
-1.62741
-1.63054
-1.63362
-1.63665
-1.63962
-1.64255
-1.64542
-1.64825
-1.65102
-1.65375
-1.65643
-1.65906
-1.66165
-1.66419
-1.66668
-1.66913
-1.67154
-1.6739
-1.67622
-1.6785
-1.68073
-1.68293
-1.68509
-1.6872
-1.68928
-1.69132
-1.69332
-1.69528
-1.69721
-1.69911
-1.70096
-1.70279
-1.70457
-1.70633
-1.70805
-1.70975
-1.71141
-1.71303
-1.71463
-1.7162
-1.71774
-1.71925
-1.72073
-1.72219
-1.72361
-1.72501
-1.72639
-1.72774
-1.72905
-1.35208
-1.35224
-1.35285
-1.35382
-1.35511
-1.35672
-1.35862
-1.3608
-1.36324
-1.36592
-1.36883
-1.37196
-1.37527
-1.37878
-1.38244
-1.38627
-1.39023
-1.39433
-1.39854
-1.40286
-1.40727
-1.41177
-1.41634
-1.42098
-1.42568
-1.43043
-1.43522
-1.44005
-1.4449
-1.44977
-1.45465
-1.45955
-1.46445
-1.46934
-1.47423
-1.47911
-1.48397
-1.48881
-1.49363
-1.49842
-1.50319
-1.50792
-1.51261
-1.51727
-1.52189
-1.52646
-1.53099
-1.53548
-1.53992
-1.54431
-1.54865
-1.55294
-1.55718
-1.56137
-1.5655
-1.56958
-1.57361
-1.57758
-1.58149
-1.58535
-1.58915
-1.5929
-1.5966
-1.60023
-1.60382
-1.60734
-1.61082
-1.61423
-1.6176
-1.6209
-1.62416
-1.62736
-1.63051
-1.63361
-1.63665
-1.63964
-1.64258
-1.64547
-1.64832
-1.65111
-1.65385
-1.65655
-1.6592
-1.6618
-1.66435
-1.66686
-1.66933
-1.67175
-1.67413
-1.67646
-1.67875
-1.681
-1.68321
-1.68538
-1.68751
-1.6896
-1.69166
-1.69367
-1.69565
-1.69759
-1.69949
-1.70136
-1.7032
-1.705
-1.70677
-1.7085
-1.71021
-1.71188
-1.71352
-1.71513
-1.71671
-1.71826
-1.71978
-1.72127
-1.72273
-1.72417
-1.72558
-1.72696
-1.72832
-1.72965
-1.3511
-1.35123
-1.35184
-1.3528
-1.35407
-1.35567
-1.35756
-1.35974
-1.36217
-1.36485
-1.36776
-1.37088
-1.3742
-1.3777
-1.38137
-1.3852
-1.38917
-1.39327
-1.39748
-1.40181
-1.40623
-1.41074
-1.41532
-1.41998
-1.42469
-1.42945
-1.43425
-1.43909
-1.44395
-1.44884
-1.45374
-1.45865
-1.46357
-1.46848
-1.47339
-1.47829
-1.48317
-1.48803
-1.49287
-1.49768
-1.50246
-1.50721
-1.51193
-1.51661
-1.52125
-1.52584
-1.5304
-1.53491
-1.53937
-1.54378
-1.54814
-1.55246
-1.55672
-1.56092
-1.56508
-1.56918
-1.57323
-1.57722
-1.58116
-1.58504
-1.58887
-1.59264
-1.59635
-1.60001
-1.60361
-1.60716
-1.61065
-1.61409
-1.61748
-1.6208
-1.62408
-1.6273
-1.63047
-1.63359
-1.63665
-1.63966
-1.64262
-1.64553
-1.64839
-1.6512
-1.65396
-1.65668
-1.65934
-1.66196
-1.66454
-1.66706
-1.66955
-1.67198
-1.67438
-1.67673
-1.67904
-1.6813
-1.68353
-1.68571
-1.68786
-1.68997
-1.69203
-1.69406
-1.69605
-1.69801
-1.69993
-1.70181
-1.70366
-1.70548
-1.70726
-1.709
-1.71072
-1.7124
-1.71406
-1.71568
-1.71727
-1.71883
-1.72036
-1.72187
-1.72334
-1.72479
-1.72621
-1.72761
-1.72898
-1.73031
-1.35001
-1.35013
-1.35072
-1.35167
-1.35293
-1.35452
-1.3564
-1.35857
-1.361
-1.36367
-1.36658
-1.36969
-1.37301
-1.37652
-1.38019
-1.38402
-1.38799
-1.3921
-1.39632
-1.40066
-1.40509
-1.4096
-1.4142
-1.41886
-1.42359
-1.42836
-1.43318
-1.43803
-1.44292
-1.44782
-1.45274
-1.45767
-1.4626
-1.46754
-1.47246
-1.47738
-1.48228
-1.48716
-1.49202
-1.49686
-1.50167
-1.50644
-1.51118
-1.51588
-1.52054
-1.52516
-1.52974
-1.53427
-1.53876
-1.54319
-1.54758
-1.55192
-1.5562
-1.56044
-1.56462
-1.56874
-1.57281
-1.57683
-1.58079
-1.5847
-1.58855
-1.59234
-1.59608
-1.59976
-1.60339
-1.60696
-1.61048
-1.61394
-1.61734
-1.62069
-1.62399
-1.62724
-1.63043
-1.63356
-1.63665
-1.63968
-1.64266
-1.64559
-1.64848
-1.65131
-1.65409
-1.65682
-1.65951
-1.66215
-1.66474
-1.66729
-1.66979
-1.67224
-1.67466
-1.67702
-1.67935
-1.68163
-1.68388
-1.68608
-1.68824
-1.69036
-1.69245
-1.69449
-1.6965
-1.69847
-1.70041
-1.70231
-1.70417
-1.706
-1.7078
-1.70956
-1.71129
-1.71298
-1.71465
-1.71629
-1.71789
-1.71947
-1.72101
-1.72253
-1.72402
-1.72548
-1.72691
-1.72832
-1.7297
-1.73104
-1.34883
-1.34893
-1.3495
-1.35043
-1.35169
-1.35326
-1.35513
-1.35729
-1.35971
-1.36238
-1.36529
-1.3684
-1.37172
-1.37522
-1.3789
-1.38273
-1.38671
-1.39082
-1.39506
-1.3994
-1.40384
-1.40837
-1.41298
-1.41765
-1.42239
-1.42718
-1.43201
-1.43688
-1.44178
-1.44671
-1.45165
-1.4566
-1.46155
-1.4665
-1.47145
-1.47639
-1.48132
-1.48622
-1.49111
-1.49597
-1.5008
-1.50559
-1.51036
-1.51509
-1.51977
-1.52442
-1.52902
-1.53358
-1.53809
-1.54256
-1.54697
-1.55133
-1.55564
-1.5599
-1.56411
-1.56826
-1.57236
-1.5764
-1.58039
-1.58432
-1.5882
-1.59202
-1.59578
-1.59949
-1.60314
-1.60674
-1.61028
-1.61377
-1.6172
-1.62057
-1.6239
-1.62716
-1.63038
-1.63354
-1.63665
-1.6397
-1.64271
-1.64566
-1.64857
-1.65142
-1.65422
-1.65698
-1.65969
-1.66235
-1.66496
-1.66753
-1.67005
-1.67253
-1.67496
-1.67735
-1.67969
-1.682
-1.68426
-1.68648
-1.68866
-1.6908
-1.6929
-1.69496
-1.69699
-1.69898
-1.70093
-1.70285
-1.70473
-1.70657
-1.70838
-1.71016
-1.71191
-1.71362
-1.7153
-1.71695
-1.71857
-1.72016
-1.72172
-1.72325
-1.72475
-1.72623
-1.72767
-1.72909
-1.73048
-1.73184
-1.34755
-1.34763
-1.34819
-1.3491
-1.35034
-1.3519
-1.35377
-1.35591
-1.35833
-1.36099
-1.36389
-1.36701
-1.37032
-1.37383
-1.3775
-1.38134
-1.38533
-1.38944
-1.39369
-1.39804
-1.40249
-1.40703
-1.41165
-1.41634
-1.4211
-1.4259
-1.43075
-1.43564
-1.44056
-1.4455
-1.45046
-1.45543
-1.46041
-1.46539
-1.47036
-1.47532
-1.48027
-1.4852
-1.49011
-1.495
-1.49985
-1.50468
-1.50947
-1.51422
-1.51894
-1.52361
-1.52825
-1.53283
-1.53737
-1.54186
-1.54631
-1.5507
-1.55504
-1.55933
-1.56356
-1.56774
-1.57187
-1.57594
-1.57996
-1.58392
-1.58782
-1.59167
-1.59546
-1.5992
-1.60288
-1.6065
-1.61007
-1.61358
-1.61704
-1.62044
-1.62379
-1.62709
-1.63033
-1.63351
-1.63665
-1.63973
-1.64276
-1.64574
-1.64867
-1.65154
-1.65437
-1.65715
-1.65988
-1.66257
-1.6652
-1.66779
-1.67033
-1.67283
-1.67529
-1.6777
-1.68006
-1.68239
-1.68467
-1.68691
-1.68911
-1.69127
-1.69339
-1.69548
-1.69752
-1.69953
-1.7015
-1.70343
-1.70533
-1.70719
-1.70902
-1.71082
-1.71258
-1.71431
-1.716
-1.71767
-1.71931
-1.72091
-1.72248
-1.72403
-1.72555
-1.72704
-1.7285
-1.72993
-1.73134
-1.7327
-1.34618
-1.34624
-1.34678
-1.34767
-1.34889
-1.35044
-1.3523
-1.35443
-1.35684
-1.3595
-1.36239
-1.36551
-1.36882
-1.37233
-1.37601
-1.37985
-1.38384
-1.38796
-1.39221
-1.39658
-1.40104
-1.40559
-1.41023
-1.41493
-1.4197
-1.42453
-1.4294
-1.4343
-1.43924
-1.44421
-1.44919
-1.45418
-1.45918
-1.46419
-1.46918
-1.47417
-1.47915
-1.48411
-1.48904
-1.49396
-1.49884
-1.5037
-1.50852
-1.5133
-1.51805
-1.52275
-1.52741
-1.53203
-1.5366
-1.54112
-1.54559
-1.55002
-1.55439
-1.55871
-1.56297
-1.56718
-1.57134
-1.57544
-1.57949
-1.58348
-1.58741
-1.59129
-1.59512
-1.59888
-1.60259
-1.60625
-1.60984
-1.61339
-1.61687
-1.6203
-1.62368
-1.627
-1.63027
-1.63349
-1.63665
-1.63976
-1.64281
-1.64582
-1.64877
-1.65168
-1.65453
-1.65733
-1.66009
-1.6628
-1.66546
-1.66807
-1.67064
-1.67316
-1.67564
-1.67807
-1.68046
-1.68281
-1.68511
-1.68738
-1.6896
-1.69178
-1.69392
-1.69602
-1.69809
-1.70012
-1.70211
-1.70406
-1.70598
-1.70786
-1.70971
-1.71152
-1.7133
-1.71505
-1.71676
-1.71844
-1.7201
-1.72172
-1.72331
-1.72487
-1.7264
-1.72791
-1.72939
-1.73083
-1.73225
-1.73363
-1.34471
-1.34475
-1.34527
-1.34615
-1.34735
-1.34888
-1.35073
-1.35285
-1.35525
-1.3579
-1.36079
-1.3639
-1.36722
-1.37073
-1.37441
-1.37825
-1.38225
-1.38638
-1.39064
-1.39501
-1.39949
-1.40406
-1.40871
-1.41343
-1.41822
-1.42306
-1.42795
-1.43288
-1.43784
-1.44283
-1.44783
-1.45285
-1.45788
-1.4629
-1.46793
-1.47294
-1.47795
-1.48294
-1.4879
-1.49284
-1.49776
-1.50264
-1.5075
-1.51231
-1.51709
-1.52183
-1.52652
-1.53117
-1.53577
-1.54033
-1.54483
-1.54929
-1.55369
-1.55804
-1.56234
-1.56659
-1.57078
-1.57491
-1.57899
-1.58301
-1.58698
-1.59089
-1.59475
-1.59854
-1.60229
-1.60597
-1.6096
-1.61317
-1.61669
-1.62015
-1.62356
-1.62691
-1.63021
-1.63346
-1.63665
-1.63978
-1.64287
-1.6459
-1.64889
-1.65182
-1.6547
-1.65753
-1.66031
-1.66305
-1.66574
-1.66837
-1.67097
-1.67352
-1.67602
-1.67848
-1.68089
-1.68326
-1.68559
-1.68787
-1.69012
-1.69232
-1.69449
-1.69661
-1.6987
-1.70075
-1.70276
-1.70473
-1.70667
-1.70857
-1.71044
-1.71227
-1.71407
-1.71584
-1.71757
-1.71927
-1.72094
-1.72258
-1.72419
-1.72577
-1.72732
-1.72884
-1.73034
-1.7318
-1.73324
-1.73463
-1.34316
-1.34317
-1.34367
-1.34452
-1.34571
-1.34723
-1.34906
-1.35118
-1.35357
-1.35621
-1.35909
-1.3622
-1.36552
-1.36902
-1.37271
-1.37656
-1.38056
-1.3847
-1.38897
-1.39336
-1.39784
-1.40243
-1.40709
-1.41183
-1.41664
-1.4215
-1.42641
-1.43136
-1.43634
-1.44135
-1.44639
-1.45143
-1.45648
-1.46154
-1.46659
-1.47164
-1.47667
-1.48169
-1.48669
-1.49166
-1.49661
-1.50153
-1.50641
-1.51126
-1.51607
-1.52084
-1.52557
-1.53025
-1.53489
-1.53948
-1.54402
-1.54851
-1.55295
-1.55734
-1.56167
-1.56595
-1.57018
-1.57435
-1.57846
-1.58252
-1.58652
-1.59046
-1.59435
-1.59818
-1.60196
-1.60568
-1.60934
-1.61295
-1.6165
-1.61999
-1.62343
-1.62682
-1.63015
-1.63342
-1.63665
-1.63982
-1.64293
-1.646
-1.64901
-1.65197
-1.65488
-1.65774
-1.66055
-1.66331
-1.66603
-1.6687
-1.67132
-1.67389
-1.67642
-1.6789
-1.68134
-1.68374
-1.68609
-1.6884
-1.69067
-1.6929
-1.69509
-1.69724
-1.69935
-1.70142
-1.70345
-1.70545
-1.70741
-1.70933
-1.71122
-1.71307
-1.71489
-1.71668
-1.71843
-1.72016
-1.72185
-1.7235
-1.72513
-1.72673
-1.7283
-1.72984
-1.73135
-1.73283
-1.73428
-1.73569
-1.34152
-1.3415
-1.34197
-1.34281
-1.34398
-1.34548
-1.3473
-1.3494
-1.35178
-1.35442
-1.3573
-1.3604
-1.36372
-1.36722
-1.37091
-1.37477
-1.37878
-1.38293
-1.3872
-1.3916
-1.3961
-1.4007
-1.40538
-1.41014
-1.41496
-1.41985
-1.42478
-1.42975
-1.43476
-1.4398
-1.44486
-1.44993
-1.45501
-1.46009
-1.46518
-1.47025
-1.47532
-1.48037
-1.4854
-1.49041
-1.49539
-1.50034
-1.50526
-1.51015
-1.51499
-1.5198
-1.52456
-1.52928
-1.53396
-1.53858
-1.54316
-1.54769
-1.55217
-1.55659
-1.56096
-1.56528
-1.56954
-1.57375
-1.5779
-1.58199
-1.58603
-1.59001
-1.59394
-1.5978
-1.60162
-1.60537
-1.60907
-1.61271
-1.6163
-1.61983
-1.6233
-1.62672
-1.63008
-1.63339
-1.63665
-1.63985
-1.643
-1.64609
-1.64914
-1.65213
-1.65507
-1.65796
-1.6608
-1.6636
-1.66634
-1.66904
-1.67169
-1.67429
-1.67685
-1.67936
-1.68183
-1.68425
-1.68663
-1.68897
-1.69126
-1.69351
-1.69573
-1.6979
-1.70004
-1.70213
-1.70419
-1.70621
-1.70819
-1.71014
-1.71205
-1.71392
-1.71577
-1.71757
-1.71935
-1.72109
-1.7228
-1.72448
-1.72613
-1.72774
-1.72933
-1.73089
-1.73242
-1.73392
-1.73539
-1.73681
-1.33978
-1.33974
-1.34019
-1.341
-1.34216
-1.34364
-1.34544
-1.34753
-1.3499
-1.35253
-1.3554
-1.35851
-1.36182
-1.36533
-1.36902
-1.37288
-1.37689
-1.38105
-1.38534
-1.38975
-1.39427
-1.39888
-1.40358
-1.40836
-1.4132
-1.4181
-1.42306
-1.42806
-1.43309
-1.43816
-1.44324
-1.44834
-1.45346
-1.45857
-1.46369
-1.4688
-1.47389
-1.47898
-1.48404
-1.48909
-1.49411
-1.49909
-1.50405
-1.50897
-1.51386
-1.5187
-1.5235
-1.52826
-1.53297
-1.53764
-1.54226
-1.54682
-1.55134
-1.5558
-1.56021
-1.56457
-1.56887
-1.57311
-1.5773
-1.58144
-1.58551
-1.58953
-1.5935
-1.5974
-1.60125
-1.60504
-1.60878
-1.61246
-1.61608
-1.61965
-1.62316
-1.62661
-1.63001
-1.63336
-1.63665
-1.63988
-1.64306
-1.64619
-1.64927
-1.6523
-1.65527
-1.6582
-1.66107
-1.66389
-1.66667
-1.6694
-1.67208
-1.67471
-1.6773
-1.67984
-1.68233
-1.68479
-1.68719
-1.68956
-1.69188
-1.69416
-1.6964
-1.6986
-1.70076
-1.70288
-1.70497
-1.70701
-1.70902
-1.71099
-1.71292
-1.71482
-1.71669
-1.71852
-1.72032
-1.72208
-1.72381
-1.72551
-1.72718
-1.72882
-1.73042
-1.732
-1.73355
-1.73507
-1.73656
-1.738
-1.33796
-1.33789
-1.33832
-1.33911
-1.34024
-1.3417
-1.34349
-1.34557
-1.34793
-1.35055
-1.35342
-1.35651
-1.35982
-1.36333
-1.36703
-1.37089
-1.37492
-1.37909
-1.38339
-1.38781
-1.39234
-1.39697
-1.40168
-1.40648
-1.41135
-1.41627
-1.42125
-1.42628
-1.43134
-1.43643
-1.44155
-1.44668
-1.45182
-1.45697
-1.46212
-1.46726
-1.4724
-1.47752
-1.48262
-1.4877
-1.49275
-1.49778
-1.50277
-1.50774
-1.51266
-1.51754
-1.52239
-1.52718
-1.53194
-1.53664
-1.5413
-1.54591
-1.55047
-1.55497
-1.55942
-1.56382
-1.56816
-1.57245
-1.57668
-1.58085
-1.58497
-1.58903
-1.59303
-1.59698
-1.60087
-1.6047
-1.60848
-1.61219
-1.61585
-1.61946
-1.62301
-1.6265
-1.62994
-1.63332
-1.63664
-1.63992
-1.64314
-1.6463
-1.64941
-1.65248
-1.65548
-1.65844
-1.66135
-1.66421
-1.66702
-1.66978
-1.67249
-1.67515
-1.67777
-1.68034
-1.68287
-1.68535
-1.68779
-1.69018
-1.69254
-1.69485
-1.69711
-1.69934
-1.70153
-1.70368
-1.70578
-1.70786
-1.70989
-1.71188
-1.71384
-1.71577
-1.71766
-1.71951
-1.72133
-1.72312
-1.72487
-1.7266
-1.72829
-1.72995
-1.73158
-1.73318
-1.73475
-1.73629
-1.73779
-1.73925
-1.33606
-1.33596
-1.33636
-1.33712
-1.33823
-1.33968
-1.34145
-1.34351
-1.34586
-1.34847
-1.35133
-1.35443
-1.35774
-1.36125
-1.36495
-1.36882
-1.37285
-1.37702
-1.38134
-1.38577
-1.39032
-1.39496
-1.3997
-1.40452
-1.40941
-1.41436
-1.41936
-1.42441
-1.4295
-1.43462
-1.43977
-1.44493
-1.45011
-1.45529
-1.46047
-1.46565
-1.47082
-1.47598
-1.48112
-1.48624
-1.49134
-1.4964
-1.50144
-1.50644
-1.5114
-1.51633
-1.52121
-1.52606
-1.53085
-1.5356
-1.5403
-1.54495
-1.54955
-1.5541
-1.55859
-1.56303
-1.56742
-1.57175
-1.57602
-1.58024
-1.5844
-1.5885
-1.59255
-1.59654
-1.60047
-1.60434
-1.60816
-1.61192
-1.61562
-1.61926
-1.62285
-1.62638
-1.62986
-1.63328
-1.63664
-1.63996
-1.64321
-1.64641
-1.64956
-1.65266
-1.65571
-1.6587
-1.66164
-1.66454
-1.66738
-1.67017
-1.67292
-1.67562
-1.67827
-1.68087
-1.68343
-1.68595
-1.68841
-1.69084
-1.69322
-1.69556
-1.69786
-1.70012
-1.70233
-1.70451
-1.70664
-1.70874
-1.7108
-1.71283
-1.71481
-1.71676
-1.71868
-1.72056
-1.7224
-1.72421
-1.72599
-1.72774
-1.72945
-1.73113
-1.73279
-1.73441
-1.736
-1.73756
-1.73909
-1.74056
-1.33407
-1.33394
-1.33431
-1.33505
-1.33614
-1.33756
-1.33931
-1.34137
-1.3437
-1.34631
-1.34916
-1.35225
-1.35556
-1.35907
-1.36277
-1.36665
-1.37068
-1.37487
-1.37919
-1.38364
-1.3882
-1.39287
-1.39763
-1.40246
-1.40738
-1.41235
-1.41738
-1.42246
-1.42758
-1.43273
-1.43791
-1.44311
-1.44832
-1.45354
-1.45876
-1.46397
-1.46918
-1.47438
-1.47956
-1.48472
-1.48985
-1.49496
-1.50004
-1.50508
-1.51009
-1.51506
-1.51999
-1.52487
-1.52972
-1.53451
-1.53925
-1.54395
-1.5486
-1.55319
-1.55773
-1.56221
-1.56664
-1.57102
-1.57533
-1.5796
-1.5838
-1.58795
-1.59204
-1.59607
-1.60005
-1.60396
-1.60782
-1.61162
-1.61537
-1.61906
-1.62269
-1.62626
-1.62978
-1.63324
-1.63664
-1.63999
-1.64329
-1.64653
-1.64972
-1.65286
-1.65594
-1.65897
-1.66195
-1.66488
-1.66776
-1.67059
-1.67337
-1.6761
-1.67879
-1.68143
-1.68402
-1.68657
-1.68907
-1.69153
-1.69394
-1.69631
-1.69864
-1.70093
-1.70317
-1.70538
-1.70754
-1.70967
-1.71176
-1.71381
-1.71582
-1.7178
-1.71974
-1.72165
-1.72352
-1.72536
-1.72716
-1.72893
-1.73067
-1.73238
-1.73405
-1.7357
-1.73731
-1.7389
-1.74044
-1.74194
-1.33201
-1.33184
-1.33218
-1.33289
-1.33396
-1.33536
-1.33709
-1.33913
-1.34145
-1.34405
-1.3469
-1.34998
-1.35329
-1.3568
-1.3605
-1.36438
-1.36843
-1.37263
-1.37696
-1.38143
-1.386
-1.39069
-1.39546
-1.40033
-1.40526
-1.41026
-1.41532
-1.42043
-1.42558
-1.43076
-1.43597
-1.4412
-1.44645
-1.4517
-1.45696
-1.46222
-1.46747
-1.4727
-1.47792
-1.48313
-1.48831
-1.49346
-1.49858
-1.50367
-1.50872
-1.51374
-1.51871
-1.52364
-1.52853
-1.53337
-1.53816
-1.5429
-1.5476
-1.55224
-1.55682
-1.56135
-1.56583
-1.57025
-1.57462
-1.57893
-1.58318
-1.58737
-1.59151
-1.59559
-1.59961
-1.60357
-1.60747
-1.61132
-1.61511
-1.61884
-1.62251
-1.62613
-1.62969
-1.63319
-1.63664
-1.64003
-1.64337
-1.64666
-1.64989
-1.65306
-1.65618
-1.65925
-1.66227
-1.66524
-1.66816
-1.67103
-1.67384
-1.67661
-1.67933
-1.68201
-1.68464
-1.68722
-1.68975
-1.69224
-1.69469
-1.69709
-1.69946
-1.70177
-1.70405
-1.70629
-1.70848
-1.71064
-1.71276
-1.71484
-1.71688
-1.71889
-1.72086
-1.72279
-1.72469
-1.72655
-1.72838
-1.73018
-1.73194
-1.73367
-1.73537
-1.73704
-1.73868
-1.74029
-1.74186
-1.74337
-1.32986
-1.32966
-1.32996
-1.33065
-1.33169
-1.33307
-1.33479
-1.33681
-1.33912
-1.3417
-1.34454
-1.34762
-1.35093
-1.35444
-1.35815
-1.36203
-1.36609
-1.37029
-1.37464
-1.37912
-1.38372
-1.38842
-1.39322
-1.3981
-1.40306
-1.40809
-1.41318
-1.41831
-1.42349
-1.42871
-1.43396
-1.43922
-1.44451
-1.4498
-1.4551
-1.46039
-1.46568
-1.47096
-1.47622
-1.48147
-1.48669
-1.49189
-1.49706
-1.50219
-1.50729
-1.51236
-1.51738
-1.52236
-1.52729
-1.53218
-1.53702
-1.54181
-1.54655
-1.55124
-1.55588
-1.56046
-1.56499
-1.56946
-1.57387
-1.57823
-1.58253
-1.58677
-1.59095
-1.59508
-1.59915
-1.60316
-1.60711
-1.611
-1.61484
-1.61861
-1.62233
-1.62599
-1.6296
-1.63315
-1.63664
-1.64008
-1.64346
-1.64678
-1.65006
-1.65327
-1.65644
-1.65955
-1.66261
-1.66562
-1.66857
-1.67148
-1.67433
-1.67714
-1.6799
-1.68261
-1.68528
-1.68789
-1.69046
-1.69299
-1.69547
-1.69791
-1.70031
-1.70266
-1.70497
-1.70724
-1.70946
-1.71165
-1.7138
-1.71591
-1.71799
-1.72002
-1.72202
-1.72398
-1.72591
-1.7278
-1.72966
-1.73148
-1.73327
-1.73503
-1.73675
-1.73845
-1.74011
-1.74174
-1.74334
-1.74487
-1.32763
-1.32739
-1.32767
-1.32833
-1.32934
-1.3307
-1.33239
-1.3344
-1.3367
-1.33927
-1.3421
-1.34517
-1.34848
-1.35199
-1.3557
-1.35959
-1.36365
-1.36787
-1.37223
-1.37673
-1.38134
-1.38606
-1.39088
-1.39579
-1.40077
-1.40583
-1.41095
-1.41612
-1.42133
-1.42658
-1.43186
-1.43717
-1.44249
-1.44782
-1.45316
-1.45849
-1.46383
-1.46915
-1.47446
-1.47975
-1.48502
-1.49026
-1.49548
-1.50066
-1.50581
-1.51092
-1.51599
-1.52102
-1.52601
-1.53095
-1.53584
-1.54068
-1.54547
-1.55021
-1.5549
-1.55953
-1.56411
-1.56863
-1.57309
-1.5775
-1.58185
-1.58614
-1.59038
-1.59455
-1.59867
-1.60273
-1.60673
-1.61067
-1.61455
-1.61838
-1.62215
-1.62585
-1.62951
-1.6331
-1.63664
-1.64012
-1.64355
-1.64692
-1.65023
-1.65349
-1.6567
-1.65985
-1.66296
-1.666
-1.669
-1.67195
-1.67485
-1.67769
-1.68049
-1.68324
-1.68594
-1.6886
-1.69121
-1.69377
-1.69629
-1.69876
-1.70119
-1.70358
-1.70592
-1.70822
-1.71048
-1.71271
-1.71489
-1.71703
-1.71913
-1.7212
-1.72323
-1.72522
-1.72717
-1.7291
-1.73098
-1.73283
-1.73465
-1.73644
-1.73819
-1.73991
-1.7416
-1.74326
-1.74488
-1.74643
-1.32532
-1.32505
-1.32529
-1.32592
-1.3269
-1.32824
-1.32992
-1.3319
-1.33419
-1.33675
-1.33957
-1.34264
-1.34594
-1.34945
-1.35317
-1.35706
-1.36113
-1.36536
-1.36974
-1.37425
-1.37888
-1.38362
-1.38846
-1.39339
-1.39841
-1.40349
-1.40864
-1.41384
-1.41909
-1.42437
-1.42969
-1.43503
-1.44039
-1.44576
-1.45114
-1.45652
-1.4619
-1.46727
-1.47263
-1.47796
-1.48328
-1.48857
-1.49384
-1.49907
-1.50427
-1.50943
-1.51456
-1.51964
-1.52467
-1.52966
-1.53461
-1.5395
-1.54435
-1.54914
-1.55388
-1.55856
-1.56319
-1.56777
-1.57228
-1.57674
-1.58115
-1.58549
-1.58978
-1.594
-1.59817
-1.60228
-1.60633
-1.61033
-1.61426
-1.61813
-1.62195
-1.62571
-1.62941
-1.63305
-1.63664
-1.64016
-1.64364
-1.64705
-1.65042
-1.65372
-1.65697
-1.66017
-1.66332
-1.66641
-1.66945
-1.67244
-1.67538
-1.67826
-1.6811
-1.68389
-1.68663
-1.68933
-1.69198
-1.69458
-1.69713
-1.69964
-1.70211
-1.70453
-1.70691
-1.70925
-1.71154
-1.7138
-1.71601
-1.71819
-1.72032
-1.72242
-1.72448
-1.72651
-1.72849
-1.73044
-1.73236
-1.73424
-1.73609
-1.7379
-1.73968
-1.74143
-1.74314
-1.74483
-1.74647
-1.74805
-1.32294
-1.32262
-1.32283
-1.32343
-1.32439
-1.3257
-1.32735
-1.32932
-1.33159
-1.33414
-1.33696
-1.34002
-1.34332
-1.34683
-1.35055
-1.35445
-1.35853
-1.36277
-1.36716
-1.37168
-1.37633
-1.38109
-1.38596
-1.39091
-1.39596
-1.40107
-1.40625
-1.41148
-1.41676
-1.42208
-1.42744
-1.43282
-1.43822
-1.44364
-1.44906
-1.45449
-1.45991
-1.46532
-1.47073
-1.47611
-1.48148
-1.48682
-1.49214
-1.49742
-1.50267
-1.50789
-1.51306
-1.5182
-1.52329
-1.52834
-1.53333
-1.53828
-1.54318
-1.54803
-1.55282
-1.55756
-1.56225
-1.56687
-1.57145
-1.57596
-1.58042
-1.58482
-1.58916
-1.59344
-1.59766
-1.60182
-1.60592
-1.60997
-1.61395
-1.61788
-1.62175
-1.62556
-1.62931
-1.633
-1.63663
-1.64021
-1.64373
-1.6472
-1.6506
-1.65396
-1.65726
-1.6605
-1.66369
-1.66683
-1.66991
-1.67295
-1.67593
-1.67886
-1.68174
-1.68457
-1.68735
-1.69009
-1.69277
-1.69541
-1.69801
-1.70056
-1.70306
-1.70552
-1.70794
-1.71031
-1.71264
-1.71493
-1.71718
-1.71939
-1.72156
-1.72369
-1.72579
-1.72784
-1.72986
-1.73184
-1.73379
-1.7357
-1.73757
-1.73942
-1.74123
-1.743
-1.74475
-1.74646
-1.74813
-1.74973
-1.32048
-1.32012
-1.3203
-1.32087
-1.32179
-1.32308
-1.32471
-1.32666
-1.32891
-1.33145
-1.33426
-1.33731
-1.34061
-1.34412
-1.34784
-1.35175
-1.35584
-1.36009
-1.36449
-1.36903
-1.3737
-1.37848
-1.38337
-1.38835
-1.39342
-1.39857
-1.40378
-1.40904
-1.41436
-1.41972
-1.42511
-1.43054
-1.43598
-1.44144
-1.44691
-1.45238
-1.45785
-1.46331
-1.46876
-1.4742
-1.47962
-1.48501
-1.49038
-1.49572
-1.50102
-1.50629
-1.51152
-1.51671
-1.52186
-1.52696
-1.53201
-1.53702
-1.54197
-1.54688
-1.55173
-1.55652
-1.56126
-1.56595
-1.57058
-1.57515
-1.57966
-1.58412
-1.58851
-1.59285
-1.59712
-1.60134
-1.6055
-1.6096
-1.61364
-1.61762
-1.62154
-1.6254
-1.6292
-1.63294
-1.63663
-1.64026
-1.64383
-1.64734
-1.6508
-1.6542
-1.65755
-1.66084
-1.66408
-1.66726
-1.67039
-1.67347
-1.6765
-1.67947
-1.6824
-1.68527
-1.68809
-1.69087
-1.6936
-1.69628
-1.69892
-1.7015
-1.70405
-1.70655
-1.709
-1.71141
-1.71378
-1.71611
-1.71839
-1.72064
-1.72284
-1.72501
-1.72713
-1.72922
-1.73127
-1.73329
-1.73527
-1.73721
-1.73912
-1.74099
-1.74283
-1.74463
-1.74641
-1.74815
-1.74985
-1.75147
-1.31794
-1.31755
-1.31769
-1.31822
-1.31912
-1.32038
-1.32199
-1.32392
-1.32615
-1.32868
-1.33147
-1.33453
-1.33782
-1.34133
-1.34505
-1.34897
-1.35306
-1.35732
-1.36174
-1.3663
-1.37098
-1.37579
-1.3807
-1.38571
-1.39081
-1.39598
-1.40123
-1.40653
-1.41188
-1.41728
-1.42271
-1.42818
-1.43366
-1.43917
-1.44468
-1.4502
-1.45572
-1.46123
-1.46673
-1.47222
-1.47769
-1.48314
-1.48856
-1.49396
-1.49932
-1.50464
-1.50993
-1.51518
-1.52038
-1.52554
-1.53065
-1.53571
-1.54073
-1.54569
-1.5506
-1.55545
-1.56025
-1.56499