/*--------------------------------*- C++ -*----------------------------------*\
  =========                 |
  \\      /  F ield         | OpenFOAM: The Open Source CFD Toolbox
   \\    /   O peration     | Website:  https://openfoam.org
    \\  /    A nd           | Version:  10
     \\/     M anipulation  |
\*---------------------------------------------------------------------------*/
FoamFile
{
    format      ascii;
    class       volScalarField;
    location    "692";
    object      alphat;
}
// * * * * * * * * * * * * * * * * * * * * * * * * * * * * * * * * * * * * * //

dimensions      [1 -1 -1 0 0 0 0];

internalField   nonuniform List<scalar> 
13140
(
1.66497e-06
3.80641e-06
8.07447e-06
1.85828e-05
4.66693e-05
0.000108937
0.000197439
0.000283505
0.000348907
0.000391171
0.000415957
0.000430581
0.000439672
0.000445601
0.000449466
0.000451823
0.000453086
0.000453527
0.000453374
0.000452757
0.000451742
0.000450361
0.000448623
0.000446515
0.000444041
0.000441227
0.000438134
0.000434858
0.000431545
0.00042835
0.00042561
0.000423646
0.000422335
0.00042139
0.000420563
0.000419685
0.000418665
0.000417441
0.000415975
0.000414256
0.000412276
0.000410033
0.000407536
0.000404786
0.000401788
0.000398544
0.000395059
0.000391336
0.000387367
0.000383142
0.000378661
0.000373896
0.000368837
0.000363428
0.000357643
0.000351354
0.000344502
0.000336494
0.00032747
0.00031303
2.83041e-06
2.79727e-06
2.75636e-06
2.97609e-06
3.40171e-06
4.48826e-06
7.66748e-06
1.68687e-05
3.85454e-05
7.52204e-05
0.000120077
0.000162847
0.000198374
0.00022569
0.000245627
0.000259766
0.000270243
0.000278693
0.000286204
0.000293359
0.000300375
0.000307269
0.000313976
0.000320448
0.000326635
0.000332523
0.000338132
0.000343509
0.000348738
0.00035397
0.00035893
0.000363458
0.000367739
0.000371795
0.000375565
0.000379011
0.000382142
0.000384965
0.000387492
0.000389732
0.000391705
0.000393424
0.000394905
0.000396165
0.000397218
0.000398076
0.000398752
0.000399254
0.000399592
0.000399771
0.000399793
0.00039966
0.000399369
0.00039891
0.000398269
0.00039742
0.000396282
0.00039477
0.000392441
0.000389025
3.23065e-06
3.18221e-06
3.13883e-06
3.09456e-06
3.0981e-06
3.13751e-06
3.2233e-06
3.4036e-06
3.77989e-06
4.55277e-06
6.0901e-06
8.75041e-06
1.35539e-05
2.24222e-05
3.65866e-05
5.63382e-05
8.06292e-05
0.000107463
0.000135067
0.00016226
0.000188352
0.000213019
0.000236183
0.000257924
0.000278418
0.000297893
0.000316583
0.000334716
0.000352531
0.000370307
0.00038708
0.000402007
0.000415434
0.000427586
0.000438605
0.000448609
0.000457703
0.000465971
0.000473495
0.000480329
0.00048655
0.0004922
0.000497328
0.000501975
0.000506178
0.000509966
0.000513364
0.00051639
0.000519067
0.000521407
0.000523411
0.00052509
0.000526432
0.000527429
0.000528046
0.000528239
0.000527868
0.000526725
0.000524317
0.000520554
3.3407e-06
3.28801e-06
3.25657e-06
3.22252e-06
3.18658e-06
3.1586e-06
3.16293e-06
3.17416e-06
3.19782e-06
3.23892e-06
3.30648e-06
3.41376e-06
3.58577e-06
3.87465e-06
4.36169e-06
5.18084e-06
6.60187e-06
9.08839e-06
1.3392e-05
2.06727e-05
3.23334e-05
4.9603e-05
7.27867e-05
0.000100923
0.000132239
0.000165013
0.00019806
0.000230794
0.000263075
0.000295058
0.000324772
0.00035072
0.000373694
0.000394204
0.000412668
0.000429375
0.000444569
0.000458434
0.000471128
0.000482751
0.000493449
0.00050329
0.00051236
0.000520731
0.000528461
0.000535604
0.000542199
0.000548279
0.000553889
0.000559056
0.000563785
0.000568115
0.000572034
0.000575566
0.000578683
0.000581378
0.00058358
0.000585177
0.000585929
0.000585715
3.38325e-06
3.32383e-06
3.29641e-06
3.2737e-06
3.2496e-06
3.22305e-06
3.19507e-06
3.16636e-06
3.16158e-06
3.16355e-06
3.17123e-06
3.18462e-06
3.20419e-06
3.23158e-06
3.26992e-06
3.32417e-06
3.40392e-06
3.52442e-06
3.71205e-06
4.02072e-06
4.55901e-06
5.47542e-06
7.02325e-06
9.85559e-06
1.54486e-05
2.5589e-05
4.26907e-05
6.84319e-05
0.000102347
0.000142085
0.000181783
0.000217215
0.000248772
0.000276972
0.000302368
0.000325358
0.00034631
0.0003655
0.000383164
0.000399446
0.00041456
0.0004286
0.000441681
0.000453909
0.000465363
0.000476116
0.000486224
0.000495734
0.000504713
0.000513206
0.000521221
0.000528831
0.000536029
0.000542877
0.00054936
0.000555525
0.000561366
0.000566891
0.000571987
0.00057655
3.38441e-06
3.33584e-06
3.31448e-06
3.29833e-06
3.28229e-06
3.26498e-06
3.24595e-06
3.22551e-06
3.20435e-06
3.18276e-06
3.17606e-06
3.17382e-06
3.17415e-06
3.17733e-06
3.18355e-06
3.19292e-06
3.20597e-06
3.22346e-06
3.24669e-06
3.27806e-06
3.32144e-06
3.38824e-06
3.49526e-06
3.6755e-06
3.99806e-06
4.58466e-06
5.66575e-06
7.69692e-06
1.15897e-05
1.91135e-05
3.16616e-05
4.87316e-05
6.95176e-05
9.26354e-05
0.00011675
0.000140789
0.000164155
0.000186527
0.000207795
0.000227877
0.000246896
0.000264861
0.000281853
0.000297963
0.000313263
0.000327824
0.000341706
0.000354961
0.000367678
0.000379911
0.000391671
0.000403069
0.000414094
0.000424852
0.000435332
0.000445628
0.000455776
0.000465866
0.00047579
0.000485463
3.37975e-06
3.34048e-06
3.32325e-06
3.31079e-06
3.29914e-06
3.28664e-06
3.27277e-06
3.25765e-06
3.24181e-06
3.2257e-06
3.20929e-06
3.19261e-06
3.17576e-06
3.16818e-06
3.16483e-06
3.16339e-06
3.16352e-06
3.16553e-06
3.1696e-06
3.17599e-06
3.18502e-06
3.19708e-06
3.21285e-06
3.23376e-06
3.26383e-06
3.31114e-06
3.39013e-06
3.52489e-06
3.75569e-06
4.14058e-06
4.71425e-06
5.50316e-06
6.59221e-06
8.20016e-06
1.04544e-05
1.35617e-05
1.77429e-05
2.32192e-05
3.01728e-05
3.86577e-05
4.86971e-05
6.01233e-05
7.27165e-05
8.62253e-05
0.000100378
0.000114934
0.000129688
0.000144476
0.000159236
0.000173905
0.000188397
0.000202786
0.000217003
0.000231154
0.00024519
0.000259216
0.000273271
0.000287439
0.000301593
0.00031558
3.37394e-06
3.34193e-06
3.32742e-06
3.31722e-06
3.30822e-06
3.2987e-06
3.28822e-06
3.27676e-06
3.26458e-06
3.25191e-06
3.23901e-06
3.22611e-06
3.2133e-06
3.20018e-06
3.18671e-06
3.17292e-06
3.15927e-06
3.15309e-06
3.15027e-06
3.14928e-06
3.14986e-06
3.15212e-06
3.15619e-06
3.16217e-06
3.17e-06
3.17921e-06
3.19058e-06
3.20533e-06
3.22583e-06
3.25524e-06
3.29214e-06
3.33409e-06
3.38644e-06
3.45267e-06
3.53674e-06
3.64571e-06
3.79964e-06
4.01258e-06
4.30331e-06
4.69195e-06
5.20965e-06
5.88837e-06
6.77055e-06
7.91005e-06
9.37048e-06
1.12281e-05
1.35684e-05
1.64845e-05
2.00892e-05
2.44896e-05
2.97641e-05
3.60326e-05
4.33198e-05
5.17093e-05
6.11516e-05
7.16613e-05
8.31816e-05
9.56602e-05
0.000108864
0.000122414
3.36796e-06
3.34188e-06
3.32896e-06
3.32025e-06
3.3129e-06
3.30559e-06
3.29767e-06
3.28884e-06
3.27929e-06
3.26917e-06
3.25867e-06
3.24804e-06
3.23751e-06
3.22713e-06
3.21699e-06
3.20655e-06
3.19569e-06
3.18442e-06
3.17277e-06
3.16078e-06
3.14861e-06
3.13968e-06
3.13631e-06
3.13544e-06
3.13624e-06
3.13857e-06
3.14198e-06
3.14574e-06
3.14987e-06
3.15421e-06
3.15841e-06
3.16231e-06
3.16631e-06
3.17046e-06
3.17505e-06
3.18012e-06
3.18614e-06
3.1953e-06
3.20915e-06
3.22947e-06
3.25885e-06
3.2987e-06
3.35251e-06
3.42777e-06
3.52987e-06
3.66531e-06
3.84176e-06
4.06844e-06
4.35807e-06
4.72605e-06
5.1892e-06
5.77473e-06
6.51244e-06
7.44595e-06
8.61399e-06
1.00799e-05
1.19136e-05
1.42046e-05
1.70157e-05
2.03578e-05
3.36211e-06
3.34101e-06
3.32893e-06
3.3213e-06
3.31527e-06
3.30954e-06
3.30348e-06
3.2967e-06
3.28919e-06
3.28112e-06
3.27267e-06
3.26398e-06
3.25525e-06
3.24655e-06
3.23792e-06
3.22943e-06
3.22115e-06
3.21257e-06
3.20366e-06
3.19436e-06
3.18466e-06
3.17461e-06
3.16436e-06
3.15405e-06
3.14401e-06
3.1392e-06
3.13807e-06
3.13867e-06
3.1398e-06
3.14104e-06
3.14235e-06
3.14333e-06
3.14386e-06
3.14399e-06
3.14396e-06
3.14393e-06
3.144e-06
3.14407e-06
3.1442e-06
3.14433e-06
3.14451e-06
3.14454e-06
3.14436e-06
3.14616e-06
3.15101e-06
3.15988e-06
3.17395e-06
3.19462e-06
3.22377e-06
3.26358e-06
3.31639e-06
3.38572e-06
3.47486e-06
3.58905e-06
3.73277e-06
3.91311e-06
4.13761e-06
4.41642e-06
4.75684e-06
5.16135e-06
3.3565e-06
3.33968e-06
3.32787e-06
3.32116e-06
3.31618e-06
3.31164e-06
3.30689e-06
3.3016e-06
3.29562e-06
3.28909e-06
3.28214e-06
3.27494e-06
3.26768e-06
3.2604e-06
3.25321e-06
3.24614e-06
3.23917e-06
3.23233e-06
3.22559e-06
3.21861e-06
3.21134e-06
3.20375e-06
3.19585e-06
3.18767e-06
3.1793e-06
3.17089e-06
3.16262e-06
3.15471e-06
3.1478e-06
3.14523e-06
3.14046e-06
3.13478e-06
3.12963e-06
3.12469e-06
3.11993e-06
3.11538e-06
3.11107e-06
3.10699e-06
3.10317e-06
3.09982e-06
3.09692e-06
3.09447e-06
3.09244e-06
3.09084e-06
3.08972e-06
3.08915e-06
3.08926e-06
3.09023e-06
3.09233e-06
3.09589e-06
3.10132e-06
3.10922e-06
3.12018e-06
3.1351e-06
3.15482e-06
3.18051e-06
3.2134e-06
3.25505e-06
3.30638e-06
3.36747e-06
3.35119e-06
3.33642e-06
3.3261e-06
3.32035e-06
3.31622e-06
3.31255e-06
3.30876e-06
3.3046e-06
3.29993e-06
3.29477e-06
3.28912e-06
3.2831e-06
3.27691e-06
3.2707e-06
3.26458e-06
3.25855e-06
3.25262e-06
3.24678e-06
3.24102e-06
3.23537e-06
3.22972e-06
3.22388e-06
3.21782e-06
3.21154e-06
3.20505e-06
3.19841e-06
3.1917e-06
3.18503e-06
3.17855e-06
3.17246e-06
3.16713e-06
3.16246e-06
3.15808e-06
3.15398e-06
3.15011e-06
3.14649e-06
3.14308e-06
3.13985e-06
3.13679e-06
3.13383e-06
3.13101e-06
3.12833e-06
3.12578e-06
3.12334e-06
3.12103e-06
3.11883e-06
3.11676e-06
3.11484e-06
3.11309e-06
3.11155e-06
3.11029e-06
3.10937e-06
3.1089e-06
3.10901e-06
3.10985e-06
3.11162e-06
3.11455e-06
3.11892e-06
3.12492e-06
3.13265e-06
3.3462e-06
3.33301e-06
3.32415e-06
3.3192e-06
3.31571e-06
3.31268e-06
3.30965e-06
3.30638e-06
3.30269e-06
3.2988e-06
3.29427e-06
3.28929e-06
3.28403e-06
3.27864e-06
3.27323e-06
3.26797e-06
3.26289e-06
3.25795e-06
3.25312e-06
3.2484e-06
3.24378e-06
3.23932e-06
3.23475e-06
3.23004e-06
3.22519e-06
3.22022e-06
3.21514e-06
3.21003e-06
3.20497e-06
3.20005e-06
3.19564e-06
3.19181e-06
3.18833e-06
3.18516e-06
3.18225e-06
3.17956e-06
3.17705e-06
3.17471e-06
3.1725e-06
3.17036e-06
3.16829e-06
3.16628e-06
3.16431e-06
3.16238e-06
3.16047e-06
3.15857e-06
3.15669e-06
3.15482e-06
3.15295e-06
3.1511e-06
3.14927e-06
3.14747e-06
3.14572e-06
3.14404e-06
3.14246e-06
3.14099e-06
3.13968e-06
3.13856e-06
3.1377e-06
3.13713e-06
3.34153e-06
3.32971e-06
3.32216e-06
3.31786e-06
3.31485e-06
3.31231e-06
3.30985e-06
3.30725e-06
3.30432e-06
3.30138e-06
3.298e-06
3.29394e-06
3.28948e-06
3.28483e-06
3.28007e-06
3.27535e-06
3.27076e-06
3.26639e-06
3.26219e-06
3.25812e-06
3.25417e-06
3.25032e-06
3.24659e-06
3.24292e-06
3.23917e-06
3.23534e-06
3.23144e-06
3.22751e-06
3.2236e-06
3.21978e-06
3.21641e-06
3.21359e-06
3.21109e-06
3.20884e-06
3.20681e-06
3.20496e-06
3.20326e-06
3.20169e-06
3.20021e-06
3.19881e-06
3.19743e-06
3.19608e-06
3.19475e-06
3.19344e-06
3.19213e-06
3.19081e-06
3.18949e-06
3.18815e-06
3.1868e-06
3.18542e-06
3.18402e-06
3.1826e-06
3.18117e-06
3.17972e-06
3.17828e-06
3.17684e-06
3.17541e-06
3.17401e-06
3.17264e-06
3.17135e-06
3.33717e-06
3.32657e-06
3.32022e-06
3.31642e-06
3.31377e-06
3.31161e-06
3.30959e-06
3.30749e-06
3.30518e-06
3.30255e-06
3.30037e-06
3.29745e-06
3.29361e-06
3.28955e-06
3.28534e-06
3.28112e-06
3.27697e-06
3.27297e-06
3.26918e-06
3.26561e-06
3.2622e-06
3.25892e-06
3.25578e-06
3.25277e-06
3.24992e-06
3.24708e-06
3.24424e-06
3.24141e-06
3.23862e-06
3.23587e-06
3.23342e-06
3.23137e-06
3.22961e-06
3.22806e-06
3.22669e-06
3.22546e-06
3.22434e-06
3.22331e-06
3.22235e-06
3.22145e-06
3.22055e-06
3.21968e-06
3.21881e-06
3.21795e-06
3.21707e-06
3.21619e-06
3.21529e-06
3.21437e-06
3.21343e-06
3.21246e-06
3.21148e-06
3.21048e-06
3.20947e-06
3.20844e-06
3.2074e-06
3.20635e-06
3.2053e-06
3.20424e-06
3.2032e-06
3.20218e-06
3.33312e-06
3.32362e-06
3.31836e-06
3.31492e-06
3.31256e-06
3.3107e-06
3.30902e-06
3.30732e-06
3.30548e-06
3.3034e-06
3.30133e-06
3.29936e-06
3.29636e-06
3.29297e-06
3.28935e-06
3.28561e-06
3.28187e-06
3.27822e-06
3.27474e-06
3.27146e-06
3.2684e-06
3.26552e-06
3.2628e-06
3.26023e-06
3.25781e-06
3.25555e-06
3.25339e-06
3.2513e-06
3.24926e-06
3.24728e-06
3.24553e-06
3.24417e-06
3.24302e-06
3.24203e-06
3.24117e-06
3.24041e-06
3.23973e-06
3.23912e-06
3.23855e-06
3.23802e-06
3.23751e-06
3.237e-06
3.23649e-06
3.23597e-06
3.23544e-06
3.23489e-06
3.23433e-06
3.23375e-06
3.23315e-06
3.23253e-06
3.23189e-06
3.23124e-06
3.23057e-06
3.22989e-06
3.2292e-06
3.2285e-06
3.22779e-06
3.22708e-06
3.22637e-06
3.2259e-06
3.32938e-06
3.32086e-06
3.31663e-06
3.31339e-06
3.31128e-06
3.30966e-06
3.30826e-06
3.30687e-06
3.3054e-06
3.30375e-06
3.30185e-06
3.30014e-06
3.29823e-06
3.29566e-06
3.29254e-06
3.28927e-06
3.28591e-06
3.28258e-06
3.27935e-06
3.2763e-06
3.27346e-06
3.27083e-06
3.26842e-06
3.26618e-06
3.26412e-06
3.26222e-06
3.2605e-06
3.25895e-06
3.25751e-06
3.25616e-06
3.25502e-06
3.25415e-06
3.25346e-06
3.2529e-06
3.25243e-06
3.25203e-06
3.25169e-06
3.25138e-06
3.2511e-06
3.25084e-06
3.25059e-06
3.25032e-06
3.25004e-06
3.24975e-06
3.24945e-06
3.24914e-06
3.2488e-06
3.24846e-06
3.24809e-06
3.24771e-06
3.24732e-06
3.2469e-06
3.24647e-06
3.24603e-06
3.24558e-06
3.24512e-06
3.24466e-06
3.24419e-06
3.24372e-06
3.24327e-06
3.32592e-06
3.31831e-06
3.31483e-06
3.31184e-06
3.30997e-06
3.30858e-06
3.30739e-06
3.30625e-06
3.30506e-06
3.30375e-06
3.30224e-06
3.30063e-06
3.29899e-06
3.29725e-06
3.29488e-06
3.29207e-06
3.28913e-06
3.28613e-06
3.28317e-06
3.28032e-06
3.27765e-06
3.27519e-06
3.27295e-06
3.27094e-06
3.26912e-06
3.26748e-06
3.26604e-06
3.26478e-06
3.26373e-06
3.26281e-06
3.26208e-06
3.26159e-06
3.26125e-06
3.26099e-06
3.26079e-06
3.26065e-06
3.26053e-06
3.26044e-06
3.26035e-06
3.26028e-06
3.2602e-06
3.26012e-06
3.26003e-06
3.25992e-06
3.2598e-06
3.25967e-06
3.25952e-06
3.25935e-06
3.25916e-06
3.25895e-06
3.25872e-06
3.25848e-06
3.25823e-06
3.25796e-06
3.25769e-06
3.2574e-06
3.25711e-06
3.25682e-06
3.25651e-06
3.25639e-06
3.32273e-06
3.31595e-06
3.31297e-06
3.31032e-06
3.30868e-06
3.30748e-06
3.30648e-06
3.30553e-06
3.30456e-06
3.30351e-06
3.30231e-06
3.30093e-06
3.29944e-06
3.298e-06
3.29638e-06
3.29427e-06
3.29172e-06
3.28906e-06
3.28638e-06
3.28375e-06
3.28123e-06
3.2789e-06
3.27678e-06
3.27488e-06
3.27321e-06
3.27176e-06
3.27051e-06
3.26946e-06
3.26862e-06
3.26798e-06
3.26755e-06
3.26732e-06
3.26722e-06
3.26718e-06
3.26717e-06
3.2672e-06
3.26724e-06
3.26729e-06
3.26735e-06
3.26741e-06
3.26747e-06
3.26752e-06
3.26755e-06
3.26757e-06
3.26757e-06
3.26756e-06
3.26753e-06
3.26748e-06
3.26741e-06
3.26732e-06
3.26721e-06
3.26709e-06
3.26696e-06
3.26681e-06
3.26666e-06
3.26649e-06
3.26632e-06
3.26614e-06
3.26596e-06
3.2659e-06
3.31982e-06
3.31379e-06
3.31122e-06
3.30888e-06
3.30745e-06
3.30641e-06
3.30555e-06
3.30477e-06
3.30397e-06
3.30311e-06
3.30216e-06
3.30106e-06
3.29977e-06
3.29853e-06
3.29719e-06
3.29566e-06
3.29372e-06
3.29143e-06
3.28905e-06
3.28665e-06
3.28431e-06
3.2821e-06
3.28007e-06
3.27825e-06
3.27666e-06
3.2753e-06
3.27417e-06
3.27325e-06
3.27255e-06
3.27206e-06
3.2718e-06
3.27174e-06
3.27178e-06
3.27187e-06
3.272e-06
3.27215e-06
3.27231e-06
3.27248e-06
3.27264e-06
3.27281e-06
3.27296e-06
3.27311e-06
3.27324e-06
3.27335e-06
3.27344e-06
3.27352e-06
3.27357e-06
3.2736e-06
3.27361e-06
3.27361e-06
3.27358e-06
3.27354e-06
3.27349e-06
3.27342e-06
3.27335e-06
3.27326e-06
3.27317e-06
3.27307e-06
3.27296e-06
3.27299e-06
3.31716e-06
3.31181e-06
3.30959e-06
3.30754e-06
3.30628e-06
3.30538e-06
3.30465e-06
3.30399e-06
3.30333e-06
3.30263e-06
3.30186e-06
3.30098e-06
3.29996e-06
3.29878e-06
3.29771e-06
3.29645e-06
3.29503e-06
3.29336e-06
3.29125e-06
3.28908e-06
3.28693e-06
3.28486e-06
3.28291e-06
3.28115e-06
3.27961e-06
3.27829e-06
3.27721e-06
3.27638e-06
3.27577e-06
3.27537e-06
3.2752e-06
3.27523e-06
3.27537e-06
3.27556e-06
3.27578e-06
3.27603e-06
3.27627e-06
3.27652e-06
3.27676e-06
3.277e-06
3.27722e-06
3.27743e-06
3.27762e-06
3.27778e-06
3.27793e-06
3.27805e-06
3.27816e-06
3.27824e-06
3.27831e-06
3.27835e-06
3.27838e-06
3.2784e-06
3.2784e-06
3.27839e-06
3.27838e-06
3.27835e-06
3.27831e-06
3.27826e-06
3.27822e-06
3.27826e-06
3.31474e-06
3.31001e-06
3.3081e-06
3.3063e-06
3.30519e-06
3.30442e-06
3.30379e-06
3.30322e-06
3.30268e-06
3.3021e-06
3.30148e-06
3.30077e-06
3.29995e-06
3.299e-06
3.29805e-06
3.29699e-06
3.29582e-06
3.2945e-06
3.29284e-06
3.29099e-06
3.28908e-06
3.28718e-06
3.28536e-06
3.28368e-06
3.28218e-06
3.2809e-06
3.27984e-06
3.27902e-06
3.27845e-06
3.27811e-06
3.27799e-06
3.27807e-06
3.27827e-06
3.27853e-06
3.27881e-06
3.27912e-06
3.27942e-06
3.27972e-06
3.28001e-06
3.28029e-06
3.28055e-06
3.2808e-06
3.28102e-06
3.28123e-06
3.28141e-06
3.28157e-06
3.28171e-06
3.28183e-06
3.28193e-06
3.28202e-06
3.28209e-06
3.28214e-06
3.28218e-06
3.28221e-06
3.28223e-06
3.28224e-06
3.28223e-06
3.28223e-06
3.28221e-06
3.28229e-06
3.31254e-06
3.30839e-06
3.30673e-06
3.30516e-06
3.30419e-06
3.30352e-06
3.30298e-06
3.30249e-06
3.30203e-06
3.30156e-06
3.30104e-06
3.30047e-06
3.29982e-06
3.29906e-06
3.29817e-06
3.29728e-06
3.29633e-06
3.29524e-06
3.29402e-06
3.29267e-06
3.29096e-06
3.28925e-06
3.28757e-06
3.28598e-06
3.28453e-06
3.28326e-06
3.28221e-06
3.28139e-06
3.28081e-06
3.28046e-06
3.28036e-06
3.28046e-06
3.28068e-06
3.28097e-06
3.28128e-06
3.28161e-06
3.28194e-06
3.28226e-06
3.28257e-06
3.28288e-06
3.28316e-06
3.28343e-06
3.28367e-06
3.2839e-06
3.2841e-06
3.28428e-06
3.28444e-06
3.28459e-06
3.28471e-06
3.28482e-06
3.28491e-06
3.28499e-06
3.28505e-06
3.2851e-06
3.28515e-06
3.28518e-06
3.2852e-06
3.28522e-06
3.28523e-06
3.28531e-06
3.31056e-06
3.30692e-06
3.3055e-06
3.30412e-06
3.30327e-06
3.30269e-06
3.30222e-06
3.30181e-06
3.30142e-06
3.30102e-06
3.30059e-06
3.30013e-06
3.2996e-06
3.29898e-06
3.29828e-06
3.29745e-06
3.29668e-06
3.2958e-06
3.2948e-06
3.29369e-06
3.29233e-06
3.29098e-06
3.28946e-06
3.28798e-06
3.2866e-06
3.28535e-06
3.2843e-06
3.28346e-06
3.28286e-06
3.28248e-06
3.28235e-06
3.28244e-06
3.28266e-06
3.28294e-06
3.28325e-06
3.28359e-06
3.28392e-06
3.28426e-06
3.28458e-06
3.28489e-06
3.28518e-06
3.28545e-06
3.28571e-06
3.28594e-06
3.28616e-06
3.28635e-06
3.28652e-06
3.28668e-06
3.28682e-06
3.28694e-06
3.28704e-06
3.28714e-06
3.28722e-06
3.28729e-06
3.28734e-06
3.28739e-06
3.28744e-06
3.28747e-06
3.2875e-06
3.28758e-06
3.30879e-06
3.3056e-06
3.30438e-06
3.30317e-06
3.30244e-06
3.30193e-06
3.30152e-06
3.30117e-06
3.30084e-06
3.3005e-06
3.30015e-06
3.29976e-06
3.29933e-06
3.29883e-06
3.29827e-06
3.2976e-06
3.29693e-06
3.2962e-06
3.29537e-06
3.29444e-06
3.29342e-06
3.29232e-06
3.29096e-06
3.28963e-06
3.28835e-06
3.28718e-06
3.28614e-06
3.2853e-06
3.28466e-06
3.28425e-06
3.28408e-06
3.28413e-06
3.28432e-06
3.28458e-06
3.28488e-06
3.2852e-06
3.28553e-06
3.28586e-06
3.28618e-06
3.28649e-06
3.28677e-06
3.28705e-06
3.2873e-06
3.28753e-06
3.28775e-06
3.28794e-06
3.28811e-06
3.28827e-06
3.28841e-06
3.28854e-06
3.28865e-06
3.28875e-06
3.28884e-06
3.28892e-06
3.28898e-06
3.28904e-06
3.28909e-06
3.28914e-06
3.28918e-06
3.28927e-06
3.30719e-06
3.30442e-06
3.30337e-06
3.30232e-06
3.30169e-06
3.30124e-06
3.30089e-06
3.30058e-06
3.3003e-06
3.30001e-06
3.29972e-06
3.2994e-06
3.29904e-06
3.29864e-06
3.29818e-06
3.29765e-06
3.29703e-06
3.29642e-06
3.29575e-06
3.29499e-06
3.29415e-06
3.29323e-06
3.29209e-06
3.29109e-06
3.28993e-06
3.28883e-06
3.28784e-06
3.28699e-06
3.28633e-06
3.28588e-06
3.28565e-06
3.28565e-06
3.2858e-06
3.28603e-06
3.2863e-06
3.2866e-06
3.28691e-06
3.28722e-06
3.28752e-06
3.28782e-06
3.28809e-06
3.28835e-06
3.28859e-06
3.28882e-06
3.28903e-06
3.28922e-06
3.28939e-06
3.28954e-06
3.28968e-06
3.28981e-06
3.28992e-06
3.29002e-06
3.29011e-06
3.29019e-06
3.29027e-06
3.29033e-06
3.29039e-06
3.29044e-06
3.2905e-06
3.29058e-06
3.30578e-06
3.30337e-06
3.30247e-06
3.30156e-06
3.30101e-06
3.30062e-06
3.30032e-06
3.30005e-06
3.29981e-06
3.29956e-06
3.29931e-06
3.29905e-06
3.29875e-06
3.29842e-06
3.29805e-06
3.29762e-06
3.29712e-06
3.29657e-06
3.29602e-06
3.2954e-06
3.29471e-06
3.29395e-06
3.29311e-06
3.29225e-06
3.29121e-06
3.29022e-06
3.2893e-06
3.28849e-06
3.28783e-06
3.28734e-06
3.28707e-06
3.28702e-06
3.28713e-06
3.28731e-06
3.28756e-06
3.28783e-06
3.28813e-06
3.28841e-06
3.2887e-06
3.28897e-06
3.28923e-06
3.28948e-06
3.28971e-06
3.28992e-06
3.29012e-06
3.2903e-06
3.29046e-06
3.29061e-06
3.29074e-06
3.29086e-06
3.29097e-06
3.29107e-06
3.29116e-06
3.29124e-06
3.29131e-06
3.29137e-06
3.29143e-06
3.29148e-06
3.29155e-06
3.29162e-06
3.30452e-06
3.30243e-06
3.30167e-06
3.30088e-06
3.3004e-06
3.30007e-06
3.2998e-06
3.29957e-06
3.29936e-06
3.29915e-06
3.29894e-06
3.29872e-06
3.29847e-06
3.2982e-06
3.29789e-06
3.29754e-06
3.29714e-06
3.29668e-06
3.29621e-06
3.2957e-06
3.29514e-06
3.29451e-06
3.29382e-06
3.29309e-06
3.29223e-06
3.29147e-06
3.29062e-06
3.28986e-06
3.28921e-06
3.2887e-06
3.28839e-06
3.28828e-06
3.2884e-06
3.28853e-06
3.28881e-06
3.28903e-06
3.28935e-06
3.28959e-06
3.28991e-06
3.29014e-06
3.29043e-06
3.29065e-06
3.2909e-06
3.29109e-06
3.29129e-06
3.29146e-06
3.29162e-06
3.29176e-06
3.29188e-06
3.292e-06
3.2921e-06
3.29219e-06
3.29227e-06
3.29235e-06
3.29242e-06
3.29248e-06
3.29253e-06
3.29258e-06
3.29264e-06
3.2927e-06
3.30341e-06
3.30161e-06
3.30097e-06
3.30028e-06
3.29987e-06
3.29958e-06
3.29934e-06
3.29915e-06
3.29896e-06
3.29878e-06
3.2986e-06
3.29841e-06
3.29821e-06
3.29798e-06
3.29773e-06
3.29744e-06
3.29712e-06
3.29675e-06
3.29633e-06
3.29591e-06
3.29545e-06
3.29494e-06
3.29437e-06
3.29376e-06
3.29311e-06
3.29245e-06
3.2917e-06
3.29101e-06
3.2904e-06
3.2899e-06
3.28957e-06
3.28942e-06
3.28948e-06
3.28956e-06
3.28978e-06
3.28995e-06
3.29022e-06
3.29043e-06
3.29071e-06
3.29091e-06
3.29117e-06
3.29136e-06
3.29158e-06
3.29175e-06
3.29195e-06
3.29209e-06
3.29226e-06
3.29238e-06
3.29252e-06
3.29262e-06
3.29273e-06
3.29282e-06
3.2929e-06
3.29297e-06
3.29304e-06
3.2931e-06
3.29315e-06
3.2932e-06
3.29326e-06
3.29331e-06
3.30243e-06
3.30089e-06
3.30034e-06
3.29975e-06
3.29939e-06
3.29914e-06
3.29894e-06
3.29877e-06
3.29861e-06
3.29846e-06
3.2983e-06
3.29814e-06
3.29797e-06
3.29778e-06
3.29757e-06
3.29733e-06
3.29707e-06
3.29677e-06
3.29643e-06
3.29606e-06
3.29568e-06
3.29527e-06
3.29481e-06
3.2943e-06
3.29377e-06
3.2932e-06
3.29264e-06
3.29205e-06
3.29149e-06
3.29101e-06
3.29066e-06
3.29047e-06
3.29044e-06
3.2905e-06
3.29066e-06
3.29082e-06
3.29103e-06
3.29122e-06
3.29145e-06
3.29163e-06
3.29184e-06
3.292e-06
3.2922e-06
3.29234e-06
3.29251e-06
3.29264e-06
3.29278e-06
3.29289e-06
3.29301e-06
3.2931e-06
3.2932e-06
3.29328e-06
3.29336e-06
3.29343e-06
3.29349e-06
3.29355e-06
3.2936e-06
3.29365e-06
3.29369e-06
3.29373e-06
3.30158e-06
3.30026e-06
3.29979e-06
3.29928e-06
3.29897e-06
3.29876e-06
3.29858e-06
3.29844e-06
3.2983e-06
3.29817e-06
3.29803e-06
3.2979e-06
3.29775e-06
3.29759e-06
3.29742e-06
3.29723e-06
3.29701e-06
3.29676e-06
3.29649e-06
3.29617e-06
3.29586e-06
3.29552e-06
3.29514e-06
3.29473e-06
3.29429e-06
3.29382e-06
3.29336e-06
3.29281e-06
3.29235e-06
3.29192e-06
3.29158e-06
3.29137e-06
3.29129e-06
3.29133e-06
3.29143e-06
3.29156e-06
3.29172e-06
3.29189e-06
3.29207e-06
3.29224e-06
3.29241e-06
3.29258e-06
3.29273e-06
3.29287e-06
3.29301e-06
3.29313e-06
3.29324e-06
3.29334e-06
3.29343e-06
3.29352e-06
3.2936e-06
3.29367e-06
3.29374e-06
3.2938e-06
3.29385e-06
3.2939e-06
3.29395e-06
3.29399e-06
3.29403e-06
3.29407e-06
3.30083e-06
3.29971e-06
3.29931e-06
3.29888e-06
3.29861e-06
3.29842e-06
3.29827e-06
3.29815e-06
3.29803e-06
3.29791e-06
3.2978e-06
3.29768e-06
3.29756e-06
3.29743e-06
3.29728e-06
3.29712e-06
3.29694e-06
3.29674e-06
3.29652e-06
3.29627e-06
3.29599e-06
3.2957e-06
3.2954e-06
3.29507e-06
3.29471e-06
3.29433e-06
3.29393e-06
3.29347e-06
3.29311e-06
3.29272e-06
3.2924e-06
3.29219e-06
3.29208e-06
3.29209e-06
3.29213e-06
3.29222e-06
3.29233e-06
3.29246e-06
3.29259e-06
3.29274e-06
3.29287e-06
3.293e-06
3.29312e-06
3.29324e-06
3.29334e-06
3.29345e-06
3.29354e-06
3.29363e-06
3.29371e-06
3.29379e-06
3.29385e-06
3.29392e-06
3.29397e-06
3.29403e-06
3.29408e-06
3.29412e-06
3.29416e-06
3.2942e-06
3.29424e-06
3.29428e-06
3.30018e-06
3.29923e-06
3.2989e-06
3.29852e-06
3.29829e-06
3.29813e-06
3.298e-06
3.29789e-06
3.29779e-06
3.2977e-06
3.2976e-06
3.2975e-06
3.2974e-06
3.29728e-06
3.29716e-06
3.29703e-06
3.29688e-06
3.29672e-06
3.29654e-06
3.29633e-06
3.2961e-06
3.29586e-06
3.29561e-06
3.29534e-06
3.29504e-06
3.29473e-06
3.29441e-06
3.29403e-06
3.29373e-06
3.29338e-06
3.29309e-06
3.29289e-06
3.29277e-06
3.29274e-06
3.29274e-06
3.2928e-06
3.29287e-06
3.29296e-06
3.29306e-06
3.29317e-06
3.29327e-06
3.29338e-06
3.29347e-06
3.29357e-06
3.29365e-06
3.29374e-06
3.29381e-06
3.29389e-06
3.29395e-06
3.29402e-06
3.29407e-06
3.29413e-06
3.29418e-06
3.29423e-06
3.29427e-06
3.29431e-06
3.29434e-06
3.29438e-06
3.29441e-06
3.29445e-06
3.29963e-06
3.29882e-06
3.29854e-06
3.29822e-06
3.29802e-06
3.29788e-06
3.29777e-06
3.29768e-06
3.29759e-06
3.29751e-06
3.29743e-06
3.29734e-06
3.29725e-06
3.29716e-06
3.29706e-06
3.29695e-06
3.29683e-06
3.29669e-06
3.29654e-06
3.29637e-06
3.29619e-06
3.29598e-06
3.29577e-06
3.29555e-06
3.29531e-06
3.29506e-06
3.29479e-06
3.2945e-06
3.29424e-06
3.29394e-06
3.29368e-06
3.2935e-06
3.29338e-06
3.29331e-06
3.29328e-06
3.29331e-06
3.29336e-06
3.29343e-06
3.29349e-06
3.29358e-06
3.29365e-06
3.29374e-06
3.29381e-06
3.29389e-06
3.29395e-06
3.29402e-06
3.29408e-06
3.29414e-06
3.29419e-06
3.29425e-06
3.29429e-06
3.29434e-06
3.29438e-06
3.29442e-06
3.29445e-06
3.29449e-06
3.29452e-06
3.29455e-06
3.29458e-06
3.29462e-06
3.29915e-06
3.29847e-06
3.29823e-06
3.29795e-06
3.29779e-06
3.29767e-06
3.29757e-06
3.29749e-06
3.29742e-06
3.29735e-06
3.29728e-06
3.29721e-06
3.29714e-06
3.29706e-06
3.29697e-06
3.29688e-06
3.29678e-06
3.29667e-06
3.29654e-06
3.29641e-06
3.29626e-06
3.29609e-06
3.29591e-06
3.29572e-06
3.29552e-06
3.29532e-06
3.2951e-06
3.29487e-06
3.29462e-06
3.29438e-06
3.29417e-06
3.294e-06
3.29389e-06
3.29382e-06
3.29378e-06
3.29379e-06
3.29382e-06
3.29386e-06
3.29391e-06
3.29396e-06
3.29402e-06
3.29408e-06
3.29414e-06
3.2942e-06
3.29425e-06
3.2943e-06
3.29434e-06
3.29439e-06
3.29443e-06
3.29447e-06
3.29451e-06
3.29454e-06
3.29458e-06
3.29461e-06
3.29463e-06
3.29466e-06
3.29469e-06
3.29471e-06
3.29474e-06
3.29477e-06
3.29874e-06
3.29816e-06
3.29796e-06
3.29773e-06
3.29758e-06
3.29749e-06
3.29741e-06
3.29734e-06
3.29728e-06
3.29722e-06
3.29716e-06
3.2971e-06
3.29704e-06
3.29697e-06
3.2969e-06
3.29682e-06
3.29674e-06
3.29664e-06
3.29654e-06
3.29643e-06
3.29631e-06
3.29618e-06
3.29603e-06
3.29587e-06
3.29571e-06
3.29553e-06
3.29535e-06
3.29516e-06
3.29496e-06
3.29476e-06
3.29458e-06
3.29444e-06
3.29434e-06
3.29428e-06
3.29424e-06
3.29423e-06
3.29424e-06
3.29426e-06
3.29429e-06
3.29433e-06
3.29437e-06
3.29441e-06
3.29445e-06
3.2945e-06
3.29453e-06
3.29457e-06
3.2946e-06
3.29464e-06
3.29467e-06
3.2947e-06
3.29473e-06
3.29475e-06
3.29478e-06
3.2948e-06
3.29482e-06
3.29484e-06
3.29486e-06
3.29488e-06
3.2949e-06
3.29493e-06
3.29839e-06
3.29791e-06
3.29773e-06
3.29753e-06
3.29742e-06
3.29733e-06
3.29727e-06
3.29721e-06
3.29716e-06
3.29711e-06
3.29706e-06
3.29701e-06
3.29695e-06
3.2969e-06
3.29684e-06
3.29677e-06
3.2967e-06
3.29663e-06
3.29655e-06
3.29645e-06
3.29636e-06
3.29625e-06
3.29613e-06
3.296e-06
3.29587e-06
3.29572e-06
3.29557e-06
3.29541e-06
3.29525e-06
3.2951e-06
3.29495e-06
3.29484e-06
3.29475e-06
3.29469e-06
3.29465e-06
3.29463e-06
3.29463e-06
3.29463e-06
3.29465e-06
3.29467e-06
3.2947e-06
3.29473e-06
3.29475e-06
3.29478e-06
3.29481e-06
3.29483e-06
3.29486e-06
3.29488e-06
3.2949e-06
3.29492e-06
3.29494e-06
3.29496e-06
3.29498e-06
3.295e-06
3.29502e-06
3.29503e-06
3.29505e-06
3.29506e-06
3.29508e-06
3.2951e-06
3.29809e-06
3.29769e-06
3.29754e-06
3.29737e-06
3.29727e-06
3.2972e-06
3.29715e-06
3.2971e-06
3.29706e-06
3.29702e-06
3.29698e-06
3.29693e-06
3.29689e-06
3.29684e-06
3.29679e-06
3.29674e-06
3.29668e-06
3.29662e-06
3.29655e-06
3.29647e-06
3.29639e-06
3.29631e-06
3.29621e-06
3.29611e-06
3.296e-06
3.29589e-06
3.29576e-06
3.29564e-06
3.29551e-06
3.29539e-06
3.29528e-06
3.29518e-06
3.29511e-06
3.29505e-06
3.29502e-06
3.29499e-06
3.29498e-06
3.29498e-06
3.29498e-06
3.29499e-06
3.295e-06
3.29501e-06
3.29503e-06
3.29504e-06
3.29506e-06
3.29508e-06
3.29509e-06
3.29511e-06
3.29513e-06
3.29514e-06
3.29516e-06
3.29517e-06
3.29518e-06
3.2952e-06
3.29521e-06
3.29522e-06
3.29523e-06
3.29525e-06
3.29526e-06
3.29528e-06
3.29784e-06
3.2975e-06
3.29737e-06
3.29723e-06
3.29715e-06
3.2971e-06
3.29705e-06
3.29701e-06
3.29698e-06
3.29694e-06
3.29691e-06
3.29687e-06
3.29683e-06
3.29679e-06
3.29675e-06
3.29671e-06
3.29666e-06
3.29661e-06
3.29655e-06
3.29649e-06
3.29643e-06
3.29636e-06
3.29628e-06
3.2962e-06
3.29611e-06
3.29602e-06
3.29592e-06
3.29582e-06
3.29572e-06
3.29562e-06
3.29553e-06
3.29546e-06
3.29539e-06
3.29535e-06
3.29531e-06
3.29529e-06
3.29528e-06
3.29527e-06
3.29527e-06
3.29527e-06
3.29527e-06
3.29528e-06
3.29529e-06
3.2953e-06
3.29531e-06
3.29532e-06
3.29533e-06
3.29535e-06
3.29536e-06
3.29537e-06
3.29538e-06
3.29539e-06
3.2954e-06
3.29541e-06
3.29542e-06
3.29543e-06
3.29543e-06
3.29544e-06
3.29545e-06
3.29547e-06
3.29763e-06
3.29735e-06
3.29723e-06
3.29712e-06
3.29706e-06
3.29701e-06
3.29697e-06
3.29694e-06
3.29691e-06
3.29688e-06
3.29685e-06
3.29682e-06
3.29679e-06
3.29676e-06
3.29672e-06
3.29669e-06
3.29665e-06
3.2966e-06
3.29656e-06
3.29651e-06
3.29646e-06
3.2964e-06
3.29634e-06
3.29627e-06
3.2962e-06
3.29613e-06
3.29605e-06
3.29598e-06
3.2959e-06
3.29582e-06
3.29574e-06
3.29568e-06
3.29563e-06
3.29559e-06
3.29556e-06
3.29554e-06
3.29553e-06
3.29552e-06
3.29551e-06
3.29551e-06
3.29551e-06
3.29552e-06
3.29552e-06
3.29553e-06
3.29554e-06
3.29554e-06
3.29555e-06
3.29556e-06
3.29556e-06
3.29557e-06
3.29558e-06
3.29559e-06
3.29559e-06
3.2956e-06
3.29561e-06
3.29561e-06
3.29562e-06
3.29562e-06
3.29563e-06
3.29564e-06
3.29746e-06
3.29722e-06
3.29712e-06
3.29703e-06
3.29698e-06
3.29694e-06
3.29691e-06
3.29689e-06
3.29686e-06
3.29684e-06
3.29681e-06
3.29679e-06
3.29676e-06
3.29673e-06
3.2967e-06
3.29667e-06
3.29664e-06
3.2966e-06
3.29657e-06
3.29653e-06
3.29648e-06
3.29644e-06
3.29639e-06
3.29633e-06
3.29628e-06
3.29622e-06
3.29616e-06
3.2961e-06
3.29604e-06
3.29597e-06
3.29592e-06
3.29587e-06
3.29583e-06
3.2958e-06
3.29577e-06
3.29575e-06
3.29574e-06
3.29573e-06
3.29572e-06
3.29572e-06
3.29572e-06
3.29572e-06
3.29572e-06
3.29572e-06
3.29573e-06
3.29573e-06
3.29574e-06
3.29574e-06
3.29574e-06
3.29575e-06
3.29575e-06
3.29576e-06
3.29576e-06
3.29577e-06
3.29577e-06
3.29578e-06
3.29578e-06
3.29578e-06
3.29579e-06
3.2958e-06
3.29731e-06
3.29711e-06
3.29702e-06
3.29695e-06
3.29691e-06