/*--------------------------------*- C++ -*----------------------------------*\
  =========                 |
  \\      /  F ield         | OpenFOAM: The Open Source CFD Toolbox
   \\    /   O peration     | Website:  https://openfoam.org
    \\  /    A nd           | Version:  10
     \\/     M anipulation  |
\*---------------------------------------------------------------------------*/
FoamFile
{
    format      ascii;
    class       volScalarField;
    location    "692";
    object      nuTilda;
}
// * * * * * * * * * * * * * * * * * * * * * * * * * * * * * * * * * * * * * //

dimensions      [0 2 -1 0 0 0 0];

internalField   nonuniform List<scalar> 
13140
(
3.75481e-05
4.65799e-05
5.70581e-05
7.24591e-05
9.7845e-05
0.000139807
0.000198704
0.000261731
0.000312803
0.000346806
0.000367031
0.000379055
0.000386565
0.000391479
0.000394693
0.000396662
0.000397726
0.000398109
0.000397999
0.000397501
0.00039667
0.000395533
0.000394097
0.000392349
0.000390297
0.000387959
0.000385388
0.000382664
0.000379907
0.000377246
0.000374959
0.000373312
0.000372206
0.000371401
0.000370696
0.000369951
0.000369093
0.000368068
0.000366847
0.000365422
0.000363785
0.000361935
0.000359881
0.000357623
0.000355167
0.000352514
0.00034967
0.000346637
0.000343409
0.00033998
0.000336352
0.000332503
0.000328425
0.000324077
0.000319439
0.000314413
0.000308957
0.000302608
0.000295484
0.000284187
4.30832e-05
4.29631e-05
4.28209e-05
4.37155e-05
4.53037e-05
4.87742e-05
5.63765e-05
7.0527e-05
9.16064e-05
0.000118025
0.000147154
0.000175241
0.00019958
0.000219016
0.000233587
0.000244107
0.000251995
0.000258411
0.000264148
0.000269642
0.000275055
0.000280396
0.000285612
0.000290663
0.000295506
0.000300127
0.000304537
0.000308772
0.000312897
0.000317031
0.000320956
0.000324545
0.000327946
0.000331176
0.000334182
0.000336932
0.000339432
0.000341689
0.000343708
0.000345497
0.000347073
0.000348443
0.000349622
0.000350623
0.000351457
0.000352134
0.000352662
0.00035305
0.000353305
0.000353431
0.00035343
0.000353303
0.000353047
0.000352656
0.000352116
0.000351409
0.000350465
0.00034922
0.000347309
0.00034453
4.46055e-05
4.44387e-05
4.42976e-05
4.41583e-05
4.42001e-05
4.4375e-05
4.47155e-05
4.53807e-05
4.66689e-05
4.90409e-05
5.30284e-05
5.85578e-05
6.62565e-05
7.6954e-05
9.01013e-05
0.000105191
0.000121729
0.000139144
0.000157006
0.000174968
0.000192717
0.000210014
0.000226709
0.000242753
0.000258176
0.000273074
0.000287565
0.000301784
0.00031589
0.000330081
0.000343566
0.000355636
0.000366542
0.000376451
0.000385462
0.000393663
0.000401133
0.000407936
0.000414135
0.00041977
0.000424905
0.000429571
0.000433807
0.000437648
0.000441121
0.000444251
0.000447058
0.000449556
0.000451764
0.000453691
0.00045534
0.000456716
0.000457812
0.00045862
0.00045911
0.000459246
0.000458909
0.00045793
0.000455891
0.000452736
4.50065e-05
4.48263e-05
4.4727e-05
4.4624e-05
4.45173e-05
4.44401e-05
4.44804e-05
4.45433e-05
4.46482e-05
4.48129e-05
4.50685e-05
4.54581e-05
4.60579e-05
4.70152e-05
4.85178e-05
5.07993e-05
5.42308e-05
5.92023e-05
6.60499e-05
7.50837e-05
8.64733e-05
0.000100307
0.000116526
0.000134923
0.000155147
0.000176782
0.000199412
0.000222714
0.000246509
0.00027078
0.000293847
0.000314329
0.000332682
0.000349216
0.000364202
0.000377835
0.000390285
0.000401684
0.00041215
0.000421754
0.00043061
0.000438769
0.000446297
0.000453253
0.000459682
0.000465626
0.000471117
0.000476182
0.000480855
0.000485161
0.000489101
0.000492708
0.000495972
0.00049891
0.000501502
0.000503739
0.000505562
0.000506879
0.000507483
0.000507291
4.51643e-05
4.49603e-05
4.48727e-05
4.48071e-05
4.47408e-05
4.46678e-05
4.45894e-05
4.45063e-05
4.45082e-05
4.45319e-05
4.4574e-05
4.46345e-05
4.47154e-05
4.48227e-05
4.49675e-05
4.51668e-05
4.54526e-05
4.58729e-05
4.65058e-05
4.74982e-05
4.9108e-05
5.15703e-05
5.5159e-05
6.0557e-05
6.88409e-05
8.01936e-05
9.5024e-05
0.000113559
0.000135792
0.000161507
0.000188066
0.000212836
0.000235753
0.000256846
0.000276273
0.000294162
0.00031068
0.000325963
0.000340145
0.000353301
0.000365578
0.000377032
0.000387743
0.000397785
0.000407215
0.000416087
0.000424443
0.000432316
0.000439761
0.00044681
0.000453469
0.000459798
0.000465789
0.000471492
0.000476894
0.000482033
0.000486905
0.000491516
0.000495768
0.00049959
4.51768e-05
4.50101e-05
4.49416e-05
4.4896e-05
4.48549e-05
4.48124e-05
4.47652e-05
4.47125e-05
4.4655e-05
4.45931e-05
4.45831e-05
4.45869e-05
4.45981e-05
4.46179e-05
4.46473e-05
4.4687e-05
4.4739e-05
4.48061e-05
4.48929e-05
4.5008e-05
4.51645e-05
4.54015e-05
4.57737e-05
4.63825e-05
4.74219e-05
4.91724e-05
5.20329e-05
5.65387e-05
6.33576e-05
7.32893e-05
8.58255e-05
9.95856e-05
0.000114234
0.000129451
0.000144985
0.000160568
0.000176026
0.000191212
0.00020603
0.000220363
0.000234231
0.000247573
0.000260392
0.000272709
0.00028454
0.000295909
0.000306837
0.000317346
0.00032749
0.000337301
0.000346776
0.000355998
0.000364949
0.000373714
0.000382276
0.000390712
0.000399047
0.000407354
0.000415542
0.000423548
4.51691e-05
4.50343e-05
4.49785e-05
4.49431e-05
4.49143e-05
4.48859e-05
4.48549e-05
4.48203e-05
4.47824e-05
4.47417e-05
4.46975e-05
4.46497e-05
4.45989e-05
4.45801e-05
4.45752e-05
4.45758e-05
4.4581e-05
4.45922e-05
4.461e-05
4.46355e-05
4.46699e-05
4.47148e-05
4.47723e-05
4.48476e-05
4.49551e-05
4.51229e-05
4.54e-05
4.58639e-05
4.6632e-05
4.78447e-05
4.95164e-05
5.16025e-05
5.41737e-05
5.74976e-05
6.15074e-05
6.62239e-05
7.16343e-05
7.77166e-05
8.44352e-05
9.17032e-05
9.94962e-05
0.000107719
0.000116307
0.000125206
0.000134359
0.000143718
0.000153236
0.000162869
0.000172618
0.000182464
0.00019236
0.000202358
0.000212404
0.000222568
0.000232802
0.000243175
0.000253707
0.000264454
0.00027531
0.000286149
4.51572e-05
4.50474e-05
4.49997e-05
4.49702e-05
4.49479e-05
4.49268e-05
4.49051e-05
4.48817e-05
4.48561e-05
4.48279e-05
4.47972e-05
4.47644e-05
4.47296e-05
4.46916e-05
4.46504e-05
4.46063e-05
4.45612e-05
4.45425e-05
4.45353e-05
4.4534e-05
4.45377e-05
4.45468e-05
4.4562e-05
4.45834e-05
4.4611e-05
4.46429e-05
4.46819e-05
4.47326e-05
4.48034e-05
4.49056e-05
4.50338e-05
4.51791e-05
4.53602e-05
4.55878e-05
4.58736e-05
4.62382e-05
4.67418e-05
4.74168e-05
4.83002e-05
4.94198e-05
5.08171e-05
5.25131e-05
5.45314e-05
5.68947e-05
5.96182e-05
6.27148e-05
6.61905e-05
7.00475e-05
7.43031e-05
7.89623e-05
8.40087e-05
8.94795e-05
9.53459e-05
0.000101653
0.000108367
0.000115528
0.000123145
0.000131241
0.000139736
0.000148455
4.51445e-05
4.50551e-05
4.50121e-05
4.49862e-05
4.49674e-05
4.49513e-05
4.49359e-05
4.49195e-05
4.49017e-05
4.48821e-05
4.48602e-05
4.48363e-05
4.48108e-05
4.4784e-05
4.47561e-05
4.47254e-05
4.46916e-05
4.4655e-05
4.46159e-05
4.45744e-05
4.45313e-05
4.44993e-05
4.44871e-05
4.44835e-05
4.44854e-05
4.44922e-05
4.45023e-05
4.45129e-05
4.45244e-05
4.4536e-05
4.45469e-05
4.45569e-05
4.45676e-05
4.45793e-05
4.45928e-05
4.46083e-05
4.46274e-05
4.46581e-05
4.4706e-05
4.47773e-05
4.48811e-05
4.50219e-05
4.5211e-05
4.54729e-05
4.58227e-05
4.62768e-05
4.68517e-05
4.75645e-05
4.84368e-05
4.94896e-05
5.07381e-05
5.22126e-05
5.39335e-05
5.59342e-05
5.82174e-05
6.08153e-05
6.37477e-05
6.70431e-05
7.0678e-05
7.45753e-05
4.5132e-05
4.50598e-05
4.5019e-05
4.49957e-05
4.49798e-05
4.4967e-05
4.49555e-05
4.49439e-05
4.49314e-05
4.49177e-05
4.49027e-05
4.4886e-05
4.48677e-05
4.48477e-05
4.48262e-05
4.48036e-05
4.47801e-05
4.47542e-05
4.47258e-05
4.4695e-05
4.46617e-05
4.46261e-05
4.4589e-05
4.45507e-05
4.45126e-05
4.44932e-05
4.44866e-05
4.44857e-05
4.44862e-05
4.44866e-05
4.44869e-05
4.44861e-05
4.44841e-05
4.4481e-05
4.44776e-05
4.44743e-05
4.44716e-05
4.4469e-05
4.44668e-05
4.44646e-05
4.44627e-05
4.44603e-05
4.44573e-05
4.44616e-05
4.44772e-05
4.45078e-05
4.45574e-05
4.46312e-05
4.47355e-05
4.48777e-05
4.50652e-05
4.53088e-05
4.56175e-05
4.60055e-05
4.64822e-05
4.70631e-05
4.77613e-05
4.85932e-05
4.95615e-05
5.06526e-05
4.51201e-05
4.50626e-05
4.50223e-05
4.50014e-05
4.49878e-05
4.49774e-05
4.49683e-05
4.49595e-05
4.49502e-05
4.49403e-05
4.49296e-05
4.49179e-05
4.49051e-05
4.48908e-05
4.48753e-05
4.48587e-05
4.48408e-05
4.4822e-05
4.48023e-05
4.47806e-05
4.47568e-05
4.47309e-05
4.47029e-05
4.46731e-05
4.46417e-05
4.46093e-05
4.45767e-05
4.45445e-05
4.45154e-05
4.45018e-05
4.44796e-05
4.44543e-05
4.44312e-05
4.44093e-05
4.43882e-05
4.43682e-05
4.43492e-05
4.43311e-05
4.43141e-05
4.4299e-05
4.42856e-05
4.4274e-05
4.4264e-05
4.42557e-05
4.42492e-05
4.42449e-05
4.42432e-05
4.42449e-05
4.42508e-05
4.42622e-05
4.42808e-05
4.43086e-05
4.43478e-05
4.44018e-05
4.44735e-05
4.45669e-05
4.46862e-05
4.48364e-05
4.50201e-05
4.52365e-05
4.51088e-05
4.50583e-05
4.50229e-05
4.50047e-05
4.49932e-05
4.49845e-05
4.4977e-05
4.497e-05
4.49632e-05
4.49562e-05
4.49487e-05
4.49403e-05
4.4931e-05
4.49208e-05
4.49097e-05
4.48975e-05
4.48841e-05
4.48697e-05
4.48543e-05
4.4838e-05
4.48207e-05
4.48017e-05
4.47809e-05
4.47585e-05
4.47344e-05
4.4709e-05
4.46824e-05
4.46553e-05
4.46281e-05
4.46017e-05
4.45777e-05
4.45563e-05
4.45362e-05
4.45175e-05
4.44999e-05
4.44834e-05
4.44679e-05
4.44531e-05
4.44391e-05
4.44255e-05
4.44125e-05
4.44001e-05
4.43883e-05
4.4377e-05
4.43662e-05
4.43559e-05
4.43461e-05
4.4337e-05
4.43287e-05
4.43212e-05
4.43148e-05
4.43098e-05
4.43066e-05
4.43057e-05
4.43076e-05
4.43132e-05
4.43232e-05
4.43387e-05
4.43604e-05
4.43886e-05
4.50983e-05
4.50532e-05
4.50227e-05
4.50069e-05
4.49968e-05
4.49893e-05
4.49831e-05
4.49775e-05
4.49722e-05
4.49678e-05
4.49625e-05
4.49565e-05
4.49498e-05
4.49424e-05
4.49341e-05
4.49251e-05
4.49155e-05
4.4905e-05
4.48936e-05
4.48813e-05
4.48683e-05
4.48549e-05
4.484e-05
4.48238e-05
4.48061e-05
4.47872e-05
4.4767e-05
4.47459e-05
4.47242e-05
4.47024e-05
4.46821e-05
4.46639e-05
4.46474e-05
4.46322e-05
4.46183e-05
4.46053e-05
4.45932e-05
4.45818e-05
4.4571e-05
4.45606e-05
4.45504e-05
4.45406e-05
4.45311e-05
4.45217e-05
4.45125e-05
4.45035e-05
4.44946e-05
4.44858e-05
4.44771e-05
4.44686e-05
4.44603e-05
4.44521e-05
4.44443e-05
4.44369e-05
4.44299e-05
4.44235e-05
4.44178e-05
4.4413e-05
4.44093e-05
4.44067e-05
4.50885e-05
4.50481e-05
4.5022e-05
4.50082e-05
4.49993e-05
4.49927e-05
4.49875e-05
4.49829e-05
4.49785e-05
4.49756e-05
4.49726e-05
4.49684e-05
4.49635e-05
4.49581e-05
4.49519e-05
4.49451e-05
4.49377e-05
4.49299e-05
4.49214e-05
4.49121e-05
4.49021e-05
4.48914e-05
4.48801e-05
4.4868e-05
4.48548e-05
4.48404e-05
4.48248e-05
4.48084e-05
4.47912e-05
4.47737e-05
4.47574e-05
4.47431e-05
4.47302e-05
4.47185e-05
4.47079e-05
4.46981e-05
4.4689e-05
4.46805e-05
4.46724e-05
4.46648e-05
4.46573e-05
4.465e-05
4.46429e-05
4.46359e-05
4.4629e-05
4.46222e-05
4.46155e-05
4.46088e-05
4.46021e-05
4.45955e-05
4.45889e-05
4.45823e-05
4.45758e-05
4.45694e-05
4.45631e-05
4.45569e-05
4.45509e-05
4.45451e-05
4.45395e-05
4.45344e-05
4.50794e-05
4.50431e-05
4.50212e-05
4.50089e-05
4.50009e-05
4.49951e-05
4.49906e-05
4.49867e-05
4.49831e-05
4.49798e-05
4.49794e-05
4.49776e-05
4.49736e-05
4.49692e-05
4.49645e-05
4.49594e-05
4.49538e-05
4.49477e-05
4.49412e-05
4.49344e-05
4.49269e-05
4.49188e-05
4.49101e-05
4.4901e-05
4.48914e-05
4.4881e-05
4.48696e-05
4.48575e-05
4.48447e-05
4.48314e-05
4.48186e-05
4.48073e-05
4.47972e-05
4.47882e-05
4.47801e-05
4.47726e-05
4.47657e-05
4.47592e-05
4.47531e-05
4.47473e-05
4.47417e-05
4.47362e-05
4.47309e-05
4.47256e-05
4.47204e-05
4.47153e-05
4.47102e-05
4.47052e-05
4.47001e-05
4.46951e-05
4.46901e-05
4.46852e-05
4.46804e-05
4.46756e-05
4.46709e-05
4.46662e-05
4.46617e-05
4.46572e-05
4.46529e-05
4.46487e-05
4.5071e-05
4.50385e-05
4.50203e-05
4.50091e-05
4.50019e-05
4.49968e-05
4.49928e-05
4.49895e-05
4.49866e-05
4.49838e-05
4.49823e-05
4.49824e-05
4.49799e-05
4.49768e-05
4.49733e-05
4.49695e-05
4.49652e-05
4.49606e-05
4.49556e-05
4.49503e-05
4.49446e-05
4.49385e-05
4.49319e-05
4.49248e-05
4.49173e-05
4.49093e-05
4.49009e-05
4.48917e-05
4.4882e-05
4.48717e-05
4.48618e-05
4.48531e-05
4.48454e-05
4.48385e-05
4.48322e-05
4.48265e-05
4.48213e-05
4.48164e-05
4.48118e-05
4.48074e-05
4.48032e-05
4.47991e-05
4.47951e-05
4.47912e-05
4.47874e-05
4.47835e-05
4.47798e-05
4.4776e-05
4.47723e-05
4.47687e-05
4.47651e-05
4.47615e-05
4.4758e-05
4.47546e-05
4.47513e-05
4.4748e-05
4.47447e-05
4.47416e-05
4.47385e-05
4.47363e-05
4.50633e-05
4.50342e-05
4.50196e-05
4.50089e-05
4.50024e-05
4.49978e-05
4.49944e-05
4.49916e-05
4.49892e-05
4.49869e-05
4.49847e-05
4.49843e-05
4.49842e-05
4.49828e-05
4.49801e-05
4.49771e-05
4.49739e-05
4.49703e-05
4.49664e-05
4.49623e-05
4.49579e-05
4.49532e-05
4.49482e-05
4.49428e-05
4.4937e-05
4.49309e-05
4.49244e-05
4.49176e-05
4.49104e-05
4.49027e-05
4.48952e-05
4.48885e-05
4.48826e-05
4.48773e-05
4.48726e-05
4.48683e-05
4.48643e-05
4.48606e-05
4.48571e-05
4.48537e-05
4.48506e-05
4.48474e-05
4.48443e-05
4.48413e-05
4.48384e-05
4.48355e-05
4.48327e-05
4.48299e-05
4.48272e-05
4.48245e-05
4.48218e-05
4.48192e-05
4.48167e-05
4.48142e-05
4.48118e-05
4.48094e-05
4.48071e-05
4.48048e-05
4.48026e-05
4.48006e-05
4.50562e-05
4.50302e-05
4.50182e-05
4.50083e-05
4.50025e-05
4.49985e-05
4.49956e-05
4.49932e-05
4.49911e-05
4.49892e-05
4.49875e-05
4.49862e-05
4.49858e-05
4.4986e-05
4.49848e-05
4.49825e-05
4.49801e-05
4.49774e-05
4.49744e-05
4.49712e-05
4.49678e-05
4.49641e-05
4.49603e-05
4.49562e-05
4.49517e-05
4.4947e-05
4.49419e-05
4.49366e-05
4.49312e-05
4.49254e-05
4.49196e-05
4.49145e-05
4.491e-05
4.4906e-05
4.49023e-05
4.4899e-05
4.48959e-05
4.4893e-05
4.48903e-05
4.48877e-05
4.48852e-05
4.48828e-05
4.48805e-05
4.48782e-05
4.4876e-05
4.48739e-05
4.48718e-05
4.48697e-05
4.48677e-05
4.48657e-05
4.48638e-05
4.48619e-05
4.486e-05
4.48583e-05
4.48565e-05
4.48548e-05
4.48531e-05
4.48516e-05
4.485e-05
4.48491e-05
4.50497e-05
4.50266e-05
4.50163e-05
4.50075e-05
4.50024e-05
4.4999e-05
4.49964e-05
4.49944e-05
4.49926e-05
4.49911e-05
4.49896e-05
4.49882e-05
4.49872e-05
4.49873e-05
4.49875e-05
4.49867e-05
4.49848e-05
4.49828e-05
4.49805e-05
4.4978e-05
4.49753e-05
4.49725e-05
4.49695e-05
4.49662e-05
4.49628e-05
4.49592e-05
4.49553e-05
4.49512e-05
4.49469e-05
4.49424e-05
4.49381e-05
4.49342e-05
4.49307e-05
4.49276e-05
4.49247e-05
4.49221e-05
4.49197e-05
4.49174e-05
4.49153e-05
4.49133e-05
4.49113e-05
4.49095e-05
4.49077e-05
4.4906e-05
4.49043e-05
4.49027e-05
4.49011e-05
4.48996e-05
4.48981e-05
4.48966e-05
4.48952e-05
4.48938e-05
4.48925e-05
4.48912e-05
4.48899e-05
4.48887e-05
4.48875e-05
4.48863e-05
4.48852e-05
4.48846e-05
4.50438e-05
4.50233e-05
4.50144e-05
4.50067e-05
4.50022e-05
4.49992e-05
4.4997e-05
4.49953e-05
4.49938e-05
4.49925e-05
4.49913e-05
4.49901e-05
4.4989e-05
4.49887e-05
4.49888e-05
4.4989e-05
4.49884e-05
4.49868e-05
4.49851e-05
4.49832e-05
4.49811e-05
4.49789e-05
4.49765e-05
4.4974e-05
4.49713e-05
4.49684e-05
4.49654e-05
4.49622e-05
4.49589e-05
4.49554e-05
4.4952e-05
4.49489e-05
4.49462e-05
4.49437e-05
4.49414e-05
4.49394e-05
4.49375e-05
4.49357e-05
4.4934e-05
4.49325e-05
4.4931e-05
4.49297e-05
4.49283e-05
4.4927e-05
4.49257e-05
4.49245e-05
4.49233e-05
4.49222e-05
4.4921e-05
4.49199e-05
4.49189e-05
4.49178e-05
4.49168e-05
4.49159e-05
4.49149e-05
4.4914e-05
4.49131e-05
4.49123e-05
4.49115e-05
4.49111e-05
4.50385e-05
4.50203e-05
4.50127e-05
4.50059e-05
4.50019e-05
4.49993e-05
4.49975e-05
4.4996e-05
4.49947e-05
4.49936e-05
4.49926e-05
4.49917e-05
4.49907e-05
4.49898e-05
4.499e-05
4.49901e-05
4.49903e-05
4.49901e-05
4.49887e-05
4.49872e-05
4.49855e-05
4.49837e-05
4.49818e-05
4.49798e-05
4.49777e-05
4.49754e-05
4.49731e-05
4.49706e-05
4.4968e-05
4.49653e-05
4.49626e-05
4.49602e-05
4.4958e-05
4.49561e-05
4.49543e-05
4.49527e-05
4.49512e-05
4.49498e-05
4.49485e-05
4.49474e-05
4.49462e-05
4.49452e-05
4.49441e-05
4.49431e-05
4.49421e-05
4.49412e-05
4.49403e-05
4.49394e-05
4.49386e-05
4.49377e-05
4.49369e-05
4.49361e-05
4.49354e-05
4.49347e-05
4.4934e-05
4.49333e-05
4.49327e-05
4.4932e-05
4.49314e-05
4.49312e-05
4.50337e-05
4.50176e-05
4.5011e-05
4.50051e-05
4.50017e-05
4.49994e-05
4.49978e-05
4.49965e-05
4.49955e-05
4.49945e-05
4.49937e-05
4.49929e-05
4.49921e-05
4.49914e-05
4.49911e-05
4.49911e-05
4.49913e-05
4.49915e-05
4.49909e-05
4.49898e-05
4.49886e-05
4.49872e-05
4.49858e-05
4.49842e-05
4.49825e-05
4.49808e-05
4.49789e-05
4.4977e-05
4.4975e-05
4.49729e-05
4.49708e-05
4.49689e-05
4.49672e-05
4.49657e-05
4.49643e-05
4.49631e-05
4.49619e-05
4.49608e-05
4.49598e-05
4.49589e-05
4.4958e-05
4.49572e-05
4.49564e-05
4.49556e-05
4.49549e-05
4.49542e-05
4.49535e-05
4.49528e-05
4.49521e-05
4.49515e-05
4.49509e-05
4.49503e-05
4.49498e-05
4.49492e-05
4.49487e-05
4.49482e-05
4.49477e-05
4.49472e-05
4.49468e-05
4.49467e-05
4.50293e-05
4.50152e-05
4.50095e-05
4.50044e-05
4.50014e-05
4.49994e-05
4.4998e-05
4.49969e-05
4.49961e-05
4.49953e-05
4.49946e-05
4.49939e-05
4.49933e-05
4.49926e-05
4.4992e-05
4.49918e-05
4.4992e-05
4.49922e-05
4.49923e-05
4.49924e-05
4.49913e-05
4.49903e-05
4.49891e-05
4.49879e-05
4.49865e-05
4.49851e-05
4.49836e-05
4.49821e-05
4.49805e-05
4.49788e-05
4.49772e-05
4.49757e-05
4.49744e-05
4.49732e-05
4.49721e-05
4.49712e-05
4.49702e-05
4.49694e-05
4.49686e-05
4.49679e-05
4.49672e-05
4.49665e-05
4.49659e-05
4.49653e-05
4.49648e-05
4.49642e-05
4.49637e-05
4.49632e-05
4.49627e-05
4.49622e-05
4.49617e-05
4.49613e-05
4.49609e-05
4.49604e-05
4.49601e-05
4.49597e-05
4.49593e-05
4.49589e-05
4.49586e-05
4.49585e-05
4.50254e-05
4.5013e-05
4.50082e-05
4.50037e-05
4.50011e-05
4.49994e-05
4.49982e-05
4.49973e-05
4.49965e-05
4.49959e-05
4.49953e-05
4.49947e-05
4.49942e-05
4.49937e-05
4.49932e-05
4.49926e-05
4.49927e-05
4.49929e-05
4.49931e-05
4.49933e-05
4.49928e-05
4.49926e-05
4.49916e-05
4.49906e-05
4.49895e-05
4.49884e-05
4.49872e-05
4.4986e-05
4.49847e-05
4.49834e-05
4.4982e-05
4.49809e-05
4.49798e-05
4.49789e-05
4.4978e-05
4.49773e-05
4.49766e-05
4.49759e-05
4.49753e-05
4.49747e-05
4.49742e-05
4.49737e-05
4.49732e-05
4.49727e-05
4.49723e-05
4.49719e-05
4.49715e-05
4.49711e-05
4.49707e-05
4.49703e-05
4.497e-05
4.49696e-05
4.49693e-05
4.4969e-05
4.49687e-05
4.49684e-05
4.49681e-05
4.49679e-05
4.49676e-05
4.49676e-05
4.50219e-05
4.50111e-05
4.5007e-05
4.50031e-05
4.50008e-05
4.49994e-05
4.49983e-05
4.49976e-05
4.49969e-05
4.49964e-05
4.49959e-05
4.49954e-05
4.4995e-05
4.49945e-05
4.49941e-05
4.49937e-05
4.49936e-05
4.49936e-05
4.49937e-05
4.49939e-05
4.4994e-05
4.49941e-05
4.49933e-05
4.49925e-05
4.49917e-05
4.49908e-05
4.49898e-05
4.49888e-05
4.49878e-05
4.49868e-05
4.49857e-05
4.49848e-05
4.4984e-05
4.49832e-05
4.49826e-05
4.4982e-05
4.49814e-05
4.49809e-05
4.49804e-05
4.498e-05
4.49795e-05
4.49792e-05
4.49788e-05
4.49784e-05
4.49781e-05
4.49778e-05
4.49774e-05
4.49771e-05
4.49769e-05
4.49766e-05
4.49763e-05
4.4976e-05
4.49758e-05
4.49756e-05
4.49753e-05
4.49751e-05
4.49749e-05
4.49747e-05
4.49745e-05
4.49745e-05
4.50189e-05
4.50095e-05
4.50059e-05
4.50025e-05
4.50006e-05
4.49993e-05
4.49985e-05
4.49978e-05
4.49972e-05
4.49968e-05
4.49964e-05
4.4996e-05
4.49956e-05
4.49953e-05
4.49949e-05
4.49946e-05
4.49942e-05
4.49942e-05
4.49943e-05
4.49944e-05
4.49945e-05
4.49946e-05
4.49941e-05
4.49942e-05
4.49935e-05
4.49928e-05
4.4992e-05
4.49912e-05
4.49903e-05
4.49895e-05
4.49886e-05
4.49879e-05
4.49873e-05
4.49867e-05
4.49862e-05
4.49857e-05
4.49853e-05
4.49849e-05
4.49845e-05
4.49841e-05
4.49838e-05
4.49835e-05
4.49832e-05
4.49829e-05
4.49827e-05
4.49824e-05
4.49822e-05
4.4982e-05
4.49817e-05
4.49815e-05
4.49813e-05
4.49811e-05
4.49809e-05
4.49807e-05
4.49805e-05
4.49804e-05
4.49802e-05
4.498e-05
4.498e-05
4.498e-05
4.50161e-05
4.5008e-05
4.5005e-05
4.5002e-05
4.50004e-05
4.49993e-05
4.49985e-05
4.4998e-05
4.49975e-05
4.49971e-05
4.49968e-05
4.49965e-05
4.49962e-05
4.49959e-05
4.49956e-05
4.49953e-05
4.4995e-05
4.49947e-05
4.49948e-05
4.49949e-05
4.4995e-05
4.49951e-05
4.49952e-05
4.49953e-05
4.49947e-05
4.49942e-05
4.49936e-05
4.49929e-05
4.49923e-05
4.49916e-05
4.49909e-05
4.49903e-05
4.49898e-05
4.49894e-05
4.49891e-05
4.49887e-05
4.49884e-05
4.49881e-05
4.49879e-05
4.49876e-05
4.49874e-05
4.49871e-05
4.49869e-05
4.49867e-05
4.49865e-05
4.49863e-05
4.49861e-05
4.49859e-05
4.49858e-05
4.49856e-05
4.49854e-05
4.49853e-05
4.49851e-05
4.4985e-05
4.49848e-05
4.49847e-05
4.49846e-05
4.49844e-05
4.49844e-05
4.49844e-05
4.50138e-05
4.50067e-05
4.50042e-05
4.50016e-05
4.50002e-05
4.49993e-05
4.49986e-05
4.49981e-05
4.49977e-05
4.49974e-05
4.49971e-05
4.49969e-05
4.49966e-05
4.49964e-05
4.49961e-05
4.49959e-05
4.49956e-05
4.49954e-05
4.49953e-05
4.49954e-05
4.49955e-05
4.49956e-05
4.49957e-05
4.49957e-05
4.49954e-05
4.49954e-05
4.49949e-05
4.49944e-05
4.49939e-05
4.49933e-05
4.49927e-05
4.49922e-05
4.49921e-05
4.49918e-05
4.49918e-05
4.49914e-05
4.49915e-05
4.49912e-05
4.49912e-05
4.4991e-05
4.4991e-05
4.49908e-05
4.49908e-05
4.49906e-05
4.49905e-05
4.49904e-05
4.49903e-05
4.49901e-05
4.499e-05
4.49898e-05
4.49897e-05
4.49896e-05
4.49894e-05
4.49893e-05
4.49892e-05
4.49891e-05
4.4989e-05
4.49889e-05
4.49888e-05
4.49888e-05
4.50117e-05
4.50056e-05
4.50035e-05
4.50013e-05
4.5e-05
4.49992e-05
4.49987e-05
4.49983e-05
4.49979e-05
4.49977e-05
4.49974e-05
4.49972e-05
4.4997e-05
4.49968e-05
4.49966e-05
4.49964e-05
4.49962e-05
4.4996e-05
4.49958e-05
4.49958e-05
4.49959e-05
4.49959e-05
4.4996e-05
4.49961e-05
4.49962e-05
4.49962e-05
4.49958e-05
4.49954e-05
4.4995e-05
4.49945e-05
4.49941e-05
4.49937e-05
4.49936e-05
4.49933e-05
4.49934e-05
4.49931e-05
4.49932e-05
4.4993e-05
4.4993e-05
4.49928e-05
4.49929e-05
4.49927e-05
4.49927e-05
4.49926e-05
4.49926e-05
4.49924e-05
4.49924e-05
4.49923e-05
4.49923e-05
4.49921e-05
4.49921e-05
4.4992e-05
4.49919e-05
4.49918e-05
4.49917e-05
4.49916e-05
4.49916e-05
4.49915e-05
4.49914e-05
4.49914e-05
4.50098e-05
4.50046e-05
4.50028e-05
4.50009e-05
4.49999e-05
4.49992e-05
4.49987e-05
4.49984e-05
4.49981e-05
4.49979e-05
4.49977e-05
4.49975e-05
4.49973e-05
4.49972e-05
4.4997e-05
4.49968e-05
4.49967e-05
4.49965e-05
4.49963e-05
4.49962e-05
4.49963e-05
4.49963e-05
4.49964e-05
4.49965e-05
4.49965e-05
4.49965e-05
4.49965e-05
4.49963e-05
4.4996e-05
4.49956e-05
4.49952e-05
4.49949e-05
4.49947e-05
4.49946e-05
4.49946e-05
4.49945e-05
4.49945e-05
4.49945e-05
4.49945e-05
4.49944e-05
4.49944e-05
4.49942e-05
4.49943e-05
4.49941e-05
4.49941e-05
4.4994e-05
4.4994e-05
4.49939e-05
4.49939e-05
4.49938e-05
4.49938e-05
4.49937e-05
4.49937e-05
4.49936e-05
4.49935e-05
4.49935e-05
4.49934e-05
4.49933e-05
4.49933e-05
4.49932e-05
4.50082e-05
4.50038e-05
4.50023e-05
4.50007e-05
4.49998e-05
4.49992e-05
4.49988e-05
4.49985e-05
4.49983e-05
4.49981e-05
4.49979e-05
4.49978e-05
4.49976e-05
4.49975e-05
4.49973e-05
4.49972e-05
4.49971e-05
4.49969e-05
4.49968e-05
4.49967e-05
4.49966e-05
4.49967e-05
4.49967e-05
4.49968e-05
4.49968e-05
4.49968e-05
4.49969e-05
4.49966e-05
4.49965e-05
4.49962e-05
4.49959e-05
4.49956e-05
4.49954e-05
4.49954e-05
4.49954e-05
4.49954e-05
4.49954e-05
4.49954e-05
4.49955e-05
4.49955e-05
4.49955e-05
4.49955e-05
4.49954e-05
4.49954e-05
4.49954e-05
4.49953e-05
4.49953e-05
4.49952e-05
4.49952e-05
4.49951e-05
4.49951e-05
4.4995e-05
4.4995e-05
4.49949e-05
4.49948e-05
4.49948e-05
4.49947e-05
4.49947e-05
4.49947e-05
4.49946e-05
4.50069e-05
4.50031e-05
4.50018e-05
4.50005e-05
4.49997e-05
4.49992e-05
4.49989e-05
4.49986e-05
4.49984e-05
4.49982e-05
4.49981e-05
4.4998e-05
4.49979e-05
4.49978e-05
4.49976e-05
4.49975e-05
4.49974e-05
4.49973e-05
4.49972e-05
4.49971e-05
4.4997e-05
4.4997e-05
4.4997e-05
4.4997e-05
4.49971e-05
4.49971e-05
4.49972e-05
4.49969e-05
4.4997e-05
4.49967e-05
4.49965e-05
4.49963e-05
4.49961e-05
4.49961e-05
4.4996e-05
4.4996e-05
4.4996e-05
4.49961e-05
4.4996e-05
4.49961e-05
4.4996e-05
4.4996e-05
4.4996e-05
4.4996e-05
4.49959e-05
4.49959e-05
4.49959e-05
4.49959e-05
4.49958e-05
4.49958e-05
4.49957e-05
4.49957e-05
4.49957e-05
4.49956e-05
4.49956e-05
4.49955e-05
4.49955e-05
4.49955e-05
4.49954e-05
4.49954e-05
4.50057e-05
4.50025e-05
4.50014e-05
4.50003e-05
4.49996e-05
4.49992e-05
4.49989e-05
4.49987e-05
4.49985e-05
4.49984e-05
4.49983e-05
4.49982e-05
4.49981e-05
4.4998e-05
4.49979e-05
4.49978e-05
4.49977e-05
4.49976e-05
4.49976e-05
4.49975e-05
4.49974e-05
4.49973e-05
4.49973e-05
4.49973e-05
4.49973e-05
4.49974e-05
4.49974e-05
4.49972e-05
4.49973e-05
4.49971e-05
4.49969e-05
4.49967e-05
4.49965e-05
4.49965e-05
4.49964e-05
4.49964e-05
4.49964e-05
4.49964e-05
4.49964e-05
4.49964e-05
4.49964e-05
4.49964e-05
4.49964e-05
4.49964e-05
4.49963e-05
4.49963e-05
4.49963e-05
4.49963e-05
4.49962e-05
4.49962e-05
4.49962e-05
4.49962e-05
4.49961e-05
4.49961e-05
4.49961e-05
4.4996e-05
4.4996e-05
4.4996e-05
4.4996e-05
4.4996e-05
4.50047e-05
4.5002e-05
4.50011e-05
4.50001e-05
4.49995e-05
4.49992e-05
4.4999e-05
4.49988e-05
4.49987e-05
4.49985e-05
4.49984e-05
4.49984e-05
4.49983e-05
4.49982e-05
4.49981e-05
4.49981e-05
4.4998e-05
4.49979e-05
4.49979e-05
4.49978e-05
4.49977e-05
4.49976e-05
4.49976e-05
4.49976e-05
4.49976e-05
4.49976e-05
4.49976e-05
4.49975e-05
4.49975e-05
4.49974e-05
4.49972e-05
4.4997e-05
4.49969e-05
4.49968e-05
4.49967e-05
4.49967e-05
4.49967e-05
4.49967e-05
4.49967e-05
4.49967e-05
4.49967e-05
4.49967e-05
4.49967e-05
4.49967e-05
4.49967e-05
4.49967e-05
4.49966e-05
4.49966e-05
4.49966e-05
4.49966e-05
4.49965e-05
4.49965e-05
4.49965e-05
4.49965e-05
4.49965e-05
4.49964e-05
4.49964e-05
4.49964e-05
4.49964e-05
4.49964e-05
4.50039e-05
4.50016e-05
4.50008e-05
4.5e-05
4.49995e-05
4.49992e-05
4.4999e-05
4.49989e-05
4.49988e-05
4.49987e-05
4.49986e-05
4.49985e-05
4.49985e-05
4.49984e-05
4.49984e-05
4.49983e-05
4.49982e-05
4.49982e-05
4.49981e-05
4.49981e-05
4.4998e-05
4.49979e-05
4.49978e-05
4.49978e-05
4.49978e-05
4.49978e-05
4.49978e-05
4.49977e-05
4.49976e-05
4.49975e-05
4.49974e-05
4.49973e-05
4.49971e-05
4.49971e-05
4.4997e-05
4.4997e-05
4.4997e-05
4.4997e-05
4.4997e-05
4.4997e-05
4.4997e-05
4.4997e-05
4.4997e-05
4.4997e-05
4.4997e-05
4.4997e-05
4.49969e-05
4.49969e-05
4.49969e-05
4.49969e-05
4.49968e-05
4.49968e-05
4.49968e-05
4.49968e-05
4.49967e-05
4.49967e-05
4.49967e-05
4.49967e-05
4.49967e-05
4.49967e-05
4.50032e-05
4.50012e-05
4.50006e-05
4.49999e-05
4.49995e-05
4.49992e-05
4.49991e-05
4.49989e-05
4.49989e-05
4.49988e-05
4.49987e-05
4.49987e-05
4.49986e-05
4.49986e-05
4.49985e-05
4.49985e-05
4.49984e-05
4.49984e-05
4.49983e-05
4.49983e-05
4.49982e-05
4.49982e-05
4.49981e-05
4.49981e-05
4.4998e-05
4.4998e-05
4.49979e-05
4.49979e-05
4.49978e-05
4.49977e-05
4.49976e-05
4.49975e-05
4.49974e-05
4.49974e-05
4.49973e-05
4.49973e-05
4.49973e-05
4.49973e-05
4.49973e-05
4.49973e-05
4.49973e-05
4.49973e-05
4.49973e-05
4.49973e-05
4.49972e-05
4.49972e-05
4.49972e-05
4.49972e-05
4.49972e-05
4.49971e-05
4.49971e-05
4.49971e-05
4.49971e-05
4.4997e-05
4.4997e-05
4.4997e-05
4.4997e-05
4.4997e-05
4.4997e-05
4.4997e-05
4.50025e-05
4.50009e-05
4.50004e-05
4.49998e-05
4.49994e-05
4.49992e-05
4.49991e-05
4.4999e-05
4.4999e-05
4.49989e-05
4.49989e-05
4.49988e-05
4.49988e-05
4.49987e-05
4.49987e-05
4.49987e-05
4.49986e-05
4.49986e-05
4.49985e-05
4.49985e-05
4.49985e-05
4.49984e-05
4.49984e-05
4.49983e-05
4.49983e-05
4.49982e-05
4.49981e-05
4.49981e-05
4.4998e-05
4.4998e-05
4.49979e-05
4.49978e-05
4.49978e-05
4.49977e-05
4.49977e-05
4.49976e-05
4.49976e-05
4.49976e-05
4.49976e-05
4.49976e-05
4.49976e-05
4.49976e-05
4.49975e-05
4.49975e-05
4.49975e-05
4.49975e-05
4.49975e-05
4.49974e-05
4.49974e-05
4.49974e-05
4.49974e-05
4.49974e-05
4.49973e-05
4.49973e-05
4.49973e-05
4.49973e-05
4.49973e-05
4.49973e-05
4.49973e-05
4.49973e-05
4.5002e-05
4.50007e-05
4.50002e-05
4.49997e-05
4.49994e-05
4.49993e-05
4.49992e-05
4.49991e-05
4.49991e-05
4.4999e-05
4.4999e-05
4.49989e-05
4.49989e-05
4.49989e-05
4.49989e-05
4.49988e-05
4.49988e-05
4.49988e-05
4.49987e-05
4.49987e-05
4.49987e-05
4.49986e-05
4.49986e-05
4.49985e-05
4.49985e-05
4.49984e-05
4.49984e-05
4.49983e-05
4.49983e-05
4.49983e-05
4.49982e-05
4.49981e-05
4.49981e-05
4.49981e-05
4.4998e-05
4.4998e-05
4.49979e-05
4.49979e-05
4.49979e-05
4.49979e-05
4.49978e-05
4.49978e-05
4.49978e-05
4.49978e-05
4.49978e-05
4.49977e-05
4.49977e-05
4.49977e-05
4.49977e-05
4.49977e-05
4.49976e-05
4.49976e-05
4.49976e-05
4.49976e-05
4.49976e-05
4.49976e-05
4.49976e-05
4.49976e-05
4.49975e-05
4.49976e-05
4.50016e-05
4.50005e-05
4.50001e-05
4.49997e-05
4.49994e-05
4.49993e-05
4.49992e-05
4.49992e-05
4.49991e-05
4.49991e-05
4.49991e-05
4.49991e-05
4.4999e-05
4.4999e-05
4.4999e-05
4.4999e-05
4.49989e-05
4.49989e-05
4.49989e-05
4.49989e-05
4.49988e-05
4.49988e-05
4.49988e-05
4.49987e-05
4.49987e-05
4.49987e-05
4.49986e-05
4.49986e-05
4.49985e-05
4.49985e-05
4.49984e-05
4.49984e-05
4.49984e-05
4.49983e-05
4.49983e-05
4.49983e-05
4.49982e-05
4.49982e-05
4.49982e-05
4.49982e-05
4.49981e-05
4.49981e-05
4.49981e-05
4.49981e-05
4.49981e-05
4.49981e-05
4.4998e-05
4.4998e-05
4.4998e-05
4.4998e-05
4.4998e-05
4.4998e-05
4.4998e-05
4.49979e-05
4.49979e-05
4.49979e-05
4.49979e-05
4.49979e-05
4.49979e-05
4.49979e-05
4.50013e-05
4.50003e-05
4.5e-05
4.49996e-05
4.49995e-05
4.49994e-05
4.49993e-05
4.49993e-05
4.49992e-05
4.49992e-05
4.49992e-05
4.49992e-05
4.49991e-05
4.49991e-05
4.49991e-05
4.49991e-05
4.49991e-05
4.4999e-05
4.4999e-05
4.4999e-05
4.4999e-05
4.4999e-05
4.49989e-05
4.49989e-05
4.49989e-05
4.49988e-05
4.49988e-05
4.49988e-05
4.49987e-05
4.49987e-05
4.49987e-05
4.49986e-05
4.49986e-05
4.49986e-05
4.49985e-05
4.49985e-05
4.49985e-05
4.49985e-05
4.49985e-05
4.49984e-05
4.49984e-05
4.49984e-05
4.49984e-05
4.49984e-05
4.49984e-05
4.49983e-05
4.49983e-05
4.49983e-05
4.49983e-05
4.49983e-05
4.49983e-05
4.49983e-05
4.49983e-05
4.49982e-05
4.49982e-05
4.49982e-05
4.49982e-05
4.49982e-05
4.49982e-05
4.49982e-05
4.5001e-05
4.50002e-05
4.49999e-05
4.49996e-05
4.49995e-05
4.49994e-05
4.49994e-05
4.49993e-05
4.49993e-05
4.49993e-05
4.49993e-05
4.49993e-05
4.49992e-05
4.49992e-05
4.49992e-05
4.49992e-05
4.49992e-05
4.49992e-05
4.49991e-05
4.49991e-05
4.49991e-05
4.49991e-05
4.49991e-05
4.4999e-05
4.4999e-05
4.4999e-05
4.4999e-05
4.49989e-05
4.49989e-05
4.49989e-05
4.49989e-05
4.49988e-05
4.49988e-05
4.49988e-05
4.49988e-05
4.49987e-05
4.49987e-05
4.49987e-05
4.49987e-05
4.49987e-05
4.49986e-05
4.49986e-05
4.49986e-05
4.49986e-05
4.49986e-05
4.49986e-05
4.49986e-05
4.49986e-05
4.49985e-05
4.49985e-05
4.49985e-05
4.49985e-05
4.49985e-05
4.49985e-05
4.49985e-05
4.49985e-05
4.49985e-05
4.49985e-05
4.49985e-05
4.49985e-05
4.50008e-05
4.50001e-05
4.49998e-05
4.49996e-05
4.49995e-05
4.49995e-05