/*--------------------------------*- C++ -*----------------------------------*\
  =========                 |
  \\      /  F ield         | OpenFOAM: The Open Source CFD Toolbox
   \\    /   O peration     | Website:  https://openfoam.org
    \\  /    A nd           | Version:  10
     \\/     M anipulation  |
\*---------------------------------------------------------------------------*/
FoamFile
{
    format      ascii;
    class       volScalarField;
    location    "692";
    object      p;
}
// * * * * * * * * * * * * * * * * * * * * * * * * * * * * * * * * * * * * * //

dimensions      [1 -1 -2 0 0 0 0];

internalField   nonuniform List<scalar> 
13140
(
100519
100466
100364
100250
100144
100056
99986.5
99932.4
99890.2
99857
99830.4
99809.2
99792.1
99778.5
99767.8
99759.3
99752.8
99748
99745
99743.6
99743.7
99745.6
99749.1
99754.4
99761.7
99770.8
99781.9
99794.7
99809.2
99824.9
99840.8
99855.5
99868.5
99880.2
99891
99901.1
99910.7
99919.9
99928.8
99937.5
99945.9
99954.2
99962.3
99970.3
99978.1
99985.9
99993.6
100001
100009
100016
100024
100031
100039
100047
100055
100063
100072
100081
100092
100104
100508
100469
100394
100301
100206
100118
100043
99981
99930.8
99890.2
99857.2
99830.5
99809
99792
99778.5
99767.9
99759.8
99753.8
99749.8
99747.6
99747.1
99748.3
99751.4
99756.3
99763.1
99771.9
99782.7
99795.3
99809.6
99825.1
99840.9
99855.5
99868.5
99880.2
99891
99901.1
99910.7
99919.9
99928.8
99937.4
99945.9
99954.1
99962.2
99970.1
99977.9
99985.7
99993.3
100001
100008
100016
100023
100031
100038
100046
100054
100062
100071
100079
100089
100098
100490
100460
100402
100322
100233
100144
100065
99999
99945.1
99902
99867.6
99839.9
99817.6
99799.8
99785.5
99774.2
99765.3
99758.6
99754
99751.1
99750.1
99750.9
99753.5
99758.1
99764.6
99773.1
99783.6
99796
99810
99825.4
99841.1
99855.7
99868.6
99880.3
99891.1
99901.2
99910.8
99919.9
99928.8
99937.5
99945.9
99954.1
99962.2
99970.1
99977.9
99985.6
99993.2
100001
100008
100016
100023
100031
100038
100046
100053
100061
100069
100077
100086
100093
100468
100445
100402
100339
100262
100182
100105
100036
99978.7
99931.2
99892.2
99860.3
99834.3
99813.3
99796.4
99782.9
99772.4
99764.4
99758.7
99755.1
99753.4
99753.7
99755.9
99760.1
99766.2
99774.4
99784.6
99796.8
99810.6
99825.8
99841.4
99855.9
99868.8
99880.5
99891.3
99901.3
99910.9
99920.1
99928.9
99937.5
99945.9
99954.1
99962.2
99970
99977.8
99985.4
99993
100000
100008
100015
100023
100030
100037
100045
100052
100060
100067
100075
100082
100087
100443
100426
100394
100345
100281
100208
100134
100065
100004
99952.2
99909.5
99874.4
99846
99823.1
99804.8
99790.3
99778.9
99770.2
99763.9
99759.7
99757.5
99757.3
99759
99762.8
99768.5
99776.3
99786.2
99798
99811.5
99826.5
99841.9
99856.3
99869.2
99880.8
99891.5
99901.6
99911.1
99920.3
99929.1
99937.7
99946
99954.2
99962.2
99970
99977.7
99985.3
99992.8
100000
100008
100015
100022
100029
100036
100043
100051
100058
100065
100071
100077
100081
100416
100403
100380
100343
100291
100230
100163
100096
100034
99980.5
99934.7
99896.5
99865
99839.4
99818.6
99802
99788.8
99778.5
99770.9
99765.6
99762.5
99761.5
99762.5
99765.6
99770.9
99778.3
99787.7
99799.2
99812.5
99827.2
99842.4
99856.7
99869.5
99881.1
99891.8
99901.8
99911.4
99920.5
99929.3
99937.8
99946.2
99954.3
99962.2
99970
99977.7
99985.2
99992.6
99999.9
100007
100014
100021
100028
100035
100042
100049
100055
100061
100067
100072
100075
100390
100379
100362
100334
100294
100243
100185
100123
100062
100007
99958.3
99916.8
99882.3
99853.9
99830.7
99812.1
99797.3
99785.8
99777.1
99770.9
99767.1
99765.5
99766
99768.7
99773.5
99780.5
99789.6
99800.7
99813.7
99828.1
99843.2
99857.4
99870.1
99881.6
99892.3
99902.3
99911.8
99920.9
99929.6
99938.2
99946.4
99954.5
99962.4
99970.1
99977.6
99985.1
99992.3
99999.5
100007
100013
100020
100027
100034
100040
100046
100052
100058
100062
100067
100069
100363
100354
100342
100321
100291
100250
100201
100146
100089
100034
99984.3
99940.6
99903.3
99872.2
99846.6
99825.8
99809.1
99795.9
99785.8
99778.5
99773.6
99771.1
99770.8
99772.7
99776.9
99783.3
99791.8
99802.5
99815
99829.2
99844
99858
99870.6
99882.1
99892.7
99902.7
99912.1
99921.2
99929.9
99938.4
99946.6
99954.6
99962.4
99970
99977.5
99984.8
99991.9
99998.9
100006
100013
100019
100025
100032
100038
100043
100048
100053
100057
100061
100063
100337
100330
100321
100305
100282
100251
100210
100163
100112
100059
100010
99964.5
99924.9
99891.1
99862.9
99839.7
99820.9
99806
99794.4
99785.7
99779.8
99776.4
99775.3
99776.6
99780.1
99786
99794
99804.3
99816.4
99830.3
99844.8
99858.7
99871.2
99882.6
99893.2
99903.2
99912.6
99921.6
99930.3
99938.7
99946.8
99954.8
99962.5
99970
99977.4
99984.6
99991.6
99998.4
100005
100012
100018
100024
100030
100035
100040
100045
100049
100053
100056
100058
100312
100306
100299
100287
100270
100246
100214
100175
100130
100082
100034
99989
99947.9
99912
99881.4
99855.9
99835
99818.2
99804.9
99794.9
99787.7
99783.2
99781.2
99781.6
99784.4
99789.6
99797
99806.7
99818.3
99831.7
99846
99859.6
99872
99883.4
99893.9
99903.8
99913.1
99922.1
99930.7
99939
99947.1
99954.9
99962.6
99970
99977.2
99984.2
99991.1
99997.7
100004
100010
100016
100022
100027
100032
100037
100041
100045
100048
100050
100052
100288
100282
100277
100268
100255
100237
100212
100181
100143
100101
100056
100013
99971.1
99933.8
99901.1
99873.3
99850.2
99831.3
99816.2
99804.6
99796
99790.3
99787.3
99786.8
99788.8
99793.2
99800
99809
99820.2
99833.1
99847.1
99860.5
99872.8
99884
99894.4
99904.2
99913.6
99922.4
99931
99939.3
99947.3
99955
99962.5
99969.8
99976.9
99983.8
99990.4
99996.8
100003
100009
100014
100020
100025
100029
100034
100037
100040
100043
100045
100047
100264
100259
100255
100248
100239
100225
100206
100181
100150
100115
100075
100034
99993.8
99956
99921.9
99892.2
99867
99846.1
99829.1
99815.8
99805.8
99798.7
99794.5
99793
99794.1
99797.7
99803.7
99812.1
99822.6
99835.1
99848.6
99861.7
99873.8
99885
99895.3
99905
99914.3
99923.1
99931.6
99939.7
99947.6
99955.3
99962.6
99969.8
99976.7
99983.4
99989.8
99995.9
100002
100007
100013
100018
100022
100026
100030
100033
100036
100039
100041
100042
100242
100238
100235
100229
100221
100211
100197
100178
100153
100124
100090
100053
100015
99977.7
99943.2
99912.1
99885
99862.1
99843.3
99828.1
99816.5
99808
99802.5
99799.8
99799.8
99802.5
99807.7
99815.3
99825.2
99837
99850.1
99863
99874.8
99885.8
99896
99905.7
99914.8
99923.5
99931.9
99939.9
99947.7
99955.2
99962.5
99969.4
99976.2
99982.6
99988.8
99994.7
100000
100006
100011
100015
100019
100023
100027
100030
100032
100034
100036
100038
100221
100217
100215
100210
100204
100196
100185
100171
100152
100128
100100
100067
100033
99998
99964
99932.4
99904.1
99879.5
99858.8
99841.9
99828.5
99818.5
99811.6
99807.6
99806.5
99808.1
99812.4
99819.2
99828.3
99839.5
99852.1
99864.6
99876.2
99887
99897.1
99906.6
99915.6
99924.3
99932.5
99940.5
99948.1
99955.5
99962.5
99969.3
99975.8
99982.1
99988
99993.7
99999
100004
100009
100013
100017
100020
100023
100026
100028
100031
100032
100034
100201
100198
100196
100192
100187
100181
100173
100162
100147
100128
100105
100078
100048
100016
99983.7
99952.5
99923.6
99897.8
99875.4
99856.8
99841.7
99830
99821.6
99816.3
99814
99814.4
99817.7
99823.5
99831.8
99842.2
99854.2
99866.3
99877.6
99888.2
99898.1
99907.5
99916.3
99924.8
99932.9
99940.7
99948.2
99955.4
99962.2
99968.8
99975.1
99981.1
99986.8
99992.1
99997.1
100002
100006
100010
100014
100017
100020
100022
100025
100026
100028
100030
100183
100179
100178
100175
100171
100166
100160
100151
100140
100125
100107
100084
100059
100031
100001
99971.4
99942.8
99916.5
99893
99872.8
99856.1
99842.8
99832.9
99826.1
99822.4
99821.6
99823.7
99828.5
99835.8
99845.5
99856.8
99868.3
99879.3
99889.7
99899.4
99908.6
99917.3
99925.6
99933.6
99941.2
99948.5
99955.5
99962.2
99968.6
99974.6
99980.4
99985.8
99990.8
99995.6
100000
100004
100008
100011
100014
100017
100019
100021
100023
100025
100026
100166
100162
100161
100158
100155
100151
100146
100139
100131
100119
100105
100087
100066
100042
100016
99988.4
99961.1
99935
99911
99889.7
99871.6
99856.7
99845.2
99836.9
99831.8
99829.7
99830.5
99834.1
99840.4
99849.2
99859.7
99870.7
99881.3
99891.3
99900.7
99909.7
99918.3
99926.4
99934.2
99941.6
99948.7
99955.4
99961.9
99968
99973.8
99979.2
99984.4
99989.1
99993.6
99997.7
100001
100005
100008
100011
100013
100015
100017
100019
100021
100022
100149
100146
100145
100143
100140
100137
100133
100128
100121
100112
100101
100087
100070
100050
100027
100003
99977.6
99952.6
99928.7
99906.9
99887.8
99871.6
99858.6
99848.8
99842.2
99838.7
99838.2
99840.6
99845.7
99853.4
99863.1
99873.4
99883.5
99893.2
99902.4
99911.1
99919.4
99927.4
99934.9
99942.1
99949
99955.5
99961.7
99967.6
99973.1
99978.3
99983.2
99987.7
99991.8
99995.7
99999.2
100002
100005
100008
100010
100012
100014
100016
100017
100019
100134
100132
100130
100128
100126
100123
100120
100116
100111
100104
100095
100084
100070
100054
100035
100014
99991.7
99968.5
99945.7
99924
99904.3
99887.2
99872.9
99861.7
99853.6
99848.6
99846.7
99847.8
99851.7
99858.3
99867
99876.6
99886.2
99895.4
99904.2
99912.7
99920.7
99928.4
99935.7
99942.6
99949.2
99955.5
99961.4
99967
99972.2
99977.1
99981.7
99985.9
99989.8
99993.4
99996.6
99999.6
100002
100005
100007
100009
100011
100012
100014
100015
100120
100118
100117
100115
100113
100111
100108
100105
100100
100095
100088
100079
100069
100056
100040
100023
100003
99982.3
99961.1
99940.3
99920.7
99903.1
99887.8
99875.4
99865.9
99859.5
99856.2
99855.9
99858.5
99863.8
99871.5
99880.3
99889.2
99897.9
99906.4
99914.5
99922.2
99929.6
99936.6
99943.3
99949.6
99955.6
99961.2
99966.5
99971.5
99976.1
99980.4
99984.4
99988
99991.4
99994.4
99997.2
99999.7
100002
100004
100006
100008
100009
100011
100012
100108
100105
100104
100103
100101
100099
100097
100094
100090
100086
100081
100074
100065
100055
100043
100028
100012
99993.5
99974.5
99955.1
99936.3
99918.7
99903
99889.7
99879.1
99871.3
99866.6
99864.9
99866.1
99870.1
99876.6
99884.5
99892.7
99900.8
99908.8
99916.5
99923.9
99930.9
99937.6
99944
99950
99955.6
99961
99966
99970.6
99975
99979
99982.7
99986.1
99989.2
99992
99994.6
99997
99999.1
100001
100003
100004
100006
100007
100008
100096
100094
100093
100091
100090
100088
100086
100084
100081
100077
100073
100068
100061
100053
100043
100031
100017
100002
99985.5
99968.1
99950.6
99933.7
99918
99904.2
99892.7
99883.8
99877.8
99874.7
99874.5
99877.2
99882.4
99889.3
99896.7
99904.2
99911.6
99918.8
99925.8
99932.5
99938.8
99944.8
99950.5
99955.9
99960.9
99965.6
99969.9
99974
99977.7
99981.2
99984.3
99987.2
99989.9
99992.3
99994.5
99996.5
99998.4
100000
100002
100003
100004
100005
100085
100083
100082
100081
100079
100078
100076
100074
100072
100069
100065
100061
100056
100049
100041
100032
100021
100008
99994.1
99979
99963.2
99947.4
99932.3
99918.5
99906.5
99896.8
99889.6
99885.3
99883.7
99885
99889
99894.7
99901.2
99908
99914.8
99921.5
99928
99934.3
99940.2
99945.8
99951.2
99956.2
99960.8
99965.2
99969.3
99973
99976.5
99979.7
99982.6
99985.3
99987.8
99990
99992.1
99993.9
99995.6
99997.2
99998.6
99999.9
100001
100002
100075
100073
100073
100071
100070
100069
100067
100066
100064
100061
100058
100055
100050
100045
100039
100031
100023
100012
100000
99987.5
99973.7
99959.5
99945.5
99932.1
99920.1
99909.9
99901.9
99896.4
99893.6
99893.6
99896.2
99900.8
99906.4
99912.4
99918.5
99924.6
99930.6
99936.4
99941.9
99947.1
99952
99956.7
99961
99965
99968.8
99972.3
99975.5
99978.4
99981.2
99983.6
99985.9
99988
99989.9
99991.7
99993.3
99994.7
99996.1
99997.3
99998.4
99999.4
100066
100065
100064
100063
100062
100060
100059
100058
100056
100054
100051
100049
100045
100041
100036
100030
100023
100014
100005
99994
99982.2
99969.8
99957.1
99944.7
99933
99922.8
99914.2
99907.9
99904
99902.7
99904.1
99907.5
99912.1
99917.3
99922.7
99928.1
99933.5
99938.8
99943.8
99948.6
99953.1
99957.4
99961.4
99965.1
99968.5
99971.7
99974.6
99977.3
99979.8
99982.1
99984.2
99986.1
99987.9
99989.5
99991
99992.3
99993.5
99994.7
99995.7
99996.7
100058
100057
100056
100055
100054
100053
100052
100050
100049
100047
100045
100043
100040
100037
100032
100028
100022
100015
100007
99998.6
99988.7
99978.1
99967
99955.8
99944.9
99935
99926.3
99919.5
99914.7
99912.4
99912.5
99914.8
99918.4
99922.7
99927.3
99932.1
99936.9
99941.6
99946.1
99950.4
99954.5
99958.4
99962
99965.4
99968.5
99971.4
99974.1
99976.5
99978.8
99980.9
99982.8
99984.6
99986.2
99987.7
99989
99990.3
99991.4
99992.5
99993.5
99994.4
100051
100050
100049
100048
100047
100046
100045
100044
100043
100041
100039
100037
100035
100032
100029
100025
100020
100015
100009
100002
99993.5
99984.6
99975.1
99965.3
99955.5
99946.2
99937.8
99930.7
99925.4
99922.2
99921.3
99922.5
99925.1
99928.5
99932.4
99936.5
99940.6
99944.7
99948.8
99952.6
99956.3
99959.7
99962.9
99966
99968.8
99971.4
99973.8
99976
99978.1
99980
99981.7
99983.3
99984.8
99986.1
99987.3
99988.5
99989.5
99990.5
99991.4
99992.2
100044
100043
100043
100042
100041
100040
100039
100038
100037
100036
100034
100032
100030
100028
100026
100022
100019
100014
100009
100003
99996.9
99989.5
99981.6
99973.2
99964.6
99956.1
99948.3
99941.4
99935.9
99932.1
99930.3
99930.6
99932.3
99934.8
99937.9
99941.3
99944.8
99948.3
99951.8
99955.1
99958.3
99961.4
99964.2
99966.9
99969.4
99971.7
99973.9
99975.9
99977.7
99979.4
99981
99982.4
99983.7
99984.9
99986.1
99987.1
99988.1
99988.9
99989.8
99990.5
100039
100038
100037
100036
100035
100035
100034
100033
100032
100031
100029
100028
100026
100024
100022
100020
100017
100013
100009
100004
99999.1
99993.1
99986.6
99979.5
99972.2
99964.8
99957.6
99951.2
99945.7
99941.6
99939.3
99938.7
99939.6
99941.4
99943.7
99946.4
99949.3
99952.2
99955.1
99958
99960.8
99963.4
99965.9
99968.2
99970.4
99972.4
99974.3
99976.1
99977.7
99979.2
99980.6
99981.8
99983
99984.1
99985.1
99986.1
99986.9
99987.7
99988.4
99989.1
100033
100032
100032
100031
100031
100030
100029
100028
100027
100026
100025
100024
100023
100021
100019
100017
100015
100012
100009
100005
100000
99995.6
99990.3
99984.5
99978.3
99972
99965.7
99959.9
99954.7
99950.6
99947.9
99946.8
99947
99948.1
99949.7
99951.8
99954
99956.4
99958.8
99961.2
99963.5
99965.7
99967.9
99969.9
99971.7
99973.5
99975.1
99976.7
99978.1
99979.4
99980.6
99981.7
99982.8
99983.7
99984.6
99985.4
99986.2
99986.9
99987.6
99988.2
100029
100028
100028
100027
100026
100026
100025
100024
100023
100023
100022
100021
100019
100018
100016
100015
100013
100010
100008
100005
100001
99997.4
99993
99988.3
99983.2
99977.9
99972.6
99967.4
99962.7
99958.8
99955.9
99954.5
99954.2
99954.7
99955.8
99957.2
99958.9
99960.8
99962.7
99964.7
99966.6
99968.4
99970.2
99971.8
99973.4
99974.9
99976.3
99977.6
99978.8
99979.9
99981
99982
99982.9
99983.7
99984.5
99985.2
99985.9
99986.5
99987.1
99987.6
100025
100024
100024
100023
100022
100022
100021
100021
100020
100019
100018
100017
100016
100015
100014
100013
100011
100009
100007
100004
100002
99998.5
99995
99991.2
99987
99982.7
99978.2
99973.8
99969.7
99966
99963.3
99961.6
99961
99961.1
99961.7
99962.6
99963.9
99965.3
99966.8
99968.3
99969.8
99971.3
99972.7
99974.1
99975.4
99976.6
99977.8
99978.9
99979.9
99980.9
99981.8
99982.6
99983.4
99984.1
99984.7
99985.4
99985.9
99986.5
99987
99987.5
100021
100021
100020
100020
100019
100019
100018
100018
100017
100016
100016
100015
100014
100013
100012
100011
100009
100008
100006
100004
100002
99999.2
99996.4
99993.3
99990
99986.4
99982.8
99979.1
99975.5
99972.3
99969.8
99968.1
99967.2
99967
99967.3
99967.9
99968.7
99969.7
99970.8
99972
99973.1
99974.3
99975.4
99976.5
99977.6
99978.6
99979.5
99980.4
99981.3
99982.1
99982.8
99983.5
99984.2
99984.8
99985.3
99985.9
99986.3
99986.8
99987.2
99987.6
100018
100018
100017
100017
100016
100016
100015
100015
100014
100014
100013
100012
100012
100011
100010
100009
100008
100007
100005
100003
100002
99999.7
99997.4
99994.9
99992.3
99989.4
99986.4
99983.4
99980.4
99977.7
99975.4
99973.8
99972.8
99972.4
99972.4
99972.7
99973.3
99973.9
99974.7
99975.6
99976.5
99977.4
99978.2
99979.1
99979.9
99980.7
99981.5
99982.2
99982.9
99983.5
99984.1
99984.7
99985.2
99985.7
99986.2
99986.6
99987.1
99987.4
99987.8
99988.1
100015
100015
100015
100014
100014
100013
100013
100013
100012
100012
100011
100010
100010
100009
100008
100007
100007
100005
100004
100003
100002
99999.9
99998.1
99996.1
99994
99991.7
99989.3
99986.8
99984.4
99982.1
99980.1
99978.7
99977.7
99977.2
99977.1
99977.2
99977.5
99977.9
99978.4
99979
99979.7
99980.3
99981
99981.7
99982.3
99982.9
99983.5
99984.1
99984.6
99985.1
99985.6
99986.1
99986.5
99986.9
99987.3
99987.7
99988
99988.3
99988.6
99988.9
100013
100013
100012
100012
100012
100011
100011
100011
100010
100010
100009
100009
100008
100008
100007
100006
100005
100005
100004
100003
100001
100000
99998.6
99997
99995.3
99993.5
99991.6
99989.6
99987.6
99985.7
99984.1
99982.8
99981.9
99981.4
99981.2
99981.1
99981.2
99981.5
99981.8
99982.3
99982.7
99983.2
99983.7
99984.2
99984.6
99985.1
99985.6
99986
99986.4
99986.8
99987.2
99987.6
99987.9
99988.2
99988.5
99988.8
99989.1
99989.3
99989.6
99989.8
100011
100011
100010
100010
100010
100010
100009
100009
100009
100008
100008
100007
100007
100006
100006
100005
100005
100004
100003
100002
100001
100000
99998.9
99997.7
99996.3
99994.9
99993.3
99991.8
99990.2
99988.7
99987.3
99986.2
99985.5
99985
99984.7
99984.5
99984.6
99984.7
99984.9
99985.2
99985.5
99985.8
99986.1
99986.5
99986.8
99987.2
99987.5
99987.9
99988.2
99988.5
99988.8
99989.1
99989.3
99989.6
99989.8
99990
99990.2
99990.5
99990.6
99990.8
100009
100009
100009
100009
100008
100008
100008
100007
100007
100007
100006
100006
100006
100005
100005
100004
100004
100003
100002
100002
100001
100000
99999.2
99998.2
99997.1
99996
99994.7
99993.5
99992.3
99991
99989.9
99989
99988.4
99987.9
99987.6
99987.5
99987.4
99987.5
99987.6
99987.7
99987.9
99988.1
99988.4
99988.6
99988.9
99989.1
99989.4
99989.6
99989.9
99990.1
99990.3
99990.5
99990.7
99990.9
99991.1
99991.3
99991.4
99991.6
99991.7
99991.9
100008
100008
100007
100007
100007
100007
100007
100006
100006
100006
100005
100005
100005
100004
100004
100004
100003
100003
100002
100001
100001
100000
99999.4
99998.6
99997.7
99996.8
99995.8
99994.9
99993.9
99992.9
99992
99991.3
99990.7
99990.3
99990.1
99989.9
99989.8
99989.8
99989.9
99989.9
99990.1
99990.2
99990.4
99990.5
99990.7
99990.9
99991.1
99991.3
99991.4
99991.6
99991.8
99991.9
99992.1
99992.2
99992.3
99992.5
99992.6
99992.7
99992.8
99992.9
100007
100006
100006
100006
100006
100006
100005
100005
100005
100005
100004
100004
100004
100004
100003
100003
100003
100002
100002
100001
100001
100000
99999.5
99998.9
99998.2
99997.5
99996.7
99995.9
99995.2
99994.4
99993.7
99993.1
99992.7
99992.3
99992.1
99991.9
99991.8
99991.8
99991.8
99991.8
99991.9
99992
99992.1
99992.2
99992.3
99992.5
99992.6
99992.7
99992.8
99992.9
99993.1
99993.2
99993.3
99993.4
99993.5
99993.6
99993.7
99993.8
99993.9
99993.9
100006
100005
100005
100005
100005
100005
100005
100004
100004
100004
100004
100003
100003
100003
100003
100002
100002
100002
100001
100001
100001
100000
99999.6
99999.1
99998.6
99998
99997.4
99996.8
99996.2
99995.6
99995
99994.6
99994.2
99993.9
99993.7
99993.6
99993.5
99993.4
99993.4
99993.4
99993.4
99993.5
99993.6
99993.6
99993.7
99993.8
99993.9
99994
99994.1
99994.1
99994.2
99994.3
99994.4
99994.5
99994.5
99994.6
99994.7
99994.7
99994.8
99994.9
100005
100004
100004
100004
100004
100004
100004
100004
100003
100003
100003
100003
100003
100002
100002
100002
100002
100001
100001
100001
100000
100000
99999.7
99999.3
99998.8
99998.4
99997.9
99997.5
99997
99996.5
99996.1
99995.7
99995.4
99995.2
99995
99994.9
99994.8
99994.8
99994.7
99994.7
99994.7
99994.8
99994.8
99994.8
99994.9
99994.9
99995
99995.1
99995.1
99995.2
99995.2
99995.3
99995.4
99995.4
99995.5
99995.5
99995.6
99995.6
99995.7
99995.7
100004
100004
100004
100004
100003
100003
100003
100003
100003
100003
100003
100002
100002
100002
100002
100002
100001
100001
100001
100001
100000
100000
99999.7
99999.4
99999.1
99998.7
99998.4
99998
99997.6
99997.3
99996.9
99996.6
99996.4
99996.2
99996.1
99996
99995.9
99995.8
99995.8
99995.8
99995.8
99995.8
99995.8
99995.8
99995.9
99995.9
99995.9
99996
99996
99996.1
99996.1
99996.1
99996.2
99996.2
99996.3
99996.3
99996.3
99996.4
99996.4
99996.4
100003
100003
100003
100003
100003
100003
100003
100002
100002
100002
100002
100002
100002
100002
100001
100001
100001
100001
100001
100001
100000
100000
99999.8
99999.5
99999.3
99999
99998.7
99998.4
99998.1
99997.9
99997.6
99997.4
99997.2
99997
99996.9
99996.8
99996.8
99996.7
99996.7
99996.7
99996.6
99996.6
99996.7
99996.7
99996.7
99996.7
99996.7
99996.8
99996.8
99996.8
99996.8
99996.9
99996.9
99996.9
99996.9
99997
99997
99997
99997
99997.1
100003
100003
100003
100002
100002
100002
100002
100002
100002
100002
100002
100002
100001
100001
100001
100001
100001
100001
100001
100000
100000
100000
99999.8
99999.6
99999.4
99999.2
99999
99998.8
99998.5
99998.3
99998.1
99997.9
99997.8
99997.7
99997.6
99997.5
99997.4
99997.4
99997.4
99997.3
99997.3
99997.3
99997.3
99997.3
99997.3
99997.4
99997.4
99997.4
99997.4
99997.4
99997.4
99997.5
99997.5
99997.5
99997.5
99997.5
99997.5
99997.6
99997.6
99997.6
100002
100002
100002
100002
100002
100002
100002
100002
100002
100002
100001
100001
100001
100001
100001
100001
100001
100001
100000
100000
100000
100000
99999.9
99999.7
99999.6
99999.4
99999.2
99999
99998.9
99998.7
99998.5
99998.4
99998.3
99998.2
99998.1
99998
99998
99998
99997.9
99997.9
99997.9
99997.9
99997.9
99997.9
99997.9
99997.9
99997.9
99997.9
99997.9
99997.9
99997.9
99998
99998
99998
99998
99998
99998
99998
99998
99998.1
100002
100002
100002
100002
100002
100002
100002
100001
100001
100001
100001
100001
100001
100001
100001
100001
100001
100001
100000
100000
100000
100000
99999.9
99999.8
99999.7
99999.5
99999.4
99999.2
99999.1
99999
99998.9
99998.7
99998.7
99998.6
99998.5
99998.5
99998.4
99998.4
99998.4
99998.4
99998.3
99998.3
99998.3
99998.3
99998.3
99998.3
99998.3
99998.3
99998.3
99998.3
99998.4
99998.4
99998.4
99998.4
99998.4
99998.4
99998.4
99998.4
99998.4
99998.4
100002
100002
100001
100001
100001
100001
100001
100001
100001
100001
100001
100001
100001
100001
100001
100001
100001
100000
100000
100000
100000
100000
99999.9
99999.8
99999.7
99999.6
99999.5
99999.4
99999.3
99999.2
99999.1
99999
99999
99998.9
99998.8
99998.8
99998.8
99998.7
99998.7
99998.7
99998.7
99998.7
99998.7
99998.7
99998.7
99998.7
99998.7
99998.7
99998.7
99998.7
99998.7
99998.7
99998.7
99998.7
99998.7
99998.7
99998.7
99998.7
99998.7
99998.7
100001
100001
100001
100001
100001
100001
100001
100001
100001
100001
100001
100001
100001
100001
100001
100001
100000
100000
100000
100000
100000
100000
100000
99999.9
99999.8
99999.7
99999.6
99999.5
99999.5
99999.4
99999.3
99999.2
99999.2
99999.1
99999.1
99999.1
99999
99999
99999
99999
99999
99999
99999
99999
99999
99999
99999
99999
99999
99999
99999
99999
99999
99999
99999
99999
99999
99999
99999
99999
100001
100001
100001
100001
100001
100001
100001
100001
100001
100001
100001
100001
100001
100001
100000
100000
100000
100000
100000
100000
100000
100000
100000
99999.9
99999.9
99999.8
99999.7
99999.7
99999.6
99999.5
99999.5
99999.4
99999.4
99999.3
99999.3
99999.3
99999.3
99999.2
99999.2
99999.2
99999.2
99999.2
99999.2
99999.2
99999.2
99999.2
99999.2
99999.2
99999.2
99999.2
99999.2
99999.2
99999.2
99999.2
99999.2
99999.2
99999.2
99999.2
99999.2
99999.2
100001
100001
100001
100001
100001
100001
100001
100001
100001
100001
100001
100001
100000
100000
100000
100000
100000
100000
100000
100000
100000
100000
100000
99999.9
99999.9
99999.8
99999.8
99999.7
99999.7
99999.6
99999.6
99999.6
99999.5
99999.5
99999.5
99999.5
99999.4
99999.4
99999.4
99999.4
99999.4
99999.4
99999.4
99999.4
99999.4
99999.4
99999.4
99999.4
99999.4
99999.4
99999.4
99999.4
99999.4
99999.4
99999.4
99999.4
99999.4
99999.4
99999.4
99999.4
100001
100001
100001
100001
100001
100001
100001
100001
100001
100001
100000
100000
100000
100000
100000
100000
100000
100000
100000
100000
100000
100000
100000
100000
99999.9
99999.9
99999.8
99999.8
99999.8
99999.7
99999.7
99999.7
99999.6
99999.6
99999.6
99999.6
99999.6
99999.6
99999.5
99999.5
99999.5
99999.5
99999.5
99999.5
99999.5
99999.5
99999.5
99999.5
99999.5
99999.5
99999.5
99999.5
99999.5
99999.5
99999.5
99999.5
99999.5
99999.5
99999.5
99999.5
100001
100001
100001
100001
100001
100001
100001
100001
100000
100000
100000
100000
100000
100000
100000
100000
100000
100000
100000
100000
100000
100000
100000
100000
100000
99999.9
99999.9
99999.9
99999.8
99999.8
99999.8
99999.8
99999.7
99999.7
99999.7
99999.7
99999.7
99999.7
99999.7
99999.7
99999.6
99999.6
99999.6
99999.6
99999.6
99999.6
99999.6
99999.6
99999.6
99999.6
99999.6
99999.6
99999.6
99999.6
99999.6
99999.6
99999.6
99999.6
99999.6
99999.6
100001
100001
100001
100001
100001
100000
100000
100000
100000
100000
100000
100000
100000
100000
100000
100000
100000
100000
100000
100000
100000
100000
100000
100000
100000
100000
99999.9
99999.9
99999.9
99999.9
99999.8
99999.8
99999.8
99999.8
99999.8
99999.8
99999.8
99999.8
99999.7
99999.7
99999.7
99999.7
99999.7
99999.7
99999.7
99999.7
99999.7
99999.7
99999.7
99999.7
99999.7
99999.7
99999.7
99999.7
99999.7
99999.7
99999.7
99999.7
99999.7
99999.7
100000
100000
100000
100000
100000
100000
100000
100000
100000
100000
100000
100000
100000
100000
100000
100000
100000
100000
100000
100000
100000
100000
100000
100000
100000
100000
100000
99999.9
99999.9
99999.9
99999.9
99999.9
99999.9
99999.9
99999.8
99999.8
99999.8
99999.8
99999.8
99999.8
99999.8
99999.8
99999.8
99999.8
99999.8
99999.8
99999.8
99999.8
99999.8
99999.8
99999.8
99999.8
99999.8
99999.8
99999.8
99999.8
99999.8
99999.8
99999.8
99999.8
100000
100000
100000
100000
100000
100000
100000
100000
100000
100000
100000
100000
100000
100000
100000
100000
100000
100000
100000
100000
100000
100000
100000
100000
100000
100000
100000
100000
100000
99999.9
99999.9
99999.9
99999.9
99999.9
99999.9
99999.9
99999.9
99999.9
99999.9
99999.9
99999.9
99999.9
99999.9
99999.9
99999.9
99999.9
99999.9
99999.8
99999.8
99999.8
99999.8
99999.8
99999.8
99999.8
99999.8
99999.8
99999.8
99999.8
99999.8
99999.8
100000
100000
100000
100000
100000
100000
100000
100000
100000
100000
100000
100000
100000
100000
100000
100000
100000
100000
100000
100000
100000
100000
100000
100000
100000
100000
100000
100000
100000
100000
100000
100000
100000
99999.9
99999.9
99999.9
99999.9
99999.9
99999.9
99999.9
99999.9
99999.9
99999.9
99999.9
99999.9
99999.9
99999.9
99999.9
99999.9
99999.9
99999.9
99999.9
99999.9
99999.9
99999.9
99999.9
99999.9
99999.9
99999.9
99999.9
100000
100000
100000
100000
100000
100000
100000
100000
100000
100000
100000
100000
100000
100000
100000
100000
100000
100000
100000
100000
100000
100000
100000
100000
100000
100000
100000
100000
100000
100000
100000
100000
100000
100000
100000
100000
100000
100000
100000
99999.9
99999.9
99999.9
99999.9
99999.9
99999.9
99999.9
99999.9
99999.9
99999.9
99999.9
99999.9
99999.9
99999.9
99999.9
99999.9
99999.9
99999.9
99999.9
99999.9
99999.9
100000
100000
100000
100000
100000
100000
100000
100000
100000
100000
100000
100000
100000
100000
100000
100000
100000
100000
100000
100000
100000
100000
100000
100000
100000
100000
100000
100000
100000
100000
100000
100000
100000
100000
100000
100000
100000
100000
100000
100000
100000
100000
100000
100000
100000
100000
100000
100000
100000
100000
100000
100000
100000
100000
100000
100000
100000
100000
100000
100000
100000
100000
100000
100000
100000
100000
100000
100000
100000
100000
100000
100000
100000
100000
100000
100000
100000
100000
100000
100000
100000
100000
100000
100000
100000
100000
100000
100000
100000
100000
100000
100000
100000
100000
100000
100000
100000
100000
100000
100000
100000
100000
100000
100000
100000
100000
100000
100000
100000
100000
100000
100000
100000
100000
100000
100000
100000
100000
100000
100000
100124
100096
100075
100069
100063
100056
100050
100044
100038
100033
100026
100020
100012
100003
99990.1
100112
100092
100074
100068
100062
100056
100050
100044
100038
100033
100027
100021
100013
100005
99995.8
100103
100090
100075
100068
100062
100056
100050
100044
100039
100033
100028
100022
100016
100010
100003
100095
100086
100074
100066
100061
100055
100049
100044
100039
100034
100029
100024
100019
100014
100010
100087
100082
100072
100065
100060
100055
100049
100044
100040
100035
100031
100027
100023
100019
100017
100080
100076
100069
100063
100058
100054
100049
100044
100040
100036
100033
100029
100026
100024
100023
100073
100070
100065
100061
100056
100052
100048
100045
100041
100038
100035
100032
100030
100029
100028
100066
100064
100061
100057
100054
100051
100048
100044
100042
100039
100037
100035
100034
100033
100032
100059
100059
100057
100054
100052
100049
100047
100044
100042
100040
100039
100037
100036
100036
100036
100054
100053
100052
100051
100049
100047
100045
100044
100042
100041
100040
100039
100038
100038
100038
100048
100049
100048
100047
100046
100045
100044
100043
100042
100041
100040
100040
100040
100040
100040
100044
100044
100044
100044
100043
100043
100042
100041
100041
100040
100040
100040
100040
100040
100040
100039
100040
100040
100040
100040
100040
100040
100040
100040
100040
100040
100040
100040
100040
100040
100035
100036
100036
100037
100037
100037
100038
100038
100038
100038
100038
100038
100039
100039
100039
100031
100032
100033
100033
100034
100035
100035
100035
100036
100036
100036
100037
100037
100037
100038
100027
100028
100029
100030
100031
100032
100032
100033
100033
100034
100034
100035
100035
100035
100036
100023
100025
100026
100027
100027
100028
100029
100030
100030
100031
100031
100032
100032
100033
100033
100020
100021
100022
100023
100024
100025
100026
100027
100027
100028
100028
100029
100029
100030
100030
100016
100018
100019
100020
100021
100021
100022
100023
100024
100024
100025
100025
100026
100026
100027
100013
100014
100015
100016
100017
100018
100019
100020
100020
100021
100022
100022
100023
100023
100023
100010
100011
100012
100013
100014
100014
100015
100016
100017
100017
100018
100018
100019
100019
100020
100007
100008
100009
100009
100010
100011
100012
100013
100013
100014
100014
100015
100015
100016
100016
100003
100004
100005
100006
100007
100008