/*--------------------------------*- C++ -*----------------------------------*\
  =========                 |
  \\      /  F ield         | OpenFOAM: The Open Source CFD Toolbox
   \\    /   O peration     | Website:  https://openfoam.org
    \\  /    A nd           | Version:  10
     \\/     M anipulation  |
\*---------------------------------------------------------------------------*/
FoamFile
{
    format      ascii;
    class       surfaceScalarField;
    location    "692";
    object      phi;
}
// * * * * * * * * * * * * * * * * * * * * * * * * * * * * * * * * * * * * * //

dimensions      [1 0 -1 0 0 0 0];

internalField   nonuniform List<scalar> 
26061
(
0.000760616
-0.000760614
-2.50154e-09
0.00144665
-0.000686032
0.0019994
-0.000552749
0.00239367
-0.000394272
0.00265267
-0.000259002
0.00281323
-0.000160555
0.00290669
-9.34673e-05
0.00295432
-4.76296e-05
0.00297146
-1.71343e-05
0.00296894
2.52222e-06
0.00295473
1.42061e-05
0.0029361
1.86339e-05
0.00291724
1.88542e-05
0.00289989
1.73473e-05
0.00288412
1.5771e-05
0.00286935
1.47707e-05
0.00285447
1.48812e-05
0.00283869
1.578e-05
0.00282162
1.70713e-05
0.00280286
1.87586e-05
0.00278227
2.05945e-05
0.0027599
2.23644e-05
0.00273549
2.44176e-05
0.00270909
2.63945e-05
0.00268119
2.79e-05
0.00265203
2.91618e-05
0.0026221
2.99292e-05
0.00259215
2.99489e-05
0.00256313
2.90208e-05
0.00253599
2.71454e-05
0.00251426
2.17299e-05
0.00249883
1.54262e-05
0.00248695
1.18827e-05
0.00247679
1.01575e-05
0.00246702
9.76794e-06
0.0024569
1.01194e-05
0.00244584
1.1066e-05
0.00243353
1.23029e-05
0.00241982
1.37084e-05
0.00240473
1.5091e-05
0.0023881
1.66285e-05
0.00237002
1.80868e-05
0.00235049
1.95263e-05
0.00232949
2.09977e-05
0.00230705
2.24472e-05
0.00228314
2.39033e-05
0.0022578
2.53446e-05
0.00223099
2.6807e-05
0.0022026
2.8394e-05
0.00217256
3.00368e-05
0.00214087
3.16886e-05
0.00210718
3.36929e-05
0.00207146
3.57211e-05
0.00203314
3.83212e-05
0.0019919
4.12374e-05
0.00194681
4.50937e-05
0.00189568
5.11234e-05
0.00183522
6.04606e-05
0.00175336
8.18588e-05
0.000113228
0.00164014
0.000686636
-0.00144725
-2.5571e-09
0.00133311
-0.0013325
0.00186378
-0.00108342
0.00226687
-0.000797362
0.00255493
-0.00054706
0.00275365
-0.000359279
0.00289263
-0.000232448
0.00299496
-0.000149955
0.00307431
-9.64897e-05
0.00313849
-6.16559e-05
0.00319031
-3.76153e-05
0.00323099
-2.20412e-05
0.00326169
-1.18471e-05
0.0032834
-4.36481e-06
0.00329753
1.64164e-06
0.00330562
6.67566e-06
0.00330858
1.19223e-05
0.00330734
1.70202e-05
0.00330267
2.17451e-05
0.00329483
2.65928e-05
0.00328408
3.13442e-05
0.00327053
3.59191e-05
0.00325429
4.06601e-05
0.00323532
4.53589e-05
0.00321363
4.95942e-05
0.00318947
5.33196e-05
0.00316347
5.59278e-05
0.00313649
5.69352e-05
0.00310957
5.59324e-05
0.00308363
5.30859e-05
0.00306233
4.30327e-05
0.00304711
3.06478e-05
0.00303542
2.3573e-05
0.00302539
2.0187e-05
0.00301557
1.95824e-05
0.00300524
2.04572e-05
0.00299383
2.24739e-05
0.00298103
2.51029e-05
0.00296663
2.81038e-05
0.00295067
3.10582e-05
0.00293295
3.43496e-05
0.00291357
3.74642e-05
0.00289255
4.05415e-05
0.00286988
4.36746e-05
0.00284557
4.67567e-05
0.00281963
4.98425e-05
0.00279208
5.2892e-05
0.00276292
5.59649e-05
0.00273203
5.92881e-05
0.00269934
6.27235e-05
0.00266488
6.61479e-05
0.00262829
7.02829e-05
0.00258958
7.44348e-05
0.00254819
7.97084e-05
0.00250391
8.55176e-05
0.00245581
9.31905e-05
0.00240257
0.000104368
0.00234203
0.000121004
0.00227395
0.000149939
0.0001817
0.00220547
0.000638957
-0.0020862
-2.63747e-09
0.00128414
-0.00197769
0.00188664
-0.00168592
0.0024028
-0.00131352
0.00281117
-0.000955437
0.00312133
-0.000669438
0.00334992
-0.000461037
0.0035164
-0.000316434
0.00363672
-0.000216804
0.00372308
-0.00014802
0.00378444
-9.89761e-05
0.00382764
-6.52424e-05
0.00385814
-4.23424e-05
0.00387968
-2.59124e-05
0.00389499
-1.36634e-05
0.00390579
-4.12283e-06
0.00391273
4.97658e-06
0.00391628
1.34692e-05
0.00391667
2.13592e-05
0.00391369
2.95757e-05
0.00390718
3.78532e-05
0.00389716
4.59329e-05
0.00388373
5.4097e-05
0.00386695
6.21331e-05
0.00384717
6.93775e-05
0.0038247
7.57942e-05
0.00380008
8.05418e-05
0.00377408
8.29405e-05
0.00374775
8.22616e-05
0.00372209
7.87463e-05
0.00370102
6.40976e-05
0.0036862
4.54661e-05
0.00367505
3.47229e-05
0.00366556
2.96792e-05
0.00365613
2.90149e-05
0.00364598
3.06036e-05
0.00363451
3.39505e-05
0.00362136
3.82509e-05
0.00360633
4.31333e-05
0.00358947
4.79215e-05
0.00357057
5.32463e-05
0.00354977
5.82649e-05
0.00352709
6.3218e-05
0.00350253
6.82369e-05
0.00347613
7.31611e-05
0.0034479
7.80707e-05
0.00341788
8.29065e-05
0.00338611
8.77405e-05
0.00335244
9.29516e-05
0.00331685
9.83196e-05
0.00327939
0.000103607
0.0032397
0.00010997
0.00319787
0.000116268
0.00315337
0.000124201
0.00310618
0.000132708
0.00305562
0.000143758
0.0030013
0.000158682
0.00294268
0.000179628
0.00288421
0.000208413
0.000240286
0.00282562
0.000610277
-0.00269648
-2.73864e-09
0.00123997
-0.00260739
0.00184935
-0.00229529
0.00239733
-0.0018615
0.00285649
-0.0014146
0.00321564
-0.0010286
0.003485
-0.000730398
0.00368375
-0.000515181
0.00383115
-0.000364207
0.00394397
-0.000260841
0.00403431
-0.000189315
0.00410969
-0.000140619
0.00417487
-0.000107523
0.00423227
-8.33074e-05
0.00428351
-6.49076e-05
0.00432953
-5.01415e-05
0.00437045
-3.59431e-05
0.0044063
-2.23787e-05
0.00443702
-9.36412e-06
0.00446234
4.25292e-06
0.004482
1.81946e-05
0.00449573
3.22057e-05
0.00450321
4.66108e-05
0.00450418
6.11653e-05
0.00449874
7.48172e-05
0.00448717
8.73712e-05
0.00447038
9.73292e-05
0.00444989
0.000103426
0.00442777
0.000104381
0.0044059
0.000100619
0.00438857
8.14225e-05
0.00437737
5.66692e-05
0.00436955
4.25439e-05
0.00436297
3.62573e-05
0.00435594
3.60523e-05
0.00434771
3.88241e-05
0.00433769
4.39745e-05
0.00432554
5.0398e-05
0.00431109
5.75876e-05
0.00429443
6.45856e-05
0.00427536
7.23115e-05
0.00425407
7.95534e-05
0.00423061
8.66752e-05
0.00420501
9.38457e-05
0.00417732
0.000100851
0.00414759
0.000107797
0.00411589
0.000114603
0.00408229
0.000121347
0.00404666
0.000128581
0.00400899
0.000135987
0.00396941
0.000143185
0.00392759
0.000151796
0.00388369
0.000160167
0.0038373
0.000170586
0.00378862
0.000181393
0.00373731
0.000195066
0.00368377
0.000212217
0.00362839
0.000235008
0.00357566
0.000261145
0.000289776
0.00352617
0.000597054
-0.00329353
-2.83943e-09
0.00121781
-0.00322814
0.00183979
-0.00291727
0.00243158
-0.00245329
0.00296235
-0.00194537
0.00341103
-0.00147727
0.00377239
-0.00109176
0.00405448
-0.000797274
0.00427178
-0.000581509
0.00443964
-0.0004287
0.00456996
-0.000319636
0.0046716
-0.000242253
0.0047513
-0.000187229
0.00481406
-0.000146064
0.00486393
-0.000114778
0.00490403
-9.0236e-05
0.00493644
-6.83602e-05
0.00496292
-4.88598e-05
0.00498493
-3.13688e-05
0.00500343
-1.4252e-05
0.00501926
2.36722e-06
0.00503305
1.84209e-05
0.00504535
3.43098e-05
0.00505631
5.01965e-05
0.00506611
6.50268e-05
0.00507472
7.87563e-05
0.00508224
8.9808e-05
0.00508868
9.69919e-05
0.00509403
9.9026e-05
0.0050982
9.64477e-05
0.00510258
7.70447e-05
0.00510797
5.12822e-05
0.00511277
3.77423e-05
0.00511595
3.30803e-05
0.00511675
3.52483e-05
0.00511487
4.07072e-05
0.00510994
4.89039e-05
0.00510187
5.84666e-05
0.00509064
6.88117e-05
0.0050765
7.87276e-05
0.00505933
8.94816e-05
0.00503941
9.94791e-05
0.00501684
0.000109237
0.00499172
0.000118968
0.00496416
0.00012841
0.00493426
0.000137699
0.00490213
0.000146735
0.00486788
0.000155596
0.00483144
0.000165022
0.00479284
0.000174587
0.00475228
0.000183741
0.00470949
0.000194588
0.00466476
0.0002049
0.00461781
0.000217536
0.00456906
0.000230136
0.00451856
0.000245564
0.00446707
0.000263715
0.00441575
0.000286322
0.00436837
0.000308525
0.000330596
0.00432755
0.000595451
-0.00388897
-2.94399e-09
0.00121313
-0.00384582
0.00184091
-0.00354505
0.00245758
-0.00306996
0.00303579
-0.00252358
0.00354876
-0.00199024
0.00397938
-0.00152238
0.00432536
-0.00114325
0.00459494
-0.000851089
0.00480298
-0.000636743
0.00496357
-0.000480228
0.00508863
-0.000367308
0.00518782
-0.00028642
0.00526812
-0.000226366
0.0053348
-0.000181453
0.00539167
-0.000147114
0.00544101
-0.000117693
0.00548449
-9.23408e-05
0.00552322
-7.01055e-05
0.00555788
-4.89106e-05
0.005589
-2.87492e-05
0.00561694
-9.51663e-06
0.00564201
9.23853e-06
0.00566446
2.774e-05
0.00568482
4.46688e-05
0.0057037
5.98777e-05
0.00572202
7.14895e-05
0.0057409
7.81078e-05
0.00576177
7.81573e-05
0.00578551
7.27071e-05
0.00581194
5.06215e-05
0.00583904
2.41759e-05
0.00586419
1.25902e-05
0.00588565
1.16299e-05
0.00590259
1.83048e-05
0.00591477
2.85259e-05
0.00592196
4.17168e-05
0.00592425
5.61715e-05
0.00592185
7.12145e-05
0.00591519
8.53838e-05
0.00590437
0.000100309
0.00588981
0.000114036
0.00587179
0.000127258
0.00585051
0.000140246
0.00582621
0.000152711
0.00579908
0.000164831
0.00576932
0.000176497
0.00573713
0.000187786
0.00570251
0.00019964
0.00566558
0.000211519
0.00562663
0.000222686
0.0055855
0.00023572
0.00554261
0.000247789
0.00549787
0.00026228
0.00545191
0.000276093
0.00540506
0.000292414
0.00535824
0.000310536
0.00531308
0.000331478
0.00527191
0.000349694
0.000363693
0.00523882
0.000604318
-0.00449329
-3.05269e-09
0.00122732
-0.00446883
0.00186365
-0.00418138
0.00250158
-0.00370788
0.00312095
-0.00314296
0.00369646
-0.00256574
0.00420491
-0.00203083
0.00463381
-0.00157216
0.00498236
-0.00119964
0.0052607
-0.000915079
0.00548108
-0.000700609
0.00565546
-0.000541692
0.00579419
-0.00042515
0.00590546
-0.000337638
0.0059957
-0.000271691
0.0060698
-0.000221218
0.00613121
-0.000179101
0.00618253
-0.000143658
0.00622572
-0.000113298
0.00626223
-8.54151e-05
0.00629312
-5.96384e-05
0.00631925
-3.56508e-05
0.00634152
-1.30305e-05
0.00636061
8.64575e-06
0.00637752
2.77659e-05
0.00639321
4.41856e-05
0.0064091
5.55939e-05
0.00642668
6.05285e-05
0.00644776
5.70813e-05
0.00647395
4.65158e-05
0.00650547
1.91041e-05
0.00653981
-1.01698e-05
0.00657422
-2.18125e-05
0.00660661
-2.07636e-05
0.00663535
-1.04393e-05
0.00665983
4.04882e-06
0.0066796
2.19512e-05
0.0066945
4.12666e-05
0.00670453
6.11909e-05
0.00670994
7.99678e-05
0.00671074
9.95137e-05
0.00670727
0.000117506
0.00669976
0.000134764
0.00668842
0.000151583
0.0066735
0.000167631
0.00665523
0.000183107
0.00663385
0.000197878
0.00660963
0.000212004
0.00658267
0.000226598
0.00655318
0.000241011
0.00652155
0.000254311
0.00648779
0.000269489
0.00645244
0.000283136
0.00641563
0.000299092
0.00637818
0.000313536
0.0063406
0.000329997
0.00630404
0.000347098
0.0062698
0.000365718
0.00623921
0.000380285
0.000386765
0.00621614
0.000622679
-0.00511597
-3.16743e-09
0.00125952
-0.00510566
0.00190857
-0.00483044
0.00256516
-0.00436447
0.00321632
-0.00379412
0.00384134
-0.00319077
0.00441656
-0.00260604
0.00492213
-0.00207773
0.00534737
-0.00162488
0.0056953
-0.00126301
0.00597436
-0.000979672
0.00619574
-0.000763069
0.00637092
-0.000600331
0.00651019
-0.00047691
0.00662201
-0.000383506
0.00671317
-0.000312379
0.00678853
-0.000254466
0.00685183
-0.000206954
0.00690576
-0.000167227
0.00695222
-0.000131876
0.00699262
-0.000100036
0.00702806
-7.10924e-05
0.00705955
-4.45255e-05
0.00708786
-1.9666e-05
0.00711386
1.76933e-06
0.00713846
1.95844e-05
0.00716287
3.11859e-05
0.00718863
3.4774e-05
0.00721766
2.80443e-05
0.00725177
1.24129e-05
0.00729112
-2.02511e-05
0.00733301
-5.20564e-05
0.0073744
-6.32066e-05
0.00741315
-5.95085e-05
0.00744773
-4.50198e-05
0.0074775
-2.57274e-05
0.00750212
-2.66765e-06
0.00752151
2.18774e-05
0.00753573
4.6973e-05
0.00754514
7.05572e-05
0.00754979
9.48591e-05
0.00755012
0.000117177
0.00754643
0.000138459
0.00753898
0.000159031
0.00752808
0.000178531
0.00751401
0.000197174
0.00749708
0.000214811
0.0074776
0.000231478
0.00745576
0.000248447
0.00743181
0.000264954
0.00740625
0.00027987
0.0073792
0.000296541
0.00735132
0.000311022
0.00732287
0.000327534
0.00729479
0.00034162
0.00726763
0.000357159
0.00724252
0.000372201
0.00722031
0.000387935
0.00720223
0.000398364
0.000399681
0.00718931
0.000650265
-0.00576623
-3.2891e-09
0.00130987
-0.00576527
0.00197842
-0.00549899
0.00265555
-0.00504159
0.00333498
-0.00447354
0.00400203
-0.00385782
0.00463632
-0.00324033
0.00521629
-0.0026577
0.00572373
-0.00213232
0.00615376
-0.00169303
0.00650871
-0.00133462
0.00679651
-0.00105088
0.00702771
-0.000831529
0.00721337
-0.000662568
0.00736317
-0.000533306
0.0074851
-0.000434313
0.0075854
-0.000354764
0.00766883
-0.000290388
0.00773896
-0.000237351
0.00779838
-0.0001913
0.00784911
-0.000150759
0.00789265
-0.000114635
0.00793034
-8.22138e-05
0.00796315
-5.24778e-05
0.00799221
-2.72924e-05
0.00801871
-6.91029e-06
0.00804427
5.62319e-06
0.0080708
8.23787e-06
0.00810059
-1.74176e-06
0.00813574
-2.27361e-05
0.00817651
-6.10216e-05
0.00822004
-9.55844e-05
0.00826327
-0.000106441
0.00830393
-0.000100165
0.00834037
-8.14574e-05
0.00837175
-5.71155e-05
0.00839772
-2.86295e-05
0.00841819
1.39919e-06
0.00843328
3.18906e-05
0.00844338
6.04503e-05
0.0084486
8.96472e-05
0.00844939
0.000116385
0.00844608
0.000141767
0.00843898
0.000166129
0.00842845
0.000189059
0.00841483
0.000210795
0.00839849
0.000231153
0.00837983
0.000250137
0.0083591
0.000269173
0.00833669
0.000287373
0.00831316
0.000303396
0.00828876
0.000320941
0.00826425
0.000335534
0.00824001
0.00035177
0.008217
0.000364636
0.00819577
0.000378382
0.00817732
0.000390657
0.00816223
0.00040302
0.00815154
0.000409055
0.000406296
0.00814493
0.000687045
-0.00645327
-3.41836e-09
0.00137848
-0.00645671
0.00207432
-0.00619483
0.00277654
-0.00574382
0.00348351
-0.00518051
0.00418698
-0.00456129
0.00487133
-0.00392469
0.00551682
-0.00330318
0.00610225
-0.00271775
0.0066156
-0.00220639
0.0070518
-0.00177082
0.0074132
-0.00141227
0.00770731
-0.00112564
0.00794487
-0.00090013
0.00813639
-0.000724826
0.0082913
-0.000589221
0.00841759
-0.000481053
0.00852159
-0.000394389
0.00860817
-0.000323935
0.008681
-0.000264126
0.00874288
-0.000212645
0.00879594
-0.000167686
0.00884196
-0.000128237
0.00888232
-9.28429e-05
0.00891852
-6.34893e-05
0.00895201
-4.04031e-05
0.00898461
-2.69769e-05
0.00901831
-2.54601e-05
0.00905551
-3.89404e-05
0.00909846
-6.56889e-05
0.00914739
-0.000109946
0.00919903
-0.000147226
0.00925006
-0.000157467
0.00929794
-0.000148046
0.00934094
-0.000124458
0.00937813
-9.43119e-05
0.00940912
-5.96169e-05
0.00943387
-2.33485e-05
0.00945246
1.33007e-05
0.00946535
4.75548e-05
0.00947264
8.23604e-05
0.00947488
0.000114148
0.00947247
0.000144178
0.00946579
0.000172801
0.00945531
0.000199539
0.00944146
0.000224646
0.00942472
0.000247901
0.00940559
0.000269264
0.00938444
0.000290324
0.00936176
0.000310055
0.00933825
0.000326903
0.00931425
0.000344941
0.00929061
0.000359176
0.00926775
0.000374625
0.0092466
0.000385786
0.00922767
0.000397315
0.00921171
0.000406615
0.00919921
0.000415521
0.00919061
0.00041766
0.000411154
0.00918575
0.000733254
-0.00718652
-3.55561e-09
0.00146588
-0.00718933
0.00219772
-0.00692667
0.00293183
-0.00647792
0.00366944
-0.00591812
0.00440732
-0.00529917
0.00513586
-0.00465323
0.00583915
-0.00400647
0.00649645
-0.00337504
0.00709265
-0.00280259
0.00761586
-0.00229403
0.00806174
-0.00185815
0.00843269
-0.00149659
0.00873721
-0.00120465
0.0089854
-0.000973012
0.00918724
-0.000791062
0.00935214
-0.000645951
0.00948782
-0.000530072
0.00960049
-0.000436602
0.00969492
-0.000358556
0.00977484
-0.000292562
0.00984306
-0.000235909
0.00990194
-0.00018712
0.0099533
-0.000144203
0.00999892
-0.000109103
0.0100405
-8.19402e-05
0.0100799
-6.64313e-05
0.0101196
-6.51179e-05
0.0101621
-8.1464e-05
0.0102102
-0.000113757
0.0102641
-0.000163849
0.0103204
-0.000203526
0.0103758
-0.000212871
0.0104276
-0.000199931
0.0104743
-0.000171064
0.0105145
-0.000134569
0.0105481
-9.32138e-05
0.0105749
-5.01735e-05
0.0105951
-6.84645e-06
0.0106091
3.35482e-05
0.0106171
7.43511e-05
0.0106198
0.000111488
0.0106175
0.000146397
0.0106109
0.00017944
0.0106004
0.000210087
0.0105864
0.0002386
0.0105696
0.000264716
0.0105505
0.000288353
0.0105295
0.00031127
0.0105073
0.000332297
0.0104845
0.000349673
0.0104616
0.000367871
0.0104394
0.000381397
0.0104183
0.000395731
0.0103991
0.000404943
0.0103823
0.000414156
0.0103683
0.000420635
0.0103574
0.000426394
0.0103497
0.000425331
0.000415618
0.0103453
0.00078931
-0.00797582
-3.70097e-09
0.00157289
-0.00797291
0.00235012
-0.0077039
0.00312433
-0.00725214
0.00389832
-0.00669211
0.0046723
-0.00607315
0.0054418
-0.00542274
0.0061962
-0.00476087
0.00691766
-0.0040965
0.00759095
-0.00347588
0.00820055
-0.00290363
0.0087356
-0.0023932
0.009192
-0.00195298
0.00957394
-0.0015866
0.00988931
-0.00128839
0.0101475
-0.00104924
0.0103588
-0.000857226
0.0105321
-0.000703424
0.0106753
-0.000579745
0.0107944
-0.000477673
0.0108944
-0.000392623
0.0109792
-0.000320711
0.011052
-0.000259833
0.011115
-0.000207263
0.0111707
-0.000164815
0.0112212
-0.000132409
0.0112689
-0.000114101
0.0113164
-0.000112619
0.0113667
-0.000131845
0.0114229
-0.000169925
0.0114852
-0.000226107
0.0115497
-0.000268046
0.0116131
-0.000276245
0.0116724
-0.00025928
0.0117259
-0.000224564
0.0117724
-0.000181079
0.0118114
-0.000132212
0.0118429
-8.16523e-05
0.011867
-3.09697e-05
0.0118844
1.61722e-05
0.0118952
6.3561e-05
0.0119001
0.000106577
0.0118997
0.00014684
0.0118944
0.000184715
0.0118849
0.000219598
0.0118717
0.000251756
0.0118556
0.000280877
0.0118371
0.000306834
0.0118168
0.000331577
0.0117953
0.000353796
0.0117734
0.000371528
0.0117516
0.000389701
0.0117307
0.000402327
0.011711
0.00041541
0.0116933
0.00042263
0.0116779
0.000429571
0.011665
0.000433492
0.011655
0.000436436
0.0116476
0.000432695
0.00042029
0.0116429
0.000855813
-0.00883163
-3.85451e-09
0.00170067
-0.00881777
0.00253336
-0.00853659
0.00335707
-0.00807585
0.00417526
-0.0075103
0.00499022
-0.00688811
0.00580131
-0.00623383
0.00660306
-0.00556262
0.00738212
-0.00487557
0.0081255
-0.00421926
0.00881728
-0.00359541
0.00944267
-0.00301859
0.00999114
-0.00250146
0.0104613
-0.00205673
0.010857
-0.00168406
0.0111853
-0.00137754
0.0114563
-0.00112823
0.0116796
-0.000926753
0.0118642
-0.000764376
0.0120178
-0.000631206
0.0121465
-0.00052134
0.0122553
-0.000429577
0.0123484
-0.000352934
0.012429
-0.000287826
0.0124999
-0.000235726
0.0125638
-0.00019628
0.0126234
-0.000173711
0.0126817
-0.000170943
0.0127421
-0.00019218
0.0128077
-0.000235604
0.012879
-0.000297409
0.0129519
-0.000340862
0.0130228
-0.00034723
0.0130891
-0.000325536
0.0131488
-0.000284239
0.0132006
-0.000232956
0.0132443
-0.000175884
0.0132798
-0.000117101
0.0133072
-5.83719e-05
0.0133272
-3.82967e-06
0.01334
5.07437e-05
0.0133464
0.000100117
0.0133472
0.00014611
0.0133428
0.000189089
0.013334
0.000228374
0.0133215
0.000264248
0.0133061
0.00029636
0.0132883
0.000324549
0.0132689
0.000350978
0.0132485
0.00037421
0.0132279
0.000392112
0.0132076
0.000410091
0.0131882
0.000421714
0.0131701
0.000433524
0.0131538
0.000438877
0.0131396
0.000443803
0.0131275
0.000445576
0.0131177
0.000446228
0.01311
0.000440407
0.000426054
0.0131042
0.000933532
-0.00976516
-4.01622e-09
0.00185068
-0.00973492
0.00274964
-0.00943555
0.00363322
-0.00895943
0.00450496
-0.00838204
0.00536829
-0.00775143
0.00622506
-0.00709061
0.00707385
-0.00641141
0.00790632
-0.00570803
0.00871314
-0.00502608
0.00948035
-0.00436262
0.0101925
-0.0037307
0.0108345
-0.00314353
0.0113994
-0.00262158
0.0118856
-0.00217024
0.012296
-0.00178801
0.0126391
-0.0014713
0.0129239
-0.00121152
0.01316
-0.00100052
0.0133563
-0.000827523
0.0135205
-0.000685504
0.0136588
-0.000567858
0.0137764
-0.000470615
0.0138777
-0.000389103
0.0139663
-0.000324334
0.0140455
-0.000275459
0.0141186
-0.000246842
0.0141892
-0.000241462
0.0142609
-0.000263926
0.0143376
-0.000312266
0.0144194
-0.000379285
0.0145021
-0.000423512
0.0145823
-0.000427446
0.0146571
-0.000400328
0.0147246
-0.000351723
0.0147836
-0.000291958
0.0148334
-0.000225745
0.0148743
-0.000157918
0.0149063
-9.03846e-05
0.0149303
-2.78116e-05
0.0149465
3.45206e-05
0.0149559
9.07188e-05
0.0149591
0.00014284
0.014957
0.000191252
0.0149502
0.000235193
0.0149395
0.000274962
0.0149256
0.00031017
0.0149096
0.00034063
0.0148918
0.00036875
0.014873
0.000392974
0.0148541
0.000411009
0.0148354
0.000428808
0.0148176
0.000439478
0.014801
0.00045015
0.014786
0.00045388
0.0147727
0.000457107
0.0147612
0.000457087
0.0147515
0.000455915
0.0147435
0.000448427
0.000432578
0.014737
0.0010234
-0.0107886
-4.18598e-09
0.00202474
-0.0107363
0.00300163
-0.0104124
0.00395637
-0.00991417
0.00489232
-0.009318
0.00581334
-0.00867244
0.00672277
-0.00800004
0.00762204
-0.00731068
0.00850704
-0.00659303
0.00937295
-0.00589199
0.0102092
-0.00519882
0.0110018
-0.00452333
0.0117348
-0.00387655
0.0123968
-0.00328356
0.0129809
-0.00275433
0.0134847
-0.0022918
0.013913
-0.00189963
0.0142729
-0.00157148
0.0145738
-0.0013014
0.0148251
-0.00107879
0.0150355
-0.000895949
0.0152128
-0.000745113
0.0153634
-0.000621229
0.0154928
-0.000518458
0.0156055
-0.000437114
0.0157058
-0.000375743
0.0157976
-0.000338651
0.015885
-0.000328804
0.0159721
-0.000351101
0.0160634
-0.000403475
0.0161588
-0.000474688
0.0162536
-0.000518368
0.0163449
-0.000518719
0.0164298
-0.000485202
0.0165062
-0.000428205
0.0165733
-0.000359044
0.0166303
-0.000282699
0.0166773
-0.000204954
0.0167147
-0.000127798
0.0167434
-5.6457e-05
0.0167636
1.43332e-05
0.0167763
7.7955e-05
0.0167825
0.000136693
0.0167828
0.000190916
0.0167782
0.000239782
0.0167696
0.000283621
0.0167577
0.000322022
0.0167435
0.000354796
0.0167277
0.000384626
0.0167108
0.000409859
0.0166937
0.000428079
0.0166767
0.000445793
0.0166605
0.000455711
0.0166451
0.000465525
0.016631
0.000467986
0.0166182
0.00046996
0.0166066
0.000468649
0.0165963
0.000466253
0.016587
0.000457675
0.000440927
0.0165787
0.00112653
-0.0119151
-4.36356e-09
0.00222498
-0.0118347
0.00329243
-0.0114799
0.00433063
-0.0109524
0.00534259
-0.01033
0.0063322
-0.00966206
0.00730358
-0.00897142
0.00825995
-0.00826704
0.00920041
-0.0075335
0.0101241
-0.00681565
0.0110248
-0.00609951
0.0118916
-0.00539017
0.0127098
-0.00469475
0.0134668
-0.00404056
0.0141516
-0.00343909
0.0147562
-0.00289642
0.0152809
-0.00242432
0.015729
-0.00201966
0.0161081
-0.00168047
0.0164272
-0.00139782
0.0166955
-0.00116429
0.0169218
-0.000971453
0.017114
-0.00081342
0.0172787
-0.000683128
0.0174217
-0.000580136
0.0175481
-0.000502158
0.0176628
-0.000453356
0.0177705
-0.000436487
0.0178762
-0.000456746
0.0179845
-0.000511837
0.0180955
-0.00058569
0.0182042
-0.000627053
0.0183079
-0.000622375
0.018404
-0.000581321
0.0184905
-0.000514734
0.0185667
-0.000435198
0.0186317
-0.000347733
0.0186858
-0.000259046
0.0187294
-0.000171353
0.0187634
-9.04879e-05
0.0187883
-1.0559e-05
0.0188052
6.10082e-05
0.0188151
0.000126791
0.0188189
0.000187175
0.0188174
0.000241238
0.0188117
0.000289361
0.0188026
0.000331125
0.018791
0.000366351
0.0187776
0.000398038
0.018763
0.000424445
0.0187481
0.000443034
0.0187329
0.00046092
0.0187183
0.000470381
0.0187041
0.000479689
0.0186908
0.000481242
0.0186784
0.000482412
0.0186668
0.00048021
0.0186561
0.000477002
0.0186461
0.000467701
0.000450384
0.0186366
0.00124421
-0.0131593
-4.54866e-09
0.00245392
-0.0130444
0.00362568
-0.0126517
0.00476073
-0.0120874
0.00586164
-0.0114309
0.00693214
-0.0107326
0.00797661
-0.0100159
0.00899931
-0.00928974
0.0100016
-0.00853579
0.0109856
-0.00779965
0.0119492
-0.00706308
0.0128857
-0.00632673
0.0137831
-0.00559215
0.0146298
-0.00488722
0.0154137
-0.00422296
0.0161224
-0.00360516
0.0167514
-0.00305333
0.0172994
-0.0025676
0.0177702
-0.00215135
0.0181713
-0.00179887
0.0185114
-0.00150435
0.0187996
-0.00125971
0.0190449
-0.00105873
0.0192552
-0.000893371
0.0194374
-0.000762424
0.019598
-0.000662685
0.0197426
-0.000598016
0.019877
-0.00057081
0.0200067
-0.000586477
0.0201373
-0.000642411
0.0202682
-0.000716675
0.0203944
-0.000753168
0.0205135
-0.000741541
0.0206236
-0.000691347
0.0207226
-0.000613788
0.02081
-0.00052256
0.0208851
-0.000422866
0.0209481
-0.00032209
0.0209997
-0.000222886
0.0210408
-0.000131644
0.0210721
-4.17998e-05
0.0210947
3.83971e-05
0.0211097
0.000111814
0.021118
0.00017885
0.0211207
0.000238518
0.0211188
0.000291261
0.0211133
0.000336676
0.021105
0.000374621
0.0210946
0.000408436
0.0210827
0.000436303
0.0210702
0.000455609
0.021057
0.000474054
0.0210439
0.000483482
0.0210308
0.000492764
0.0210182
0.000493928
0.0210057
0.00049486
0.0209936
0.000492327
0.0209817
0.00048886
0.0209701
0.000479353
0.000461928
0.0209585
0.00137792
-0.0145372
-4.74093e-09
0.00271443
-0.0143809
0.0040056
-0.0139428
0.00525212
-0.0133339
0.00645614
-0.0126349
0.00762111
-0.0118975
0.00875142
-0.0111462
0.00985185
-0.0103902
0.0109252
-0.00960913
0.0119757
-0.00885013
0.0130044
-0.00809185
0.014009
-0.00733125
0.0149812
-0.00656439
0.0159119
-0.0058179
0.0167898
-0.00510093
0.0176016
-0.00441687
0.0183384
-0.0037902
0.0189943
-0.00322344
0.0195686
-0.00272567
0.0200654
-0.00229565
0.0204916
-0.00193054
0.0208558
-0.00162393
0.0211673
-0.00137021
0.0214348
-0.00116093
0.0216668
-0.000994369
0.0218705
-0.000866389
0.022053
-0.000780531
0.0222208
-0.000738625
0.0223806
-0.00074628
0.0225386
-0.000800397
0.0226938
-0.000871871
0.0228405
-0.000899913
0.0229778
-0.000878776
0.0231037
-0.000817298
0.023217
-0.000727099
0.023317
-0.000622548
0.0234035
-0.000509355
0.0234767
-0.000395233
0.0235371
-0.000283357
0.0235862
-0.000180751
0.0236246
-8.01207e-05
0.0236535
9.41762e-06
0.0236743
9.10621e-05
0.0236879
0.000165263
0.0236954
0.000230981
0.0236979
0.000288749
0.0236964
0.000338195
0.0236918
0.000379229
0.0236847
0.000415573
0.0236756
0.000445327
0.0236655
0.000465778
0.0236543
0.000485245
0.0236427
0.000495105
0.0236305
0.000504873
0.0236184
0.000506102
0.023606
0.000507251
0.0235935
0.0005048
0.0235809
0.000501427
0.0235683
0.000492039
0.000474775
0.0235554
0.00152938
-0.0160666
-4.93984e-09
0.00300982
-0.0158614
0.00443698
-0.01537
0.00581103
-0.014708
0.00713367
-0.0139575
0.00840804
-0.0131719
0.00963842
-0.0123766
0.0108298
-0.0115815
0.0119858
-0.0107652
0.0131121
-0.0099764
0.0142121
-0.00919187
0.0152868
-0.00840591
0.0163321
-0.00760972
0.0173426
-0.00682838
0.0183093
-0.00606767
0.0192195
-0.00532703
0.0200634
-0.00463414
0.020831
-0.00399101
0.0215171
-0.00341182
0.0221215
-0.0029001
0.022648
-0.00245698
0.0231031
-0.00207909
0.0234956
-0.00176269
0.0238345
-0.00149983
0.024129
-0.00128883
0.0243875
-0.00112488
0.0246183
-0.00101131
0.0248289
-0.000949225
0.025027
-0.000944473
0.0252199
-0.000993264
0.0254057
-0.00105764
0.0255782
-0.00107244
0.0257378
-0.00103841
0.0258835
-0.000962938
0.0260144
-0.000857971
0.02613
-0.00073823
0.0262306
-0.000609944
0.0263165
-0.000481151
0.0263885
-0.000355286
0.0264479
-0.000240218
0.0264956
-0.000127833
0.0265332
-2.81041e-05
0.0265617
6.25348e-05
0.0265824
0.000144591
0.0265964
0.000216986
0.0266048
0.000280359
0.0266086
0.000334396
0.0266087
0.000379073
0.0266058
0.000418509
0.0266004
0.000450722
0.0265933
0.000472906
0.0265845
0.000494007
0.0265747
0.000504919
0.0265637
0.000515805
0.0265521
0.000517726
0.0265397
0.000519694
0.0265266
0.000517896
0.0265129
0.000515131
0.0264986
0.000506333
0.000489621
0.0264837
0.0017005
-0.0177671
-5.14487e-09
0.00334387
-0.0175047
0.00492534
-0.0169515
0.00644458
-0.0162272
0.00790287
-0.0154158
0.00930306
-0.0145721
0.0106492
-0.0137227
0.0119464
-0.0128787
0.0131987
-0.0120175
0.0144127
-0.0111903
0.0155934
-0.0103726
0.0167442
-0.00955677
0.0178648
-0.00873033
0.0189535
-0.00791704
0.020005
-0.00711919
0.0210087
-0.00633068
0.0219555
-0.00558095
0.0228343
-0.00486981
0.0236363
-0.0042138
0.0243568
-0.00362068
0.0249956
-0.00309573
0.0255561
-0.00263957
0.0260449
-0.00225154
0.0264705
-0.0019254
0.0268421
-0.00166045
0.027169
-0.00145173
0.0274603
-0.00130268
0.0277249
-0.00121373
0.0279714
-0.00119101
0.0282081
-0.00122993
0.0284318
-0.00128141
0.028636
-0.00127662
0.0288227
-0.00122513
0.0289919
-0.00113214
0.0291436
-0.00100964
0.0292777
-0.000872372
0.0293948
-0.000727004
0.0294955
-0.000581818
0.0295807
-0.000440568
0.0296522
-0.000311633
0.0297106
-0.000186282
0.0297578
-7.53058e-05
0.0297951
2.52462e-05
0.0298237
0.000116
0.0298448
0.000195851
0.0298596
0.00026558
0.0298691
0.000324926
0.0298742
0.000373958
0.0298755
0.000417184
0.0298737
0.000452548
0.0298695
0.000477136
0.0298629
0.000500552
0.0298547
0.000513134
0.0298448
0.000525734
0.0298336
0.000528873
0.0298212
0.000532139
0.0298077
0.000531419
0.0297932
0.000529616
0.0297778
0.000521727
0.000505837
0.0297616
0.00189349
-0.0196606
-5.3554e-09
0.00372086
-0.0193321
0.00547693
-0.0187075
0.00716086
-0.0179112
0.00877358
-0.0170285
0.0103176
-0.0161161
0.0117969
-0.015202
0.0132163
-0.0142981
0.0145804
-0.0133817
0.0158962
-0.0125061
0.0171698
-0.0116461
0.0184064
-0.0107934
0.0196085
-0.00993241
0.0207777
-0.00908621
0.0219126
-0.00825407
0.0230061
-0.00742417
0.0240512
-0.00662612
0.0250376
-0.00585613
0.0259551
-0.0051314
0.0267961
-0.00446162
0.0275558
-0.00385545
0.0282339
-0.00331763
0.0288338
-0.00285148
0.029362
-0.00245359
0.0298269
-0.00212538
0.0302377
-0.00186256
0.0306044
-0.00166935
0.0309364
-0.00154571
0.0312437
-0.00149836
0.0315355
-0.00152172
0.031807
-0.0015529
0.0320506
-0.00152019
0.0322709
-0.00144544
0.032469
-0.00133028
0.0326463
-0.00118689
0.032803
-0.00102909
0.0329404
-0.00086439
0.0330592
-0.000700646
0.033161
-0.000542351
0.0332474
-0.000398014
0.0333195
-0.00025836
0.033379
-0.000134852
0.0334275
-2.32794e-05
0.0334663
7.72551e-05
0.0334966
0.000165523
0.0335196
0.000242551
0.0335365
0.000308098
0.0335481
0.000362352
0.033555
0.000410237
0.033558
0.000449605
0.0335577
0.000477426
0.0335543
0.000503969
0.0335484
0.000519005
0.0335401
0.000534067
0.0335298
0.00053913
0.0335176
0.000544343
0.0335037
0.000545296
0.0334884
0.000544982
0.0334716
0.000538471
0.0005238
0.0334536
0.00211083
-0.0217714
-5.57055e-09
0.00414564
-0.0213669
0.00609885
-0.0206608
0.00796911
-0.0197814
0.00975699
-0.0188164
0.0114648
-0.0178239
0.0130961
-0.0168334
0.014656
-0.015858
0.0161493
-0.014875
0.017583
-0.0139399
0.0189641
-0.0130273
0.0202991
-0.0121284
0.0215925
-0.0112258
0.0228486
-0.0103423
0.0240694
-0.00947488
0.0252517
-0.00860648
0.026392
-0.00776637
0.0274817
-0.00694584
0.0285116
-0.00616133
0.0294731
-0.00542304
0.0303581
-0.0047405
0.0311625
-0.00412204
0.031886
-0.00357495
0.0325318
-0.00309945
0.0331065
-0.00270005
0.0336182
-0.00237425
0.0340767