/*--------------------------------*- C++ -*----------------------------------*\
  =========                 |
  \\      /  F ield         | OpenFOAM: The Open Source CFD Toolbox
   \\    /   O peration     | Website:  https://openfoam.org
    \\  /    A nd           | Version:  8
     \\/     M anipulation  |
\*---------------------------------------------------------------------------*/
FoamFile
{
    version     2.0;
    format      ascii;
    class       surfaceScalarField;
    location    "0.21";
    object      phi;
}
// * * * * * * * * * * * * * * * * * * * * * * * * * * * * * * * * * * * * * //

dimensions      [0 3 -1 0 0 0 0];

internalField   nonuniform List<scalar> 
225079
(
-0.00359476
0.0263975
-0.00838835
0.0707969
-0.0119878
0.115203
-0.0167888
0.159603
-0.0215905
0.204004
-0.0251915
0.248403
-0.0287918
0.291602
-0.0323914
0.336001
-0.0359906
0.3792
-0.0395895
0.4248
-0.0419883
0.4668
-0.0455868
0.511199
-0.0491852
0.555599
-0.0527837
0.597599
-0.0539821
0.640799
-0.0575804
0.685199
-0.0611787
0.727199
-0.0635769
0.770399
-0.0659752
0.812399
-0.0671734
0.854399
-0.0707715
0.897598
-0.0719697
0.938398
-0.0743677
0.980398
-0.0755658
1.0224
-0.0779637
1.0632
-0.0791617
1.104
-0.0815596
1.146
-0.0827576
1.1844
-0.0839555
1.2252
-0.0863533
1.266
-0.0875513
1.3044
-0.0887491
1.344
-0.0899471
1.3824
-0.089945
1.4208
-0.0911429
1.4592
-0.0911409
1.4964
-0.0923389
1.5348
-0.0935367
1.572
-0.0935347
1.608
-0.0947327
1.644
-0.0947308
1.68
-0.0947288
1.716
-0.0947269
1.7496
-0.094725
1.7856
-0.0947231
1.8192
-0.0947212
1.8528
-0.0947193
1.8864
-0.0935175
1.9188
-0.0935158
1.9512
-0.093514
1.9836
-0.0923123
2.0136
-0.0923105
2.046
-0.0911088
2.0748
-0.0905071
2.10564
-0.0896656
2.13468
-0.0887039
2.16336
-0.0877423
2.19168
-0.0867808
2.2194
-0.0855793
2.24652
-0.0843777
2.27304
-0.0831763
2.2992
-0.0818548
2.32464
-0.0804134
2.34948
-0.0789721
2.37384
-0.0775306
2.3976
-0.0759693
2.42076
-0.0742879
2.4432
-0.0727266
2.46528
-0.0710453
2.48664
-0.0692441
2.50728
-0.0674428
2.52744
-0.0655217
2.54688
-0.0636006
2.56572
-0.0615594
2.58396
-0.0595182
2.6016
-0.0575972
2.61864
-0.0554362
2.63484
-0.0532751
2.65044
-0.0511141
2.66556
-0.0488333
2.67984
-0.0466723
2.69364
-0.0445114
2.7066
-0.0421105
2.71884
-0.0398297
2.73072
-0.037429
2.74164
-0.0350282
2.75196
-0.0326275
2.76168
-0.0302268
2.77068
-0.0278262
2.77896
-0.0253055
2.78652
-0.0227848
2.79348
-0.0202643
2.79972
-0.0177438
2.80536
-0.0151034
2.81004
-0.0127029
2.81436
-0.0101226
2.8178
-0.00756621
2.82058
-0.00499779
2.82266
-0.00242963
2.82404
0.000138751
2.82475
0.00270686
2.82475
0.0052752
2.82404
0.00784328
2.82266
0.0103994
2.82058
0.0129796
2.8178
0.0153796
2.81436
0.0180197
2.81004
0.0205396
2.80536
0.0230596
2.79972
0.0255794
2.79348
0.0280993
2.78652
0.0304991
2.77896
0.032899
2.77068
0.0352987
2.76168
0.0376984
2.75196
0.0400981
2.74164
0.0423778
2.73072
0.0447774
2.71884
0.0469369
2.7066
0.0490964
2.69364
0.051376
2.67984
0.0535354
2.66556
0.0556948
2.65044
0.0578541
2.63484
0.0597735
2.61864
0.0618126
2.6016
0.0638518
2.58396
0.065771
2.56572
0.0676902
2.54688
0.0694892
2.52744
0.0712884
2.50728
0.0729674
2.48664
0.0745263
2.46528
0.0762052
2.4432
0.0777642
2.42076
0.079203
2.3976
0.0806418
2.37384
0.0820807
2.34948
0.0833994
2.32464
0.0845983
2.2992
0.085797
2.27304
0.0869957
2.24652
0.0879544
2.2194
0.088913
2.19168
0.0898715
2.16336
0.0907102
2.13468
0.0913087
2.10564
0.0925071
2.0748
0.0925055
2.046
0.093704
2.0136
0.0937023
1.9836
0.0937007
1.9512
0.094899
1.9188
0.0948972
1.8864
0.0948954
1.8528
0.0948936
1.8192
0.0948917
1.7856
0.0948899
1.7496
0.094888
1.716
0.0948861
1.68
0.0936841
1.644
0.0936821
1.608
0.0924799
1.572
0.0912778
1.5348
0.0912758
1.4964
0.0900736
1.4592
0.0900715
1.4208
0.0888693
1.3824
0.087667
1.344
0.0864647
1.3044
0.0840621
1.266
0.0828597
1.2252
0.0816573
1.1844
0.0792547
1.146
0.0780521
1.104
0.0756495
1.0632
0.0744469
1.0224
0.0720442
0.980403
0.0708416
0.938403
0.0672388
0.897603
0.0660361
0.854403
0.0636334
0.812403
0.0612305
0.770403
0.0576276
0.727203
0.0540246
0.685203
0.0528217
0.640803
0.0492186
0.597603
0.0456152
0.555604
0.0420117
0.511204
0.0396083
0.466804
0.0360044
0.424804
0.0324004
0.379204
0.0287963
0.336004
0.025192
0.291605
0.0215872
0.248405
0.016781
0.204007
0.0119744
0.159607
0.00837336
0.115202
0.00358385
0.0707902
0.0263838
-0.00479673
0.0311974
-0.00958595
0.0755894
-0.0131846
0.118805
-0.017982
0.164403
-0.0215805
0.207604
-0.0239784
0.250802
-0.0287754
0.2964
-0.0323718
0.339598
-0.0359677
0.382797
-0.0395631
0.428396
-0.0431583
0.470396
-0.0467533
0.514795
-0.0479485
0.556795
-0.0515432
0.601194
-0.0551378
0.644394
-0.0575325
0.687594
-0.059927
0.729594
-0.0623215
0.772793
-0.064716
0.814793
-0.0683101
0.857993
-0.0695046
0.898793
-0.0730986
0.941993
-0.0742929
0.981593
-0.076687
1.02479
-0.0778813
1.06439
-0.0802752
1.10639
-0.0814692
1.14719
-0.0838632
1.18679
-0.0850572
1.22639
-0.0850513
1.26599
-0.0862454
1.30559
-0.0874393
1.34519
-0.0886332
1.38359
-0.0898272
1.42199
-0.0910212
1.46039
-0.0922152
1.49759
-0.0922094
1.53479
-0.0922035
1.57199
-0.0933976
1.60919
-0.0933919
1.64399
-0.0945859
1.68119
-0.0933804
1.71479
-0.0945746
1.75079
-0.094569
1.78559
-0.0945634
1.81919
-0.094558
1.85279
-0.0945525
1.88639
-0.0933474
1.91759
-0.0933419
1.95119
-0.0921368
1.98239
-0.0933313
2.01479
-0.0909266
2.04359
-0.0909215
2.07479
-0.0903165
2.10503
-0.0894716
2.13383
-0.0886267
2.16251
-0.0875419
2.19059
-0.0864574
2.21831
-0.0853727
2.24543
-0.0842882
2.27195
-0.0829637
2.29787
-0.0816394
2.32331
-0.080195
2.34803
-0.0788708
2.37251
-0.0773069
2.39604
-0.0757427
2.41919
-0.0741787
2.44163
-0.0724949
2.4636
-0.0706911
2.48484
-0.0688874
2.50548
-0.0670839
2.52564
-0.06516
2.54496
-0.0633567
2.56392
-0.0614334
2.58204
-0.0593901
2.59956
-0.0572268
2.61648
-0.0551837
2.6328
-0.0531406
2.6484
-0.0508577
2.66328
-0.0486949
2.67768
-0.0464121
2.69136
-0.0441297
2.70432
-0.041847
2.71656
-0.0394447
2.72832
-0.0371622
2.73936
-0.0347601
2.74956
-0.0323579
2.75928
-0.0298357
2.76816
-0.027434
2.77656
-0.0250319
2.78412
-0.0225103
2.79096
-0.0199886
2.7972
-0.0174673
2.80284
-0.0149458
2.80752
-0.0124243
2.81184
-0.00983087
2.81521
-0.00727385
2.81802
-0.00470485
2.82009
-0.00214807
2.82149
0.000420812
2.82218
0.00298946
2.82218
0.0055462
2.82149
0.00811473
2.8201
0.0106712
2.81802
0.0132633
2.81521
0.0157834
2.81184
0.0183034
2.80752
0.0208235
2.80284
0.0233433
2.7972
0.0258633
2.79096
0.0282626
2.78412
0.0306624
2.77656
0.0331816
2.76816
0.035581
2.75928
0.0379803
2.74956
0.0402592
2.73936
0.0426584
2.72832
0.0449371
2.71656
0.047216
2.70432
0.0494945
2.69136
0.0516531
2.67768
0.0539314
2.66328
0.0559697
2.6484
0.0580078
2.6328
0.0601657
2.61648
0.0622037
2.59956
0.0641216
2.58204
0.0659194
2.56392
0.0678366
2.54496
0.0696342
2.52564
0.0714316
2.50548
0.0732288
2.48484
0.0749061
2.4636
0.076463
2.44164
0.0780198
2.4192
0.0795768
2.39604
0.0808936
2.37252
0.08233
2.34805
0.0836466
2.32333
0.0849629
2.29789
0.0860392
2.27197
0.0871153
2.24545
0.0881915
2.21833
0.0892673
2.19061
0.0901031
2.16253
0.0909388
2.13385
0.0915343
2.10505
0.0915297
2.07481
0.0939256
2.04361
0.0927203
2.01481
0.0939156
1.98241
0.0939105
1.95121
0.0951057
1.91761
0.0951005
1.88641
0.0950952
1.85281
0.0950897
1.81921
0.0950843
1.78561
0.0938785
1.75081
0.095073
1.71481
0.093867
1.68121
0.0938611
1.64401
0.0926551
1.60921
0.092649
1.57201
0.0926429
1.53481
0.0914365
1.49761
0.0902301
1.46041
0.0890235
1.42201
0.0878167
1.38361
0.0866099
1.34521
0.0854032
1.30561
0.0853964
1.26601
0.0841893
1.22641
0.0817821
1.18681
0.0805749
1.14721
0.0781673
1.10641
0.07696
1.06441
0.0745525
1.02481
0.0733451
0.981611
0.0697371
0.942011
0.0685296
0.898811
0.0649216
0.858011
0.0625139
0.814811
0.0601059
0.772811
0.057698
0.729612
0.0552899
0.687612
0.0516816
0.644412
0.048073
0.601212
0.0468649
0.556812
0.0432561
0.514813
0.0396471
0.470413
0.0360377
0.428414
0.0324284
0.382814
0.0288188
0.339615
0.0240086
0.296415
0.0215989
0.250815
0.0179881
0.207618
0.0131777
0.164418
0.00957273
0.118808
0.0047813
0.0755828
0.031167
-0.00480142
0.0360021
-0.00838726
0.0791787
-0.0131794
0.1236
-0.0167736
0.168
-0.0203692
0.211202
-0.0251642
0.255599
-0.0287591
0.299996
-0.0323528
0.343193
-0.035946
0.386391
-0.0383386
0.43079
-0.0431303
0.475188
-0.0455222
0.517188
-0.0491136
0.560387
-0.0527046
0.604786
-0.0550958
0.646786
-0.0574869
0.689985
-0.0610775
0.733185
-0.0634683
0.775185
-0.0658589
0.817184
-0.0670498
0.859184
-0.0706399
0.902383
-0.0718305
0.943184
-0.0754205
0.985183
-0.0766109
1.02598
-0.0790009
1.06678
-0.0801912
1.10758
-0.0813812
1.14838
-0.0825715
1.18798
-0.0837616
1.22758
-0.0861513
1.26838
-0.0873412
1.30678
-0.0885311
1.34638
-0.0897211
1.38478
-0.0909112
1.42318
-0.0909013
1.46038
-0.0920913
1.49878
-0.0920816
1.53478
-0.0932715
1.57318
-0.0932618
1.60918
-0.0944521
1.64518
-0.0932428
1.67998
-0.0944331
1.71598
-0.0944236
1.75078
-0.0944138
1.78558
-0.0944049
1.81918
-0.0943955
1.85278
-0.0931867
1.88518
-0.0943772
1.91878
-0.0931685
1.94998
-0.0931597
1.98238
-0.0919511
2.01358
-0.0919421
2.04358
-0.0919337
2.07478
-0.0901255
2.10323
-0.0892769
2.13299
-0.088309
2.16155
-0.0873412
2.18963
-0.0863729
2.21735
-0.0851652
2.24423
-0.0839574
2.27075
-0.08263
2.29655
-0.0813028
2.32199
-0.0800955
2.34683
-0.0785281
2.37095
-0.0770812
2.39459
-0.0755143
2.41763
-0.0738279
2.43995
-0.072141
2.46191
-0.0704548
2.48315
-0.0687684
2.50379
-0.0668422
2.52371
-0.0650363
2.54315
-0.0629903
2.56187
-0.0610647
2.58011
-0.0591393
2.59763
-0.0570935
2.61443
-0.0549283
2.63063
-0.0527636
2.64623
-0.0505983
2.66111
-0.0484339
2.67551
-0.0461492
2.68907
-0.0438646
2.70203
-0.0415801
2.71427
-0.0392962
2.72603
-0.0368924
2.73695
-0.0344884
2.74715
-0.0320848
2.75687
-0.0296813
2.76575
-0.0271577
2.77403
-0.0246349
2.78159
-0.0222319
2.78856
-0.019709
2.79468
-0.0171863
2.80032
-0.0146637
2.805
-0.0121416
2.80932
-0.00955961
2.81263
-0.00700187
2.81546
-0.00443224
2.81753
-0.00186238
2.81892
0.000707048
2.81961
0.00327622
2.81961
0.00584495
2.81892
0.00841391
2.81753
0.0109708
2.81546
0.0135514
2.81263
0.0160719
2.80932
0.0185918
2.805
0.0211116
2.80032
0.0236313
2.79468
0.0260308
2.78856
0.0285506
2.7816
0.0310694
2.77404
0.0334684
2.76576
0.0358673
2.75688
0.0382657
2.74716
0.0406643
2.73696
0.0429428
2.72604
0.0452206
2.71428
0.0474984
2.70204
0.049776
2.68909
0.0519339
2.67552
0.0540907
2.66113
0.0562482
2.64625
0.0584052
2.63065
0.0604415
2.61445
0.0623582
2.59765
0.0642747
2.58013
0.0663106
2.56189
0.0681067
2.54317
0.0700224
2.52373
0.0716978
2.50381
0.0733735
2.48317
0.0750483
2.46193
0.0767236
2.43997
0.0782784
2.41765
0.0797131
2.39461
0.0812673
2.37097
0.0824616
2.34685
0.0837758
2.32201
0.0850898
2.29657
0.0862833
2.27077
0.087477
2.24425
0.0884298
2.21737
0.0893832
2.18965
0.0903363
2.16157
0.0911686
2.13301
0.0929614
2.10325
0.0929539
2.07481
0.0929456
2.04361
0.0941377
2.01362
0.0941294
1.98242
0.0953214
1.95002
0.0941122
1.91882
0.0953038
1.88522
0.0952946
1.85282
0.095286
1.81922
0.0952762
1.78562
0.0952667
1.75082
0.0940569
1.71602
0.0952475
1.68002
0.0940375
1.64522
0.0940274
1.60922
0.0928167
1.57322
0.0928065
1.53482
0.0915957
1.49882
0.0915849
1.46042
0.090374
1.42322
0.0891628
1.38482
0.0879513
1.34642
0.0867397
1.30682
0.0843276
1.26842
0.0831159
1.22762
0.0819041
1.18802
0.0806919
1.14842
0.0794799
1.10762
0.0770672
1.06682
0.0758549
1.02602
0.0722418
0.985224
0.0710295
0.943224
0.0674161
0.902425
0.0662038
0.859224
0.0637907
0.817224
0.0613777
0.775225
0.0577641
0.733225
0.0553509
0.690025
0.0529376
0.646825
0.0493235
0.604827
0.0457096
0.560426
0.0432957
0.517227
0.0384807
0.475228
0.0360664
0.430829
0.0324517
0.386429
0.0288367
0.34323
0.0252216
0.300031
0.020406
0.255631
0.0167905
0.211234
0.0131777
0.168032
0.00837057
0.123615
0.00478501
0.0791691
0.0359513
-0.00360039
0.0396056
-0.00839106
0.0839727
-0.0131772
0.128389
-0.0167674
0.171592
-0.0215583
0.215994
-0.0251504
0.259192
-0.0287423
0.303589
-0.0323333
0.346785
-0.0359236
0.389983
-0.039513
0.43438
-0.0419022
0.477578
-0.0454905
0.520777
-0.0490785
0.563975
-0.0514664
0.607174
-0.0550537
0.650374
-0.0574411
0.692373
-0.0598284
0.735572
-0.0622155
0.777572
-0.065802
0.820771
-0.0681887
0.861571
-0.0693758
0.903571
-0.0717621
0.94557
-0.0741483
0.987569
-0.0753348
1.02717
-0.0777209
1.06917
-0.0789073
1.10877
-0.0812932
1.15077
-0.0824793
1.18917
-0.084865
1.22997
-0.086051
1.26957
-0.0872371
1.30797
-0.0872232
1.34637
-0.0884094
1.38597
-0.0895951
1.42437
-0.090781
1.46157
-0.0907673
1.49877
-0.0931528
1.53717
-0.0931391
1.57317
-0.0931255
1.60917
-0.093112
1.64517
-0.094298
1.68117
-0.0942848
1.71597
-0.0942717
1.75077
-0.0942583
1.78557
-0.094245
1.81917
-0.0942321
1.85277
-0.0942189
1.88517
-0.0930066
1.91757
-0.092994
1.94997
-0.092981
1.98237
-0.0917693
2.01237
-0.091757
2.04357
-0.0905447
2.07357
-0.0899327
2.10261
-0.0890813
2.13213
-0.0881097
2.16057
-0.0872582
2.18877
-0.0860472
2.21614
-0.084956
2.24314
-0.0837453
2.26954
-0.0825343
2.29534
-0.0812035
2.32066
-0.0797533
2.34538
-0.0783037
2.3695
-0.0768533
2.39314
-0.0751636
2.41594
-0.073714
2.4385
-0.0720251
2.46022
-0.0702153
2.48134
-0.0684062
2.50198
-0.0665978
2.5219
-0.0647895
2.54134
-0.0628609
2.55994
-0.060813
2.57806
-0.0587648
2.59558
-0.0567176
2.61238
-0.0546697
2.62858
-0.0525025
2.64406
-0.0504559
2.65906
-0.0481686
2.67323
-0.0458819
2.68679
-0.0435959
2.69975
-0.04143
2.71211
-0.0390239
2.72363
-0.036618
2.73455
-0.0342128
2.74475
-0.0318077
2.75447
-0.0294028
2.76335
-0.0268781
2.77151
-0.0244736
2.77919
-0.0219493
2.78603
-0.0194252
2.79215
-0.0169013
2.79779
-0.0143781
2.80247
-0.0117346
2.80667
-0.00927184
2.81017
-0.00670074
2.81289
-0.00414243
2.81497
-0.00157228
2.81635
0.000997727
2.81704
0.00356743
2.81705
0.00613698
2.81635
0.00869436
2.81497
0.011263
2.81289
0.0137239
2.81017
0.016364
2.80668
0.0188846
2.80248
0.0214043
2.7978
0.0239237
2.79216
0.0264431
2.78604
0.0288422
2.7792
0.031361
2.77152
0.0337597
2.76336
0.0361581
2.75448
0.0385564
2.74477
0.0409538
2.73457
0.0433511
2.72365
0.0455086
2.71213
0.047786
2.69977
0.0500625
2.68681
0.0523383
2.67325
0.054375
2.65909
0.0565309
2.64409
0.058566
2.62861
0.060602
2.61241
0.0626367
2.59561
0.0646717
2.57809
0.066586
2.55997
0.0683805
2.54137
0.0701748
2.52193
0.0719684
2.50202
0.0737612
2.48138
0.0754348
2.46026
0.0768677
2.43854
0.0785403
2.41598
0.0799722
2.39318
0.0814049
2.36954
0.0828369
2.34542
0.0841481
2.3207
0.0853391
2.29538
0.0865303
2.26958
0.0876008
2.24318
0.0887916
2.21618
0.0896217
2.18882
0.0905715
2.16062
0.0914015
2.13218
0.0919908
2.10266
0.0931796
2.07363
0.0931683
2.04363
0.0943576
2.01243
0.0943454
1.98243
0.0943335
1.95003
0.0955218
1.91763
0.095509
1.88523
0.0954965
1.85283
0.0954834
1.81923
0.09547
1.78563
0.0954569
1.75083
0.0954436
1.71603
0.0942292
1.68123
0.0942152
1.64523
0.094201
1.60923
0.0941866
1.57323
0.0917709
1.53724
0.0917562
1.49884
0.0905407
1.46164
0.0893248
1.42444
0.0881093
1.38604
0.0880935
1.34644
0.0868774
1.30804
0.0856611
1.26964
0.0832441
1.23004
0.0820273
1.18924
0.07961
1.15084
0.0783932
1.10884
0.0759758
1.06924
0.0747586
1.02724
0.0723407
0.987642
0.0699228
0.945642
0.0687057
0.903642
0.0662878
0.861642
0.0626693
0.820843
0.0602512
0.777643
0.0578331
0.735644
0.0554148
0.692444
0.0517959
0.650445
0.0493773
0.607246
0.0457581
0.564046
0.0421389
0.520847
0.03972
0.477648
0.0361005
0.434449
0.0324811
0.390049
0.0288615
0.34685
0.0252418
0.303651
0.0216226
0.259251
0.0168026
0.216055
0.0131879
0.171647
0.00837845
0.128426
0.00359157
0.0839569
0.0395452
-0.00479466
0.0444036
-0.00958948
0.0887709
-0.0131734
0.131976
-0.0167607
0.175182
-0.0203481
0.219584
-0.0251365
0.263982
-0.0287254
0.30718
-0.0323138
0.350375
-0.0359014
0.393571
-0.039488
0.437968
-0.0430739
0.481165
-0.0466591
0.524363
-0.0490442
0.566361
-0.0526283
0.610759
-0.0550125
0.652759
-0.058596
0.695957
-0.0609796
0.737956
-0.0633631
0.779956
-0.0645467
0.821955
-0.068129
0.865154
-0.0705116
0.905954
-0.0728942
0.947953
-0.074077
0.988752
-0.0764592
1.02955
-0.0776419
1.07035
-0.0800239
1.11115
-0.081206
1.15195
-0.0823883
1.19035
-0.0835702
1.23115
-0.0847519
1.27075
-0.0859339
1.30915
-0.0883155
1.34875
-0.0894971
1.38715
-0.0894794
1.42435
-0.0906612
1.46275
-0.091843
1.49995
-0.0918253
1.53715
-0.0918081
1.57315
-0.0929899
1.61035
-0.0929724
1.64515
-0.0929548
1.68115
-0.0941368
1.71715
-0.0941195
1.75075
-0.0941024
1.78555
-0.0940852
1.81915
-0.092869
1.85155
-0.0928523
1.88515
-0.0940353
1.91875
-0.092819
1.94876
-0.0916031
1.98116
-0.0915865
2.01236
-0.0903709
2.04236
-0.0903554
2.07356
-0.0897398
2.102
-0.0888845
2.13128
-0.0880293
2.15972
-0.0869343
2.18768
-0.08584
2.21504
-0.0847453
2.24204
-0.0835314
2.26832
-0.0823171
2.29412
-0.0809835
2.31932
-0.0795302
2.34392
-0.0781964
2.36816
-0.0766235
2.39157
-0.0750508
2.41437
-0.0733583
2.43681
-0.071666
2.45853
-0.0699745
2.47965
-0.0682825
2.50029
-0.0664709
2.52009
-0.0644201
2.53929
-0.0626095
2.55813
-0.0606778
2.57613
-0.0586284
2.59353
-0.0565777
2.61033
-0.0544087
2.62641
-0.0522386
2.64189
-0.0500694
2.6569
-0.0479004
2.67106
-0.0456123
2.6845
-0.0433238
2.69746
-0.0410355
2.70982
-0.0386274
2.72122
-0.0363403
2.73226
-0.0339335
2.74234
-0.0315261
2.75206
-0.0289997
2.76082
-0.0267136
2.76922
-0.0240677
2.77654
-0.0216621
2.78363
-0.0191374
2.78963
-0.0166122
2.79527
-0.0140882
2.79995
-0.0115635
2.80415
-0.00896794
2.80757
-0.0064206
2.81034
-0.00384878
2.8124
-0.00127797
2.81378
0.00129263
2.81447
0.00386288
2.81448
0.00643293
2.81378
0.00900194
2.8124
0.0115474
2.81035
0.0141407
2.80758
0.0166609
2.80416
0.0191816
2.79996
0.0217012
2.79528
0.0242213
2.78964
0.0266204
2.78364
0.0292592
2.77656
0.0315377
2.76925
0.034056
2.76085
0.0364531
2.75209
0.0388509
2.74237
0.0411282
2.73229
0.0435246
2.72125
0.0458006
2.70985
0.0480764
2.69749
0.0503527
2.68453
0.0525078
2.67109
0.0546628
2.65694
0.0568167
2.64194
0.0589718
2.62646
0.0610051
2.61038
0.0630396
2.59358
0.0649517
2.57618
0.0667448
2.55818
0.0687778
2.53934
0.0705697
2.52014
0.0722412
2.50034
0.0739131
2.47971
0.0755841
2.45859
0.0772548
2.43687
0.0788052
2.41443
0.0803553
2.39163
0.0816643
2.36823
0.0830939
2.34399
0.084403
2.31939
0.0855912
2.29419
0.0867797
2.26839
0.0878473
2.24211
0.0889152
2.21511
0.0899823
2.18776
0.090809
2.1598
0.0916354
2.13136
0.0922214
2.10208
0.0922074
2.07364
0.0933931
2.04244
0.0933775
2.01244
0.0945627
1.98124
0.0957472
1.94884
0.0945308
1.91884
0.0945147
1.88525
0.095699
1.85165
0.0956819
1.81925
0.095665
1.78565
0.0956474
1.75085
0.094429
1.71725
0.0944109
1.68125
0.0943927
1.64525
0.0931736
1.61045
0.0931554
1.57325
0.0931365
1.53725
0.0919167
1.50006
0.0906966
1.46286
0.0906771
1.42446
0.0894563
1.38726
0.0870353
1.34886
0.0858145
1.30926
0.0845931
1.27086
0.0833715
1.23126
0.0821504
1.19046
0.0809285
1.15206
0.0785063
1.11126
0.0772847
1.07046
0.0748622
1.02966
0.0736401
0.988865
0.0712174
0.948065
0.0687944
0.906065
0.0651705
0.865266
0.0639483
0.822066
0.0615254
0.780066
0.0591022
0.738067
0.0554783
0.696068
0.0530549
0.652868
0.0494306
0.61087
0.0470072
0.566469
0.043383
0.524471
0.0397588
0.481272
0.0361346
0.438073
0.0325107
0.393673
0.0288869
0.350474
0.0252628
0.307275
0.0204391
0.264075
0.0168168
0.219677
0.0132001
0.175264
0.0095896
0.132037
0.0047988
0.0887484
0.0443428
-0.00479115
0.0491979
-0.00838593
0.092369
-0.0131698
0.136763
-0.0179544
0.179969
-0.0215386
0.22317
-0.0251244
0.26757
-0.0287103
0.310767
-0.0322959
0.353962
-0.0370802
0.398357
-0.0394648
0.440353
-0.0430478
0.484749
-0.0454305
0.526746
-0.0490119
0.569943
-0.0513934
0.613141
-0.0549735
0.656339
-0.0573539
0.698338
-0.0597339
0.740337
-0.0633128
0.783535
-0.0656921
0.824335
-0.0668719
0.866334
-0.0692508
0.908333
-0.0716293
0.950332
-0.0740077
0.991131
-0.0763857
1.03193
-0.0775642
1.07153
-0.079942
1.11353
-0.0811201
1.15313
-0.0834976
1.19273
-0.0846757
1.23233
-0.0858537
1.27193
-0.0870316
1.31033
-0.088209
1.34993
-0.0881874
1.38713
-0.089365
1.42553
-0.0905426
1.46393
-0.0917202
1.50113
-0.0916985
1.53713
-0.0928762
1.57433
-0.0928545
1.61033
-0.0940322
1.64633
-0.0940111
1.68113
-0.0939895
1.71713
-0.0939685
1.75073
-0.093947
1.78553
-0.0939263
1.81913
-0.0939052
1.85153
-0.0938846
1.88513
-0.0926642
1.91753
-0.0926439
1.94874
-0.0926237
1.98114
-0.0914043
2.01114
-0.0913844
2.04234
-0.0901646
2.07234
-0.0895459
2.10138
-0.0886869
2.13042
-0.0877081
2.15874
-0.0867301
2.1867
-0.085751
2.21406
-0.0845335
2.24082
-0.0833156
2.2671
-0.0820991
2.29291
-0.0807616
2.31799
-0.079425
2.34259
-0.077848
2.36659
-0.0762727
2.38999
-0.0748168
2.41291
-0.0732405
2.43523
-0.0715452
2.45683
-0.0698501
2.47795
-0.0679161
2.49835
-0.0661024
2.51828
-0.0642874
2.53748
-0.0623542
2.5562
-0.0603013
2.57408
-0.0582479
2.59148
-0.0561955
2.60828
-0.0541435
2.62436
-0.0520916
2.63984
-0.0498002
2.6546
-0.0475098
2.66877
-0.045338
2.68233
-0.0431674
2.69529
-0.0407579
2.70741
-0.0384687
2.71893
-0.0359399
2.72973
-0.0336505
2.74005
-0.0312422
2.74965
-0.0288343
2.75842
-0.0263066
2.7667
-0.0238993
2.77414
-0.0212523
2.78098
-0.0188456
2.78722
-0.0163201
2.79274
-0.0137932
2.79742
-0.0112693
2.80162
-0.00868294
2.80498
-0.00611081
2.80777
-0.00355092
2.80984
-0.000979442
2.81121
0.00159179
2.8119
0.0041626
2.8119
0.00673316
2.81121
0.00929131
2.80984
0.0118612
2.80778
0.0144409
2.805
0.0169629
2.80164
0.0194819
2.79744
0.0220024
2.79276
0.0244016
2.78724
0.0270405
2.781
0.029439
2.77417
0.0319572
2.76673
0.034355
2.75845
0.0367523
2.74969
0.0390285
2.74009
0.0415453
2.72977
0.0438217
2.71897
0.0462177
2.70746
0.0483724
2.69534
0.0505258
2.68238
0.0528008
2.66882
0.0550745
2.65466
0.0571078
2.6399
0.0591408
2.62442
0.0611733
2.60835
0.0632047
2.59155
0.0652366
2.57415
0.0671481
2.55627
0.0689375
2.53755
0.0707282
2.51835
0.0726386
2.49843
0.0743078
2.47804
0.0759765
2.45692
0.077524
2.43532
0.078952
2.413
0.0805005
2.39008
0.0820469
2.36668
0.0833538
2.34268
0.0846595
2.31809
0.0858464
2.29301
0.0870314
2.26721
0.0882167
2.24093
0.0891601
2.21417
0.0901047
2.18681
0.0910482
2.15885
0.0918712
2.13054
0.0924546
2.1015
0.0936365
2.07246
0.0936181
2.04246
0.0948001
2.01126
0.0947811
1.98126
0.0947617
1.94886
0.0959421
1.91766
0.0959222
1.88527
0.0959014
1.85167
0.0958808
1.81927
0.0958592
1.78567
0.0958381
1.75087
0.095816
1.71727
0.0957943
1.68127
0.0945709
1.64648
0.0945481
1.61048
0.0933242
1.57448
0.0933009
1.53728
0.0920764
1.50128
0.0908516
1.46408
0.0896267
1.42568
0.0896025
1.38728
0.0883766
1.35009
0.0871511
1.31049
0.0859253
1.27209
0.0846994
1.23249
0.0822724
1.19289
0.0810457
1.15329
0.0786184
1.11369
0.0773916
1.07169
0.0749638
1.03209
0.0725361
0.991293
0.070108
0.950493
0.0676802
0.908493
0.0664533
0.866493
0.0640252
0.824494
0.0603959
0.783696
0.0579676
0.740496
0.0555393
0.698497
0.0519099
0.656498
0.0494817
0.613298
0.0458524
0.570099
0.0434243
0.5269
0.0397953
0.484901
0.0373675
0.440501
0.032538
0.398503
0.0289098
0.354102
0.0252815
0.310904
0.0216548
0.267702
0.01803
0.223303
0.01321
0.180085
0.00839749
0.13685
0.00480202
0.0923446
0.0491474
-0.00359168
0.0527929
-0.00838312
0.0971639
-0.0119684
0.140351
-0.0167512
0.184754
-0.0215321
0.227952
-0.0251146
0.271154
-0.0286974
0.314351
-0.0322801
0.357546
-0.0358621
0.40194
-0.0394434
0.443935
-0.0418241
0.48713
-0.0454032
0.530326
-0.0489815
0.573522
-0.0525588
0.616719
-0.0549362
0.658717
-0.0573132
0.700716
-0.0608887
0.743913
-0.0620654
0.784712
-0.0656403
0.82791
-0.0680154
0.86871
-0.0703902
0.910708
-0.0715657
0.951507
-0.0739398
0.993505
-0.0751148
1.03311
-0.0786879
1.0751
-0.078663
1.1135
-0.0810364
1.1555
-0.0822103
1.1939
-0.0833843
1.2335
-0.0845581
1.2731
-0.0869306
1.3127
-0.086905
1.3499
-0.0892777
1.3895
-0.0904511
1.4267
-0.0904253
1.4639
-0.0903994
1.5011
-0.0915728
1.5383
-0.0927461
1.5755
-0.0927203
1.6103
-0.092695
1.6463
-0.0938685
1.6823
-0.0926436
1.71591
-0.0938172
1.75191
-0.0937921
1.78551
-0.0925675
1.81791
-0.093742
1.85271
-0.0937168
1.88511
-0.0924931
1.91631
-0.0924688
1.94871
-0.0924446
1.98111
-0.0924206
2.01111
-0.0911975
2.04111
-0.0899745
2.07111
-0.0893514
2.10076
-0.0883687
2.12944
-0.0875061
2.15788
-0.0865238
2.18572
-0.0854224
2.21296
-0.0843214
2.23972
-0.0830998
2.26588
-0.0818785
2.29169
-0.0805382
2.31665
-0.0790775
2.34113
-0.0776187
2.36513
-0.0761585
2.38853
-0.0745795
2.41133
-0.0728817
2.43353
-0.0713032
2.45525
-0.0694852
2.47614
-0.0677873
2.49666
-0.06585
2.51634
-0.0640337
2.53566
-0.061977
2.55414
-0.0600414
2.57214
-0.0581062
2.58954
-0.0559313
2.60611
-0.0538758
2.62231
-0.0517016
2.63767
-0.0495278
2.65243
-0.0473543
2.66659
-0.0451821
2.68015
-0.0427693
2.69288
-0.040478
2.70512
-0.0380659
2.71652
-0.0357742
2.72744
-0.0333639
2.73764
-0.0309539
2.74724
-0.0285444
2.75601
-0.0260141
2.76417
-0.0236064
2.77173
-0.0210779
2.77845
-0.0185499
2.78469
-0.0160222
2.79021
-0.0134959
2.7949
-0.0108491
2.79898
-0.00838355
2.80252
-0.00582145
2.80521
-0.0032488
2.80726
-0.000676628
2.80863
0.00189525
2.80933
0.00446665
2.80933
0.00703774
2.80864
0.00960836
2.80727
0.0121655
2.80522
0.0146272
2.80254
0.0172676
2.799
0.0197885
2.79492
0.022308
2.79024
0.024827
2.78472
0.0273456
2.77849
0.0297449
2.77177
0.0322616
2.76421
0.0346589
2.75605
0.0370558
2.74729
0.0394523
2.7377
0.0417272
2.7275
0.0441218
2.71658
0.046397
2.70518
0.0487907
2.69294
0.0509449
2.68023
0.0530977
2.66667
0.0552501
2.65251
0.057402
2.63775
0.0594325
2.62239
0.0615836
2.6062
0.0634942
2.58964
0.0654043
2.57224
0.0674331
2.55424
0.0692223
2.53576
0.0711302
2.51645
0.0727975
2.49677
0.0745845
2.47625
0.0761308
2.45537
0.0777978
2.43365
0.0793434
2.41146
0.0807675
2.38866
0.0821931
2.36526
0.0836164
2.34126
0.08492
2.31678
0.0861024
2.29182
0.0872842
2.26603
0.0883466
2.23987
0.0894085
2.21311
0.0903491
2.18587
0.091169
2.15803
0.0921088
2.1296
0.0926879
2.10092
0.093867
2.07128
0.0950458
2.04128
0.0950233
2.01128
0.0950004
1.98129
0.0949772
1.94889
0.0961545
1.91649
0.0961297
1.88529
0.0949045
1.85289
0.0960801
1.81809
0.096055
1.7857
0.0948279
1.7521
0.0960024
1.7161
0.0947748
1.6825
0.0947484
1.6465
0.0947211
1.6105
0.0934924
1.57571
0.0922635
1.53851
0.0922354
1.50131
0.0922069
1.46411
0.0909772
1.42691
0.0885462
1.38971
0.088517
1.35011
0.086085
1.31292
0.0848543
1.27332
0.0836235
1.23372
0.0823922
1.19412
0.0799598
1.15572
0.0799293
1.11372
0.0762957
1.07532
0.0750642
1.03332
0.072631
0.993726
0.0713994
0.951725
0.0689662
0.910927
0.0665329
0.868927
0.0628987
0.828129
0.0616665
0.784928
0.0580319
0.74413
0.0555988
0.70093
0.0531653
0.658931
0.0495308
0.616933
0.0458967
0.573733
0.0422626
0.530534
0.0398299
0.487334
0.0361966
0.444134
0.0325634
0.402136
0.0289308
0.357735
0.0252983
0.314537
0.0216678
0.271333
0.0168395
0.228131
0.012017
0.184908
0.00840368
0.140463
0.00360269
0.0971462
0.0527485
-0.00479127
0.0575874
-0.00958064
0.101957
-0.0131662
0.143939
-0.0167484
0.188338
-0.020328
0.231534
-0.0239076
0.274735
-0.0286862
0.319131
-0.0322658
0.361127
-0.0358449
0.40552
-0.0394232
0.447514
-0.0430005
0.490708
-0.0465765
0.533903
-0.0489524
0.575899
-0.0513273
0.619095
-0.0549005
0.662291
-0.0572739
0.70309
-0.0596468
0.746286
-0.0632183
0.788284
-0.064391
0.829083
-0.0679613
0.87228
-0.0691333
0.91188
-0.0727025
0.955077
-0.0738742
0.994677
-0.076244
1.03548
-0.0774144
1.07627
-0.079784
1.11587
-0.0809542
1.15667
-0.0821243
1.19507
-0.0844928
1.23587
-0.0856625
1.27427
-0.0856329
1.31267
-0.0880013
1.35227
-0.087971
1.38947
-0.0891401
1.42787
-0.0903092
1.46507
-0.0914788
1.50227
-0.0914482
1.53827
-0.0914181
1.57547
-0.0925877
1.61147
-0.0937561
1.64747
-0.0925277
1.68108
-0.0936968
1.71708
-0.0936675
1.75188
-0.0936377
1.78548
-0.0936088
1.81788
-0.0935792
1.85268
-0.0923513
1.88388
-0.0935211
1.91748
-0.0922936
1.94748
-0.0910662
1.97988
-0.0910381
2.01108
-0.0910094
2.04109
-0.0897834
2.06989
-0.0891555
2.10013
-0.0882897
2.12857
-0.0874231
2.15701
-0.0863171
2.18461
-0.085332
2.21198
-0.0841065
2.2385
-0.0830011
2.26478
-0.0815372
2.29022
-0.0801935
2.3153
-0.0788501
2.33978
-0.077506
2.36379
-0.0759233
2.38695
-0.074341
2.40975
-0.072759
2.43195
-0.0709374
2.45343
-0.0692372
2.47444
-0.0674163
2.49484
-0.0655958
2.51452
-0.0636568
2.53372
-0.061837
2.55232
-0.0598987
2.57021
-0.0577198
2.58737
-0.0557823
2.60417
-0.0536052
2.62013
-0.0514285
2.63549
-0.0492534
2.65026
-0.0470764
2.66442
-0.0447821
2.67786
-0.0424871
2.69058
-0.0401925
2.70282
-0.0378995
2.71423
-0.0354857
2.72503
-0.0330736
2.73523
-0.0306619
2.74483
-0.0281294
2.75347
-0.0257197
2.76176
-0.0231882
2.7692
-0.0207782
2.77604
-0.01825
2.78216
-0.0157209
2.78769
-0.0131936
2.79237
-0.0106655
2.79645
-0.00806709
2.79992
-0.00550514
2.80265
-0.0029424
2.8047
-0.000369477
2.80606
0.00220306
2.80676
0.00477507
2.80676
0.0073467
2.80607
0.00990448
2.80471
0.0124631
2.80266
0.0150571
2.79994
0.0175775
2.79648
0.0200986
2.7924
0.022618
2.78772
0.0251381
2.7822
0.0275364
2.77609
0.0300531
2.76925
0.0324516
2.76181
0.0349672
2.75354
0.0373635
2.7449
0.0397594
2.7353
0.0421534
2.7251
0.0444282
2.7143
0.0467013
2.70291
0.0489738
2.69067
0.0512471
2.67795
0.0533974
2.66452
0.0555497
2.65036
0.0577002
2.6356
0.0598502
2.62024
0.0617596
2.60429
0.0639074
2.58749
0.0658158
2.57033
0.0676024
2.55246
0.0695098
2.53386
0.0712954
2.51466
0.0730805
2.49498
0.0747463
2.47458
0.0765304
2.45359
0.0780739
2.43211
0.0796169
2.40991
0.0811593
2.38711
0.0824601
2.36396
0.0837614
2.33996
0.0850622
2.31548
0.0864827
2.2904
0.0875412
2.26497
0.0887195
2.23869
0.0896582
2.21217
0.0907154
2.18481
0.0915319
2.15722
0.0923491
2.12878
0.0929235
2.10034
0.0941
2.0701
0.0940731
2.04131
0.0940467
2.01131
0.0952208
1.98011
0.0963947
1.94771
0.095165
1.91772
0.096338
1.88412
0.0963086
1.85292
0.0962797
1.81812
0.0962495
1.78573
0.0962198
1.75213
0.0949877
1.71733
0.0961585
1.68133
0.0949249
1.64774
0.0936925
1.61174
0.0936602
1.57574
0.093627
1.53854
0.0923937
1.50254
0.0911593
1.46535
0.0899246
1.42815
0.0898903
1.38975
0.0874539
1.35255
0.0874198
1.31295
0.0861842
1.27455
0.0837466
1.23616
0.0825108
1.19536
0.0812746
1.15696
0.0788372
1.11616
0.0776004
1.07656
0.0751622
1.03576
0.0739261
0.994962
0.0702859
0.955366
0.0690493
0.912163
0.0654095
0.872567
0.0641724
0.829366
0.0605329