/*--------------------------------*- C++ -*----------------------------------*\
  =========                 |
  \\      /  F ield         | OpenFOAM: The Open Source CFD Toolbox
   \\    /   O peration     | Website:  https://openfoam.org
    \\  /    A nd           | Version:  8
     \\/     M anipulation  |
\*---------------------------------------------------------------------------*/
FoamFile
{
    version     2.0;
    format      ascii;
    class       volVectorField;
    location    "0.21";
    object      U;
}
// * * * * * * * * * * * * * * * * * * * * * * * * * * * * * * * * * * * * * //

dimensions      [0 1 -1 0 0 0 0];

internalField   nonuniform List<vector> 
112642
(
(14.9997 2.63182e-06 -7.83396e-21)
(14.9994 1.19405e-05 -2.73098e-20)
(14.9994 1.39553e-05 -7.33645e-20)
(14.9994 2.85974e-05 1.30988e-20)
(14.9994 4.23331e-05 1.48892e-19)
(14.9993 5.81469e-05 -1.07181e-19)
(14.9993 7.19025e-05 -3.08258e-21)
(14.9993 8.60414e-05 2.50898e-20)
(14.9993 9.9275e-05 6.499e-20)
(14.9993 0.000113123 -8.93901e-20)
(14.9993 0.000125792 -2.04681e-21)
(14.9993 0.000138736 1.18023e-19)
(14.9993 0.000152377 6.89886e-20)
(14.9993 0.000165433 6.6002e-20)
(14.9993 0.000179252 5.41904e-20)
(14.9993 0.000192334 8.40755e-20)
(14.9992 0.000205844 -5.87206e-20)
(14.9992 0.000220256 9.7559e-20)
(14.9992 0.000233711 -6.85501e-20)
(14.9992 0.000247364 -9.70026e-20)
(14.9992 0.000260938 -1.66972e-19)
(14.9992 0.000275229 -6.83858e-20)
(14.9992 0.000288579 -6.81566e-20)
(14.9992 0.000302721 -3.78822e-20)
(14.9992 0.000316123 3.1457e-20)
(14.9992 0.000330447 6.75412e-20)
(14.9992 0.000344096 -1.03331e-19)
(14.9992 0.000357635 1.34723e-19)
(14.9992 0.000371555 -9.08649e-22)
(14.9992 0.000385295 6.70207e-20)
(14.9992 0.000399293 6.49594e-20)
(14.9992 0.000412649 7.83062e-22)
(14.9992 0.000426206 6.41072e-20)
(14.9993 0.000439907 6.50595e-20)
(14.9993 0.000452732 -6.45045e-20)
(14.9993 0.000466298 7.12919e-22)
(14.9993 0.000479352 -9.76033e-20)
(14.9993 0.00049251 6.20214e-20)
(14.9993 0.0005062 -2.64937e-20)
(14.9993 0.000518809 1.22188e-19)
(14.9993 0.000532081 -1.20813e-19)
(14.9993 0.000544762 9.56568e-20)
(14.9993 0.000557083 2.27304e-20)
(14.9993 0.000569619 -5.59897e-22)
(14.9993 0.000582224 5.77114e-20)
(14.9993 0.000594228 1.91706e-20)
(14.9993 0.000606879 5.56256e-20)
(14.9993 0.00061901 -9.20713e-20)
(14.9993 0.000630408 -5.4564e-20)
(14.9993 0.000642408 1.2902e-19)
(14.9994 0.000653725 3.83355e-20)
(14.9994 0.000665343 1.03001e-19)
(14.9994 0.000676415 1.01326e-19)
(14.9994 0.000687945 -3.85679e-20)
(14.9994 0.000698763 -3.91928e-20)
(14.9994 0.000709383 -4.79587e-20)
(14.9994 0.000719977 -9.41246e-20)
(14.9994 0.000730673 3.93643e-20)
(14.9994 0.000740599 4.55726e-20)
(14.9994 0.000750992 -4.46143e-20)
(14.9995 0.00076104 4.36778e-20)
(14.9995 0.000770358 -3.23087e-22)
(14.9995 0.000780195 4.17006e-20)
(14.9995 0.000789477 -3.24718e-22)
(14.9995 0.000798858 3.96966e-20)
(14.9995 0.000808044 -7.96516e-20)
(14.9995 0.000816644 0)
(14.9995 0.000825867 -3.64104e-20)
(14.9995 0.000834384 3.5413e-20)
(14.9996 0.00084263 3.43723e-20)
(14.9996 0.000850709 7.51616e-20)
(14.9996 0.000858615 -4.1727e-20)
(14.9996 0.000866212 -6.29433e-20)
(14.9996 0.000873663 7.29377e-20)
(14.9996 0.000881375 -8.52399e-20)
(14.9996 0.000888618 4.23896e-20)
(14.9997 0.000895152 9.72015e-20)
(14.9997 0.000902409 -1.72777e-20)
(14.9997 0.000908846 0)
(14.9997 0.000915216 0)
(14.9997 0.000921013 0)
(14.9997 0.000927204 -2.15402e-20)
(14.9997 0.000932998 0)
(14.9998 0.000938765 -2.46209e-20)
(14.9998 0.000943838 8.79465e-20)
(14.9998 0.00094874 3.44965e-20)
(14.9998 0.000954005 -1.49375e-19)
(14.9998 0.00095853 2.97055e-20)
(14.9998 0.000963008 3.11004e-20)
(14.9998 0.000967225 -4.47829e-20)
(14.9999 0.000971453 -1.14122e-20)
(14.9999 0.000975455 1.02553e-20)
(14.9999 0.000978948 8.95917e-21)
(14.9999 0.000982276 8.29777e-20)
(14.9999 0.000985257 9.77058e-20)
(14.9999 0.00098824 -4.01528e-20)
(14.9999 0.000990813 -9.15791e-20)
(15 0.000993442 0)
(15 0.000995542 1.81994e-21)
(15 0.000997518 4.61657e-20)
(15 0.000999308 -5.88533e-22)
(15 0.00100092 -4.44448e-20)
(15 0.0010024 0)
(15.0001 0.00100335 9.27337e-20)
(15.0001 0.00100435 -2.20819e-20)
(15.0001 0.00100494 -3.96182e-20)
(15.0001 0.00100552 -1.60342e-20)
(15.0001 0.00100575 -4.64852e-20)
(15.0001 0.00100581 -5.70483e-20)
(15.0002 0.00100533 2.35201e-20)
(15.0002 0.00100462 1.28525e-20)
(15.0002 0.00100391 4.67465e-20)
(15.0002 0.00100291 -1.56892e-20)
(15.0002 0.00100185 4.69805e-20)
(15.0002 0.001 -3.63079e-20)
(15.0002 0.000998517 -2.70706e-20)
(15.0003 0.00099683 -6.76e-20)
(15.0003 0.000994381 2.22163e-20)
(15.0003 0.000991876 1.16919e-19)
(15.0003 0.00098892 -7.11178e-20)
(15.0003 0.000986357 -4.66494e-20)
(15.0003 0.000983146 5.37395e-20)
(15.0004 0.000979832 4.69023e-20)
(15.0004 0.000975592 1.72366e-20)
(15.0004 0.00097211 -1.55265e-19)
(15.0004 0.000967816 3.24615e-20)
(15.0004 0.000962973 1.31196e-20)
(15.0004 0.000958384 -9.35377e-20)
(15.0005 0.000953601 1.19022e-19)
(15.0005 0.000948442 9.18923e-21)
(15.0005 0.000943062 -4.66389e-20)
(15.0005 0.000937464 -3.26935e-20)
(15.0005 0.000931532 8.77487e-20)
(15.0005 0.000924769 -8.93075e-20)
(15.0006 0.000918683 4.09146e-20)
(15.0006 0.000911895 4.68856e-20)
(15.0006 0.000904851 4.65011e-20)
(15.0006 0.000897884 -9.45598e-20)
(15.0006 0.000890234 -1.42289e-19)
(15.0006 0.000883145 4.54191e-22)
(15.0006 0.000875158 4.64416e-20)
(15.0007 0.000866715 0)
(15.0007 0.000858765 5.42884e-20)
(15.0007 0.000849848 0)
(15.0007 0.000840988 -4.67336e-20)
(15.0007 0.000832036 5.88225e-20)
(15.0007 0.000822782 -1.34361e-20)
(15.0008 0.000812607 6.09551e-20)
(15.0008 0.000802919 4.66018e-20)
(15.0008 0.000792506 -1.27655e-19)
(15.0008 0.000782392 -2.75333e-20)
(15.0008 0.000771379 2.03981e-20)
(15.0008 0.000761032 1.14011e-19)
(15.0008 0.000749712 -2.30839e-20)
(15.0008 0.000737662 0)
(15.0009 0.000726333 2.51879e-20)
(15.0009 0.00071416 1.19617e-19)
(15.0009 0.00070198 1.18594e-19)
(15.0009 0.000689974 -1.2062e-19)
(15.0009 0.000677417 3.06135e-20)
(15.0009 0.000664 8.05293e-22)
(15.0009 0.000651329 4.49801e-20)
(15.0009 0.000637152 -4.56633e-20)
(15.001 0.00062355 9.21472e-20)
(15.001 0.000609962 5.46325e-21)
(15.001 0.000595575 -1.7388e-19)
(15.001 0.000582037 -4.431e-20)
(15.001 0.000567207 -4.12702e-20)
(15.001 0.000552429 -1.04972e-21)
(15.001 0.000537791 1.16202e-21)
(15.001 0.000522149 4.37033e-20)
(15.001 0.00050673 4.02136e-24)
(15.001 0.000490928 -2.72875e-19)
(15.0011 0.000475528 1.44178e-19)
(15.0011 0.000459854 -1.45121e-19)
(15.0011 0.000443105 1.39055e-19)
(15.0011 0.00042752 -1.41322e-19)
(15.0011 0.000410762 1.24936e-20)
(15.0011 0.000394993 1.41564e-19)
(15.0011 0.000377723 -1.35e-20)
(15.0011 0.000361353 -1.01364e-19)
(15.0011 0.000344703 1.02393e-19)
(15.0011 0.000328189 4.09628e-20)
(15.0011 0.0003101 -5.9198e-20)
(15.0011 0.00029319 -2.49676e-19)
(15.0011 0.000276803 1.2632e-19)
(15.0011 0.00025914 -1.03878e-19)
(15.0011 0.000242528 6.21586e-20)
(15.0011 0.000224981 1.49285e-19)
(15.0011 0.000208547 -6.9836e-20)
(15.0011 0.000192613 2.58905e-20)
(15.0011 0.000175017 1.09818e-19)
(15.0011 0.000158752 -1.51834e-19)
(15.0011 0.000141839 1.1645e-19)
(15.0011 0.000125789 7.088e-20)
(15.0011 0.000108286 1.47092e-19)
(15.0011 8.99446e-05 -1.13799e-19)
(15.0011 6.9199e-05 -1.34485e-19)
(15.0012 4.31265e-05 1.51262e-19)
(15.0006 5.09184e-06 -1.32654e-19)
(14.9983 1.28429e-05 4.07684e-20)
(14.9982 6.709e-05 -6.84381e-20)
(14.9982 0.000128529 -1.09374e-20)
(14.9981 0.000140313 -1.06184e-19)
(14.9981 0.000159749 1.00114e-19)
(14.998 0.000176052 -5.44492e-20)
(14.998 0.000198356 -8.98796e-20)
(14.9979 0.000225129 2.71477e-21)
(14.9979 0.000255672 2.05836e-20)
(14.9979 0.000289874 4.14314e-21)
(14.9979 0.000325256 -5.22692e-20)
(14.9978 0.000362058 2.49887e-20)
(14.9978 0.000400679 6.91269e-20)
(14.9978 0.000439154 -4.31611e-20)
(14.9978 0.000479479 1.65031e-19)
(14.9978 0.000519139 1.39806e-20)
(14.9977 0.000559673 -9.68583e-20)
(14.9977 0.000601433 -1.32822e-20)
(14.9977 0.000642273 5.82988e-20)
(14.9977 0.000683735 -2.47163e-22)
(14.9977 0.000725156 -2.90371e-20)
(14.9977 0.000767751 -9.92625e-20)
(14.9977 0.000809225 -6.89177e-20)
(14.9977 0.000851889 -2.08239e-22)
(14.9977 0.000893672 -3.02855e-20)
(14.9977 0.000936756 6.05533e-20)
(14.9977 0.000979338 2.52125e-21)
(14.9977 0.00102188 2.4936e-21)
(14.9977 0.00106454 -3.47205e-20)
(14.9977 0.00110718 -3.19335e-20)
(14.9977 0.00114999 3.1638e-20)
(14.9977 0.0011922 1.63968e-21)
(14.9977 0.00123479 -9.99685e-20)
(14.9977 0.00127734 2.62911e-19)
(14.9977 0.00131868 3.42915e-20)
(14.9977 0.00136085 6.40726e-20)
(14.9978 0.0014019 -6.86769e-20)
(14.9978 0.00144315 -1.22524e-21)
(14.9978 0.00148508 6.35633e-20)
(14.9978 0.00152519 1.57202e-19)
(14.9978 0.00156614 9.82054e-20)
(14.9978 0.00160596 -1.22197e-20)
(14.9979 0.00164517 5.97013e-20)
(14.9979 0.00168438 0)
(14.9979 0.00172341 2.17133e-20)
(14.9979 0.00176144 -3.72642e-20)
(14.9979 0.00180015 1.30685e-19)
(14.998 0.00183749 -7.33279e-20)
(14.998 0.00187376 -1.306e-19)
(14.998 0.00191071 3.73274e-20)
(14.998 0.00194676 5.42583e-20)
(14.9981 0.00198243 2.76447e-20)
(14.9981 0.00201711 1.80195e-19)
(14.9981 0.00205249 9.03268e-20)
(14.9982 0.00208635 -4.23216e-22)
(14.9982 0.00211987 2.97756e-20)
(14.9982 0.00215313 -3.9076e-20)
(14.9982 0.00218579 -8.00122e-20)
(14.9983 0.00221742 1.32085e-19)
(14.9983 0.00224943 9.06489e-20)
(14.9983 0.00228034 3.65741e-21)
(14.9984 0.00231026 0)
(14.9984 0.00234051 4.23025e-20)
(14.9984 0.00236961 -4.12749e-20)
(14.9985 0.00239838 8.13208e-20)
(14.9985 0.00242647 2.35799e-22)
(14.9986 0.00245394 -3.01358e-22)
(14.9986 0.00248147 -7.85417e-20)
(14.9986 0.00250774 -8.41381e-20)
(14.9987 0.00253337 1.77952e-23)
(14.9987 0.0025583 8.43584e-20)
(14.9987 0.00258301 8.52353e-20)
(14.9988 0.00260682 -4.26491e-20)
(14.9988 0.00262981 1.88912e-20)
(14.9989 0.00265304 -4.28982e-20)
(14.9989 0.00267518 -7.2068e-20)
(14.9989 0.00269623 2.77351e-20)
(14.999 0.00271782 4.34558e-20)
(14.999 0.00273787 6.92851e-20)
(14.9991 0.00275742 -2.43633e-20)
(14.9991 0.00277587 6.72286e-20)
(14.9992 0.00279445 2.22697e-20)
(14.9992 0.00281222 -1.09686e-19)
(14.9992 0.00282956 -4.45775e-20)
(14.9993 0.00284552 4.46046e-20)
(14.9993 0.002861 8.00232e-20)
(14.9994 0.0028764 -1.03077e-23)
(14.9994 0.00289083 4.50835e-20)
(14.9995 0.00290443 1.1214e-22)
(14.9995 0.00291742 -5.83223e-20)
(14.9996 0.00293036 -5.7204e-20)
(14.9996 0.0029421 -1.01862e-19)
(14.9996 0.00295288 8.21889e-20)
(14.9997 0.00296303 9.19752e-20)
(14.9997 0.00297261 2.0608e-20)
(14.9998 0.00298205 1.70168e-20)
(14.9998 0.00299009 -5.08713e-20)
(14.9999 0.00299792 -4.65203e-20)
(14.9999 0.00300433 -1.55288e-23)
(15 0.00301042 4.60513e-20)
(15 0.00301589 4.63202e-20)
(15.0001 0.00302073 -1.39979e-23)
(15.0001 0.00302527 -4.69338e-20)
(15.0002 0.00302836 -9.40385e-20)
(15.0002 0.00303124 3.60012e-20)
(15.0003 0.00303267 4.0108e-20)
(15.0003 0.00303396 -5.50495e-20)
(15.0004 0.00303465 -8.77856e-23)
(15.0004 0.00303467 3.65954e-20)
(15.0005 0.00303368 9.42498e-20)
(15.0005 0.00303141 -1.07606e-19)
(15.0006 0.00302905 -4.69947e-20)
(15.0006 0.003026 -8.94832e-23)
(15.0007 0.00302204 1.71302e-20)
(15.0007 0.00301699 1.05714e-20)
(15.0008 0.00301179 3.9188e-20)
(15.0008 0.00300603 -4.73899e-20)
(15.0009 0.00299871 2.23344e-20)
(15.0009 0.00299089 2.60665e-22)
(15.001 0.00298211 -2.48143e-20)
(15.001 0.00297342 1.20953e-19)
(15.0011 0.00296347 -3.76304e-22)
(15.0011 0.00295292 -9.44492e-20)
(15.0012 0.00294063 -7.75228e-20)
(15.0012 0.00292885 1.70465e-22)
(15.0013 0.0029158 1.12527e-19)
(15.0013 0.00290147 -3.40332e-20)
(15.0013 0.00288733 4.74749e-20)
(15.0014 0.00287217 7.31201e-20)
(15.0014 0.00285592 -8.50817e-20)
(15.0015 0.00283932 -9.47864e-20)
(15.0015 0.00282184 1.35942e-19)
(15.0016 0.00280353 9.33784e-20)
(15.0016 0.00278369 -4.26721e-20)
(15.0017 0.00276379 -5.36019e-22)
(15.0017 0.00274309 -5.72282e-22)
(15.0018 0.00272148 -4.77232e-20)
(15.0018 0.00269937 -1.4294e-19)
(15.0019 0.0026758 3.08096e-21)
(15.0019 0.00265247 1.49878e-19)
(15.002 0.00262783 9.94223e-20)
(15.002 0.00260171 -6.83846e-21)
(15.0021 0.00257587 -4.34084e-22)
(15.0021 0.0025486 1.00767e-20)
(15.0022 0.00252041 0)
(15.0022 0.00249169 1.24449e-20)
(15.0022 0.00246233 4.74739e-20)
(15.0023 0.0024309 4.58924e-20)
(15.0023 0.00240008 -9.32294e-20)
(15.0024 0.00236783 -1.75068e-20)
(15.0024 0.0023349 4.56266e-20)
(15.0025 0.00230063 2.13975e-20)
(15.0025 0.00226696 9.08148e-20)
(15.0025 0.00223174 -6.94076e-20)
(15.0026 0.00219459 9.23459e-20)
(15.0026 0.00215802 -7.31542e-20)
(15.0027 0.00211994 1.21224e-19)
(15.0027 0.00208133 -1.22981e-19)
(15.0027 0.00204241 3.25124e-20)
(15.0028 0.0020024 7.62754e-20)
(15.0028 0.00196061 1.13656e-19)
(15.0028 0.00191953 4.50242e-20)
(15.0029 0.00187572 3.57169e-20)
(15.0029 0.00183239 4.66223e-20)
(15.0029 0.00178887 4.35029e-20)
(15.003 0.00174342 -1.29822e-19)
(15.003 0.00169853 -1.31645e-19)
(15.003 0.00165149 4.59876e-20)
(15.0031 0.0016038 -4.57055e-20)
(15.0031 0.00155599 1.13169e-21)
(15.0031 0.00150672 -4.72742e-20)
(15.0032 0.00145701 -2.73259e-19)
(15.0032 0.00140659 2.07124e-21)
(15.0032 0.00135564 1.4166e-19)
(15.0032 0.00130393 9.84506e-20)
(15.0032 0.00125082 8.39151e-20)
(15.0033 0.00119882 -2.36671e-19)
(15.0033 0.00114482 9.8224e-20)
(15.0033 0.00109177 5.55901e-20)
(15.0033 0.00103631 1.01175e-19)
(15.0033 0.000981709 8.40867e-20)
(15.0034 0.000926142 -5.98753e-20)
(15.0034 0.000870521 -4.2764e-20)
(15.0034 0.000812456 -1.43252e-19)
(15.0034 0.00075499 -1.22419e-19)
(15.0034 0.000697528 -4.62744e-20)
(15.0034 0.000637394 -1.38818e-19)
(15.0034 0.000578308 3.65732e-20)
(15.0034 0.0005167 -3.81833e-20)
(15.0034 0.000455327 4.09748e-20)
(15.0034 0.000392653 -3.10006e-21)
(15.0034 0.000327873 -7.78859e-20)
(15.0034 0.000263862 6.8957e-20)
(15.0034 0.000198421 2.53603e-19)
(15.0034 0.000134172 -2.97177e-20)
(15.0034 6.50418e-05 -6.93328e-21)
(15.0033 9.09872e-07 -1.83643e-19)
(15.0033 -4.05184e-05 1.63112e-19)
(15.0034 -4.56009e-05 -4.25585e-20)
(15.0032 -1.66814e-08 -2.55641e-19)
(14.9971 1.0058e-05 6.59619e-20)
(14.997 2.1863e-05 1.11278e-20)
(14.997 0.000168084 3.30881e-20)
(14.9969 0.00019765 -5.80049e-20)
(14.9968 0.000242908 -3.97887e-20)
(14.9967 0.000272662 1.2388e-19)
(14.9967 0.000313883 -2.47131e-20)
(14.9966 0.000357473 0)
(14.9965 0.000408282 -1.28046e-19)
(14.9965 0.000464141 1.70676e-19)
(14.9964 0.000523144 -1.32735e-19)
(14.9964 0.000584895 2.62623e-20)
(14.9964 0.000648532 2.50484e-20)
(14.9963 0.000712967 -9.15944e-20)
(14.9963 0.000780053 6.4774e-20)
(14.9963 0.000846798 2.93862e-20)
(14.9962 0.00091448 -1.37546e-19)
(14.9962 0.000983594 -1.35433e-19)
(14.9962 0.00105208 3.93844e-20)
(14.9962 0.0011215 4.01904e-20)
(14.9962 0.00119117 1.36113e-19)
(14.9961 0.00126176 3.037e-20)
(14.9961 0.00133195 3.8787e-20)
(14.9961 0.00140313 -6.91759e-20)
(14.9961 0.00147344 3.1394e-20)
(14.9961 0.00154503 -1.36069e-19)
(14.9961 0.00161645 1.35783e-19)
(14.9961 0.00168763 3.13766e-20)
(14.9961 0.00175891 3.2601e-20)
(14.9961 0.00183047 -3.23221e-20)
(14.9962 0.00190185 -6.74515e-20)
(14.9962 0.00197311 9.97482e-20)
(14.9962 0.00204463 -1.65456e-19)
(14.9962 0.00211594 -1.00899e-19)
(14.9962 0.00218602 1.33828e-19)
(14.9962 0.00225692 1.28302e-19)
(14.9963 0.00232631 6.36571e-20)
(14.9963 0.00239567 -3.491e-20)
(14.9963 0.00246555 2.69484e-20)
(14.9963 0.00253361 -1.23551e-19)
(14.9964 0.00260188 1.583e-19)
(14.9964 0.00266937 3.65376e-20)
(14.9964 0.00273583 5.97563e-20)
(14.9964 0.00280246 5.91053e-20)
(14.9965 0.00286827 0)
(14.9965 0.0029326 -3.71409e-20)
(14.9966 0.00299727 1.72044e-20)
(14.9966 0.00306051 9.51038e-20)
(14.9966 0.00312264 -7.67424e-20)
(14.9967 0.00318471 -5.45893e-20)
(14.9967 0.00324592 6.90611e-20)
(14.9968 0.00330661 -9.18995e-20)
(14.9968 0.00336533 -6.51754e-20)
(14.9969 0.00342468 1.41745e-19)
(14.9969 0.00348243 3.93321e-20)
(14.997 0.00353973 4.97975e-20)
(14.997 0.00359582 1.05168e-19)
(14.9971 0.00365124 7.49169e-21)
(14.9971 0.00370557 -8.08103e-20)
(14.9972 0.00375952 8.58679e-20)
(14.9972 0.00381215 1.2677e-19)
(14.9973 0.00386337 4.3688e-20)
(14.9973 0.00391445 4.10538e-20)
(14.9974 0.00396433 2.92274e-22)
(14.9974 0.00401305 -1.23357e-19)
(14.9975 0.0040607 7.95407e-20)
(14.9976 0.00410757 4.18658e-20)
(14.9976 0.00415362 3.79771e-20)
(14.9977 0.00419833 -7.93101e-20)
(14.9978 0.00424194 -5.04186e-23)
(14.9978 0.00428454 8.06332e-21)
(14.9979 0.00432661 -4.25747e-20)
(14.9979 0.00436743 -5.40801e-20)
(14.998 0.0044066 7.46541e-20)
(14.9981 0.00444525 7.39357e-20)
(14.9981 0.00448316 -2.92439e-20)
(14.9982 0.00451964 -2.81482e-20)
(14.9983 0.0045553 -9.79607e-20)
(14.9984 0.00458954 1.80633e-20)
(14.9984 0.00462297 -2.43682e-20)
(14.9985 0.0046546 -8.92201e-20)
(14.9986 0.00468597 1.11804e-19)
(14.9986 0.00471617 2.34847e-21)
(14.9987 0.00474545 -9.0128e-20)
(14.9988 0.00477265 -1.50622e-22)
(14.9989 0.00479926 1.1077e-22)
(14.9989 0.00482503 -6.23073e-20)
(14.999 0.00484978 4.56129e-20)
(14.9991 0.00487308 7.72919e-20)
(14.9992 0.00489525 1.32787e-20)
(14.9992 0.00491662 1.18953e-20)
(14.9993 0.00493638 6.21773e-23)
(14.9994 0.00495505 -5.60224e-20)
(14.9995 0.00497252 -8.47849e-20)
(14.9996 0.00498904 -4.68015e-20)
(14.9996 0.00500487 1.4051e-19)
(14.9997 0.00501858 4.23882e-20)
(14.9998 0.00503144 -4.70953e-20)
(14.9999 0.00504266 4.5108e-20)
(15 0.00505335 8.7148e-22)
(15 0.00506264 -4.78494e-20)
(15.0001 0.00507053 1.695e-21)
(15.0002 0.0050779 0)
(15.0003 0.0050836 4.21989e-21)
(15.0004 0.00508842 -4.21114e-20)
(15.0004 0.00509108 -6.74452e-21)
(15.0005 0.00509299 5.57536e-20)
(15.0006 0.00509389 -6.64487e-20)
(15.0007 0.00509352 -4.76836e-20)
(15.0008 0.00509197 3.17191e-24)
(15.0009 0.00508869 -4.06166e-23)
(15.0009 0.00508449 9.57084e-20)
(15.001 0.00507903 4.76365e-20)
(15.0011 0.00507194 -4.77656e-20)
(15.0012 0.00506369 4.79045e-20)
(15.0013 0.00505442 6.75167e-20)
(15.0014 0.00504445 -9.59532e-20)
(15.0014 0.00503214 -7.33048e-20)
(15.0015 0.00501874 2.43077e-20)
(15.0016 0.00500399 1.20754e-19)
(15.0017 0.00498888 2.61042e-20)
(15.0018 0.00497174 -7.54763e-20)
(15.0019 0.00495362 0)
(15.0019 0.00493387 4.80638e-20)
(15.002 0.00491312 7.94896e-20)
(15.0021 0.00489068 -4.79859e-20)
(15.0022 0.00486731 -4.77699e-20)
(15.0023 0.00484321 4.80202e-20)
(15.0024 0.00481711 -7.42707e-20)
(15.0024 0.00478946 -4.77243e-20)
(15.0025 0.00476103 4.79733e-20)
(15.0026 0.00473129 8.88019e-20)
(15.0027 0.00470011 -1.32683e-19)
(15.0028 0.00466723 -3.89231e-21)
(15.0028 0.00463319 -4.22515e-20)
(15.0029 0.00459807 4.60592e-20)
(15.003 0.00456149 -9.5267e-20)
(15.0031 0.00452335 4.78411e-20)
(15.0032 0.00448359 9.79378e-20)
(15.0032 0.0044434 5.18801e-20)
(15.0033 0.00440127 -4.2372e-20)
(15.0034 0.0043573 -4.68548e-20)
(15.0035 0.00431253 1.50615e-19)
(15.0035 0.00426611 -4.57869e-22)
(15.0036 0.00421852 -4.71145e-20)
(15.0037 0.00416908 0)
(15.0038 0.00411869 1.22298e-19)
(15.0038 0.00406596 -1.25058e-19)
(15.0039 0.00401356 0)
(15.004 0.00395836 6.51904e-20)
(15.0041 0.00390211 -6.65447e-20)
(15.0041 0.00384441 4.72237e-20)
(15.0042 0.00378621 2.14421e-20)
(15.0043 0.00372626 9.49739e-20)
(15.0043 0.00366409 -6.58882e-22)
(15.0044 0.00360189 -1.45322e-19)
(15.0045 0.00353737 4.61108e-20)
(15.0045 0.00347128 -1.79965e-19)
(15.0046 0.00340485 1.22732e-19)
(15.0047 0.00333654 -7.79522e-20)
(15.0047 0.00326663 -4.61466e-20)
(15.0048 0.00319632 -7.96331e-20)
(15.0048 0.00312298 3.47166e-20)
(15.0049 0.00304957 1.30801e-19)
(15.0049 0.00297535 -4.08341e-20)
(15.005 0.00289828 -2.20653e-19)
(15.005 0.00282142 -1.71937e-19)
(15.0051 0.00274194 1.3224e-19)
(15.0051 0.00266116 -1.77532e-19)
(15.0052 0.00257964 0)
(15.0052 0.00249685 -1.36045e-19)
(15.0053 0.00241267 -4.58905e-20)
(15.0053 0.00232775 1.80317e-19)
(15.0054 0.00224179 -9.38688e-20)
(15.0054 0.00215436 1.4569e-19)
(15.0054 0.00206551 -1.83155e-19)
(15.0055 0.00197729 9.79082e-20)
(15.0055 0.00188662 1.39825e-19)
(15.0055 0.00179613 1.42216e-19)
(15.0056 0.00170377 1.41611e-19)
(15.0056 0.00161134 1.34044e-20)
(15.0056 0.0015178 2.83349e-21)
(15.0056 0.00142405 -6.25452e-20)
(15.0056 0.00132761 6.13217e-20)
(15.0056 0.00123125 0)
(15.0057 0.00113409 -1.46268e-19)
(15.0057 0.00103371 2.09914e-19)
(15.0057 0.000934424 -1.07245e-19)
(15.0057 0.000832555 -6.00493e-20)
(15.0057 0.000729357 3.54205e-20)
(15.0057 0.000624607 -2.89401e-19)
(15.0057 0.000518518 4.46964e-20)
(15.0057 0.000412777 1.38663e-19)
(15.0056 0.000305745 2.85177e-20)
(15.0056 0.000199358 4.80879e-21)
(15.0056 8.73727e-05 -7.08333e-20)
(15.0056 -6.93217e-06 4.27323e-20)
(15.0056 -6.50681e-05 -1.03699e-20)
(15.0056 8.85065e-06 -1.86578e-19)
(15.0055 1.80793e-06 7.83634e-20)
(14.996 1.8779e-06 -5.03609e-20)
(14.9959 -2.78494e-05 5.52145e-20)
(14.9958 0.000153377 0)
(14.9957 0.000226721 0)
(14.9956 0.000305563 -1.9273e-20)
(14.9955 0.000362858 -2.29576e-20)
(14.9953 0.0004281 -3.93449e-20)
(14.9952 0.000491525 -1.56517e-20)
(14.9952 0.000563829 -4.30045e-20)
(14.9951 0.000641347 5.79408e-20)
(14.995 0.000723309 -3.5476e-20)
(14.995 0.000809101 -2.78809e-20)
(14.9949 0.000897493 -3.91606e-20)
(14.9948 0.000987844 2.18942e-22)
(14.9948 0.00108103 -1.33863e-19)
(14.9948 0.00117448 9.40185e-20)
(14.9947 0.00126916 2.82283e-20)
(14.9947 0.00136562 4.02524e-20)
(14.9947 0.00146206 -9.72315e-20)
(14.9946 0.00155953 3.97769e-20)
(14.9946 0.001657 -1.37527e-19)
(14.9946 0.00175592 1.12737e-21)
(14.9946 0.00185471 2.88061e-20)
(14.9946 0.00195486 -3.62858e-20)
(14.9946 0.00205385 6.70093e-20)
(14.9946 0.00215422 9.39307e-22)
(14.9946 0.00225441 -1.31064e-19)
(14.9946 0.00235465 -6.82278e-20)
(14.9946 0.0024547 3.29646e-20)
(14.9946 0.00255551 1.24402e-22)
(14.9946 0.00265609 0)
(14.9946 0.00275631 6.62385e-20)
(14.9946 0.00285657 9.91038e-20)
(14.9946 0.00295676 -6.49712e-20)
(14.9947 0.00305593 -6.87656e-20)
(14.9947 0.00315541 -6.49605e-20)
(14.9947 0.00325367 -6.3155e-20)
(14.9948 0.00335175 -6.39612e-20)
(14.9948 0.00344978 8.40581e-21)
(14.9948 0.00354588 -1.23889e-19)
(14.9949 0.00364213 -9.82105e-20)
(14.9949 0.00373717 2.47391e-20)
(14.995 0.0038312 2.32517e-20)
(14.995 0.00392534 3.68535e-20)
(14.995 0.00401843 5.94461e-20)
(14.9951 0.00410954 -4.99715e-22)
(14.9951 0.00420076 3.80882e-20)
(14.9952 0.00429027 1.13509e-19)
(14.9953 0.00437882 5.58896e-20)
(14.9953 0.00446653 -3.84429e-20)
(14.9954 0.00455328 5.3831e-20)
(14.9954 0.00463889 -2.86687e-20)
(14.9955 0.00472306 -3.88729e-20)
(14.9956 0.00480691 -4.031e-20)
(14.9956 0.00488887 4.01402e-20)
(14.9957 0.00497023 6.01224e-20)
(14.9958 0.00504966 -4.04959e-20)
(14.9958 0.00512855 8.85771e-20)
(14.9959 0.00520607 -6.28543e-21)
(14.996 0.00528253 -1.33473e-19)
(14.9961 0.00535747 -4.13808e-20)
(14.9961 0.00543082 4.13618e-20)
(14.9962 0.00550332 4.18923e-20)
(14.9963 0.00557413 1.25844e-19)
(14.9964 0.00564361 -4.14004e-20)
(14.9965 0.00571183 -8.52499e-20)
(14.9966 0.00577835 3.26083e-21)
(14.9966 0.00584358 3.84088e-20)
(14.9967 0.00590756 -4.27663e-20)
(14.9968 0.00597006 3.6066e-20)
(14.9969 0.00603099 8.6643e-20)
(14.997 0.00609042 6.86126e-20)
(14.9971 0.00614866 -1.20458e-19)
(14.9972 0.00620483 -7.60055e-20)
(14.9973 0.00625969 4.39752e-20)
(14.9974 0.00631372 1.45481e-20)
(14.9975 0.00636596 4.42975e-20)
(14.9976 0.00641644 1.7081e-20)
(14.9977 0.00646518 -5.29586e-20)
(14.9978 0.00651294 5.80645e-21)
(14.9979 0.00655861 -9.36291e-20)
(14.998 0.00660321 6.73313e-20)
(14.9981 0.00664609 -2.31334e-20)
(14.9982 0.00668771 -1.36945e-19)
(14.9983 0.0067269 2.61881e-20)
(14.9984 0.00676509 9.18978e-20)
(14.9985 0.00680164 9.11166e-23)
(14.9986 0.00683677 3.00944e-20)
(14.9987 0.00687021 -4.61516e-20)
(14.9988 0.00690196 -1.26237e-19)
(14.9989 0.00693197 1.23377e-20)
(14.999 0.00696045 9.8394e-24)
(14.9991 0.00698758 4.70025e-20)
(14.9993 0.00701269 4.72023e-20)
(14.9994 0.00703613 2.51656e-20)
(14.9995 0.00705825 3.52483e-20)
(14.9996 0.00707787 -4.27299e-20)
(14.9997 0.00709624 -4.77688e-20)
(14.9998 0.00711248 -4.78653e-20)
(14.9999 0.00712795 -4.69825e-20)
(15 0.00714121 1.43917e-19)
(15.0002 0.00715227 4.80898e-20)
(15.0003 0.00716255 -5.09875e-20)
(15.0004 0.00717067 -4.82102e-20)
(15.0005 0.0071775 -5.36089e-20)
(15.0006 0.00718175 5.50169e-20)
(15.0007 0.00718461 -1.12818e-19)
(15.0009 0.0071857 -4.82575e-20)
(15.001 0.00718465 1.55761e-19)
(15.0011 0.0071821 9.66618e-20)
(15.0012 0.00717788 -8.35178e-20)
(15.0013 0.00717174 -1.89339e-20)
(15.0014 0.00716371 -1.35927e-22)
(15.0016 0.00715375 1.1152e-22)
(15.0017 0.00714216 9.69923e-20)
(15.0018 0.00712868 -2.00899e-20)
(15.0019 0.007114 -6.97113e-20)
(15.002 0.00709658 -2.59449e-20)
(15.0021 0.00707768 7.28193e-20)
(15.0023 0.00705679 9.69702e-20)
(15.0024 0.00703463 0)
(15.0025 0.00701009 -4.86016e-20)
(15.0026 0.00698436 -1.90699e-20)
(15.0027 0.00695658 0)
(15.0029 0.00692674 -3.20869e-20)
(15.003 0.00689476 -3.34484e-20)
(15.0031 0.00686167 -3.4771e-20)
(15.0032 0.0068269 -4.86174e-20)
(15.0033 0.00678963 -3.72264e-20)
(15.0034 0.00675076 4.83276e-20)
(15.0036 0.00670994 -4.86347e-20)
(15.0037 0.00666708 2.24966e-22)
(15.0038 0.00662227 5.3785e-20)
(15.0039 0.00657573 4.39797e-20)
(15.004 0.00652742 3.73109e-22)
(15.0041 0.00647686 -9.43002e-20)
(15.0042 0.00642453 -4.80368e-20)
(15.0043 0.00637032 0)
(15.0045 0.00631377 -5.67467e-23)
(15.0046 0.00625586 -4.11948e-21)
(15.0047 0.00619566 -1.08007e-19)
(15.0048 0.00613322 1.59004e-19)
(15.0049 0.00606902 5.55798e-20)
(15.005 0.00600268 -2.11147e-19)
(15.0051 0.00593515 0)
(15.0052 0.00586474 4.812e-20)
(15.0053 0.00579301 1.33272e-20)
(15.0054 0.00571839 1.62109e-20)
(15.0055 0.00564277 4.72893e-20)
(15.0056 0.00556481 -6.5844e-20)
(15.0057 0.00548486 0)
(15.0058 0.00540314 4.76952e-20)
(15.0059 0.00531977 -2.28127e-20)
(15.006 0.00523463 2.37291e-20)
(15.0061 0.00514672 -1.66595e-19)
(15.0062 0.0050583 7.4352e-20)
(15.0063 0.00496668 -7.39132e-22)
(15.0064 0.00487299 -7.54815e-20)
(15.0065 0.00477864 4.61491e-20)
(15.0065 0.00468217 -4.70633e-20)
(15.0066 0.00458327 -4.62062e-20)
(15.0067 0.00448364 1.74511e-19)
(15.0068 0.00438053 4.48215e-20)
(15.0069 0.00427633 3.80072e-20)
(15.0069 0.00417081 -1.31194e-19)
(15.007 0.00406251 -1.77236e-19)
(15.0071 0.00395338 1.33566e-19)
(15.0072 0.0038416 -4.41965e-20)
(15.0072 0.00372832 9.19767e-22)
(15.0073 0.00361367 4.44524e-20)
(15.0074 0.00349704 0)
(15.0074 0.00337856 1.84402e-19)
(15.0075 0.00325961 -9.32036e-20)
(15.0075 0.00313883 -9.41268e-20)
(15.0076 0.00301658 -1.89914e-19)
(15.0076 0.00289251 -5.12114e-20)
(15.0077 0.00276876 1.39984e-19)
(15.0077 0.00264173 -9.71426e-20)
(15.0078 0.00251492 -4.3578e-20)
(15.0078 0.00238616 -9.75318e-20)
(15.0078 0.00225761 -1.5797e-19)
(15.0079 0.00212705 1.58037e-19)
(15.0079 0.00199576 1.66646e-21)
(15.0079 0.00186208 -1.82421e-21)
(15.0079 0.0017283 1.04385e-19)
(15.0079 0.00159343 1.43086e-19)
(15.0079 0.0014553 6.15395e-20)
(15.008 0.00131773 2.22084e-20)
(15.008 0.00117839 -1.0081e-19)
(15.008 0.00103734 -1.07802e-19)
(15.0079 0.000895532 3.06274e-21)
(15.0079 0.000753313 1.424e-19)
(15.0079 0.000611164 -2.09483e-19)
(15.0079 0.000468129 1.04449e-19)
(15.0079 0.000327344 5.12126e-22)
(15.0078 0.000176641 0)
(15.0078 6.42478e-05 -4.26275e-20)
(15.0078 -1.72271e-05 -9.55355e-20)
(15.0078 0.000130051 2.97188e-20)
(15.0076 1.27099e-05 1.00938e-19)
(14.9949 -4.12108e-06 -6.49763e-20)
(14.9947 -9.95202e-06 -7.96225e-20)
(14.9946 0.000141494 0)
(14.9945 0.000262217 5.60131e-20)
(14.9943 0.000365863 1.90146e-20)
(14.9942 0.000452574 -3.6042e-20)
(14.994 0.000540768 -6.05316e-20)
(14.9939 0.000623701 -2.1909e-20)
(14.9938 0.000715971 1.54759e-20)
(14.9937 0.000813629 -6.56771e-20)
(14.9936 0.000917124 9.00841e-20)
(14.9935 0.00102541 -4.09146e-20)
(14.9935 0.00113769 9.19635e-20)
(14.9934 0.00125295 -2.46593e-22)
(14.9933 0.00137149 4.05046e-20)
(14.9933 0.00149155 -2.79477e-20)
(14.9932 0.00161313 1.35077e-19)
(14.9932 0.00173647 9.53263e-20)
(14.9931 0.00186051 -2.685e-20)
(14.9931 0.00198639 -2.22209e-21)
(14.9931 0.00211239 -3.73991e-20)
(14.993 0.00223948 -3.04123e-20)
(14.993 0.00236718 -6.84634e-20)
(14.993 0.00249606 -2.99527e-20)
(14.993 0.00262397 -6.90757e-20)
(14.993 0.00275325 1.30899e-19)
(14.993 0.0028827 -3.58856e-20)
(14.993 0.00301233 -6.80131e-20)
(14.993 0.00314156 -6.76063e-20)
(14.993 0.00327208 -9.97869e-20)
(14.993 0.00340188 -3.36367e-20)
(14.993 0.00353149 0)
(14.9931 0.00366108 -9.9707e-20)
(14.9931 0.0037905 -6.6321e-20)
(14.9931 0.00391914 3.72562e-21)
(14.9931 0.00404791 -2.9926e-20)
(14.9932 0.00417527 -6.45721e-20)
(14.9932 0.00430243 -9.91562e-20)
(14.9933 0.00442896 -6.40116e-20)
(14.9933 0.00455381 1.2617e-19)
(14.9934 0.00467857 -1.06709e-20)
(14.9934 0.00480239 -9.86015e-20)
(14.9935 0.00492461 -2.42363e-20)
(14.9935 0.00504655 5.48637e-22)
(14.9936 0.00516756 -4.89264e-22)
(14.9936 0.00528601 -5.844e-20)
(14.9937 0.00540422 5.76703e-20)
(14.9938 0.00552112 -5.69242e-20)
(14.9939 0.00563625 5.6259e-20)
(14.9939 0.0057505 5.35255e-22)
(14.994 0.00586361 3.85353e-20)
(14.9941 0.00597487 5.5253e-20)
(14.9942 0.00608494 1.30533e-20)
(14.9942 0.00619406 -1.24294e-20)
(14.9943 0.00630102 1.17327e-20)
(14.9944 0.00640705 5.04787e-20)
(14.9945 0.00651109 -4.95945e-20)
(14.9946 0.00661387 -4.94798e-20)
(14.9947 0.00671506 8.94922e-20)
(14.9948 0.00681479 0)
(14.9949 0.00691277 -4.62564e-20)
(14.995 0.0070092 -9.05441e-20)
(14.9951 0.00710384 4.42686e-20)
(14.9952 0.0071962 -4.32807e-20)
(14.9953 0.00728729 8.46424e-20)
(14.9954 0.00737672 4.25798e-20)
(14.9955 0.00746378 4.05444e-20)
(14.9956 0.00754904 -4.14187e-21)
(14.9958 0.00763267 -4.32118e-20)
(14.9959 0.00771482 -7.4443e-20)
(14.996 0.00779477 3.63115e-20)
(14.9961 0.00787211 3.4725e-20)
(14.9962 0.00794818 1.0451e-20)
(14.9963 0.00802232 -3.27824e-20)
(14.9965 0.00809439 -1.88892e-20)
(14.9966 0.00816473 -3.03436e-20)
(14.9967 0.00823305 -2.96493e-20)
(14.9968 0.00829932 7.34589e-20)
(14.997 0.00836338 -9.04147e-20)
(14.9971 0.00842598 -3.45116e-22)
(14.9972 0.00848629 4.5954e-20)
(14.9974 0.00854434 -4.5901e-20)
(14.9975 0.00860039 4.49291e-20)
(14.9976 0.00865511 -4.2568e-20)
(14.9978 0.00870711 -9.46849e-24)
(14.9979 0.00875697 -4.64448e-20)