/*--------------------------------*- C++ -*----------------------------------*\
  =========                 |
  \\      /  F ield         | OpenFOAM: The Open Source CFD Toolbox
   \\    /   O peration     | Website:  https://openfoam.org
    \\  /    A nd           | Version:  8
     \\/     M anipulation  |
\*---------------------------------------------------------------------------*/
FoamFile
{
    version     2.0;
    format      ascii;
    class       volScalarField;
    location    "0.05";
    object      p;
}
// * * * * * * * * * * * * * * * * * * * * * * * * * * * * * * * * * * * * * //

dimensions      [0 2 -2 0 0 0 0];

internalField   nonuniform List<scalar> 
112080
(
2.46665
2.44764
2.43196
2.41685
2.40207
2.38721
2.37206
2.35665
2.34101
2.32514
2.30901
2.29264
2.27605
2.25923
2.24221
2.22499
2.20756
2.18997
2.17219
2.15424
2.13613
2.11787
2.09945
2.08089
2.06219
2.04337
2.02442
2.00534
1.98615
1.96685
1.94746
1.92796
1.90837
1.8887
1.86893
1.84908
1.82916
1.80916
1.78909
1.76895
1.74876
1.7285
1.70817
1.68779
1.66736
1.64688
1.62635
1.60577
1.58514
1.56447
1.54376
1.52301
1.50222
1.4814
1.46053
1.43964
1.4187
1.39774
1.37674
1.35572
1.33466
1.31358
1.29246
1.27132
1.25016
1.22897
1.20775
1.1865
1.16524
1.14394
1.12263
1.10129
1.07993
1.05854
1.03713
1.0157
0.994236
0.972761
0.95126
0.929738
0.908188
0.886619
0.865027
0.843416
0.821776
0.800109
0.778431
0.75672
0.734988
0.71323
0.691447
0.669646
0.647815
0.625959
0.604076
0.582173
0.560241
0.538279
0.516293
0.494279
0.472237
0.450168
0.42807
0.405942
0.383786
0.361605
0.339388
0.317141
0.294863
0.272559
0.250217
0.227844
0.205439
0.182998
0.160533
0.138022
0.11548
0.0929094
0.0702999
0.0476547
0.0249696
0.00225368
-0.0205011
-0.043289
-0.0661224
-0.088988
-0.111893
-0.134838
-0.15782
-0.180842
-0.2039
-0.227
-0.250137
-0.273314
-0.296535
-0.319793
-0.343092
-0.366431
-0.389812
-0.413233
-0.436688
-0.460188
-0.48373
-0.507306
-0.530927
-0.554584
-0.578281
-0.602014
-0.62579
-0.6496
-0.673449
-0.697335
-0.721258
-0.745211
-0.769196
-0.79322
-0.817274
-0.841362
-0.865479
-0.88962
-0.913786
-0.937983
-0.962202
-0.986451
-1.01071
-1.03499
-1.05929
-1.0836
-1.10793
-1.13226
-1.15659
-1.18093
-1.20527
-1.22962
-1.25395
-1.27827
-1.30259
-1.32687
-1.35115
-1.37539
-1.39961
-1.42378
-1.44792
-1.472
-1.49604
-1.52
-1.5439
-1.56774
-1.5915
-1.6152
-1.63882
-1.66235
-1.68586
-1.70933
-1.73275
-1.7561
-1.77973
-1.80432
-1.83044
-1.86211
2.47655
2.45818
2.44186
2.42601
2.41094
2.39614
2.38118
2.36597
2.35048
2.33476
2.31879
2.30258
2.28613
2.26944
2.25254
2.23544
2.21813
2.20063
2.18294
2.16507
2.14704
2.12883
2.11047
2.09197
2.07331
2.05451
2.03559
2.01653
1.99735
1.97806
1.95866
1.93915
1.91954
1.89984
1.88004
1.86016
1.84019
1.82014
1.80001
1.77981
1.75954
1.73921
1.71881
1.69834
1.67782
1.65724
1.63661
1.61592
1.59519
1.5744
1.55357
1.53269
1.51177
1.49081
1.46981
1.44877
1.42769
1.40658
1.38543
1.36425
1.34303
1.32178
1.3005
1.27919
1.25785
1.23647
1.21507
1.19365
1.17219
1.15071
1.1292
1.10767
1.08611
1.06452
1.04291
1.02127
0.999603
0.977917
0.956205
0.934467
0.912704
0.890917
0.869106
0.847271
0.825409
0.803521
0.781613
0.759675
0.737713
0.715726
0.693714
0.671676
0.649613
0.62752
0.605404
0.583261
0.56109
0.538893
0.516663
0.494414
0.472126
0.44982
0.427476
0.405108
0.38271
0.360282
0.337824
0.315332
0.292812
0.27026
0.247676
0.22506
0.202411
0.179728
0.157016
0.134265
0.111482
0.0886661
0.0658161
0.042929
0.0200071
-0.00295117
-0.0259431
-0.0489709
-0.0720372
-0.0951414
-0.11828
-0.141457
-0.16467
-0.187923
-0.211209
-0.234538
-0.257902
-0.281304
-0.304743
-0.328225
-0.351741
-0.375297
-0.398891
-0.422521
-0.446191
-0.469896
-0.493642
-0.517422
-0.541239
-0.565092
-0.588985
-0.612909
-0.636869
-0.660862
-0.684892
-0.708954
-0.733048
-0.757171
-0.781322
-0.805503
-0.829718
-0.853958
-0.87822
-0.902502
-0.926812
-0.951141
-0.975492
-0.999858
-1.02424
-1.04863
-1.07304
-1.09745
-1.12187
-1.14628
-1.17071
-1.19512
-1.21953
-1.24394
-1.26833
-1.2927
-1.31705
-1.34137
-1.36567
-1.38994
-1.41416
-1.43834
-1.46247
-1.48654
-1.51055
-1.53448
-1.55834
-1.58215
-1.60586
-1.62949
-1.65306
-1.67656
-1.70001
-1.72339
-1.74674
-1.77024
-1.7946
-1.82067
-1.84809
-1.87926
2.48198
2.46769
2.45174
2.43547
2.41994
2.40501
2.3902
2.37517
2.35987
2.34431
2.3285
2.31244
2.29614
2.2796
2.26283
2.24585
2.22865
2.21125
2.19366
2.17589
2.15793
2.1398
2.1215
2.10305
2.08444
2.06569
2.0468
2.02776
2.0086
1.98932
1.96992
1.95041
1.93079
1.91107
1.89124
1.87133
1.85132
1.83122
1.81104
1.79078
1.77045
1.75004
1.72957
1.70902
1.68841
1.66774
1.64701
1.62622
1.60537
1.58447
1.56353
1.54252
1.52148
1.50038
1.47924
1.45806
1.43684
1.41557
1.39427
1.37293
1.35155
1.33014
1.30869
1.2872
1.26569
1.24414
1.22255
1.20094
1.1793
1.15762
1.13592
1.11419
1.09243
1.07064
1.04882
1.02697
1.0051
0.983198
0.961271
0.939316
0.917333
0.895322
0.873291
0.851228
0.829141
0.807021
0.784883
0.762715
0.740517
0.718299
0.696045
0.673773
0.651467
0.629137
0.606778
0.584394
0.561978
0.539536
0.517062
0.494566
0.472033
0.449478
0.426888
0.404272
0.381623
0.358947
0.336239
0.313501
0.290729
0.267931
0.245093
0.222231
0.19933
0.1764
0.15344
0.130439
0.10741
0.084345
0.0612513
0.0381163
0.0149491
-0.00825232
-0.0314875
-0.0547585
-0.0780665
-0.101407
-0.124785
-0.148201
-0.171651
-0.195133
-0.218655
-0.242214
-0.265806
-0.289437
-0.313103
-0.336805
-0.360544
-0.384319
-0.408127
-0.431974
-0.455853
-0.479768
-0.503717
-0.527701
-0.55172
-0.575768
-0.599851
-0.623968
-0.648112
-0.672294
-0.6965
-0.720739
-0.744999
-0.769292
-0.793607
-0.817952
-0.842318
-0.866709
-0.891113
-0.915537
-0.939981
-0.964444
-0.988919
-1.0134
-1.0379
-1.0624
-1.08691
-1.11141
-1.13592
-1.16042
-1.18492
-1.20941
-1.23388
-1.25835
-1.28279
-1.30719
-1.33158
-1.35593
-1.38026
-1.40453
-1.42876
-1.45293
-1.47705
-1.50109
-1.52507
-1.54897
-1.57279
-1.59654
-1.6202
-1.64378
-1.66729
-1.69073
-1.71411
-1.73742
-1.76077
-1.78472
-1.81009
-1.83715
-1.86431
-1.88926
2.48556
2.47549
2.46125
2.44517
2.42923
2.41401
2.39918
2.38431
2.36919
2.3538
2.33816
2.32226
2.30611
2.28972
2.27309
2.25623
2.23916
2.22187
2.20438
2.1867
2.16884
2.15078
2.13256
2.11417
2.09562
2.07691
2.05806
2.03906
2.01992
2.00066
1.98126
1.96175
1.94213
1.92239
1.90254
1.8826
1.86256
1.84242
1.8222
1.80188
1.78149
1.76102
1.74047
1.71984
1.69915
1.67838
1.65756
1.63667
1.61572
1.59471
1.57364
1.55252
1.53134
1.51012
1.48885
1.46753
1.44615
1.42474
1.40329
1.38179
1.36025
1.33867
1.31705
1.29539
1.27369
1.25196
1.2302
1.2084
1.18656
1.1647
1.14279
1.12086
1.0989
1.0769
1.05487
1.03282
1.01073
0.988609
0.966465
0.944286
0.922082
0.899846
0.877586
0.855291
0.832972
0.810622
0.788246
0.76584
0.743406
0.720943
0.69845
0.675933
0.653384
0.630808
0.608201
0.585567
0.562903
0.540211
0.517488
0.494737
0.471954
0.449143
0.426302
0.403431
0.380528
0.357597
0.334633
0.311639
0.288612
0.265558
0.242467
0.219346
0.196194
0.173008
0.149792
0.12654
0.103258
0.0799379
0.0565915
0.0332062
0.00979161
-0.0136626
-0.0371437
-0.0606635
-0.0842182
-0.107801
-0.131424
-0.155082
-0.178769
-0.202493
-0.226251
-0.250041
-0.273869
-0.297728
-0.321626
-0.345552
-0.369517
-0.393511
-0.417539
-0.441601
-0.465694
-0.489818
-0.513977
-0.538161
-0.562383
-0.586633
-0.610904
-0.63521
-0.659547
-0.683908
-0.708294
-0.732707
-0.757144
-0.781597
-0.806076
-0.830577
-0.8551
-0.879632
-0.904184
-0.928747
-0.953324
-0.977915
-1.00251
-1.02711
-1.05172
-1.07632
-1.10092
-1.12553
-1.15012
-1.1747
-1.19927
-1.22383
-1.24836
-1.27288
-1.29736
-1.32181
-1.34622
-1.3706
-1.39493
-1.41921
-1.44343
-1.4676
-1.49169
-1.51571
-1.53965
-1.56351
-1.58729
-1.61097
-1.63458
-1.65811
-1.68155
-1.70493
-1.72824
-1.75153
-1.77516
-1.79983
-1.82616
-1.85322
-1.87795
-1.89636
2.49069
2.48208
2.46984
2.45473
2.43877
2.4232
2.40821
2.3934
2.37845
2.36324
2.34777
2.33203
2.31604
2.29981
2.28332
2.26661
2.24966
2.23249
2.21512
2.19754
2.17977
2.1618
2.14366
2.12534
2.10685
2.0882
2.06939
2.05043
2.03132
2.01208
1.9927
1.9732
1.95357
1.93382
1.91397
1.894
1.87393
1.85375
1.83349
1.81312
1.79268
1.77214
1.75152
1.73082
1.71005
1.68919
1.66828
1.64729
1.62623
1.60511
1.58393
1.56269
1.54139
1.52003
1.49863
1.47716
1.45565
1.43409
1.41248
1.39082
1.36912
1.34737
1.32558
1.30375
1.28187
1.25996
1.23801
1.21602
1.19399
1.17193
1.14983
1.12769
1.10552
1.08331
1.06107
1.0388
1.0165
0.994156
0.971786
0.949385
0.926953
0.904485
0.881991
0.859464
0.836909
0.814318
0.791702
0.769053
0.746376
0.723666
0.700927
0.67816
0.655361
0.632531
0.609674
0.586785
0.563867
0.540917
0.517937
0.494929
0.471887
0.448818
0.425716
0.402584
0.379422
0.356228
0.333005
0.309747
0.28646
0.263143
0.239792
0.216409
0.192997
0.16955
0.146074
0.122561
0.0990205
0.0754457
0.0518397
0.0281961
0.00452531
-0.0191784
-0.0429168
-0.0666891
-0.0904906
-0.114328
-0.138196
-0.162099
-0.186031
-0.209999
-0.233999
-0.258028
-0.282089
-0.306186
-0.330314
-0.35447
-0.378659
-0.40288
-0.427131
-0.451409
-0.475716
-0.500055
-0.524421
-0.548815
-0.573238
-0.597685
-0.622155
-0.646655
-0.671178
-0.695719
-0.720289
-0.744872
-0.769478
-0.794103
-0.818742
-0.8434
-0.868073
-0.892749
-0.917444
-0.942148
-0.966852
-0.991565
-1.01628
-1.041
-1.06571
-1.09041
-1.11511
-1.1398
-1.16448
-1.18913
-1.21377
-1.23839
-1.26297
-1.28753
-1.31205
-1.33654
-1.36098
-1.38537
-1.4097
-1.43398
-1.45819
-1.48234
-1.50641
-1.5304
-1.55429
-1.5781
-1.60183
-1.62546
-1.649
-1.67246
-1.69585
-1.71916
-1.74243
-1.76586
-1.79001
-1.81554
-1.8422
-1.86802
-1.8898
-1.90619
2.49702
2.48817
2.47738
2.46375
2.44832
2.4326
2.41735
2.40249
2.38764
2.37261
2.35732
2.34175
2.32593
2.30986
2.29352
2.27695
2.26015
2.24311
2.22585
2.20839
2.19072
2.17285
2.15479
2.13655
2.11813
2.09954
2.08078
2.06187
2.0428
2.02359
2.00423
1.98474
1.96512
1.94537
1.9255
1.90552
1.88543
1.86522
1.84491
1.8245
1.80401
1.78341
1.76272
1.74195
1.7211
1.70017
1.67916
1.65807
1.63691
1.61569
1.5944
1.57304
1.55161
1.53013
1.50858
1.48698
1.46532
1.44361
1.42185
1.40003
1.37816
1.35625
1.33429
1.31228
1.29023
1.26813
1.24599
1.22381
1.20158
1.17932
1.15702
1.13467
1.11229
1.08988
1.06742
1.04493
1.0224
0.999841
0.977242
0.954612
0.931945
0.909246
0.886513
0.863748
0.840949
0.818114
0.795255
0.772356
0.74943
0.726468
0.703478
0.680453
0.6574
0.634311
0.611196
0.588047
0.564867
0.541658
0.518413
0.495141
0.471835
0.448501
0.425131
0.401735
0.378305
0.354843
0.331354
0.307827
0.284275
0.260687
0.23707
0.213419
0.18974
0.166025
0.142285
0.118507
0.0946992
0.0708615
0.0469915
0.0230896
-0.000844495
-0.0248084
-0.048807
-0.0728319
-0.0968944
-0.120981
-0.145107
-0.169255
-0.193438
-0.217654
-0.241899
-0.26617
-0.290474
-0.314806
-0.339169
-0.363559
-0.387979
-0.412424
-0.4369
-0.461401
-0.485927
-0.510482
-0.535056
-0.559659
-0.584286
-0.608931
-0.633601
-0.658293
-0.683005
-0.707732
-0.732477
-0.757234
-0.78201
-0.806802
-0.831601
-0.856416
-0.881236
-0.906059
-0.930895
-0.955731
-0.980562
-1.0054
-1.03023
-1.05505
-1.07987
-1.10467
-1.12946
-1.15423
-1.17898
-1.20371
-1.22842
-1.25308
-1.27772
-1.30231
-1.32687
-1.35138
-1.37583
-1.40023
-1.42457
-1.44884
-1.47304
-1.49715
-1.52118
-1.54513
-1.56898
-1.59273
-1.6164
-1.63997
-1.66345
-1.68685
-1.71017
-1.73342
-1.75676
-1.78053
-1.80536
-1.83142
-1.85754
-1.88129
-1.90106
-1.91816
2.50371
2.49418
2.48418
2.472
2.45757
2.44207
2.42665
2.41164
2.39682
2.38192
2.3668
2.35142
2.33577
2.31986
2.30369
2.28727
2.27061
2.25371
2.23658
2.21924
2.20168
2.18391
2.16595
2.1478
2.12945
2.11093
2.09224
2.07338
2.05435
2.03518
2.01585
1.99638
1.97677
1.95702
1.93715
1.91716
1.89705
1.87681
1.85647
1.83603
1.81548
1.79483
1.77408
1.75325
1.73232
1.7113
1.6902
1.66903
1.64777
1.62644
1.60503
1.58356
1.56201
1.5404
1.51872
1.49698
1.47518
1.45332
1.4314
1.40942
1.38739
1.36531
1.34317
1.32099
1.29875
1.27647
1.25414
1.23177
1.20935
1.18688
1.16437
1.14182
1.11923
1.0966
1.07392
1.05121
1.02845
1.00567
0.982837
0.95997
0.937069
0.91413
0.891153
0.868143
0.845098
0.822017
0.798903
0.775752
0.75257
0.729352
0.706103
0.682818
0.659502
0.636154
0.612768
0.589359
0.565908
0.542431
0.518917
0.495375
0.471797
0.448192
0.42455
0.400882
0.377175
0.353446
0.329675
0.30588
0.282052
0.25819
0.2343
0.210376
0.186424
0.162436
0.138422
0.114374
0.0902964
0.0661881
0.0420465
0.0178766
-0.00632134
-0.0305528
-0.0548141
-0.0791021
-0.103425
-0.127773
-0.152153
-0.176558
-0.200997
-0.225459
-0.249954
-0.274473
-0.299022
-0.323597
-0.348196
-0.372822
-0.397479
-0.422152
-0.446855
-0.471576
-0.496328
-0.521097
-0.545889
-0.570697
-0.595531
-0.620376
-0.645244
-0.670129
-0.695026
-0.719937
-0.744864
-0.7698
-0.794745
-0.819696
-0.84466
-0.869626
-0.894595
-0.919561
-0.944534
-0.969496
-0.994461
-1.01941
-1.04435
-1.06929
-1.0942
-1.1191
-1.14397
-1.16882
-1.19365
-1.21843
-1.24319
-1.26791
-1.29259
-1.31722
-1.3418
-1.36633
-1.3908
-1.41519
-1.43952
-1.46378
-1.48795
-1.51203
-1.53603
-1.55992
-1.58371
-1.60741
-1.63101
-1.65451
-1.67793
-1.70126
-1.72452
-1.7478
-1.77133
-1.79561
-1.82101
-1.84702
-1.87184
-1.89357
-1.91239
-1.93093
2.51031
2.50031
2.49054
2.4795
2.4663
2.45143
2.43604
2.42088
2.40602
2.3912
2.37623
2.36103
2.34556
2.32982
2.31382
2.29756
2.28105
2.2643
2.24731
2.23009
2.21265
2.19499
2.17713
2.15907
2.14082
2.12237
2.10374
2.08494
2.06597
2.04684
2.02755
2.0081
1.98852
1.96878
1.94891
1.92891
1.90879
1.88854
1.86817
1.84769
1.82709
1.8064
1.78559
1.76469
1.7437
1.7226
1.70142
1.68015
1.6588
1.63737
1.61585
1.59426
1.57259
1.55085
1.52904
1.50717
1.48522
1.46321
1.44114
1.41901
1.39681
1.37456
1.35225
1.32989
1.30747
1.285
1.26248
1.23991
1.21729
1.19462
1.1719
1.14914
1.12633
1.10348
1.08058
1.05764
1.03466
1.01164
0.988573
0.965468
0.942323
0.919142
0.895917
0.872658
0.849362
0.826025
0.802654
0.779245
0.755805
0.732321
0.708809
0.685257
0.661673
0.638054
0.6144
0.590714
0.566993
0.543239
0.51945
0.495631
0.471776
0.447892
0.423972
0.400022
0.376038
0.352025
0.327978
0.3039
0.279791
0.255648
0.23148
0.207273
0.183043
0.158777
0.134483
0.110156
0.0858031
0.0614198
0.0370024
0.0125612
-0.0119131
-0.0364152
-0.0609456
-0.0855037
-0.110089
-0.134703
-0.159345
-0.184012
-0.208707
-0.233428
-0.258174
-0.282944
-0.307741
-0.33256
-0.357405
-0.382272
-0.407159
-0.432071
-0.457001
-0.481952
-0.506923
-0.531907
-0.556918
-0.58194
-0.606978
-0.632026
-0.657092
-0.682169
-0.707252
-0.732349
-0.757457
-0.782569
-0.80768
-0.832797
-0.857917
-0.883036
-0.908148
-0.933261
-0.958364
-0.983457
-1.00854
-1.03361
-1.05866
-1.08369
-1.1087
-1.13368
-1.15864
-1.18357
-1.20845
-1.23331
-1.25811
-1.28288
-1.30759
-1.33225
-1.35684
-1.38139
-1.40585
-1.43025
-1.45455
-1.47879
-1.50293
-1.52697
-1.55091
-1.57476
-1.59849
-1.62213
-1.64566
-1.66909
-1.69244
-1.7157
-1.73895
-1.76235
-1.78623
-1.81101
-1.83664
-1.86197
-1.88512
-1.90533
-1.92411
-1.94376
2.51657
2.50643
2.49664
2.48637
2.47437
2.46043
2.4454
2.43021
2.41526
2.40046
2.38562
2.37058
2.35528
2.33972
2.3239
2.30781
2.29146
2.27486
2.25801
2.24093
2.22362
2.20609
2.18833
2.17037
2.15221
2.13385
2.1153
2.09657
2.07766
2.05858
2.03933
2.01992
2.00036
1.98064
1.96078
1.94078
1.92065
1.90039
1.88
1.85949
1.83885
1.81811
1.79726
1.7763
1.75524
1.73407
1.71281
1.69146
1.67001
1.64847
1.62685
1.60515
1.58336
1.5615
1.53955
1.51754
1.49546
1.4733
1.45107
1.42878
1.40642
1.384
1.36152
1.33898
1.31638
1.29372
1.271
1.24823
1.22541
1.20253
1.17961
1.15663
1.1336
1.11052
1.0874
1.06423
1.04102
1.01776
0.994453
0.971109
0.947714
0.924286
0.900811
0.877295
0.853743
0.830145
0.806512
0.78284
0.759129
0.735381
0.711596
0.687771
0.663914
0.640017
0.616088
0.592121
0.56812
0.544086
0.520013
0.49591
0.471772
0.447602
0.423395
0.39916
0.37489
0.350587
0.326255
0.301887
0.277493
0.253062
0.228603
0.204114
0.179594
0.155044
0.130466
0.105853
0.0812182
0.0565497
0.0318532
0.00713406
-0.0176218
-0.0423967
-0.0672057
-0.0920379
-0.116894
-0.141779
-0.166685
-0.191621
-0.216577
-0.24156
-0.266564
-0.291589
-0.31664
-0.341708
-0.366799
-0.391907
-0.417036
-0.442181
-0.467345
-0.492525
-0.517722
-0.542927
-0.568151
-0.593386
-0.618631
-0.643883
-0.669154
-0.694419
-0.719698
-0.744974
-0.770259
-0.795542
-0.820827
-0.846102
-0.871379
-0.896647
-0.921906
-0.947153
-0.97239
-0.997604
-1.02281
-1.04799
-1.07315
-1.09828
-1.12337
-1.14844
-1.17347
-1.19847
-1.22342
-1.24832
-1.27317
-1.29798
-1.32271
-1.34739
-1.372
-1.39655
-1.42101
-1.44538
-1.46968
-1.49387
-1.51798
-1.54197
-1.56586
-1.58964
-1.61331
-1.63688
-1.66034
-1.6837
-1.70698
-1.73022
-1.75351
-1.77713
-1.80142
-1.82655
-1.85192
-1.87604
-1.89757
-1.91688
-1.93603
-1.95627
2.52247
2.5125
2.50268
2.49279
2.4818
2.46894
2.45457
2.43955
2.42457
2.40975
2.39497
2.38007
2.36495
2.34958
2.33393
2.31801
2.30184
2.2854
2.2687
2.25176
2.23459
2.21718
2.19955
2.1817
2.16364
2.14537
2.12691
2.10825
2.08941
2.07039
2.05119
2.03182
2.01229
1.9926
1.97276
1.95277
1.93264
1.91237
1.89196
1.87142
1.85076
1.82998
1.80908
1.78806
1.76694
1.7457
1.72437
1.70293
1.68139
1.65976
1.63804
1.61622
1.59432
1.57233
1.55026
1.52811
1.50588
1.48358
1.4612
1.43875
1.41623
1.39364
1.37098
1.34826
1.32547
1.30262
1.27971
1.25675
1.23372
1.21063
1.18749
1.1643
1.14105
1.11775
1.09439
1.07099
1.04754
1.02404
1.00049
0.976893
0.953253
0.929565
0.905836
0.882059
0.858243
0.834382
0.81048
0.786537
0.762553
0.73853
0.714468
0.690365
0.666225
0.642049
0.617832
0.59358
0.569294
0.544967
0.520609
0.496213
0.471784
0.447319
0.422824
0.398291
0.373729
0.349132
0.324503
0.299844
0.275152
0.250428
0.225675
0.200892
0.176079
0.151236
0.126364
0.101463
0.0765375
0.0515792
0.0265977
0.00158676
-0.0234475
-0.04851
-0.0735951
-0.098709
-0.123846
-0.149002
-0.174184
-0.199386
-0.224614
-0.249861
-0.275125
-0.300413
-0.32572
-0.351041
-0.37638
-0.401737
-0.427105
-0.452493
-0.477891
-0.503304
-0.528724
-0.554155
-0.579599
-0.605043
-0.630497
-0.655957
-0.681424
-0.706889
-0.732352
-0.757815
-0.783273
-0.808732
-0.834178
-0.859622
-0.885047
-0.910469
-0.935865
-0.961247
-0.986613
-1.01195
-1.03727
-1.06255
-1.08781
-1.11304
-1.13822
-1.16337
-1.18847
-1.21352
-1.23853
-1.26348
-1.28838
-1.3132
-1.33796
-1.36266
-1.38727
-1.41181
-1.43626
-1.46062
-1.48488
-1.50903
-1.53309
-1.55703
-1.58086
-1.60458
-1.62817
-1.65167
-1.67505
-1.69834
-1.72158
-1.74483
-1.76826
-1.79218
-1.81681
-1.84195
-1.86656
-1.88928
-1.90952
-1.92854
-1.94809
-1.96842
2.52802
2.51843
2.50869
2.49896
2.48866
2.47687
2.46336
2.44879
2.43389
2.41906
2.40432
2.38953
2.37457
2.35937
2.34391
2.32817
2.31217
2.2959
2.27937
2.26258
2.24555
2.22828
2.21078
2.19304
2.1751
2.15693
2.13856
2.11999
2.10122
2.08227
2.06313
2.04381
2.02432
2.00466
1.98485
1.96487
1.94474
1.92446
1.90405
1.8835
1.86281
1.84199
1.82105
1.79999
1.77881
1.75751
1.7361
1.71458
1.69296
1.67123
1.64941
1.62749
1.60547
1.58336
1.56117
1.53888
1.51651
1.49406
1.47153
1.44892
1.42624
1.40348
1.38065
1.35774
1.33477
1.31173
1.28862
1.26545
1.24222
1.21892
1.19556
1.17215
1.14867
1.12514
1.10156
1.07792
1.05422
1.03048
1.00668
0.982833
0.958935
0.934989
0.910994
0.886956
0.862869
0.838737
0.814563
0.790339
0.766081
0.741774
0.717427
0.69304
0.668613
0.644144
0.619639
0.595094
0.57051
0.545891
0.521234
0.496541
0.471813
0.447049
0.422251
0.397421
0.372554
0.347655
0.322727
0.297763
0.27277
0.247745
0.22269
0.197604
0.172494
0.147347
0.122179
0.0969801
0.0717544
0.0465052
0.0212267
-0.00407592
-0.0294029
-0.0547535
-0.0801276
-0.105523
-0.130942
-0.156384
-0.181842
-0.20732
-0.23282
-0.258334
-0.283869
-0.309421
-0.334985
-0.360566
-0.386157
-0.411764
-0.437384
-0.46301
-0.488644
-0.514292
-0.53994
-0.565598
-0.591259
-0.616921
-0.642584
-0.668254
-0.693912
-0.719571
-0.745224
-0.770871
-0.796508
-0.822138
-0.847749
-0.873347
-0.898929
-0.924493
-0.950032
-0.975544
-1.00103
-1.0265
-1.05192
-1.07731
-1.10266
-1.12797
-1.15324
-1.17847
-1.20363
-1.22874
-1.2538
-1.27878
-1.30371
-1.32856
-1.35334
-1.37804
-1.40265
-1.42718
-1.4516
-1.47593
-1.50015
-1.52426
-1.54826
-1.57214
-1.59591
-1.61955
-1.64307
-1.66649
-1.6898
-1.71304
-1.73626
-1.75957
-1.78322
-1.80743
-1.8322
-1.85695
-1.88048
-1.9018
-1.92126
-1.94036
-1.96014
-1.98023
2.53329
2.52422
2.51466
2.50499
2.49512
2.48421
2.47168
2.45777
2.44315
2.42839
2.41368
2.39897
2.38414
2.36911
2.35383
2.33828
2.32246
2.30636
2.29
2.27338
2.2565
2.23938
2.22201
2.2044
2.18657
2.16852
2.15025
2.13177
2.11309
2.09421
2.07513
2.05588
2.03643
2.01682
1.99703
1.97708
1.95696
1.9367
1.91628
1.89572
1.87501
1.85416
1.83318
1.81208
1.79084
1.76948
1.74801
1.72641
1.70471
1.68289
1.66097
1.63895
1.61682
1.59459
1.57227
1.54985
1.52735
1.50475
1.48207
1.4593
1.43645
1.41352
1.39051
1.36743
1.34427
1.32103
1.29773
1.27436
1.25091
1.2274
1.20383
1.18019
1.15649
1.13273
1.1089
1.08502
1.06108
1.03708
1.01303
0.988929
0.96477
0.940557
0.916298
0.891985
0.867627
0.843215
0.81876
0.794257
0.769708
0.745116
0.720479
0.695797
0.671077
0.64631
0.621509
0.596661
0.571778
0.546854
0.521893
0.496894
0.47186
0.446789
0.421683
0.396541
0.371368
0.346157
0.320921
0.295645
0.270344
0.245009
0.219645
0.194253
0.16883
0.143381
0.117905
0.0923991
0.0668729
0.0413174
0.0157416
-0.00986326
-0.0354882
-0.0611336
-0.0868015
-0.112489
-0.138198
-0.163921
-0.189667
-0.215427
-0.241202
-0.266994
-0.292799
-0.318619
-0.344448
-0.370287
-0.396139
-0.421998
-0.447866
-0.473738
-0.499616
-0.525493
-0.551378
-0.57726
-0.603139
-0.629021
-0.654894
-0.680768
-0.706628
-0.732479
-0.758325
-0.784152
-0.809964
-0.83576
-0.861537
-0.887291
-0.913022
-0.938731
-0.964408
-0.99005
-1.01566
-1.04123
-1.06677
-1.09226
-1.1177
-1.14309
-1.16843
-1.19372
-1.21895
-1.24411
-1.26921
-1.29423
-1.31918
-1.34405
-1.36883
-1.39353
-1.41813
-1.44263
-1.46703
-1.49132
-1.5155
-1.53956
-1.56349
-1.5873
-1.611
-1.63456
-1.65801
-1.68135
-1.7046
-1.7278
-1.75105
-1.7745
-1.79836
-1.82275
-1.84738
-1.87138
-1.89366
-1.91388
-1.93299
-1.95235
-1.97219
-1.99182
2.53828
2.52975
2.52051
2.51094
2.50132
2.49106
2.47947
2.46638
2.45225
2.43767
2.42303
2.40838
2.39368
2.3788
2.3637
2.34834
2.3327
2.31679
2.3006
2.28415
2.26743
2.25046
2.23324
2.21577
2.19807
2.18014
2.16198
2.1436
2.12501
2.10621
2.08721
2.06802
2.04864
2.02907
2.00932
1.9894
1.96931
1.94905
1.92864
1.90807
1.88735
1.86648
1.84547
1.82433
1.80304
1.78163
1.76009
1.73843
1.71665
1.69474
1.67273
1.6506
1.62837
1.60602
1.58358
1.56103
1.53839
1.51565
1.49282
1.46989
1.44688
1.42378
1.40059
1.37733
1.35398
1.33055
1.30705
1.28347
1.25981
1.23609
1.21229
1.18843
1.16449
1.14049
1.11643
1.0923
1.06811
1.04386
1.01955
0.995184
0.970761
0.946279
0.921746
0.897154
0.872515
0.847823
0.823078
0.798288
0.773448
0.748557
0.723627
0.698641
0.673621
0.648551
0.623441
0.598286
0.573095
0.547858
0.522586
0.497273
0.471925
0.446538
0.421117
0.395657
0.370168
0.34464
0.319083
0.293491
0.267874
0.242217
0.216541
0.190828
0.165092
0.139329
0.113537
0.087722
0.0618835
0.0360162
0.0101329
-0.0157774
-0.0417043
-0.0676542
-0.093623
-0.119606
-0.145611
-0.171629
-0.197662
-0.223708
-0.249768
-0.275839
-0.301924
-0.328012
-0.354109
-0.380216
-0.406329
-0.432445
-0.458561
-0.484682
-0.510803
-0.53692
-0.563035
-0.589149
-0.61525
-0.641346
-0.667434
-0.693511
-0.719572
-0.745621
-0.771646
-0.79766
-0.823645
-0.849613
-0.875546
-0.901459
-0.927335
-0.953183
-0.978994
-1.00476
-1.03049
-1.05617
-1.08181
-1.10739
-1.13292
-1.15839
-1.1838
-1.20915
-1.23443
-1.25964
-1.28477
-1.30982
-1.33478
-1.35966
-1.38444
-1.40913
-1.43371
-1.45819
-1.48255
-1.50679
-1.53092
-1.55491
-1.57878
-1.60252
-1.62613
-1.64962
-1.67299
-1.69626
-1.71945
-1.74265
-1.76596
-1.78957
-1.81361
-1.83799
-1.86215
-1.88515
-1.90624
-1.92574
-1.9448
-1.96436
-1.98407
-2.00319
2.54297
2.535
2.52621
2.51684
2.50736
2.49755
2.48674
2.47453
2.46106
2.44683
2.43234
2.41779
2.40318
2.38845
2.37351
2.35834
2.34289
2.32717
2.31116
2.29489
2.27834
2.26154
2.24447
2.22715
2.20958
2.19178
2.17374
2.15547
2.13698
2.11828
2.09936
2.08024
2.06092
2.04141
2.02171
2.00182
1.98176
1.96153
1.94113
1.92056
1.89983
1.87895
1.85792
1.83674
1.81542
1.79395
1.77236
1.75063
1.72877
1.70679
1.68468
1.66245
1.64011
1.61766
1.59509
1.57242
1.54964
1.52676
1.50378
1.4807
1.45752
1.43425
1.41089
1.38744
1.36391
1.34028
1.31658
1.29279
1.26892
1.24498
1.22096
1.19686
1.17269
1.14846
1.12415
1.09977
1.07533
1.05082
1.02624
1.00161
0.976916
0.952156
0.927345
0.90247
0.877545
0.852561
0.827524
0.802438
0.777295
0.752107
0.726868
0.701579
0.676246
0.650866
0.62544
0.599973
0.574461
0.548908
0.523315
0.497679
0.472009
0.446297
0.420551
0.394769
0.368951
0.343101
0.317216
0.2913
0.265354
0.239375
0.213369
0.187337
0.161273
0.135189
0.109076
0.082939
0.0567826
0.0305989
0.00440009
-0.0218248
-0.0480644
-0.0743185
-0.100596
-0.126884
-0.153187
-0.179504
-0.205833
-0.232172
-0.25852
-0.284878
-0.311241
-0.33761
-0.363981
-0.390356
-0.416732
-0.443108
-0.469482
-0.49585
-0.522217
-0.548577
-0.574925
-0.601268
-0.627596
-0.653909
-0.680207
-0.706489
-0.73275
-0.758991
-0.785205
-0.811397
-0.837557
-0.863693
-0.889785
-0.915847
-0.941868
-0.967854
-0.993792
-1.01968
-1.04552
-1.07131
-1.09705
-1.12272
-1.14833
-1.17387
-1.19934
-1.22474
-1.25007
-1.27532
-1.30047
-1.32555
-1.35052
-1.37539
-1.40017
-1.42484
-1.44939
-1.47383
-1.49815
-1.52234
-1.5464
-1.57033
-1.59412
-1.61778
-1.64131
-1.66471
-1.688
-1.71121
-1.73438
-1.7576
-1.78101
-1.80476
-1.82885
-1.85298
-1.87638
-1.89828
-1.91845
-1.93758
-1.95676
-1.97635
-1.9957
-2.01432
2.54739
2.53998
2.53169
2.52262
2.51328
2.50375
2.49358
2.4822
2.4695
2.45579
2.44156
2.42715
2.41265
2.39805
2.38328
2.36828
2.35302
2.33749
2.32169
2.3056
2.28923
2.27259
2.25569
2.23852
2.2211
2.20343
2.18552
2.16737
2.149
2.1304
2.11157
2.09254
2.07329
2.05384
2.0342
2.01436
1.99434
1.97413
1.95375
1.93319
1.91246
1.89157
1.87052
1.84932
1.82796
1.80645
1.7848
1.76301
1.74109
1.71902
1.69683
1.67452
1.65207
1.62951
1.60682
1.58402
1.56111
1.53809
1.51496
1.49173
1.46839
1.44495
1.42141
1.39778
1.37405
1.35023
1.32633
1.30233
1.27825
1.25408
1.22984
1.20551
1.1811
1.15662
1.13206
1.10743
1.08273
1.05796
1.03312
1.00821
0.983235
0.958199
0.933098
0.907941
0.882715
0.857439
0.832101
0.806711
0.781262
0.755764
0.730212
0.704609
0.678959
0.653257
0.627513
0.601721
0.575882
0.55
0.524081
0.498114
0.472113
0.446067
0.419991
0.393873
0.36772
0.341534
0.315318
0.289065
0.262785
0.236473
0.210134
0.183768
0.157373
0.130958
0.104514
0.0780528
0.0515624
0.0250612
-0.00146436
-0.0280054
-0.0545665
-0.0811376
-0.107729
-0.134324
-0.16094
-0.187557
-0.214188
-0.240824
-0.267466
-0.294115
-0.320762
-0.347411
-0.374063
-0.400711
-0.427356
-0.453992
-0.480628
-0.50725
-0.533864
-0.560466
-0.587054
-0.613625
-0.640175
-0.666711
-0.69322
-0.719709
-0.746171
-0.7726
-0.799007
-0.825374
-0.851705
-0.878004
-0.904255
-0.930465
-0.956627
-0.982743
-1.00881
-1.03482
-1.06077
-1.08665
-1.11248
-1.13823
-1.16392
-1.18953
-1.21506
-1.24051
-1.26587
-1.29114
-1.31633
-1.3414
-1.36638
-1.39125
-1.41601
-1.44065
-1.46517
-1.48957
-1.51383
-1.53796
-1.56195
-1.5858
-1.60952
-1.63309
-1.65653
-1.67984
-1.70307
-1.72623
-1.74939
-1.77266
-1.79617
-1.81998
-1.84394
-1.86755
-1.89004
-1.91093
-1.93041
-1.94944
-1.96876
-1.98825
-2.00716
-2.02525
2.55152
2.54463
2.53688
2.52825
2.51912
2.50979
2.50006
2.48941
2.4775
2.46444
2.45062
2.43642
2.42207
2.4076
2.39298
2.37817
2.3631
2.34777
2.33216
2.31626
2.30008
2.28362
2.26689
2.24989
2.23262
2.21511
2.19733
2.17931
2.16106
2.14256
2.12385
2.1049
2.08574
2.06636
2.04678
2.027
2.00703
1.98685
1.9665
1.94596
1.92523
1.90434
1.88329
1.86206
1.84067
1.81913
1.79744
1.77559
1.7536
1.73146
1.70919
1.68678
1.66424
1.64157
1.61877
1.59585
1.57281
1.54964
1.52637
1.50298
1.47948
1.45587
1.43216
1.40834
1.38443
1.36041
1.3363
1.31209
1.2878
1.26341
1.23893
1.21437
1.18972
1.16499
1.14018
1.1153
1.09033
1.06529
1.04018
1.01499
0.989732
0.964412
0.939016
0.913562
0.88804
0.862458
0.836815
0.811111
0.785353
0.759532
0.733664
0.707737
0.681761
0.655732
0.629656
0.60353
0.577359
0.551143
0.524884
0.498578
0.472237
0.445851
0.41943
0.392971
0.366476
0.339946
0.313384
0.286789
0.260165
0.233509
0.206831
0.180119
0.153388
0.126629
0.0998507
0.0730505
0.0462292
0.0193939
-0.00746633
-0.0343319
-0.0612172
-0.0881155
-0.115021
-0.141938
-0.168866
-0.195796
-0.222732
-0.249672
-0.276617
-0.303555
-0.330497
-0.357433
-0.384364
-0.411289
-0.438205
-0.465114
-0.492007
-0.518884
-0.545748
-0.572598
-0.599421
-0.626227
-0.653003
-0.679756
-0.706482
-0.733174
-0.759836
-0.78646
-0.813046
-0.839593
-0.866091
-0.892551
-0.918955
-0.945313
-0.971611
-0.997859
-1.02404
-1.05016
-1.07622
-1.1022
-1.12812
-1.15395
-1.1797
-1.20537
-1.23095
-1.25644
-1.28183
-1.30713
-1.33232
-1.3574
-1.38237
-1.40723
-1.43196
-1.45657
-1.48104
-1.50538
-1.52958
-1.55364
-1.57756
-1.60133
-1.62495
-1.64843
-1.67179
-1.69503
-1.71818
-1.7413
-1.76448
-1.78781
-1.81137
-1.83513
-1.85874
-1.88163
-1.90316
-1.92321
-1.94233
-1.96139
-1.98073
-1.99991
-2.01834
-2.03595
2.55532
2.54896
2.54179
2.53364
2.52483
2.51569
2.50628
2.49621
2.48507
2.47273
2.45944
2.44557
2.43142
2.4171
2.40264
2.388
2.37312
2.35798
2.34257
2.32687
2.31089
2.29462
2.27807
2.26124
2.24415
2.22678
2.20916
2.19128
2.17315
2.15478
2.13617
2.11733
2.09826
2.07897
2.05946
2.03974
2.01982
1.9997
1.97937
1.95886
1.93815
1.91727
1.89621
1.87497
1.85356
1.83199
1.81025
1.78835
1.76631
1.74411
1.72175
1.69926
1.67662
1.65385
1.63094
1.6079
1.58473
1.56143
1.53801
1.51447
1.49081
1.46703
1.44315
1.41914
1.39504
1.37083
1.34651
1.32209
1.29757
1.27296
1.24825
1.22345
1.19856
1.17358
1.14851
1.12336
1.09813
1.07282
1.04742
1.02196
0.996412
0.970795
0.945104
0.919345
0.893519
0.867624
0.841667
0.815648
0.789564
0.763423
0.737224
0.710966
0.684656
0.658289
0.631876
0.605407
0.578895
0.552332
0.525726
0.499073
0.472383
0.445646
0.418874
0.392061
0.365216
0.338331
0.311418
0.284468
0.257493
0.230485
0.203452
0.176394
0.14931
0.122206
0.095081
0.0679341
0.0407727
0.0135926
-0.0136025
-0.0408079
-0.0680264
-0.0952529
-0.122488
-0.149731
-0.176976
-0.204223
-0.231474
-0.258725
-0.28597
-0.313213
-0.340447
-0.367677
-0.394894
-0.422102
-0.449293
-0.476471
-0.503627
-0.530767
-0.557882
-0.584972
-0.612043
-0.639074
-0.666085
-0.693056
-0.719993
-0.746893
-0.773748
-0.800564
-0.827334
-0.854053
-0.880726
-0.907339