/*--------------------------------*- C++ -*----------------------------------*\
  =========                 |
  \\      /  F ield         | OpenFOAM: The Open Source CFD Toolbox
   \\    /   O peration     | Website:  https://openfoam.org
    \\  /    A nd           | Version:  8
     \\/     M anipulation  |
\*---------------------------------------------------------------------------*/
FoamFile
{
    version     2.0;
    format      ascii;
    class       surfaceScalarField;
    location    "0.05";
    object      phi;
}
// * * * * * * * * * * * * * * * * * * * * * * * * * * * * * * * * * * * * * //

dimensions      [0 3 -1 0 0 0 0];

internalField   nonuniform List<scalar> 
223933
(
-0.00359953
0.0263995
-0.00840032
0.0708008
-0.0119995
0.115199
-0.0167984
0.159599
-0.0215972
0.203999
-0.0251963
0.248399
-0.0287954
0.291599
-0.0323946
0.335999
-0.0359937
0.379199
-0.0395927
0.424799
-0.0419918
0.466799
-0.0455908
0.511199
-0.0491898
0.555599
-0.0527888
0.597599
-0.0539878
0.640799
-0.0575868
0.685199
-0.0611857
0.727199
-0.0635847
0.770399
-0.0659836
0.812399
-0.0671826
0.854399
-0.0707815
0.897599
-0.0719804
0.938399
-0.0743794
0.980399
-0.0755783
1.0224
-0.0779772
1.0632
-0.0791761
1.104
-0.081575
1.146
-0.0827739
1.1844
-0.0839728
1.2252
-0.0863717
1.266
-0.0875706
1.3044
-0.0887695
1.344
-0.0899685
1.3824
-0.0899674
1.4208
-0.0911664
1.4592
-0.0911653
1.4964
-0.0923643
1.5348
-0.0935632
1.572
-0.0935621
1.608
-0.0947611
1.644
-0.0947601
1.68
-0.094759
1.716
-0.0947581
1.7496
-0.094757
1.7856
-0.094756
1.8192
-0.094755
1.8528
-0.094754
1.8864
-0.0935531
1.9188
-0.0935521
1.9512
-0.0935512
1.9836
-0.0923503
2.0136
-0.0923493
2.046
-0.0911484
2.0748
-0.0905475
2.10564
-0.0897067
2.13468
-0.0887458
2.16336
-0.0877849
2.19168
-0.0868241
2.2194
-0.0856233
2.24652
-0.0844224
2.27304
-0.0832217
2.2992
-0.0819009
2.32464
-0.0804601
2.34948
-0.0790194
2.37384
-0.0775786
2.3976
-0.0760179
2.42076
-0.0743372
2.4432
-0.0727764
2.46528
-0.0710958
2.48664
-0.0692951
2.50728
-0.0674945
2.52744
-0.0655739
2.54688
-0.0636533
2.56572
-0.0616127
2.58396
-0.0595721
2.6016
-0.0576516
2.61864
-0.055491
2.63484
-0.0533305
2.65044
-0.05117
2.66556
-0.0488895
2.67984
-0.0467291
2.69364
-0.0445686
2.7066
-0.0421681
2.71884
-0.0398877
2.73072
-0.0374874
2.74164
-0.035087
2.75196
-0.0326866
2.76168
-0.0302863
2.77068
-0.027886
2.77896
-0.0253657
2.78652
-0.0228453
2.79348
-0.0203251
2.79972
-0.0178048
2.80536
-0.0151647
2.81004
-0.0127645
2.81436
-0.0101843
2.8178
-0.00762813
2.82058
-0.00505995
2.82266
-0.00249189
2.82404
7.62738e-05
2.82475
0.0026443
2.82475
0.00521244
2.82404
0.00778045
2.82266
0.0103365
2.82058
0.0129165
2.8178
0.0153165
2.81436
0.0179565
2.81004
0.0204764
2.80536
0.0229964
2.79972
0.0255162
2.79348
0.0280361
2.78652
0.030436
2.77896
0.0328358
2.77068
0.0352356
2.76168
0.0376354
2.75196
0.0400353
2.74164
0.042315
2.73072
0.0447148
2.71884
0.0468745
2.7066
0.0490342
2.69364
0.0513139
2.67984
0.0534736
2.66556
0.0556332
2.65044
0.0577928
2.63484
0.0597125
2.61864
0.061752
2.6016
0.0637915
2.58396
0.0657111
2.56572
0.0676307
2.54688
0.0694301
2.52744
0.0712297
2.50728
0.0729091
2.48664
0.0744685
2.46528
0.0761479
2.4432
0.0777074
2.42076
0.0791467
2.3976
0.0805861
2.37384
0.0820254
2.34948
0.0833447
2.32464
0.0845441
2.2992
0.0857434
2.27304
0.0869426
2.24652
0.0879019
2.2194
0.0888611
2.19168
0.0898203
2.16336
0.0906596
2.13468
0.0912587
2.10564
0.0924579
2.0748
0.092457
2.046
0.0936561
2.0136
0.0936552
1.9836
0.0936543
1.9512
0.0948534
1.9188
0.0948524
1.8864
0.0948515
1.8528
0.0948505
1.8192
0.0948495
1.7856
0.0948485
1.7496
0.0948475
1.716
0.0948465
1.68
0.0936454
1.644
0.0936443
1.608
0.0924432
1.572
0.0912421
1.5348
0.091241
1.4964
0.0900399
1.4592
0.0900388
1.4208
0.0888376
1.3824
0.0876364
1.344
0.0864353
1.3044
0.084034
1.266
0.0828329
1.2252
0.0816317
1.1844
0.0792305
1.146
0.0780293
1.104
0.075628
1.0632
0.0744268
1.0224
0.0720256
0.980401
0.0708245
0.938401
0.0672232
0.897601
0.066022
0.854401
0.0636208
0.812401
0.0612195
0.770401
0.0576182
0.727201
0.0540169
0.685201
0.0528157
0.640801
0.0492144
0.597601
0.045613
0.555601
0.0420117
0.511201
0.0396105
0.466801
0.0360092
0.424801
0.0324079
0.379201
0.0288067
0.336001
0.0252056
0.291601
0.0216042
0.248401
0.0168024
0.204002
0.0120006
0.159602
0.00839945
0.115201
0.00360072
0.0707987
0.0264007
-0.00479731
0.0311968
-0.00959786
0.0756013
-0.0131985
0.1188
-0.0179969
0.164397
-0.0215939
0.207596
-0.0239908
0.250796
-0.0287879
0.296396
-0.0323853
0.339597
-0.0359827
0.382796
-0.0395798
0.428396
-0.0431769
0.470396
-0.0467739
0.514796
-0.0479711
0.556796
-0.051568
0.601196
-0.055165
0.644396
-0.0575619
0.687596
-0.0599588
0.729596
-0.0623556
0.772796
-0.0647525
0.814796
-0.0683491
0.857996
-0.069546
0.898796
-0.0731425
0.941996
-0.0743393
0.981596
-0.076736
1.0248
-0.0779328
1.0644
-0.0803293
1.1064
-0.0815261
1.1472
-0.0839227
1.1868
-0.0851194
1.2264
-0.0851162
1.266
-0.0863129
1.3056
-0.0875096
1.3452
-0.0887062
1.3836
-0.089903
1.422
-0.0910997
1.4604
-0.0922964
1.4976
-0.0922933
1.5348
-0.09229
1.572
-0.0934868
1.6092
-0.0934837
1.644
-0.0946804
1.6812
-0.0934774
1.7148
-0.0946742
1.7508
-0.0946712
1.7856
-0.0946681
1.8192
-0.0946651
1.8528
-0.0946621
1.8864
-0.0934593
1.9176
-0.0934563
1.9512
-0.0922535
1.9824
-0.0934505
2.0148
-0.0910479
2.0436
-0.0910451
2.0748
-0.0904423
2.10504
-0.0895996
2.13384
-0.0887569
2.16252
-0.0876743
2.1906
-0.0865918
2.21832
-0.0855093
2.24544
-0.0844268
2.27196
-0.0831044
2.29788
-0.081782
2.32332
-0.0803396
2.34804
-0.0790173
2.37252
-0.0774552
2.39604
-0.0758929
2.4192
-0.0743307
2.44164
-0.0726487
2.4636
-0.0708466
2.48484
-0.0690446
2.50548
-0.0672427
2.52564
-0.0653207
2.54496
-0.0635189
2.56392
-0.0615971
2.58204
-0.0595554
2.59956
-0.0573937
2.61648
-0.055352
2.6328
-0.0533104
2.6484
-0.0510289
2.66328
-0.0488674
2.67768
-0.046586
2.69136
-0.0443047
2.70432
-0.0420233
2.71656
-0.0396221
2.72832
-0.0373409
2.73936
-0.0349398
2.74956
-0.0325387
2.75928
-0.0300176
2.76816
-0.0276168
2.77656
-0.0252157
2.78412
-0.022695
2.79096
-0.0201741
2.7972
-0.0176535
2.80284
-0.0151328
2.80752
-0.0126121
2.81184
-0.0100194
2.81521
-0.007463
2.81802
-0.00489458
2.8201
-0.00233827
2.82149
0.000230083
2.82218
0.00279832
2.82218
0.00535459
2.82149
0.00792275
2.8201
0.0104789
2.81802
0.0130708
2.81521
0.0155907
2.81184
0.0181106
2.80752
0.0206305
2.80284
0.0231503
2.7972
0.0256701
2.79096
0.0280696
2.78412
0.0304693
2.77656
0.0329888
2.76816
0.0353882
2.75928
0.0377877
2.74956
0.040067
2.73936
0.0424664
2.72832
0.0447455
2.71656
0.0470248
2.70432
0.0493038
2.69136
0.0514629
2.67768
0.0537419
2.66328
0.0557808
2.6484
0.0578197
2.6328
0.0599784
2.61648
0.0620171
2.59956
0.0639358
2.58204
0.0657345
2.56392
0.0676529
2.54496
0.0694515
2.52564
0.0712499
2.50548
0.0730482
2.48484
0.0747266
2.4636
0.0762849
2.44164
0.0778429
2.4192
0.0794012
2.39604
0.0807193
2.37252
0.0821572
2.34804
0.0834752
2.32332
0.0847931
2.29788
0.085871
2.27196
0.0869487
2.24544
0.0880265
2.21832
0.0891041
2.1906
0.0899417
2.16252
0.0907793
2.13384
0.0913767
2.10504
0.0913741
2.0748
0.0937717
2.0436
0.0925688
2.0148
0.0937662
1.9824
0.0937633
1.9512
0.0949606
1.9176
0.0949577
1.8864
0.0949548
1.8528
0.0949518
1.8192
0.0949488
1.7856
0.0937456
1.7508
0.0949426
1.7148
0.0937393
1.6812
0.0937361
1.644
0.0925328
1.6092
0.0925295
1.572
0.0925263
1.5348
0.0913229
1.4976
0.0901194
1.4604
0.0889159
1.422
0.0877124
1.3836
0.0865088
1.3452
0.0853053
1.3056
0.0853018
1.266
0.0840982
1.2264
0.0816945
1.1868
0.0804908
1.1472
0.078087
1.10641
0.0768834
1.0644
0.0744796
1.0248
0.073276
0.981605
0.069672
0.942005
0.0684684
0.898805
0.0648644
0.858005
0.0624606
0.814805
0.0600567
0.772805
0.0576529
0.729605
0.055249
0.687605
0.051645
0.644405
0.0480411
0.601205
0.0468374
0.556805
0.0432334
0.514805
0.0396295
0.470405
0.0360255
0.428405
0.0324219
0.382805
0.0288182
0.339605
0.024014
0.296405
0.0216093
0.250806
0.0180047
0.207606
0.0132024
0.164404
0.00960345
0.1188
0.00480436
0.0755978
0.0312051
-0.00479597
0.0359928
-0.00839391
0.0791993
-0.0131951
0.123601
-0.016795
0.167997
-0.0203916
0.211193
-0.0251864
0.255591
-0.0287813
0.299991
-0.0323767
0.343192
-0.0359722
0.386392
-0.0383677
0.430792
-0.0431628
0.475191
-0.0455579
0.517191
-0.049153
0.560391
-0.0527478
0.604791
-0.0551428
0.646791
-0.0575377
0.689991
-0.0611324
0.733191
-0.0635272
0.775191
-0.0659219
0.81719
-0.0671167
0.85919
-0.0707111
0.90239
-0.0719057
0.94319
-0.0755001
0.98519
-0.0766946
1.02599
-0.079089
1.06679
-0.0802836
1.10759
-0.081478
1.14839
-0.0826726
1.18799
-0.0838671
1.22759
-0.0862614
1.26839
-0.0874558
1.30679
-0.0886503
1.34639
-0.0898448
1.38479
-0.0910393
1.42319
-0.0910339
1.46039
-0.0922284
1.49879
-0.092223
1.53479
-0.0934175
1.57319
-0.0934122
1.60919
-0.0946068
1.64519
-0.0934017
1.67999
-0.0945964
1.71599
-0.0945912
1.75079
-0.0945858
1.78559
-0.0945809
1.81919
-0.0945757
1.85279
-0.0933708
1.88519
-0.0945656
1.91879
-0.0933608
1.94999
-0.0933559
1.98239
-0.0921512
2.01359
-0.0921463
2.04359
-0.0921417
2.07479
-0.0903372
2.10323
-0.0894924
2.13299
-0.0885281
2.16155
-0.0875638
2.18963
-0.0865992
2.21735
-0.085395
2.24423
-0.0841908
2.27075
-0.0828667
2.29655
-0.0815428
2.32199
-0.0803388
2.34683
-0.0787748
2.37095
-0.077331
2.39459
-0.0757673
2.41763
-0.0740838
2.43995
-0.0724
2.46191
-0.0707167
2.48315
-0.0690333
2.50379
-0.0671099
2.52371
-0.0653068
2.54315
-0.0632635
2.56187
-0.0613406
2.58011
-0.0594177
2.59763
-0.0573746
2.61443
-0.0552119
2.63064
-0.0530494
2.64624
-0.0508866
2.66112
-0.0487243
2.67552
-0.0464418
2.68908
-0.0441594
2.70204
-0.0418771
2.71428
-0.0395951
2.72604
-0.0371932
2.73696
-0.0347911
2.74716
-0.0323893
2.75688
-0.0299876
2.76576
-0.0274657
2.77404
-0.0249444
2.7816
-0.0225429
2.78856
-0.0200215
2.79468
-0.0175002
2.80032
-0.014979
2.805
-0.012458
2.80932
-0.00987712
2.81263
-0.00732037
2.81546
-0.00475168
2.81753
-0.00218287
2.81892
0.000385697
2.81961
0.00295412
2.81962
0.0055223
2.81892
0.00809061
2.81753
0.0106468
2.81546
0.0132269
2.81263
0.015747
2.80932
0.0182667
2.805
0.0207864
2.80032
0.023306
2.79468
0.0257055
2.78856
0.0282251
2.7816
0.0307442
2.77404
0.0331434
2.76576
0.0355425
2.75688
0.0379414
2.74716
0.0403404
2.73696
0.0426193
2.72604
0.0448979
2.71428
0.0471764
2.70204
0.0494548
2.68908
0.0516134
2.67552
0.0537715
2.66112
0.0559298
2.64624
0.0580879
2.63064
0.0601257
2.61444
0.0620436
2.59764
0.0639614
2.58012
0.065999
2.56188
0.0677966
2.54316
0.069714
2.52372
0.0713913
2.5038
0.0730687
2.48316
0.0747456
2.46193
0.0764228
2.43997
0.0779797
2.41765
0.0794166
2.39461
0.0809732
2.37097
0.0821698
2.34685
0.0834864
2.32201
0.0848029
2.29657
0.0859992
2.27077
0.0871955
2.24425
0.0881514
2.21737
0.0891076
2.18965
0.0900637
2.16157
0.0908993
2.13301
0.0926952
2.10325
0.0926909
2.07481
0.0926863
2.04361
0.0938818
2.01361
0.0938772
1.98241
0.0950727
1.95001
0.0938676
1.91881
0.0950629
1.88521
0.0950578
1.85281
0.095053
1.81921
0.0950477
1.78561
0.0950424
1.75081
0.0938371
1.71601
0.0950319
1.68001
0.0938265
1.64521
0.0938211
1.60921
0.0926153
1.57321
0.0926098
1.53481
0.0914041
1.49881
0.0913983
1.46041
0.0901926
1.42321
0.0889867
1.38481
0.0877807
1.34641
0.0865747
1.30681
0.0841684
1.26841
0.0829624
1.22761
0.0817564
1.18801
0.0805503
1.14841
0.0793442
1.10761
0.0769378
1.06681
0.0757316
1.02601
0.0721251
0.985211
0.0709189
0.943211
0.0673123
0.902412
0.0661061
0.859211
0.0636997
0.817211
0.0612933
0.775212
0.0576866
0.733212
0.0552802
0.690012
0.0528738
0.646812
0.0492671
0.604812
0.0456606
0.560412
0.0432542
0.517212
0.0384475
0.475212
0.0360413
0.430812
0.0324351
0.386411
0.0288285
0.343211
0.0252208
0.300013
0.0204129
0.255614
0.0168078
0.211211
0.0132078
0.168004
0.00840989
0.123598
0.00480659
0.0792011
0.0360117
-0.00359591
0.0395887
-0.00839057
0.0839939
-0.0131903
0.128401
-0.0167915
0.171598
-0.0215894
0.21599
-0.0251835
0.259185
-0.0287762
0.303584
-0.0323692
0.346785
-0.0359628
0.389986
-0.0395564
0.434385
-0.0419498
0.477585
-0.045543
0.520784
-0.0491359
0.563984
-0.051529
0.607184
-0.0551218
0.650384
-0.0575146
0.692384
-0.0599074
0.735583
-0.0623
0.777583
-0.0658924
0.820783
-0.0682849
0.861583
-0.0694776
0.903583
-0.0718699
0.945582
-0.074262
0.987582
-0.0754544
1.02718
-0.0778466
1.06918
-0.079039
1.10878
-0.0814311
1.15078
-0.0826233
1.18918
-0.0850153
1.22998
-0.0862076
1.26958
-0.0873998
1.30798
-0.0873921
1.34638
-0.0885845
1.38598
-0.0897765
1.42438
-0.0909688
1.46158
-0.0909612
1.49878
-0.0933532
1.53718
-0.0933456
1.57318
-0.0933381
1.60918
-0.0933306
1.64518
-0.0945229
1.68118
-0.0945156
1.71598
-0.0945084
1.75078
-0.0945009
1.78558
-0.0944936
1.81918
-0.0944865
1.85278
-0.0944792
1.88518
-0.0932724
1.91758
-0.0932654
1.94998
-0.0932582
1.98238
-0.0920518
2.01238
-0.0920449
2.04358
-0.0908382
2.07358
-0.0902316
2.10263
-0.0893853
2.13215
-0.0884189
2.16059
-0.0875726
2.18879
-0.0863666
2.21615
-0.0852804
2.24315
-0.0840745
2.26955
-0.0828685
2.29535
-0.0815426
2.32067
-0.0800971
2.34539
-0.0786518
2.36951
-0.0772062
2.39315
-0.0755209
2.41595
-0.0740757
2.43851
-0.0723908
2.46023
-0.0705856
2.48135
-0.0687806
2.50199
-0.0669761
2.52191
-0.0651717
2.54135
-0.063247
2.55995
-0.0612028
2.57807
-0.0591584
2.59559
-0.0571146
2.61239
-0.0550704
2.62859
-0.0529066
2.64407
-0.0508632
2.65907
-0.0485793
2.67323
-0.0462958
2.68679
-0.0440127
2.69975
-0.0418496
2.71211
-0.0394465
2.72363
-0.0370434
2.73455
-0.0346408
2.74475
-0.0322382
2.75447
-0.0298358
2.76335
-0.0273134
2.77151
-0.0249112
2.7792
-0.0223891
2.78604
-0.0198671
2.79216
-0.0173452
2.7978
-0.0148237
2.80248
-0.0121821
2.80668
-0.00972086
2.81017
-0.00715146
2.81289
-0.00459448
2.81497
-0.00202561
2.81635
0.000543185
2.81705
0.00311181
2.81705
0.00568034
2.81635
0.00823678
2.81497
0.0108048
2.8129
0.013265
2.81017
0.0159047
2.80668
0.0184246
2.80248
0.0209441
2.7978
0.0234635
2.79216
0.0259828
2.78604
0.0283819
2.7792
0.030901
2.77152
0.0332999
2.76336
0.0356986
2.75448
0.0380973
2.74476
0.0404956
2.73456
0.0428937
2.72364
0.045052
2.71212
0.0473302
2.69976
0.0496079
2.68681
0.0518853
2.67325
0.0539231
2.65909
0.0560805
2.64409
0.0581174
2.62861
0.0601548
2.61241
0.0621916
2.59561
0.0642285
2.57809
0.066145
2.55997
0.0679416
2.54137
0.0697381
2.52193
0.0715342
2.50201
0.0733299
2.48137
0.0750061
2.46025
0.0764418
2.43853
0.0781175
2.41597
0.0795527
2.39317
0.0809884
2.36953
0.0824236
2.34541
0.0837385
2.32069
0.0849333
2.29537
0.0861282
2.26957
0.0872027
2.24317
0.0883974
2.21617
0.0892317
2.18881
0.0901859
2.16061
0.0910202
2.13217
0.0916141
2.10265
0.0928077
2.07361
0.0928014
2.04361
0.0939953
2.01241
0.0939885
1.98242
0.0939818
1.95002
0.0951753
1.91762
0.0951682
1.88522
0.0951612
1.85282
0.095154
1.81922
0.0951466
1.78562
0.0951394
1.75082
0.0951321
1.71602
0.0939242
1.68122
0.0939166
1.64522
0.0939089
1.60922
0.0939011
1.57322
0.0914927
1.53722
0.0914848
1.49882
0.0902766
1.46162
0.0890681
1.42442
0.0878599
1.38602
0.0878517
1.34642
0.0866433
1.30802
0.0854348
1.26962
0.083026
1.23002
0.0818174
1.18922
0.0794085
1.15082
0.0782
1.10882
0.0757911
1.06922
0.0745823
1.02722
0.0721733
0.98762
0.0697642
0.94562
0.0685556
0.90362
0.0661465
0.86162
0.0625372
0.820821
0.0601282
0.777621
0.0577192
0.735621
0.0553101
0.692421
0.0517008
0.650421
0.0492918
0.607221
0.0456826
0.564021
0.0420734
0.520821
0.0396645
0.477621
0.0360557
0.43442
0.0324466
0.39002
0.0288364
0.346822
0.0252254
0.303624
0.0216165
0.259223
0.0168134
0.216015
0.0132157
0.171602
0.00841539
0.128398
0.00360674
0.0840098
0.0396184
-0.00479554
0.0443843
-0.00958815
0.0887866
-0.0131851
0.131998
-0.0167863
0.1752
-0.0203862
0.21959
-0.0251811
0.26398
-0.0287725
0.307175
-0.0323632
0.350376
-0.0359545
0.393577
-0.0395461
0.437977
-0.0431376
0.481176
-0.0467288
0.524376
-0.04912
0.566375
-0.0527108
0.610775
-0.0551018
0.652775
-0.0586923
0.695974
-0.061083
0.737974
-0.0634737
0.779974
-0.0646644
0.821974
-0.0682544
0.865173
-0.0706446
0.905973
-0.0730348
0.947973
-0.074225
0.988772
-0.076615
1.02957
-0.0778053
1.07037
-0.0801951
1.11117
-0.0813851
1.15197
-0.0825752
1.19037
-0.083765
1.23117
-0.0849549
1.27077
-0.0861448
1.30917
-0.0885346
1.34877
-0.0897243
1.38717
-0.0897145
1.42437
-0.0909044
1.46277
-0.0920943
1.49997
-0.0920845
1.53717
-0.0920749
1.57317
-0.0932649
1.61037
-0.0932552
1.64517
-0.0932454
1.68117
-0.0944354
1.71717
-0.0944258
1.75077
-0.0944164
1.78557
-0.0944068
1.81917
-0.0931978
1.85157
-0.0931886
1.88517
-0.0943791
1.91877
-0.0931701
1.94878
-0.0919613
1.98118
-0.0919521
2.01238
-0.0907434
2.04238
-0.0907349
2.07358
-0.0901263
2.10202
-0.0892778
2.1313
-0.0884294
2.15974
-0.0873412
2.1877
-0.0862534
2.21506
-0.0851653
2.24206
-0.0839577
2.26834
-0.0827498
2.29414
-0.0814224
2.31934
-0.0799751
2.34394
-0.0786476
2.36818
-0.0770806
2.39158
-0.0755137
2.41438
-0.0738269
2.43682
-0.0721402
2.45854
-0.070454
2.47966
-0.0687675
2.5003
-0.0669612
2.5201
-0.0649155
2.5393
-0.0631097
2.55814
-0.0611835
2.57614
-0.0591384
2.59355
-0.0570928
2.61035
-0.054928
2.62643
-0.0527626
2.64191
-0.0505978
2.65691
-0.048433
2.67107
-0.0461488
2.68451
-0.0438644
2.69747
-0.0415801
2.70983
-0.0391759
2.72123
-0.0368922
2.73227
-0.0344888
2.74235
-0.032085
2.75207
-0.0295618
2.76083
-0.0272787
2.76923
-0.0246359
2.77655
-0.0222331
2.78363
-0.0197109
2.78963
-0.0171884
2.79527
-0.0146665
2.79995
-0.0121443
2.80415
-0.00955072
2.80758
-0.00700527
2.81035
-0.00443557
2.8124
-0.00186643
2.81378
0.000702599
2.81448
0.00327142
2.81448
0.00584013
2.81378
0.00840826
2.8124
0.0109527
2.81035
0.0135449
2.80758
0.0160645
2.80416
0.0185845
2.79996
0.0211038
2.79528
0.0236234
2.78964
0.0260225
2.78364
0.0286614
2.77656
0.0309401
2.76924
0.0334586
2.76084
0.0358566
2.75208
0.0382549
2.74236
0.040533
2.73229
0.0429305
2.72125
0.0452078
2.70985
0.0474851
2.69749
0.0497625
2.68453
0.0519194
2.67109
0.0540761
2.65693
0.0562323
2.64193
0.0583891
2.62645
0.060425
2.61037
0.0624614
2.59357
0.0643766
2.57617
0.0661723
2.55817
0.068208
2.53933
0.0700031
2.52013
0.071678
2.50033
0.073353
2.47969
0.0750276
2.45857
0.0767021
2.43686
0.0782564
2.41442
0.0798105
2.39162
0.0811241
2.36822
0.0825579
2.34398
0.0838716
2.31938
0.0850647
2.29418
0.086258
2.26838
0.0873308
2.2421
0.0884039
2.2151
0.0894764
2.18774
0.0903088
2.15978
0.0911411
2.13134
0.0917331
2.10206
0.0917252
2.07362
0.0929171
2.04242
0.0929083
2.01242
0.0941
1.98122
0.0952913
1.94882
0.0940822
1.91882
0.0940732
1.88522
0.0952645
1.85162
0.095255
1.81923
0.0952457
1.78563
0.095236
1.75083
0.0940259
1.71723
0.094016
1.68123
0.0940061
1.64523
0.0927957
1.61043
0.0927858
1.57323
0.0927757
1.53723
0.091565
1.50003
0.0903543
1.46283
0.0903439
1.42443
0.0891329
1.38723
0.0867218
1.34883
0.0855109
1.30923
0.0842997
1.27083
0.0830885
1.23123
0.0818775
1.19043
0.0806662
1.15203
0.0782548
1.11123
0.0770436
1.07043
0.0746321
1.02963
0.0734208
0.988832
0.0710092
0.948032
0.0685975
0.906032
0.0649854
0.865232
0.063774
0.822032
0.0613625
0.780032
0.0589508
0.738032
0.0553388
0.696033
0.0529272
0.652832
0.0493152
0.610833
0.0469037
0.566432
0.0432919
0.524433
0.0396803
0.481232
0.0360686
0.438032
0.0324561
0.393633
0.0288423
0.350435
0.0252293
0.307237
0.0204217
0.264031
0.016822
0.219614
0.0132243
0.1752
0.00961945
0.132003
0.00480741
0.0888218
0.0444258
-0.00479537
0.0491796
-0.00838735
0.0923785
-0.0131806
0.136791
-0.0179797
0.179999
-0.0215809
0.223192
-0.025178
0.267577
-0.0287697
0.310767
-0.0323585
0.353965
-0.0371471
0.398365
-0.0395369
0.440367
-0.0431265
0.484766
-0.0455162
0.526765
-0.0491052
0.569964
-0.0514944
0.613164
-0.055083
0.656363
-0.0574718
0.698363
-0.0598604
0.740363
-0.0634485
0.783562
-0.0658368
0.824362
-0.0670254
0.866361
-0.0694135
0.908361
-0.0718014
0.950361
-0.0741892
0.99116
-0.0765769
1.03196
-0.0777648
1.07156
-0.0801523
1.11356
-0.08134
1.15316
-0.0837274
1.19276
-0.0849152
1.23236
-0.0861028
1.27196
-0.0872905
1.31036
-0.0884779
1.34996
-0.0884658
1.38716
-0.0896534
1.42556
-0.0908409
1.46396
-0.0920285
1.50116
-0.0920164
1.53716
-0.093204
1.57436
-0.0931919
1.61036
-0.0943795
1.64636
-0.0943678
1.68116
-0.0943558
1.71716
-0.0943441
1.75076
-0.0943322
1.78556
-0.0943207
1.81916
-0.094309
1.85156
-0.0942975
1.88516
-0.0930862
1.91756
-0.0930749
1.94876
-0.0930637
1.98116
-0.091853
2.01116
-0.0918419
2.04237
-0.090631
2.07237
-0.0900207
2.10141
-0.0891702
2.13045
-0.0881998
2.15877
-0.0872299
2.18673
-0.0862594
2.21409
-0.0850498
2.24085
-0.08384
2.26713
-0.082631
2.29293
-0.0813014
2.31801
-0.0799723
2.34261
-0.078403
2.36661
-0.0768347
2.39001
-0.0753861
2.41293
-0.0738172
2.43525
-0.0721289
2.45685
-0.0704407
2.47797
-0.0685132
2.49838
-0.0667058
2.5183
-0.0648977
2.5375
-0.0629706
2.55622
-0.0609237
2.5741
-0.0588765
2.5915
-0.0568299
2.6083
-0.0547835
2.62438
-0.0527372
2.63986
-0.0504512
2.65462
-0.0481658
2.66878
-0.0459996
2.68234
-0.043834
2.6953
-0.0414291
2.70742
-0.0391444
2.71894
-0.0366199
2.72975
-0.0343351
2.74007
-0.0319309
2.74967
-0.0295269
2.75843
-0.0270031
2.76671
-0.0245995
2.77415
-0.021956
2.78099
-0.0195528
2.78723
-0.0170302
2.79275
-0.0145068
2.79743
-0.0119851
2.80163
-0.00940214
2.80499
-0.00683234
2.80778
-0.0042747
2.80984
-0.00170529
2.81121
0.000863982
2.81191
0.00343301
2.81191
0.00600189
2.81121
0.00855854
2.80985
0.011127
2.80778
0.0137063
2.805
0.0162269
2.80164
0.0187458
2.79744
0.0212655
2.79276
0.0236645
2.78724
0.0263033
2.781
0.0287019
2.77416
0.0312203
2.76673
0.0336185
2.75845
0.0360164
2.74969
0.0382938
2.74009
0.0408114
2.72977
0.0430888
2.71897
0.045486
2.70745
0.0476425
2.69533
0.0497983
2.68237
0.052075
2.66881
0.0543509
2.65465
0.0563866
2.63989
0.0584221
2.62441
0.0604574
2.60834
0.0624921
2.59154
0.064527
2.57414
0.0664417
2.55626
0.0682353
2.53754
0.0700296
2.51834
0.0719438
2.49842
0.0736172
2.47802
0.0752905
2.4569
0.0768431
2.4353
0.0782759
2.41298
0.0798291
2.39006
0.0813811
2.36666
0.0826934
2.34266
0.0840051
2.31807
0.0851974
2.29299
0.0863887
2.26719
0.0875802
2.24091
0.0885307
2.21415
0.0894818
2.18679
0.0904324
2.15883
0.0912627
2.13051
0.0918532
2.10147
0.093043
2.07243
0.0930326
2.04243
0.0942225
2.01123
0.0942118
1.98123
0.094201
1.94883
0.09539
1.91764
0.0953789
1.88524
0.0953674
1.85164
0.095356
1.81924
0.0953441
1.78564
0.0953325
1.75084
0.0953203
1.71724
0.0953085
1.68124
0.0940957
1.64644
0.0940833
1.61044
0.0928704
1.57444
0.0928578
1.53724
0.0916447
1.50124
0.0904314
1.46404
0.0892182
1.42564
0.0892053
1.38724
0.0879916
1.35004
0.0867781
1.31044
0.0855646
1.27204
0.084351
1.23244
0.0819369
1.19284
0.080723
1.15325
0.0783089
1.11365
0.077095
1.07165
0.0746807
1.03205
0.0722664
0.991246
0.069852
0.950446
0.0674377
0.908446
0.066224
0.866446
0.0638096
0.824446
0.0601948
0.783647
0.0577805
0.740447
0.0553662
0.698447
0.0517515
0.656447
0.0493374
0.613247
0.0457228
0.570047
0.0433089
0.526847
0.0396946
0.484847
0.0372802
0.440446
0.0324636
0.398449
0.028847
0.354052
0.0252345
0.31085
0.0216305
0.267634
0.018033
0.223212
0.0132318
0.180001
0.00842093
0.136814
0.00480778
0.092435
0.0492336
-0.00359569
0.0527753
-0.00838704
0.0971699
-0.0119777
0.140382
-0.0167734
0.184794
-0.021574
0.227992
-0.0251734
0.271176
-0.0287667
0.31436
-0.032355
0.357553
-0.0359417
0.401952
-0.0395289
0.443954
-0.0419168
0.487154
-0.0455043
0.530353
-0.0490915
0.573552
-0.0526783
0.616751
-0.0550653
0.65875
-0.0574521
0.70075
-0.0610382
0.743949
-0.062225
0.784749
-0.0658109
0.827948
-0.0681969
0.868747
-0.0705827
0.910747
-0.0717689
0.951547
-0.0741544
0.993546
-0.0753403
1.03315
-0.0789252
1.07515
-0.0789112
1.11355
-0.0812963
1.15554
-0.0824816
1.19395
-0.0836671
1.23355
-0.0848524
1.27315
-0.0872371
1.31274
-0.0872227
1.34995
-0.0896075
1.38954
-0.0907927
1.42675
-0.0907783
1.46395
-0.0907639
1.50115
-0.0919491
1.53835
-0.0931342
1.57555
-0.0931198
1.61035
-0.0931058
1.64635
-0.094291
1.68235
-0.0930771
1.71595
-0.0942624
1.75195
-0.0942485
1.78555
-0.0930348
1.81795
-0.0942207
1.85275
-0.0942066
1.88515
-0.0929935
1.91635
-0.09298
1.94875
-0.0929665
1.98115
-0.0929532
2.01115
-0.0917404
2.04115
-0.0905277
2.07115
-0.089915
2.10079
-0.0889424
2.12947
-0.0880899
2.15791
-0.0871176
2.18576
-0.0860259
2.213
-0.0849344
2.23976
-0.0837225
2.26592
-0.0825109
2.29172
-0.0811798
2.31668
-0.0797285
2.34116
-0.0782782
2.36516
-0.0768272
2.38856
-0.0752569
2.41136
-0.0735672
2.43356
-0.0719972
2.45528
-0.0701874
2.47616
-0.0684977
2.49669
-0.0665684
2.51637
-0.0647596
2.53569
-0.0627106
2.55417
-0.0607823
2.57217
-0.0588541
2.58957
-0.0566862
2.60613
-0.054638
2.62233
-0.0524705
2.63769
-0.0503032
2.65245
-0.0481361
2.66661
-0.0459697
2.68018
-0.0435631
2.6929
-0.0412772
2.70514
-0.0388709
2.71654
-0.0365849
2.72746
-0.0341797
2.73766
-0.0317746
2.74726
-0.0293698
2.75602
-0.0268447
2.76418
-0.0244409
2.77174
-0.0219167
2.77847
-0.0193928
2.78471
-0.0168691
2.79023
-0.0143462
2.79491
-0.011703
2.79899
-0.00924056
2.80253
-0.00668179
2.80522
-0.00411183
2.80727
-0.00154213
2.80864
0.00102738
2.80934
0.00359663
2.80934
0.00616569
2.80864
0.00873449
2.80728
0.0112905
2.80523
0.0137507
2.80254
0.0163903
2.799
0.0189101
2.79492
0.0214291
2.79024
0.0239479
2.78472
0.0264665
2.77849
0.0288654
2.77177
0.0313828
2.76421
0.0337807
2.75605
0.0361782
2.74729
0.0385756
2.73769
0.0408521
2.72749
0.0432484
2.71657
0.0455251
2.70517
0.0479209
2.69293
0.050077
2.68022
0.0522323
2.66666
0.0543874
2.6525
0.0565422
2.63774
0.0585762
2.62238
0.0607306
2.60618
0.0626447
2.58962
0.0645585
2.57222
0.0665916
2.55422
0.068385
2.53575
0.0702976
2.51643
0.07197
2.49675
0.0737621
2.47623
0.075314
2.45535
0.0769861
2.43363
0.0785376
2.41143
0.0799682
2.38863
0.0813997
2.36523
0.0828299
2.34123
0.0841404
2.31676
0.0853301
2.2918
0.0865197
2.266
0.0875895
2.23984
0.088659
2.21308
0.0896079
2.18584
0.0904364
2.158
0.0913849
2.12956
0.0919731
2.10088
0.0931612
2.07124
0.0943492
2.04124
0.0943366
2.01125
0.0943238
1.98125
0.0943108
1.94885
0.0954981
1.91645
0.0954844
1.88525
0.0942704
1.85285
0.0954569
1.81805
0.095443
1.78565
0.0942282
1.75205
0.0954142
1.71605
0.0941991
1.68245
0.0941848
1.64645
0.0941699
1.61046
0.0929545
1.57566
0.0917389
1.53846
0.0917237
1.50126
0.0917085
1.46406
0.0904926
1.42686
0.0880761
1.38966
0.0880606
1.35006
0.0856437
1.31286
0.0844276
1.27326
0.0832114
1.23366
0.081995
1.19406
0.0795781
1.15566
0.0795622
1.11366
0.0759448
1.07526
0.0747284
1.03326
0.0723113
0.993663
0.0710949
0.951663
0.0686778
0.910863
0.0662607
0.868863
0.0626433
0.828064
0.0614269
0.784863
0.0578093
0.744064
0.0553926
0.700864
0.0529757
0.658864
0.0493583
0.616864
0.0457412
0.573664
0.0421241
0.530464
0.0397073
0.487263
0.036089
0.444065
0.0324695
0.402069
0.028852
0.357669
0.0252423
0.314459
0.021642
0.271235
0.0168435
0.22801
0.0120367
0.184808
0.00842164
0.140429
0.00360733
0.0972493
0.0528409
-0.00479487
0.0575702
-0.00958645
0.101961
-0.0131756
0.143971
-0.0167679
0.188387
-0.0203666
0.231591
-0.0239673
0.274777
-0.0287627
0.319156
-0.0323519
0.361142
-0.0359373
0.405538
-0.0395222
0.447539
-0.0431076
0.490739
-0.0466931
0.533938
-0.0490788
0.575937
-0.0514641
0.619136
-0.0550487
0.662335
-0.0574335
0.703135
-0.059818
0.746333
-0.063402
0.788333
-0.0645865
0.829132
-0.0681698
0.872331
-0.0693541
0.911931
-0.0729369
0.955129
-0.0741209
0.99473
-0.076504
1.03553
-0.0776874
1.07633
-0.0800703
1.11593
-0.0812536
1.15673
-0.0824368
1.19513
-0.0848192
1.23593
-0.0860022
1.27433
-0.0859856
1.31273
-0.088368
1.35233
-0.088351
1.38953
-0.0895338
1.42793
-0.0907165
1.46513
-0.0918996
1.50233
-0.0918825
1.53833
-0.0918657
1.57553
-0.0930488
1.61153
-0.0942312
1.64753
-0.0930154
1.68113
-0.0941982
1.71713
-0.0941819
1.75193
-0.0941653
1.78553
-0.0941492
1.81793
-0.0941328
1.85273
-0.0929173
1.88393
-0.0941005
1.91753
-0.0928852
1.94754
-0.09167
1.97994
-0.0916544
2.01114
-0.0916385
2.04114
-0.0904241
2.06994
-0.0898087
2.10018
-0.0889544
2.12862
-0.0880998
2.15706
-0.0870054
2.18466
-0.0860317
2.21202
-0.0848177
2.23854
-0.0837237
2.26482
-0.0822706
2.29027
-0.0809377
2.31535
-0.0796049
2.33983
-0.0782717
2.36383
-0.0766994
2.38699
-0.0751272
2.40979
-0.0735553
2.43199
-0.0717436
2.45347
-0.0700526
2.47447
-0.0682413
2.49487
-0.0664303
2.51456
-0.0645001
2.53376
-0.0626894
2.55236
-0.0607596
2.57024
-0.0585895
2.5874
-0.0566601
2.6042
-0.0544911
2.62016
-0.0523222
2.63552
-0.0501543
2.65029
-0.0479853
2.66445
-0.0456979
2.67789
-0.04341
2.69061
-0.0411225
2.70285
-0.0388357
2.71425
-0.0364286
2.72505
-0.0340225
2.73525
-0.0316166
2.74486
-0.0290903
2.7535
-0.0266855
2.76178
-0.0241597
2.76922
-0.0217548
2.77606
-0.0192309
2.78218
-0.0167066
2.7877
-0.0141832
2.79238
-0.0116594
2.79647
-0.00906451
2.79994
-0.00650592
2.80266
-0.00394692
2.80471
-0.00137693
2.80607
0.00119284
2.80677
0.00376232
2.80677
0.00633156
2.80608
0.00888779
2.80472
0.0114444
2.80267
0.0140368
2.79995
0.0165562
2.79648
0.019076
2.7924
0.0215949
2.78772
0.0241141
2.7822
0.0265124
2.77609
0.0290297
2.76925
0.0314281
2.76181
0.0339448
2.75353
0.036342
2.74489
0.0387389
2.73529
0.0411348
2.7251
0.0434111
2.7143
0.0456864
2.7029
0.0479614
2.69066
0.0502369
2.67794
0.0523907
2.6645
0.0545456
2.65034
0.0566995
2.63559
0.0588531
2.62023
0.0607664
2.60427
0.0629189
2.58747
0.0648317
2.57031
0.0666235
2.55243
0.0685357
2.53383
0.070327
2.51463
0.072118
2.49496
0.0737894
2.47456
0.0755798
2.45356
0.07713
2.43208
0.0786799
2.40988
0.0802296
2.38708
0.0815383
2.36392
0.0828474
2.33993
0.0841562
2.31545
0.0855848
2.29037
0.0866524
2.26493
0.0878399
2.23865
0.0887876
2.21213
0.0898546
2.18477
0.0906812
2.15717
0.0915082
2.12874
0.0920937
2.1003
0.0932804
2.07006
0.0932653
2.04126
0.0932505
2.01126
0.094436
1.98006
0.0956213
1.94766
0.0944049
1.91766
0.0955898
1.88406
0.0955736
1.85287
0.0955576
1.81807
0.095541
1.78567
0.0955247
1.75207
0.0943072
1.71727
0.0954912
1.68127
0.094273
1.64767
0.0930554
1.61167
0.093038
1.57567
0.0930201
1.53847
0.0918022
1.50248
0.0905838
1.46528
0.0893653
1.42808
0.089347
1.38968
0.0869277
1.35248
0.0869096
1.31288
0.0856908
1.27448
0.0832711
1.23608
0.0820522
1.19528
0.0808333
1.15688
0.0784137
1.11608
0.0771945
1.07648
0.0747747
1.03568
0.0735559
0.994882
0.0699352
0.955283
0.0687162
0.912082
0.0650958
0.872484
0.0638767
0.829283
0.0602566
0.788483
0.0578371
0.746484
0.0554176
0.703283