/*--------------------------------*- C++ -*----------------------------------*\
  =========                 |
  \\      /  F ield         | OpenFOAM: The Open Source CFD Toolbox
   \\    /   O peration     | Website:  https://openfoam.org
    \\  /    A nd           | Version:  8
     \\/     M anipulation  |
\*---------------------------------------------------------------------------*/
FoamFile
{
    version     2.0;
    format      ascii;
    class       volScalarField;
    location    "3.7";
    object      p;
}
// * * * * * * * * * * * * * * * * * * * * * * * * * * * * * * * * * * * * * //

dimensions      [0 2 -2 0 0 0 0];

internalField   nonuniform List<scalar> 
248760
(
0.0400703
0.0400315
0.0398514
0.0395927
0.0392462
0.0388149
0.0383045
0.0377183
0.03706
0.036333
0.0355407
0.034686
0.0337721
0.0328019
0.0317781
0.0307034
0.0295804
0.0284117
0.0271998
0.0259469
0.0246554
0.0233277
0.0219658
0.0205719
0.0191482
0.0176966
0.0162192
0.0147178
0.0131945
0.0116509
0.0100889
0.00851024
0.0069166
0.00530962
0.00369088
0.00206193
0.000424269
-0.00122067
-0.00287148
-0.00452683
-0.0061854
-0.00784596
-0.00950729
-0.0111682
-0.0128277
-0.0144846
-0.0161379
-0.0177867
-0.01943
-0.021067
-0.0226968
-0.0243185
-0.0259315
-0.027535
-0.0291283
-0.0307108
-0.0322819
-0.033841
-0.0353875
-0.036921
-0.0384411
-0.0399471
-0.0414388
-0.0429157
-0.0443776
-0.045824
-0.0472548
-0.0486695
-0.0500679
-0.0514499
-0.0528152
-0.0541635
-0.0554949
-0.056809
-0.0581058
-0.0593851
-0.0606469
-0.061891
-0.0631174
-0.064326
-0.0655168
-0.0666897
-0.0678447
-0.0689819
-0.0701011
-0.0712024
-0.0722859
-0.0733514
-0.0743992
-0.0754291
-0.0764412
-0.0774357
-0.0784125
-0.0793716
-0.0803132
-0.0812373
-0.082144
-0.0830333
-0.0839054
-0.0847603
-0.0855981
-0.0864187
-0.0872225
-0.0880094
-0.0887795
-0.0895328
-0.0902696
-0.0909897
-0.0916935
-0.0923808
-0.0930519
-0.0937066
-0.0943453
-0.0949679
-0.0955746
-0.0961651
-0.0967389
-0.097298
-0.0978589
-0.0984142
0.0400823
0.0400427
0.0398641
0.0396052
0.0392593
0.0388284
0.0383183
0.0377326
0.0370747
0.0363482
0.0355563
0.0347021
0.0337886
0.0328189
0.0317956
0.0307214
0.0295989
0.0284307
0.0272192
0.0259668
0.0246758
0.0233485
0.0219871
0.0205937
0.0191704
0.0177193
0.0162423
0.0147414
0.0132184
0.0116752
0.0101136
0.00853535
0.00694207
0.00533543
0.00371702
0.00208839
0.000451026
-0.00119363
-0.00284418
-0.00449927
-0.00615761
-0.00781795
-0.00947908
-0.0111398
-0.0127991
-0.0144559
-0.0161091
-0.0177577
-0.0194009
-0.0210379
-0.0226675
-0.0242892
-0.0259022
-0.0275056
-0.0290989
-0.0306814
-0.0322525
-0.0338116
-0.0353582
-0.0368917
-0.0384118
-0.0399179
-0.0414096
-0.0428867
-0.0443486
-0.0457951
-0.0472259
-0.0486408
-0.0500393
-0.0514214
-0.0527868
-0.0541353
-0.0554668
-0.0567811
-0.058078
-0.0593575
-0.0606194
-0.0618637
-0.0630902
-0.064299
-0.06549
-0.0666631
-0.0678183
-0.0689556
-0.0700751
-0.0711766
-0.0722602
-0.073326
-0.0743739
-0.075404
-0.0764164
-0.0774111
-0.0783881
-0.0793474
-0.0802893
-0.0812136
-0.0821206
-0.0830102
-0.0838825
-0.0847376
-0.0855756
-0.0863966
-0.0872006
-0.0879877
-0.0887581
-0.0895117
-0.0902488
-0.0909692
-0.0916733
-0.0923609
-0.0930322
-0.0936873
-0.0943263
-0.0949491
-0.0955561
-0.0961469
-0.0967208
-0.0972805
-0.0978421
-0.098396
0.0401027
0.0400634
0.0398856
0.0396272
0.039282
0.0388517
0.0383424
0.0377574
0.0371002
0.0363744
0.0355833
0.0347299
0.0338173
0.0328483
0.0318258
0.0307524
0.0296308
0.0284634
0.0272527
0.0260012
0.024711
0.0233845
0.0220239
0.0206313
0.0192088
0.0177584
0.0162822
0.014782
0.0132597
0.0117172
0.0101563
0.00857861
0.00698592
0.00537986
0.00376199
0.00213388
0.000496994
-0.00114721
-0.00279733
-0.00445204
-0.00611002
-0.00777002
-0.00943086
-0.0110914
-0.0127504
-0.014407
-0.01606
-0.0177085
-0.0193516
-0.0209884
-0.022618
-0.0242397
-0.0258526
-0.0274561
-0.0290494
-0.030632
-0.0322032
-0.0337623
-0.0353091
-0.0368428
-0.038363
-0.0398693
-0.0413613
-0.0428385
-0.0443007
-0.0457475
-0.0471786
-0.0485937
-0.0499926
-0.051375
-0.0527407
-0.0540895
-0.0554214
-0.056736
-0.0580333
-0.0593131
-0.0605755
-0.0618201
-0.0630471
-0.0642563
-0.0654477
-0.0666212
-0.0677769
-0.0689146
-0.0700345
-0.0711364
-0.0722205
-0.0732867
-0.0743351
-0.0753657
-0.0763786
-0.0773737
-0.0783512
-0.079311
-0.0802534
-0.0811782
-0.0820856
-0.0829757
-0.0838485
-0.0847041
-0.0855427
-0.0863641
-0.0871687
-0.0879563
-0.0887272
-0.0894813
-0.0902189
-0.0909398
-0.0916444
-0.0923325
-0.0930044
-0.0936599
-0.0942994
-0.0949227
-0.0955302
-0.0961213
-0.0966957
-0.0972557
-0.0978176
-0.098372
0.0401329
0.0400943
0.0399175
0.0396599
0.0393156
0.0388864
0.038378
0.037794
0.037138
0.0364133
0.0356233
0.0347711
0.0338596
0.0328919
0.0318706
0.0307984
0.029678
0.0285118
0.0273024
0.026052
0.0247631
0.0234378
0.0220783
0.0206869
0.0192655
0.0178163
0.0163411
0.014842
0.0133208
0.0117793
0.0102193
0.00864256
0.00705078
0.00544556
0.00382851
0.00220116
0.000565003
-0.00107852
-0.00272801
-0.00438212
-0.00603955
-0.00769906
-0.00935943
-0.0110195
-0.0126782
-0.0143344
-0.0159872
-0.0176354
-0.0192783
-0.020915
-0.0225445
-0.0241661
-0.025779
-0.0273825
-0.0289758
-0.0305585
-0.0321297
-0.0336891
-0.035236
-0.0367699
-0.0382903
-0.0397969
-0.0412891
-0.0427667
-0.0442292
-0.0456763
-0.0471078
-0.0485232
-0.0499225
-0.0513053
-0.0526715
-0.0540208
-0.0553531
-0.0566682
-0.057966
-0.0592464
-0.0605092
-0.0617544
-0.0629819
-0.0641916
-0.0653836
-0.0665577
-0.0677139
-0.0688522
-0.0699727
-0.0710753
-0.0721599
-0.0732268
-0.0742758
-0.075307
-0.0763205
-0.0773163
-0.0782944
-0.0792549
-0.0801979
-0.0811234
-0.0820315
-0.0829223
-0.0837958
-0.0846522
-0.0854914
-0.0863136
-0.0871188
-0.0879073
-0.0886789
-0.0894338
-0.0901721
-0.0908939
-0.0915992
-0.0922882
-0.0929608
-0.0936173
-0.0942575
-0.0948818
-0.09549
-0.0960821
-0.0966573
-0.0972183
-0.097781
-0.0983364
0.0401727
0.0401352
0.0399595
0.0397031
0.0393601
0.0389321
0.0384251
0.0378425
0.0371879
0.0364646
0.0356761
0.0348254
0.0339155
0.0329493
0.0319296
0.030859
0.0297402
0.0285756
0.0273678
0.026119
0.0248317
0.023508
0.0221501
0.0207602
0.0193403
0.0178925
0.0164188
0.0149211
0.0134012
0.011861
0.0103023
0.00872682
0.0071362
0.0055321
0.00391611
0.00228976
0.000654555
-0.000988076
-0.00263673
-0.00429007
-0.0059468
-0.00760566
-0.00926544
-0.010925
-0.0125832
-0.014239
-0.0158914
-0.0175394
-0.019182
-0.0208185
-0.0224479
-0.0240694
-0.0256822
-0.0272857
-0.0288792
-0.0304619
-0.0320334
-0.0335929
-0.03514
-0.0366742
-0.038195
-0.0397018
-0.0411945
-0.0426725
-0.0441354
-0.045583
-0.047015
-0.048431
-0.0498309
-0.0512143
-0.052581
-0.053931
-0.0552639
-0.0565797
-0.0578782
-0.0591592
-0.0604228
-0.0616687
-0.062897
-0.0641075
-0.0653002
-0.0664751
-0.0676321
-0.0687713
-0.0698925
-0.0709959
-0.0720815
-0.0731492
-0.074199
-0.0752311
-0.0762455
-0.0772422
-0.0782212
-0.0791826
-0.0801265
-0.081053
-0.081962
-0.0828537
-0.0837282
-0.0845855
-0.0854257
-0.0862489
-0.0870551
-0.0878446
-0.0886172
-0.0893731
-0.0901125
-0.0908353
-0.0915416
-0.0922317
-0.0929054
-0.0935629
-0.0942043
-0.0948296
-0.0954389
-0.0960322
-0.0966085
-0.0971707
-0.0977346
-0.0982913
0.040222
0.0401859
0.0400115
0.0397566
0.039415
0.0389887
0.0384833
0.0379024
0.0372495
0.0365281
0.0357414
0.0348925
0.0339845
0.0330202
0.0320025
0.0309339
0.029817
0.0286544
0.0274486
0.0262018
0.0249164
0.0235946
0.0222387
0.0208506
0.0194326
0.0179867
0.0165147
0.0150187
0.0135005
0.011962
0.0104048
0.00883082
0.00724164
0.00563892
0.00402424
0.00239913
0.000765093
-0.000876442
-0.00252408
-0.00417647
-0.00583232
-0.00749038
-0.00914943
-0.0108083
-0.012466
-0.0141213
-0.0157732
-0.0174208
-0.0190632
-0.0206994
-0.0223286
-0.0239501
-0.0255629
-0.0271664
-0.0287599
-0.0303428
-0.0319144
-0.0334742
-0.0350216
-0.0365562
-0.0380773
-0.0395847
-0.0410778
-0.0425563
-0.0440198
-0.045468
-0.0469006
-0.0483173
-0.0497178
-0.051102
-0.0524694
-0.0538202
-0.0551539
-0.0564705
-0.0577698
-0.0590518
-0.0603162
-0.061563
-0.0627922
-0.0640037
-0.0651973
-0.0663732
-0.0675311
-0.0686713
-0.0697935
-0.070898
-0.0719845
-0.0730533
-0.0741042
-0.0751374
-0.0761527
-0.0771505
-0.0781306
-0.0790932
-0.0800381
-0.0809657
-0.0818759
-0.0827688
-0.0836444
-0.0845029
-0.0853442
-0.0861686
-0.086976
-0.0877667
-0.0885405
-0.0892977
-0.0900383
-0.0907624
-0.0914701
-0.0921614
-0.0928364
-0.0934954
-0.0941381
-0.0947649
-0.0953756
-0.0959704
-0.0965481
-0.0971118
-0.0976773
-0.0982357
0.0402805
0.0402459
0.0400731
0.03982
0.0394802
0.0390557
0.0385523
0.0379734
0.0373226
0.0366033
0.0358188
0.0349721
0.0340664
0.0331044
0.0320889
0.0310226
0.0299081
0.0287479
0.0275444
0.0262999
0.0250169
0.0236974
0.0223437
0.0209579
0.0195421
0.0180983
0.0166285
0.0151345
0.0136183
0.0120817
0.0105264
0.00895417
0.0073667
0.00576561
0.00415248
0.00252885
0.000896191
-0.000744044
-0.00239047
-0.00404173
-0.00569655
-0.00735365
-0.00901185
-0.01067
-0.0123269
-0.0139816
-0.0156331
-0.0172802
-0.0189222
-0.0205582
-0.0221872
-0.0238085
-0.0254213
-0.0270249
-0.0286185
-0.0302015
-0.0317734
-0.0333335
-0.0348813
-0.0364162
-0.0379378
-0.0394457
-0.0409394
-0.0424185
-0.0438827
-0.0453316
-0.046765
-0.0481825
-0.0495838
-0.0509688
-0.0523372
-0.0536889
-0.0550236
-0.0563411
-0.0576415
-0.0589244
-0.0601899
-0.0614378
-0.0626681
-0.0638806
-0.0650755
-0.0662524
-0.0674116
-0.0685529
-0.0696764
-0.070782
-0.0718698
-0.0729398
-0.073992
-0.0750264
-0.0760431
-0.0770421
-0.0780235
-0.0789873
-0.0799336
-0.0808625
-0.081774
-0.0826682
-0.0835452
-0.0844051
-0.0852478
-0.0860736
-0.0868825
-0.0876745
-0.0884498
-0.0892084
-0.0899505
-0.090676
-0.0913852
-0.092078
-0.0927546
-0.093415
-0.0940593
-0.0946876
-0.0953
-0.0958962
-0.0964757
-0.0970408
-0.0976081
-0.098168
0.040348
0.0403153
0.0401443
0.0398932
0.0395555
0.0391331
0.0386319
0.0380553
0.0374069
0.03669
0.035908
0.0350639
0.0341608
0.0332014
0.0321886
0.031125
0.0300132
0.0288557
0.0276549
0.0264131
0.0251327
0.0238159
0.0224649
0.0210817
0.0196684
0.0182271
0.0167597
0.0152681
0.0137542
0.0122198
0.0106666
0.00909646
0.00751097
0.00591176
0.00430043
0.00267849
0.00104744
-0.000591298
-0.00223632
-0.00388629
-0.0055399
-0.00719591
-0.00885311
-0.0105104
-0.0121665
-0.0138205
-0.0154714
-0.017118
-0.0187596
-0.0203953
-0.0220241
-0.0236452
-0.025258
-0.0268616
-0.0284553
-0.0300386
-0.0316107
-0.0331712
-0.0347193
-0.0362548
-0.037777
-0.0392855
-0.0407798
-0.0422597
-0.0437246
-0.0451744
-0.0466086
-0.048027
-0.0494293
-0.0508153
-0.0521847
-0.0535375
-0.0548733
-0.056192
-0.0574935
-0.0587776
-0.0600443
-0.0612935
-0.062525
-0.0637389
-0.064935
-0.0661133
-0.0672738
-0.0684165
-0.0695413
-0.0706483
-0.0717375
-0.0728089
-0.0738625
-0.0748984
-0.0759165
-0.076917
-0.0778999
-0.0788652
-0.079813
-0.0807434
-0.0816565
-0.0825522
-0.0834307
-0.0842921
-0.0851364
-0.0859638
-0.0867742
-0.0875679
-0.0883448
-0.0891051
-0.0898488
-0.090576
-0.0912869
-0.0919814
-0.0926597
-0.0933219
-0.093968
-0.094598
-0.0952122
-0.0958102
-0.0963916
-0.0969585
-0.0975276
-0.0980896
0.0404243
0.0403937
0.0402247
0.0399759
0.0396405
0.0392206
0.0387219
0.0381479
0.0375022
0.0367881
0.0360089
0.0351677
0.0342675
0.0333111
0.0323013
0.0312407
0.030132
0.0289775
0.0277798
0.0265411
0.0252637
0.0239499
0.0226018
0.0212215
0.0198111
0.0183726
0.0169079
0.015419
0.0139077
0.0123758
0.0108251
0.0092573
0.00767405
0.00607698
0.00446768
0.00284767
0.00121842
-0.000418607
-0.00206204
-0.00371053
-0.00536279
-0.00701756
-0.00867363
-0.0103299
-0.0119851
-0.0136383
-0.0152885
-0.0169346
-0.0185758
-0.020211
-0.0218396
-0.0234606
-0.0250733
-0.0266769
-0.0282709
-0.0298543
-0.0314268
-0.0329876
-0.0345363
-0.0360723
-0.0375951
-0.0391042
-0.0405994
-0.04208
-0.0435459
-0.0449965
-0.0464318
-0.0478512
-0.0492546
-0.0506417
-0.0520124
-0.0533663
-0.0547034
-0.0560234
-0.0573262
-0.0586117
-0.0598798
-0.0611304
-0.0623634
-0.0635786
-0.0647762
-0.065956
-0.0671181
-0.0682623
-0.0693887
-0.0704972
-0.071588
-0.072661
-0.0737162
-0.0747537
-0.0757735
-0.0767756
-0.0777601
-0.0787271
-0.0796766
-0.0806087
-0.0815234
-0.0824208
-0.0833011
-0.0841642
-0.0850102
-0.0858393
-0.0866515
-0.0874469
-0.0882255
-0.0889876
-0.089733
-0.090462
-0.0911746
-0.091871
-0.092551
-0.093215
-0.0938628
-0.0944948
-0.0951106
-0.0957107
-0.0962936
-0.0968627
-0.0974334
-0.0979975
0.0405092
0.0404809
0.0403141
0.0400679
0.0397351
0.0393179
0.038822
0.0382509
0.0376082
0.0368971
0.0361211
0.0352831
0.0343862
0.0334331
0.0324267
0.0313695
0.0302641
0.0291131
0.0279187
0.0266834
0.0254094
0.0240989
0.0227541
0.0213771
0.0199699
0.0185346
0.017073
0.015587
0.0140786
0.0125495
0.0110015
0.00943633
0.00785557
0.00626089
0.00465385
0.00303598
0.00140876
-0.000226367
-0.00186803
-0.00351488
-0.00516561
-0.00681899
-0.00847381
-0.0101289
-0.0117832
-0.0134355
-0.0150849
-0.0167304
-0.018371
-0.0200059
-0.0216342
-0.023255
-0.0248677
-0.0264714
-0.0280654
-0.0296492
-0.031222
-0.0327833
-0.0343325
-0.035869
-0.0373925
-0.0389025
-0.0403985
-0.0418801
-0.0433469
-0.0447986
-0.0462349
-0.0476555
-0.0490602
-0.0504486
-0.0518205
-0.0531758
-0.0545143
-0.0558357
-0.05714
-0.058427
-0.0596967
-0.0609488
-0.0621834
-0.0634003
-0.0645995
-0.065781
-0.0669447
-0.0680907
-0.0692188
-0.0703291
-0.0714216
-0.0724964
-0.0735533
-0.0745926
-0.0756142
-0.0766181
-0.0776045
-0.0785733
-0.0795246
-0.0804585
-0.0813751
-0.0822744
-0.0831565
-0.0840215
-0.0848695
-0.0857004
-0.0865145
-0.0873118
-0.0880925
-0.0888564
-0.0896039
-0.0903348
-0.0910495
-0.0917477
-0.0924299
-0.0930958
-0.0937458
-0.0943796
-0.0949977
-0.0955996
-0.096185
-0.0967558
-0.0973289
-0.0978948
0.0406025
0.0405768
0.0404125
0.040169
0.039839
0.0394248
0.038932
0.0383641
0.0377246
0.037017
0.0362444
0.0354099
0.0345166
0.0335672
0.0325644
0.0315109
0.0304093
0.029262
0.0280714
0.0268398
0.0255695
0.0242627
0.0229216
0.0215481
0.0201445
0.0187126
0.0172544
0.0157717
0.0142665
0.0127405
0.0111955
0.00963315
0.00805515
0.0064631
0.00485856
0.00324306
0.00161808
-1.49575e-05
-0.00165466
-0.00329969
-0.00494876
-0.0066006
-0.00825403
-0.00990787
-0.011561
-0.0132124
-0.014861
-0.0165058
-0.0181458
-0.0197802
-0.0214082
-0.0230289
-0.0246415
-0.0262452
-0.0278395
-0.0294235
-0.0309967
-0.0325584
-0.0341082
-0.0356455
-0.0371698
-0.0386806
-0.0401775
-0.0416601
-0.043128
-0.0445809
-0.0460184
-0.0474403
-0.0488463
-0.0502361
-0.0516095
-0.0529663
-0.0543063
-0.0556293
-0.0569353
-0.0582239
-0.0594953
-0.0607491
-0.0619855
-0.0632042
-0.0644052
-0.0655885
-0.0667541
-0.0679019
-0.0690319
-0.0701441
-0.0712385
-0.0723152
-0.0733741
-0.0744154
-0.0754389
-0.0764448
-0.0774331
-0.078404
-0.0793573
-0.0802932
-0.0812118
-0.0821131
-0.0829972
-0.0838642
-0.0847141
-0.0855471
-0.0863632
-0.0871625
-0.0879451
-0.0887111
-0.0894605
-0.0901934
-0.0909101
-0.0916102
-0.0922944
-0.0929622
-0.0936142
-0.0942498
-0.0948699
-0.0954736
-0.0960608
-0.0966332
-0.0972082
-0.0977756
0.0407041
0.040681
0.0405194
0.040279
0.0399521
0.0395411
0.0390516
0.0384872
0.0378513
0.0371473
0.0363785
0.0355479
0.0346584
0.033713
0.0327142
0.0316648
0.0305673
0.029424
0.0282375
0.02701
0.0257438
0.024441
0.0231038
0.0217343
0.0203344
0.0189063
0.0174518
0.0159727
0.014471
0.0129484
0.0114066
0.00984743
0.00827243
0.00668325
0.00508144
0.00346853
0.00184599
0.000215249
-0.00142231
-0.00306536
-0.00471259
-0.00636276
-0.00801466
-0.00966714
-0.0113191
-0.0129694
-0.014617
-0.0162611
-0.0179005
-0.0195345
-0.0211621
-0.0227826
-0.0243951
-0.0259989
-0.0275933
-0.0291776
-0.0307512
-0.0323135
-0.0338639
-0.035402
-0.0369271
-0.0384388
-0.0399367
-0.0414205
-0.0428895
-0.0443437
-0.0457826
-0.0472059
-0.0486133
-0.0500047
-0.0513796
-0.0527381
-0.0540798
-0.0554046
-0.0567122
-0.0580028
-0.0592759
-0.0605317
-0.0617699
-0.0629906
-0.0641936
-0.0653789
-0.0665464
-0.0676963
-0.0688283
-0.0699427
-0.0710391
-0.0721179
-0.0731789
-0.0742223
-0.0752479
-0.076256
-0.0772464
-0.0782194
-0.0791748
-0.0801129
-0.0810336
-0.0819371
-0.0828234
-0.0836926
-0.0845446
-0.0853798
-0.0861981
-0.0869996
-0.0877844
-0.0885525
-0.0893042
-0.0900393
-0.0907582
-0.0914606
-0.092147
-0.0928171
-0.0934713
-0.0941093
-0.0947317
-0.0953378
-0.0959273
-0.0965022
-0.0970796
-0.0976496
0.0408136
0.0407935
0.0406348
0.0403977
0.0400741
0.0396666
0.0391807
0.03862
0.037988
0.0372879
0.0365232
0.0356967
0.0348115
0.0338703
0.0328759
0.0318308
0.0307377
0.0295989
0.0284168
0.0271936
0.0259318
0.0246333
0.0233004
0.0219352
0.0205395
0.0191154
0.0176649
0.0161897
0.0146918
0.0131728
0.0116346
0.0100788
0.00850706
0.00692099
0.00532214
0.00371204
0.00209215
0.000463896
-0.00117134
-0.00281223
-0.00445747
-0.00610582
-0.00775606
-0.00940705
-0.0110577
-0.0127068
-0.0143535
-0.0159967
-0.0176354
-0.0192689
-0.0208961
-0.0225163
-0.0241288
-0.0257327
-0.0273273
-0.0289119
-0.030486
-0.0320489
-0.0336
-0.0351388
-0.0366648
-0.0381775
-0.0396766
-0.0411615
-0.0426319
-0.0440874
-0.0455278
-0.0469526
-0.0483616
-0.0497546
-0.0511313
-0.0524915
-0.053835
-0.0551617
-0.0564713
-0.0577638
-0.059039
-0.0602967
-0.0615371
-0.0627598
-0.0639649
-0.0651524
-0.0663222
-0.0674742
-0.0686084
-0.0697249
-0.0708237
-0.0719047
-0.072968
-0.0740136
-0.0750415
-0.0760518
-0.0770446
-0.0780198
-0.0789776
-0.0799179
-0.0808409
-0.0817466
-0.0826352
-0.0835066
-0.084361
-0.0851983
-0.0860189
-0.0868226
-0.0876096
-0.0883799
-0.0891337
-0.0898709
-0.0905919
-0.0912963
-0.0919848
-0.0926568
-0.093313
-0.0939528
-0.0945771
-0.0951848
-0.0957762
-0.0963525
-0.0969318
-0.0975033
0.0409309
0.040914
0.0407584
0.0405248
0.0402048
0.039801
0.039319
0.0387623
0.0381344
0.0374386
0.0366782
0.0358561
0.0349754
0.0340389
0.0330491
0.0320087
0.0309203
0.0297862
0.0286088
0.0273905
0.0261333
0.0248395
0.0235112
0.0221505
0.0207593
0.0193396
0.0178934
0.0164224
0.0149285
0.0134135
0.0118791
0.0103269
0.00875868
0.00717597
0.00558032
0.00397324
0.00235621
0.000730632
-0.000902101
-0.00254066
-0.00418375
-0.00583013
-0.00747859
-0.00912797
-0.0107771
-0.012425
-0.0140706
-0.0157129
-0.0173509
-0.0189838
-0.0206106
-0.0222306
-0.023843
-0.0254469
-0.0270417
-0.0286268
-0.0302013
-0.0317648
-0.0333166
-0.0348563
-0.0363833
-0.0378971
-0.0393973
-0.0408836
-0.0423553
-0.0438123
-0.0452542
-0.0466807
-0.0480914
-0.0494862
-0.0508648
-0.0522269
-0.0535724
-0.054901
-0.0562127
-0.0575073
-0.0587846
-0.0600446
-0.0612871
-0.0625121
-0.0637196
-0.0649093
-0.0660814
-0.0672358
-0.0683724
-0.0694913
-0.0705925
-0.0716759
-0.0727416
-0.0737896
-0.07482
-0.0758327
-0.0768279
-0.0778055
-0.0787657
-0.0797084
-0.0806339
-0.081542
-0.082433
-0.0833068
-0.0841636
-0.0850033
-0.0858263
-0.0866323
-0.0874218
-0.0881944
-0.0889506
-0.0896901
-0.0904136
-0.0911203
-0.0918112
-0.0924855
-0.0931441
-0.0937862
-0.094413
-0.0950231
-0.095617
-0.0961958
-0.0967775
-0.0973517
0.0410559
0.0410424
0.0408901
0.0406602
0.040344
0.0399441
0.0394663
0.0389138
0.0382903
0.037599
0.0368433
0.036026
0.0351501
0.0342184
0.0332336
0.0321982
0.0311148
0.0299858
0.0288135
0.0276001
0.026348
0.0250592
0.0237358
0.02238
0.0209935
0.0195786
0.0181369
0.0166704
0.0151808
0.01367
0.0121397
0.0105914
0.00902697
0.00744785
0.00585562
0.00425179
0.00263782
0.00101512
-0.000614923
-0.00225098
-0.00389177
-0.00553603
-0.00718257
-0.00883022
-0.0104779
-0.0121244
-0.0137688
-0.0154101
-0.0170474
-0.0186796
-0.020306
-0.0219257
-0.023538
-0.025142
-0.026737
-0.0283224
-0.0298974
-0.0314615
-0.0330142
-0.0345548
-0.0360828
-0.0375978
-0.0390993
-0.0405869
-0.0420602
-0.0435187
-0.0449623
-0.0463905
-0.0478031
-0.0491998
-0.0505803
-0.0519445
-0.0532921
-0.0546229
-0.0559368
-0.0572336
-0.0585133
-0.0597756
-0.0610205
-0.0622479
-0.0634578
-0.06465
-0.0658246
-0.0669814
-0.0681206
-0.069242
-0.0703457
-0.0714317
-0.0725
-0.0735505
-0.0745835
-0.0755987
-0.0765965
-0.0775767
-0.0785395
-0.0794847
-0.0804128
-0.0813234
-0.082217
-0.0830932
-0.0839526
-0.0847948
-0.0856203
-0.0864287
-0.0872206
-0.0879956
-0.0887543
-0.0894961
-0.090222
-0.0909309
-0.0916243
-0.0923006
-0.0929617
-0.0936058
-0.0942349
-0.0948469
-0.095443
-0.0960235
-0.0966074
-0.0971833
0.0411883
0.0411783
0.0410296
0.0408037
0.0404914
0.0400958
0.0396223
0.0390744
0.0384555
0.037769
0.0370182
0.0362059
0.0353351
0.0344087
0.0334291
0.032399
0.031321
0.0301973
0.0290304
0.0278224
0.0265756
0.0252921
0.023974
0.0226232
0.0212419
0.0198319
0.0183951
0.0169334
0.0154485
0.0139421
0.0124161
0.0108721
0.0093116
0.00773631
0.00614773
0.00454736
0.00293665
0.00131703
-0.000310143
-0.00194353
-0.00358185
-0.00522385
-0.00686833
-0.00851413
-0.0101601
-0.0118052
-0.0134484
-0.0150887
-0.016725
-0.0183566
-0.0199825
-0.021602
-0.0232141
-0.0248181
-0.0264134
-0.0279991
-0.0295747
-0.0311396
-0.032693
-0.0342346
-0.0357637
-0.03728
-0.0387828
-0.0402719
-0.0417467
-0.043207
-0.0446523
-0.0460824
-0.0474969
-0.0488956
-0.0502783
-0.0516446
-0.0529944
-0.0543276
-0.0556438
-0.0569431
-0.0582251
-0.05949
-0.0607374
-0.0619674
-0.0631798
-0.0643747
-0.0655519
-0.0667114
-0.0678532
-0.0689773
-0.0700837
-0.0711724
-0.0722434
-0.0732967
-0.0743323
-0.0753504
-0.0763508
-0.0773337
-0.0782991
-0.0792472
-0.0801778
-0.0810912
-0.0819873
-0.0828663
-0.0837282
-0.0845731
-0.085401
-0.0862122
-0.0870065
-0.0877842
-0.0885452
-0.0892898
-0.0900177
-0.0907296
-0.0914248
-0.0921042
-0.092767
-0.0934142
-0.0940449
-0.09466
-0.0952575
-0.0958413
-0.0964263
-0.097006
0.041328
0.0413217
0.0411767
0.040955
0.040647
0.0402557
0.0397869
0.0392437
0.0386298
0.0379484
0.0372027
0.0363957
0.0355304
0.0346094
0.0336354
0.0326109
0.0315385
0.0304205
0.0292593
0.0280569
0.0268158
0.0255379
0.0242253
0.0228801
0.0215041
0.0200994
0.0186678
0.0172111
0.0157311
0.0142295
0.0127081
0.0111685
0.00961225
0.00804102
0.00645632
0.00485963
0.0032524
0.00163604
1.1925e-05
-0.00161862
-0.00325431
-0.0048939
-0.00653619
-0.00818001
-0.00982424
-0.0114678
-0.0131097
-0.0147488
-0.0163843
-0.0180151
-0.0196405
-0.0212596
-0.0228716
-0.0244757
-0.0260712
-0.0276573
-0.0292335
-0.030799
-0.0323534
-0.033896
-0.0354263
-0.0369438
-0.0384481
-0.0399387
-0.0414152
-0.0428772
-0.0443245
-0.0457565
-0.0471731
-0.048574
-0.0499589
-0.0513275
-0.0526797
-0.0540153
-0.055334
-0.0566358
-0.0579205
-0.059188
-0.0604381
-0.0616708
-0.062886
-0.0640836
-0.0652636
-0.0664259
-0.0675706
-0.0686976
-0.0698068
-0.0708983
-0.0719722
-0.0730283
-0.0740668
-0.0750877
-0.076091
-0.0770768
-0.0780451
-0.0789959
-0.0799294
-0.0808456
-0.0817445
-0.0826263
-0.0834909
-0.0843386
-0.0851692
-0.0859831
-0.0867801
-0.0875604
-0.0883241
-0.0890713
-0.0898019
-0.0905163
-0.0912142
-0.091896
-0.0925615
-0.093211
-0.0938445
-0.0944617
-0.0950621
-0.0956477
-0.0962357
-0.0968168
0.0414748
0.0414724
0.0413313
0.0411139
0.0408104
0.0404237
0.0399597
0.0394216
0.0388128
0.0381367
0.0373965
0.0365951
0.0357355
0.0348203
0.0338521
0.0328336
0.0317671
0.0306551
0.0294998
0.0283035
0.0270683
0.0257963
0.0244895
0.0231501
0.0217798
0.0203807
0.0189545
0.0175032
0.0160283
0.0145318
0.0130152
0.0114803
0.0099286
0.00836168
0.00678108
0.00518828
0.00358473
0.00197184
0.000350966
-0.00127656
-0.00290947
-0.0045465
-0.00618645
-0.00782817
-0.00947053
-0.0111124
-0.0127529
-0.0143908
-0.0160253
-0.0176554
-0.0192802
-0.020899
-0.0225107
-0.0241149
-0.0257106
-0.0272972
-0.0288739
-0.0304403
-0.0319955
-0.0335392
-0.0350707
-0.0365897
-0.0380954
-0.0395877
-0.0410659
-0.0425299
-0.0439791
-0.0454132
-0.046832
-0.0482352
-0.0496224
-0.0509935
-0.0523482
-0.0536864
-0.0550077
-0.0563123
-0.0575996
-0.0588699
-0.0601228
-0.0613584
-0.0625765
-0.0637771
-0.06496
-0.0661253
-0.0672729
-0.0684029
-0.0695152
-0.0706097
-0.0716866
-0.0727458
-0.0737872
-0.0748112
-0.0758174
-0.0768062
-0.0777775
-0.0787313
-0.0796677
-0.0805868
-0.0814886
-0.0823733
-0.0832408
-0.0840913
-0.0849248
-0.0857414
-0.0865412
-0.0873243
-0.0880907
-0.0888405
-0.0895738
-0.0902907
-0.0909913
-0.0916755
-0.0923436
-0.0929954
-0.0936314
-0.0942508
-0.0948536
-0.0954414
-0.0960316
-0.0966149
0.0416284
0.0416301
0.0414932
0.0412803
0.0409814
0.0405997
0.0401407
0.0396079
0.0390045
0.038334
0.0375995
0.036804
0.0359503
0.0350411
0.0340791
0.0330668
0.0320066
0.0309008
0.0297518
0.0285618
0.0273328
0.026067
0.0247664
0.0234331
0.0220688
0.0206755
0.0192551
0.0178093
0.01634
0.0148487
0.0133373
0.0118073
0.0102603
0.00869797
0.0071217
0.00553302
0.00393336
0.00232413
0.000706682
-0.000917657
-0.00254761
-0.00418193
-0.00581941
-0.0074589
-0.00909927
-0.0107394
-0.0123783
-0.014015
-0.0156484
-0.0172777
-0.0189019
-0.0205203
-0.0221319
-0.0237361
-0.025332
-0.026919
-0.0284964
-0.0300635
-0.0316197
-0.0331645
-0.0346974
-0.0362177
-0.0377251
-0.0392191
-0.0406992
-0.0421651
-0.0436164
-0.0450527
-0.0464739
-0.0478794
-0.0492691
-0.0506428
-0.0520002
-0.053341
-0.0546652
-0.0559725
-0.0572629
-0.058536
-0.059792
-0.0610305
-0.0622517
-0.0634553
-0.0646414
-0.0658098
-0.0669606
-0.0680937
-0.0692091
-0.0703069
-0.0713869
-0.0724492
-0.0734939
-0.074521
-0.0755304
-0.0765223
-0.0774967
-0.0784536
-0.0793932
-0.0803153
-0.0812202
-0.0821079
-0.0829784
-0.0838319
-0.0846684
-0.0854879
-0.0862906
-0.0870766
-0.0878458
-0.0885985
-0.0893346
-0.0900543
-0.0907575
-0.0914446
-0.0921152
-0.0927698
-0.0934083
-0.0940305
-0.0946356
-0.0952263
-0.0958187
-0.0964052
0.0417888
0.0417947
0.0416621
0.041454
0.0411599
0.0407833
0.0403296
0.0398022
0.0392045
0.0385399
0.0378114
0.037022
0.0361745
0.0352717
0.0343161
0.0333102
0.0322566
0.0311574
0.030015
0.0288315
0.0276091
0.0263498
0.0250557
0.0237287
0.0223707
0.0209836
0.0195692
0.0181293
0.0166657
0.01518
0.013674
0.0121492
0.0106072
0.0090496
0.00747789
0.00589354
0.00429798
0.00269261
0.00107878
-0.000542196
-0.00216903
-0.00380048
-0.00543536
-0.00707249
-0.00871075
-0.0103491
-0.0119864
-0.0136217
-0.0152539
-0.0168824
-0.0185059
-0.0201239
-0.0217353
-0.0233395
-0.0249356
-0.0265231
-0.0281011
-0.029669
-0.0312262
-0.0327723
-0.0343064
-0.0358283
-0.0373373
-0.0388331
-0.0403152
-0.0417832
-0.0432366
-0.0446753
-0.0460988
-0.0475069
-0.0488993
-0.0502756
-0.0516358
-0.0529795
-0.0543066
-0.0556169
-0.0569103
-0.0581866
-0.0594457
-0.0606874
-0.0619118
-0.0631186
-0.064308
-0.0654797
-0.0666338
-0.0677702
-0.068889
-0.06999
-0.0710734
-0.072139
-0.073187
-0.0742174
-0.0752302
-0.0762253
-0.077203
-0.0781632
-0.0791059
-0.0800313
-0.0809394
-0.0818303
-0.0827039
-0.0835605
-0.0844001
-0.0852227
-0.0860284
-0.0868173
-0.0875895
-0.0883451
-0.0890841
-0.0898067
-0.0905127
-0.0912025
-0.0918759
-0.0925332
-0.0931743
-0.0937992
-0.0944068
-0.0949999
-0.0955948
-0.0961837
0.0419557
0.0419661
0.0418379
0.0416348
0.0413457
0.0409744
0.0405263
0.0400046
0.0394128
0.0387542
0.0380319
0.0372489
0.0364079
0.0355117
0.0345628
0.0335637
0.0325169
0.0314246
0.0302891
0.0291125
0.0278969
0.0266444
0.025357
0.0240367
0.0226852
0.0213046
0.0198965
0.0184628
0.0170052
0.0155254
0.014025
0.0125056
0.0109689
0.00941628
0.00784936
0.00626956
0.00467831
0.003077
0.00146697
-0.00015046
-0.00177401
-0.00340244
-0.00503456
-0.0066692
-0.00830524
-0.00994158
-0.0115772
-0.013211
-0.0148421
-0.0164696
-0.0180925
-0.0197099
-0.0213212
-0.0229253
-0.0245217
-0.0261096
-0.0276883
-0.029257
-0.0308153
-0.0323625
-0.0338982
-0.0354216
-0.0369324
-0.03843
-0.0399142
-0.0413843
-0.0428401
-0.0442812
-0.0457073
-0.047118
-0.0485131
-0.0498923
-0.0512554
-0.0526021
-0.0539323
-0.0552457
-0.0565423
-0.0578218
-0.0590842
-0.0603293
-0.061557
-0.0627673
-0.0639601
-0.0651352
-0.0662928
-0.0674326
-0.0685549
-0.0696594
-0.0707463
-0.0718154
-0.0728669
-0.0739007
-0.074917
-0.0759156
-0.0768967
-0.0778603
-0.0788064
-0.0797352
-0.0806466
-0.0815407
-0.0824177
-0.0832775
-0.0841203
-0.0849461
-0.085755
-0.0865471
-0.0873224
-0.088081
-0.088823
-0.0895486
-0.0902576
-0.0909504
-0.0916266
-0.0922868
-0.0929306
-0.0935584
-0.0941687
-0.0947646
-0.0953621
-0.0959539
0.0421289
0.0421439
0.0420204
0.0418224
0.0415386
0.0411728
0.0407304
0.0402146
0.0396289
0.0389767
0.0382609
0.0374845
0.0366503
0.0357609
0.034819
0.033827
0.0327873
0.0317021
0.0305738
0.0294043
0.0281959
0.0269505
0.0256701
0.0243567
0.0230121
0.0216382
0.0202368
0.0188095
0.0173582
0.0158844
0.01439
0.0128763
0.011345
0.00979773
0.00823582
0.0066608
0.00507406
0.00347701
0.00187097
0.000257271
-0.00136283
-0.00298808
-0.0046173
-0.00624931
-0.007883
-0.00951726
-0.0111511
-0.0127834
-0.0144132
-0.0160397
-0.0176618
-0.0192788
-0.0208897
-0.0224939
-0.0240905
-0.0256788
-0.0272582
-0.0288278
-0.0303872
-0.0319357
-0.0334727
-0.0349978
-0.0365104
-0.0380101
-0.0394963
-0.0409687
-0.0424269
-0.0438706
-0.0452993
-0.0467128
-0.0481108
-0.0494929
-0.0508591
-0.052209
-0.0535423
-0.0548591
-0.056159
-0.0574419
-0.0587078
-0.0599564
-0.0611876
-0.0624015
-0.0635978
-0.0647766
-0.0659378
-0.0670813
-0.0682072
-0.0693154
-0.0704059
-0.0714787
-0.0725338
-0.0735713
-0.0745911
-0.0755934
-0.0765781
-0.0775452
-0.0784949
-0.0794272
-0.0803421
-0.0812397
-0.0821201
-0.0829834
-0.0838295
-0.0846586
-0.0854708
-0.0862661
-0.0870447
-0.0878065
-0.0885517
-0.0892803
-0.0899925
-0.0906881
-0.0913675
-0.0920305
-0.0926775
-0.0933079
-0.0939213
-0.0945197
-0.0951201
-0.0957143
0.0423084
0.0423282
0.0422095
0.0420168
0.0417384
0.0413783
0.0409418
0.0404322
0.0398529
0.0392071
0.0384981
0.0377285
0.0369014
0.0360192
0.0350845
0.0340998
0.0330675
0.0319898
0.0308689
0.0297068
0.0285058
0.0272678
0.0259948
0.0246886
0.0233512
0.0219843
0.0205897
0.0191692
0.0177244
0.016257
0.0147687
0.013261
0.0117355
0.0101937
0.00863701
0.00706698
0.00548497
0.00389238
0.00229053
0.000680735
-0.000935739
-0.00255766
-0.00418382
-0.00581307
-0.00744428
-0.00907636
-0.0107083
-0.0123389
-0.0139675
-0.0155928
-0.0172142
-0.0188306
-0.0204413
-0.0220454
-0.0236422
-0.025231
-0.026811
-0.0283816
-0.0299421
-0.0314919
-0.0330305
-0.0345572
-0.0360717
-0.0375734
-0.0390619
-0.0405367
-0.0419974
-0.0434437
-0.0448752
-0.0462916
-0.0476926
-0.0490778
-0.0504472
-0.0518003
-0.0531371
-0.0544573
-0.0557607
-0.0570472
-0.0583167
-0.0595689
-0.0608039
-0.0620215
-0.0632216
-0.0644041
-0.0655691
-0.0667165
-0.0678462
-0.0689582
-0.0700525
-0.0711292
-0.0721881
-0.0732294
-0.074253
-0.075259
-0.0762474
-0.0772183
-0.0781717
-0.0791077
-0.0800262
-0.0809275
-0.0818114
-0.0826782
-0.0835279
-0.0843605