/*--------------------------------*- C++ -*----------------------------------*\
  =========                 |
  \\      /  F ield         | OpenFOAM: The Open Source CFD Toolbox
   \\    /   O peration     | Website:  https://openfoam.org
    \\  /    A nd           | Version:  8
     \\/     M anipulation  |
\*---------------------------------------------------------------------------*/
FoamFile
{
    version     2.0;
    format      ascii;
    class       volScalarField;
    location    "26";
    object      p;
}
// * * * * * * * * * * * * * * * * * * * * * * * * * * * * * * * * * * * * * //

dimensions      [0 2 -2 0 0 0 0];

internalField   nonuniform List<scalar> 
277560
(
-0.0180218
-0.00342644
-0.00476051
-0.00556791
-0.00549698
-0.00553789
-0.00545013
-0.00521133
-0.00481879
-0.00425689
-0.00351404
-0.00258187
-0.00145337
-0.000123936
0.00140972
0.00314884
0.00509364
0.0072426
0.00959341
0.0121422
0.0148844
0.0178143
0.0209255
0.0242108
0.0276622
0.0312712
0.0350287
0.0389248
0.0429496
0.0470924
0.0513418
0.0556868
0.0601149
0.0646147
0.0691731
0.0737779
0.0784155
0.0830734
0.0877374
0.0923948
0.0970312
0.101633
0.106187
0.11068
0.115096
0.119425
0.12365
0.127761
0.131745
0.135589
0.139281
0.142813
0.146172
0.14935
0.152339
0.155132
0.157722
0.160104
0.162274
0.164231
0.165973
0.167501
0.168817
0.169924
0.170826
0.171528
0.172034
0.17235
0.172482
0.172436
0.17222
0.17184
0.171304
0.170618
0.169792
0.168834
0.16775
0.16655
0.165242
0.163833
0.162332
0.160747
0.159086
0.157356
0.155565
0.153718
0.151821
0.149878
0.147897
0.145884
0.143845
0.141784
0.139709
0.137621
0.135528
0.133432
0.131337
0.129247
0.127165
0.125094
0.123035
0.120992
0.118966
0.116959
0.114972
0.113005
0.111061
0.109138
0.107237
0.105359
0.103503
0.101668
0.0998536
0.0980597
0.096286
0.0945233
0.0927541
0.0910499
0.0897129
0.0883952
-0.0168468
-0.00444662
-0.00466941
-0.00559137
-0.00556663
-0.00559991
-0.0055275
-0.0053035
-0.00492529
-0.00437814
-0.00365035
-0.00273329
-0.00162021
-0.0003063
0.00121151
0.00293464
0.00486309
0.00699551
0.00932937
0.011861
0.0145856
0.0174977
0.0205908
0.0238575
0.02729
0.0308798
0.0346176
0.0384937
0.0424981
0.04662
0.0508484
0.0551716
0.059578
0.0640553
0.0685913
0.0731729
0.0777876
0.0824216
0.0870621
0.0916951
0.0963075
0.100885
0.105414
0.109881
0.114273
0.118576
0.122776
0.126861
0.130819
0.134636
0.138303
0.141808
0.145141
0.148292
0.151255
0.15402
0.156584
0.158938
0.161082
0.163011
0.164726
0.166226
0.167514
0.168592
0.169466
0.170139
0.170616
0.170903
0.171006
0.170931
0.170685
0.170274
0.169707
0.16899
0.168132
0.167141
0.166025
0.164791
0.163449
0.162006
0.16047
0.15885
0.157153
0.155387
0.15356
0.151677
0.149743
0.147764
0.145746
0.143695
0.141618
0.13952
0.137405
0.13528
0.133147
0.131012
0.128878
0.126749
0.124627
0.122516
0.120418
0.118335
0.116269
0.114221
0.112193
0.110186
0.1082
0.106236
0.104294
0.102374
0.100476
0.098598
0.0967411
0.0949041
0.0930868
0.0912792
0.0894652
0.0877212
0.0863488
0.0849715
-0.016744
-0.00471794
-0.00466927
-0.00567098
-0.00567132
-0.00572052
-0.00567397
-0.00547538
-0.00512275
-0.00460163
-0.00390019
-0.00300975
-0.00192363
-0.000636991
0.00085316
0.00254827
0.00444825
0.00655178
0.00885623
0.0113579
0.0140521
0.0169332
0.0199947
0.0232292
0.026629
0.0301853
0.0338891
0.0377306
0.0416996
0.0457855
0.0499773
0.0542633
0.058632
0.0630708
0.0675679
0.07211
0.0766846
0.0812781
0.0858777
0.0904693
0.0950398
0.099575
0.104062
0.108486
0.112835
0.117093
0.12125
0.125291
0.129204
0.132977
0.136599
0.140059
0.143346
0.146453
0.149369
0.152089
0.154605
0.156914
0.15901
0.160892
0.162558
0.16401
0.165248
0.166278
0.167102
0.167725
0.168153
0.16839
0.168442
0.168316
0.168019
0.167556
0.166936
0.166167
0.165256
0.164211
0.163041
0.161754
0.160358
0.158861
0.157271
0.155596
0.153845
0.152025
0.150143
0.148207
0.14622
0.144188
0.142119
0.140017
0.137889
0.13574
0.133576
0.131402
0.129221
0.127039
0.124859
0.122684
0.120519
0.118365
0.116225
0.114102
0.111997
0.109913
0.107849
0.105809
0.103791
0.101798
0.0998286
0.0978836
0.0959624
0.0940651
0.0921907
0.0903396
0.0885107
0.0866953
0.0848756
0.0831301
0.081765
0.0804126
-0.0167976
-0.004782
-0.00473297
-0.00578992
-0.00582038
-0.00590361
-0.00589462
-0.00573357
-0.00541897
-0.00493639
-0.00427384
-0.00342271
-0.0023763
-0.00112986
0.000319606
0.00197343
0.00383152
0.00589243
0.00815355
0.0106111
0.0132603
0.0160955
0.0191102
0.0222971
0.0256481
0.0291547
0.0328078
0.0365976
0.0405139
0.0445461
0.0486832
0.0529136
0.0572254
0.0616068
0.0660451
0.0705278
0.0750419
0.0795744
0.0841116
0.0886406
0.0931473
0.0976184
0.10204
0.106399
0.11068
0.114872
0.118961
0.122934
0.126778
0.130482
0.134033
0.137422
0.140638
0.143672
0.146515
0.149161
0.151603
0.153836
0.155856
0.157661
0.159248
0.160619
0.161776
0.162724
0.163466
0.164007
0.164352
0.164505
0.164473
0.164262
0.163878
0.163329
0.162622
0.161765
0.160766
0.159632
0.158373
0.156996
0.155509
0.153921
0.15224
0.150474
0.148631
0.146719
0.144745
0.142717
0.14064
0.138518
0.136358
0.134167
0.131949
0.129711
0.127458
0.125195
0.122926
0.120657
0.118389
0.116128
0.113876
0.111637
0.109411
0.107204
0.105015
0.102846
0.1007
0.098576
0.0964758
0.0944001
0.0923486
0.0903218
0.088319
0.0863403
0.0843846
0.0824522
0.0805421
0.0786452
0.0767435
0.0749172
0.0734808
0.0720569
-0.0168281
-0.00481011
-0.00483805
-0.00594203
-0.00601561
-0.00614743
-0.00618755
-0.00607593
-0.00581131
-0.00537911
-0.00476733
-0.00396743
-0.00297277
-0.00177872
-0.000382355
0.00121756
0.00302086
0.00502603
0.00723038
0.00963009
0.0122203
0.0149954
0.0179487
0.0210729
0.02436
0.0278014
0.0313879
0.0351098
0.0389568
0.0429184
0.0469835
0.0511407
0.055378
0.0596836
0.0640447
0.0684493
0.0728839
0.0773359
0.0817914
0.0862377
0.0906607
0.0950471
0.099383
0.103655
0.107849
0.111953
0.115953
0.119835
0.123588
0.1272
0.130659
0.133954
0.137075
0.140014
0.142761
0.145309
0.147653
0.149786
0.151705
0.153406
0.154889
0.156153
0.157204
0.158044
0.158678
0.15911
0.159346
0.159389
0.159246
0.158923
0.158427
0.157766
0.156945
0.155974
0.15486
0.153612
0.152237
0.150744
0.149142
0.147438
0.145641
0.143759
0.141801
0.139773
0.137684
0.13554
0.13335
0.131116
0.128846
0.126544
0.124217
0.121871
0.119512
0.117143
0.11477
0.112398
0.110029
0.107669
0.105319
0.102984
0.100665
0.0983657
0.0960875
0.0938317
0.0916005
0.0893944
0.0872148
0.0850618
0.0829362
0.0808378
0.0787667
0.0767223
0.0747044
0.0727126
0.0707469
0.068797
0.0668453
0.0649725
0.0635043
0.0620654
-0.0168589
-0.00482127
-0.00497137
-0.00612576
-0.00625515
-0.00644859
-0.00654911
-0.00649818
-0.00629473
-0.00592403
-0.00537425
-0.00463692
-0.00370559
-0.00257568
-0.00124443
0.000289357
0.00202539
0.0039621
0.00609671
0.00842535
0.0109431
0.0136443
0.0165221
0.0195694
0.022778
0.0261393
0.029644
0.0332825
0.0370444
0.0409193
0.044896
0.0489631
0.053109
0.0573211
0.0615879
0.0658958
0.070233
0.0745855
0.0789409
0.083285
0.0876051
0.0918869
0.0961174
0.100282
0.104369
0.108363
0.112253
0.116024
0.119665
0.123163
0.126507
0.129686
0.13269
0.13551
0.138137
0.140564
0.142784
0.144793
0.146586
0.148159
0.149511
0.150644
0.151561
0.152267
0.152766
0.153062
0.153161
0.153066
0.152785
0.152322
0.151686
0.150883
0.14992
0.148806
0.147549
0.146157
0.144637
0.142999
0.141252
0.139402
0.13746
0.135432
0.133328
0.131154
0.12892
0.126631
0.124296
0.121919
0.119508
0.117065
0.114599
0.112113
0.109616
0.107109
0.104601
0.102093
0.0995902
0.0970964
0.0946153
0.0921489
0.089701
0.0872729
0.0848675
0.0824857
0.0801296
0.0777997
0.0754975
0.0732228
0.0709767
0.0687587
0.0665691
0.064407
0.0622724
0.0601647
0.0580839
0.0560194
0.0539529
0.0519676
0.0504019
0.0488723
-0.0168978
-0.00482154
-0.00512793
-0.00634025
-0.00653724
-0.00680431
-0.00697597
-0.00699643
-0.00686482
-0.00656639
-0.00608951
-0.00542587
-0.00456913
-0.00351485
-0.00226034
-0.000804529
0.000852224
0.00270825
0.0047607
0.0070056
0.00943802
0.0120521
0.0148412
0.0177978
0.0209139
0.0241808
0.0275893
0.0311295
0.0347913
0.038564
0.0424365
0.0463976
0.0504353
0.0545378
0.0586926
0.0628873
0.0671089
0.0713446
0.0755811
0.0798052
0.0840033
0.088162
0.0922675
0.0963065
0.100265
0.104131
0.10789
0.111529
0.115036
0.1184
0.121608
0.12465
0.127514
0.130193
0.132678
0.134961
0.137035
0.138896
0.140539
0.14196
0.143157
0.144134
0.144893
0.14544
0.145779
0.145914
0.14585
0.145592
0.145146
0.144518
0.143715
0.142745
0.141614
0.140331
0.138904
0.137341
0.135651
0.133842
0.131923
0.129902
0.127788
0.125589
0.123313
0.120968
0.118562
0.116104
0.113598
0.111055
0.108477
0.105871
0.103241
0.100595
0.0979366
0.0952726
0.0926068
0.0899444
0.0872888
0.0846446
0.0820144
0.0794021
0.0768097
0.0742405
0.0716956
0.0691777
0.0666876
0.0642272
0.0617966
0.0593972
0.0570288
0.0546921
0.0523864
0.050112
0.0478677
0.0456541
0.0434703
0.0413063
0.0391419
0.0370639
0.035424
0.03384
-0.0169414
-0.00481799
-0.00530578
-0.00658431
-0.00686004
-0.00721185
-0.00746491
-0.0075671
-0.00751776
-0.00730214
-0.00690881
-0.00632964
-0.00555839
-0.00459074
-0.00342414
-0.00205761
-0.000491624
0.00127206
0.00323047
0.00537957
0.00771433
0.0102288
0.0129163
0.0157693
0.0187796
0.0219386
0.0252369
0.0286647
0.0322118
0.0358676
0.039621
0.0434605
0.0473747
0.0513513
0.0553781
0.0594428
0.0635322
0.0676339
0.0717343
0.0758206
0.079879
0.0838962
0.0878585
0.0917527
0.095565
0.0992823
0.102891
0.106379
0.109734
0.112943
0.115994
0.118877
0.121582
0.124099
0.12642
0.128537
0.130443
0.132134
0.133604
0.13485
0.135871
0.136667
0.137246
0.13761
0.137765
0.137714
0.137463
0.137017
0.136381
0.135563
0.134568
0.133405
0.13208
0.130603
0.12898
0.127221
0.125335
0.123329
0.121212
0.118993
0.116681
0.114284
0.111811
0.109269
0.106666
0.10401
0.101309
0.0985699
0.095799
0.0930015
0.0901829
0.0873482
0.0845035
0.0816538
0.0788043
0.0759592
0.0731231
0.0702995
0.0674922
0.064704
0.0619381
0.0591965
0.0564818
0.0537953
0.051139
0.0485136
0.0459205
0.0433599
0.0408325
0.0383382
0.0358771
0.0334485
0.0310521
0.0286878
0.0263552
0.0240432
0.0217315
0.0195092
0.0177457
0.0160503
-0.0169869
-0.00481571
-0.0055039
-0.00685682
-0.00722187
-0.00766875
-0.00801318
-0.00820719
-0.00825027
-0.00812763
-0.0078281
-0.0073437
-0.00666834
-0.00579785
-0.0047298
-0.00346333
-0.00199905
-0.000338823
0.00151427
0.00355607
0.00578146
0.00818442
0.0107581
0.013495
0.0163869
0.0194249
0.0225998
0.0259018
0.0293205
0.0328453
0.0364651
0.0401685
0.043944
0.0477796
0.051663
0.0555817
0.0595231
0.0634742
0.0674222
0.0713537
0.0752554
0.0791138
0.0829156
0.086647
0.0902949
0.0938457
0.0972866
0.100604
0.103787
0.106822
0.109698
0.112403
0.114928
0.117263
0.1194
0.12133
0.123048
0.124547
0.125823
0.126872
0.127694
0.128289
0.128664
0.128823
0.128772
0.128513
0.128052
0.127394
0.126546
0.125513
0.124302
0.122922
0.12138
0.119683
0.117842
0.115862
0.113755
0.111527
0.109188
0.106748
0.104213
0.101594
0.0988986
0.0961346
0.0933108
0.0904342
0.0875134
0.0845547
0.081566
0.0785529
0.0755217
0.0724762
0.0694225
0.0663653
0.0633106
0.0602621
0.0572251
0.0542026
0.0511991
0.0482169
0.0452599
0.0423296
0.0394294
0.0365599
0.033724
0.0309217
0.0281552
0.0254241
0.0227297
0.0200714
0.0174499
0.0148641
0.0123142
0.00979957
0.00732035
0.00486467
0.0024115
5.2719e-05
-0.00182313
-0.00360961
-0.0170327
-0.00481771
-0.00572149
-0.00715658
-0.00762101
-0.0081728
-0.00861826
-0.00891383
-0.00905906
-0.00903915
-0.00884321
-0.00846343
-0.00789389
-0.00713058
-0.00617121
-0.00501507
-0.00366291
-0.00211672
-0.000379723
0.00154382
0.00364868
0.00592873
0.00837706
0.010986
0.0137474
0.0166522
0.0196912
0.0228544
0.0261315
0.0295119
0.0329846
0.036538
0.0401607
0.0438407
0.0475659
0.0513237
0.0551016
0.0588868
0.0626664
0.0664271
0.0701558
0.073839
0.0774634
0.0810154
0.0844817
0.0878488
0.0911039
0.0942339
0.0972265
0.100069
0.102751
0.10526
0.107586
0.10972
0.111654
0.113378
0.114887
0.116175
0.117237
0.11807
0.118672
0.119046
0.119196
0.119129
0.118849
0.118361
0.117668
0.116777
0.115693
0.114424
0.112975
0.111356
0.109573
0.107635
0.10555
0.103327
0.100975
0.098503
0.0959192
0.093233
0.090453
0.0875882
0.0846469
0.0816378
0.0785688
0.0754482
0.0722834
0.0690822
0.0658513
0.0625979
0.0593282
0.0560477
0.0527607
0.0494725
0.0461878
0.0429119
0.0396489
0.0364031
0.0331779
0.0299769
0.0268026
0.0236583
0.0205455
0.0174668
0.0144232
0.0114165
0.00844729
0.0055167
0.00262467
-0.000228161
-0.00304233
-0.00581785
-0.00855558
-0.0112551
-0.0139173
-0.0165536
-0.0191873
-0.0217213
-0.0237479
-0.0256662
-0.0170778
-0.0048257
-0.0059579
-0.00748251
-0.00805599
-0.0087221
-0.00927785
-0.00968431
-0.00994098
-0.0100331
-0.00995006
-0.00968428
-0.00923001
-0.00858341
-0.00774236
-0.00670633
-0.00547621
-0.00405414
-0.00244348
-0.000648612
0.00132511
0.00347146
0.00578343
0.00825328
0.0108727
0.0136327
0.0165238
0.0195361
0.0226594
0.0258828
0.0291953
0.0325856
0.036042
0.0395527
0.0431056
0.0466883
0.0502881
0.0538926
0.0574887
0.0610635
0.0646037
0.0680961
0.0715272
0.0748837
0.0781521
0.0813193
0.084372
0.0872975
0.090083
0.0927167
0.0951866
0.097482
0.099592
0.101507
0.103219
0.104719
0.106001
0.107059
0.107889
0.108487
0.10885
0.108983
0.108889
0.108577
0.108048
0.10731
0.106365
0.10522
0.10388
0.102353
0.100646
0.0987656
0.0967206
0.0945196
0.0921705
0.0896827
0.0870645
0.0843257
0.0814746
0.078521
0.0754731
0.0723406
0.0691315
0.0658551
0.062519
0.0591322
0.0557017
0.0522359
0.0487413
0.0452256
0.0416946
0.0381556
0.0346131
0.0310724
0.0275373
0.0240134
0.0205044
0.0170155
0.0135494
0.0101106
0.00670115
0.00332477
-1.72581e-05
-0.00332179
-0.00658825
-0.00981418
-0.0129995
-0.0161426
-0.0192438
-0.022302
-0.0253181
-0.0282918
-0.0312242
-0.0341145
-0.0369638
-0.0397837
-0.0425992
-0.0453088
-0.0474829
-0.0495241
-0.0171216
-0.00484064
-0.0062125
-0.00783354
-0.00852542
-0.00931476
-0.00998962
-0.0105158
-0.0108928
-0.0111058
-0.0111445
-0.0110017
-0.0106717
-0.0101508
-0.0094373
-0.0085307
-0.00743205
-0.00614368
-0.00466907
-0.00301273
-0.00118016
0.000822314
0.00298756
0.00530775
0.00777444
0.0103786
0.0131107
0.0159608
0.0189185
0.021973
0.0251132
0.0283279
0.0316054
0.0349338
0.0383011
0.0416952
0.0451032
0.0485129
0.0519113
0.0552856
0.0586227
0.0619094
0.0651322
0.068278
0.0713333
0.0742849
0.0771196
0.0798247
0.0823873
0.0847957
0.0870378
0.0891028
0.0909799
0.0926597
0.0941329
0.0953919
0.0964298
0.097241
0.0978208
0.0981656
0.0982733
0.0981464
0.0977914
0.0972143
0.0964195
0.0954117
0.0941957
0.0927773
0.0911627
0.0893587
0.0873726
0.0852122
0.0828856
0.0804012
0.0777678
0.0749943
0.07209
0.0690638
0.0659251
0.062683
0.0593468
0.0559254
0.0524279
0.0488629
0.0452391
0.0415645
0.0378476
0.0340956
0.0303164
0.0265167
0.0227037
0.0188834
0.0150623
0.0112456
0.00743846
0.00364437
-0.000132004
-0.00388669
-0.00761531
-0.0113148
-0.0149815
-0.0186133
-0.022207
-0.0257612
-0.0292735
-0.0327433
-0.0361686
-0.0395494
-0.0428845
-0.0461742
-0.0494182
-0.0526172
-0.0557714
-0.0588809
-0.0619458
-0.0649793
-0.0680066
-0.070923
-0.0732737
-0.0754693
-0.0171636
-0.00486301
-0.00648468
-0.00820871
-0.00902797
-0.00994897
-0.0107513
-0.0114057
-0.0119113
-0.0122536
-0.0124226
-0.0124111
-0.0122139
-0.0118275
-0.0112503
-0.0104819
-0.00952364
-0.008378
-0.00704858
-0.00554005
-0.00385804
-0.00200902
-2.19667e-07
0.00216041
0.00446433
0.0069024
0.00946504
0.0121422
0.0149234
0.0177978
0.0207544
0.0237818
0.0268684
0.0300024
0.0331717
0.0363642
0.0395675
0.0427691
0.0459563
0.0491163
0.0522363
0.0553031
0.0583036
0.0612242
0.064052
0.0667734
0.0693756
0.0718453
0.0741703
0.076338
0.0783372
0.0801563
0.0817852
0.0832137
0.0844332
0.0854352
0.0862133
0.0867614
0.0870754
0.087151
0.0869866
0.0865841
0.0859505
0.0850919
0.0840134
0.0827191
0.0812147
0.0795053
0.0775979
0.0754987
0.0732159
0.0707567
0.0681299
0.0653436
0.0624073
0.0593293
0.0561197
0.0527871
0.0493416
0.0457918
0.0421479
0.0384182
0.0346128
0.0307396
0.0268083
0.0228265
0.0188033
0.0147457
0.0106621
0.00655908
0.00244434
-0.00167638
-0.00579605
-0.00990959
-0.0140107
-0.0180951
-0.0221582
-0.0261971
-0.0302071
-0.0341853
-0.0381276
-0.042032
-0.0458948
-0.0497151
-0.0534898
-0.0572186
-0.0608992
-0.0645317
-0.0681146
-0.0716485
-0.0751326
-0.078568
-0.0819543
-0.0852921
-0.0885811
-0.0918353
-0.095081
-0.0982093
-0.100739
-0.103087
-0.0172034
-0.00489297
-0.00677379
-0.00860704
-0.00956226
-0.0106229
-0.0115606
-0.0123512
-0.0129935
-0.013473
-0.0137802
-0.0139083
-0.013852
-0.0136082
-0.0131754
-0.0125536
-0.0117442
-0.0107498
-0.00957413
-0.00822212
-0.00669949
-0.00501284
-0.00316956
-0.00117771
0.000954033
0.00321645
0.00559982
0.00809401
0.0106885
0.0133725
0.0161347
0.0189639
0.0218484
0.0247764
0.0277361
0.0307152
0.0337014
0.0366824
0.0396456
0.0425784
0.0454681
0.0483017
0.0510661
0.0537482
0.0563347
0.0588124
0.0611681
0.0633888
0.065462
0.0673753
0.0691173
0.0706765
0.0720426
0.0732056
0.0741567
0.0748874
0.075391
0.0756616
0.0756948
0.0754867
0.0750351
0.074342
0.0734144
0.072259
0.0708808
0.0692844
0.0674751
0.0654588
0.0632419
0.0608314
0.0582348
0.0554603
0.0525161
0.0494111
0.0461542
0.0427548
0.0392221
0.0355658
0.0317953
0.0279204
0.0239503
0.0198948
0.0157627
0.0115636
0.00730608
0.00299901
-0.00134946
-0.00573093
-0.0101379
-0.0145627
-0.0189984
-0.023438
-0.0278754
-0.0323043
-0.0367195
-0.0411154
-0.0454872
-0.0498304
-0.0541418
-0.0584181
-0.0626564
-0.066853
-0.0710059
-0.0751121
-0.0791705
-0.0831786
-0.0871361
-0.0910412
-0.094894
-0.0986936
-0.10244
-0.106134
-0.109776
-0.113365
-0.116903
-0.120401
-0.123891
-0.127255
-0.129989
-0.132511
-0.0172407
-0.00493045
-0.00707924
-0.00902755
-0.0101269
-0.0113346
-0.0124154
-0.0133497
-0.0141362
-0.0147606
-0.0152136
-0.0154887
-0.0155811
-0.0154876
-0.0152071
-0.0147397
-0.014087
-0.0132517
-0.0122379
-0.0110505
-0.00969544
-0.00817951
-0.00651025
-0.00469588
-0.00274521
-0.000667591
0.00152717
0.00382886
0.0062269
0.0087104
0.0112682
0.0138889
0.0165608
0.0192723
0.0220114
0.024766
0.0275238
0.0302727
0.0330001
0.0356936
0.0383407
0.0409286
0.0434444
0.0458752
0.0482077
0.0504288
0.0525252
0.0544842
0.0562927
0.0579387
0.0594104
0.0606966
0.0617867
0.0626711
0.0633403
0.0637866
0.0640023
0.0639821
0.063721
0.0632159
0.0624636
0.0614664
0.0602308
0.0587644
0.0570721
0.0551592
0.0530305
0.0506925
0.0481512
0.0454143
0.0424889
0.0393838
0.0361067
0.0326674
0.0290742
0.0253374
0.0214657
0.0174695
0.0133579
0.00914135
0.00482873
0.00043054
-0.00404468
-0.00858669
-0.0131873
-0.0178368
-0.0225275
-0.0272501
-0.0319976
-0.0367615
-0.0415353
-0.0463112
-0.0510836
-0.0558454
-0.0605916
-0.065316
-0.0700145
-0.0746816
-0.0793139
-0.0839063
-0.0884571
-0.0929627
-0.0974219
-0.101831
-0.106188
-0.110492
-0.114741
-0.118934
-0.123071
-0.12715
-0.131173
-0.135138
-0.139047
-0.142899
-0.146695
-0.150448
-0.15419
-0.1578
-0.160742
-0.163443
-0.0172753
-0.00497529
-0.0074004
-0.00946922
-0.0107205
-0.0120824
-0.0133132
-0.0143985
-0.0153364
-0.0161127
-0.0167188
-0.0171483
-0.0173965
-0.0174606
-0.0173396
-0.0170339
-0.0165452
-0.0158765
-0.015032
-0.0140168
-0.0128372
-0.0115
-0.010013
-0.0083846
-0.00662372
-0.00473979
-0.0027427
-0.000642713
0.00154955
0.00382317
0.00616693
0.00856944
0.0110191
0.0135041
0.0160127
0.0185326
0.0210518
0.0235581
0.026039
0.0284824
0.0308756
0.0332064
0.0354619
0.0376296
0.0396963
0.0416491
0.0434746
0.0451598
0.046692
0.0480588
0.0492484
0.0502496
0.0510518
0.0516453
0.0520209
0.0521704
0.0520864
0.0517632
0.051196
0.0503815
0.0493166
0.0480029
0.046447
0.0446568
0.0426377
0.040395
0.037934
0.0352608
0.032382
0.0293049
0.0260373
0.0225874
0.0189639
0.0151758
0.0112326
0.00714359
0.00291872
-0.00143231
-0.00589945
-0.0104729
-0.0151427
-0.0198992
-0.0247324
-0.0296333
-0.0345921
-0.0396001
-0.0446484
-0.0497285
-0.0548322
-0.0599518
-0.0650795
-0.0702086
-0.0753319
-0.0804434
-0.0855369
-0.0906071
-0.0956485
-0.100657
-0.105627
-0.110556
-0.115439
-0.120273
-0.125056
-0.129785
-0.13446
-0.139078
-0.143637
-0.148136
-0.152575
-0.156954
-0.161271
-0.165528
-0.169724
-0.173859
-0.177933
-0.181962
-0.185977
-0.189853
-0.193023
-0.195922
-0.0173071
-0.00502726
-0.00773661
-0.00993101
-0.0113417
-0.0128644
-0.014252
-0.015495
-0.016591
-0.0175262
-0.0182921
-0.0188827
-0.0192935
-0.019522
-0.0195674
-0.0194302
-0.0191124
-0.0186173
-0.0179492
-0.0171137
-0.0161171
-0.0149666
-0.01367
-0.0122358
-0.0106731
-0.00899135
-0.00720046
-0.00531077
-0.00333296
-0.00127799
0.00084291
0.00301832
0.00523662
0.00748614
0.00975485
0.0120308
0.0143019
0.016556
0.0187808
0.020964
0.0230934
0.0251567
0.0271415
0.0290352
0.0308252
0.0324987
0.0340426
0.0354435
0.0366888
0.0377657
0.0386625
0.0393679
0.0398715
0.0401633
0.0402344
0.0400762
0.0396818
0.0390447
0.0381608
0.0370259
0.0356378
0.0339967
0.0321095
0.029984
0.0276269
0.0250428
0.0222378
0.0192176
0.0159894
0.0125601
0.0089381
0.0051312
0.00114886
-0.00300045
-0.00730653
-0.0117604
-0.0163515
-0.0210704
-0.0259064
-0.0308501
-0.0358907
-0.041019
-0.0462243
-0.0514978
-0.0568291
-0.0622098
-0.0676301
-0.0730821
-0.0785567
-0.0840466
-0.0895432
-0.0950402
-0.10053
-0.106006
-0.111462
-0.116893
-0.122293
-0.127657
-0.13298
-0.13826
-0.14349
-0.14867
-0.153794
-0.158862
-0.163869
-0.168815
-0.173698
-0.178519
-0.183275
-0.187966
-0.192592
-0.197153
-0.201649
-0.206079
-0.210444
-0.214759
-0.219058
-0.22321
-0.226618
-0.22972
-0.017336
-0.00508612
-0.00808716
-0.0104119
-0.0119891
-0.0136788
-0.0152296
-0.0166367
-0.0178972
-0.0189976
-0.0199297
-0.0206877
-0.0212675
-0.0216668
-0.0218848
-0.0219226
-0.0217823
-0.0214675
-0.0209831
-0.0203346
-0.0195286
-0.0185724
-0.0174739
-0.0162417
-0.0148849
-0.013413
-0.0118361
-0.0101646
-0.00840919
-0.0065809
-0.00469097
-0.00275087
-0.000772145
0.00123331
0.0032538
0.00527719
0.0072915
0.00928458
0.0112443
0.0131585
0.015015
0.0168014
0.0185059
0.0201158
0.0216191
0.0230032
0.0242554
0.0253623
0.0263112
0.0270887
0.0276833
0.0280834
0.0282788
0.0282592
0.0280161
0.0275408
0.0268263
0.025866
0.0246555
0.023191
0.0214701
0.0194924
0.0172641
0.0147936
0.0120882
0.00915285
0.00599348
0.00261618
-0.000972049
-0.00476385
-0.00875114
-0.0129255
-0.0172779
-0.0217991
-0.0264796
-0.0313093
-0.0362783
-0.0413764
-0.0465934
-0.0519189
-0.0573427
-0.0628546
-0.0684448
-0.074103
-0.0798198
-0.0855857
-0.0913915
-0.0972281
-0.103087
-0.108961
-0.11484
-0.120718
-0.126588
-0.132443
-0.138276
-0.144082
-0.149855
-0.155589
-0.161281
-0.166925
-0.172519
-0.178058
-0.183539
-0.188959
-0.194317
-0.19961
-0.204837
-0.209995
-0.215085
-0.220105
-0.225056
-0.229937
-0.234751
-0.239493
-0.244167
-0.248786
-0.253387
-0.257833
-0.261495
-0.264817
-0.0173618
-0.00515153
-0.00845133
-0.0109107
-0.0126612
-0.0145238
-0.0162438
-0.0178211
-0.0192521
-0.0205236
-0.0216279
-0.0225594
-0.023314
-0.0238899
-0.0242867
-0.0245056
-0.0245494
-0.0244219
-0.0241281
-0.0236737
-0.0230653
-0.0223103
-0.0214168
-0.0203935
-0.0192496
-0.0179947
-0.016639
-0.0151928
-0.0136671
-0.0120728
-0.0104213
-0.00872397
-0.00699252
-0.00523857
-0.00347417
-0.00171115
3.84476e-05
0.00176256
0.0034491
0.00508603
0.00666113
0.00816255
0.00957799
0.0108956
0.0121031
0.0131886
0.0141395
0.0149434
0.0155868
0.016057
0.0163409
0.0164275
0.016306
0.015967
0.0154009
0.0146003
0.013557
0.0122654
0.01072
0.00891787
0.00685575
0.00453358
0.0019558
-0.000867807
-0.00393036
-0.00722548
-0.0107481
-0.0144913
-0.0184486
-0.0226119
-0.0269737
-0.0315247
-0.0362567
-0.0411593
-0.0462237
-0.0514391
-0.056796
-0.0622833
-0.0678915
-0.0736091
-0.0794267
-0.085333
-0.0913188
-0.0973728
-0.103486
-0.109649
-0.115852
-0.122085
-0.12834
-0.134609
-0.140884
-0.147155
-0.153418
-0.159664
-0.165887
-0.17208
-0.178239
-0.184357
-0.19043
-0.196453
-0.202423
-0.208334
-0.214186
-0.219973
-0.225694
-0.231346
-0.236929
-0.24244
-0.247878
-0.253243
-0.258534
-0.26375
-0.268892
-0.273959
-0.278952
-0.283887
-0.288803
-0.293554
-0.29748
-0.301029
-0.0173846
-0.00522318
-0.00882836
-0.0114265
-0.0133566
-0.0153977
-0.0172924
-0.0190456
-0.0206528
-0.0221011
-0.0233831
-0.0244934
-0.0254285
-0.0261867
-0.0267682
-0.0271747
-0.0274091
-0.0274753
-0.0273784
-0.0271244
-0.0267199
-0.0261725
-0.0254904
-0.0246824
-0.0237577
-0.0227263
-0.0215982
-0.020384
-0.0190946
-0.017741
-0.0163346
-0.0148869
-0.0134094
-0.0119141
-0.0104127
-0.00891707
-0.00743933
-0.0059914
-0.00458531
-0.00323306
-0.0019466
-0.000737949
0.000381031
0.00139842
0.00230236
0.00308093
0.00372227
0.00421415
0.00454406
0.00469867
0.00466495
0.00443068
0.00398539
0.00331921
0.00242346
0.00128974
-8.9029e-05
-0.00171953
-0.00360647
-0.0057537
-0.00816343
-0.0108372
-0.0137706
-0.0169549
-0.0203813
-0.0240441
-0.0279369
-0.0320538
-0.0363873
-0.0409302
-0.0456737
-0.0506097
-0.0557286
-0.0610212
-0.0664772
-0.072087
-0.0778397
-0.0837254
-0.0897328
-0.0958521
-0.102072
-0.108382
-0.114773
-0.121233
-0.127752
-0.134321
-0.140931
-0.147571
-0.154233
-0.160908
-0.167588
-0.174266
-0.180932
-0.187581
-0.194204
-0.200798
-0.207354
-0.213868
-0.220334
-0.226749
-0.233107
-0.239405
-0.245638
-0.251806
-0.257903
-0.263929
-0.269881
-0.275758
-0.281558
-0.287281
-0.292925
-0.298492
-0.303981
-0.309391
-0.31472
-0.319989
-0.325234
-0.330306
-0.334511
-0.338303
-0.0174044
-0.00530067
-0.00921752
-0.011958
-0.014074
-0.0162987
-0.0183735
-0.0203079
-0.0220965
-0.0237268
-0.0251916
-0.0264861
-0.027607
-0.0285533
-0.0293256
-0.0299256
-0.0303564
-0.0306221
-0.0307279
-0.03068
-0.0304851
-0.030151
-0.0296861
-0.0290991
-0.0283997
-0.0275975
-0.026703
-0.0257267
-0.0246795
-0.0235726
-0.0224174
-0.0212254
-0.0200083
-0.0187776
-0.0175455
-0.0163237
-0.0151241
-0.0139588
-0.0128396
-0.0117785
-0.0107874
-0.00987809
-0.00906233
-0.00835198
-0.00775859
-0.00729392
-0.0069695
-0.00679718
-0.00678881
-0.00695717
-0.00731542
-0.00787663
-0.00865192
-0.00965119
-0.010883
-0.0123557
-0.0140763
-0.0160514
-0.0182859
-0.0207838
-0.0235471
-0.0265777
-0.0298724
-0.0334227
-0.0372192
-0.0412552
-0.0455246
-0.050021
-0.0547372
-0.0596654
-0.0647974
-0.0701243
-0.0756369
-0.0813256
-0.0871804
-0.093191
-0.0993469
-0.105637
-0.112052
-0.11858
-0.12521
-0.131932
-0.138735
-0.145608
-0.152542
-0.159527
-0.166551
-0.173607
-0.180685
-0.187776
-0.194871
-0.201963
-0.209043
-0.216104
-0.22314
-0.230143
-0.237107
-0.244028
-0.250899
-0.257715
-0.264473
-0.271168
-0.277796
-0.284354
-0.29084
-0.29725
-0.303584
-0.309838
-0.316012
-0.322104
-0.328115
-0.334042
-0.339888
-0.34565
-0.351328
-0.35694
-0.362528
-0.367934
-0.372431
-0.376472
-0.0174211
-0.00538359
-0.009618
-0.0125044
-0.014812
-0.017225
-0.0194849
-0.0216055
-0.0235804
-0.0253975
-0.0270501
-0.0285338
-0.029846
-0.030986
-0.0319545
-0.0327534
-0.0333859
-0.0338564
-0.0341702
-0.0343335
-0.0343535
-0.034238
-0.0339954
-0.0336348
-0.0331658
-0.0325983
-0.0319426
-0.0312095
-0.03041
-0.0295553
-0.0286567
-0.0277258
-0.0267744
-0.0258141
-0.0248567
-0.0239142
-0.0229984
-0.0221214
-0.0212948
-0.0205306
-0.0198405
-0.0192364
-0.0187297
-0.0183323
-0.0180554
-0.0179107
-0.0179095
-0.0180631
-0.0183832
-0.0188814
-0.0195708
-0.0204645
-0.021575
-0.0229124
-0.0244855
-0.0263021
-0.0283695
-0.0306939
-0.0332809
-0.0361339
-0.0392555
-0.0426471
-0.0463073
-0.0502279
-0.0543991
-0.0588129
-0.0634637
-0.0683442
-0.0734478
-0.0787662
-0.0842915
-0.0900143
-0.0959258
-0.102016
-0.108274
-0.114691
-0.121256
-0.127957
-0.134784
-0.141726
-0.148772
-0.155912
-0.163134
-0.170428
-0.177783
-0.185189
-0.192637
-0.200116
-0.207617
-0.215131
-0.22265
-0.230164
-0.237666
-0.245149
-0.252605
-0.260027
-0.267409
-0.274745
-0.282031
-0.289259
-0.296427
-0.303529
-0.310562
-0.317522
-0.324407
-0.331212
-0.337938
-0.344581
-0.35114
-0.357614
-0.364002
-0.370303
-0.376518
-0.382644
-0.388681
-0.394649
-0.40059
-0.406342
-0.411139
-0.415437
-0.0174348
-0.00547152
-0.0100291
-0.0130644
-0.0155692
-0.0181751
-0.0206248
-0.0229361
-0.0251018
-0.0271103
-0.0289555
-0.0306336
-0.0321424
-0.0334811
-0.0346507
-0.0356533
-0.0364923
-0.0371723
-0.0376988
-0.0380782
-0.0383178
-0.0384255
-0.0384101
-0.0382806
-0.0380467
-0.0377185
-0.0373065
-0.0368214
-0.0362744
-0.0356765
-0.0350394
-0.0343745
-0.0336936
-0.0330083
-0.0323307
-0.0316724
-0.0310453
-0.0304613
-0.0299323
-0.0294699
-0.0290859
-0.0287918
-0.0285992
-0.0285196
-0.0285645
-0.0287448
-0.029072
-0.0295569
-0.0302109
-0.0310452
-0.0320717
-0.0333034
-0.0347535
-0.0364331
-0.0383514
-0.0405161
-0.0429342
-0.045612
-0.0485549
-0.0517667
-0.0552499
-0.059006
-0.0630345
-0.0673285
-0.0718773
-0.0766726
-0.0817078
-0.0869761
-0.0924704
-0.0981827
-0.104105
-0.110227
-0.116541
-0.123036
-0.129702
-0.136529
-0.143506
-0.150622
-0.157866
-0.165227
-0.172694
-0.180256
-0.187902
-0.195621
-0.203403
-0.211237
-0.219113
-0.227021
-0.234952
-0.242895
-0.250843
-0.258787
-0.266718
-0.27463
-0.282513
-0.290362
-0.29817
-0.30593
-0.313638
-0.321287
-0.328873
-0.336391
-0.343838
-0.351209
-0.358502
-0.365713
-0.372841
-0.379882
-0.386836
-0.393701
-0.400476
-0.40716
-0.413753
-0.420253
-0.42666
-0.432993
-0.439297
-0.445404
-0.450509
-0.455073
-0.0174454
-0.00556402
-0.0104499
-0.0136371
-0.0163443
-0.0191471
-0.0217909
-0.0242973
-0.0266582
-0.0288625
-0.0309052
-0.0327826
-0.0344925
-0.0360344
-0.0374096
-0.0386203
-0.0396701
-0.0405639
-0.0413074
-0.0419071
-0.0423705
-0.0427058
-0.0429217
-0.0430275
-0.0430331
-0.0429485
-0.0427843
-0.0425515
-0.042261
-0.0419243
-0.0415528
-0.0411581
-0.0407519
-0.040346
-0.0399521
-0.0395821
-0.0392479
-0.0389612
-0.0387338
-0.0385774
-0.0385035
-0.0385237
-0.0386494
-0.038892
-0.0392626
-0.0397723
-0.040432
-0.0412527
-0.0422451
-0.0434201
-0.0447889
-0.0463636
-0.0481573
-0.0501827
-0.0524493
-0.0549651
-0.0577369
-0.060771
-0.0640725
-0.0676457
-0.0714929
-0.0756158
-0.0800142
-0.0846831
-0.0896116
-0.0947905
-0.100212
-0.105871
-0.111758
-0.117866
-0.124187
-0.130711
-0.137429
-0.144332
-0.151408
-0.158648
-0.16604
-0.173573
-0.181237
-0.18902
-0.196911
-0.204899
-0.212972
-0.221121
-0.229333
-0.237598
-0.245907
-0.254248
-0.262613
-0.270991
-0.279374
-0.287753
-0.296119
-0.304464
-0.312781
-0.321063
-0.329303
-0.337495
-0.345631
-0.353708
-0.36172
-0.369663
-0.377531
-0.385322
-0.393031
-0.400656
-0.408194
-0.415643
-0.423001
-0.430266
-0.437437
-0.444515
-0.451496
-0.458381
-0.465167