/*--------------------------------*- C++ -*----------------------------------*\
  =========                 |
  \\      /  F ield         | OpenFOAM: The Open Source CFD Toolbox
   \\    /   O peration     | Website:  https://openfoam.org
    \\  /    A nd           | Version:  8
     \\/     M anipulation  |
\*---------------------------------------------------------------------------*/
FoamFile
{
    version     2.0;
    format      ascii;
    class       surfaceScalarField;
    location    "0.1376";
    object      phi;
}
// * * * * * * * * * * * * * * * * * * * * * * * * * * * * * * * * * * * * * //

dimensions      [1 0 -1 0 0 0 0];

internalField   nonuniform List<scalar> 
236580
(
0.00229654
2.65934e-06
0.00220517
9.18409e-05
0.00209223
0.000112235
0.00198241
0.000110213
0.00187278
0.000109031
0.00176623
0.000106845
0.00166084
0.000105052
0.0015577
0.00010352
0.00145592
0.000101412
0.00135927
9.68747e-05
0.00127574
8.33118e-05
0.00122297
5.29354e-05
0.00120423
1.86406e-05
0.00120595
-1.53544e-06
0.00120977
-3.89339e-06
0.00120919
7.46148e-07
0.00120424
4.88751e-06
0.00119801
6.34537e-06
0.00119224
5.77899e-06
0.00118809
4.3289e-06
0.00118483
3.22737e-06
0.00118213
2.81776e-06
0.00117915
2.98077e-06
0.00117568
3.5813e-06
0.00117157
4.37673e-06
0.00116685
4.67976e-06
0.0011618
5.16669e-06
0.00115621
5.46189e-06
0.00115067
5.53856e-06
0.00114513
5.63743e-06
0.00113973
5.62341e-06
0.00113437
5.27823e-06
0.00112938
5.00322e-06
0.0011244
5.00999e-06
0.00111947
4.97029e-06
0.00111458
4.94036e-06
0.00110972
4.87856e-06
0.001105
4.80517e-06
0.00110034
4.83034e-06
0.00109555
4.72538e-06
0.00109095
4.62008e-06
0.00108638
4.62013e-06
0.00108184
4.60503e-06
0.00107729
4.6912e-06
0.00107258
4.9467e-06
0.00106737
5.28773e-06
0.00106202
5.52739e-06
0.00105641
5.85375e-06
0.00105097
6.0784e-06
0.00104506
6.19793e-06
0.0010393
5.96385e-06
0.00103357
5.81926e-06
0.00102813
5.63126e-06
0.00102267
5.56032e-06
0.00101745
5.42307e-06
0.0010122
5.37701e-06
0.00100717
5.26629e-06
0.0010021
5.22717e-06
0.000997228
5.13102e-06
0.000992309
5.10138e-06
0.000987561
5.02869e-06
0.000982719
5.02836e-06
0.000977977
5.00982e-06
0.000973083
5.05449e-06
0.000968247
5.0674e-06
0.000963255
5.10951e-06
0.000958319
5.11975e-06
0.000953225
5.16381e-06
0.000948158
5.205e-06
0.000942886
5.3013e-06
0.000937542
5.44335e-06
0.000931858
5.6782e-06
0.000925896
6.02712e-06
0.000919311
6.54618e-06
0.000911789
7.55546e-06
0.000903058
8.66239e-06
0.000893381
9.68167e-06
0.000881824
1.14588e-05
0.00086858
1.32194e-05
0.000853048
1.54019e-05
0.000835255
1.77322e-05
0.000814639
2.0448e-05
0.000790695
2.3841e-05
0.000762212
2.82692e-05
0.000728117
3.39406e-05
0.000687015
4.08328e-05
0.000637607
4.91912e-05
0.000577485
5.97856e-05
0.000504272
7.29167e-05
0.000415212
8.86365e-05
0.000308331
0.000106485
0.000182151
0.00012565
3.60371e-05
0.000145603
-0.0001169
0.000152312
-0.000254333
0.000136891
-0.000373894
0.000118939
-0.000570808
0.000196335
-0.000933594
0.000362132
-0.00118518
0.000250998
-0.00015269
-0.00103283
0.00234757
9.36488e-06
0.00232977
0.000109922
0.00229923
0.000142378
0.00226813
0.00014157
0.002236
0.000140795
0.00220508
0.000137958
0.00217487
0.000135035
0.00214605
0.000132597
0.00211759
0.000129633
0.00209029
0.000124331
0.00206133
0.000112133
0.0020271
8.72833e-05
0.00198908
5.65929e-05
0.00195456
3.31131e-05
0.00192652
2.4102e-05
0.00190401
2.33778e-05
0.0018847
2.41448e-05
0.00186715
2.39817e-05
0.0018505
2.2426e-05
0.00183472
2.02259e-05
0.00181965
1.82794e-05
0.00180536
1.71821e-05
0.00179159
1.67476e-05
0.00177828
1.69587e-05
0.00176529
1.75248e-05
0.00175241
1.75283e-05
0.00173977
1.78669e-05
0.00172718
1.79584e-05
0.00171488
1.78273e-05
0.00170284
1.77249e-05
0.00169109
1.75056e-05
0.0016795
1.68026e-05
0.00166835
1.61529e-05
0.00165753
1.58368e-05
0.00164703
1.5482e-05
0.00163683
1.51611e-05
0.0016269
1.4809e-05
0.0016173
1.44329e-05
0.00160801
1.42081e-05
0.00159886
1.38259e-05
0.00159004
1.3438e-05
0.00158149
1.31862e-05
0.00157319
1.29349e-05
0.00156517
1.27696e-05
0.00155746
1.2792e-05
0.00154985
1.29423e-05
0.00154252
1.29914e-05
0.00153535
1.31541e-05
0.00152853
1.32649e-05
0.00152163
1.32551e-05
0.00151493
1.28017e-05
0.00150842
1.23703e-05
0.00150226
1.19048e-05
0.00149629
1.15701e-05
0.00149064
1.11954e-05
0.00148515
1.0925e-05
0.00147994
1.06192e-05
0.00147485
1.03943e-05
0.00147
1.01351e-05
0.00146525
9.94523e-06
0.00146072
9.73282e-06
0.00145625
9.59453e-06
0.00145196
9.46169e-06
0.00144769
9.40319e-06
0.00144355
9.33785e-06
0.00143942
9.30483e-06
0.00143539
9.24933e-06
0.00143136
9.22279e-06
0.00142744
9.2044e-06
0.0014235
9.25089e-06
0.00141962
9.37134e-06
0.00141565
9.62528e-06
0.00141166
1.00452e-05
0.00140747
1.07047e-05
0.001403
1.20268e-05
0.0013982
1.34167e-05
0.00139311
1.47539e-05
0.00138713
1.73734e-05
0.00138002
2.02943e-05
0.00137156
2.37747e-05
0.00136153
2.76994e-05
0.00134957
3.23012e-05
0.00133539
3.79359e-05
0.00131843
4.50895e-05
0.00129806
5.41951e-05
0.00127314
6.55938e-05
0.00124229
7.98856e-05
0.00120386
9.80176e-05
0.00115575
0.000120832
0.00109493
0.000149228
0.00101748
0.000183702
0.000918937
0.000223935
0.00079916
0.000265124
0.000657624
0.000293559
0.000487753
0.000306458
0.000291177
0.00031515
0.000121716
0.000365372
-2.12317e-05
0.000504567
-0.000363923
0.000593194
0.000151921
-0.00066887
0.00236664
1.39365e-05
0.00236531
0.000111335
0.00235738
0.000150147
0.00234693
0.000152125
0.00233495
0.000152618
0.00232317
0.000149833
0.00231143
0.000146676
0.00230026
0.000143884
0.00228915
0.000140633
0.00227838
0.000135172
0.00226606
0.000124384
0.00224914
0.000104254
0.00222629
7.94132e-05
0.00220068
5.87906e-05
0.00217604
4.87204e-05
0.00215414
4.53365e-05
0.00213434
4.39253e-05
0.002116
4.23699e-05
0.00209838
4.00518e-05
0.00208131
3.73729e-05
0.00206466
3.49191e-05
0.00204858
3.33138e-05
0.00203299
3.23453e-05
0.00201795
3.20482e-05
0.00200338
3.2195e-05
0.00198909
3.18195e-05
0.00197516
3.18479e-05
0.00196143
3.1647e-05
0.00194802
3.12523e-05
0.00193491
3.0878e-05
0.00192208
3.04322e-05
0.00190941
2.9455e-05
0.00189709
2.84938e-05
0.00188512
2.78298e-05
0.00187349
2.71399e-05
0.00186218
2.64988e-05
0.00185117
2.58373e-05
0.0018405
2.51459e-05
0.00183016
2.46313e-05
0.00182001
2.39587e-05
0.0018102
2.32818e-05
0.00180068
2.274e-05
0.00179144
2.22078e-05
0.00178254
2.17368e-05
0.00177404
2.14112e-05
0.00176584
2.11942e-05
0.00175807
2.08693e-05
0.00175062
2.06903e-05
0.00174363
2.05284e-05
0.00173674
2.02732e-05
0.0017301
1.95544e-05
0.00172369
1.88257e-05
0.00171766
1.80419e-05
0.00171187
1.74027e-05
0.00170645
1.67348e-05
0.00170124
1.61953e-05
0.00169634
1.56366e-05
0.00169164
1.51808e-05
0.0016872
1.47041e-05
0.00168293
1.43152e-05
0.00167888
1.39162e-05
0.00167497
1.36074e-05
0.00167125
1.33154e-05
0.00166762
1.31123e-05
0.00166416
1.29146e-05
0.00166076
1.27614e-05
0.00165751
1.25901e-05
0.00165432
1.24491e-05
0.00165128
1.23166e-05
0.0016483
1.22529e-05
0.00164545
1.22695e-05
0.00164264
1.24378e-05
0.00163992
1.27941e-05
0.00163721
1.34096e-05
0.00163467
1.45872e-05
0.00163181
1.62508e-05
0.00162863
1.7934e-05
0.00162522
2.07587e-05
0.00162129
2.4213e-05
0.00161661
2.84025e-05
0.00161098
3.33134e-05
0.00160405
3.91702e-05
0.00159557
4.63755e-05
0.00158516
5.54138e-05
0.00157251
6.67901e-05
0.00155698
8.10238e-05
0.00153791
9.88779e-05
0.00151445
0.000121366
0.00148555
0.000149624
0.0014497
0.000184951
0.00140479
0.000228486
0.00134794
0.000280644
0.00127301
0.000339913
0.00116978
0.000396631
0.00103253
0.000443549
0.000869432
0.000478049
0.000714823
0.000519773
0.000587255
0.000631883
0.000396479
0.000783714
0.000595962
-4.76655e-05
0.00237992
1.61399e-05
0.0023838
0.000107594
0.00238531
0.000148465
0.00238394
0.000153626
0.00238074
0.000155657
0.00237703
0.000153637
0.00237274
0.000150858
0.0023684
0.000148353
0.00236368
0.000145246
0.00235886
0.000140063
0.0023529
0.000130284
0.00234433
0.000112883
0.00233199
9.17183e-05
0.0023166
7.42562e-05
0.00230011
6.51847e-05
0.00228384
6.16671e-05
0.00226785
5.98941e-05
0.00225229
5.79712e-05
0.002237
5.53463e-05
0.00222194
5.2501e-05
0.002207
4.98508e-05
0.00219235
4.8005e-05
0.00217799
4.67121e-05
0.00216402
4.60476e-05
0.00215047
4.58392e-05
0.00213714
4.51248e-05
0.00212415
4.48759e-05
0.00211136
4.43809e-05
0.00209885
4.37633e-05
0.00208659
4.31625e-05
0.00207457
4.25286e-05
0.00206264
4.13506e-05
0.002051
4.01422e-05
0.00203965
3.91765e-05
0.00202859
3.82038e-05
0.00201781
3.72928e-05
0.00200727
3.63764e-05
0.001997
3.54264e-05
0.00198702
3.46614e-05
0.0019772
3.37533e-05
0.00196765
3.28332e-05
0.00195836
3.20379e-05
0.00194932
3.12575e-05
0.00194057
3.05265e-05
0.00193219
2.98955e-05
0.00192409
2.93322e-05
0.00191641
2.86407e-05
0.00190909
2.80757e-05
0.00190226
2.75772e-05
0.00189559
2.70252e-05
0.00188921
2.60429e-05
0.00188304
2.50091e-05
0.00187725
2.39235e-05
0.0018717
2.29734e-05
0.0018665
2.20233e-05
0.00186152
2.12021e-05
0.00185686
2.0394e-05
0.00185239
1.96969e-05
0.00184819
1.9012e-05
0.00184414
1.8424e-05
0.00184031
1.78577e-05
0.00183659
1.73923e-05
0.00183304
1.69679e-05
0.00182957
1.66345e-05
0.00182625
1.63248e-05
0.00182298
1.60639e-05
0.00181984
1.57986e-05
0.00181674
1.55606e-05
0.00181377
1.53334e-05
0.00181085
1.51673e-05
0.00180807
1.50814e-05
0.00180535
1.51461e-05
0.00180274
1.54128e-05
0.00180014
1.59831e-05
0.00179767
1.70631e-05
0.00179526
1.86203e-05
0.00179271
2.04768e-05
0.00179002
2.34005e-05
0.00178713
2.70708e-05
0.00178385
3.16264e-05
0.00177999
3.71366e-05
0.00177525
4.38388e-05
0.00176942
5.21525e-05
0.00176223
6.25219e-05
0.0017535
7.54464e-05
0.00174286
9.1566e-05
0.0017299
0.000111738
0.0017141
0.000137049
0.00169483
0.000168786
0.00167118
0.000208458
0.00164192
0.000257621
0.00160496
0.000317453
0.00155579
0.000388932
0.0014854
0.000466867
0.00138569
0.000543094
0.00125304
0.000610511
0.00109484
0.000677777
0.000946277
0.000780231
0.000805888
0.000923892
0.000889829
0.000511858
0.0023895
1.71188e-05
0.00239554
0.000101579
0.00240143
0.000142496
0.00240479
0.000150326
0.00240641
0.000153957
0.00240717
0.000152927
0.00240704
0.000150943
0.00240648
0.000148974
0.00240532
0.000146353
0.00240374
0.000141678
0.00240108
0.000132906
0.00239651
0.000117484
0.00238941
9.88091e-05
0.00238018
8.35253e-05
0.00236984
7.55081e-05
0.00235909
7.24529e-05
0.0023479
7.10783e-05
0.00233636
6.95364e-05
0.00232445
6.72727e-05
0.00231239
6.46122e-05
0.00230015
6.20869e-05
0.00228798
6.02164e-05
0.00227587
5.88248e-05
0.00226401
5.79399e-05
0.00225243
5.74862e-05
0.00224101
5.6551e-05
0.00222986
5.60657e-05
0.00221886
5.53715e-05
0.00220806
5.45818e-05
0.00219745
5.38037e-05
0.002187
5.30434e-05
0.00217659
5.17649e-05
0.00216635
5.04046e-05
0.00215633
4.9227e-05
0.0021465
4.80561e-05
0.00213687
4.69605e-05
0.00212739
4.58714e-05
0.0021181
4.47463e-05
0.00210901
4.38102e-05
0.00210003
4.27415e-05
0.00209124
4.16547e-05
0.00208264
4.06734e-05
0.00207422
3.97066e-05
0.00206602
3.87821e-05
0.0020581
3.79292e-05
0.00205035
3.71229e-05
0.00204293
3.61535e-05
0.00203578
3.52699e-05
0.00202907
3.44754e-05
0.00202251
3.36556e-05
0.00201622
3.24408e-05
0.0020101
3.1157e-05
0.0020043
2.98139e-05
0.00199871
2.85997e-05
0.00199344
2.73968e-05
0.00198836
2.6327e-05
0.00198357
2.52874e-05
0.00197896
2.43723e-05
0.00197459
2.34912e-05
0.00197036
2.27233e-05
0.00196634
2.19999e-05
0.00196241
2.13947e-05
0.00195864
2.0846e-05
0.00195494
2.03954e-05
0.00195137
1.99812e-05
0.00194785
1.96266e-05
0.00194444
1.92792e-05
0.00194107
1.89633e-05
0.0019378
1.86585e-05
0.00193457
1.84091e-05
0.00193146
1.8234e-05
0.00192841
1.82034e-05
0.00192547
1.83746e-05
0.00192259
1.88591e-05
0.00191987
1.98012e-05
0.00191726
2.12136e-05
0.00191463
2.31151e-05
0.00191205
2.59639e-05
0.00190943
2.9685e-05
0.00190663
3.43947e-05
0.00190353
4.02297e-05
0.00189989
4.74355e-05
0.0018956
5.64171e-05
0.00189048
6.75919e-05
0.00188442
8.14711e-05
0.00187716
9.87613e-05
0.00186847
0.000120376
0.00185802
0.000147428
0.00184545
0.000181291
0.0018302
0.00022362
0.00181142
0.000276318
0.0017878
0.000340985
0.00175703
0.000419607
0.00171339
0.000510404
0.00164875
0.00060763
0.00155509
0.000704048
0.00143058
0.000802164
0.00129301
0.000917657
0.00115578
0.00106098
0.00110042
0.000945146
0.00239657
1.74604e-05
0.00240348
9.47622e-05
0.00241153
0.000134341
0.00241751
0.000144434
0.00242195
0.000149414
0.00242538
0.000149552
0.00242777
0.000148492
0.00242955
0.000147274
0.0024306
0.00014524
0.00243105
0.000141272
0.00243042
0.000133496
0.00242815
0.000119803
0.00242389
0.000103045
0.00241814
8.93231e-05
0.00241162
8.20135e-05
0.0024048
7.9315e-05
0.00239753
7.83359e-05
0.00238976
7.7335e-05
0.00238138
7.5657e-05
0.00237254
7.35035e-05
0.00236329
7.13247e-05
0.00235395
6.95988e-05
0.00234452
6.82473e-05
0.00233518
6.73053e-05
0.00232596
6.67636e-05
0.0023168
6.56984e-05
0.00230779
6.50953e-05
0.00229886
6.42735e-05
0.00229004
6.34023e-05
0.00228132
6.25375e-05
0.00227269
6.17196e-05
0.00226403
6.04158e-05
0.00225542
5.90157e-05
0.00224691
5.77475e-05
0.00223848
5.64849e-05
0.00223015
5.53043e-05
0.00222188
5.41381e-05
0.0022137
5.29317e-05
0.00220563
5.19049e-05
0.0021976
5.07632e-05
0.00218966
4.95932e-05
0.00218184
4.85067e-05
0.00217412
4.74304e-05
0.00216654
4.63993e-05
0.00215914
4.54193e-05
0.00215182
4.44747e-05
0.00214471
4.33486e-05
0.00213775
4.22474e-05
0.00213115
4.12252e-05
0.00212466
4.01927e-05
0.00211838
3.88084e-05
0.00211222
3.73257e-05
0.00210633
3.57787e-05
0.00210061
3.43354e-05
0.00209516
3.29153e-05
0.00208989
3.16181e-05
0.00208489
3.03697e-05
0.00208005
2.92455e-05
0.00207545
2.81789e-05
0.00207099
2.72305e-05
0.00206673
2.63481e-05
0.00206259
2.55835e-05
0.00205862
2.48904e-05
0.00205476
2.43004e-05
0.00205104
2.37675e-05
0.00204738
2.33039e-05
0.00204384
2.28661e-05
0.00204035
2.24648e-05
0.00203696
2.20812e-05
0.00203362
2.17475e-05
0.00203038
2.14851e-05
0.00202722
2.13577e-05
0.00202417
2.14274e-05
0.0020212
2.1803e-05
0.0020184
2.25973e-05
0.00201573
2.38562e-05
0.00201314
2.56944e-05
0.00201064
2.84176e-05
0.00200823
3.20769e-05
0.00200577
3.68016e-05
0.00200321
4.27589e-05
0.00200038
5.0204e-05
0.00199725
5.95061e-05
0.00199368
7.10873e-05
0.00198961
8.54854e-05
0.00198486
0.000103428
0.00197934
0.000125825
0.0019729
0.000153768
0.00196543
0.000188667
0.0019567
0.000232253
0.00194628
0.000286624
0.00193351
0.000353638
0.00191725
0.000435751
0.00189397
0.000533555
0.00185713
0.000644333
0.00179928
0.000761762
0.00171594
0.000885362
0.00160976
0.00102368
0.00148446
0.00118613
0.00127712
0.00130764
0.00240193
1.74464e-05
0.00240906
8.76507e-05
0.00241806
0.000125283
0.0024255
0.000137039
0.00243161
0.000143258
0.00243667
0.000144527
0.00244063
0.000144497
0.00244389
0.000144059
0.00244635
0.000142741
0.00244813
0.000139518
0.00244885
0.000132755
0.00244806
0.000120604
0.00244559
0.000105514
0.00244196
9.29806e-05
0.00243781
8.61544e-05
0.00243354
8.36158e-05
0.00242899
8.28788e-05
0.00242409
8.22576e-05
0.00241867
8.1083e-05
0.00241277
7.94455e-05
0.0024064
7.7698e-05
0.00239982
7.62104e-05
0.00239306
7.50132e-05
0.00238624
7.41439e-05
0.0023794
7.36492e-05
0.00237247
7.26464e-05
0.00236557
7.20178e-05
0.00235866
7.11983e-05
0.00235176
7.03225e-05
0.00234488
6.94413e-05
0.00233802
6.86313e-05
0.00233105
6.73953e-05
0.00232406
6.60478e-05
0.00231704
6.47881e-05
0.00231002
6.35316e-05
0.002303
6.23612e-05
0.00229595
6.12067e-05
0.0022889
6.00028e-05
0.00228189
5.89642e-05
0.00227485
5.78233e-05
0.00226783
5.6647e-05
0.00226084
5.55274e-05
0.0022539
5.44041e-05
0.00224702
5.33336e-05
0.00224025
5.22873e-05
0.00223348
5.12842e-05
0.00222683
5.00819e-05
0.00222024
4.88525e-05
0.00221391
4.76836e-05
0.00220765
4.65054e-05
0.00220154
4.5012e-05
0.00219549
4.33936e-05
0.00218967
4.16876e-05
0.00218398
4.00551e-05
0.00217854
3.84467e-05
0.00217325
3.69508e-05
0.0021682
3.55122e-05
0.0021633
3.41959e-05
0.00215863
3.29515e-05
0.00215409
3.18298e-05
0.00214975
3.07873e-05
0.00214554
2.98603e-05
0.00214151
2.90125e-05
0.00213759
2.82745e-05
0.00213382
2.76107e-05
0.00213013
2.70291e-05
0.00212657
2.64913e-05
0.00212306
2.59992e-05
0.00211965
2.55326e-05
0.0021163
2.51144e-05
0.00211306
2.47649e-05
0.00210988
2.45415e-05
0.00210682
2.45073e-05
0.00210386
2.47655e-05
0.00210105
2.54185e-05
0.00209837
2.65318e-05
0.00209584
2.82318e-05
0.00209338
3.08628e-05
0.0020911
3.43572e-05
0.00208888
3.90009e-05
0.00208669
4.49345e-05
0.00208445
5.24218e-05
0.00208213
6.18047e-05
0.00207966
7.35137e-05
0.00207701
8.81131e-05
0.00207408
0.000106311
0.00207088
0.000128983
0.0020674
0.000157189
0.00206368
0.000192335
0.00205971
0.00023616
0.00205543
0.000290839
0.00205056
0.000358432
0.00204464
0.000441596
0.0020358
0.000542316
0.00201963
0.000660421
0.00198995
0.000791346
0.00194161
0.000933613
0.00187252
0.00109268
0.00177763
0.00128092
0.0014182
0.00163653
0.00240602
1.7176e-05
0.00241301
8.07271e-05
0.00242229
0.000115927
0.00243049
0.000128909
0.00243755
0.000136128
0.00244358
0.000138536
0.00244852
0.000139515
0.00245271
0.000139923
0.00245609
0.000139317
0.00245875
0.000136893
0.00246038
0.000131094
0.00246064
0.000120381
0.00245938
0.000106761
0.00245716
9.52321e-05
0.00245456
8.87382e-05
0.00245199
8.62283e-05
0.00244929
8.55572e-05
0.00244641
8.51639e-05
0.00244316
8.43324e-05
0.00243956
8.30913e-05
0.00243554
8.17091e-05
0.0024313
8.04839e-05
0.00242683
7.9474e-05
0.00242225
7.87417e-05
0.00241758
7.83579e-05
0.00241273
7.74829e-05
0.00240782
7.69381e-05
0.0024028
7.62061e-05
0.00239769
7.54308e-05
0.00239252
7.46279e-05
0.00238729
7.38936e-05
0.0023819
7.27756e-05
0.00237641
7.15477e-05
0.00237083
7.03734e-05
0.00236517
6.91968e-05
0.00235944
6.81044e-05
0.00235361
6.70267e-05
0.00234773
6.58876e-05
0.00234182
6.48911e-05
0.00233583
6.38082e-05
0.00232981
6.26793e-05
0.00232376
6.15817e-05
0.0023177
6.04744e-05
0.00231164
5.94225e-05
0.00230564
5.83791e-05
0.00229958
5.73665e-05
0.00229357
5.61582e-05
0.00228756
5.4875e-05
0.00228172
5.36234e-05
0.00227589
5.23603e-05
0.00227015
5.08193e-05
0.00226443
4.91229e-05
0.00225887
4.73126e-05
0.0022534
4.55368e-05
0.00224813
4.37815e-05
0.00224297
4.21211e-05
0.00223803
4.05228e-05
0.00223322
3.90383e-05
0.00222861
3.76361e-05
0.00222412
3.63561e-05
0.00221982
3.51686e-05
0.00221562
3.40948e-05
0.00221159
3.31065e-05
0.00220767
3.22271e-05
0.0022039
3.14344e-05
0.00220021
3.07322e-05
0.00219665
3.00903e-05
0.00219315
2.95021e-05
0.00218976
2.89484e-05
0.00218643
2.84429e-05
0.0021832
2.80048e-05
0.00218004
2.7684e-05
0.00217701
2.75423e-05
0.00217408
2.76766e-05
0.00217131
2.81851e-05
0.00216866
2.91486e-05
0.00216617
3.07118e-05
0.00216384
3.31503e-05
0.00216169
3.64818e-05
0.00215969
4.0968e-05
0.00215782
4.67705e-05
0.00215603
5.41539e-05
0.00215434
6.34515e-05
0.00215271
7.509e-05
0.00215113
8.96323e-05
0.00214961
0.000107765
0.00214819
0.000130327
0.00214695
0.000158347
0.00214602
0.000193186
0.00214555
0.000236532
0.00214574
0.000290558
0.00214658
0.000357486
0.00214806
0.000440017
0.00214947
0.000540798
0.00214827
0.000661502
0.00213973
0.000799775
0.00211898
0.000954239
0.00208394
0.00112759
0.00202701
0.00133773
0.0015159
0.00192921
0.0024091
1.6736e-05
0.0024158
7.40331e-05
0.00242496
0.000106726
0.00243346
0.000120443
0.002441
0.000128549
0.00244758
0.000131985
0.00245311
0.000133967
0.00245788
0.000135185
0.00246183
0.000135332
0.00246508
0.000133664
0.00246736
0.000128798
0.00246837
0.00011939
0.00246799
0.000107128
0.00246677
9.64719e-05
0.00246526
9.02435e-05
0.00246385
8.76638e-05
0.00246245
8.69545e-05
0.00246097
8.66592e-05
0.00245926
8.60515e-05
0.0024573
8.50828e-05
0.00245503
8.39834e-05
0.00245256
8.29801e-05
0.0024499
8.21474e-05
0.00244711
8.15411e-05
0.00244424
8.12595e-05
0.00244119
8.05618e-05
0.00243802
8.01213e-05
0.0024347
7.95441e-05
0.00243124
7.89148e-05
0.00242765
7.82455e-05
0.00242393
7.76487e-05
0.00242
7.67212e-05
0.00241592
7.56665e-05
0.00241169
7.46296e-05
0.00240733
7.35821e-05
0.00240285
7.26139e-05
0.00239825
7.16549e-05
0.00239354
7.06218e-05
0.00238876
6.97108e-05
0.00238387
6.87239e-05
0.00237891
6.7681e-05
0.00237387
6.66465e-05
0.00236879
6.5593e-05
0.00236366
6.46049e-05
0.00235853
6.36039e-05
0.0023533
6.26278e-05
0.00234807
6.146e-05
0.00234277
6.01833e-05
0.00233757
5.89156e-05
0.00233233
5.76298e-05
0.00232713
5.60996e-05
0.00232189
5.4395e-05
0.00231673
5.2549e-05
0.0023116
5.06943e-05
0.00230662
4.88439e-05
0.00230172
4.70652e-05
0.00229699
4.53442e-05
0.00229235
4.3724e-05
0.00228789
4.21887e-05
0.00228353
4.07714e-05
0.00227933
3.94548e-05
0.00227523
3.82516e-05
0.00227128
3.71397e-05
0.00226742
3.61339e-05
0.0022637
3.52211e-05
0.00226007
3.44018e-05
0.00225656
3.36525e-05
0.00225312
3.29629e-05
0.00224979
3.23172e-05
0.00224653
3.17217e-05
0.00224337
3.11933e-05
0.00224029
3.07736e-05
0.00223733
3.05223e-05
0.00223448
3.05282e-05
0.00223179
3.08891e-05
0.00222924
3.16953e-05
0.00222686
3.30941e-05
0.00222471
3.5295e-05
0.00222268
3.85152e-05
0.00222088
4.27488e-05
0.00221929
4.83483e-05
0.0022179
5.55277e-05
0.00221671
6.46221e-05
0.00221573
7.60399e-05
0.00221501
9.03251e-05
0.00221459
0.000108146
0.00221457
0.000130321
0.00221503
0.000157836
0.00221619
0.000191979
0.00221832
0.000234346
0.00222178
0.000287053
0.00222679
0.000352404
0.00223365
0.0004331
0.00224235
0.000532033
0.00225175
0.000652032
0.00225868
0.000792771
0.00225909
0.000953762
0.00225171
0.00113489
0.00222964
0.00135973
0.00157031
0.00217521
0.00241139
1.61778e-05
0.00241772
6.77643e-05
0.00242652
9.787e-05
0.00243501
0.000112002
0.00244273
0.000120774
0.00244958
0.000125174
0.00245542
0.000128087
0.00246054
0.000130117
0.00246485
0.000130978
0.00246849
0.000130055
0.00247122
0.000126048
0.00247279
0.000117851
0.00247309
0.000106813
0.00247263
9.69652e-05
0.00247191
9.0952e-05
0.00247133
8.82679e-05
0.00247084
8.74373e-05
0.00247037
8.71538e-05
0.00246975
8.66692e-05
0.00246898
8.58844e-05
0.00246797
8.4981e-05
0.00246683
8.41498e-05
0.00246552
8.34576e-05
0.00246411
8.29602e-05
0.00246262
8.27633e-05
0.00246098
8.22007e-05
0.00245923
8.18728e-05
0.00245734
8.1427e-05
0.00245531
8.09546e-05
0.00245311
8.04458e-05
0.00245077
8.00145e-05
0.00244819
7.92984e-05
0.00244541
7.84581e-05
0.00244244
7.76012e-05
0.00243932
7.67148e-05
0.00243605
7.58937e-05
0.00243262
7.50726e-05
0.00242907
7.41717e-05
0.00242542
7.33725e-05
0.00242164
7.25095e-05
0.00241775
7.15806e-05
0.00241375
7.06452e-05
0.00240968
6.96899e-05
0.00240551
6.88027e-05
0.0024013
6.78946e-05
0.00239695
6.69958e-05
0.00239255
6.59163e-05
0.00238803
6.4699e-05
0.00238356
6.34644e-05
0.00237899
6.22052e-05
0.00237442
6.0733e-05
0.00236975
5.90739e-05
0.0023651
5.72519e-05
0.00236043
5.53791e-05
0.00235584
5.34883e-05
0.00235128
5.16404e-05
0.00234685
4.98385e-05
0.00234248
4.81198e-05
0.00233826
4.64814e-05
0.00233411
4.49507e-05
0.00233011
4.35227e-05
0.00232618
4.22076e-05
0.00232239
4.09892e-05
0.00231867
3.98746e-05
0.00231509
3.88552e-05
0.00231157
3.79287e-05
0.00230818
3.70762e-05
0.00230486
3.62868e-05
0.00230164
3.55485e-05
0.00229849
3.48629e-05
0.00229545
3.42437e-05
0.00229249
3.37253e-05
0.00228965
3.33634e-05
0.00228692
3.32402e-05
0.00228434
3.34529e-05
0.00228191
3.40987e-05
0.00227967
3.53188e-05
0.00227765
3.72878e-05
0.00227581
4.03301e-05
0.0022742
4.43173e-05
0.00227287
4.96501e-05
0.00227179
5.6559e-05
0.00227101
6.53558e-05
0.00227056
7.64348e-05
0.00227052
9.03119e-05
0.00227097
0.000107635
0.00227202
0.000129206
0.00227381
0.000155972
0.00227657
0.000189136
0.00228064
0.00023019
0.00228648
0.000281131
0.00229452
0.000344269
0.00230524
0.000422288
0.00231904
0.000518132
0.00233575
0.000635222
0.00235367
0.00077475
0.00236969
0.000937641
0.00238311
0.00112136
0.00239175
0.001351
0.00158889
0.00237308
0.00241305
1.55417e-05
0.00241897
6.18479e-05
0.00242729
8.95084e-05
0.00243557
0.000103748
0.00244325
0.000113066
0.00245016
0.000118294
0.00245615
0.000122076
0.00246144
0.000124852
0.00246598
0.000126418
0.00246987
0.000126176
0.00247293
0.000122975
0.00247493
0.000115863
0.00247577
0.000105964
0.00247589
9.6868e-05
0.00247578
9.10513e-05
0.00247583
8.82468e-05
0.002476
8.72588e-05
0.00247625
8.69187e-05
0.00247644
8.64891e-05
0.00247654
8.58162e-05
0.00247647
8.50482e-05
0.00247631
8.43393e-05
0.00247602
8.37546e-05
0.00247565
8.33385e-05
0.00247523
8.32022e-05
0.00247468
8.2777e-05
0.00247403
8.2532e-05
0.00247327
8.22162e-05
0.00247238
8.18722e-05
0.00247135
8.14966e-05
0.00247017
8.12114e-05
0.00246879
8.07095e-05
0.00246719
8.00883e-05
0.0024654
7.94251e-05
0.00246342
7.87199e-05
0.00246128
7.80672e-05
0.00245897
7.74027e-05
0.00245651
7.66526e-05
0.00245394
7.59872e-05
0.00245121
7.52707e-05
0.00244834
7.44821e-05
0.00244535
7.36737e-05
0.00244225
7.28379e-05
0.00243902
7.2075e-05
0.00243572
7.1282e-05
0.00243225
7.04899e-05
0.0024287
6.95281e-05
0.00242499
6.84099e-05
0.00242128
6.72556e-05
0.00241743
6.60668e-05
0.00241355
6.46925e-05
0.00240952
6.31266e-05
0.00240546
6.1382e-05
0.00240133
5.95469e-05
0.00239723
5.76669e-05
0.00239311
5.57982e-05
0.00238907
5.39586e-05
0.00238506
5.21804e-05
0.00238116
5.04725e-05
0.0023773
4.88569e-05
0.00237357
4.73404e-05
0.00236989
4.59325e-05
0.00236633
4.46256e-05
0.00236283
4.34199e-05
0.00235943
4.23106e-05
0.0023561
4.12919e-05
0.00235288
4.03499e-05
0.00234972
3.94707e-05
0.00234666
3.86467e-05
0.00234366
3.78753e-05
0.00234076
3.7169e-05
0.00233794
3.65548e-05
0.00233524
3.60853e-05
0.00233265
3.58347e-05
0.00233022
3.59004e-05
0.00232793
3.63818e-05
0.00232584
3.74171e-05
0.00232395
3.9173e-05
0.00232236
4.19195e-05
0.00232093
4.57378e-05
0.00231982
5.0754e-05
0.00231903
5.73343e-05
0.0023186
6.57693e-05
0.00231858
7.64233e-05
0.00231909
8.97881e-05
0.00232021
0.000106482
0.0023221
0.000127284
0.00232492
0.000153108
0.00232893
0.00018509
0.00233446
0.000224609
0.00234203
0.000273509
0.00235222
0.000334028
0.00236564
0.000408812
0.00238295
0.000500766
0.00240457
0.000613541
0.00242996
0.000749306
0.00245702
0.000910523
0.00248506
0.00109326
0.00251591
0.00132009
0.00157228
0.00253252
0.0024142
1.48747e-05
0.0024197
5.64055e-05
0.00242748
8.16782e-05
0.00243542
9.58501e-05
0.00244292
0.000105527
0.00244975
0.00011149
0.00245576
0.000116043
0.00246112
0.000119529
0.00246577
0.000121739
0.00246983
0.000122138
0.00247313
0.00011966
0.00247547
0.000113544
0.00247675
0.000104675
0.00247736
9.6285e-05
0.00247774
9.06631e-05
0.00247826
8.77463e-05
0.00247894
8.65722e-05
0.00247974
8.61331e-05
0.00248053
8.57024e-05
0.00248128
8.50901e-05
0.00248192
8.4404e-05
0.0024825
8.37765e-05
0.00248299
8.32652e-05
0.00248342
8.29107e-05
0.00248382
8.28178e-05
0.00248411
8.24832e-05
0.00248432
8.2319e-05
0.00248444
8.20998e-05
0.00248445
8.18699e-05
0.00248434
8.16116e-05
0.00248411
8.14465e-05
0.00248371
8.11131e-05
0.00248313
8.06837e-05
0.00248236
8.02024e-05
0.00248141
7.96759e-05
0.00248029
7.91948e-05
0.00247899
7.86951e-05
0.00247753
7.81077e-05
0.00247594
7.75899e-05
0.00247418
7.70344e-05
0.00247227
7.6403e-05
0.0024702
7.57455e-05
0.00246802
7.50584e-05
0.00246568
7.44355e-05
0.00246325
7.37808e-05
0.00246064
7.31141e-05
0.00245793
7.22909e-05
0.00245503
7.12999e-05
0.00245208
7.02536e-05
0.00244899
6.91642e-05
0.00244582
6.79131e-05
0.00244248
6.64718e-05
0.00243907
6.48425e-05
0.00243554
6.30905e-05
0.002432
6.12664e-05
0.00242839
5.94228e-05
0.00242482
5.75874e-05
0.00242123
5.57905e-05
0.00241772
5.40496e-05
0.00241422
5.23843e-05
0.00241081
5.08079e-05
0.00240744
4.9332e-05
0.00240416
4.79565e-05
0.00240092
4.66791e-05
0.00239777
4.54965e-05
0.00239467
4.44023e-05
0.00239166
4.33855e-05
0.0023887
4.24306e-05
0.00238583
4.15302e-05
0.00238302
4.06804e-05
0.00238031
3.98921e-05
0.00237766
3.91879e-05
0.00237513
3.86149e-05
0.0023727
3.82415e-05
0.00237043
3.81616e-05
0.00236831
3.84772e-05
0.00236639
3.93226e-05
0.00236467
4.08584e-05
0.00236329
4.32766e-05
0.00236206
4.69296e-05
0.00236117
5.16162e-05
0.00236063
5.78238e-05
0.00236051
6.58528e-05
0.00236086
7.60238e-05
0.00236179
8.88035e-05
0.00236343
0.000104778
0.00236597
0.00012469
0.00236958
0.000149422
0.00237454
0.000180059
0.00238118
0.00021789
0.00239002
0.000264588
0.0024017
0.000322257
0.00241697
0.000393458
0.00243662
0.000481021
0.00246145
0.000588626
0.00249169
0.000718974
0.00252626
0.000875857
0.00256412
0.00105531
0.0026086
0.00127552
0.00152813
0.00265267
0.00241496
1.41773e-05
0.00242003
5.13375e-05
0.00242725
7.44163e-05
0.00243478
8.835e-05
0.00244199
9.82831e-05
0.00244866
0.000104846
0.0024546
0.00011009
0.00245994
0.000114206
0.00246464
0.000117023
0.00246881
0.000117984
0.00247228
0.000116168
0.0024749
0.000110943
0.00247654
0.00010302
0.00247757
9.52806e-05
0.00247836
8.98632e-05
0.00247928
8.68495e-05
0.00248036
8.54892e-05
0.00248159
8.49197e-05
0.00248284
8.44532e-05
0.0024841
8.38613e-05
0.00248528
8.3223e-05
0.00248643
8.2644e-05
0.00248752
8.21806e-05
0.00248858
8.18674e-05
0.00248961
8.18024e-05
0.00249056
8.15597e-05
0.00249144
8.14523e-05
0.00249224
8.13234e-05
0.00249295
8.1182e-05
0.00249357
8.10123e-05
0.00249409
8.09414e-05
0.00249448
8.07539e-05
0.00249471
8.04848e-05
0.00249478
8.01608e-05
0.00249469
7.97945e-05
0.00249444
7.94731e-05
0.00249403
7.91322e-05
0.00249345
7.87062e-05
0.00249274
7.83393e-05
0.00249186
7.79494e-05
0.00249081
7.74862e-05
0.0024896
7.69917e-05
0.00248826
7.64572e-05
0.00248674
7.59836e-05
0.00248514
7.54676e-05
0.00248334
7.49333e-05
0.00248143
7.4256e-05
0.00247932
7.34085e-05
0.00247714
7.24957e-05
0.0024748
7.15299e-05
0.00247235
7.04237e-05
0.00246972
6.91331e-05
0.00246698
6.76511e-05
0.00246408
6.60203e-05
0.00246113
6.42934e-05
0.00245808
6.25157e-05
0.00245502
6.07241e-05
0.00245191
5.89457e-05
0.00244884
5.72076e-05
0.00244574
5.55259e-05
0.00244271
5.39206e-05
0.00243968
5.24026e-05
0.00243673
5.09805e-05
0.0024338
4.96499e-05
0.00243094
4.84117e-05
0.00242811
4.72581e-05
0.00242536
4.61828e-05
0.00242265
4.51672e-05
0.00242001
4.42045e-05
0.00241742
4.32874e-05
0.00241491
4.24276e-05
0.00241246
4.16419e-05
0.00241013
4.09744e-05
0.00240789
4.04856e-05
0.0024058
4.02677e-05
0.00240385
4.04205e-05
0.00240211
4.10764e-05
0.00240057
4.23869e-05
0.00239933
4.4528e-05
0.00239839
4.78554e-05
0.0023977
5.23005e-05
0.00239739
5.8122e-05
0.00239753
6.56959e-05