/*--------------------------------*- C++ -*----------------------------------*\
  =========                 |
  \\      /  F ield         | OpenFOAM: The Open Source CFD Toolbox
   \\    /   O peration     | Website:  https://openfoam.org
    \\  /    A nd           | Version:  8
     \\/     M anipulation  |
\*---------------------------------------------------------------------------*/
FoamFile
{
    version     2.0;
    format      ascii;
    class       volScalarField;
    location    "4.4";
    object      p;
}
// * * * * * * * * * * * * * * * * * * * * * * * * * * * * * * * * * * * * * //

dimensions      [0 2 -2 0 0 0 0];

internalField   nonuniform List<scalar> 
262620
(
-1.36354
-1.36375
-1.36442
-1.36544
-1.36677
-1.36841
-1.37034
-1.37254
-1.37499
-1.37768
-1.3806
-1.38371
-1.38702
-1.39051
-1.39416
-1.39796
-1.40189
-1.40595
-1.41012
-1.4144
-1.41876
-1.42321
-1.42773
-1.43231
-1.43695
-1.44163
-1.44635
-1.4511
-1.45588
-1.46067
-1.46548
-1.47029
-1.47511
-1.47992
-1.48472
-1.48951
-1.49428
-1.49903
-1.50376
-1.50845
-1.51312
-1.51776
-1.52236
-1.52692
-1.53144
-1.53592
-1.54035
-1.54474
-1.54908
-1.55337
-1.55762
-1.56181
-1.56595
-1.57004
-1.57408
-1.57806
-1.58199
-1.58587
-1.58969
-1.59345
-1.59716
-1.60082
-1.60442
-1.60797
-1.61146
-1.6149
-1.61828
-1.62161
-1.62489
-1.62811
-1.63128
-1.6344
-1.63747
-1.64048
-1.64345
-1.64636
-1.64923
-1.65204
-1.65481
-1.65752
-1.66019
-1.66282
-1.6654
-1.66793
-1.67041
-1.67286
-1.67525
-1.67761
-1.67992
-1.68219
-1.68442
-1.68661
-1.68876
-1.69088
-1.69295
-1.69498
-1.69698
-1.69894
-1.70086
-1.70275
-1.70461
-1.70643
-1.70821
-1.70997
-1.71169
-1.71338
-1.71504
-1.71666
-1.71826
-1.71983
-1.72137
-1.72288
-1.72436
-1.72581
-1.72724
-1.72864
-1.73002
-1.73137
-1.7327
-1.734
-1.3634
-1.36362
-1.36429
-1.3653
-1.36663
-1.36827
-1.3702
-1.37239
-1.37485
-1.37754
-1.38045
-1.38357
-1.38688
-1.39037
-1.39402
-1.39781
-1.40175
-1.40581
-1.40998
-1.41426
-1.41862
-1.42307
-1.42759
-1.43217
-1.43681
-1.4415
-1.44622
-1.45097
-1.45575
-1.46055
-1.46536
-1.47017
-1.47499
-1.4798
-1.4846
-1.48939
-1.49417
-1.49892
-1.50365
-1.50835
-1.51302
-1.51766
-1.52226
-1.52683
-1.53135
-1.53583
-1.54027
-1.54466
-1.549
-1.5533
-1.55755
-1.56174
-1.56589
-1.56998
-1.57402
-1.57801
-1.58194
-1.58582
-1.58964
-1.59341
-1.59712
-1.60078
-1.60439
-1.60794
-1.61143
-1.61487
-1.61826
-1.62159
-1.62487
-1.6281
-1.63127
-1.63439
-1.63746
-1.64048
-1.64345
-1.64636
-1.64923
-1.65205
-1.65482
-1.65754
-1.66021
-1.66284
-1.66542
-1.66795
-1.67044
-1.67289
-1.67529
-1.67764
-1.67996
-1.68223
-1.68447
-1.68666
-1.68881
-1.69092
-1.693
-1.69504
-1.69703
-1.699
-1.70092
-1.70282
-1.70467
-1.70649
-1.70828
-1.71004
-1.71176
-1.71345
-1.71511
-1.71674
-1.71834
-1.71991
-1.72145
-1.72296
-1.72445
-1.7259
-1.72733
-1.72874
-1.73011
-1.73147
-1.73279
-1.73409
-1.36317
-1.36338
-1.36405
-1.36506
-1.36639
-1.36802
-1.36995
-1.37214
-1.3746
-1.37729
-1.3802
-1.38332
-1.38663
-1.39011
-1.39376
-1.39756
-1.4015
-1.40556
-1.40973
-1.41401
-1.41838
-1.42283
-1.42735
-1.43194
-1.43658
-1.44127
-1.44599
-1.45075
-1.45553
-1.46033
-1.46514
-1.46996
-1.47478
-1.4796
-1.48441
-1.4892
-1.49398
-1.49874
-1.50347
-1.50818
-1.51286
-1.5175
-1.5221
-1.52667
-1.5312
-1.53569
-1.54013
-1.54453
-1.54888
-1.55318
-1.55743
-1.56163
-1.56578
-1.56988
-1.57392
-1.57791
-1.58185
-1.58573
-1.58956
-1.59334
-1.59706
-1.60072
-1.60433
-1.60788
-1.61139
-1.61483
-1.61822
-1.62156
-1.62484
-1.62808
-1.63125
-1.63438
-1.63745
-1.64047
-1.64345
-1.64637
-1.64924
-1.65206
-1.65483
-1.65756
-1.66023
-1.66286
-1.66545
-1.66799
-1.67048
-1.67293
-1.67533
-1.67769
-1.68001
-1.68229
-1.68453
-1.68672
-1.68888
-1.69099
-1.69307
-1.69511
-1.69711
-1.69908
-1.70101
-1.7029
-1.70476
-1.70659
-1.70838
-1.71014
-1.71186
-1.71356
-1.71522
-1.71685
-1.71846
-1.72003
-1.72157
-1.72309
-1.72457
-1.72603
-1.72746
-1.72887
-1.73025
-1.7316
-1.73293
-1.73424
-1.36282
-1.36303
-1.36369
-1.3647
-1.36602
-1.36765
-1.36958
-1.37177
-1.37422
-1.37691
-1.37982
-1.38294
-1.38625
-1.38974
-1.39339
-1.39719
-1.40112
-1.40519
-1.40936
-1.41364
-1.41801
-1.42247
-1.42699
-1.43158
-1.43623
-1.44092
-1.44565
-1.45041
-1.4552
-1.46
-1.46482
-1.46965
-1.47447
-1.4793
-1.48411
-1.48891
-1.4937
-1.49846
-1.5032
-1.50792
-1.5126
-1.51725
-1.52186
-1.52644
-1.53097
-1.53547
-1.53992
-1.54432
-1.54868
-1.55299
-1.55725
-1.56146
-1.56561
-1.56972
-1.57377
-1.57777
-1.58172
-1.58561
-1.58944
-1.59322
-1.59695
-1.60062
-1.60424
-1.6078
-1.61131
-1.61476
-1.61816
-1.62151
-1.6248
-1.62804
-1.63122
-1.63436
-1.63744
-1.64047
-1.64344
-1.64637
-1.64925
-1.65208
-1.65486
-1.65759
-1.66027
-1.66291
-1.6655
-1.66804
-1.67054
-1.673
-1.67541
-1.67778
-1.6801
-1.68238
-1.68463
-1.68683
-1.68899
-1.69111
-1.69319
-1.69524
-1.69725
-1.69922
-1.70115
-1.70305
-1.70492
-1.70675
-1.70854
-1.71031
-1.71204
-1.71374
-1.7154
-1.71704
-1.71865
-1.72022
-1.72177
-1.72329
-1.72478
-1.72625
-1.72768
-1.72909
-1.73047
-1.73183
-1.73317
-1.73447
-1.36237
-1.36257
-1.36322
-1.36422
-1.36554
-1.36717
-1.36909
-1.37128
-1.37373
-1.37641
-1.37932
-1.38244
-1.38575
-1.38924
-1.39289
-1.39669
-1.40063
-1.40469
-1.40887
-1.41316
-1.41753
-1.42199
-1.42652
-1.43111
-1.43576
-1.44046
-1.4452
-1.44997
-1.45476
-1.45957
-1.4644
-1.46923
-1.47407
-1.4789
-1.48372
-1.48853
-1.49332
-1.4981
-1.50285
-1.50757
-1.51226
-1.51692
-1.52155
-1.52613
-1.53068
-1.53518
-1.53964
-1.54405
-1.54842
-1.55274
-1.55701
-1.56123
-1.5654
-1.56951
-1.57357
-1.57758
-1.58154
-1.58544
-1.58929
-1.59308
-1.59681
-1.6005
-1.60412
-1.6077
-1.61121
-1.61468
-1.61808
-1.62144
-1.62474
-1.62799
-1.63118
-1.63432
-1.63741
-1.64045
-1.64344
-1.64638
-1.64926
-1.6521
-1.65489
-1.65763
-1.66032
-1.66296
-1.66556
-1.66812
-1.67062
-1.67309
-1.6755
-1.67788
-1.68021
-1.6825
-1.68475
-1.68696
-1.68913
-1.69126
-1.69335
-1.6954
-1.69742
-1.69939
-1.70133
-1.70324
-1.70511
-1.70695
-1.70875
-1.71052
-1.71226
-1.71396
-1.71564
-1.71728
-1.71889
-1.72047
-1.72203
-1.72355
-1.72505
-1.72651
-1.72796
-1.72937
-1.73076
-1.73212
-1.73346
-1.73477
-1.3618
-1.36199
-1.36263
-1.36363
-1.36494
-1.36656
-1.36848
-1.37067
-1.37311
-1.3758
-1.3787
-1.38182
-1.38513
-1.38862
-1.39227
-1.39607
-1.40001
-1.40408
-1.40827
-1.41255
-1.41693
-1.4214
-1.42593
-1.43053
-1.43519
-1.43989
-1.44464
-1.44942
-1.45422
-1.45904
-1.46387
-1.46872
-1.47356
-1.4784
-1.48324
-1.48806
-1.49286
-1.49765
-1.50241
-1.50714
-1.51184
-1.51652
-1.52115
-1.52575
-1.53031
-1.53482
-1.53929
-1.54372
-1.5481
-1.55243
-1.55671
-1.56095
-1.56513
-1.56925
-1.57333
-1.57735
-1.58132
-1.58523
-1.58909
-1.5929
-1.59664
-1.60034
-1.60398
-1.60756
-1.61109
-1.61457
-1.61799
-1.62135
-1.62467
-1.62793
-1.63113
-1.63429
-1.63739
-1.64044
-1.64344
-1.64638
-1.64928
-1.65213
-1.65493
-1.65768
-1.66038
-1.66304
-1.66564
-1.66821
-1.67072
-1.6732
-1.67562
-1.67801
-1.68035
-1.68265
-1.68491
-1.68713
-1.68931
-1.69144
-1.69354
-1.6956
-1.69763
-1.69961
-1.70156
-1.70348
-1.70536
-1.7072
-1.70901
-1.71079
-1.71253
-1.71425
-1.71593
-1.71758
-1.7192
-1.72079
-1.72235
-1.72388
-1.72538
-1.72686
-1.7283
-1.72972
-1.73112
-1.73249
-1.73383
-1.73515
-1.36112
-1.3613
-1.36194
-1.36293
-1.36423
-1.36585
-1.36776
-1.36994
-1.37238
-1.37506
-1.37797
-1.38108
-1.38439
-1.38788
-1.39153
-1.39534
-1.39928
-1.40336
-1.40754
-1.41184
-1.41622
-1.42069
-1.42524
-1.42984
-1.43451
-1.43922
-1.44397
-1.44876
-1.45357
-1.45841
-1.46325
-1.4681
-1.47296
-1.47781
-1.48266
-1.48749
-1.49231
-1.49711
-1.50188
-1.50663
-1.51135
-1.51603
-1.52068
-1.5253
-1.52987
-1.5344
-1.53888
-1.54333
-1.54772
-1.55207
-1.55636
-1.56061
-1.56481
-1.56895
-1.57304
-1.57708
-1.58106
-1.58499
-1.58886
-1.59268
-1.59644
-1.60015
-1.60381
-1.6074
-1.61095
-1.61444
-1.61787
-1.62125
-1.62458
-1.62785
-1.63107
-1.63424
-1.63736
-1.64042
-1.64343
-1.64639
-1.6493
-1.65216
-1.65497
-1.65774
-1.66045
-1.66312
-1.66574
-1.66831
-1.67084
-1.67333
-1.67577
-1.67816
-1.68052
-1.68283
-1.6851
-1.68733
-1.68952
-1.69166
-1.69377
-1.69584
-1.69788
-1.69987
-1.70183
-1.70376
-1.70565
-1.7075
-1.70932
-1.71111
-1.71286
-1.71458
-1.71627
-1.71793
-1.71956
-1.72116
-1.72272
-1.72426
-1.72577
-1.72726
-1.72871
-1.73014
-1.73154
-1.73292
-1.73427
-1.73559
-1.36035
-1.36051
-1.36114
-1.36212
-1.36341
-1.36502
-1.36692
-1.3691
-1.37154
-1.37422
-1.37712
-1.38023
-1.38354
-1.38703
-1.39069
-1.39449
-1.39844
-1.40252
-1.40671
-1.41101
-1.4154
-1.41988
-1.42443
-1.42905
-1.43372
-1.43844
-1.44321
-1.448
-1.45283
-1.45767
-1.46253
-1.4674
-1.47227
-1.47713
-1.48199
-1.48684
-1.49167
-1.49649
-1.50128
-1.50604
-1.51077
-1.51548
-1.52014
-1.52477
-1.52936
-1.53391
-1.53841
-1.54287
-1.54728
-1.55164
-1.55596
-1.56022
-1.56443
-1.56859
-1.5727
-1.57676
-1.58076
-1.5847
-1.58859
-1.59243
-1.59621
-1.59994
-1.60361
-1.60722
-1.61078
-1.61429
-1.61774
-1.62114
-1.62448
-1.62777
-1.631
-1.63419
-1.63732
-1.6404
-1.64342
-1.6464
-1.64933
-1.6522
-1.65503
-1.6578
-1.66053
-1.66322
-1.66585
-1.66844
-1.67098
-1.67348
-1.67593
-1.67834
-1.68071
-1.68303
-1.68532
-1.68756
-1.68976
-1.69192
-1.69404
-1.69612
-1.69817
-1.70018
-1.70215
-1.70408
-1.70598
-1.70785
-1.70968
-1.71148
-1.71324
-1.71497
-1.71667
-1.71834
-1.71998
-1.72158
-1.72316
-1.72471
-1.72623
-1.72772
-1.72919
-1.73063
-1.73204
-1.73342
-1.73478
-1.73611
-1.35947
-1.35962
-1.36023
-1.3612
-1.36248
-1.36408
-1.36598
-1.36815
-1.37058
-1.37326
-1.37616
-1.37927
-1.38258
-1.38607
-1.38973
-1.39354
-1.39749
-1.40157
-1.40577
-1.41007
-1.41447
-1.41896
-1.42352
-1.42814
-1.43283
-1.43756
-1.44234
-1.44715
-1.45198
-1.45684
-1.46171
-1.4666
-1.47148
-1.47636
-1.48124
-1.4861
-1.49095
-1.49578
-1.50059
-1.50537
-1.51012
-1.51484
-1.51953
-1.52418
-1.52878
-1.53335
-1.53787
-1.54235
-1.54678
-1.55116
-1.5555
-1.55978
-1.56401
-1.56819
-1.57232
-1.57639
-1.58041
-1.58438
-1.58829
-1.59214
-1.59595
-1.59969
-1.60338
-1.60701
-1.61059
-1.61412
-1.61759
-1.621
-1.62437
-1.62767
-1.63093
-1.63413
-1.63728
-1.64037
-1.64342
-1.64641
-1.64935
-1.65224
-1.65509
-1.65788
-1.66063
-1.66333
-1.66598
-1.66858
-1.67114
-1.67365
-1.67612
-1.67855
-1.68093
-1.68327
-1.68556
-1.68782
-1.69003
-1.69221
-1.69434
-1.69644
-1.6985
-1.70052
-1.7025
-1.70445
-1.70636
-1.70824
-1.71008
-1.71189
-1.71367
-1.71541
-1.71712
-1.7188
-1.72045
-1.72207
-1.72366
-1.72522
-1.72675
-1.72825
-1.72973
-1.73117
-1.7326
-1.73399
-1.73536
-1.7367
-1.35848
-1.35862
-1.35922
-1.36018
-1.36145
-1.36304
-1.36493
-1.36709
-1.36952
-1.37219
-1.37509
-1.3782
-1.38151
-1.385
-1.38865
-1.39247
-1.39642
-1.40051
-1.40471
-1.40903
-1.41343
-1.41793
-1.4225
-1.42714
-1.43183
-1.43658
-1.44137
-1.44619
-1.45104
-1.45592
-1.4608
-1.4657
-1.4706
-1.4755
-1.4804
-1.48528
-1.49015
-1.495
-1.49983
-1.50463
-1.5094
-1.51414
-1.51884
-1.52351
-1.52814
-1.53273
-1.53727
-1.54177
-1.54623
-1.55063
-1.55499
-1.55929
-1.56354
-1.56775
-1.5719
-1.57599
-1.58003
-1.58402
-1.58795
-1.59183
-1.59565
-1.59942
-1.60313
-1.60678
-1.61038
-1.61393
-1.61742
-1.62086
-1.62424
-1.62757
-1.63084
-1.63406
-1.63723
-1.64034
-1.64341
-1.64642
-1.64938
-1.65229
-1.65516
-1.65797
-1.66073
-1.66345
-1.66612
-1.66874
-1.67131
-1.67384
-1.67633
-1.67877
-1.68117
-1.68353
-1.68584
-1.68811
-1.69034
-1.69253
-1.69468
-1.69679
-1.69887
-1.7009
-1.7029
-1.70486
-1.70679
-1.70868
-1.71054
-1.71236
-1.71415
-1.7159
-1.71763
-1.71932
-1.72098
-1.72261
-1.72421
-1.72578
-1.72733
-1.72884
-1.73033
-1.73179
-1.73322
-1.73463
-1.73601
-1.73735
-1.3574
-1.35752
-1.35811
-1.35905
-1.36031
-1.36189
-1.36377
-1.36593
-1.36835
-1.37101
-1.37391
-1.37702
-1.38032
-1.38381
-1.38747
-1.39129
-1.39525
-1.39934
-1.40356
-1.40787
-1.41229
-1.4168
-1.42138
-1.42603
-1.43074
-1.4355
-1.4403
-1.44514
-1.45001
-1.4549
-1.4598
-1.46472
-1.46964
-1.47456
-1.47947
-1.48437
-1.48926
-1.49413
-1.49898
-1.50381
-1.5086
-1.51336
-1.51809
-1.52278
-1.52743
-1.53205
-1.53661
-1.54114
-1.54561
-1.55004
-1.55442
-1.55875
-1.56303
-1.56725
-1.57143
-1.57555
-1.57961
-1.58362
-1.58758
-1.59148
-1.59532
-1.59911
-1.60285
-1.60653
-1.61015
-1.61372
-1.61723
-1.62069
-1.6241
-1.62745
-1.63074
-1.63399
-1.63718
-1.64031
-1.6434
-1.64643
-1.64942
-1.65235
-1.65523
-1.65806
-1.66085
-1.66358
-1.66627
-1.66891
-1.67151
-1.67406
-1.67656
-1.67902
-1.68144
-1.68381
-1.68614
-1.68843
-1.69068
-1.69289
-1.69505
-1.69718
-1.69927
-1.70132
-1.70334
-1.70532
-1.70726
-1.70916
-1.71103
-1.71287
-1.71468
-1.71645
-1.71818
-1.71989
-1.72157
-1.72321
-1.72482
-1.72641
-1.72797
-1.72949
-1.73099
-1.73246
-1.73391
-1.73533
-1.73672
-1.73807
-1.35622
-1.35633
-1.3569
-1.35782
-1.35907
-1.36064
-1.36251
-1.36466
-1.36707
-1.36973
-1.37262
-1.37573
-1.37903
-1.38253
-1.38619
-1.39001
-1.39398
-1.39807
-1.40229
-1.40662
-1.41105
-1.41556
-1.42015
-1.42482
-1.42954
-1.43432
-1.43913
-1.44399
-1.44888
-1.45378
-1.45871
-1.46364
-1.46858
-1.47353
-1.47846
-1.48339
-1.4883
-1.49319
-1.49806
-1.50291
-1.50773
-1.51252
-1.51727
-1.52198
-1.52666
-1.5313
-1.53589
-1.54044
-1.54494
-1.5494
-1.5538
-1.55816
-1.56246
-1.56672
-1.57092
-1.57506
-1.57915
-1.58319
-1.58717
-1.5911
-1.59497
-1.59879
-1.60255
-1.60625
-1.6099
-1.61349
-1.61703
-1.62052
-1.62395
-1.62732
-1.63064
-1.63391
-1.63712
-1.64028
-1.64339
-1.64645
-1.64945
-1.65241
-1.65531
-1.65817
-1.66097
-1.66373
-1.66644
-1.6691
-1.67172
-1.67429
-1.67681
-1.67929
-1.68173
-1.68412
-1.68647
-1.68878
-1.69105
-1.69327
-1.69546
-1.69761
-1.69971
-1.70178
-1.70382
-1.70581
-1.70777
-1.70969
-1.71158
-1.71343
-1.71525
-1.71704
-1.71879
-1.72051
-1.7222
-1.72386
-1.72549
-1.72709
-1.72866
-1.7302
-1.73172
-1.7332
-1.73466
-1.73609
-1.73749
-1.73886
-1.35495
-1.35503
-1.35558
-1.35649
-1.35773
-1.35928
-1.36114
-1.36328
-1.36569
-1.36834
-1.37123
-1.37434
-1.37764
-1.38113
-1.3848
-1.38862
-1.39259
-1.3967
-1.40093
-1.40526
-1.4097
-1.41423
-1.41883
-1.42351
-1.42825
-1.43304
-1.43787
-1.44275
-1.44765
-1.45258
-1.45753
-1.46248
-1.46744
-1.47241
-1.47737
-1.48232
-1.48725
-1.49217
-1.49707
-1.50194
-1.50678
-1.5116
-1.51638
-1.52112
-1.52583
-1.53049
-1.53511
-1.53969
-1.54422
-1.5487
-1.55314
-1.55752
-1.56185
-1.56613
-1.57036
-1.57454
-1.57866
-1.58272
-1.58673
-1.59069
-1.59459
-1.59843
-1.60222
-1.60595
-1.60963
-1.61325
-1.61681
-1.62032
-1.62378
-1.62718
-1.63053
-1.63382
-1.63706
-1.64025
-1.64338
-1.64646
-1.64949
-1.65247
-1.6554
-1.65828
-1.66111
-1.66389
-1.66662
-1.66931
-1.67195
-1.67454
-1.67709
-1.67959
-1.68205
-1.68446
-1.68683
-1.68916
-1.69145
-1.69369
-1.6959
-1.69807
-1.70019
-1.70228
-1.70433
-1.70635
-1.70832
-1.71026
-1.71217
-1.71404
-1.71588
-1.71768
-1.71945
-1.72119
-1.7229
-1.72457
-1.72622
-1.72783
-1.72942
-1.73097
-1.7325
-1.734
-1.73547
-1.73692
-1.73833
-1.73971
-1.35358
-1.35364
-1.35418
-1.35507
-1.35629
-1.35783
-1.35968
-1.36181
-1.36421
-1.36686
-1.36974
-1.37284
-1.37614
-1.37964
-1.38331
-1.38713
-1.39111
-1.39522
-1.39946
-1.4038
-1.40825
-1.41279
-1.41741
-1.4221
-1.42686
-1.43167
-1.43652
-1.44141
-1.44634
-1.45129
-1.45625
-1.46123
-1.46622
-1.47121
-1.47619
-1.48117
-1.48613
-1.49107
-1.496
-1.5009
-1.50577
-1.51061
-1.51542
-1.52019
-1.52493
-1.52962
-1.53427
-1.53888
-1.54344
-1.54795
-1.55242
-1.55683
-1.5612
-1.56551
-1.56977
-1.57397
-1.57812
-1.58222
-1.58626
-1.59024
-1.59417
-1.59805
-1.60186
-1.60563
-1.60933
-1.61298
-1.61658
-1.62012
-1.6236
-1.62703
-1.63041
-1.63373
-1.63699
-1.64021
-1.64337
-1.64648
-1.64953
-1.65254
-1.6555
-1.6584
-1.66126
-1.66406
-1.66682
-1.66953
-1.67219
-1.67481
-1.67738
-1.67991
-1.68239
-1.68482
-1.68722
-1.68957
-1.69188
-1.69415
-1.69637
-1.69856
-1.70071
-1.70282
-1.70489
-1.70692
-1.70892
-1.71088
-1.7128
-1.71469
-1.71655
-1.71837
-1.72016
-1.72192
-1.72364
-1.72533
-1.72699
-1.72863
-1.73023
-1.7318
-1.73334
-1.73486
-1.73635
-1.73781
-1.73924
-1.74063
-1.35212
-1.35216
-1.35267
-1.35355
-1.35475
-1.35628
-1.35811
-1.36023
-1.36262
-1.36527
-1.36814
-1.37124
-1.37455
-1.37804
-1.38171
-1.38554
-1.38953
-1.39365
-1.39789
-1.40225
-1.40671
-1.41126
-1.41589
-1.4206
-1.42537
-1.4302
-1.43507
-1.43999
-1.44493
-1.44991
-1.4549
-1.4599
-1.46491
-1.46992
-1.47493
-1.47994
-1.48493
-1.4899
-1.49485
-1.49978
-1.50469
-1.50956
-1.5144
-1.5192
-1.52397
-1.52869
-1.53338
-1.53802
-1.54261
-1.54715
-1.55165
-1.5561
-1.56049
-1.56484
-1.56913
-1.57337
-1.57755
-1.58168
-1.58575
-1.58977
-1.59373
-1.59764
-1.60149
-1.60528
-1.60902
-1.6127
-1.61632
-1.6199
-1.62341
-1.62687
-1.63028
-1.63363
-1.63692
-1.64017
-1.64336
-1.64649
-1.64958
-1.65261
-1.6556
-1.65853
-1.66141
-1.66425
-1.66703
-1.66977
-1.67246
-1.6751
-1.6777
-1.68025
-1.68275
-1.68521
-1.68763
-1.69001
-1.69234
-1.69463
-1.69688
-1.69909
-1.70126
-1.70339
-1.70548
-1.70754
-1.70956
-1.71154
-1.71348
-1.71539
-1.71727
-1.71911
-1.72092
-1.72269
-1.72444
-1.72615
-1.72783
-1.72948
-1.7311
-1.73269
-1.73425
-1.73578
-1.73728
-1.73876
-1.74021
-1.74161
-1.35057
-1.35059
-1.35108
-1.35193
-1.35312
-1.35463
-1.35645
-1.35856
-1.36094
-1.36358
-1.36645
-1.36955
-1.37285
-1.37634
-1.38002
-1.38385
-1.38784
-1.39197
-1.39622
-1.40059
-1.40506
-1.40963
-1.41428
-1.41901
-1.4238
-1.42864
-1.43354
-1.43847
-1.44344
-1.44844
-1.45345
-1.45848
-1.46352
-1.46856
-1.4736
-1.47863
-1.48365
-1.48865
-1.49364
-1.4986
-1.50353
-1.50844
-1.51331
-1.51815
-1.52295
-1.52771
-1.53242
-1.5371
-1.54172
-1.5463
-1.55083
-1.55532
-1.55975
-1.56413
-1.56845
-1.57272
-1.57694
-1.5811
-1.58521
-1.58926
-1.59326
-1.5972
-1.60108
-1.60491
-1.60868
-1.6124
-1.61606
-1.61966
-1.62321
-1.6267
-1.63014
-1.63352
-1.63685
-1.64012
-1.64334
-1.64651
-1.64963
-1.65269
-1.65571
-1.65867
-1.66158
-1.66444
-1.66725
-1.67002
-1.67274
-1.67541
-1.67803
-1.68061
-1.68314
-1.68563
-1.68807
-1.69047
-1.69283
-1.69515
-1.69742
-1.69965
-1.70185
-1.704
-1.70612
-1.7082
-1.71024
-1.71224
-1.71421
-1.71614
-1.71804
-1.7199
-1.72173
-1.72352
-1.72528
-1.72701
-1.72871
-1.73038
-1.73202
-1.73363
-1.73521
-1.73676
-1.73828
-1.73977
-1.74124
-1.74266
-1.34893
-1.34892
-1.34939
-1.35022
-1.35139
-1.35289
-1.35469
-1.35679
-1.35916
-1.36179
-1.36466
-1.36775
-1.37105
-1.37455
-1.37823
-1.38207
-1.38606
-1.3902
-1.39446
-1.39884
-1.40333
-1.40791
-1.41258
-1.41732
-1.42213
-1.42699
-1.43191
-1.43687
-1.44186
-1.44688
-1.45192
-1.45698
-1.46205
-1.46712
-1.47218
-1.47725
-1.4823
-1.48733
-1.49235
-1.49734
-1.50231
-1.50725
-1.51216
-1.51703
-1.52186
-1.52666
-1.53141
-1.53612
-1.54079
-1.5454
-1.54997
-1.55449
-1.55896
-1.56337
-1.56773
-1.57204
-1.5763
-1.5805
-1.58464
-1.58873
-1.59276
-1.59674
-1.60066
-1.60452
-1.60833
-1.61208
-1.61577
-1.61941
-1.62299
-1.62652
-1.62999
-1.63341
-1.63677
-1.64008
-1.64333
-1.64653
-1.64968
-1.65278
-1.65582
-1.65881
-1.66176
-1.66465
-1.66749
-1.67029
-1.67303
-1.67573
-1.67838
-1.68099
-1.68355
-1.68607
-1.68854
-1.69096
-1.69335
-1.69569
-1.69799
-1.70025
-1.70247
-1.70465
-1.70679
-1.70889
-1.71096
-1.71298
-1.71497
-1.71693
-1.71885
-1.72073
-1.72258
-1.7244
-1.72618
-1.72793
-1.72965
-1.73134
-1.733
-1.73463
-1.73623
-1.7378
-1.73934
-1.74085
-1.74233
-1.74377
-1.34721
-1.34717
-1.34761
-1.34842
-1.34957
-1.35105
-1.35284
-1.35493
-1.35729
-1.35991
-1.36277
-1.36586
-1.36916
-1.37266
-1.37634
-1.38018
-1.38419
-1.38833
-1.3926
-1.397
-1.4015
-1.40609
-1.41078
-1.41554
-1.42037
-1.42525
-1.43019
-1.43518
-1.44019
-1.44524
-1.45031
-1.4554
-1.46049
-1.46559
-1.47069
-1.47579
-1.48087
-1.48594
-1.49099
-1.49602
-1.50102
-1.506
-1.51094
-1.51585
-1.52072
-1.52556
-1.53035
-1.53509
-1.5398
-1.54445
-1.54906
-1.55361
-1.55812
-1.56257
-1.56698
-1.57132
-1.57562
-1.57985
-1.58404
-1.58816
-1.59223
-1.59625
-1.60021
-1.60411
-1.60795
-1.61174
-1.61547
-1.61915
-1.62276
-1.62633
-1.62984
-1.63329
-1.63669
-1.64003
-1.64332
-1.64655
-1.64973
-1.65286
-1.65594
-1.65897
-1.66194
-1.66487
-1.66774
-1.67057
-1.67335
-1.67608
-1.67876
-1.6814
-1.68399
-1.68653
-1.68903
-1.69149
-1.6939
-1.69627
-1.6986
-1.70088
-1.70313
-1.70533
-1.7075
-1.70963
-1.71172
-1.71377
-1.71578
-1.71776
-1.7197
-1.72161
-1.72349
-1.72533
-1.72713
-1.72891
-1.73065
-1.73236
-1.73404
-1.73568
-1.7373
-1.73889
-1.74045
-1.74199
-1.74349
-1.74494
-1.3454
-1.34533
-1.34575
-1.34654
-1.34766
-1.34912
-1.3509
-1.35297
-1.35532
-1.35793
-1.36079
-1.36388
-1.36718
-1.37067
-1.37435
-1.37821
-1.38221
-1.38637
-1.39065
-1.39506
-1.39957
-1.40418
-1.40889
-1.41367
-1.41852
-1.42343
-1.42839
-1.4334
-1.43844
-1.44352
-1.44862
-1.45373
-1.45886
-1.46399
-1.46912
-1.47425
-1.47937
-1.48447
-1.48956
-1.49463
-1.49967
-1.50468
-1.50966
-1.51461
-1.51952
-1.52439
-1.52922
-1.53401
-1.53875
-1.54345
-1.5481
-1.55269
-1.55724
-1.56174
-1.56618
-1.57057
-1.5749
-1.57918
-1.5834
-1.58757
-1.59168
-1.59573
-1.59973
-1.60367
-1.60756
-1.61138
-1.61515
-1.61887
-1.62253
-1.62613
-1.62967
-1.63316
-1.6366
-1.63998
-1.6433
-1.64657
-1.64979
-1.65296
-1.65607
-1.65913
-1.66214
-1.6651
-1.66801
-1.67087
-1.67368
-1.67644
-1.67915
-1.68182
-1.68444
-1.68702
-1.68955
-1.69203
-1.69448
-1.69688
-1.69923
-1.70155
-1.70382
-1.70605
-1.70825
-1.7104
-1.71252
-1.7146
-1.71664
-1.71864
-1.72061
-1.72254
-1.72444
-1.7263
-1.72813
-1.72993
-1.73169
-1.73342
-1.73513
-1.7368
-1.73844
-1.74005
-1.74163
-1.74318
-1.7447
-1.74617
-1.3435
-1.3434
-1.34379
-1.34456
-1.34566
-1.3471
-1.34886
-1.35092
-1.35326
-1.35587
-1.35872
-1.3618
-1.36509
-1.36859
-1.37228
-1.37613
-1.38015
-1.38431
-1.38861
-1.39303
-1.39755
-1.40218
-1.4069
-1.41171
-1.41658
-1.42151
-1.4265
-1.43153
-1.43661
-1.44171
-1.44684
-1.45199
-1.45715
-1.46231
-1.46748
-1.47264
-1.4778
-1.48294
-1.48806
-1.49317
-1.49825
-1.5033
-1.50832
-1.51331
-1.51826
-1.52318
-1.52805
-1.53288
-1.53766
-1.5424
-1.54709
-1.55173
-1.55632
-1.56086
-1.56534
-1.56977
-1.57415
-1.57847
-1.58274
-1.58695
-1.5911
-1.5952
-1.59923
-1.60322
-1.60714
-1.61101
-1.61482
-1.61858
-1.62227
-1.62592
-1.6295
-1.63303
-1.6365
-1.63992
-1.64329
-1.6466
-1.64985
-1.65305
-1.6562
-1.6593
-1.66235
-1.66534
-1.66828
-1.67118
-1.67402
-1.67682
-1.67957
-1.68227
-1.68492
-1.68753
-1.69009
-1.69261
-1.69508
-1.69751
-1.6999
-1.70224
-1.70455
-1.70681
-1.70903
-1.71121
-1.71336
-1.71546
-1.71753
-1.71956
-1.72156
-1.72351
-1.72544
-1.72733
-1.72918
-1.731
-1.73279
-1.73455
-1.73627
-1.73796
-1.73963
-1.74126
-1.74286
-1.74444
-1.74598
-1.74747
-1.34152
-1.34139
-1.34175
-1.34249
-1.34357
-1.345
-1.34674
-1.34878
-1.35111
-1.3537
-1.35655
-1.35963
-1.36292
-1.36642
-1.37011
-1.37397
-1.37799
-1.38216
-1.38647
-1.3909
-1.39545
-1.4001
-1.40484
-1.40966
-1.41455
-1.41951
-1.42452
-1.42959
-1.43469
-1.43982
-1.44498
-1.45016
-1.45536
-1.46056
-1.46576
-1.47096
-1.47615
-1.48133
-1.4865
-1.49164
-1.49676
-1.50186
-1.50692
-1.51195
-1.51695
-1.5219
-1.52682
-1.53169
-1.53652
-1.5413
-1.54603
-1.55072
-1.55535
-1.55994
-1.56447
-1.56894
-1.57336
-1.57773
-1.58204
-1.58629
-1.59049
-1.59463
-1.59871
-1.60274
-1.60671
-1.61062
-1.61447
-1.61827
-1.62201
-1.62569
-1.62932
-1.63289
-1.63641
-1.63987
-1.64327
-1.64662
-1.64991
-1.65316
-1.65634
-1.65948
-1.66256
-1.66559
-1.66857
-1.67151
-1.67439
-1.67722
-1.68
-1.68274
-1.68542
-1.68807
-1.69066
-1.69321
-1.69572
-1.69818
-1.7006
-1.70298
-1.70531
-1.7076
-1.70985
-1.71207
-1.71424
-1.71637
-1.71847
-1.72053
-1.72255
-1.72453
-1.72648
-1.7284
-1.73028
-1.73213
-1.73394
-1.73572
-1.73747
-1.73919
-1.74087
-1.74253
-1.74416
-1.74575
-1.74732
-1.74882
-1.33946
-1.33929
-1.33963
-1.34034
-1.3414
-1.3428
-1.34453
-1.34656
-1.34887
-1.35145
-1.35429
-1.35736
-1.36066
-1.36416
-1.36785
-1.37171
-1.37574
-1.37993
-1.38425
-1.38869
-1.39325
-1.39792
-1.40268
-1.40752
-1.41244
-1.41742
-1.42247
-1.42756
-1.43269
-1.43785
-1.44305
-1.44826
-1.45349
-1.45873
-1.46397
-1.4692
-1.47444
-1.47966
-1.48486
-1.49005
-1.49521
-1.50035
-1.50546
-1.51053
-1.51557
-1.52057
-1.52553
-1.53045
-1.53533
-1.54015
-1.54493
-1.54967
-1.55435
-1.55897
-1.56355
-1.56807
-1.57254
-1.57695
-1.58131
-1.58561
-1.58985
-1.59404
-1.59817
-1.60224
-1.60626
-1.61021
-1.61411
-1.61795
-1.62174
-1.62546
-1.62913
-1.63275
-1.6363
-1.63981
-1.64325
-1.64664
-1.64998
-1.65326
-1.65649
-1.65966
-1.66279
-1.66586
-1.66888
-1.67185
-1.67476
-1.67763
-1.68045
-1.68323
-1.68595
-1.68863
-1.69126
-1.69384
-1.69638
-1.69888
-1.70133
-1.70374
-1.7061
-1.70843
-1.71071
-1.71296
-1.71516
-1.71732
-1.71945
-1.72154
-1.72359
-1.7256
-1.72758
-1.72952
-1.73143
-1.7333
-1.73514
-1.73695
-1.73872
-1.74046
-1.74218
-1.74386
-1.74551
-1.74713
-1.74871
-1.75024
-1.33732
-1.33712
-1.33742
-1.33811
-1.33914
-1.34052
-1.34223
-1.34424
-1.34654
-1.34912
-1.35194
-1.35501
-1.3583
-1.3618
-1.3655
-1.36937
-1.37341
-1.3776
-1.38193
-1.38639
-1.39097
-1.39565
-1.40043
-1.4053
-1.41024
-1.41525
-1.42032
-1.42544
-1.43061
-1.4358
-1.44103
-1.44628
-1.45154
-1.45682
-1.4621
-1.46738
-1.47265
-1.47791
-1.48316
-1.48839
-1.4936
-1.49878
-1.50393
-1.50905
-1.51414
-1.51919
-1.52419
-1.52916
-1.53408
-1.53896
-1.54379
-1.54857
-1.5533
-1.55797
-1.5626
-1.56717
-1.57169
-1.57615
-1.58055
-1.5849
-1.58919
-1.59343
-1.5976
-1.60172
-1.60578
-1.60979
-1.61373
-1.61762
-1.62145
-1.62522
-1.62894
-1.6326
-1.6362
-1.63974
-1.64323
-1.64667
-1.65005
-1.65337
-1.65664
-1.65986
-1.66302
-1.66613
-1.66919
-1.6722
-1.67516
-1.67807
-1.68093
-1.68373
-1.6865
-1.68921
-1.69188
-1.6945
-1.69707
-1.6996
-1.70209
-1.70453
-1.70693
-1.70929
-1.71161
-1.71388
-1.71612
-1.71831
-1.72047
-1.72259
-1.72467
-1.72671
-1.72872
-1.73069
-1.73262
-1.73453
-1.73639
-1.73823
-1.74003
-1.7418
-1.74353
-1.74524
-1.74692
-1.74856
-1.75017
-1.75171
-1.3351
-1.33486
-1.33514
-1.33579
-1.3368
-1.33816
-1.33984
-1.34184
-1.34413
-1.34669
-1.34951
-1.35257
-1.35586
-1.35936
-1.36306
-1.36693
-1.37098
-1.37518
-1.37953
-1.384
-1.3886
-1.3933
-1.3981
-1.40299
-1.40796
-1.413
-1.4181
-1.42325
-1.42844
-1.43368
-1.43894
-1.44422
-1.44953
-1.45484
-1.46016
-1.46548
-1.47079
-1.4761
-1.48139
-1.48667
-1.49192
-1.49715
-1.50235
-1.50752
-1.51265
-1.51775
-1.5228
-1.52782
-1.53279
-1.53772
-1.54259
-1.54742
-1.5522
-1.55693
-1.56161
-1.56623
-1.57079
-1.57531
-1.57976
-1.58416
-1.5885
-1.59279
-1.59701
-1.60118
-1.60529
-1.60934
-1.61334
-1.61727
-1.62115
-1.62497
-1.62873
-1.63244
-1.63609
-1.63968
-1.64321
-1.64669
-1.65012
-1.65348
-1.6568
-1.66006
-1.66327
-1.66642
-1.66952
-1.67257
-1.67557
-1.67852
-1.68142
-1.68426
-1.68706
-1.68982
-1.69252
-1.69518
-1.69779
-1.70036
-1.70288
-1.70536
-1.7078
-1.71019
-1.71254
-1.71485
-1.71711
-1.71934
-1.72153
-1.72368
-1.72579
-1.72787
-1.7299
-1.7319
-1.73387
-1.7358
-1.7377
-1.73956
-1.74139
-1.74318
-1.74495
-1.74668
-1.74838
-1.75005
-1.75169
-1.75325
-1.3328
-1.33252
-1.33277
-1.33339
-1.33437
-1.33571
-1.33737
-1.33935
-1.34163
-1.34418
-1.34699
-1.35005
-1.35333
-1.35683
-1.36053
-1.36441
-1.36847
-1.37268
-1.37704
-1.38153
-1.38614
-1.39087
-1.39569
-1.4006
-1.4056
-1.41066
-1.41579
-1.42097
-1.4262
-1.43147
-1.43677
-1.44209
-1.44743
-1.45279
-1.45815
-1.46351
-1.46887
-1.47422
-1.47956
-1.48488
-1.49018
-1.49545
-1.5007
-1.50592
-1.5111
-1.51625
-1.52136
-1.52642
-1.53145
-1.53643
-1.54136
-1.54624
-1.55107
-1.55585
-1.56058
-1.56525
-1.56987
-1.57443
-1.57894
-1.58339
-1.58778
-1.59212
-1.5964
-1.60062
-1.60478
-1.60888
-1.61293
-1.61691
-1.62084
-1.62471
-1.62852
-1.63227
-1.63597
-1.63961
-1.64319
-1.64672
-1.65019
-1.6536
-1.65696
-1.66027
-1.66352
-1.66672
-1.66986
-1.67295
-1.67599
-1.67898
-1.68192
-1.68481
-1.68765
-1.69045
-1.69319
-1.69589
-1.69854
-1.70114
-1.7037
-1.70622
-1.70869
-1.71112
-1.7135
-1.71585
-1.71815
-1.72041
-1.72263
-1.72482
-1.72696
-1.72907
-1.73114
-1.73317
-1.73516
-1.73712
-1.73905
-1.74094
-1.7428
-1.74462
-1.74641
-1.74817
-1.7499
-1.7516
-1.75326
-1.75485
-1.33042
-1.33011
-1.33032
-1.33092
-1.33187
-1.33318
-1.33482
-1.33678
-1.33904
-1.34158
-1.34438
-1.34743
-1.35072
-1.35422
-1.35792
-1.36181
-1.36587
-1.37009
-1.37446
-1.37897
-1.3836
-1.38835
-1.39319
-1.39813
-1.40315
-1.40825
-1.4134
-1.41862
-1.42388
-1.42918
-1.43452
-1.43988
-1.44526
-1.45066
-1.45606
-1.46147
-1.46687
-1.47227
-1.47766
-1.48303
-1.48837
-1.4937
-1.499
-1.50427
-1.5095
-1.5147
-1.51986
-1.52498
-1.53006
-1.53509
-1.54007
-1.54501
-1.54989
-1.55473
-1.55951
-1.56424
-1.56891
-1.57353
-1.57809
-1.58259
-1.58704
-1.59143
-1.59576
-1.60003
-1.60425
-1.6084
-1.6125
-1.61654
-1.62052
-1.62444
-1.6283
-1.6321
-1.63585
-1.63954
-1.64317
-1.64674
-1.65026
-1.65372
-1.65713
-1.66048
-1.66378
-1.66702
-1.67021
-1.67335
-1.67644
-1.67947
-1.68245
-1.68538
-1.68827
-1.6911
-1.69389
-1.69662
-1.69931
-1.70196
-1.70456
-1.70711
-1.70962
-1.71208
-1.71451
-1.71689
-1.71922
-1.72152
-1.72378
-1.726
-1.72817
-1.73031
-1.73241
-1.73448
-1.73651
-1.7385
-1.74045
-1.74237
-1.74426
-1.74612
-1.74794
-1.74973
-1.75148
-1.75321
-1.75489
-1.75651
-1.32797
-1.32762
-1.32779
-1.32836
-1.32928
-1.33056
-1.33219
-1.33413
-1.33637
-1.3389
-1.34169
-1.34474
-1.34802
-1.35152
-1.35522
-1.35911
-1.36319
-1.36742
-1.3718
-1.37633
-1.38098
-1.38574
-1.39061
-1.39557
-1.40062
-1.40575
-1.41094
-1.41618
-1.42148
-1.42682
-1.4322
-1.4376
-1.44302
-1.44846
-1.45391
-1.45936
-1.46481
-1.47026
-1.47569
-1.48111
-1.48651
-1.49189
-1.49724
-1.50256
-1.50784
-1.5131
-1.51831
-1.52349
-1.52862
-1.5337
-1.53874
-1.54374
-1.54868
-1.55357
-1.5584
-1.56319
-1.56792
-1.57259
-1.57721
-1.58177
-1.58627
-1.59072
-1.5951
-1.59943
-1.6037
-1.60791
-1.61206
-1.61615
-1.62018
-1.62416
-1.62807
-1.63193
-1.63572
-1.63946
-1.64315
-1.64677
-1.65034
-1.65385
-1.65731
-1.66071
-1.66405
-1.66734
-1.67058
-1.67376
-1.67689
-1.67997
-1.683
-1.68597
-1.6889
-1.69178
-1.6946
-1.69738
-1.70012
-1.7028
-1.70544
-1.70803
-1.71058
-1.71308
-1.71554
-1.71796
-1.72034
-1.72267
-1.72496
-1.72722
-1.72943
-1.7316
-1.73374
-1.73583
-1.7379
-1.73992
-1.74191
-1.74386
-1.74578
-1.74766
-1.74951
-1.75133
-1.75312
-1.75488
-1.75659
-1.75822
-1.32545
-1.32505
-1.32519
-1.32572
-1.32662
-1.32787
-1.32947
-1.33139
-1.33362
-1.33614
-1.33892
-1.34196
-1.34523
-1.34873
-1.35244
-1.35634
-1.36042
-1.36466
-1.36906
-1.3736
-1.37827
-1.38306
-1.38795
-1.39294
-1.39801
-1.40317
-1.40839
-1.41367
-1.41901
-1.42438
-1.4298
-1.43524
-1.44071
-1.44619
-1.45168
-1.45718
-1.46268
-1.46818
-1.47366
-1.47913
-1.48458
-1.49001
-1.49541
-1.50079
-1.50613
-1.51144
-1.51671
-1.52194
-1.52713
-1.53227
-1.53737
-1.54242
-1.54742
-1.55237
-1.55726
-1.5621