/*--------------------------------*- C++ -*----------------------------------*\
  =========                 |
  \\      /  F ield         | OpenFOAM: The Open Source CFD Toolbox
   \\    /   O peration     | Website:  https://openfoam.org
    \\  /    A nd           | Version:  8
     \\/     M anipulation  |
\*---------------------------------------------------------------------------*/
FoamFile
{
    version     2.0;
    format      ascii;
    class       volVectorField;
    location    "0.01943";
    object      U;
}
// * * * * * * * * * * * * * * * * * * * * * * * * * * * * * * * * * * * * * //

dimensions      [0 1 -1 0 0 0 0];

internalField   nonuniform List<vector> 
112355
(
(14.9999 3.17374e-06 -2.55535e-24)
(15 4.97798e-07 -5.91155e-23)
(14.9999 3.1296e-06 -3.14044e-22)
(14.9998 8.81655e-06 9.42761e-23)
(14.9998 1.52614e-05 1.67043e-21)
(14.9998 2.11932e-05 -1.73968e-21)
(14.9998 2.62351e-05 -6.75573e-23)
(14.9997 3.13488e-05 7.14249e-22)
(14.9997 3.68325e-05 2.30791e-21)
(14.9997 4.27844e-05 -3.88621e-21)
(14.9997 4.85262e-05 -1.05344e-22)
(14.9997 5.42808e-05 7.08459e-21)
(14.9997 6.03228e-05 4.7714e-21)
(14.9997 6.6217e-05 5.16091e-21)
(14.9997 7.22708e-05 4.74498e-21)
(14.9997 7.82603e-05 8.14476e-21)
(14.9997 8.42431e-05 -6.24048e-21)
(14.9997 9.0522e-05 1.13055e-20)
(14.9997 9.65713e-05 -8.57085e-21)
(14.9997 0.000102584 -1.30046e-20)
(14.9997 0.000108658 -2.38867e-20)
(14.9997 0.00011487 -1.03867e-20)
(14.9997 0.000120849 -1.09292e-20)
(14.9997 0.000127038 -6.39157e-21)
(14.9997 0.000133034 5.56258e-21)
(14.9997 0.000139268 1.24731e-20)
(14.9997 0.000145361 -1.98686e-20)
(14.9997 0.000151335 2.68779e-20)
(14.9997 0.000157428 -1.87984e-22)
(14.9997 0.000163519 1.43056e-20)
(14.9997 0.000169638 1.42904e-20)
(14.9997 0.000175543 1.77132e-22)
(14.9997 0.000181484 1.48838e-20)
(14.9997 0.00018745 1.54783e-20)
(14.9997 0.000193115 -1.56916e-20)
(14.9997 0.000198986 1.7714e-22)
(14.9997 0.000204695 -2.47534e-20)
(14.9997 0.000210425 1.60216e-20)
(14.9997 0.000216335 -6.95283e-21)
(14.9997 0.000221836 3.26526e-20)
(14.9997 0.000227529 -3.27951e-20)
(14.9997 0.000233028 2.6361e-20)
(14.9997 0.000238348 6.3279e-21)
(14.9997 0.000243729 -1.58801e-22)
(14.9997 0.000249144 1.6516e-20)
(14.9997 0.00025431 5.53027e-21)
(14.9997 0.000259712 1.62779e-20)
(14.9997 0.000264901 -2.72344e-20)
(14.9997 0.000269789 -1.62797e-20)
(14.9997 0.000274897 3.88963e-20)
(14.9997 0.000279727 1.16646e-20)
(14.9997 0.000284674 3.15375e-20)
(14.9997 0.000289396 3.12587e-20)
(14.9997 0.000294277 -1.20118e-20)
(14.9997 0.000298868 -1.22895e-20)
(14.9997 0.000303369 -1.51039e-20)
(14.9997 0.000307842 -2.98243e-20)
(14.9998 0.00031234 1.25742e-20)
(14.9998 0.000316529 1.46034e-20)
(14.9998 0.000320872 -1.43702e-20)
(14.9998 0.000325072 1.41383e-20)
(14.9998 0.000328971 -1.04995e-22)
(14.9998 0.000333049 1.36184e-20)
(14.9998 0.000336899 -1.06938e-22)
(14.9998 0.000340783 1.30666e-20)
(14.9998 0.000344567 -2.63444e-20)
(14.9998 0.000348106 0)
(14.9998 0.000351883 -1.21073e-20)
(14.9998 0.00035537 1.18107e-20)
(14.9998 0.000358717 1.14955e-20)
(14.9998 0.000361997 2.52408e-20)
(14.9998 0.000365189 -1.40637e-20)
(14.9998 0.00036824 -2.12059e-20)
(14.9998 0.000371231 2.46649e-20)
(14.9998 0.000374307 -2.89161e-20)
(14.9998 0.000377186 1.44075e-20)
(14.9999 0.00037976 3.30386e-20)
(14.9999 0.000382616 -5.91702e-21)
(14.9999 0.000385136 0)
(14.9999 0.000387608 0)
(14.9999 0.000389843 0)
(14.9999 0.000392221 -7.36018e-21)
(14.9999 0.000394432 0)
(14.9999 0.000396622 -8.47131e-21)
(14.9999 0.000398534 3.02112e-20)
(14.9999 0.000400334 1.1822e-20)
(14.9999 0.000402293 -5.13504e-20)
(14.9999 0.000403952 1.02333e-20)
(14.9999 0.000405561 1.07147e-20)
(14.9999 0.000407076 -1.54116e-20)
(14.9999 0.000408569 -3.91654e-21)
(14.9999 0.00040997 3.51948e-21)
(15 0.000411163 3.07429e-21)
(15 0.000412273 2.85514e-20)
(15 0.000413227 3.35933e-20)
(15 0.000414176 -1.38062e-20)
(15 0.000414967 -3.14616e-20)
(15 0.00041576 0)
(15 0.00041633 6.2389e-22)
(15 0.000416847 1.58255e-20)
(15 0.000417281 -1.9936e-22)
(15 0.000417633 -1.52177e-20)
(15 0.000417931 0)
(15 0.000418005 3.16915e-20)
(15 0.00041808 -7.50865e-21)
(15 0.000417994 -1.35203e-20)
(15 0.000417901 -5.44148e-21)
(15 0.00041765 -1.58145e-20)
(15.0001 0.000417312 -1.93686e-20)
(15.0001 0.00041676 7.95086e-21)
(15.0001 0.000416112 4.33821e-21)
(15.0001 0.000415439 1.58051e-20)
(15.0001 0.000414667 -5.27761e-21)
(15.0001 0.00041384 1.58255e-20)
(15.0001 0.000412701 -1.21663e-20)
(15.0001 0.000411722 -9.1024e-21)
(15.0001 0.000410625 -2.26044e-20)
(15.0001 0.000409235 7.39437e-21)
(15.0001 0.000407818 3.8971e-20)
(15.0001 0.000406223 -2.36e-20)
(15.0001 0.000404772 -1.54563e-20)
(15.0001 0.000403069 1.76931e-20)
(15.0001 0.00040131 1.5449e-20)
(15.0002 0.000399191 5.69313e-21)
(15.0002 0.000397365 -5.07426e-20)
(15.0002 0.000395209 1.05501e-20)
(15.0002 0.000392838 4.3018e-21)
(15.0002 0.000390551 -3.02821e-20)
(15.0002 0.000388193 3.82999e-20)
(15.0002 0.000385677 2.99292e-21)
(15.0002 0.00038306 -1.49143e-20)
(15.0002 0.000380362 -1.03241e-20)
(15.0002 0.000377506 2.77618e-20)
(15.0002 0.000374329 -2.81163e-20)
(15.0002 0.0003714 1.27491e-20)
(15.0002 0.000368194 1.4631e-20)
(15.0002 0.000364872 1.44293e-20)
(15.0002 0.000361575 -2.91288e-20)
(15.0002 0.00035802 -4.35891e-20)
(15.0003 0.000354648 1.38711e-22)
(15.0003 0.000350936 1.4059e-20)
(15.0003 0.000347055 0)
(15.0003 0.00034333 1.61612e-20)
(15.0003 0.000339254 0)
(15.0003 0.00033519 -1.37338e-20)
(15.0003 0.000331081 1.71035e-20)
(15.0003 0.000326858 -3.84335e-21)
(15.0003 0.000322298 1.74143e-20)
(15.0003 0.000317899 1.32189e-20)
(15.0003 0.000313232 -3.57738e-20)
(15.0003 0.00030868 -7.69004e-21)
(15.0003 0.000303798 5.57072e-21)
(15.0003 0.000299147 3.09521e-20)
(15.0003 0.000294137 -6.16516e-21)
(15.0003 0.000288865 0)
(15.0003 0.000283842 6.55713e-21)
(15.0003 0.000278514 3.08241e-20)
(15.0003 0.000273204 3.01095e-20)
(15.0003 0.000267943 -3.0161e-20)
(15.0004 0.000262452 7.50906e-21)
(15.0004 0.000256714 1.94474e-22)
(15.0004 0.000251174 1.06839e-20)
(15.0004 0.000245134 -1.06332e-20)
(15.0004 0.000239276 2.10137e-20)
(15.0004 0.000233414 1.24146e-21)
(15.0004 0.000227335 -3.78767e-20)
(15.0004 0.00022147 -9.42594e-21)
(15.0004 0.000215218 -8.53145e-21)
(15.0004 0.000208964 -2.11248e-22)
(15.0004 0.000202721 2.26971e-22)
(15.0004 0.000196187 8.27381e-21)
(15.0004 0.00018965 3.53703e-25)
(15.0004 0.000183071 -4.80645e-20)
(15.0004 0.000176599 2.44195e-20)
(15.0004 0.000169942 -2.35549e-20)
(15.0004 0.00016307 2.15647e-20)
(15.0004 0.000156444 -2.08847e-20)
(15.0004 0.000149534 1.74343e-21)
(15.0004 0.000142837 1.87415e-20)
(15.0004 0.000135797 -1.67444e-21)
(15.0004 0.000128877 -1.1787e-20)
(15.0004 0.000121977 1.1078e-20)
(15.0004 0.000114971 4.09856e-21)
(15.0004 0.000107609 -5.41467e-21)
(15.0004 0.000100558 -2.07709e-20)
(15.0004 9.34281e-05 9.46976e-21)
(15.0004 8.61404e-05 -6.93604e-21)
(15.0004 7.89806e-05 3.65994e-21)
(15.0004 7.15432e-05 7.60646e-21)
(15.0004 6.44001e-05 -3.04055e-21)
(15.0004 5.71744e-05 9.48552e-22)
(15.0004 4.95679e-05 3.27373e-21)
(15.0003 4.25062e-05 -3.61135e-21)
(15.0003 3.58728e-05 2.11993e-21)
(15.0003 2.9226e-05 9.48846e-22)
(15.0003 2.11795e-05 1.34848e-21)
(15.0002 1.2213e-05 -6.61746e-22)
(15.0001 4.35717e-06 -4.59891e-22)
(14.9999 4.82332e-07 2.57684e-22)
(15.0002 4.6829e-06 -3.41522e-23)
(14.9986 7.47292e-06 2.53691e-23)
(14.9994 2.15992e-05 -2.96499e-22)
(14.9997 7.11695e-06 -6.78496e-23)
(14.9996 1.18366e-05 -1.15248e-21)
(14.9994 2.85092e-05 1.61772e-21)
(14.9993 4.89439e-05 -1.2243e-21)
(14.9993 6.7028e-05 -2.71059e-21)
(14.9992 8.27917e-05 1.05454e-22)
(14.9992 9.82534e-05 9.85424e-22)
(14.9992 0.000115152 2.40919e-22)
(14.9992 0.000132485 -3.5658e-21)
(14.9991 0.000149838 1.97668e-21)
(14.9991 0.00016751 6.20131e-21)
(14.9991 0.000185136 -4.33248e-21)
(14.9991 0.000203187 1.84251e-20)
(14.9991 0.000221306 1.69153e-21)
(14.9991 0.000239366 -1.29092e-20)
(14.9991 0.000257835 -1.87249e-21)
(14.9991 0.000276184 9.00867e-21)
(14.999 0.000294567 -4.04387e-23)
(14.999 0.000312986 -5.07063e-21)
(14.999 0.000331642 -1.81906e-20)
(14.999 0.000350014 -1.32182e-20)
(14.999 0.000368658 -4.18156e-23)
(14.999 0.000387044 -6.36821e-21)
(14.999 0.000405689 1.32253e-20)
(14.999 0.000424357 5.64841e-22)
(14.999 0.000442767 4.52118e-22)
(14.999 0.000461142 -8.20495e-21)
(14.999 0.000479596 -7.88495e-21)
(14.999 0.000497949 8.00789e-21)
(14.999 0.000516132 4.20841e-22)
(14.999 0.000534333 -2.63137e-20)
(14.999 0.000552472 7.05712e-20)
(14.999 0.000570216 9.43981e-21)
(14.999 0.000588064 1.77992e-20)
(14.999 0.000605595 -1.95582e-20)
(14.9991 0.00062311 -3.50867e-22)
(14.9991 0.000640867 1.84868e-20)
(14.9991 0.000657946 4.64212e-20)
(14.9991 0.000675203 2.94e-20)
(14.9991 0.000692129 -3.86326e-21)
(14.9991 0.000708728 1.82272e-20)
(14.9991 0.000725263 0)
(14.9991 0.000741754 6.67779e-21)
(14.9991 0.00075783 -1.18038e-20)
(14.9991 0.000774119 4.16264e-20)
(14.9991 0.000789868 -2.33522e-20)
(14.9991 0.000805183 -4.22469e-20)
(14.9992 0.00082069 1.21992e-20)
(14.9992 0.000835876 1.77247e-20)
(14.9992 0.000850844 8.90984e-21)
(14.9992 0.00086542 5.97752e-20)
(14.9992 0.000880201 3.01375e-20)
(14.9992 0.000894376 -1.41385e-22)
(14.9992 0.000908374 1.01833e-20)
(14.9992 0.000922225 -1.32862e-20)
(14.9993 0.000935781 -2.73214e-20)
(14.9993 0.000948942 4.51032e-20)
(14.9993 0.000962154 3.10229e-20)
(14.9993 0.000974931 1.17502e-21)
(14.9993 0.000987301 0)
(14.9993 0.00099972 1.46324e-20)
(14.9993 0.00101169 -1.43211e-20)
(14.9994 0.00102349 2.83789e-20)
(14.9994 0.00103497 8.21431e-23)
(14.9994 0.00104621 -1.05312e-22)
(14.9994 0.00105741 -2.76216e-20)
(14.9994 0.00106811 -2.97329e-20)
(14.9994 0.00107848 6.25408e-24)
(14.9995 0.00108856 2.99304e-20)
(14.9995 0.00109852 3.02939e-20)
(14.9995 0.00110807 -1.51832e-20)
(14.9995 0.00111727 6.60971e-21)
(14.9995 0.00112651 -1.53173e-20)
(14.9995 0.0011353 -2.57053e-20)
(14.9996 0.00114361 9.87014e-21)
(14.9996 0.00115208 1.55706e-20)
(14.9996 0.00115993 2.47956e-20)
(14.9996 0.00116752 -8.69455e-21)
(14.9996 0.00117465 2.41008e-20)
(14.9996 0.00118178 7.95863e-21)
(14.9997 0.00118856 -3.94038e-20)
(14.9997 0.00119514 -1.60386e-20)
(14.9997 0.00120116 1.60545e-20)
(14.9997 0.00120689 2.87379e-20)
(14.9997 0.00121259 -3.69031e-24)
(14.9998 0.0012179 1.62362e-20)
(14.9998 0.00122279 4.01492e-23)
(14.9998 0.00122747 -2.09763e-20)
(14.9998 0.00123204 -2.05729e-20)
(14.9998 0.00123612 -3.66472e-20)
(14.9999 0.00123981 2.95998e-20)
(14.9999 0.00124318 3.30884e-20)
(14.9999 0.00124631 7.36421e-21)
(14.9999 0.00124935 6.07562e-21)
(14.9999 0.00125183 -1.82609e-20)
(14.9999 0.00125417 -1.66983e-20)
(15 0.00125591 -5.51537e-24)
(15 0.00125751 1.651e-20)
(15 0.00125884 1.65886e-20)
(15 0.0012599 -5.01031e-24)
(15 0.00126081 -1.67855e-20)
(15.0001 0.00126113 -3.36032e-20)
(15.0001 0.00126129 1.2865e-20)
(15.0001 0.00126089 1.43127e-20)
(15.0001 0.0012604 -1.96011e-20)
(15.0001 0.00125965 -3.11259e-23)
(15.0002 0.00125858 1.30199e-20)
(15.0002 0.0012571 3.34501e-20)
(15.0002 0.00125511 -3.81178e-20)
(15.0002 0.00125301 -1.66301e-20)
(15.0002 0.00125068 -3.14061e-23)
(15.0003 0.0012479 6.01741e-21)
(15.0003 0.00124472 3.7747e-21)
(15.0003 0.0012415 1.37138e-20)
(15.0003 0.00123796 -1.66229e-20)
(15.0003 0.00123383 7.78248e-21)
(15.0004 0.00122947 1.71088e-22)
(15.0004 0.00122475 -8.60432e-21)
(15.0004 0.00121999 4.20096e-20)
(15.0004 0.00121476 -1.29619e-22)
(15.0004 0.00120921 -3.26829e-20)
(15.0005 0.00120301 -2.6688e-20)
(15.0005 0.00119696 5.81743e-23)
(15.0005 0.00119037 3.84651e-20)
(15.0005 0.0011833 -1.1563e-20)
(15.0005 0.00117624 1.61927e-20)
(15.0006 0.00116878 2.46792e-20)
(15.0006 0.00116088 -2.87344e-20)
(15.0006 0.00115281 -3.20019e-20)
(15.0006 0.00114441 4.56265e-20)
(15.0006 0.00113562 3.12941e-20)
(15.0007 0.00112627 -1.41364e-20)
(15.0007 0.00111685 -1.76438e-22)
(15.0007 0.00110713 -3.03847e-22)
(15.0007 0.00109703 -1.56028e-20)
(15.0007 0.00108673 -4.67397e-20)
(15.0007 0.00107589 8.8547e-22)
(15.0008 0.00106508 4.83896e-20)
(15.0008 0.00105378 3.19643e-20)
(15.0008 0.00104197 -2.07092e-21)
(15.0008 0.00103017 -1.37328e-22)
(15.0008 0.0010179 3.06667e-21)
(15.0009 0.00100525 0)
(15.0009 0.000992402 3.76334e-21)
(15.0009 0.00097931 1.47454e-20)
(15.0009 0.000965493 1.41508e-20)
(15.0009 0.000951858 -2.85217e-20)
(15.0009 0.00093773 -5.17855e-21)
(15.0009 0.000923305 1.37289e-20)
(15.001 0.000908464 6.24026e-21)
(15.001 0.000893782 2.65415e-20)
(15.001 0.000878551 -2.01627e-20)
(15.001 0.000862646 2.67287e-20)
(15.001 0.000846917 -2.07978e-20)
(15.001 0.000830652 3.41575e-20)
(15.001 0.000814267 -3.42224e-20)
(15.0011 0.000797738 8.82063e-21)
(15.0011 0.00078076 2.06217e-20)
(15.0011 0.000763322 3.01994e-20)
(15.0011 0.000746014 1.18991e-20)
(15.0011 0.000727834 9.14037e-21)
(15.0011 0.000709851 1.19127e-20)
(15.0011 0.000691762 1.09207e-20)
(15.0011 0.00067321 -3.18012e-20)
(15.0011 0.000654686 -3.15815e-20)
(15.0011 0.000635598 1.08391e-20)
(15.0012 0.000616331 -1.03726e-20)
(15.0012 0.000596982 2.51973e-22)
(15.0012 0.000577317 -1.01829e-20)
(15.0012 0.000557415 -5.77259e-20)
(15.0012 0.000537491 4.22742e-22)
(15.0012 0.000517398 2.7905e-20)
(15.0012 0.00049686 1.87415e-20)
(15.0012 0.000476213 1.54795e-20)
(15.0012 0.000455743 -4.15714e-20)
(15.0012 0.000434806 1.64398e-20)
(15.0012 0.000414054 8.79526e-21)
(15.0012 0.000392781 1.52469e-20)
(15.0012 0.000371638 1.20315e-20)
(15.0012 0.000350357 -7.90809e-21)
(15.0012 0.000328932 -5.3333e-21)
(15.0012 0.000307158 -1.64176e-20)
(15.0012 0.000285693 -1.27898e-20)
(15.0012 0.000263939 -4.43885e-21)
(15.0012 0.000242038 -1.19027e-20)
(15.0012 0.000220443 2.80667e-21)
(15.0011 0.00019854 -2.57105e-21)
(15.0011 0.000176782 2.37087e-21)
(15.0011 0.000154751 -1.51326e-22)
(15.0011 0.000133053 -3.14123e-21)
(15.001 0.000113056 2.21791e-21)
(15.001 9.23029e-05 6.32267e-21)
(15.0009 6.78035e-05 -5.36387e-22)
(15.0008 3.94866e-05 -9.10724e-23)
(15.0005 1.61679e-05 -1.6048e-21)
(15.0004 1.00738e-05 8.61133e-22)
(15.0008 3.10985e-05 -1.45682e-22)
(15.002 1.11117e-05 -1.27072e-22)
(14.9973 6.85641e-06 3.27085e-23)
(14.9987 4.14107e-05 4.32926e-23)
(14.9993 3.27455e-05 2.27405e-22)
(14.9994 2.47272e-05 -6.87418e-22)
(14.9991 3.75208e-05 -6.86893e-22)
(14.9989 6.74257e-05 2.91118e-21)
(14.9988 0.000100715 -7.69314e-22)
(14.9988 0.000130151 0)
(14.9987 0.00015655 -6.27146e-21)
(14.9987 0.000183754 1.00804e-20)
(14.9986 0.000212298 -9.20504e-21)
(14.9986 0.000241326 2.09808e-21)
(14.9985 0.000270522 2.26924e-21)
(14.9985 0.000299889 -9.34422e-21)
(14.9985 0.000329835 7.31796e-21)
(14.9985 0.000359976 3.63778e-21)
(14.9984 0.000390105 -1.85191e-20)
(14.9984 0.000420656 -1.96691e-20)
(14.9984 0.000451189 6.11929e-21)
(14.9984 0.000481896 6.64361e-21)
(14.9984 0.000512757 2.38342e-20)
(14.9984 0.00054374 5.61006e-21)
(14.9984 0.000574698 7.49826e-21)
(14.9984 0.000605833 -1.39942e-20)
(14.9984 0.000636687 6.61916e-21)
(14.9984 0.000667771 -2.97363e-20)
(14.9984 0.000698958 3.06938e-20)
(14.9984 0.0007298 7.33024e-21)
(14.9984 0.000760542 7.84061e-21)
(14.9984 0.00079146 -7.99076e-21)
(14.9984 0.000822107 -1.70709e-20)
(14.9984 0.000852741 2.58608e-20)
(14.9984 0.000883311 -4.38536e-20)
(14.9984 0.000913743 -2.72765e-20)
(14.9984 0.000943725 3.6867e-20)
(14.9984 0.000973809 3.59495e-20)
(14.9984 0.00100339 1.81254e-20)
(14.9984 0.00103284 -1.01029e-20)
(14.9984 0.00106245 7.89993e-21)
(14.9984 0.00109139 -3.6729e-20)
(14.9984 0.0011202 4.7652e-20)
(14.9985 0.00114884 1.11275e-20)
(14.9985 0.00117697 1.84022e-20)
(14.9985 0.00120509 1.83903e-20)
(14.9985 0.00123289 0)
(14.9985 0.00126006 -1.17708e-20)
(14.9985 0.00128728 5.49115e-21)
(14.9986 0.00131395 3.06458e-20)
(14.9986 0.00134015 -2.4911e-20)
(14.9986 0.0013662 -1.78556e-20)
(14.9986 0.00139197 2.27529e-20)
(14.9986 0.00141741 -3.04428e-20)
(14.9986 0.00144206 -2.17419e-20)
(14.9987 0.00146682 4.75181e-20)
(14.9987 0.00149096 1.32455e-20)
(14.9987 0.00151484 1.68714e-20)
(14.9987 0.00153815 3.58174e-20)
(14.9987 0.00156113 2.57943e-21)
(14.9988 0.00158366 -2.77144e-20)
(14.9988 0.0016059 2.9587e-20)
(14.9988 0.00162762 4.38307e-20)
(14.9988 0.00164873 1.51729e-20)
(14.9989 0.00166968 1.42833e-20)
(14.9989 0.00169017 1.02184e-22)
(14.9989 0.00171011 -4.32139e-20)
(14.9989 0.00172959 2.7954e-20)
(14.999 0.00174873 1.47288e-20)
(14.999 0.00176745 1.34103e-20)
(14.999 0.00178564 -2.80456e-20)
(14.999 0.00180329 -1.78775e-23)
(14.9991 0.00182052 2.84736e-21)
(14.9991 0.00183747 -1.51333e-20)
(14.9991 0.00185387 -1.92434e-20)
(14.9992 0.00186955 2.66285e-20)
(14.9992 0.00188492 2.64084e-20)
(14.9992 0.00189999 -1.04627e-20)
(14.9992 0.00191441 -1.00814e-20)
(14.9993 0.0019284 -3.51092e-20)
(14.9993 0.00194184 6.47424e-21)
(14.9993 0.00195483 -8.74907e-21)
(14.9994 0.00196708 -3.20486e-20)
(14.9994 0.00197912 4.01861e-20)
(14.9994 0.00199069 8.45819e-22)
(14.9995 0.00200179 -3.24264e-20)
(14.9995 0.00201206 -5.41831e-23)
(14.9995 0.00202195 3.98418e-23)
(14.9996 0.00203149 -2.24295e-20)
(14.9996 0.00204061 1.6426e-20)
(14.9996 0.00204902 2.78419e-20)
(14.9997 0.002057 4.77187e-21)
(14.9997 0.00206453 4.27214e-21)
(14.9997 0.0020714 2.22903e-23)
(14.9997 0.0020778 -2.01461e-20)
(14.9998 0.00208364 -3.0513e-20)
(14.9998 0.00208906 -1.68273e-20)
(14.9998 0.00209413 5.04943e-20)
(14.9999 0.00209837 1.52423e-20)
(14.9999 0.00210215 -1.69025e-20)
(14.9999 0.00210526 1.61985e-20)
(15 0.00210811 2.89241e-22)
(15 0.00211037 -1.71623e-20)
(15 0.00211202 6.32455e-22)
(15.0001 0.00211342 0)
(15.0001 0.00211414 1.53639e-21)
(15.0001 0.0021144 -1.50032e-20)
(15.0002 0.0021138 -2.43665e-21)
(15.0002 0.00211285 1.98932e-20)
(15.0003 0.00211146 -2.37115e-20)
(15.0003 0.00210949 -1.69442e-20)
(15.0003 0.00210704 1.10038e-24)
(15.0004 0.00210389 -1.44123e-23)
(15.0004 0.00210028 3.38642e-20)
(15.0004 0.00209621 1.68279e-20)
(15.0005 0.00209138 -1.68452e-20)
(15.0005 0.00208611 1.68645e-20)
(15.0005 0.00208045 2.37697e-20)
(15.0006 0.00207439 -3.36508e-20)
(15.0006 0.00206744 -2.56097e-20)
(15.0006 0.00205998 8.44458e-21)
(15.0007 0.002052 4.21217e-20)
(15.0007 0.00204378 9.11639e-21)
(15.0007 0.00203475 -2.62155e-20)
(15.0008 0.00202523 0)
(15.0008 0.00201509 1.65823e-20)
(15.0008 0.00200446 2.73833e-20)
(15.0009 0.00199312 -1.64627e-20)
(15.0009 0.00198142 -1.63392e-20)
(15.0009 0.00196935 1.63742e-20)
(15.0009 0.00195648 -2.52972e-20)
(15.001 0.00194298 -1.61652e-20)
(15.001 0.00192914 1.61923e-20)
(15.001 0.0019148 2.98859e-20)
(15.0011 0.00189983 -4.44946e-20)
(15.0011 0.00188425 -1.27449e-21)
(15.0011 0.00186815 -1.40855e-20)
(15.0012 0.00185165 1.52586e-20)
(15.0012 0.00183458 -3.13927e-20)
(15.0012 0.00181686 1.56775e-20)
(15.0013 0.00179858 3.19574e-20)
(15.0013 0.00178006 1.68528e-20)
(15.0013 0.00176081 -1.36424e-20)
(15.0013 0.00174093 -1.50285e-20)
(15.0014 0.00172064 4.80529e-20)
(15.0014 0.0016998 -1.45348e-22)
(15.0014 0.00167851 -1.48329e-20)
(15.0015 0.00165652 0)
(15.0015 0.00163416 3.80374e-20)
(15.0015 0.00161102 -3.86091e-20)
(15.0015 0.00158792 0)
(15.0016 0.00156385 1.98084e-20)
(15.0016 0.00153931 -2.0045e-20)
(15.0016 0.00151436 1.40764e-20)
(15.0016 0.00148915 6.36205e-21)
(15.0017 0.0014633 2.78291e-20)
(15.0017 0.00143672 -1.90994e-22)
(15.0017 0.00141008 -4.16511e-20)
(15.0017 0.00138261 1.30449e-20)
(15.0017 0.00135466 -5.03957e-20)
(15.0018 0.00132658 3.38891e-20)
(15.0018 0.00129777 -2.12488e-20)
(15.0018 0.00126865 -1.23801e-20)
(15.0018 0.00123924 -2.10757e-20)
(15.0018 0.0012089 9.06163e-21)
(15.0019 0.0011786 3.34576e-20)
(15.0019 0.00114801 -1.02839e-20)
(15.0019 0.00111667 -5.43503e-20)
(15.0019 0.00108528 -4.15305e-20)
(15.0019 0.0010532 3.12294e-20)
(15.0019 0.00102077 -4.09707e-20)
(15.0019 0.000988079 0)
(15.002 0.000955189 -2.9776e-20)
(15.002 0.000921774 -9.76869e-21)
(15.002 0.00088837 3.71405e-20)
(15.002 0.000854631 -1.87155e-20)
(15.002 0.000820249 2.80315e-20)
(15.002 0.000785759 -3.38472e-20)
(15.002 0.000751311 1.73568e-20)
(15.002 0.000716265 2.36532e-20)
(15.002 0.000681171 2.28826e-20)
(15.002 0.00064577 2.15727e-20)
(15.002 0.000610227 1.9286e-21)
(15.002 0.000574573 3.81242e-22)
(15.002 0.000538824 -7.84371e-21)
(15.002 0.000502713 7.1103e-21)
(15.002 0.000466779 0)
(15.002 0.000430465 -1.41463e-20)
(15.0019 0.000394004 1.82846e-20)
(15.0019 0.000357882 -8.27878e-21)
(15.0019 0.000321544 -4.07574e-21)
(15.0019 0.000284956 2.07462e-21)
(15.0018 0.000248535 -1.43758e-20)
(15.0018 0.000213518 1.83249e-21)
(15.0017 0.000179055 4.58806e-21)
(15.0016 0.000139611 7.35581e-22)
(15.0015 9.38957e-05 9.27355e-23)
(15.0012 5.23251e-05 -9.9213e-22)
(15.0009 3.48925e-05 4.04302e-22)
(15.0009 4.74758e-05 -5.63671e-23)
(15.0019 5.99932e-05 -5.85684e-22)
(15.0039 1.0292e-05 3.20321e-23)
(14.9963 8.37141e-06 -2.66824e-23)
(14.9978 5.10821e-05 1.85338e-22)
(14.9987 6.43022e-05 0)
(14.999 5.12265e-05 0)
(14.9988 4.96288e-05 -3.57231e-22)
(14.9986 7.75127e-05 -5.72979e-22)
(14.9984 0.00012273 -1.28229e-21)
(14.9983 0.000168033 -6.51033e-22)
(14.9982 0.000207738 -2.13953e-21)
(14.9981 0.000245722 3.49059e-21)
(14.9981 0.000284923 -2.51528e-21)
(14.998 0.00032539 -2.25038e-21)
(14.998 0.000366292 -3.61704e-21)
(14.9979 0.000407602 2.25794e-23)
(14.9979 0.000449438 -1.52824e-20)
(14.9979 0.000491555 1.17462e-20)
(14.9978 0.000533866 3.82147e-21)
(14.9978 0.000576578 5.90416e-21)
(14.9978 0.000619502 -1.52264e-20)
(14.9978 0.000662611 6.649e-21)
(14.9978 0.000705796 -2.42743e-20)
(14.9977 0.000749265 2.09453e-22)
(14.9977 0.000792823 5.59839e-21)
(14.9977 0.000836638 -7.40004e-21)
(14.9977 0.000880128 1.41938e-20)
(14.9977 0.000923799 2.06407e-22)
(14.9977 0.000967563 -2.97714e-20)
(14.9977 0.0010111 -1.60091e-20)
(14.9977 0.00105439 7.94321e-21)
(14.9977 0.001098 3.09099e-23)
(14.9977 0.00114133 0)
(14.9977 0.00118448 1.72608e-20)
(14.9977 0.0012275 2.63552e-20)
(14.9977 0.00127039 -1.76508e-20)
(14.9977 0.0013129 -1.89663e-20)
(14.9977 0.0013553 -1.8298e-20)
(14.9978 0.00139728 -1.80832e-20)
(14.9978 0.00143907 -1.86012e-20)
(14.9978 0.00148076 2.39342e-21)
(14.9978 0.00152172 -3.70133e-20)
(14.9978 0.00156251 -2.96642e-20)
(14.9978 0.00160294 7.62091e-21)
(14.9979 0.00164284 7.24584e-21)
(14.9979 0.0016827 1.1472e-20)
(14.9979 0.00172213 1.87636e-20)
(14.9979 0.00176072 -1.5924e-22)
(14.9979 0.00179922 1.21788e-20)
(14.998 0.00183707 3.67526e-20)
(14.998 0.00187446 1.82311e-20)
(14.998 0.0019114 -1.25717e-20)
(14.998 0.00194796 1.78031e-20)
(14.9981 0.00198391 -9.66291e-21)
(14.9981 0.0020193 -1.2953e-20)
(14.9981 0.00205435 -1.35077e-20)
(14.9981 0.00208866 1.35217e-20)
(14.9982 0.00212259 2.05137e-20)
(14.9982 0.00215565 -1.37728e-20)
(14.9982 0.00218839 3.03381e-20)
(14.9983 0.00222057 -2.23343e-21)
(14.9983 0.00225213 -4.61173e-20)
(14.9983 0.00228308 -1.43034e-20)
(14.9984 0.00231332 1.43458e-20)
(14.9984 0.0023431 1.45778e-20)
(14.9984 0.00237219 4.39923e-20)
(14.9985 0.00240064 -1.44909e-20)
(14.9985 0.00242855 -2.99232e-20)
(14.9985 0.00245572 1.08799e-21)
(14.9986 0.00248227 1.36039e-20)
(14.9986 0.0025083 -1.51168e-20)
(14.9987 0.00253363 1.28248e-20)
(14.9987 0.00255828 3.07473e-20)
(14.9987 0.00258223 2.44808e-20)
(14.9988 0.00260564 -4.29346e-20)
(14.9988 0.00262814 -2.71427e-20)
(14.9989 0.00264999 1.57038e-20)
(14.9989 0.00267147 5.16988e-21)
(14.9989 0.00269215 1.58571e-20)
(14.999 0.00271198 6.09484e-21)
(14.999 0.00273111 -1.90411e-20)
(14.9991 0.00274969 2.12449e-21)
(14.9991 0.00276741 -3.36678e-20)
(14.9991 0.00278455 2.41884e-20)
(14.9992 0.00280098 -8.30934e-21)
(14.9992 0.00281677 -4.9274e-20)
(14.9993 0.00283158 9.42181e-21)
(14.9993 0.00284581 3.30851e-20)
(14.9994 0.00285935 3.27924e-23)
(14.9994 0.00287228 1.08435e-20)
(14.9995 0.00288438 -1.66206e-20)
(14.9995 0.0028958 -4.54705e-20)
(14.9996 0.00290637 4.42642e-21)
(14.9996 0.0029163 3.50568e-24)
(14.9996 0.00292563 1.69138e-20)
(14.9997 0.00293404 1.69788e-20)
(14.9997 0.00294173 9.13526e-21)
(14.9998 0.00294877 1.27318e-20)
(14.9998 0.00295483 -1.53812e-20)
(14.9999 0.00296024 -1.71426e-20)
(14.9999 0.00296477 -1.71645e-20)
(15 0.00296892 -1.68834e-20)
(15 0.00297213 5.15002e-20)
(15.0001 0.0029744 1.72114e-20)
(15.0001 0.00297629 -1.829e-20)
(15.0002 0.0029773 -1.72273e-20)
(15.0002 0.00297764 -1.91991e-20)
(15.0003 0.00297697 1.96859e-20)
(15.0003 0.00297565 -4.03266e-20)
(15.0004 0.00297358 -1.71689e-20)
(15.0004 0.00297056 5.5425e-20)
(15.0004 0.00296691 3.43011e-20)
(15.0005 0.00296259 -2.95132e-20)
(15.0005 0.00295738 -6.52662e-21)
(15.0006 0.00295145 -4.88974e-23)
(15.0006 0.00294464 4.00496e-23)
(15.0007 0.00293717 3.41418e-20)
(15.0007 0.00292897 -7.15602e-21)
(15.0008 0.00292013 -2.45432e-20)
(15.0008 0.00291025 -8.97903e-21)
(15.0009 0.00289967 2.55293e-20)
(15.0009 0.00288831 3.37822e-20)
(15.001 0.00287629 0)
(15.001 0.00286335 -1.68517e-20)
(15.0011 0.00284978 -6.49054e-21)
(15.0011 0.00283542 0)
(15.0012 0.00282013 -1.11409e-20)
(15.0012 0.00280393 -1.15761e-20)
(15.0012 0.00278729 -1.19937e-20)
(15.0013 0.0027699 -1.65738e-20)
(15.0013 0.0027515 -1.27519e-20)
(15.0014 0.00273245 1.63645e-20)
(15.0014 0.00271258 -1.6411e-20)
(15.0015 0.00269193 7.63132e-23)
(15.0015 0.00267045 1.79058e-20)
(15.0016 0.00264834 1.47744e-20)
(15.0016 0.00262548 1.24925e-22)
(15.0016 0.00260176 -3.14021e-20)
(15.0017 0.00257735 -1.58107e-20)
(15.0017 0.00255217 0)
(15.0018 0.00252616 -1.86421e-23)
(15.0018 0.00249954 -1.44985e-21)
(15.0019 0.00247206 -3.50624e-20)
(15.0019 0.00244381 5.12202e-20)
(15.0019 0.00241478 1.78328e-20)
(15.002 0.00238502 -6.71213e-20)
(15.002 0.00235479 0)
(15.0021 0.0023235 1.50424e-20)
(15.0021 0.00229166 4.25926e-21)
(15.0021 0.00225888 5.12229e-21)
(15.0022 0.00222559 1.44555e-20)
(15.0022 0.00219154 -2.00925e-20)
(15.0022 0.00215668 0)
(15.0023 0.00212125 1.42101e-20)
(15.0023 0.00208517 -6.86509e-21)
(15.0023 0.00204842 7.06629e-21)
(15.0024 0.00201076 -4.83187e-20)
(15.0024 0.00197286 2.14048e-20)
(15.0024 0.00193383 -2.10546e-22)
(15.0025 0.00189414 -2.1223e-20)
(15.0025 0.00185421 1.27275e-20)
(15.0025 0.00181351 -1.28058e-20)
(15.0025 0.00177219 -1.23909e-20)
(15.0026 0.00173048 4.62429e-20)
(15.0026 0.00168772 1.16531e-20)
(15.0026 0.00164463 9.85572e-21)
(15.0026 0.00160109 -3.30625e-20)
(15.0027 0.00155685 -4.37639e-20)
(15.0027 0.00151223 3.2348e-20)
(15.0027 0.00146693 -1.05693e-20)
(15.0027 0.0014212 2.13555e-22)
(15.0027 0.00137507 9.98977e-21)
(15.0028 0.00132846 0)
(15.0028 0.00128122 3.94606e-20)
(15.0028 0.00123407 -1.93285e-20)
(15.0028 0.00118632 -1.8886e-20)
(15.0028 0.00113798 -3.67342e-20)
(15.0028 0.00108941 -9.58289e-21)
(15.0028 0.00104072 2.49129e-20)
(15.0028 0.00099126 -1.65623e-20)
(15.0028 0.000941739 -7.0191e-21)
(15.0028 0.00089193 -1.49833e-20)
(15.0028 0.000842062 -2.29081e-20)
(15.0028 0.00079185 2.14873e-20)
(15.0028 0.000741411 2.10597e-22)
(15.0028 0.000690754 -2.13574e-22)
(15.0028 0.000640095 1.12132e-20)
(15.0028 0.000589161 1.39644e-20)
(15.0027 0.000538008 5.44331e-21)
(15.0027 0.000486941 1.77501e-21)
(15.0027 0.000435771 -6.932e-21)
(15.0026 0.000384507 -6.42906e-21)
(15.0025 0.00033432 1.55132e-22)
(15.0025 0.000285104 5.9591e-21)
(15.0024 0.000232533 -7.11047e-21)
(15.0022 0.000170958 2.79896e-21)
(15.002 0.000108463 1.05052e-23)
(15.0016 7.00551e-05 0)
(15.0014 7.36143e-05 -4.26868e-22)
(15.0018 9.35979e-05 -5.17857e-22)
(15.0032 7.4338e-05 8.22994e-23)
(15.0054 1.26308e-05 4.44551e-23)
(14.9954 8.85354e-06 -5.06977e-23)
(14.9969 5.46347e-05 -2.56975e-22)
(14.998 9.34023e-05 0)
(14.9985 8.98398e-05 7.15328e-22)
(14.9985 7.44056e-05 3.75191e-22)
(14.9982 8.83538e-05 -9.72527e-22)
(14.9979 0.000135591 -2.06011e-21)
(14.9978 0.00019512 -9.13731e-22)
(14.9977 0.000250496 8.13281e-22)
(14.9976 0.000300968 -4.03223e-21)
(14.9975 0.000350924 6.45574e-21)
(14.9974 0.000402379 -3.38849e-21)
(14.9974 0.00045482 8.55856e-21)
(14.9973 0.000507976 -2.57684e-23)
(14.9973 0.000561615 4.68561e-21)
(14.9972 0.000615797 -3.50969e-21)
(14.9972 0.000670284 1.85039e-20)
(14.9972 0.000725056 1.40323e-20)
(14.9972 0.000780215 -4.21215e-21)
(14.9971 0.000835889 -3.72538e-22)
(14.9971 0.000891666 -6.65554e-21)
(14.9971 0.000947584 -5.65699e-21)
(14.9971 0.00100384 -1.34068e-20)
(14.9971 0.00106026 -6.09341e-21)
(14.9971 0.00111647 -1.46867e-20)
(14.997 0.0011728 2.88105e-20)
(14.997 0.00122937 -8.22042e-21)
(14.997 0.00128575 -1.60027e-20)
(14.997 0.00134182 -1.63805e-20)
(14.997 0.00139834 -2.48007e-20)
(14.997 0.00145441 -8.54383e-21)
(14.9971 0.00151033 0)
(14.9971 0.00156611 -2.6571e-20)
(14.9971 0.00162165 -1.80515e-20)
(14.9971 0.00167691 9.50523e-22)
(14.9971 0.00173198 -8.48643e-21)
(14.9971 0.00178653 -1.85168e-20)
(14.9971 0.00184084 -2.88117e-20)
(14.9971 0.00189481 -1.88955e-20)
(14.9972 0.00194813 3.77358e-20)
(14.9972 0.00200118 -3.12986e-21)
(14.9972 0.00205394 -3.01544e-20)
(14.9972 0.00210593 -7.55948e-21)
(14.9972 0.0021577 1.71751e-22)
(14.9973 0.00220905 -1.54644e-22)
(14.9973 0.00225932 -1.86206e-20)
(14.9973 0.00230933 1.85314e-20)
(14.9974 0.00235885 -1.84402e-20)
(14.9974 0.00240753 1.83604e-20)
(14.9974 0.00245575 1.75978e-22)
(14.9975 0.00250347 1.26875e-20)
(14.9975 0.00255029 1.83902e-20)
(14.9975 0.0025966 4.43004e-21)
(14.9976 0.0026423 -4.24436e-21)
(14.9976 0.00268712 4.03091e-21)
(14.9976 0.00273138 1.7168e-20)
(14.9977 0.00277475 -1.69453e-20)
(14.9977 0.00281745 -1.69796e-20)
(14.9978 0.00285947 3.07779e-20)
(14.9978 0.0029007 0)
(14.9978 0.00294119 -1.60589e-20)
(14.9979 0.00298097 -3.15399e-20)
(14.9979 0.00301988 1.54687e-20)
(14.998 0.00305783 -1.51683e-20)
(14.998 0.00309517 2.97461e-20)
(14.9981 0.00313177 1.49479e-20)
(14.9981 0.00316733 1.43185e-20)
(14.9982 0.00320205 -1.41588e-21)
(14.9982 0.00323608 -1.52774e-20)
(14.9983 0.00326939 -2.64519e-20)
(14.9983 0.00330175 1.2924e-20)
(14.9984 0.00333292 1.23784e-20)
(14.9984 0.00336349 3.69365e-21)
(14.9985 0.00339321 -1.1718e-20)
(14.9985 0.00342195 -6.78981e-21)
(14.9986 0.00344991 -1.08695e-20)
(14.9986 0.00347696 -1.06298e-20)
(14.9987 0.00350302 2.6338e-20)
(14.9987 0.00352817 -3.24326e-20)
(14.9988 0.00355254 -1.23973e-22)
(14.9988 0.00357596 1.65098e-20)
(14.9989 0.00359828 -1.65008e-20)
(14.999 0.00361975 1.61475e-20)
(14.999 0.00364054 -1.52976e-20)