/*--------------------------------*- C++ -*---------------------------------*\ 
| ========                 |                                                 | 
| \      /  F ield         | OpenFOAM: The Open Source CFD Toolbox           | 
|  \    /   O peration     | Version:  v1812                                 | 
|   \  /    A nd           | Web:      www.OpenFOAM.com                      | 
|    \/     M anipulation  |                                                 | 
\*--------------------------------------------------------------------------*/ 
FoamFile
{
    version     2.0;
    format      ascii;
    class       volVectorField;
    location    "/home/james/dafoam/myRuns/bezier_coanda_opt/0.00000000001/";
    object      sens_CL_shapey;
}
// * * * * * * * * * * * * * * * * * * * * * * * * * * * * * * * * * * * * * //

dimensions      [0 0 0 0 0 0 0];
internalField   uniform (0 0 0);
boundaryField
{
    allWalls
    {
        type  wall;
        value nonuniform List<vector>
188
(
(-0.013603 0.005470 0.000238)
(-0.022690 0.007735 0.000248)
(-0.040229 0.022749 0.000247)
(-0.059751 0.036961 0.000246)
(-0.050508 0.039148 0.000246)
(-0.026534 0.026001 0.000245)
(-0.006738 0.015484 0.000244)
(-0.015667 0.028786 0.000243)
(-0.014878 0.028786 0.000242)
(-0.012010 0.027326 0.000241)
(-0.014455 0.037340 0.000241)
(-0.011086 0.032645 0.000240)
(-0.008123 0.028056 0.000431)
(-0.009306 0.035328 0.000628)
(-0.009276 0.039413 0.000636)
(-0.008977 0.043569 0.000645)
(-0.008484 0.047041 0.000655)
(-0.007791 0.050142 0.000664)
(-0.007310 0.055569 0.001257)
(-0.006622 0.061383 0.001966)
(-0.005736 0.067614 0.002215)
(-0.004790 0.078564 0.002473)
(-0.003232 0.082868 0.002734)
(-0.001202 0.105290 0.002988)
(0.001883 0.141276 0.002620)
(0.005957 0.146212 0.001973)
(0.009955 0.144435 0.001630)
(0.014107 0.150314 0.001279)
(0.018121 0.155059 0.000978)
(0.021968 0.159153 0.000727)
(0.025694 0.163312 0.000490)
(0.029300 0.167535 0.000275)
(0.032678 0.171245 0.000112)
(0.035736 0.174152 -0.000079)
(0.038467 0.176330 -0.000188)
(0.041125 0.177584 -0.000167)
(0.043359 0.177816 -0.000146)
(0.044808 0.176899 -0.000189)
(0.045698 0.174529 -0.000248)
(0.046092 0.171016 -0.000200)
(0.046010 0.166408 -0.000147)
(0.045132 0.159561 -0.000147)
(0.043315 0.150016 -0.000193)
(0.041485 0.141049 -0.000193)
(0.041165 0.137615 -0.000147)
(0.038984 0.128145 -0.000065)
(0.028185 0.090964 -0.000090)
(0.028645 0.094881 -0.000185)
(0.040679 0.144369 -0.000175)
(0.004119 -0.022591 -0.000175)
(0.000336 -0.007035 -0.000175)
(-0.002046 0.004576 -0.000175)
(-0.002597 0.005443 -0.000180)
(-0.003406 0.009332 -0.000166)
(-0.005760 0.016264 -0.000147)
(-0.008599 0.023975 -0.000147)
(-0.011611 0.033253 -0.000147)
(-0.014006 0.042367 -0.000147)
(-0.016266 0.053439 -0.000147)
(-0.015233 0.053599 -0.000046)
(-0.005927 0.028532 0.000034)
(0.005913 -0.008704 0.000034)
(0.010430 -0.029725 0.000057)
(0.006315 -0.021727 0.000059)
(0.001259 -0.009149 0.000062)
(-0.001406 -0.000580 0.000147)
(-0.004034 0.013457 0.000151)
(-0.006299 0.028549 0.000073)
(-0.007398 0.040068 0.000246)
(-0.007711 0.049250 0.000445)
(-0.007452 0.056846 0.000501)
(-0.006697 0.062884 0.000557)
(-0.005543 0.067870 0.000598)
(-0.004063 0.072678 0.000653)
(-0.002314 0.075312 0.000653)
(-0.000454 0.078741 0.000641)
(0.001313 0.074402 0.000473)
(0.002024 0.050629 0.000243)
(0.003204 0.046721 0.000183)
(0.003326 0.042192 0.000137)
(0.003830 0.037154 0.000100)
(0.005233 0.042426 0.000071)
(0.004425 0.030174 0.000309)
(0.004514 0.026416 0.000560)
(0.005623 0.028937 0.000560)
(0.005140 0.023987 0.000560)
(0.004676 0.019610 0.000560)
(0.005102 0.019610 0.000561)
(0.005432 0.018976 0.000383)
(0.006595 0.019036 0.000205)
(0.007007 0.015735 0.000208)
(0.007328 0.009704 0.000211)
(0.005409 -0.000346 0.000213)
(0.003273 -0.006542 0.000216)
(0.007370 0.001888 0.000218)
(0.010393 0.016990 0.000220)
(0.003629 0.011895 0.000222)
(0.003025 -0.002785 0.000224)
(0.016268 0.000468 0.000226)
(0.015700 0.004452 0.000227)
(-0.013606 -0.032535 -0.000175)
(0.007092 0.152404 -0.000175)
(0.004115 0.138859 -0.000175)
(0.003039 0.130934 -0.000175)
(0.004831 0.187877 -0.000175)
(0.007099 0.244964 -0.000175)
(0.008720 0.280641 -0.000175)
(0.011401 0.358921 -0.000175)
(0.016326 0.511360 -0.000175)
(0.020826 0.667350 -0.000140)
(0.022461 0.665044 -0.000105)
(0.034831 0.974170 -0.000105)
(0.150688 3.627269 -0.000105)
(0.274757 7.348323 -0.000105)
(-10.551995 -28.782656 -0.000105)
(117.264629 -249.697940 -0.000105)
(-19.137896 -13.533581 -0.000105)
(-13.983613 -6.721839 -0.000105)
(-16.051169 -29.039940 -0.000105)
(-92.782393 246.492557 -0.000105)
(6.766213 77.002081 -0.000047)
(5.150160 35.650214 0.000012)
(2.127590 15.224173 0.000012)
(0.831261 1.427451 0.000012)
(2.327183 6.605018 0.000012)
(-1.162403 -2.344690 0.000012)
(-0.535851 -1.719881 0.000012)
(-1.326607 -2.029926 0.000012)
(-2.678875 -4.377411 0.000012)
(2.050206 2.523439 0.000012)
(2.515195 3.151332 0.000012)
(2.478894 2.519084 0.000012)
(4.516205 4.246431 0.000012)
(6.405184 5.375430 0.000012)
(16.701658 11.676370 0.000012)
(25.131457 15.616732 0.000012)
(16.452401 9.758405 0.000012)
(11.301118 5.803085 0.000012)
(34.746456 12.733951 0.000012)
(48.640484 14.168726 0.000012)
(-56.744374 -13.899903 0.000012)
(-198.686519 -33.271312 0.000012)
(-122.743799 -11.288261 0.000012)
(6.267751 4.872416 0.000012)
(60.602346 -4.342925 0.000012)
(70.279529 -10.181925 0.000012)
(34.109869 -7.957490 0.000012)
(16.495820 -4.161262 0.000012)
(-0.761407 -1.721079 0.000012)
(1.632645 -3.036554 0.000012)
(4.258806 -4.054377 0.000012)
(1.953255 -2.765047 0.000012)
(0.409900 -0.283984 0.000012)
(0.592976 0.389571 0.000012)
(1.285948 -0.045872 0.000012)
(1.058606 -0.215326 0.000012)
(0.686647 -0.221740 0.000012)
(0.435430 -0.218876 0.000012)
(0.311002 -0.226726 0.000012)
(0.189839 -0.163395 0.000012)
(0.061807 -0.041079 0.000012)
(0.007652 0.007593 0.000012)
(-0.016217 0.030948 0.000012)
(-0.027843 0.048005 0.000012)
(-0.028855 0.051773 0.000012)
(-0.024421 0.045261 0.000012)
(-0.018223 0.032156 0.000012)
(-0.011501 0.018711 -0.000047)
(-59.802004 0.008748 -0.000105)
(59.795522 0.001784 -0.000105)
(-0.002947 0.004385 -0.000105)
(0.001750 0.000093 -0.000105)
(-0.019339 0.051536 -0.000105)
(-0.032812 0.088781 -0.000105)
(-0.013287 0.049409 -0.000105)
(-0.006315 0.026332 -0.000105)
(-0.004332 0.018783 -0.000105)
(-0.003109 0.013135 -0.000105)
(-0.002304 0.011531 -0.000140)
(-0.001752 0.009332 -0.000175)
(-0.001417 0.007648 -0.000175)
(-0.001230 0.007632 -0.000175)
(-0.001027 0.006161 -0.000175)
(-0.000872 0.005000 -0.000175)
(-0.000553 0.003530 -0.000175)
(-0.000287 0.003889 -0.000175)
(-0.000122 0.005259 -0.000175)
(0.001069 -0.006680 -0.000175)
)
;
    }
}
