/*--------------------------------*- C++ -*---------------------------------*\ 
| ========                 |                                                 | 
| \      /  F ield         | OpenFOAM: The Open Source CFD Toolbox           | 
|  \    /   O peration     | Version:  v1812                                 | 
|   \  /    A nd           | Web:      www.OpenFOAM.com                      | 
|    \/     M anipulation  |                                                 | 
\*--------------------------------------------------------------------------*/ 
FoamFile
{
    version     2.0;
    format      ascii;
    class       volVectorField;
    location    "/home/james/dafoam/myRuns/bezier_coanda_opt/0.00000000001/";
    object      sens_CL_shapey;
}
// * * * * * * * * * * * * * * * * * * * * * * * * * * * * * * * * * * * * * //

dimensions      [0 0 0 0 0 0 0];
internalField   uniform (0 0 0);
boundaryField
{
    allWalls
    {
        type  wall;
        value nonuniform List<vector>
188
(
(0.014732 0.002586 0.000244)
(-0.033321 0.017886 0.000256)
(-0.066558 0.031203 0.000255)
(-0.083803 0.060325 0.000254)
(-0.048405 0.036781 0.000253)
(-0.008803 0.021159 0.000252)
(-0.018993 0.036017 0.000251)
(-0.009898 0.024691 0.000250)
(-0.011825 0.028713 0.000249)
(-0.008200 0.023896 0.000248)
(-0.008338 0.027676 0.000247)
(-0.008212 0.030910 0.000246)
(-0.007713 0.031988 0.000396)
(-0.007393 0.034644 0.000548)
(-0.007805 0.041259 0.000549)
(-0.007133 0.043648 0.000551)
(-0.006324 0.045419 0.000553)
(-0.005765 0.049464 0.000554)
(-0.005200 0.054647 0.001073)
(-0.004422 0.059001 0.001685)
(-0.003530 0.063911 0.001876)
(-0.002618 0.074667 0.002072)
(-0.001340 0.089840 0.002267)
(0.000580 0.102892 0.002453)
(0.003181 0.120042 0.002463)
(0.006654 0.138401 0.002030)
(0.009444 0.138657 0.001500)
(0.011787 0.135010 0.001187)
(0.014612 0.140712 0.000854)
(0.016934 0.144324 0.000546)
(0.019049 0.146176 0.000343)
(0.021235 0.149150 0.000184)
(0.023208 0.151968 0.000063)
(0.024927 0.154283 -0.000039)
(0.026568 0.156469 -0.000090)
(0.028097 0.158219 -0.000099)
(0.029290 0.159465 -0.000158)
(0.030358 0.159879 -0.000226)
(0.031158 0.159682 -0.000235)
(0.031574 0.158640 -0.000227)
(0.031987 0.156751 -0.000243)
(0.032088 0.153746 -0.000257)
(0.031766 0.150350 -0.000230)
(0.031536 0.147072 -0.000224)
(0.030548 0.139788 -0.000239)
(0.027321 0.123500 -0.000231)
(0.025871 0.116304 -0.000193)
(0.032755 0.148239 -0.000160)
(0.037554 0.170630 -0.000161)
(0.001867 -0.030778 -0.000161)
(-0.002653 0.009693 -0.000161)
(-0.004661 0.014680 -0.000161)
(-0.005722 0.020156 -0.000192)
(-0.007569 0.026200 -0.000170)
(-0.008889 0.030866 -0.000113)
(-0.010186 0.037025 -0.000086)
(-0.009328 0.035372 -0.000075)
(-0.004750 0.021024 -0.000078)
(-0.000789 0.008428 -0.000096)
(0.002289 -0.005296 -0.000112)
(0.003025 -0.010166 -0.000090)
(-0.000287 0.002794 -0.000066)
(-0.002633 0.010990 -0.000040)
(-0.003061 0.012553 -0.000013)
(-0.004219 0.019440 0.000016)
(-0.005593 0.028868 0.000045)
(-0.006432 0.036722 0.000075)
(-0.006814 0.043316 0.000205)
(-0.006885 0.049271 0.000349)
(-0.006655 0.054454 0.000404)
(-0.006213 0.058994 0.000406)
(-0.005448 0.062551 0.000458)
(-0.004460 0.066435 0.000557)
(-0.003233 0.068720 0.000713)
(-0.001929 0.068050 0.000730)
(-0.000555 0.080528 0.000581)
(0.000478 0.067465 0.000436)
(0.001267 0.045158 0.000295)
(0.002229 0.047957 0.000243)
(0.002778 0.043989 0.000202)
(0.003078 0.038319 0.000170)
(0.003429 0.034595 0.000144)
(0.003999 0.033524 0.000334)
(0.003719 0.027107 0.000536)
(0.003817 0.023540 0.000535)
(0.004967 0.027045 0.000535)
(0.004683 0.023341 0.000535)
(0.004245 0.018868 0.000535)
(0.004218 0.016834 0.000365)
(0.005153 0.017167 0.000197)
(0.007090 0.018396 0.000201)
(0.007178 0.012969 0.000205)
(0.005862 0.003437 0.000209)
(0.002753 -0.006822 0.000212)
(0.004856 -0.003793 0.000216)
(0.010899 0.013952 0.000219)
(0.005090 0.015038 0.000222)
(0.004221 -0.001576 0.000225)
(0.019328 -0.002774 0.000228)
(0.022513 0.003209 0.000230)
(-0.010531 -0.013212 -0.000161)
(0.008985 0.205716 -0.000161)
(0.005041 0.169665 -0.000161)
(0.004419 0.156357 -0.000161)
(0.006593 0.219565 -0.000161)
(0.008731 0.271112 -0.000161)
(0.010579 0.315302 -0.000161)
(0.013663 0.399807 -0.000161)
(0.019113 0.558710 -0.000161)
(0.024139 0.720523 -0.000129)
(0.025558 0.712599 -0.000097)
(0.038737 1.048606 -0.000097)
(0.164255 3.812517 -0.000097)
(0.281983 7.538285 -0.000097)
(-9.933466 -28.782243 -0.000097)
(122.644994 -249.569849 -0.000097)
(-18.840772 -13.726547 -0.000097)
(-14.508205 -6.876607 -0.000097)
(-15.810984 -28.784536 -0.000097)
(-98.026104 245.747581 -0.000097)
(7.007126 78.776459 -0.000044)
(5.375422 36.560286 0.000009)
(2.094904 15.226922 0.000009)
(0.882958 1.636841 0.000009)
(2.449069 7.091591 0.000009)
(-1.275894 -2.750963 0.000009)
(-0.574912 -2.003669 0.000009)
(-1.278722 -2.036359 0.000009)
(-2.383413 -3.994250 0.000009)
(2.582183 3.227867 0.000009)
(3.211189 3.946633 0.000009)
(3.813500 3.856252 0.000009)
(6.978091 6.456967 0.000009)
(10.725885 8.786509 0.000009)
(20.998508 14.864922 0.000009)
(25.934290 16.209492 0.000009)
(18.828665 10.649114 0.000009)
(14.149664 7.059670 0.000009)
(62.690487 18.335104 0.000009)
(-40.565034 -14.862442 0.000009)
(-207.540348 -47.323964 0.000009)
(-124.450935 -13.817343 0.000009)
(-5.108550 5.933265 0.000009)
(58.715274 -1.077374 0.000009)
(70.706486 -7.022438 0.000009)
(37.394387 -6.349038 0.000009)
(18.915296 -3.648063 0.000009)
(0.372146 -1.853369 0.000009)
(1.872649 -2.414838 0.000009)
(3.489595 -2.985379 0.000009)
(2.629445 -3.177961 0.000009)
(1.691818 -1.090908 0.000009)
(-0.021751 0.528937 0.000009)
(0.998820 0.132231 0.000009)
(0.967284 -0.111172 0.000009)
(0.641787 -0.129743 0.000009)
(0.433763 -0.140295 0.000009)
(0.266501 -0.120443 0.000009)
(0.131640 -0.060479 0.000009)
(0.049252 -0.009802 0.000009)
(0.007840 0.019288 0.000009)
(-0.008949 0.030948 0.000009)
(-0.014381 0.033854 0.000009)
(-0.014770 0.032170 0.000009)
(-0.013373 0.028729 0.000009)
(-0.011342 0.023437 0.000009)
(-0.008901 0.016279 0.000009)
(-0.005623 0.011157 -0.000044)
(-59.800763 0.006381 -0.000097)
(59.797930 0.001343 -0.000097)
(-0.001857 0.003860 -0.000097)
(0.002186 0.001835 -0.000097)
(-0.004572 0.015766 -0.000097)
(-0.012624 0.035091 -0.000097)
(-0.006329 0.030010 -0.000097)
(-0.003462 0.022380 -0.000097)
(-0.002530 0.019958 -0.000097)
(-0.001872 0.017819 -0.000097)
(-0.001409 0.016179 -0.000129)
(-0.001165 0.014698 -0.000161)
(-0.001068 0.013876 -0.000161)
(-0.000998 0.013460 -0.000161)
(-0.000935 0.013056 -0.000161)
(-0.000898 0.012716 -0.000161)
(-0.000725 0.012619 -0.000161)
(-0.000537 0.012117 -0.000161)
(-0.000396 0.012412 -0.000161)
(-0.000608 0.010189 -0.000161)
)
;
    }
}
