/*--------------------------------*- C++ -*---------------------------------*\ 
| ========                 |                                                 | 
| \      /  F ield         | OpenFOAM: The Open Source CFD Toolbox           | 
|  \    /   O peration     | Version:  v1812                                 | 
|   \  /    A nd           | Web:      www.OpenFOAM.com                      | 
|    \/     M anipulation  |                                                 | 
\*--------------------------------------------------------------------------*/ 
FoamFile
{
    version     2.0;
    format      ascii;
    class       volVectorField;
    location    "/home/james/dafoam/myRuns/bezier_coanda_opt/0.00000000001/";
    object      sens_CL_shapey;
}
// * * * * * * * * * * * * * * * * * * * * * * * * * * * * * * * * * * * * * //

dimensions      [0 0 0 0 0 0 0];
internalField   uniform (0 0 0);
boundaryField
{
    allWalls
    {
        type  wall;
        value nonuniform List<vector>
188
(
(-0.013491 0.006033 0.000241)
(-0.023284 0.008066 0.000252)
(-0.042543 0.024375 0.000251)
(-0.064593 0.039993 0.000250)
(-0.053572 0.041759 0.000249)
(-0.027716 0.027650 0.000247)
(-0.006071 0.015485 0.000246)
(-0.015007 0.028711 0.000245)
(-0.014414 0.028572 0.000245)
(-0.011522 0.026831 0.000244)
(-0.014124 0.037058 0.000243)
(-0.010754 0.032223 0.000242)
(-0.007934 0.027866 0.000434)
(-0.008650 0.032892 0.000631)
(-0.009469 0.040519 0.000640)
(-0.009482 0.045820 0.000649)
(-0.008215 0.045906 0.000660)
(-0.007778 0.050273 0.000670)
(-0.007297 0.055732 0.001265)
(-0.006617 0.061614 0.001978)
(-0.005733 0.067877 0.002227)
(-0.004802 0.079259 0.002487)
(-0.003229 0.083125 0.002750)
(-0.001176 0.105688 0.003005)
(0.001904 0.142294 0.002624)
(0.006019 0.147499 0.001963)
(0.010046 0.146093 0.001619)
(0.014213 0.151839 0.001268)
(0.018260 0.156742 0.000967)
(0.022126 0.160835 0.000716)
(0.025878 0.165059 0.000484)
(0.029513 0.169373 0.000273)
(0.032901 0.173073 0.000110)
(0.035969 0.175971 -0.000074)
(0.038719 0.178192 -0.000177)
(0.041384 0.179466 -0.000157)
(0.043616 0.179678 -0.000137)
(0.045061 0.178707 -0.000186)
(0.045950 0.176294 -0.000249)
(0.046355 0.172782 -0.000210)
(0.046285 0.168175 -0.000165)
(0.045390 0.161219 -0.000165)
(0.043519 0.151446 -0.000202)
(0.041712 0.142551 -0.000202)
(0.041580 0.139800 -0.000165)
(0.039398 0.130348 -0.000165)
(0.028071 0.091411 -0.000179)
(0.029113 0.097644 -0.000185)
(0.042657 0.153067 -0.000177)
(0.002983 -0.028946 -0.000177)
(0.000391 -0.007400 -0.000177)
(-0.001889 0.003902 -0.000177)
(-0.002443 0.004546 -0.000189)
(-0.003217 0.008203 -0.000073)
(-0.005540 0.015018 -0.000055)
(-0.008427 0.022923 -0.000165)
(-0.011419 0.032252 -0.000165)
(-0.013748 0.041160 -0.000165)
(-0.016023 0.052209 -0.000165)
(-0.015326 0.053618 -0.000054)
(-0.006804 0.031118 0.000034)
(0.004869 -0.004942 0.000037)
(0.010316 -0.029252 0.000064)
(0.007047 -0.025493 0.000069)
(0.001496 -0.010577 0.000075)
(-0.001892 0.001601 0.000154)
(-0.004381 0.015090 0.000160)
(-0.006468 0.029331 0.000095)
(-0.007534 0.040690 0.000252)
(-0.007838 0.049857 0.000433)
(-0.007559 0.057359 0.000487)
(-0.006780 0.063276 0.000541)
(-0.005607 0.068172 0.000590)
(-0.004111 0.072889 0.000643)
(-0.002345 0.075391 0.000643)
(-0.000469 0.078775 0.000632)
(0.001305 0.074420 0.000464)
(0.002023 0.050696 0.000244)
(0.003213 0.046828 0.000184)
(0.003295 0.041880 0.000137)
(0.003815 0.036984 0.000100)
(0.005248 0.042506 0.000071)
(0.004416 0.030045 0.000310)
(0.004521 0.026388 0.000561)
(0.005610 0.028792 0.000561)
(0.005155 0.023952 0.000561)
(0.004697 0.019654 0.000561)
(0.005076 0.019456 0.000561)
(0.005433 0.018879 0.000384)
(0.006579 0.018891 0.000208)
(0.006954 0.015497 0.000211)
(0.007274 0.009541 0.000213)
(0.005306 -0.000392 0.000216)
(0.003355 -0.006134 0.000218)
(0.007485 0.002375 0.000220)
(0.010033 0.016447 0.000223)
(0.003601 0.010478 0.000225)
(0.004516 -0.004048 0.000227)
(0.019729 0.000436 0.000229)
(0.019403 0.005070 0.000230)
(-0.015286 -0.040910 -0.000177)
(0.008332 0.160018 -0.000177)
(0.004773 0.145625 -0.000177)
(0.003236 0.133790 -0.000177)
(0.005020 0.189437 -0.000177)
(0.007374 0.248995 -0.000177)
(0.009001 0.285481 -0.000177)
(0.011718 0.365028 -0.000177)
(0.016734 0.519483 -0.000177)
(0.021248 0.676724 -0.000142)
(0.022860 0.683345 -0.000106)
(0.035147 1.014424 -0.000106)
(0.151794 3.673734 -0.000106)
(0.270763 7.309820 -0.000106)
(-10.452140 -28.939841 -0.000106)
(122.039945 -253.111305 -0.000106)
(-19.251480 -13.763166 -0.000106)
(-14.277830 -6.858270 -0.000106)
(-16.089686 -28.992442 -0.000106)
(-97.264313 249.513158 -0.000106)
(6.912436 78.771292 -0.000047)
(5.315403 36.429413 0.000012)
(2.191845 15.550828 0.000012)
(0.846580 1.430023 0.000012)
(2.374273 6.729962 0.000012)
(-1.204676 -2.440529 0.000012)
(-0.565733 -1.808348 0.000012)
(-1.372878 -2.114156 0.000012)
(-2.759266 -4.515278 0.000012)
(2.104914 2.583882 0.000012)
(2.578270 3.227508 0.000012)
(2.551800 2.587847 0.000012)
(4.645992 4.366122 0.000012)
(6.557272 5.501633 0.000012)
(17.134358 11.977589 0.000012)
(25.796754 16.025148 0.000012)
(16.524434 9.840345 0.000012)
(10.974811 5.673160 0.000012)
(35.245067 12.887098 0.000012)
(48.548313 14.147864 0.000012)
(-60.161857 -14.527737 0.000012)
(-203.118834 -33.748479 0.000012)
(-123.680736 -11.173762 0.000012)
(7.670769 5.051034 0.000012)
(62.783267 -4.438940 0.000012)
(72.160559 -10.373013 0.000012)
(34.734392 -8.061745 0.000012)
(16.743945 -4.194109 0.000012)
(-0.726482 -1.755545 0.000012)
(1.748013 -3.099107 0.000012)
(4.380268 -4.102995 0.000012)
(1.980622 -2.745505 0.000012)
(0.400639 -0.244369 0.000012)
(0.618337 0.406240 0.000012)
(1.302683 -0.035073 0.000012)
(1.068230 -0.209316 0.000012)
(0.691877 -0.218740 0.000012)
(0.437851 -0.217241 0.000012)
(0.312128 -0.225923 0.000012)
(0.189943 -0.162510 0.000012)
(0.061160 -0.039563 0.000012)
(0.006908 0.009151 0.000012)
(-0.016919 0.032417 0.000012)
(-0.028476 0.049360 0.000012)
(-0.029372 0.052901 0.000012)
(-0.024812 0.046093 0.000012)
(-0.018503 0.032668 0.000012)
(-0.011663 0.018981 -0.000047)
(-59.801988 0.008885 -0.000106)
(59.795427 0.001815 -0.000106)
(-0.002985 0.004452 -0.000106)
(0.001824 0.000043 -0.000106)
(-0.019611 0.052355 -0.000106)
(-0.033231 0.089869 -0.000106)
(-0.013359 0.049483 -0.000106)
(-0.006373 0.026093 -0.000106)
(-0.004389 0.018499 -0.000106)
(-0.003165 0.012841 -0.000106)
(-0.002347 0.011251 -0.000142)
(-0.001781 0.009038 -0.000177)
(-0.001439 0.007354 -0.000177)
(-0.001245 0.007346 -0.000177)
(-0.001040 0.005847 -0.000177)
(-0.000886 0.004661 -0.000177)
(-0.000572 0.003185 -0.000177)
(-0.000306 0.003545 -0.000177)
(-0.000129 0.004869 -0.000177)
(0.001049 -0.006978 -0.000177)
)
;
    }
}
