/*--------------------------------*- C++ -*---------------------------------*\ 
| ========                 |                                                 | 
| \      /  F ield         | OpenFOAM: The Open Source CFD Toolbox           | 
|  \    /   O peration     | Version:  v1812                                 | 
|   \  /    A nd           | Web:      www.OpenFOAM.com                      | 
|    \/     M anipulation  |                                                 | 
\*--------------------------------------------------------------------------*/ 
FoamFile
{
    version     2.0;
    format      ascii;
    class       volVectorField;
    location    "/home/james/dafoam/myRuns/bezier_coanda_opt/0.00000000001/";
    object      sens_CL_shapey;
}
// * * * * * * * * * * * * * * * * * * * * * * * * * * * * * * * * * * * * * //

dimensions      [0 0 0 0 0 0 0];
internalField   uniform (0 0 0);
boundaryField
{
    allWalls
    {
        type  wall;
        value nonuniform List<vector>
188
(
(-0.013711 0.005226 0.000078)
(-0.022660 0.007669 0.000078)
(-0.039188 0.022014 0.000078)
(-0.057384 0.035496 0.000078)
(-0.048958 0.037797 0.000078)
(-0.025884 0.025110 0.000161)
(-0.007054 0.015440 0.000161)
(-0.015946 0.028792 0.000078)
(-0.015058 0.028820 0.000230)
(-0.012252 0.027607 0.000435)
(-0.014554 0.037306 0.000547)
(-0.011248 0.032921 0.000673)
(-0.008337 0.028497 0.000816)
(-0.009453 0.035693 0.000975)
(-0.009304 0.039306 0.001153)
(-0.008943 0.043244 0.001352)
(-0.008556 0.047191 0.001466)
(-0.007825 0.050121 0.001708)
(-0.007338 0.055498 0.002077)
(-0.006638 0.061269 0.002277)
(-0.005753 0.067511 0.002311)
(-0.004805 0.078239 0.002379)
(-0.003256 0.082763 0.002961)
(-0.001086 0.105122 0.002761)
(0.002165 0.140778 0.002081)
(0.006227 0.145575 0.001971)
(0.010208 0.143634 0.001695)
(0.014351 0.149576 0.001393)
(0.018348 0.154248 0.001127)
(0.022186 0.158347 0.000517)
(0.025899 0.162465 0.000027)
(0.029495 0.166648 0.000019)
(0.032871 0.170361 0.000012)
(0.035931 0.173274 0.000006)
(0.038662 0.175453 0.000001)
(0.041028 0.176730 -0.000047)
(0.042963 0.176992 -0.000093)
(0.044403 0.176077 -0.000094)
(0.045296 0.173726 -0.000094)
(0.045701 0.170239 -0.000094)
(0.045623 0.165635 -0.000094)
(0.044747 0.158815 -0.000016)
(0.042935 0.149342 0.000062)
(0.041082 0.140334 0.000062)
(0.040683 0.136614 0.000062)
(0.038502 0.127139 0.000062)
(0.027948 0.090754 0.000062)
(0.028280 0.093554 -0.000056)
(0.039746 0.140236 -0.000174)
(0.004645 -0.019668 -0.000174)
(0.000322 -0.006873 -0.000174)
(-0.002091 0.004764 -0.000174)
(-0.002634 0.005692 -0.000056)
(-0.003623 0.009658 0.000062)
(-0.006173 0.016651 0.000062)
(-0.009017 0.024392 0.000062)
(-0.012035 0.033754 0.000062)
(-0.014437 0.042973 0.000062)
(-0.016659 0.054020 -0.000016)
(-0.015424 0.053448 -0.000094)
(-0.005683 0.026911 -0.000094)
(0.006173 -0.010736 -0.000094)
(0.010151 -0.029943 -0.000094)
(0.005640 -0.019908 -0.000094)
(0.001103 -0.008301 -0.000049)
(-0.000936 -0.001367 -0.000003)
(-0.003618 0.012885 0.000000)
(-0.005951 0.028317 0.000004)
(-0.007063 0.039860 0.000007)
(-0.007383 0.049039 0.000010)
(-0.007128 0.056679 0.000198)
(-0.006375 0.062748 0.000407)
(-0.005225 0.067753 0.000454)
(-0.003747 0.072591 0.000501)
(-0.002002 0.075259 0.000534)
(-0.000144 0.078711 0.000520)
(0.001461 0.074392 0.000460)
(0.002005 0.050613 0.000375)
(0.003177 0.046664 0.000293)
(0.003323 0.042390 0.000034)
(0.003815 0.037267 -0.000164)
(0.005198 0.042369 -0.000112)
(0.004404 0.030259 0.000007)
(0.004486 0.026451 0.000058)
(0.005600 0.029004 0.000040)
(0.005111 0.024025 0.000087)
(0.004648 0.019628 0.000130)
(0.005079 0.019671 0.000171)
(0.005437 0.019059 0.000208)
(0.006603 0.019066 0.000242)
(0.007043 0.015815 0.000273)
(0.007380 0.009796 0.000183)
(0.005499 -0.000275 0.000209)
(0.003252 -0.006710 0.000188)
(0.007328 0.001625 0.000056)
(0.010641 0.017187 0.000078)
(0.003707 0.012599 0.000078)
(0.002419 -0.002422 0.000054)
(0.014711 0.000164 0.000054)
(0.013982 0.004220 0.000078)
(-0.012819 -0.028653 -0.000174)
(0.006515 0.148797 -0.000174)
(0.003813 0.135662 -0.000174)
(0.002952 0.129576 -0.000174)
(0.004746 0.187103 -0.000174)
(0.006973 0.243021 -0.000174)
(0.008593 0.278334 -0.000174)
(0.011258 0.356011 -0.000174)
(0.016137 0.507469 -0.000174)
(0.020628 0.662854 -0.000139)
(0.022282 0.656428 -0.000105)
(0.034691 0.955287 -0.000105)
(0.150110 3.604906 -0.000105)
(0.276351 7.364637 -0.000105)
(-10.598055 -28.711088 -0.000105)
(114.942784 -248.024552 -0.000105)
(-19.086090 -13.425270 -0.000105)
(-13.843932 -6.656633 -0.000105)
(-16.030235 -29.062122 -0.000105)
(-90.600640 245.016393 -0.000105)
(6.695854 76.141337 -0.000047)
(5.070994 35.272576 0.000011)
(2.096992 15.067557 0.000011)
(0.823736 1.425879 0.000011)
(2.304099 6.543620 0.000011)
(-1.142189 -2.298513 0.000011)
(-0.521402 -1.676689 0.000011)
(-1.304820 -1.989988 0.000011)
(-2.641284 -4.312911 0.000011)
(2.023328 2.493104 0.000011)
(2.484400 3.114168 0.000011)
(2.444787 2.486985 0.000011)
(4.455520 4.190116 0.000011)
(6.334318 5.316246 0.000011)
(16.500730 11.536195 0.000011)
(24.819736 15.425596 0.000011)
(16.440519 9.730528 0.000011)
(11.484319 5.877946 0.000011)
(34.518749 12.665522 0.000011)
(48.740659 14.193690 0.000011)
(-55.063077 -13.597256 0.000011)
(-196.681151 -33.073549 0.000011)
(-122.448769 -11.366285 0.000011)
(5.543998 4.785364 0.000011)
(59.565853 -4.299044 0.000011)
(69.418255 -10.094463 0.000011)
(33.862785 -7.905466 0.000011)
(16.414941 -4.140066 0.000011)
(-0.768874 -1.701823 0.000011)
(1.579218 -3.006653 0.000011)
(4.200487 -4.031638 0.000011)
(1.939359 -2.777034 0.000011)
(0.413350 -0.304223 0.000011)
(0.578547 0.381889 0.000011)
(1.277675 -0.051249 0.000011)
(1.054102 -0.218384 0.000011)
(0.684156 -0.223198 0.000011)
(0.434292 -0.219640 0.000011)
(0.310525 -0.227104 0.000011)
(0.189860 -0.163803 0.000011)
(0.062142 -0.041736 0.000011)
(0.008018 0.006926 0.000011)
(-0.015873 0.030315 0.000011)
(-0.027530 0.047419 0.000011)
(-0.028596 0.051286 0.000011)
(-0.024219 0.044905 0.000011)
(-0.018072 0.031944 0.000011)
(-0.011411 0.018607 -0.000047)
(-59.802013 0.008698 -0.000105)
(59.795575 0.001772 -0.000105)
(-0.002927 0.004358 -0.000105)
(0.001720 0.000123 -0.000105)
(-0.019188 0.051179 -0.000105)
(-0.032573 0.088333 -0.000105)
(-0.013207 0.049435 -0.000105)
(-0.006243 0.026471 -0.000105)
(-0.004262 0.018904 -0.000105)
(-0.003044 0.013216 -0.000105)
(-0.002250 0.011562 -0.000139)
(-0.001709 0.009342 -0.000174)
(-0.001382 0.007669 -0.000174)
(-0.001205 0.007711 -0.000174)
(-0.001012 0.006355 -0.000174)
(-0.000864 0.005289 -0.000174)
(-0.000545 0.003861 -0.000174)
(-0.000280 0.004195 -0.000174)
(-0.000117 0.005518 -0.000174)
(0.001081 -0.006487 -0.000174)
)
;
    }
}
