/*--------------------------------*- C++ -*---------------------------------*\ 
| ========                 |                                                 | 
| \      /  F ield         | OpenFOAM: The Open Source CFD Toolbox           | 
|  \    /   O peration     | Version:  v1812                                 | 
|   \  /    A nd           | Web:      www.OpenFOAM.com                      | 
|    \/     M anipulation  |                                                 | 
\*--------------------------------------------------------------------------*/ 
FoamFile
{
    version     2.0;
    format      ascii;
    class       volVectorField;
    location    "/home/james/dafoam/myRuns/bezier_coanda_opt/0.00000000001/";
    object      sens_CL_shapey;
}
// * * * * * * * * * * * * * * * * * * * * * * * * * * * * * * * * * * * * * //

dimensions      [0 0 0 0 0 0 0];
internalField   uniform (0 0 0);
boundaryField
{
    allWalls
    {
        type  wall;
        value nonuniform List<vector>
188
(
(-0.013710 0.005066 0.000075)
(-0.022609 0.007577 0.000078)
(-0.038635 0.021577 0.000078)
(-0.056118 0.034717 0.000075)
(-0.048126 0.037063 0.000075)
(-0.025592 0.024676 0.000161)
(-0.007253 0.015441 0.000161)
(-0.016104 0.028797 0.000075)
(-0.015180 0.028868 0.000230)
(-0.012399 0.027775 0.000437)
(-0.014620 0.037293 0.000549)
(-0.011348 0.033086 0.000675)
(-0.008452 0.028737 0.000818)
(-0.009523 0.035888 0.000976)
(-0.009306 0.039228 0.001155)
(-0.008912 0.043051 0.001353)
(-0.008588 0.047276 0.001466)
(-0.007834 0.050104 0.001707)
(-0.007345 0.055459 0.002077)
(-0.006642 0.061212 0.002275)
(-0.005758 0.067469 0.002307)
(-0.004804 0.078064 0.002375)
(-0.003259 0.082710 0.002958)
(-0.001093 0.105059 0.002761)
(0.002163 0.140555 0.002082)
(0.006217 0.145286 0.001971)
(0.010194 0.143258 0.001695)
(0.014336 0.149236 0.001393)
(0.018327 0.153875 0.001127)
(0.022164 0.157975 0.000520)
(0.025874 0.162080 0.000033)
(0.029466 0.166243 0.000025)
(0.032843 0.169963 0.000019)
(0.035901 0.172870 0.000012)
(0.038632 0.175048 0.000007)
(0.040998 0.176324 -0.000045)
(0.042931 0.176577 -0.000095)
(0.044372 0.175670 -0.000096)
(0.045263 0.173319 -0.000096)
(0.045667 0.169834 -0.000096)
(0.045586 0.165228 -0.000096)
(0.044710 0.158420 -0.000018)
(0.042902 0.148972 0.000060)
(0.041037 0.139931 0.000060)
(0.040596 0.136066 0.000060)
(0.038416 0.126587 0.000060)
(0.027978 0.090600 0.000060)
(0.028156 0.092799 -0.000057)
(0.039246 0.138007 -0.000173)
(0.004912 -0.018187 -0.000173)
(0.000309 -0.006783 -0.000173)
(-0.002116 0.004848 -0.000173)
(-0.002665 0.005819 -0.000057)
(-0.003673 0.009834 0.000060)
(-0.006240 0.016855 0.000060)
(-0.009081 0.024600 0.000060)
(-0.012097 0.033999 0.000060)
(-0.014499 0.043268 0.000060)
(-0.016696 0.054263 -0.000018)
(-0.015330 0.053202 -0.000096)
(-0.005313 0.025732 -0.000096)
(0.006501 -0.012002 -0.000096)
(0.010114 -0.030023 -0.000096)
(0.005400 -0.018890 -0.000096)
(0.000981 -0.007699 -0.000047)
(-0.000890 -0.001537 0.000003)
(-0.003587 0.012785 0.000006)
(-0.005940 0.028332 0.000010)
(-0.007050 0.039882 0.000013)
(-0.007364 0.049030 0.000017)
(-0.007108 0.056666 0.000203)
(-0.006356 0.062743 0.000410)
(-0.005207 0.067751 0.000457)
(-0.003732 0.072595 0.000504)
(-0.001989 0.075262 0.000537)
(-0.000134 0.078738 0.000524)
(0.001466 0.074391 0.000461)
(0.002008 0.050598 0.000373)
(0.003173 0.046614 0.000291)
(0.003336 0.042503 0.000033)
(0.003820 0.037327 -0.000164)
(0.005187 0.042292 -0.000112)
(0.004405 0.030297 0.000008)
(0.004484 0.026468 0.000059)
(0.005597 0.029025 0.000040)
(0.005104 0.024024 0.000086)
(0.004648 0.019643 0.000130)
(0.005076 0.019687 0.000170)
(0.005448 0.019112 0.000208)
(0.006597 0.019088 0.000242)
(0.007044 0.015843 0.000273)
(0.007409 0.009882 0.000182)
(0.005535 -0.000220 0.000208)
(0.003232 -0.006791 0.000189)
(0.007274 0.001465 0.000056)
(0.010735 0.017321 0.000075)
(0.003833 0.012924 0.000075)
(0.002132 -0.002093 0.000055)
(0.013758 0.000204 0.000055)
(0.013034 0.004014 0.000075)
(-0.012414 -0.026668 -0.000173)
(0.006204 0.146846 -0.000173)
(0.003647 0.133948 -0.000173)
(0.002898 0.128836 -0.000173)
(0.004690 0.186643 -0.000173)
(0.006893 0.241940 -0.000173)
(0.008511 0.277081 -0.000173)
(0.011163 0.354439 -0.000173)
(0.016012 0.505360 -0.000173)
(0.020492 0.660423 -0.000139)
(0.022157 0.651933 -0.000105)
(0.034573 0.945538 -0.000105)
(0.149661 3.592941 -0.000105)
(0.276750 7.371601 -0.000105)
(-10.622104 -28.679788 -0.000105)
(113.656574 -247.090098 -0.000105)
(-19.062948 -13.369917 -0.000105)
(-13.770999 -6.622285 -0.000105)
(-16.017540 -29.076580 -0.000105)
(-89.387550 244.200006 -0.000105)
(6.658041 75.664824 -0.000047)
(5.028517 35.065471 0.000011)
(2.080816 14.983408 0.000011)
(0.819642 1.425066 0.000011)
(2.291171 6.509108 0.000011)
(-1.131427 -2.273611 0.000011)
(-0.513445 -1.652527 0.000011)
(-1.293404 -1.968799 0.000011)
(-2.622301 -4.280319 0.000011)
(2.009248 2.476955 0.000011)
(2.468657 3.094747 0.000011)
(2.425819 2.468510 0.000011)
(4.423348 4.160203 0.000011)
(6.298777 5.286390 0.000011)
(16.399161 11.465129 0.000011)
(24.661688 15.328719 0.000011)
(16.454883 9.726064 0.000011)
(11.609098 5.930303 0.000011)
(34.417034 12.637512 0.000011)
(48.881683 14.230428 0.000011)
(-54.088403 -13.430667 0.000011)
(-195.762107 -33.008795 0.000011)
(-122.493909 -11.438872 0.000011)
(5.092044 4.736346 0.000011)
(59.019745 -4.277771 0.000011)
(69.001366 -10.051530 0.000011)
(33.784893 -7.875432 0.000011)
(16.414835 -4.123605 0.000011)
(-0.759714 -1.687739 0.000011)
(1.556750 -2.989010 0.000011)
(4.174368 -4.019036 0.000011)
(1.934572 -2.785495 0.000011)
(0.415547 -0.315776 0.000011)
(0.568994 0.378506 0.000011)
(1.273236 -0.054014 0.000011)
(1.051952 -0.220011 0.000011)
(0.682914 -0.224024 0.000011)
(0.433549 -0.220069 0.000011)
(0.310456 -0.227695 0.000011)
(0.190226 -0.164516 0.000011)
(0.062175 -0.042136 0.000011)
(0.007862 0.006592 0.000011)
(-0.015991 0.030059 0.000011)
(-0.027570 0.047288 0.000011)
(-0.028584 0.051213 0.000011)
(-0.024175 0.044838 0.000011)
(-0.018015 0.031882 0.000011)
(-0.011368 0.018557 -0.000047)
(-59.802028 0.008666 -0.000105)
(59.795611 0.001765 -0.000105)
(-0.002922 0.004349 -0.000105)
(0.001727 0.000117 -0.000105)
(-0.019126 0.050981 -0.000105)
(-0.032507 0.088054 -0.000105)
(-0.013188 0.049325 -0.000105)
(-0.006226 0.026427 -0.000105)
(-0.004244 0.018861 -0.000105)
(-0.003024 0.013155 -0.000105)
(-0.002234 0.011488 -0.000139)
(-0.001697 0.009284 -0.000173)
(-0.001374 0.007652 -0.000173)
(-0.001203 0.007761 -0.000173)
(-0.001015 0.006498 -0.000173)
(-0.000871 0.005521 -0.000173)
(-0.000553 0.004139 -0.000173)
(-0.000285 0.004422 -0.000173)
(-0.000120 0.005655 -0.000173)
(0.001081 -0.006380 -0.000173)
)
;
    }
}
