/*--------------------------------*- C++ -*---------------------------------*\ 
| ========                 |                                                 | 
| \      /  F ield         | OpenFOAM: The Open Source CFD Toolbox           | 
|  \    /   O peration     | Version:  v1812                                 | 
|   \  /    A nd           | Web:      www.OpenFOAM.com                      | 
|    \/     M anipulation  |                                                 | 
\*--------------------------------------------------------------------------*/ 
FoamFile
{
    version     2.0;
    format      ascii;
    class       volVectorField;
    location    "/home/james/dafoam/myRuns/bezier_coanda_opt/0.00000000001/";
    object      sens_CL_shapey;
}
// * * * * * * * * * * * * * * * * * * * * * * * * * * * * * * * * * * * * * //

dimensions      [0 0 0 0 0 0 0];
internalField   uniform (0 0 0);
boundaryField
{
    allWalls
    {
        type  wall;
        value nonuniform List<vector>
188
(
(-0.013506 0.005934 0.000077)
(-0.023258 0.008035 0.000002)
(-0.042085 0.024055 0.000002)
(-0.063660 0.039420 0.000077)
(-0.053025 0.041271 0.000077)
(-0.027503 0.027368 0.000101)
(-0.006196 0.015476 0.000101)
(-0.015146 0.028767 0.000077)
(-0.014483 0.028564 0.000331)
(-0.011595 0.026910 0.000631)
(-0.014217 0.037174 0.000730)
(-0.010800 0.032270 0.000740)
(-0.007965 0.027867 0.000814)
(-0.008789 0.033408 0.000973)
(-0.009436 0.040301 0.001106)
(-0.009369 0.045318 0.001299)
(-0.008280 0.046175 0.001492)
(-0.007784 0.050242 0.001784)
(-0.007306 0.055715 0.002060)
(-0.006621 0.061576 0.002236)
(-0.005738 0.067832 0.002528)
(-0.004804 0.079129 0.002802)
(-0.003236 0.083075 0.003117)
(-0.001055 0.105610 0.002666)
(0.002162 0.142106 0.001988)
(0.006268 0.147268 0.001876)
(0.010288 0.145789 0.001598)
(0.014449 0.151546 0.001294)
(0.018489 0.156427 0.001027)
(0.022351 0.160531 0.000419)
(0.026095 0.164731 -0.000067)
(0.029725 0.169025 -0.000075)
(0.033114 0.172731 -0.000081)
(0.036184 0.175629 -0.000087)
(0.038936 0.177853 -0.000093)
(0.041346 0.179139 -0.000050)
(0.043308 0.179341 -0.000006)
(0.044740 0.178348 -0.000006)
(0.045636 0.175964 -0.000006)
(0.046053 0.172473 -0.000006)
(0.045985 0.167853 -0.000006)
(0.045092 0.160918 0.000067)
(0.043217 0.151172 0.000141)
(0.041394 0.142250 0.000141)
(0.041233 0.139389 0.000141)
(0.039052 0.129940 0.000141)
(0.027826 0.091320 0.000141)
(0.028894 0.097120 -0.000018)
(0.042290 0.151446 -0.000178)
(0.003192 -0.027786 -0.000178)
(0.000386 -0.007374 -0.000178)
(-0.001906 0.003994 -0.000178)
(-0.002437 0.004726 -0.000018)
(-0.003358 0.008438 0.000141)
(-0.005854 0.015281 0.000141)
(-0.008740 0.023185 0.000141)
(-0.011730 0.032494 0.000141)
(-0.014058 0.041393 0.000141)
(-0.016312 0.052412 0.000067)
(-0.015551 0.053576 -0.000006)
(-0.006904 0.030622 -0.000006)
(0.004785 -0.005616 -0.000006)
(0.010050 -0.029279 -0.000006)
(0.006618 -0.024714 -0.000006)
(0.001427 -0.010216 -0.000053)
(-0.001558 0.001297 -0.000097)
(-0.004074 0.014887 -0.000094)
(-0.006193 0.029282 -0.000091)
(-0.007269 0.040648 -0.000088)
(-0.007579 0.049806 -0.000085)
(-0.007296 0.057314 0.000099)
(-0.006517 0.063259 0.000305)
(-0.005345 0.068160 0.000352)
(-0.003847 0.072869 0.000399)
(-0.002081 0.075389 0.000431)
(-0.000204 0.078785 0.000419)
(0.001435 0.074425 0.000355)
(0.002017 0.050690 0.000329)
(0.003207 0.046818 0.000302)
(0.003296 0.041940 0.000221)
(0.003814 0.037024 0.000118)
(0.005242 0.042496 0.000034)
(0.004413 0.030072 0.000087)
(0.004512 0.026398 0.000153)
(0.005605 0.028820 0.000145)
(0.005144 0.023955 0.000140)
(0.004685 0.019649 0.000136)
(0.005077 0.019499 0.000026)
(0.005424 0.018885 -0.000088)
(0.006581 0.018915 0.000020)
(0.006966 0.015550 0.000133)
(0.007280 0.009556 0.000105)
(0.005330 -0.000379 -0.000018)
(0.003348 -0.006186 -0.000109)
(0.007471 0.002302 -0.000015)
(0.010097 0.016528 0.000077)
(0.003597 0.010721 0.000077)
(0.004243 -0.003854 -0.000024)
(0.019109 0.000404 -0.000024)
(0.018750 0.004969 0.000077)
(-0.014976 -0.039378 -0.000178)
(0.008103 0.158598 -0.000178)
(0.004652 0.144365 -0.000178)
(0.003200 0.133251 -0.000178)
(0.004985 0.189133 -0.000178)
(0.007323 0.248234 -0.000178)
(0.008949 0.284572 -0.000178)
(0.011659 0.363885 -0.000178)
(0.016658 0.517965 -0.000178)
(0.021170 0.674972 -0.000142)
(0.022785 0.679963 -0.000106)
(0.035085 1.007016 -0.000106)
(0.151573 3.665086 -0.000106)
(0.271465 7.316548 -0.000106)
(-10.470101 -28.909838 -0.000106)
(121.157257 -252.475163 -0.000106)
(-19.229662 -13.720487 -0.000106)
(-14.223233 -6.833024 -0.000106)
(-16.082039 -29.000000 -0.000106)
(-96.436501 248.949041 -0.000106)
(6.885405 78.444092 -0.000047)
(5.284920 36.285169 0.000012)
(2.179990 15.490258 0.000012)
(0.843780 1.429602 0.000012)
(2.365569 6.706857 0.000012)
(-1.196876 -2.422890 0.000012)
(-0.560246 -1.792105 0.000012)
(-1.364340 -2.098646 0.000012)
(-2.744376 -4.489768 0.000012)
(2.094727 2.572580 0.000012)
(2.566496 3.213307 0.000012)
(2.538367 2.575206 0.000012)
(4.621979 4.343951 0.000012)
(6.529063 5.478198 0.000012)
(17.054109 11.921723 0.000012)
(25.673294 15.949353 0.000012)
(16.510543 9.824903 0.000012)
(11.034495 5.696902 0.000012)
(35.152871 12.858774 0.000012)
(48.562634 14.151134 0.000012)
(-59.533855 -14.412023 0.000012)
(-202.295612 -33.659206 0.000012)
(-123.500082 -11.193875 0.000012)
(7.414840 5.018243 0.000012)
(62.379557 -4.421140 0.000012)
(71.810445 -10.337670 0.000012)
(34.615905 -8.042932 0.000012)
(16.695936 -4.188625 0.000012)
(-0.733096 -1.749320 0.000012)
(1.727138 -3.087328 0.000012)
(4.358457 -4.093765 0.000012)
(1.975977 -2.748847 0.000012)
(0.402532 -0.251537 0.000012)
(0.613789 0.403203 0.000012)
(1.299608 -0.037008 0.000012)
(1.066446 -0.210367 0.000012)
(0.690911 -0.219244 0.000012)
(0.437406 -0.217498 0.000012)
(0.311923 -0.226030 0.000012)
(0.189928 -0.162638 0.000012)
(0.061288 -0.039815 0.000012)
(0.007056 0.008885 0.000012)
(-0.016778 0.032164 0.000012)
(-0.028348 0.049124 0.000012)
(-0.029266 0.052703 0.000012)
(-0.024730 0.045948 0.000012)
(-0.018443 0.032580 0.000012)
(-0.011626 0.018937 -0.000047)
(-59.801985 0.008863 -0.000106)
(59.795445 0.001810 -0.000106)
(-0.002977 0.004441 -0.000106)
(0.001813 0.000053 -0.000106)
(-0.019545 0.052209 -0.000106)
(-0.033127 0.089677 -0.000106)
(-0.013325 0.049468 -0.000106)
(-0.006348 0.026122 -0.000106)
(-0.004369 0.018528 -0.000106)
(-0.003148 0.012863 -0.000106)
(-0.002334 0.011259 -0.000142)
(-0.001771 0.009034 -0.000178)
(-0.001431 0.007336 -0.000178)
(-0.001239 0.007309 -0.000178)
(-0.001034 0.005793 -0.000178)
(-0.000881 0.004591 -0.000178)
(-0.000567 0.003104 -0.000178)
(-0.000301 0.003459 -0.000178)
(-0.000125 0.004800 -0.000178)
(0.001053 -0.007002 -0.000178)
)
;
    }
}
