/*--------------------------------*- C++ -*---------------------------------*\ 
| ========                 |                                                 | 
| \      /  F ield         | OpenFOAM: The Open Source CFD Toolbox           | 
|  \    /   O peration     | Version:  v1812                                 | 
|   \  /    A nd           | Web:      www.OpenFOAM.com                      | 
|    \/     M anipulation  |                                                 | 
\*--------------------------------------------------------------------------*/ 
FoamFile
{
    version     2.0;
    format      ascii;
    class       volVectorField;
    location    "/home/james/dafoam/myRuns/bezier_coanda_opt/0.00000000001/";
    object      sens_CL_shapey;
}
// * * * * * * * * * * * * * * * * * * * * * * * * * * * * * * * * * * * * * //

dimensions      [0 0 0 0 0 0 0];
internalField   uniform (0 0 0);
boundaryField
{
    allWalls
    {
        type  wall;
        value nonuniform List<vector>
188
(
(-0.013604 0.005408 0.000080)
(-0.022680 0.007706 0.000079)
(-0.040023 0.022590 0.000079)
(-0.059291 0.036671 0.000080)
(-0.050226 0.038900 0.000080)
(-0.026406 0.025827 0.000163)
(-0.006765 0.015443 0.000163)
(-0.015703 0.028772 0.000080)
(-0.014897 0.028777 0.000231)
(-0.012041 0.027364 0.000434)
(-0.014463 0.037329 0.000547)
(-0.011101 0.032673 0.000674)
(-0.008166 0.028132 0.000816)
(-0.009363 0.035450 0.000976)
(-0.009297 0.039397 0.001155)
(-0.008982 0.043497 0.001354)
(-0.008518 0.047100 0.001469)
(-0.007815 0.050152 0.001710)
(-0.007333 0.055577 0.002080)
(-0.006636 0.061373 0.002279)
(-0.005750 0.067603 0.002313)
(-0.004809 0.078520 0.002381)
(-0.003255 0.082862 0.002965)
(-0.001077 0.105260 0.002766)
(0.002169 0.141165 0.002085)
(0.006245 0.146068 0.001974)
(0.010237 0.144261 0.001698)
(0.014384 0.150145 0.001395)
(0.018393 0.154881 0.001129)
(0.022236 0.158978 0.000519)
(0.025958 0.163122 0.000028)
(0.029562 0.167333 0.000021)
(0.032941 0.171045 0.000014)
(0.036004 0.173957 0.000008)
(0.038739 0.176141 0.000003)
(0.041107 0.177423 -0.000048)
(0.043045 0.177687 -0.000096)
(0.044487 0.176768 -0.000097)
(0.045378 0.174397 -0.000097)
(0.045785 0.170904 -0.000097)
(0.045710 0.166300 -0.000097)
(0.044831 0.159453 -0.000021)
(0.043006 0.149914 0.000055)
(0.041164 0.140934 0.000055)
(0.040830 0.137449 0.000055)
(0.038647 0.127974 0.000055)
(0.027899 0.090947 0.000055)
(0.028460 0.094652 -0.000060)
(0.040506 0.143609 -0.000175)
(0.004215 -0.022049 -0.000175)
(0.000333 -0.007025 -0.000175)
(-0.002053 0.004588 -0.000175)
(-0.002590 0.005476 -0.000060)
(-0.003555 0.009387 0.000055)
(-0.006078 0.016329 0.000055)
(-0.008916 0.024046 0.000055)
(-0.011927 0.033339 0.000055)
(-0.014321 0.042474 0.000055)
(-0.016566 0.053545 -0.000021)
(-0.015500 0.053584 -0.000097)
(-0.006132 0.028282 -0.000097)
(0.005707 -0.009016 -0.000097)
(0.010128 -0.029713 -0.000097)
(0.005938 -0.021338 -0.000097)
(0.001220 -0.008962 -0.000050)
(-0.001088 -0.000721 -0.000001)
(-0.003728 0.013356 0.000002)
(-0.006004 0.028502 0.000005)
(-0.007111 0.040020 0.000009)
(-0.007430 0.049199 0.000012)
(-0.007168 0.056798 0.000200)
(-0.006409 0.062847 0.000409)
(-0.005254 0.067832 0.000456)
(-0.003772 0.072646 0.000503)
(-0.002020 0.075275 0.000536)
(-0.000156 0.078708 0.000523)
(0.001454 0.074399 0.000460)
(0.002003 0.050640 0.000372)
(0.003182 0.046731 0.000290)
(0.003307 0.042247 0.000033)
(0.003809 0.037194 -0.000162)
(0.005209 0.042440 -0.000110)
(0.004403 0.030211 0.000007)
(0.004489 0.026435 0.000058)
(0.005601 0.028964 0.000042)
(0.005118 0.024012 0.000088)
(0.004652 0.019624 0.000132)
(0.005079 0.019637 0.000173)
(0.005430 0.018998 0.000210)
(0.006607 0.019024 0.000244)
(0.007025 0.015730 0.000276)
(0.007352 0.009701 0.000186)
(0.005439 -0.000355 0.000212)
(0.003286 -0.006583 0.000188)
(0.007378 0.001830 0.000057)
(0.010444 0.017013 0.000080)
(0.003661 0.011994 0.000080)
(0.002933 -0.002722 0.000056)
(0.015983 0.000421 0.000056)
(0.015393 0.004384 0.000080)
(-0.013461 -0.031817 -0.000175)
(0.006985 0.151741 -0.000175)
(0.004058 0.138268 -0.000175)
(0.003021 0.130681 -0.000175)
(0.004814 0.187735 -0.000175)
(0.007074 0.244608 -0.000175)
(0.008695 0.280214 -0.000175)
(0.011373 0.358382 -0.000175)
(0.016290 0.510642 -0.000175)
(0.020788 0.666520 -0.000141)
(0.022426 0.663443 -0.000106)
(0.034804 0.970659 -0.000106)
(0.150591 3.623151 -0.000106)
(0.275092 7.351464 -0.000106)
(-10.560400 -28.768684 -0.000106)
(116.844912 -249.395539 -0.000106)
(-19.127876 -13.513471 -0.000106)
(-13.957877 -6.709853 -0.000106)
(-16.047426 -29.043560 -0.000106)
(-92.388552 246.224764 -0.000106)
(6.753356 76.846352 -0.000047)
(5.135704 35.581675 0.000012)
(2.121972 15.195542 0.000012)
(0.829887 1.427137 0.000012)
(2.323015 6.593944 0.000012)
(-1.158711 -2.336292 0.000012)
(-0.533238 -1.712108 0.000012)
(-1.322587 -2.022589 0.000012)
(-2.671894 -4.365432 0.000012)
(2.045376 2.518071 0.000012)
(2.509636 3.144624 0.000012)
(2.472577 2.513135 0.000012)
(4.504954 4.236039 0.000012)
(6.391949 5.364433 0.000012)
(16.664135 11.650232 0.000012)
(25.073592 15.581225 0.000012)
(16.446969 9.751676 0.000012)
(11.330356 5.814787 0.000012)
(34.702300 12.720350 0.000012)
(48.649510 14.170697 0.000012)
(-56.445016 -13.845179 0.000012)
(-198.303887 -33.230726 0.000012)
(-122.667934 -11.299153 0.000012)
(6.143270 4.856653 0.000012)
(60.412974 -4.334590 0.000012)
(70.117540 -10.165184 0.000012)
(34.058541 -7.947795 0.000012)
(16.476729 -4.157676 0.000012)
(-0.763611 -1.717788 0.000012)
(1.622697 -3.031066 0.000012)
(4.247954 -4.050075 0.000012)
(1.950606 -2.766800 0.000012)
(0.410524 -0.287492 0.000012)
(0.590554 0.388117 0.000012)
(1.284392 -0.046828 0.000012)
(1.057709 -0.215855 0.000012)
(0.686146 -0.221997 0.000012)
(0.435188 -0.219012 0.000012)
(0.310883 -0.226790 0.000012)
(0.189817 -0.163467 0.000012)
(0.061854 -0.041208 0.000012)
(0.007710 0.007459 0.000012)
(-0.016160 0.030821 0.000012)
(-0.027791 0.047886 0.000012)
(-0.028812 0.051673 0.000012)
(-0.024388 0.045186 0.000012)
(-0.018199 0.032109 0.000012)
(-0.011489 0.018686 -0.000047)
(-59.802008 0.008735 -0.000106)
(59.795530 0.001781 -0.000106)
(-0.002944 0.004379 -0.000106)
(0.001743 0.000097 -0.000106)
(-0.019317 0.051459 -0.000106)
(-0.032780 0.088676 -0.000106)
(-0.013286 0.049394 -0.000106)
(-0.006314 0.026346 -0.000106)
(-0.004329 0.018802 -0.000106)
(-0.003106 0.013156 -0.000106)
(-0.002303 0.011551 -0.000141)
(-0.001752 0.009351 -0.000175)
(-0.001417 0.007668 -0.000175)
(-0.001230 0.007651 -0.000175)
(-0.001027 0.006182 -0.000175)
(-0.000873 0.005021 -0.000175)
(-0.000553 0.003551 -0.000175)
(-0.000287 0.003906 -0.000175)
(-0.000122 0.005272 -0.000175)
(0.001069 -0.006669 -0.000175)
)
;
    }
}
