/*--------------------------------*- C++ -*---------------------------------*\ 
| ========                 |                                                 | 
| \      /  F ield         | OpenFOAM: The Open Source CFD Toolbox           | 
|  \    /   O peration     | Version:  v1812                                 | 
|   \  /    A nd           | Web:      www.OpenFOAM.com                      | 
|    \/     M anipulation  |                                                 | 
\*--------------------------------------------------------------------------*/ 
FoamFile
{
    version     2.0;
    format      ascii;
    class       volVectorField;
    location    "/home/james/dafoam/myRuns/bezier_coanda_opt/0.00000000001/";
    object      sens_CL_shapey;
}
// * * * * * * * * * * * * * * * * * * * * * * * * * * * * * * * * * * * * * //

dimensions      [0 0 0 0 0 0 0];
internalField   uniform (0 0 0);
boundaryField
{
    allWalls
    {
        type  wall;
        value nonuniform List<vector>
188
(
(-0.013488 0.005713 0.000076)
(-0.023154 0.007928 0.000000)
(-0.041139 0.023374 0.000000)
(-0.061769 0.038270 0.000076)
(-0.051895 0.040281 0.000076)
(-0.027069 0.026800 0.000099)
(-0.006429 0.015434 0.000099)
(-0.015395 0.028826 0.000076)
(-0.014647 0.028594 0.000329)
(-0.011765 0.027111 0.000629)
(-0.014365 0.037308 0.000729)
(-0.010890 0.032358 0.000738)
(-0.008039 0.027923 0.000812)
(-0.009049 0.034414 0.000971)
(-0.009359 0.039853 0.001104)
(-0.009137 0.044307 0.001297)
(-0.008400 0.046691 0.001489)
(-0.007784 0.050170 0.001780)
(-0.007313 0.055665 0.002056)
(-0.006621 0.061481 0.002232)
(-0.005740 0.067736 0.002524)
(-0.004799 0.078866 0.002799)
(-0.003237 0.082978 0.003112)
(-0.001063 0.105456 0.002661)
(0.002158 0.141724 0.001985)
(0.006248 0.146781 0.001873)
(0.010256 0.145170 0.001596)
(0.014412 0.150975 0.001292)
(0.018439 0.155801 0.001025)
(0.022293 0.159899 0.000415)
(0.026028 0.164079 -0.000076)
(0.029647 0.168334 -0.000083)
(0.033031 0.172041 -0.000090)
(0.036101 0.174959 -0.000096)
(0.038842 0.177148 -0.000101)
(0.041241 0.178403 -0.000051)
(0.043207 0.178637 0.000002)
(0.044648 0.177694 0.000002)
(0.045538 0.175298 0.000002)
(0.045946 0.171789 0.000002)
(0.045879 0.167187 0.000002)
(0.044991 0.160282 0.000074)
(0.043130 0.150600 0.000147)
(0.041299 0.141659 0.000147)
(0.041077 0.138581 0.000147)
(0.038902 0.129138 0.000147)
(0.027865 0.091144 0.000147)
(0.028716 0.096070 -0.000015)
(0.041553 0.148197 -0.000177)
(0.003613 -0.025437 -0.000177)
(0.000384 -0.007355 -0.000177)
(-0.001927 0.004032 -0.000177)
(-0.002474 0.004818 -0.000015)
(-0.003453 0.008687 0.000147)
(-0.005966 0.015636 0.000147)
(-0.008788 0.023399 0.000147)
(-0.011763 0.032639 0.000147)
(-0.014124 0.041657 0.000147)
(-0.016377 0.052719 0.000074)
(-0.015492 0.053436 0.000002)
(-0.006569 0.029587 0.000002)
(0.005154 -0.006997 0.000002)
(0.010052 -0.029345 0.000002)
(0.006299 -0.023153 0.000002)
(0.001297 -0.009511 -0.000053)
(-0.001417 0.000679 -0.000105)
(-0.003984 0.014488 -0.000102)
(-0.006162 0.029183 -0.000099)
(-0.007242 0.040578 -0.000096)
(-0.007550 0.049728 -0.000093)
(-0.007271 0.057259 0.000095)
(-0.006495 0.063221 0.000305)
(-0.005325 0.068132 0.000352)
(-0.003831 0.072867 0.000399)
(-0.002068 0.075403 0.000432)
(-0.000194 0.078813 0.000419)
(0.001441 0.074448 0.000355)
(0.002019 0.050680 0.000331)
(0.003204 0.046783 0.000304)
(0.003309 0.042061 0.000223)
(0.003820 0.037093 0.000119)
(0.005234 0.042445 0.000034)
(0.004417 0.030127 0.000087)
(0.004509 0.026410 0.000152)
(0.005608 0.028864 0.000144)
(0.005139 0.023970 0.000139)
(0.004678 0.019635 0.000136)
(0.005084 0.019547 0.000026)
(0.005422 0.018915 -0.000087)
(0.006588 0.018966 0.000020)
(0.006976 0.015611 0.000132)
(0.007292 0.009604 0.000104)
(0.005352 -0.000369 -0.000018)
(0.003318 -0.006310 -0.000110)
(0.007406 0.002137 -0.000016)
(0.010164 0.016695 0.000076)
(0.003531 0.011193 0.000076)
(0.003605 -0.003219 -0.000025)
(0.017852 0.000626 -0.000025)
(0.017507 0.004727 0.000076)
(-0.014351 -0.036276 -0.000177)
(0.007644 0.155759 -0.000177)
(0.004408 0.141843 -0.000177)
(0.003127 0.132182 -0.000177)
(0.004916 0.188544 -0.000177)
(0.007221 0.246728 -0.000177)
(0.008845 0.282765 -0.000177)
(0.011542 0.361606 -0.000177)
(0.016507 0.514935 -0.000177)
(0.021014 0.671474 -0.000141)
(0.022638 0.673150 -0.000106)
(0.034967 0.992051 -0.000106)
(0.151162 3.647753 -0.000106)
(0.272955 7.330622 -0.000106)
(-10.506801 -28.850248 -0.000106)
(119.384413 -251.204247 -0.000106)
(-19.186669 -13.634819 -0.000106)
(-14.113663 -6.782251 -0.000106)
(-16.067354 -29.016474 -0.000106)
(-94.773284 247.822988 -0.000106)
(6.831036 77.786956 -0.000047)
(5.223541 35.995589 0.000012)
(2.156103 15.368695 0.000012)
(0.838098 1.428631 0.000012)
(2.348082 6.660448 0.000012)
(-1.181177 -2.387344 0.000012)
(-0.549161 -1.759325 0.000012)
(-1.347090 -2.067290 0.000012)
(-2.714457 -4.438473 0.000012)
(2.074612 2.550464 0.000012)
(2.543318 3.185230 0.000012)
(2.510961 2.549226 0.000012)
(4.573413 4.299243 0.000012)
(6.472292 5.431165 0.000012)
(16.892393 11.809194 0.000012)
(25.425352 15.797081 0.000012)
(16.479983 9.792557 0.000012)
(11.151157 5.743007 0.000012)
(34.966091 12.801208 0.000012)
(48.591439 14.157318 0.000012)
(-58.267808 -14.178933 0.000012)
(-200.636283 -33.478567 0.000012)
(-123.135633 -11.233801 0.000012)
(6.899269 4.951993 0.000012)
(61.568407 -4.385265 0.000012)
(71.107446 -10.266127 0.000012)
(34.378437 -8.004063 0.000012)
(16.600023 -4.176645 0.000012)
(-0.746462 -1.736647 0.000012)
(1.684637 -3.063881 0.000012)
(4.313691 -4.075319 0.000012)
(1.966002 -2.755488 0.000012)
(0.406080 -0.265950 0.000012)
(0.604629 0.397021 0.000012)
(1.293362 -0.040944 0.000012)
(1.062796 -0.212524 0.000012)
(0.688916 -0.220307 0.000012)
(0.436468 -0.218062 0.000012)
(0.311470 -0.226288 0.000012)
(0.189864 -0.162934 0.000012)
(0.061518 -0.040361 0.000012)
(0.007330 0.008315 0.000012)
(-0.016517 0.031623 0.000012)
(-0.028111 0.048622 0.000012)
(-0.029071 0.052284 0.000012)
(-0.024583 0.045638 0.000012)
(-0.018337 0.032390 0.000012)
(-0.011563 0.018836 -0.000047)
(-59.801988 0.008812 -0.000106)
(59.795480 0.001798 -0.000106)
(-0.002962 0.004416 -0.000106)
(0.001787 0.000071 -0.000106)
(-0.019438 0.051900 -0.000106)
(-0.032964 0.089266 -0.000106)
(-0.013293 0.049430 -0.000106)
(-0.006323 0.026198 -0.000106)
(-0.004345 0.018620 -0.000106)
(-0.003126 0.012957 -0.000106)
(-0.002317 0.011348 -0.000141)
(-0.001760 0.009126 -0.000177)
(-0.001424 0.007426 -0.000177)
(-0.001236 0.007396 -0.000177)
(-0.001035 0.005893 -0.000177)
(-0.000883 0.004707 -0.000177)
(-0.000564 0.003210 -0.000177)
(-0.000292 0.003531 -0.000177)
(-0.000116 0.004855 -0.000177)
(0.001066 -0.006969 -0.000177)
)
;
    }
}
