/*--------------------------------*- C++ -*---------------------------------*\ 
| ========                 |                                                 | 
| \      /  F ield         | OpenFOAM: The Open Source CFD Toolbox           | 
|  \    /   O peration     | Version:  v1812                                 | 
|   \  /    A nd           | Web:      www.OpenFOAM.com                      | 
|    \/     M anipulation  |                                                 | 
\*--------------------------------------------------------------------------*/ 
FoamFile
{
    version     2.0;
    format      ascii;
    class       volVectorField;
    location    "/home/james/dafoam/myRuns/bezier_coanda_opt/0.00000000001/";
    object      sens_CL_shapey;
}
// * * * * * * * * * * * * * * * * * * * * * * * * * * * * * * * * * * * * * //

dimensions      [0 0 0 0 0 0 0];
internalField   uniform (0 0 0);
boundaryField
{
    allWalls
    {
        type  wall;
        value nonuniform List<vector>
188
(
(-0.013271 0.004802 0.000166)
(-0.021159 0.007305 0.000056)
(-0.038187 0.021219 0.000056)
(-0.055114 0.034131 0.000166)
(-0.047533 0.036520 0.000166)
(-0.026804 0.025998 0.000152)
(-0.007929 0.015847 0.000152)
(-0.016119 0.028999 0.000166)
(-0.015839 0.029823 0.000236)
(-0.012342 0.028003 0.000356)
(-0.013425 0.034327 0.000460)
(-0.010840 0.032124 0.000579)
(-0.009085 0.030515 0.000712)
(-0.009432 0.035621 0.000860)
(-0.009391 0.039499 0.001027)
(-0.008884 0.042946 0.001212)
(-0.008613 0.047370 0.001426)
(-0.007821 0.050046 0.001650)
(-0.007348 0.055471 0.001885)
(-0.006638 0.061159 0.001638)
(-0.005764 0.067495 0.001884)
(-0.004791 0.077944 0.002628)
(-0.003249 0.082678 0.002932)
(-0.001065 0.105042 0.002599)
(0.002205 0.140468 0.002091)
(0.006252 0.145168 0.001981)
(0.010230 0.143113 0.001705)
(0.014376 0.149107 0.001404)
(0.018370 0.153738 0.001138)
(0.022211 0.157844 0.000524)
(0.025924 0.161946 0.000030)
(0.029521 0.166112 0.000023)
(0.032901 0.169832 0.000016)
(0.035964 0.172744 0.000010)
(0.038700 0.174925 0.000004)
(0.041033 0.176196 -0.000046)
(0.042935 0.176447 -0.000095)
(0.044379 0.175543 -0.000095)
(0.045268 0.173180 -0.000095)
(0.045666 0.169675 -0.000095)
(0.045582 0.165064 -0.000095)
(0.044703 0.158248 -0.000018)
(0.042889 0.148788 0.000059)
(0.041010 0.139708 0.000059)
(0.040544 0.135757 0.000059)
(0.038358 0.126266 0.000059)
(0.027960 0.090451 0.000059)
(0.028059 0.092293 -0.000056)
(0.038969 0.136714 -0.000172)
(0.005031 -0.017546 -0.000172)
(0.000291 -0.006641 -0.000172)
(-0.002150 0.004995 -0.000172)
(-0.002717 0.006009 -0.000056)
(-0.003760 0.010064 0.000059)
(-0.006340 0.017099 0.000059)
(-0.009178 0.024835 0.000059)
(-0.012191 0.034260 0.000059)
(-0.014591 0.043569 0.000059)
(-0.016758 0.054489 -0.000018)
(-0.015252 0.052911 -0.000095)
(-0.004953 0.024476 -0.000095)
(0.006794 -0.013259 -0.000095)
(0.010048 -0.030175 -0.000095)
(0.005181 -0.018178 -0.000095)
(0.000878 -0.007209 -0.000048)
(-0.000842 -0.001575 0.000001)
(-0.003537 0.012755 0.000004)
(-0.005898 0.028359 0.000008)
(-0.007005 0.039910 0.000011)
(-0.007313 0.049022 0.000015)
(-0.007055 0.056652 0.000207)
(-0.006304 0.062728 0.000421)
(-0.005156 0.067731 0.000467)
(-0.003683 0.072579 0.000514)
(-0.001943 0.075256 0.000545)
(-0.000090 0.078729 0.000532)
(0.001493 0.074355 0.000373)
(0.002021 0.050560 0.000372)
(0.003181 0.046531 0.000453)
(0.003363 0.042580 0.000355)
(0.003839 0.037353 0.000074)
(0.005190 0.042180 0.000009)
(0.004422 0.030311 0.000070)
(0.004493 0.026452 -0.000014)
(0.005604 0.029008 0.000042)
(0.005108 0.023996 0.000095)
(0.004659 0.019627 0.000145)
(0.005082 0.019671 0.000192)
(0.005453 0.019151 0.000234)
(0.006567 0.019112 0.000274)
(0.007019 0.015872 0.000311)
(0.007415 0.009993 0.000247)
(0.005550 -0.000122 0.000278)
(0.003199 -0.006824 0.000084)
(0.007194 0.001310 -0.000028)
(0.010774 0.017307 0.000166)
(0.003934 0.013207 0.000166)
(0.002602 -0.001768 0.000032)
(0.013010 0.000235 0.000032)
(0.010512 0.003965 0.000166)
(-0.012219 -0.025765 -0.000172)
(0.006033 0.145698 -0.000172)
(0.003555 0.132988 -0.000172)
(0.002861 0.128401 -0.000172)
(0.004643 0.186267 -0.000172)
(0.006828 0.241229 -0.000172)
(0.008443 0.276331 -0.000172)
(0.011082 0.353520 -0.000172)
(0.015898 0.504096 -0.000172)
(0.020357 0.658968 -0.000138)
(0.022032 0.649695 -0.000104)
(0.034414 0.940941 -0.000104)
(0.149054 3.585826 -0.000104)
(0.275857 7.370077 -0.000104)
(-10.632159 -28.672399 -0.000104)
(112.814326 -246.438346 -0.000104)
(-19.055724 -13.342526 -0.000104)
(-13.731736 -6.603336 -0.000104)
(-16.004153 -29.084652 -0.000104)
(-88.586659 243.641824 -0.000104)
(6.635706 75.352803 -0.000046)
(5.003881 34.933357 0.000011)
(2.071977 14.933276 0.000011)
(0.817218 1.424858 0.000011)
(2.282435 6.485487 0.000011)
(-1.125354 -2.258990 0.000011)
(-0.508544 -1.636807 0.000011)
(-1.287636 -1.957573 0.000011)
(-2.613581 -4.265408 0.000011)
(2.000090 2.465107 0.000011)
(2.458911 3.082419 0.000011)
(2.415386 2.457940 0.000011)
(4.406896 4.144214 0.000011)
(6.283394 5.272562 0.000011)
(16.354824 11.433427 0.000011)
(24.588108 15.283924 0.000011)
(16.517543 9.750825 0.000011)
(11.751385 5.993192 0.000011)
(34.405556 12.641573 0.000011)
(49.139140 14.300327 0.000011)
(-53.385558 -13.326094 0.000011)
(-195.555050 -33.058056 0.000011)
(-122.937646 -11.544800 0.000011)
(4.694926 4.704717 0.000011)
(58.713909 -4.270973 0.000011)
(68.850324 -10.038457 0.000011)
(33.854085 -7.858984 0.000011)
(16.499831 -4.107366 0.000011)
(-0.731373 -1.673715 0.000011)
(1.554824 -2.976351 0.000011)
(4.169876 -4.011192 0.000011)
(1.937663 -2.795480 0.000011)
(0.418081 -0.324355 0.000011)
(0.559849 0.378115 0.000011)
(1.271263 -0.055552 0.000011)
(1.051789 -0.220987 0.000011)
(0.682797 -0.224174 0.000011)
(0.433679 -0.220003 0.000011)
(0.310798 -0.227656 0.000011)
(0.190641 -0.164509 0.000011)
(0.062480 -0.042079 0.000011)
(0.008085 0.006640 0.000011)
(-0.015803 0.030066 0.000011)
(-0.027408 0.047268 0.000011)
(-0.028445 0.051181 0.000011)
(-0.024056 0.044805 0.000011)
(-0.017914 0.031864 0.000011)
(-0.011301 0.018554 -0.000046)
(-59.802033 0.008668 -0.000104)
(59.795651 0.001764 -0.000104)
(-0.002914 0.004348 -0.000104)
(0.001728 0.000133 -0.000104)
(-0.019052 0.050874 -0.000104)
(-0.032413 0.087908 -0.000104)
(-0.013162 0.049327 -0.000104)
(-0.006206 0.026492 -0.000104)
(-0.004227 0.018945 -0.000104)
(-0.003008 0.013242 -0.000104)
(-0.002223 0.011563 -0.000138)
(-0.001690 0.009344 -0.000172)
(-0.001368 0.007688 -0.000172)
(-0.001198 0.007776 -0.000172)
(-0.001011 0.006508 -0.000172)
(-0.000866 0.005539 -0.000172)
(-0.000548 0.004189 -0.000172)
(-0.000283 0.004506 -0.000172)
(-0.000122 0.005765 -0.000172)
(0.001078 -0.006242 -0.000172)
)
;
    }
}
