/*--------------------------------*- C++ -*---------------------------------*\ 
| ========                 |                                                 | 
| \      /  F ield         | OpenFOAM: The Open Source CFD Toolbox           | 
|  \    /   O peration     | Version:  v1812                                 | 
|   \  /    A nd           | Web:      www.OpenFOAM.com                      | 
|    \/     M anipulation  |                                                 | 
\*--------------------------------------------------------------------------*/ 
FoamFile
{
    version     2.0;
    format      ascii;
    class       volVectorField;
    location    "/home/james/dafoam/myRuns/bezier_coanda_opt/0.00000000001/";
    object      sens_CL_shapey;
}
// * * * * * * * * * * * * * * * * * * * * * * * * * * * * * * * * * * * * * //

dimensions      [0 0 0 0 0 0 0];
internalField   uniform (0 0 0);
boundaryField
{
    allWalls
    {
        type  wall;
        value nonuniform List<vector>
188
(
(0.000016 0.002705 0.000221)
(-0.032805 0.015045 0.000233)
(-0.052246 0.025641 0.000232)
(-0.061724 0.045143 0.000231)
(-0.035436 0.027811 0.000230)
(-0.005831 0.013735 0.000229)
(-0.016765 0.030670 0.000228)
(-0.011242 0.022085 0.000226)
(-0.014876 0.033598 0.000225)
(-0.013449 0.033998 0.000224)
(-0.008182 0.026602 0.000223)
(-0.009108 0.033054 0.000222)
(-0.008188 0.033709 0.000374)
(-0.007676 0.035892 0.000528)
(-0.007562 0.040580 0.000529)
(-0.006993 0.043513 0.000531)
(-0.006102 0.044788 0.000532)
(-0.005544 0.048887 0.000534)
(-0.004955 0.053712 0.001047)
(-0.004156 0.057548 0.001651)
(-0.003316 0.063248 0.001836)
(-0.002386 0.072550 0.002026)
(-0.001115 0.085974 0.002216)
(0.000543 0.099096 0.002397)
(0.003116 0.118594 0.002286)
(0.006158 0.130177 0.001669)
(0.008978 0.130999 0.001126)
(0.011111 0.129993 0.000895)
(0.013471 0.131334 0.000802)
(0.015788 0.137258 0.000635)
(0.017509 0.138258 0.000397)
(0.019513 0.140658 0.000292)
(0.021018 0.143164 -0.000151)
(0.022482 0.145329 -0.000302)
(0.023951 0.147305 -0.000256)
(0.025277 0.149014 -0.000304)
(0.026803 0.150245 -0.000167)
(0.028011 0.150797 -0.000203)
(0.028760 0.150715 -0.000228)
(0.029266 0.149940 -0.000217)
(0.029563 0.148400 -0.000215)
(0.029600 0.145833 -0.000225)
(0.029424 0.142732 -0.000203)
(0.029204 0.139576 -0.000194)
(0.028388 0.133494 -0.000198)
(0.026060 0.120717 -0.000188)
(0.024643 0.112299 -0.000163)
(0.028249 0.129503 -0.000148)
(0.030523 0.139447 -0.000152)
(0.007201 0.006439 -0.000152)
(-0.002869 0.012011 -0.000152)
(-0.004881 0.016530 -0.000152)
(-0.005669 0.021078 -0.000028)
(-0.007353 0.026494 0.000012)
(-0.008430 0.031229 0.000007)
(-0.008446 0.032624 0.000017)
(-0.007880 0.032046 0.000013)
(-0.004051 0.020877 0.000022)
(0.000059 0.004890 0.000020)
(0.001720 -0.004668 0.000074)
(0.001095 -0.003479 0.000052)
(-0.001868 0.008663 0.000055)
(-0.003973 0.017685 0.000084)
(-0.004600 0.021284 0.000092)
(-0.005785 0.027542 0.000102)
(-0.006829 0.034979 0.000176)
(-0.007237 0.041535 0.000273)
(-0.007564 0.047182 0.000227)
(-0.007355 0.052220 0.000300)
(-0.006757 0.056632 0.000473)
(-0.006192 0.060590 0.000519)
(-0.005397 0.063607 0.000564)
(-0.004479 0.067160 0.000608)
(-0.003330 0.068730 0.000650)
(-0.002188 0.068566 0.000754)
(-0.000967 0.080626 0.000580)
(0.000211 0.066940 0.000329)
(0.001203 0.045972 0.000305)
(0.002123 0.048228 0.000254)
(0.002642 0.043706 0.000213)
(0.002977 0.038511 0.000180)
(0.003331 0.034748 0.000155)
(0.003901 0.033657 0.000333)
(0.003673 0.027445 0.000523)
(0.003796 0.023942 0.000522)
(0.004878 0.027146 0.000522)
(0.004670 0.023661 0.000521)
(0.004368 0.019713 0.000520)
(0.004131 0.016784 0.000346)
(0.005338 0.017709 0.000175)
(0.007293 0.019036 0.000179)
(0.007227 0.012912 0.000182)
(0.006385 0.004421 0.000186)
(0.002879 -0.006502 0.000190)
(0.005025 -0.003564 0.000193)
(0.011468 0.014757 0.000197)
(0.005782 0.018114 0.000200)
(0.000900 0.002908 0.000203)
(0.008105 -0.002414 0.000205)
(0.008952 0.001433 0.000207)
(-0.004239 0.024347 -0.000152)
(0.004861 0.171217 -0.000152)
(0.003178 0.145518 -0.000152)
(0.004289 0.151884 -0.000152)
(0.006496 0.214889 -0.000152)
(0.008316 0.257291 -0.000152)
(0.010080 0.296481 -0.000152)
(0.013111 0.374865 -0.000152)
(0.018570 0.527990 -0.000152)
(0.023739 0.682214 -0.000121)
(0.024911 0.637924 -0.000089)
(0.038596 0.891635 -0.000089)
(0.165267 3.619380 -0.000089)
(0.312113 7.609066 -0.000089)
(-10.330428 -28.185398 -0.000089)
(97.309721 -231.858714 -0.000089)
(-18.720648 -12.738568 -0.000089)
(-13.299438 -6.285772 -0.000089)
(-15.612603 -28.989105 -0.000089)
(-73.863959 230.432590 -0.000089)
(6.252374 69.255026 -0.000040)
(4.516541 32.559794 0.000009)
(1.749452 13.542493 0.000009)
(0.809593 1.648036 0.000009)
(2.213061 6.490676 0.000009)
(-1.110604 -2.391728 0.000009)
(-0.420626 -1.594186 0.000009)
(-1.065766 -1.653110 0.000009)
(-2.058408 -3.444709 0.000009)
(2.380645 2.990600 0.000009)
(3.022109 3.703635 0.000009)
(3.654433 3.704413 0.000009)
(6.656872 6.149860 0.000009)
(10.390202 8.494610 0.000009)
(20.117402 14.230993 0.000009)
(24.765462 15.496816 0.000009)
(19.508782 10.888131 0.000009)
(16.407571 8.047693 0.000009)
(59.778749 17.564300 0.000009)
(-41.203077 -15.686109 0.000009)
(-193.328041 -45.604921 0.000009)
(-114.426201 -13.633882 0.000009)
(-4.924278 4.575641 0.000009)
(54.062136 -0.858842 0.000009)
(63.207684 -6.265810 0.000009)
(34.155648 -5.718775 0.000009)
(16.798323 -3.190844 0.000009)
(-0.246351 -1.653217 0.000009)
(1.801039 -2.421949 0.000009)
(3.429202 -2.985747 0.000009)
(2.481916 -2.855350 0.000009)
(1.631126 -0.912264 0.000009)
(0.177125 0.465859 0.000009)
(0.968790 0.116226 0.000009)
(0.874149 -0.119482 0.000009)
(0.565458 -0.150753 0.000009)
(0.368132 -0.151456 0.000009)
(0.217010 -0.126152 0.000009)
(0.098396 -0.069235 0.000009)
(0.027513 -0.021889 0.000009)
(-0.006261 0.005719 0.000009)
(-0.018396 0.017654 0.000009)
(-0.021114 0.021964 0.000009)
(-0.020025 0.022240 0.000009)
(-0.017896 0.021427 0.000009)
(-0.015233 0.018095 0.000009)
(-0.012043 0.012155 0.000009)
(-0.008378 0.008420 -0.000040)
(-59.803037 0.004751 -0.000089)
(59.798022 0.000983 -0.000089)
(-0.002593 0.003670 -0.000089)
(0.002218 0.000824 -0.000089)
(-0.007118 0.003461 -0.000089)
(-0.018222 0.021846 -0.000089)
(-0.009703 0.026595 -0.000089)
(-0.004686 0.020248 -0.000089)
(-0.002986 0.018685 -0.000089)
(-0.002032 0.017161 -0.000089)
(-0.001414 0.015843 -0.000121)
(-0.001101 0.014465 -0.000152)
(-0.001033 0.013987 -0.000152)
(-0.000968 0.013518 -0.000152)
(-0.000919 0.012934 -0.000152)
(-0.000907 0.012489 -0.000152)
(-0.000739 0.012460 -0.000152)
(-0.000574 0.012461 -0.000152)
(-0.000477 0.013262 -0.000152)
(-0.000863 0.012614 -0.000152)
)
;
    }
}
