/*--------------------------------*- C++ -*---------------------------------*\ 
| ========                 |                                                 | 
| \      /  F ield         | OpenFOAM: The Open Source CFD Toolbox           | 
|  \    /   O peration     | Version:  v1812                                 | 
|   \  /    A nd           | Web:      www.OpenFOAM.com                      | 
|    \/     M anipulation  |                                                 | 
\*--------------------------------------------------------------------------*/ 
FoamFile
{
    version     2.0;
    format      ascii;
    class       volVectorField;
    location    "/home/james/dafoam/myRuns/bezier_coanda_opt/0.00000000001/";
    object      sens_CL_shapey;
}
// * * * * * * * * * * * * * * * * * * * * * * * * * * * * * * * * * * * * * //

dimensions      [0 0 0 0 0 0 0];
internalField   uniform (0 0 0);
boundaryField
{
    allWalls
    {
        type  wall;
        value nonuniform List<vector>
188
(
(-0.013706 0.005317 0.000160)
(-0.022690 0.007710 0.000085)
(-0.039538 0.022272 0.000085)
(-0.058169 0.035982 0.000160)
(-0.049471 0.038244 0.000160)
(-0.026107 0.025417 0.000144)
(-0.006966 0.015470 0.000144)
(-0.015869 0.028809 0.000160)
(-0.015015 0.028827 0.000251)
(-0.012183 0.027529 0.000391)
(-0.014532 0.037331 0.000496)
(-0.011200 0.032836 0.000615)
(-0.008266 0.028351 0.000749)
(-0.009408 0.035610 0.000899)
(-0.009281 0.039305 0.001066)
(-0.008934 0.043294 0.001253)
(-0.008529 0.047156 0.001433)
(-0.007806 0.050110 0.001659)
(-0.007321 0.055513 0.001541)
(-0.006629 0.061307 0.001723)
(-0.005743 0.067540 0.002284)
(-0.004791 0.078332 0.002508)
(-0.003240 0.082783 0.002897)
(-0.001067 0.105155 0.002626)
(0.002174 0.140918 0.002081)
(0.006234 0.145769 0.001971)
(0.010220 0.143880 0.001695)
(0.014365 0.149798 0.001393)
(0.018366 0.154498 0.001127)
(0.022206 0.158593 0.000519)
(0.025922 0.162722 0.000030)
(0.029522 0.166920 0.000022)
(0.032900 0.170635 0.000016)
(0.035958 0.173537 0.000010)
(0.038694 0.175727 0.000004)
(0.041061 0.177008 -0.000045)
(0.042994 0.177259 -0.000092)
(0.044439 0.176357 -0.000092)
(0.045329 0.173991 -0.000092)
(0.045733 0.170496 -0.000092)
(0.045660 0.165907 -0.000092)
(0.044782 0.159073 -0.000016)
(0.042963 0.149566 0.000061)
(0.041115 0.140571 0.000061)
(0.040744 0.136952 0.000061)
(0.038563 0.127477 0.000061)
(0.027931 0.090833 0.000061)
(0.028353 0.093988 -0.000056)
(0.040046 0.141562 -0.000174)
(0.004480 -0.020593 -0.000174)
(0.000332 -0.006979 -0.000174)
(-0.002071 0.004660 -0.000174)
(-0.002613 0.005579 -0.000056)
(-0.003593 0.009534 0.000061)
(-0.006135 0.016518 0.000061)
(-0.008980 0.024261 0.000061)
(-0.011998 0.033608 0.000061)
(-0.014399 0.042805 0.000061)
(-0.016634 0.053876 -0.000016)
(-0.015466 0.053554 -0.000092)
(-0.005868 0.027496 -0.000092)
(0.005995 -0.010061 -0.000092)
(0.010158 -0.029883 -0.000092)
(0.005766 -0.020480 -0.000092)
(0.001163 -0.008605 -0.000047)
(-0.000975 -0.001202 0.000000)
(-0.003646 0.012998 0.000004)
(-0.005962 0.028339 0.000007)
(-0.007073 0.039875 0.000010)
(-0.007394 0.049058 0.000014)
(-0.007139 0.056697 0.000200)
(-0.006384 0.062758 0.000409)
(-0.005233 0.067762 0.000455)
(-0.003756 0.072597 0.000503)
(-0.002008 0.075251 0.000535)
(-0.000148 0.078707 0.000521)
(0.001463 0.074382 0.000389)
(0.002017 0.050599 0.000336)
(0.003195 0.046676 0.000352)
(0.003332 0.042315 0.000048)
(0.003828 0.037218 -0.000012)
(0.005221 0.042387 0.000048)
(0.004420 0.030220 -0.000059)
(0.004503 0.026431 -0.000001)
(0.005616 0.028973 0.000049)
(0.005130 0.024000 0.000102)
(0.004667 0.019612 0.000151)
(0.005096 0.019637 0.000197)
(0.005434 0.019028 0.000239)
(0.006593 0.019072 0.000278)
(0.007026 0.015809 0.000314)
(0.007353 0.009776 0.000347)
(0.005462 -0.000287 0.000261)
(0.003247 -0.006658 0.000069)
(0.007340 0.001710 0.000069)
(0.010567 0.017135 0.000160)
(0.003670 0.012412 0.000160)
(0.002612 -0.002572 0.000061)
(0.015219 0.000196 0.000061)
(0.014518 0.004310 0.000160)
(-0.013067 -0.029884 -0.000174)
(0.006702 0.149956 -0.000174)
(0.003912 0.136690 -0.000174)
(0.002983 0.130019 -0.000174)
(0.004777 0.187365 -0.000174)
(0.007018 0.243658 -0.000174)
(0.008638 0.279089 -0.000174)
(0.011309 0.356962 -0.000174)
(0.016204 0.508741 -0.000174)
(0.020699 0.664324 -0.000140)
(0.022347 0.659204 -0.000105)
(0.034746 0.961332 -0.000105)
(0.150316 3.612164 -0.000105)
(0.275898 7.359797 -0.000105)
(-10.583714 -28.733918 -0.000105)
(115.692408 -248.568588 -0.000105)
(-19.102586 -13.459884 -0.000105)
(-13.888630 -6.677550 -0.000105)
(-16.037493 -29.055513 -0.000105)
(-91.305163 245.496176 -0.000105)
(6.718490 76.419490 -0.000047)
(5.096385 35.394452 0.000012)
(2.106789 15.117928 0.000012)
(0.826179 1.426459 0.000012)
(2.311593 6.563577 0.000012)
(-1.148653 -2.313311 0.000012)
(-0.526043 -1.690617 0.000012)
(-1.311776 -2.002758 0.000012)
(-2.653210 -4.333375 0.000012)
(2.031872 2.502753 0.000012)
(2.494144 3.125992 0.000012)
(2.455866 2.497512 0.000012)
(4.474995 4.208176 0.000012)
(6.356840 5.335057 0.000012)
(16.564627 11.580791 0.000012)
(24.918790 15.486345 0.000012)
(16.443006 9.738797 0.000012)
(11.424182 5.853313 0.000012)
(34.590852 12.687070 0.000012)
(48.701157 14.183869 0.000012)
(-55.608054 -13.694400 0.000012)
(-197.308457 -33.133042 0.000012)
(-122.524000 -11.338407 0.000012)
(5.781352 4.813618 0.000012)
(59.895953 -4.312919 0.000012)
(69.689242 -10.122423 0.000012)
(33.935843 -7.923014 0.000012)
(16.435600 -4.147966 0.000012)
(-0.768541 -1.708618 0.000012)
(1.595350 -3.016563 0.000012)
(4.218615 -4.039198 0.000012)
(1.943619 -2.773210 0.000012)
(0.412305 -0.297756 0.000012)
(0.583431 0.384264 0.000012)
(1.280420 -0.049560 0.000012)
(1.055595 -0.217440 0.000012)
(0.685000 -0.222776 0.000012)
(0.434686 -0.219434 0.000012)
(0.310694 -0.227011 0.000012)
(0.189863 -0.163690 0.000012)
(0.062042 -0.041536 0.000012)
(0.007907 0.007135 0.000012)
(-0.015979 0.030519 0.000012)
(-0.027627 0.047612 0.000012)
(-0.028676 0.051450 0.000012)
(-0.024281 0.045029 0.000012)
(-0.018118 0.032022 0.000012)
(-0.011437 0.018652 -0.000047)
(-59.802007 0.008723 -0.000105)
(59.795557 0.001778 -0.000105)
(-0.002932 0.004369 -0.000105)
(0.001730 0.000117 -0.000105)
(-0.019228 0.051322 -0.000105)
(-0.032628 0.088546 -0.000105)
(-0.013208 0.049514 -0.000105)
(-0.006247 0.026520 -0.000105)
(-0.004270 0.018970 -0.000105)
(-0.003054 0.013313 -0.000105)
(-0.002260 0.011693 -0.000140)
(-0.001717 0.009486 -0.000174)
(-0.001388 0.007795 -0.000174)
(-0.001208 0.007770 -0.000174)
(-0.001009 0.006301 -0.000174)
(-0.000858 0.005138 -0.000174)
(-0.000539 0.003660 -0.000174)
(-0.000274 0.003997 -0.000174)
(-0.000111 0.005349 -0.000174)
(0.001083 -0.006617 -0.000174)
)
;
    }
}
