/*--------------------------------*- C++ -*---------------------------------*\ 
| ========                 |                                                 | 
| \      /  F ield         | OpenFOAM: The Open Source CFD Toolbox           | 
|  \    /   O peration     | Version:  v1812                                 | 
|   \  /    A nd           | Web:      www.OpenFOAM.com                      | 
|    \/     M anipulation  |                                                 | 
\*--------------------------------------------------------------------------*/ 
FoamFile
{
    version     2.0;
    format      ascii;
    class       volVectorField;
    location    "/home/james/dafoam/myRuns/bezier_coanda_opt/0.00000000001/";
    object      sens_CL_shapey;
}
// * * * * * * * * * * * * * * * * * * * * * * * * * * * * * * * * * * * * * //

dimensions      [0 0 0 0 0 0 0];
internalField   uniform (0 0 0);
boundaryField
{
    allWalls
    {
        type  wall;
        value nonuniform List<vector>
188
(
(-0.013542 0.005786 0.000077)
(-0.023215 0.007986 0.000001)
(-0.041397 0.023579 0.000001)
(-0.062254 0.038559 0.000077)
(-0.052194 0.040542 0.000077)
(-0.027192 0.026957 0.000100)
(-0.006371 0.015447 0.000100)
(-0.015337 0.028817 0.000077)
(-0.014610 0.028593 0.000330)
(-0.011725 0.027066 0.000630)
(-0.014332 0.037285 0.000729)
(-0.010864 0.032326 0.000738)
(-0.008015 0.027894 0.000812)
(-0.008991 0.034192 0.000971)
(-0.009375 0.039951 0.001104)
(-0.009188 0.044532 0.001297)
(-0.008372 0.046574 0.001489)
(-0.007784 0.050186 0.001781)
(-0.007311 0.055675 0.002057)
(-0.006621 0.061499 0.002232)
(-0.005739 0.067757 0.002524)
(-0.004800 0.078925 0.002799)
(-0.003236 0.082996 0.003113)
(-0.001061 0.105486 0.002660)
(0.002158 0.141807 0.001982)
(0.006253 0.146890 0.001870)
(0.010263 0.145310 0.001592)
(0.014420 0.151105 0.001289)
(0.018450 0.155943 0.001022)
(0.022305 0.160041 0.000415)
(0.026042 0.164224 -0.000072)
(0.029664 0.168495 -0.000079)
(0.033048 0.172195 -0.000086)
(0.036116 0.175098 -0.000092)
(0.038864 0.177316 -0.000097)
(0.041267 0.178588 -0.000049)
(0.043230 0.178801 0.000001)
(0.044661 0.177815 0.000000)
(0.045554 0.175431 0.000000)
(0.045971 0.171952 0.000000)
(0.045901 0.167336 0.000000)
(0.045013 0.160431 0.000074)
(0.043149 0.150730 0.000147)
(0.041318 0.141786 0.000147)
(0.041112 0.138768 0.000147)
(0.038936 0.129325 0.000147)
(0.027853 0.091179 0.000147)
(0.028757 0.096323 -0.000015)
(0.041734 0.148994 -0.000177)
(0.003507 -0.026022 -0.000177)
(0.000380 -0.007346 -0.000177)
(-0.001926 0.004038 -0.000177)
(-0.002460 0.004796 -0.000015)
(-0.003394 0.008540 0.000147)
(-0.005904 0.015414 0.000147)
(-0.008792 0.023333 0.000147)
(-0.011783 0.032676 0.000147)
(-0.014111 0.041617 0.000147)
(-0.016353 0.052627 0.000074)
(-0.015503 0.053461 0.000000)
(-0.006653 0.029848 0.000000)
(0.005059 -0.006642 0.000000)
(0.010048 -0.029314 0.000000)
(0.006376 -0.023530 0.000000)
(0.001328 -0.009680 -0.000051)
(-0.001454 0.000843 -0.000102)
(-0.004008 0.014595 -0.000099)
(-0.006170 0.029210 -0.000095)
(-0.007249 0.040596 -0.000092)
(-0.007557 0.049745 -0.000089)
(-0.007277 0.057272 0.000095)
(-0.006500 0.063224 0.000301)
(-0.005329 0.068133 0.000348)
(-0.003835 0.072866 0.000395)
(-0.002071 0.075389 0.000428)
(-0.000196 0.078799 0.000415)
(0.001439 0.074438 0.000353)
(0.002018 0.050679 0.000330)
(0.003205 0.046790 0.000303)
(0.003305 0.042028 0.000221)
(0.003818 0.037071 0.000118)
(0.005236 0.042459 0.000034)
(0.004416 0.030112 0.000087)
(0.004509 0.026405 0.000153)
(0.005607 0.028854 0.000145)
(0.005141 0.023972 0.000140)
(0.004678 0.019632 0.000136)
(0.005085 0.019542 0.000026)
(0.005424 0.018913 -0.000088)
(0.006586 0.018952 0.000020)
(0.006981 0.015617 0.000133)
(0.007286 0.009592 0.000105)
(0.005361 -0.000344 -0.000018)
(0.003335 -0.006258 -0.000110)
(0.007444 0.002191 -0.000015)
(0.010191 0.016652 0.000077)
(0.003590 0.011089 0.000077)
(0.003837 -0.003553 -0.000025)
(0.018178 0.000362 -0.000025)
(0.017764 0.004814 0.000077)
(-0.014506 -0.037049 -0.000177)
(0.007758 0.156452 -0.000177)
(0.004468 0.142459 -0.000177)
(0.003145 0.132435 -0.000177)
(0.004932 0.188670 -0.000177)
(0.007245 0.247077 -0.000177)
(0.008870 0.283186 -0.000177)
(0.011570 0.362138 -0.000177)
(0.016542 0.515638 -0.000177)
(0.021050 0.672277 -0.000141)
(0.022672 0.674786 -0.000106)
(0.034992 0.995697 -0.000106)
(0.151245 3.651689 -0.000106)
(0.272544 7.326260 -0.000106)
(-10.496364 -28.861798 -0.000106)
(119.808810 -251.494530 -0.000106)
(-19.195045 -13.654729 -0.000106)
(-14.139486 -6.794212 -0.000106)
(-16.069167 -29.008937 -0.000106)
(-95.173086 248.077107 -0.000106)
(6.843916 77.943388 -0.000047)
(5.238374 36.064251 0.000012)
(2.161862 15.397457 0.000012)
(0.839440 1.428741 0.000012)
(2.352217 6.671376 0.000012)
(-1.184984 -2.396002 0.000012)
(-0.551903 -1.767405 0.000012)
(-1.351314 -2.075007 0.000012)
(-2.721619 -4.450780 0.000012)
(2.079174 2.555342 0.000012)
(2.548510 3.191610 0.000012)
(2.517877 2.555915 0.000012)
(4.585317 4.310113 0.000012)
(6.485796 5.442277 0.000012)
(16.931264 11.836211 0.000012)
(25.484434 15.833391 0.000012)
(16.487140 9.800238 0.000012)
(11.122192 5.731579 0.000012)
(35.008776 12.814147 0.000012)
(48.575797 14.153567 0.000012)
(-58.582786 -14.236178 0.000012)
(-201.027873 -33.519587 0.000012)
(-123.209445 -11.221914 0.000012)
(7.028335 4.968362 0.000012)
(61.763504 -4.394043 0.000012)
(71.275273 -10.283602 0.000012)
(34.434720 -8.013537 0.000012)
(16.621761 -4.179410 0.000012)
(-0.743283 -1.739805 0.000012)
(1.695138 -3.069456 0.000012)
(4.324432 -4.079307 0.000012)
(1.968223 -2.753448 0.000012)
(0.405161 -0.262287 0.000012)
(0.606853 0.398544 0.000012)
(1.294808 -0.039964 0.000012)
(1.063608 -0.211975 0.000012)
(0.689349 -0.220029 0.000012)
(0.436659 -0.217905 0.000012)
(0.311552 -0.226202 0.000012)
(0.189862 -0.162841 0.000012)
(0.061455 -0.040215 0.000012)
(0.007262 0.008463 0.000012)
(-0.016578 0.031761 0.000012)
(-0.028165 0.048747 0.000012)
(-0.029115 0.052387 0.000012)
(-0.024615 0.045713 0.000012)
(-0.018359 0.032436 0.000012)
(-0.011576 0.018860 -0.000047)
(-59.801985 0.008825 -0.000106)
(59.795470 0.001801 -0.000106)
(-0.002965 0.004421 -0.000106)
(0.001794 0.000067 -0.000106)
(-0.019460 0.051974 -0.000106)
(-0.032997 0.089363 -0.000106)
(-0.013296 0.049437 -0.000106)
(-0.006327 0.026178 -0.000106)
(-0.004349 0.018596 -0.000106)
(-0.003130 0.012933 -0.000106)
(-0.002321 0.011325 -0.000141)
(-0.001762 0.009102 -0.000177)
(-0.001426 0.007403 -0.000177)
(-0.001237 0.007373 -0.000177)
(-0.001035 0.005868 -0.000177)
(-0.000884 0.004681 -0.000177)
(-0.000565 0.003186 -0.000177)
(-0.000295 0.003512 -0.000177)
(-0.000119 0.004839 -0.000177)
(0.001060 -0.006975 -0.000177)
)
;
    }
}
