/*--------------------------------*- C++ -*---------------------------------*\ 
| ========                 |                                                 | 
| \      /  F ield         | OpenFOAM: The Open Source CFD Toolbox           | 
|  \    /   O peration     | Version:  v1812                                 | 
|   \  /    A nd           | Web:      www.OpenFOAM.com                      | 
|    \/     M anipulation  |                                                 | 
\*--------------------------------------------------------------------------*/ 
FoamFile
{
    version     2.0;
    format      ascii;
    class       volVectorField;
    location    "/home/james/dafoam/myRuns/bezier_coanda_opt/0.00000000001/";
    object      sens_CL_shapey;
}
// * * * * * * * * * * * * * * * * * * * * * * * * * * * * * * * * * * * * * //

dimensions      [0 0 0 0 0 0 0];
internalField   uniform (0 0 0);
boundaryField
{
    allWalls
    {
        type  wall;
        value nonuniform List<vector>
188
(
(-0.011433 0.002832 0.000219)
(-0.031743 0.012494 0.000231)
(-0.040732 0.020725 0.000230)
(-0.042565 0.030580 0.000230)
(-0.026046 0.021637 0.000230)
(-0.006735 0.011821 0.000229)
(-0.016131 0.027868 0.000229)
(-0.015185 0.027226 0.000229)
(-0.013479 0.030013 0.000229)
(-0.013675 0.034759 0.000229)
(-0.009884 0.030739 0.000229)
(-0.009560 0.034314 0.000229)
(-0.008617 0.035307 0.000367)
(-0.007831 0.036864 0.000504)
(-0.007455 0.040526 0.000504)
(-0.006796 0.043115 0.000505)
(-0.005933 0.044495 0.000505)
(-0.005332 0.048331 0.000505)
(-0.004743 0.053028 0.001009)
(-0.003938 0.056584 0.001599)
(-0.003124 0.062518 0.001772)
(-0.002206 0.071671 0.001950)
(-0.000950 0.081244 0.002127)
(0.000840 0.097324 0.002296)
(0.003318 0.116792 0.002073)
(0.005975 0.124049 0.001639)
(0.008463 0.125681 0.001351)
(0.010617 0.126627 0.001058)
(0.012289 0.124221 0.000808)
(0.014615 0.129817 0.000600)
(0.016647 0.133961 0.000101)
(0.018055 0.133626 -0.000036)
(0.019752 0.136544 -0.000121)
(0.021220 0.138437 -0.000238)
(0.022575 0.140448 -0.000194)
(0.023749 0.141902 -0.000264)
(0.024772 0.143147 -0.000159)
(0.025637 0.143792 -0.000208)
(0.026316 0.143799 -0.000229)
(0.026816 0.143235 -0.000222)
(0.027113 0.141942 -0.000193)
(0.027180 0.139767 -0.000142)
(0.027027 0.136810 -0.000183)
(0.026762 0.133497 -0.000156)
(0.026229 0.128685 -0.000035)
(0.024708 0.119386 -0.000112)
(0.023023 0.108907 -0.000225)
(0.024044 0.112786 -0.000183)
(0.025049 0.115185 -0.000143)
(0.011274 0.036561 -0.000143)
(-0.003187 0.014906 -0.000143)
(-0.005248 0.018324 -0.000143)
(-0.005952 0.022639 0.000008)
(-0.007175 0.026359 0.000018)
(-0.008608 0.033220 -0.000015)
(-0.007738 0.030736 -0.000003)
(-0.004829 0.020795 -0.000004)
(-0.002339 0.013541 0.000092)
(-0.000766 0.006250 0.000108)
(0.000372 0.000674 0.000123)
(-0.000769 0.004002 0.000115)
(-0.003100 0.013763 0.000115)
(-0.004487 0.021087 0.000123)
(-0.005189 0.025615 0.000127)
(-0.006007 0.031733 0.000133)
(-0.006671 0.038084 0.000142)
(-0.007071 0.043811 0.000190)
(-0.007164 0.048859 0.000200)
(-0.007017 0.053381 0.000346)
(-0.006672 0.057393 0.000432)
(-0.006133 0.060948 0.000407)
(-0.005405 0.063914 0.000507)
(-0.004506 0.066892 0.000569)
(-0.003428 0.069012 0.000633)
(-0.002219 0.071762 0.000677)
(-0.000944 0.078422 0.000827)
(0.000141 0.063998 0.000635)
(0.001109 0.047941 0.000281)
(0.001884 0.046839 0.000235)
(0.002566 0.044440 0.000199)
(0.002960 0.040356 0.000171)
(0.003161 0.034310 0.000150)
(0.003785 0.033849 0.000322)
(0.003617 0.027837 0.000504)
(0.003739 0.024256 0.000503)
(0.004780 0.027240 0.000503)
(0.004554 0.023590 0.000503)
(0.004496 0.020605 0.000503)
(0.004757 0.019325 0.000338)
(0.004940 0.016752 0.000175)
(0.006820 0.017539 0.000179)
(0.007695 0.014052 0.000183)
(0.006736 0.005037 0.000186)
(0.003024 -0.006355 0.000190)
(0.005140 -0.003538 0.000193)
(0.011882 0.015411 0.000196)
(0.006445 0.020808 0.000199)
(-0.001514 0.006652 0.000202)
(-0.000949 -0.001879 0.000205)
(-0.002459 0.000210 0.000207)
(0.000693 0.054725 -0.000143)
(0.002008 0.145497 -0.000143)
(0.001770 0.127165 -0.000143)
(0.004197 0.149010 -0.000143)
(0.006426 0.211463 -0.000143)
(0.007993 0.246912 -0.000143)
(0.009674 0.282217 -0.000143)
(0.012653 0.355990 -0.000143)
(0.018115 0.504952 -0.000143)
(0.023408 0.653645 -0.000115)
(0.024392 0.580870 -0.000088)
(0.038478 0.770663 -0.000088)
(0.166296 3.475549 -0.000088)
(0.336525 7.682294 -0.000088)
(-10.669178 -27.606320 -0.000088)
(79.713465 -219.554467 -0.000088)
(-18.484297 -11.950279 -0.000088)
(-12.316841 -5.816516 -0.000088)
(-15.481186 -29.057124 -0.000088)
(-57.205510 219.601837 -0.000088)
(5.712293 62.659704 -0.000039)
(3.899328 29.739870 0.000010)
(1.495534 12.328777 0.000010)
(0.753190 1.652586 0.000010)
(2.049428 6.081243 0.000010)
(-0.979929 -2.102682 0.000010)
(-0.309934 -1.292620 0.000010)
(-0.904557 -1.361293 0.000010)
(-1.816084 -3.029460 0.000010)
(2.197254 2.774666 0.000010)
(2.829986 3.465885 0.000010)
(3.430038 3.488886 0.000010)
(6.214575 5.741499 0.000010)
(9.841370 8.041126 0.000010)
(18.972748 13.418956 0.000010)
(23.203191 14.547349 0.000010)
(19.093591 10.592570 0.000010)
(17.865445 8.637466 0.000010)
(57.252331 17.216227 0.000010)
(-35.985340 -13.993075 0.000010)
(-175.587991 -42.409682 0.000010)
(-110.677991 -14.926770 0.000010)
(-9.572974 2.340574 0.000010)
(50.022222 -0.671682 0.000010)
(57.564736 -5.714761 0.000010)
(31.558355 -5.280298 0.000010)
(14.965438 -2.661994 0.000010)
(-0.613380 -1.394801 0.000010)
(1.611187 -2.467681 0.000010)
(4.139645 -3.417495 0.000010)
(2.145475 -2.616743 0.000010)
(0.578425 -0.406573 0.000010)
(0.491006 0.340240 0.000010)
(1.123204 0.022737 0.000010)
(0.871778 -0.121133 0.000010)
(0.555262 -0.146573 0.000010)
(0.366872 -0.150951 0.000010)
(0.200282 -0.106462 0.000010)
(0.086404 -0.051081 0.000010)
(0.026151 -0.016225 0.000010)
(-0.003179 0.004274 0.000010)
(-0.014758 0.013881 0.000010)
(-0.017800 0.017445 0.000010)
(-0.017351 0.018042 0.000010)
(-0.015915 0.018266 0.000010)
(-0.013842 0.015873 0.000010)
(-0.011023 0.010603 0.000010)
(-0.007748 0.007560 -0.000039)
(-59.803216 0.004279 -0.000088)
(59.798535 0.000800 -0.000088)
(-0.002640 0.003693 -0.000088)
(0.002613 0.000625 -0.000088)
(-0.003768 -0.007186 -0.000088)
(-0.015567 0.012191 -0.000088)
(-0.010208 0.026177 -0.000088)
(-0.005178 0.019189 -0.000088)
(-0.003285 0.018574 -0.000088)
(-0.002215 0.017019 -0.000088)
(-0.001563 0.015608 -0.000115)
(-0.001224 0.014254 -0.000143)
(-0.001131 0.014146 -0.000143)
(-0.001045 0.013909 -0.000143)
(-0.000987 0.013499 -0.000143)
(-0.000968 0.013124 -0.000143)
(-0.000788 0.013336 -0.000143)
(-0.000620 0.013582 -0.000143)
(-0.000613 0.014822 -0.000143)
(-0.001282 0.016232 -0.000143)
)
;
    }
}
