/*--------------------------------*- C++ -*----------------------------------*\
  =========                 |
  \\      /  F ield         | OpenFOAM: The Open Source CFD Toolbox
   \\    /   O peration     | Website:  https://openfoam.org
    \\  /    A nd           | Version:  8
     \\/     M anipulation  |
\*---------------------------------------------------------------------------*/
FoamFile
{
    version     2.0;
    format      ascii;
    class       volScalarField;
    location    "100";
    object      epsilon;
}
// * * * * * * * * * * * * * * * * * * * * * * * * * * * * * * * * * * * * * //

dimensions      [0 2 -3 0 0 0 0];

internalField   nonuniform List<scalar> 
1250
(
8.33267e-05
0.000105336
0.000122706
0.00013626
0.000153021
0.000159314
0.000172156
0.000202418
0.00034934
0.00449051
0.02215
0.0353171
0.0442587
0.0513524
0.0572734
0.0622047
0.0663819
0.0700366
0.0734657
0.0767068
0.0798893
0.0828177
0.0855501
0.0879973
0.090223
0.0924033
0.0943292
0.0962562
0.0978518
0.0995071
0.100956
0.102354
0.103526
0.10461
0.105541
0.106435
0.107254
0.108186
0.109042
0.109806
0.110012
0.110885
0.111242
0.111337
0.11199
0.112129
0.112132
0.112477
0.112472
0.112358
8.33202e-05
0.000105347
0.000122608
0.000136229
0.00015302
0.000159313
0.000172265
0.000203515
0.000330655
0.00431025
0.022099
0.0352399
0.0441638
0.0512411
0.0571411
0.0620545
0.0662178
0.069864
0.073276
0.0765024
0.0796836
0.0826129
0.0853073
0.0877501
0.0899717
0.0921515
0.0940733
0.0959994
0.0975934
0.0992502
0.100701
0.102102
0.103277
0.104352
0.105262
0.106154
0.106981
0.107924
0.108787
0.109555
0.109759
0.110634
0.110993
0.111087
0.111742
0.111882
0.111884
0.11223
0.112227
0.112111
8.3343e-05
0.000105343
0.000122277
0.000136183
0.000153014
0.000159346
0.000172023
0.000203515
0.000331025
0.00417252
0.0220358
0.0351661
0.0440892
0.051166
0.0570428
0.0619306
0.0660954
0.0697475
0.073151
0.0763804
0.0795768
0.082509
0.0851908
0.0876334
0.0898558
0.0920389
0.0939616
0.095888
0.0974849
0.0991458
0.1006
0.102005
0.103184
0.10426
0.105162
0.106035
0.106866
0.107825
0.1087
0.109474
0.10968
0.110555
0.110915
0.111008
0.111664
0.111803
0.111806
0.11215
0.112155
0.112033
8.33209e-05
0.000105355
0.000122199
0.000136178
0.000153005
0.000159323
0.000172034
0.000204222
0.000335323
0.00430609
0.0219566
0.0351161
0.0440597
0.0511497
0.0570328
0.061931
0.0661088
0.0697719
0.0731853
0.0764272
0.0796233
0.0825608
0.0852569
0.0877045
0.0899317
0.0921183
0.0940463
0.0959738
0.0975739
0.0992371
0.100693
0.102101
0.103278
0.104347
0.105248
0.10614
0.106978
0.107934
0.108805
0.109577
0.109785
0.11066
0.11102
0.111115
0.11177
0.111909
0.111912
0.112256
0.112262
0.11214
8.33734e-05
0.000105289
0.000122675
0.00013624
0.000153037
0.000159275
0.000172382
0.00020232
0.00033035
0.00447253
0.0220328
0.0352301
0.0441932
0.0512994
0.0572163
0.0621534
0.0663419
0.070008
0.0734396
0.0766914
0.0798846
0.0828201
0.0855544
0.088005
0.0902346
0.0924195
0.0943498
0.0962782
0.0978779
0.099537
0.10099
0.102391
0.103563
0.10464
0.105566
0.106472
0.107299
0.108236
0.109094
0.10986
0.110069
0.11094
0.111297
0.111394
0.112046
0.112185
0.11219
0.112532
0.112531
0.112415
8.64419e-05
8.73913e-05
9.08265e-05
9.75425e-05
0.000105768
0.000112933
0.000119278
0.000130581
0.000146575
0.000366636
0.00204624
0.00714996
0.013251
0.01871
0.0238763
0.028317
0.0323901
0.0358503
0.039409
0.0426118
0.0452864
0.0474967
0.0496345
0.0514572
0.0530631
0.0547232
0.0561607
0.0576002
0.0588483
0.0602726
0.0616794
0.0631588
0.0644246
0.0657248
0.0667701
0.0676766
0.0685119
0.0695081
0.0705509
0.0718178
0.0719931
0.0730779
0.0739702
0.0740312
0.0748411
0.0752465
0.0752233
0.0757685
0.0757931
0.0757176
8.64421e-05
8.73915e-05
9.08319e-05
9.74877e-05
0.000105905
0.000112923
0.000119367
0.000129669
0.000148093
0.000395356
0.00214885
0.00730051
0.0132924
0.0187533
0.0239155
0.0283624
0.0323088
0.035693
0.0392436
0.042441
0.0453012
0.0474537
0.0494851
0.0512943
0.0528974
0.0546031
0.0560212
0.0575498
0.0587965
0.0602468
0.0616564
0.0631071
0.0644186
0.0657221
0.0666832
0.0674642
0.0683069
0.0693715
0.070453
0.0717108
0.0718738
0.0729493
0.0738361
0.073891
0.0747
0.0751051
0.0750733
0.0756163
0.0756434
0.0755653
8.64421e-05
8.73924e-05
9.08417e-05
9.75162e-05
0.000105756
0.000112902
0.000119391
0.000129883
0.000147459
0.000341866
0.00195928
0.00702024
0.0130998
0.0187345
0.0237856
0.028234
0.0321592
0.0357884
0.0391234
0.0425011
0.0453281
0.0475315
0.0494118
0.0512041
0.0528036
0.0545911
0.0559539
0.0574664
0.0587289
0.0602271
0.0616436
0.0631144
0.0644503
0.0656101
0.066372
0.0671683
0.0681192
0.0692787
0.0704084
0.0716765
0.0718403
0.0729136
0.0737974
0.0738493
0.0746599
0.0750404
0.0750145
0.0755316
0.0756112
0.0755042
8.64422e-05
8.73922e-05
9.08357e-05
9.75079e-05
0.000105899
0.000112958
0.000119219
0.000130454
0.000147389
0.000378231
0.00207687
0.00721282
0.0131696
0.0186794
0.0236076
0.0281219
0.032051
0.0358743
0.0391562
0.0425998
0.0452579
0.0475813
0.0494423
0.0512378
0.0528371
0.054652
0.0560351
0.0574257
0.0586825
0.0601796
0.0615938
0.0630982
0.0643911
0.0655506
0.0663761
0.0672022
0.06814
0.069281
0.0704136
0.0716952
0.0718728
0.0729567
0.0738452
0.0739016
0.0747156
0.0750915
0.0750719
0.0755908
0.0757212
0.0755565
8.64422e-05
8.73929e-05
9.08492e-05
9.74904e-05
0.000105888
0.000112945
0.000119324
0.000129841
0.000146883
0.000334885
0.00192811
0.00691361
0.0132426
0.0187261
0.0236513
0.0281321
0.0322317
0.0359011
0.0393184
0.0426583
0.0452228
0.047555
0.0495818
0.0513967
0.0530019
0.0547193
0.0561513
0.0575109
0.0587632
0.0601962
0.0616088
0.0631171
0.0644047
0.0656353
0.0666318
0.0675259
0.0684036
0.0694497
0.0705275
0.0718123
0.0719998
0.0730872
0.0739826
0.074048
0.0748561
0.0752455
0.0752294
0.0757735
0.0758137
0.0757366
0.000106287
0.000114319
0.000131274
0.000166431
0.000204114
0.000241233
0.000295571
0.00035578
0.000405096
0.000467951
0.000603142
0.000969065
0.00181358
0.00382493
0.00722459
0.0104546
0.0137323
0.0171784
0.0206333
0.0240403
0.0267758
0.0285593
0.030077
0.0313374
0.0323677
0.0333447
0.0339995
0.0348899
0.0355862
0.0364963
0.0374493
0.0385982
0.039534
0.0406059
0.0416625
0.0427148
0.0438878
0.045165
0.0463751
0.0479356
0.0480807
0.0492351
0.0505889
0.0506987
0.0517055
0.0525954
0.0526615
0.0534602
0.0536756
0.0535454
0.000106308
0.000114269
0.0001311
0.000166053
0.000203453
0.000241034
0.0002938
0.000355662
0.000405658
0.000467435
0.000593843
0.000907758
0.00187591
0.00399067
0.00697883
0.0105438
0.0138692
0.0169288
0.0206512
0.0239154
0.0267361
0.0285943
0.0300295
0.0312585
0.032313
0.0332383
0.0339184
0.0348198
0.0355149
0.0364383
0.0374128
0.0384998
0.039451
0.0405651
0.0415976
0.0427027
0.0438846
0.0451682
0.0463599
0.0478986
0.0480396
0.0491966
0.0505519
0.0506477
0.0516552
0.0525368
0.0525642
0.0533799
0.0534932
0.0534659
0.000106299
0.000114288
0.00013108
0.000166187
0.000203912
0.0002414
0.000295291
0.000356482
0.000403909
0.000472994
0.0005896
0.000940478
0.00175391
0.00377487
0.00716471
0.0103321
0.0136094
0.0171178
0.0204779
0.0239974
0.0266635
0.0285895
0.0300089
0.031177
0.0322019
0.0331765
0.0338472
0.0347409
0.0354338
0.0363735
0.0373448
0.0384671
0.0394396
0.040516
0.0415165
0.0426465
0.0438547
0.0451627
0.0463689
0.0478918
0.0480413
0.049191
0.0505394
0.0506286
0.0516391
0.0524599
0.0525042
0.0533429
0.0535674
0.0534231
0.000106304
0.000114331
0.000131349
0.000166552
0.000204008
0.000240625
0.000295984
0.000356757
0.000405089
0.000472223
0.000610491
0.000985808
0.00182568
0.00394331
0.00691178
0.0104765
0.0138006
0.0169257
0.0206235
0.0240875
0.0267373
0.0285878
0.0299692
0.0311532
0.0321523
0.0332704
0.0338401
0.0347205
0.0354072
0.0363459
0.0373018
0.0385324
0.0395152
0.0405035
0.0415115
0.0426058
0.0438123
0.0451236
0.04638
0.0479034
0.0480526
0.0491954
0.0505412
0.0506363
0.0516499
0.0524749
0.0525388
0.0533611
0.0536428
0.053463
0.0001063
0.000114289
0.000131088
0.000165945
0.000203484
0.000240593
0.00029326
0.000355724
0.000405326
0.000472435
0.000594135
0.000926555
0.00175668
0.0037191
0.00707129
0.0102745
0.0135605
0.0170744
0.0204733
0.0239224
0.0266453
0.0286026
0.0300185
0.0312521
0.032265
0.0333475
0.0339414
0.0348173
0.0355115
0.0364256
0.0373795
0.0385941
0.0395535
0.0405644
0.0416117
0.0426337
0.0438147
0.0451111
0.0463602
0.0479135
0.0480646
0.0492258
0.0505762
0.0506892
0.0516954
0.0525768
0.052615
0.0534326
0.0537148
0.0535429
0.000237313
0.000349768
0.000523045
0.000778721
0.00105043
0.00143305
0.00188804
0.00234684
0.00276633
0.00317462
0.00352652
0.0037301
0.00386511
0.00408544
0.00459571
0.0057629
0.00766565
0.0101058
0.0127793
0.0157322
0.018469
0.0205805
0.0223015
0.0236551
0.0247572
0.0248827
0.0250245
0.0256551
0.0260328
0.0265984
0.0270565
0.0279282
0.0285689
0.0293553
0.0302258
0.0311605
0.0323314
0.0334296
0.0346234
0.0363566
0.0363764
0.0375249
0.0392548
0.0394215
0.040586
0.0418241
0.0423349
0.0431023
0.0432675
0.0433077
0.000237129
0.000350895
0.00052589
0.00077919
0.00104836
0.00143639
0.00188895
0.00234925
0.002769
0.0031754
0.00352947
0.00372869
0.00386122
0.00411119
0.00456577
0.00566316
0.00752607
0.00988518
0.0129156
0.0158898
0.0186124
0.02072
0.0224376
0.0234947
0.0247546
0.0250602
0.0248516
0.0255619
0.0259072
0.0264649
0.0271205
0.0278552
0.028602
0.0293925
0.0302014
0.0312018
0.0323384
0.0334305
0.0346834
0.0363438
0.0364248
0.0375551
0.0392817
0.0394156
0.0405963
0.0418883
0.0420068
0.042961
0.0433854
0.0432095
0.000237735
0.000349439
0.000527387
0.000780435
0.00104947
0.0014409
0.00189217
0.00234894
0.0027689
0.00317817
0.00352911
0.00372687
0.00386098
0.00407889
0.00457936
0.0057313
0.0076269
0.0100245
0.0130396
0.0160369
0.0187439
0.0208108
0.0225326
0.0236098
0.0246393
0.0250072
0.0249955
0.0256249
0.0259317
0.0265002
0.0270431
0.0279055
0.0285587
0.029379
0.0301625
0.0311783
0.0322832
0.0334673
0.0346604
0.0363799
0.0364227
0.0376142
0.039277
0.0394119
0.0405728
0.0418575
0.0419598
0.042974
0.0431913
0.0432449
0.000237982
0.000349692
0.000531894
0.000780876
0.00105009
0.00143705
0.00189188
0.00234881
0.00276669
0.00317461
0.00353064
0.0037261
0.00386113
0.00409971
0.00463164
0.00563994
0.00748148
0.00981165
0.0127761
0.0157833
0.018513
0.0206238
0.0223426
0.02366
0.0247591
0.0248965
0.0249708
0.0256336
0.0260071
0.0265721
0.0271116
0.027906
0.0286192
0.0294078
0.0301753
0.031142
0.0322486
0.0334911
0.0346194
0.0363681
0.0364298
0.0376056
0.0392601
0.0393889
0.0405502
0.0418625
0.0419468
0.0429505
0.043456
0.0432363
0.000237753
0.000349386
0.000523769
0.000779082
0.0010515
0.00143299
0.00188757
0.00234937
0.00276814
0.00317568
0.00352946
0.00372307
0.00385818
0.00411884
0.00456586
0.00571045
0.00757544
0.00993451
0.0129337
0.0159543
0.0186781
0.0207595
0.0224824
0.0235543
0.0246009
0.0249581
0.0249654
0.0255733
0.0259287
0.0264747
0.027127
0.0278684
0.0286044
0.0293911
0.0302099
0.0310972
0.0322601
0.0334468
0.0345824
0.0363356
0.0364085
0.0375666
0.0392659
0.0394176
0.0405603
0.0418486
0.0420705
0.0429752
0.0434675
0.0432491
0.00477602
0.00494745
0.00507169
0.00514977
0.00519065
0.00521164
0.00525134
0.00532719
0.00542673
0.00555466
0.00570369
0.00585335
0.00597176
0.0060835
0.00628072
0.00673288
0.00775552
0.00995738
0.0130327
0.0168476
0.0208141
0.0242875
0.0273476
0.0293425
0.0313124
0.0320781
0.0321937
0.0324132
0.0326116
0.0338604
0.0346866
0.0361486
0.037412
0.0389035
0.0401427
0.0418281
0.0434906
0.0450738
0.0467474
0.0490064
0.0488542
0.0506619
0.0531328
0.0531518
0.0551289
0.0568288
0.0579271
0.0590326
0.0591139
0.0592039
0.00477616
0.00494752
0.00507158
0.00514975
0.00519068
0.00521154
0.00525202
0.00532552
0.00542431
0.0055538
0.00570351
0.00585396
0.0059777
0.00608423
0.00627337
0.00670697
0.00767526
0.00976372
0.0131821
0.0170483
0.0209797
0.024481
0.0271445
0.0290597
0.0310644
0.0315207
0.0318128
0.0329017
0.0323399
0.0335041
0.0348005
0.0363119
0.0375991
0.0390714
0.0403578
0.0419266
0.0436432
0.0450797
0.0470886
0.0489135
0.0493397
0.0509489
0.0532468
0.0534488
0.0554024
0.0570377
0.0578171
0.0589144
0.0589655
0.0591
0.00477606
0.00494751
0.00507169
0.00514944
0.00519074
0.00521141
0.00525212
0.0053271
0.00542595
0.00555426
0.0057034
0.0058531
0.00597041
0.00608129
0.00628104
0.00673061
0.00772641
0.00986649
0.0133249
0.0172449
0.0212623
0.0241941
0.0273074
0.0292168
0.0311859
0.0319954
0.0318265
0.0322582
0.0324407
0.033562
0.0349347
0.0361251
0.0373589
0.038797
0.0401431
0.0416962
0.0433885
0.0449486
0.0467211
0.0492094
0.0487195
0.0509682
0.0530439
0.053491
0.0553493
0.056949
0.0579814
0.0591153
0.0590321
0.0591514
0.00477597
0.00494742
0.0050717
0.00514955
0.00519055
0.0052114
0.00525193
0.00532612
0.0054251
0.005554
0.00570364
0.00585475
0.00597864
0.00608459
0.00627117
0.00669871
0.00764856
0.00967982
0.0130158
0.0168997
0.0208613
0.0243552
0.0274513
0.0293926
0.0313671
0.0318958
0.0319467
0.0327737
0.0323029
0.0334416
0.0346166
0.036278
0.0375654
0.0390137
0.0404345
0.041967
0.0436993
0.0452453
0.0469418
0.0492987
0.049011
0.0510232
0.0529186
0.0536101
0.0553076
0.0570788
0.0578731
0.0590881
0.0596064
0.0591984
0.00477616
0.00494743
0.0050717
0.00514954
0.00519079
0.00521179
0.0052512
0.00532829
0.0054243
0.00555346
0.00570308
0.00585417
0.00597714
0.00608857
0.00626537
0.00671037
0.00769886
0.00977872
0.0131756
0.0171202
0.021155
0.0241235
0.0271195
0.0291181
0.0311378
0.0315518
0.0318267
0.0328314
0.0325284
0.0337347
0.0348482
0.0364263
0.0377115
0.0392215
0.0402919
0.041706
0.0433706
0.0449459
0.0466385
0.0489293
0.0490852
0.0510245
0.0531391
0.0535732
0.0552008
0.0571276
0.0573042
0.0583898
0.059398
0.0590563
)
;

boundaryField
{
    inlet
    {
        type            turbulentMixingLengthDissipationRateInlet;
        mixingLength    0.5;
        phi             phi;
        k               k;
        value           nonuniform List<scalar> 
25
(
7.7439e-05
7.7439e-05
7.7439e-05
7.7439e-05
7.7439e-05
8.64044e-05
8.64044e-05
8.64044e-05
8.64044e-05
8.64044e-05
0.000105523
0.000105523
0.000105523
0.000105523
0.000105523
0.000136504
0.000136504
0.000136504
0.000136504
0.000136504
0.000181748
0.000181748
0.000181748
0.000181748
0.000181748
)
;
    }
    outlet
    {
        type            inletOutlet;
        inletValue      uniform 1;
        value           nonuniform List<scalar> 
25
(
0.112358
0.112111
0.112033
0.11214
0.112415
0.0757176
0.0755653
0.0755042
0.0755565
0.0757366
0.0535454
0.0534659
0.0534231
0.053463
0.0535429
0.0433077
0.0432095
0.0432449
0.0432363
0.0432491
0.0592039
0.0591
0.0591514
0.0591984
0.0590563
)
;
    }
    side1
    {
        type            cyclicAMI;
        value           nonuniform List<scalar> 
250
(
8.335e-05
8.64421e-05
0.000106294
0.000237533
0.00477609
0.000105312
8.73921e-05
0.000114304
0.000349577
0.00494744
0.00012269
9.08378e-05
0.000131181
0.000523407
0.00507169
0.00013625
9.75164e-05
0.000166188
0.000778902
0.00514965
0.000153029
0.000105828
0.000203799
0.00105097
0.00519072
0.000159294
0.000112939
0.000240913
0.00143302
0.00521171
0.000172269
0.000119301
0.000294415
0.00188781
0.00525127
0.000202369
0.000130211
0.000355752
0.0023481
0.00532774
0.000339845
0.000146729
0.000405211
0.00276723
0.00542551
0.00448152
0.00035076
0.000470193
0.00317515
0.00555406
0.0220914
0.00198718
0.000598638
0.00352799
0.00570339
0.0352736
0.00703178
0.00094781
0.00372658
0.00585376
0.0442259
0.0132468
0.00178513
0.00386165
0.00597445
0.0513259
0.018718
0.00377202
0.00410214
0.00608603
0.0572448
0.0237638
0.00714794
0.00458079
0.00627305
0.062179
0.0282245
0.0103645
0.00573667
0.00672163
0.0663619
0.0323109
0.0136464
0.00762054
0.00772719
0.0700223
0.0358757
0.0171264
0.0100201
0.00986805
0.0734527
0.0393637
0.0205533
0.0128565
0.0131042
0.0766991
0.042635
0.0239813
0.0158432
0.0169839
0.0798869
0.0452546
0.0267105
0.0185735
0.0209845
0.0828189
0.0475258
0.0285809
0.02067
0.0242055
0.0855523
0.0496081
0.0300477
0.0223919
0.0272336
0.0880011
0.051427
0.0312948
0.0236047
0.0292303
0.0902288
0.0530325
0.0323163
0.024679
0.0312251
0.0924114
0.0547212
0.0333461
0.0249204
0.031815
0.0943395
0.056156
0.0339704
0.024995
0.0320102
0.0962672
0.0575556
0.0348536
0.0256142
0.0326223
0.0978648
0.0588058
0.0355489
0.0259808
0.03257
0.0995221
0.0602344
0.0364609
0.0265365
0.0337976
0.100973
0.0616441
0.0374144
0.0270917
0.0347674
0.102372
0.063138
0.0385962
0.0278983
0.0362874
0.103545
0.0644146
0.0395438
0.0285867
0.0375618
0.104625
0.06568
0.0405852
0.0293732
0.0390625
0.105553
0.066701
0.0416371
0.0302178
0.0402173
0.106454
0.0676013
0.0426743
0.0311288
0.0417671
0.107276
0.0684578
0.0438512
0.0322958
0.0434306
0.108211
0.0694789
0.0451381
0.0334382
0.0450099
0.109068
0.0705392
0.0463677
0.0346029
0.0466929
0.109833
0.0718151
0.0479246
0.0363461
0.0489679
0.110041
0.0719964
0.0480727
0.0363924
0.0489697
0.110912
0.0730825
0.0492305
0.0375458
0.0508432
0.11127
0.0739764
0.0505826
0.0392604
0.0531359
0.111366
0.0740396
0.0506939
0.0394195
0.0533625
0.112018
0.0748486
0.0517004
0.0405732
0.0551648
0.112157
0.075246
0.0525861
0.0418364
0.0569782
0.112161
0.0752264
0.0526382
0.0422027
0.0576157
0.112504
0.075771
0.0534464
0.0430387
0.0587112
0.112501
0.0758034
0.0536952
0.0433675
0.0592559
0.112386
0.0757271
0.0535441
0.0432784
0.0591301
)
;
    }
    side2
    {
        type            cyclicAMI;
        value           nonuniform List<scalar> 
250
(
8.335e-05
8.64421e-05
0.000106294
0.000237533
0.00477609
0.000105312
8.73921e-05
0.000114304
0.000349577
0.00494744
0.00012269
9.08378e-05
0.000131181
0.000523407
0.00507169
0.00013625
9.75164e-05
0.000166188
0.000778902
0.00514965
0.000153029
0.000105828
0.000203799
0.00105097
0.00519072
0.000159294
0.000112939
0.000240913
0.00143302
0.00521171
0.000172269
0.000119301
0.000294415
0.00188781
0.00525127
0.000202369
0.000130211
0.000355752
0.0023481
0.00532774
0.000339845
0.000146729
0.000405211
0.00276723
0.00542551
0.00448152
0.00035076
0.000470193
0.00317515
0.00555406
0.0220914
0.00198718
0.000598638
0.00352799
0.00570339
0.0352736
0.00703178
0.00094781
0.00372658
0.00585376
0.0442259
0.0132468
0.00178513
0.00386165
0.00597445
0.0513259
0.018718
0.00377202
0.00410214
0.00608603
0.0572448
0.0237638
0.00714794
0.00458079
0.00627305
0.062179
0.0282245
0.0103645
0.00573667
0.00672163
0.0663619
0.0323109
0.0136464
0.00762054
0.00772719
0.0700223
0.0358757
0.0171264
0.0100201
0.00986805
0.0734527
0.0393637
0.0205533
0.0128565
0.0131042
0.0766991
0.042635
0.0239813
0.0158432
0.0169839
0.0798869
0.0452546
0.0267105
0.0185735
0.0209845
0.0828189
0.0475258
0.0285809
0.02067
0.0242055
0.0855523
0.0496081
0.0300477
0.0223919
0.0272336
0.0880011
0.051427
0.0312948
0.0236047
0.0292303
0.0902288
0.0530325
0.0323163
0.024679
0.0312251
0.0924114
0.0547212
0.0333461
0.0249204
0.031815
0.0943395
0.056156
0.0339704
0.024995
0.0320102
0.0962672
0.0575556
0.0348536
0.0256142
0.0326223
0.0978648
0.0588058
0.0355489
0.0259808
0.03257
0.0995221
0.0602344
0.0364609
0.0265365
0.0337976
0.100973
0.0616441
0.0374144
0.0270917
0.0347674
0.102372
0.063138
0.0385962
0.0278983
0.0362874
0.103545
0.0644146
0.0395438
0.0285867
0.0375618
0.104625
0.06568
0.0405852
0.0293732
0.0390625
0.105553
0.066701
0.0416371
0.0302178
0.0402173
0.106454
0.0676013
0.0426743
0.0311288
0.0417671
0.107276
0.0684578
0.0438512
0.0322958
0.0434306
0.108211
0.0694789
0.0451381
0.0334382
0.0450099
0.109068
0.0705392
0.0463677
0.0346029
0.0466929
0.109833
0.0718151
0.0479246
0.0363461
0.0489679
0.110041
0.0719964
0.0480727
0.0363924
0.0489697
0.110912
0.0730825
0.0492305
0.0375458
0.0508432
0.11127
0.0739764
0.0505826
0.0392604
0.0531359
0.111366
0.0740396
0.0506939
0.0394195
0.0533625
0.112018
0.0748486
0.0517004
0.0405732
0.0551648
0.112157
0.075246
0.0525861
0.0418364
0.0569782
0.112161
0.0752264
0.0526382
0.0422027
0.0576157
0.112504
0.075771
0.0534464
0.0430387
0.0587112
0.112501
0.0758034
0.0536952
0.0433675
0.0592559
0.112386
0.0757271
0.0535441
0.0432784
0.0591301
)
;
    }
    walls
    {
        type            epsilonWallFunction;
        value           nonuniform List<scalar> 
250
(
0.00477602
0.00477616
0.00477606
0.00477597
0.00477616
0.00494745
0.00494752
0.00494751
0.00494742
0.00494743
0.00507169
0.00507158
0.00507169
0.0050717
0.0050717
0.00514977
0.00514975
0.00514944
0.00514955
0.00514954
0.00519065
0.00519068
0.00519074
0.00519055
0.00519079
0.00521164
0.00521154
0.00521141
0.0052114
0.00521179
0.00525134
0.00525202
0.00525212
0.00525193
0.0052512
0.00532719
0.00532552
0.0053271
0.00532612
0.00532829
0.00542673
0.00542431
0.00542595
0.0054251
0.0054243
0.00555466
0.0055538
0.00555426
0.005554
0.00555346
0.00570369
0.00570351
0.0057034
0.00570364
0.00570308
0.00585335
0.00585396
0.0058531
0.00585475
0.00585417
0.00597176
0.0059777
0.00597041
0.00597864
0.00597714
0.0060835
0.00608423
0.00608129
0.00608459
0.00608857
0.00628072
0.00627337
0.00628104
0.00627117
0.00626537
0.00673288
0.00670697
0.00673061
0.00669871
0.00671037
0.00775552
0.00767526
0.00772641
0.00764856
0.00769886
0.00995738
0.00976372
0.00986649
0.00967982
0.00977872
0.0130327
0.0131821
0.0133249
0.0130158
0.0131756
0.0168476
0.0170483
0.0172449
0.0168997
0.0171202
0.0208141
0.0209797
0.0212623
0.0208613
0.021155
0.0242875
0.024481
0.0241941
0.0243552
0.0241235
0.0273476
0.0271445
0.0273074
0.0274513
0.0271195
0.0293425
0.0290597
0.0292168
0.0293926
0.0291181
0.0313124
0.0310644
0.0311859
0.0313671
0.0311378
0.0320781
0.0315207
0.0319954
0.0318958
0.0315518
0.0321937
0.0318128
0.0318265
0.0319467
0.0318267
0.0324132
0.0329017
0.0322582
0.0327737
0.0328314
0.0326116
0.0323399
0.0324407
0.0323029
0.0325284
0.0338604
0.0335041
0.033562
0.0334416
0.0337347
0.0346866
0.0348005
0.0349347
0.0346166
0.0348482
0.0361486
0.0363119
0.0361251
0.036278
0.0364263
0.037412
0.0375991
0.0373589
0.0375654
0.0377115
0.0389035
0.0390714
0.038797
0.0390137
0.0392215
0.0401427
0.0403578
0.0401431
0.0404345
0.0402919
0.0418281
0.0419266
0.0416962
0.041967
0.041706
0.0434906
0.0436432
0.0433885
0.0436993
0.0433706
0.0450738
0.0450797
0.0449486
0.0452453
0.0449459
0.0467474
0.0470886
0.0467211
0.0469418
0.0466385
0.0490064
0.0489135
0.0492094
0.0492987
0.0489293
0.0488542
0.0493397
0.0487195
0.049011
0.0490852
0.0506619
0.0509489
0.0509682
0.0510232
0.0510245
0.0531328
0.0532468
0.0530439
0.0529186
0.0531391
0.0531518
0.0534488
0.053491
0.0536101
0.0535732
0.0551289
0.0554024
0.0553493
0.0553076
0.0552008
0.0568288
0.0570377
0.056949
0.0570788
0.0571276
0.0579271
0.0578171
0.0579814
0.0578731
0.0573042
0.0590326
0.0589144
0.0591153
0.0590881
0.0583898
0.0591139
0.0589655
0.0590321
0.0596064
0.059398
0.0592039
0.0591
0.0591514
0.0591984
0.0590563
)
;
    }
}


// ************************************************************************* //
