/*--------------------------------*- C++ -*----------------------------------*\
  =========                 |
  \\      /  F ield         | OpenFOAM: The Open Source CFD Toolbox
   \\    /   O peration     | Website:  https://openfoam.org
    \\  /    A nd           | Version:  8
     \\/     M anipulation  |
\*---------------------------------------------------------------------------*/
FoamFile
{
    version     2.0;
    format      ascii;
    class       volScalarField;
    location    "100";
    object      k;
}
// * * * * * * * * * * * * * * * * * * * * * * * * * * * * * * * * * * * * * //

dimensions      [0 2 -2 0 0 0 0];

internalField   nonuniform List<scalar> 
1250
(
0.00389134
0.00404037
0.00414595
0.0042185
0.00425947
0.00426201
0.00428536
0.00438071
0.00476253
0.019264
0.0580974
0.0814293
0.0975348
0.110009
0.120224
0.12813
0.134245
0.139182
0.143414
0.147293
0.150763
0.153825
0.156362
0.158579
0.16048
0.162347
0.163671
0.165139
0.165237
0.166969
0.16804
0.169145
0.169236
0.1703
0.170947
0.171464
0.171998
0.172564
0.17304
0.173123
0.173303
0.173907
0.173973
0.173996
0.174351
0.174302
0.174127
0.174375
0.174366
0.17404
0.00389138
0.00403971
0.00414669
0.00421846
0.00425948
0.00426191
0.00428569
0.0043815
0.0047688
0.0194621
0.0579622
0.0812415
0.097339
0.109766
0.119978
0.127887
0.134009
0.138937
0.143155
0.146976
0.150456
0.153534
0.156077
0.158295
0.160196
0.162063
0.163387
0.164853
0.164945
0.166683
0.167759
0.168868
0.168957
0.170017
0.170646
0.171166
0.171708
0.172281
0.172763
0.172841
0.173024
0.173632
0.173697
0.173722
0.174077
0.174029
0.173854
0.174103
0.174093
0.173767
0.00389144
0.00403984
0.00414598
0.00421835
0.0042594
0.0042621
0.0042857
0.00438113
0.00478539
0.0196834
0.0578311
0.0811108
0.0972174
0.109559
0.119784
0.127709
0.133848
0.138778
0.143
0.14681
0.150319
0.153401
0.155947
0.158167
0.160071
0.16194
0.163267
0.164734
0.164828
0.166571
0.167651
0.168762
0.168854
0.169923
0.170552
0.171051
0.171591
0.172176
0.172669
0.172752
0.172934
0.173545
0.173609
0.173635
0.173991
0.173942
0.173768
0.174018
0.174008
0.173682
0.00389139
0.00404017
0.00414698
0.00421864
0.0042594
0.00426195
0.00428546
0.00438229
0.00477823
0.0195752
0.0577109
0.081057
0.0972017
0.109553
0.119793
0.127731
0.133879
0.138819
0.143061
0.146896
0.150403
0.15348
0.156027
0.158251
0.160157
0.16203
0.16336
0.164832
0.16493
0.166674
0.167756
0.168869
0.168961
0.170022
0.170645
0.171163
0.171713
0.172296
0.172784
0.172871
0.173051
0.173661
0.173727
0.173753
0.174108
0.17406
0.173886
0.174135
0.174125
0.1738
0.00389139
0.00403988
0.00414686
0.00421866
0.00425947
0.00426212
0.00428612
0.00437844
0.00481083
0.0193742
0.0579052
0.0813133
0.0974574
0.109918
0.120152
0.128075
0.134205
0.139151
0.1434
0.147287
0.150775
0.153837
0.156375
0.158596
0.1605
0.162371
0.163698
0.165171
0.165274
0.167006
0.168081
0.169188
0.169281
0.170338
0.170982
0.171511
0.172053
0.172621
0.173098
0.173187
0.173365
0.173968
0.174036
0.174059
0.174413
0.174365
0.174191
0.174439
0.174429
0.174104
0.00409855
0.00409954
0.00410879
0.00413031
0.00415603
0.00417157
0.00418516
0.00420921
0.0042494
0.00492052
0.0102479
0.0237804
0.0378663
0.0508602
0.0632389
0.072849
0.0807688
0.0876511
0.0935955
0.0988052
0.102825
0.105751
0.108072
0.110101
0.111728
0.113345
0.114438
0.115231
0.115447
0.117226
0.118882
0.12048
0.120525
0.122093
0.123201
0.123975
0.124665
0.125437
0.126407
0.126867
0.126912
0.127978
0.128155
0.128238
0.128819
0.128848
0.128767
0.129094
0.129053
0.12872
0.00409855
0.00409953
0.00410879
0.00413023
0.00415637
0.00417156
0.00418529
0.00420942
0.00425163
0.00507786
0.00971675
0.0232421
0.0379211
0.0505051
0.0630022
0.0728111
0.0809298
0.0876797
0.0933895
0.0985493
0.102632
0.105678
0.108073
0.110101
0.111743
0.113344
0.114445
0.115216
0.115422
0.1172
0.118864
0.120444
0.120495
0.12207
0.123081
0.123695
0.124396
0.125251
0.126276
0.126719
0.126747
0.127811
0.127964
0.128057
0.128638
0.128667
0.128584
0.12891
0.128874
0.128534
0.00409854
0.00409952
0.00410879
0.00413023
0.00415591
0.00417144
0.00418481
0.00421096
0.00425056
0.00491038
0.0100509
0.0235198
0.0379905
0.0501355
0.0626227
0.0724522
0.0808069
0.087429
0.0932182
0.0983837
0.102472
0.105566
0.108008
0.110038
0.111693
0.1133
0.114403
0.115167
0.115375
0.11716
0.118836
0.120403
0.120455
0.121898
0.122678
0.123321
0.124159
0.125128
0.126211
0.126669
0.126693
0.127756
0.127905
0.127999
0.128581
0.128606
0.128529
0.128847
0.128817
0.128479
0.00409854
0.00409952
0.00410878
0.00413023
0.00415628
0.00417156
0.00418533
0.00420867
0.00425206
0.00500005
0.0102787
0.0230989
0.0380968
0.0502277
0.0624692
0.0722119
0.0805583
0.0871939
0.0933677
0.0984557
0.102447
0.105485
0.107896
0.109929
0.111585
0.113204
0.114305
0.115065
0.115293
0.11708
0.118755
0.120329
0.120367
0.121829
0.12269
0.123377
0.124199
0.125145
0.126224
0.126713
0.12675
0.127818
0.127977
0.128074
0.128658
0.128672
0.12861
0.128933
0.128886
0.12856
0.00409854
0.00409952
0.0041088
0.00413031
0.00415579
0.00417145
0.00418513
0.00420892
0.00425011
0.00512398
0.00972468
0.0235806
0.0380284
0.0506616
0.0629176
0.0724247
0.0804146
0.0873106
0.09356
0.0987104
0.102715
0.105595
0.107907
0.109942
0.111577
0.113212
0.114303
0.115101
0.115323
0.117112
0.118784
0.120386
0.120444
0.12197
0.123024
0.123793
0.124539
0.125371
0.12638
0.126871
0.126925
0.127991
0.128177
0.128261
0.12884
0.128862
0.128796
0.129119
0.129066
0.12875
0.00468228
0.00471605
0.00480009
0.00494646
0.00508721
0.00520096
0.00531341
0.00540137
0.00547833
0.00560809
0.00589777
0.00682493
0.00918377
0.0150158
0.0244319
0.0332109
0.0411439
0.0490887
0.0566498
0.063332
0.0680983
0.0709024
0.072717
0.0742437
0.0754584
0.0758165
0.0759334
0.0769661
0.0766451
0.0781468
0.0797139
0.0808741
0.0812896
0.0827663
0.0841771
0.0854805
0.0868423
0.0881415
0.0897
0.0904521
0.0905313
0.0918933
0.0924639
0.0924463
0.0935062
0.093874
0.093742
0.0944939
0.0943656
0.0943364
0.00468228
0.00471606
0.00479927
0.00494621
0.00508836
0.00519791
0.0053135
0.00540079
0.00547837
0.00562175
0.00593141
0.00693168
0.00934641
0.0152804
0.0247163
0.0334768
0.0415137
0.0493751
0.0568826
0.0634821
0.0681814
0.0708695
0.0727689
0.0742671
0.0755193
0.0757649
0.0759813
0.0769418
0.0766954
0.0781714
0.0797615
0.0810981
0.0814498
0.0828034
0.0841937
0.0854658
0.0868193
0.0880998
0.0896711
0.0903828
0.0904333
0.0918084
0.0921639
0.0924041
0.0934067
0.0937651
0.0936346
0.0943624
0.0942581
0.0942183
0.00468227
0.00471613
0.0047994
0.00494564
0.0050881
0.00519788
0.00531156
0.00540259
0.00547895
0.00560853
0.00590182
0.00675896
0.00950533
0.0157206
0.0241875
0.0329247
0.0411055
0.0490295
0.0566471
0.0633751
0.0680705
0.0706762
0.0726495
0.0741629
0.0754365
0.0756368
0.0758961
0.076854
0.0766452
0.0781211
0.0797179
0.0810874
0.0815333
0.0827444
0.0841277
0.0854067
0.0867856
0.088052
0.0896587
0.0903644
0.0903681
0.0917528
0.0921323
0.092371
0.0933669
0.0937419
0.0936181
0.0941778
0.0942603
0.0941795
0.00468227
0.00471606
0.0047999
0.00494613
0.00508724
0.00520062
0.00531335
0.00540242
0.00547835
0.00560907
0.00594251
0.00688061
0.00916722
0.0151478
0.0245709
0.0333299
0.0414349
0.0493312
0.0568938
0.0635448
0.0680085
0.0705725
0.0725173
0.0740352
0.0753182
0.0754623
0.0757598
0.0765604
0.0766233
0.0780291
0.0796082
0.0810417
0.0814186
0.0826718
0.0840508
0.0853492
0.0867397
0.0880254
0.0896267
0.090456
0.0904326
0.091771
0.0921766
0.0924103
0.0934127
0.0936168
0.0937082
0.0943856
0.0942616
0.0942276
0.00468227
0.00471613
0.0047996
0.00494583
0.00508764
0.00519883
0.00531222
0.00540208
0.00547728
0.0056199
0.00594152
0.0069507
0.00938707
0.0156362
0.0241009
0.0327793
0.0416005
0.0494038
0.0569069
0.063477
0.0680479
0.0707129
0.0724593
0.0740349
0.0752423
0.0756303
0.0757177
0.0768149
0.0764639
0.0780031
0.0795736
0.0807774
0.0812847
0.0826803
0.0840531
0.0853726
0.0867615
0.0880772
0.0896483
0.0904841
0.0905155
0.0918744
0.0924537
0.092453
0.0935088
0.0937106
0.0938005
0.0945007
0.0943612
0.094335
0.00559065
0.00576854
0.00614588
0.0068124
0.00760372
0.00863905
0.00968651
0.0106711
0.0114902
0.012277
0.0128054
0.0129839
0.0131305
0.0135661
0.0148283
0.0178762
0.0234089
0.0292801
0.034728
0.0397915
0.04355
0.045998
0.047722
0.0489164
0.0496356
0.04937
0.0493908
0.0499969
0.0494204
0.0503932
0.051457
0.0528106
0.0535466
0.0543563
0.0552812
0.0564288
0.0577208
0.0589193
0.060545
0.0610669
0.0614742
0.0628104
0.0636504
0.0637756
0.0649391
0.0656488
0.0655407
0.0664839
0.0664146
0.066497
0.00559066
0.00576837
0.00614269
0.00681504
0.00760421
0.00862702
0.00968277
0.0106632
0.0114867
0.0122783
0.0127998
0.0129794
0.0131244
0.0135949
0.0149146
0.0181475
0.0231044
0.0288194
0.0349575
0.0399577
0.0437258
0.0458635
0.0475436
0.0488856
0.0493314
0.0493713
0.0493226
0.0496358
0.0495618
0.0504889
0.0515546
0.0528475
0.0535344
0.0543241
0.0552699
0.0563647
0.0576494
0.0588132
0.0604344
0.0610286
0.061415
0.0627649
0.0633511
0.0636983
0.0648737
0.0653256
0.0655486
0.066417
0.0663362
0.0664292
0.00559061
0.00576858
0.00614171
0.00681662
0.00760848
0.00861979
0.00968142
0.0106664
0.0114839
0.0122806
0.012802
0.0129452
0.0131203
0.0135651
0.0148001
0.0178287
0.0232956
0.0290804
0.0345775
0.0395781
0.0433871
0.0459927
0.0476548
0.0490181
0.0491677
0.0496821
0.0493593
0.0495679
0.0495588
0.0504723
0.0514658
0.0527955
0.0535475
0.0542694
0.0551969
0.0563092
0.0576045
0.0587641
0.0604252
0.0609604
0.0613512
0.0626984
0.0635552
0.0636817
0.0648556
0.0656076
0.0655404
0.0661221
0.0663182
0.0664071
0.00559059
0.00576845
0.00614294
0.00681135
0.00761181
0.00862444
0.0096818
0.0106699
0.0114885
0.0122779
0.0128046
0.0129786
0.0131269
0.0135831
0.0148583
0.0179563
0.0234763
0.0293622
0.0348577
0.0398233
0.0436164
0.0458168
0.0477319
0.0489036
0.0494195
0.0495574
0.0493439
0.0495397
0.0494954
0.0504052
0.0514756
0.0527769
0.0535195
0.0542532
0.0551472
0.0562994
0.0575918
0.0588141
0.0604844
0.0610575
0.0613951
0.0627442
0.0633484
0.0637332
0.0648843
0.0653346
0.0655828
0.0664492
0.0663322
0.0664363
0.0055906
0.00576863
0.00614529
0.0068087
0.00761711
0.00863191
0.00968407
0.0106651
0.0114875
0.0122759
0.0128068
0.0129562
0.0131165
0.0136156
0.0149284
0.0181885
0.0231637
0.0289173
0.0350949
0.0395802
0.0433518
0.0457804
0.0475222
0.0490371
0.0495387
0.0493833
0.0493795
0.0499004
0.0495425
0.0505041
0.0515394
0.0528148
0.0535111
0.0543054
0.0551919
0.0563855
0.0576837
0.0589042
0.0605279
0.0614002
0.0614651
0.0628429
0.063428
0.0637797
0.0649423
0.0653465
0.065579
0.0664708
0.0663693
0.0664779
0.00684811
0.00701113
0.00712814
0.00720085
0.00723904
0.00725909
0.00729416
0.00736586
0.00745808
0.00757415
0.00770694
0.00784186
0.0079528
0.00804655
0.00818511
0.0084831
0.0091336
0.0105097
0.012741
0.0151697
0.0175641
0.0196145
0.021108
0.022209
0.0232254
0.023765
0.0238743
0.024224
0.0239054
0.0244432
0.0250597
0.0257883
0.0263773
0.0270569
0.0276307
0.0283381
0.0290893
0.0297604
0.0305972
0.0309705
0.0312329
0.0320286
0.0332046
0.0332161
0.0339842
0.0348204
0.0351981
0.0357576
0.0360223
0.0358547
0.00684821
0.00701121
0.00712808
0.0072009
0.00723907
0.00725881
0.00729512
0.00736474
0.00745596
0.00757307
0.00770686
0.00784052
0.0079584
0.00804572
0.00818915
0.00850016
0.00917152
0.010581
0.0128367
0.0152975
0.0177296
0.0194627
0.0211997
0.0222872
0.0233203
0.0237634
0.0238841
0.0239864
0.0240044
0.0245032
0.0251498
0.0257042
0.0262604
0.0269066
0.0275144
0.0281893
0.0289667
0.0296128
0.0303975
0.0314445
0.0313805
0.0321747
0.0332069
0.0331235
0.0339738
0.0347834
0.0352157
0.0357857
0.0359113
0.0358261
0.00684818
0.00701123
0.0071282
0.00720062
0.00723909
0.00725865
0.00729452
0.00736562
0.00745745
0.00757357
0.00770708
0.00784115
0.00795222
0.00804373
0.00818317
0.00848041
0.00912334
0.0104616
0.0126473
0.0150943
0.0175053
0.0195502
0.0212861
0.0223614
0.0234439
0.0235591
0.0237183
0.024106
0.0238564
0.0243535
0.0249538
0.025757
0.0263477
0.0269836
0.0276137
0.0282967
0.0290608
0.0297131
0.0305787
0.0309335
0.031212
0.0321006
0.0331213
0.0332632
0.0340394
0.0348304
0.0353328
0.0354713
0.0356419
0.0357855
0.00684808
0.00701112
0.00712816
0.00720072
0.00723902
0.0072585
0.00729456
0.00736485
0.00745702
0.00757348
0.00770691
0.00784091
0.00795844
0.00804759
0.00817858
0.00848836
0.00915573
0.0105198
0.0127396
0.0152136
0.0176647
0.0194073
0.021103
0.0222199
0.0232429
0.0237602
0.0236171
0.0239466
0.0239612
0.0244561
0.0250417
0.0258159
0.0264231
0.0270944
0.0275737
0.0282223
0.0289904
0.0296543
0.0305175
0.030959
0.0312295
0.0321219
0.0331407
0.0333926
0.0340908
0.0348844
0.0352332
0.0358499
0.0357861
0.0358619
0.00684822
0.00701113
0.00712817
0.00720064
0.00723911
0.00725903
0.00729426
0.00736676
0.00745611
0.00757263
0.00770695
0.00784054
0.0079576
0.00804949
0.00818625
0.00849598
0.00917599
0.0106228
0.0126298
0.0150315
0.0174479
0.0194858
0.0212063
0.0223257
0.0233856
0.0237838
0.0238244
0.0239129
0.0240065
0.0245916
0.0249896
0.0256955
0.0262842
0.0269667
0.0275169
0.0282862
0.0290486
0.0297447
0.0304604
0.0314838
0.0313043
0.0320763
0.0331178
0.0332697
0.0339965
0.0349152
0.0348472
0.0355455
0.0356787
0.0357996
)
;

boundaryField
{
    inlet
    {
        type            turbulentIntensityKineticEnergyInlet;
        intensity       0.05;
        value           nonuniform List<scalar> 
25
(
0.00381504
0.00381504
0.00381504
0.00381504
0.00381504
0.00410408
0.00410408
0.00410408
0.00410408
0.00410408
0.00468911
0.00468911
0.00468911
0.00468911
0.00468911
0.005567
0.005567
0.005567
0.005567
0.005567
0.0067376
0.0067376
0.00673761
0.0067376
0.0067376
)
;
    }
    outlet
    {
        type            inletOutlet;
        inletValue      uniform 1;
        value           nonuniform List<scalar> 
25
(
0.17404
0.173767
0.173682
0.1738
0.174104
0.12872
0.128534
0.128479
0.12856
0.12875
0.0943364
0.0942183
0.0941795
0.0942276
0.094335
0.066497
0.0664292
0.0664071
0.0664363
0.0664779
0.0358547
0.0358261
0.0357855
0.0358619
0.0357996
)
;
    }
    side1
    {
        type            cyclicAMI;
        value           nonuniform List<scalar> 
250
(
0.00389137
0.00409855
0.00468227
0.00559062
0.00684816
0.00404012
0.00409953
0.00471609
0.00576858
0.00701113
0.00414641
0.00410879
0.00479985
0.00614558
0.00712816
0.00421858
0.00413031
0.00494614
0.00681055
0.00720074
0.00425947
0.00415591
0.00508743
0.00761042
0.00723908
0.00426207
0.00417151
0.00519989
0.00863548
0.00725906
0.00428574
0.00418515
0.00531282
0.00968529
0.00729421
0.00437957
0.00420906
0.00540172
0.0106681
0.00736631
0.00478668
0.00424975
0.0054778
0.0114888
0.00745709
0.0193191
0.00502225
0.005614
0.0122764
0.00757339
0.0580013
0.00998629
0.00591965
0.0128061
0.00770694
0.0813713
0.0236805
0.00688782
0.01297
0.0078412
0.0974961
0.0379474
0.00928542
0.0131235
0.0079552
0.109964
0.0507609
0.015326
0.0135908
0.00804802
0.120188
0.0630783
0.0242664
0.0148783
0.00818568
0.128102
0.0726368
0.0329951
0.0180323
0.00848954
0.134225
0.0805917
0.0413722
0.0232863
0.00915479
0.139166
0.0874809
0.0492462
0.0290987
0.0105663
0.143407
0.0935777
0.0567783
0.0349115
0.0126854
0.14729
0.0987578
0.0634045
0.0396858
0.0151006
0.150769
0.10277
0.0680731
0.0434509
0.017506
0.153831
0.105673
0.0708077
0.0458892
0.0195502
0.156368
0.10799
0.0725881
0.0476221
0.0211571
0.158588
0.110021
0.0741393
0.0489767
0.0222673
0.16049
0.111653
0.0753503
0.0495872
0.0233055
0.162359
0.113278
0.0757234
0.0493766
0.0237744
0.163685
0.114371
0.0758256
0.0493852
0.0238493
0.165155
0.115166
0.0768905
0.0499487
0.0240684
0.165255
0.115385
0.0765545
0.0494814
0.0239559
0.166987
0.117169
0.0780749
0.0504487
0.0245174
0.16806
0.118833
0.0796437
0.0514982
0.0250247
0.169167
0.120433
0.0808258
0.0528127
0.0257419
0.169258
0.120485
0.0812871
0.0535289
0.0263308
0.170319
0.122031
0.0827233
0.0543309
0.0270118
0.170964
0.123112
0.0841151
0.0552365
0.0275738
0.171487
0.123884
0.0854266
0.0564072
0.0283122
0.172025
0.124602
0.0868019
0.0577022
0.0290689
0.172593
0.125404
0.0881094
0.0589117
0.0297526
0.173069
0.126394
0.0896742
0.0605365
0.0305288
0.173155
0.126869
0.0904681
0.0612335
0.0312272
0.173334
0.126918
0.0905234
0.0614697
0.0312686
0.173938
0.127984
0.0918839
0.0628266
0.0320525
0.174004
0.128166
0.0924588
0.0635392
0.0331612
0.174028
0.12825
0.0924496
0.0637776
0.0332429
0.174382
0.128829
0.0935075
0.0649407
0.0339903
0.174334
0.128855
0.0937923
0.0654976
0.0348678
0.174159
0.128781
0.0937713
0.0655599
0.0350226
0.174407
0.129107
0.0944973
0.0664773
0.0356516
0.174397
0.129059
0.0943634
0.0663919
0.0358505
0.174072
0.128735
0.0943357
0.0664874
0.0358272
)
;
    }
    side2
    {
        type            cyclicAMI;
        value           nonuniform List<scalar> 
250
(
0.00389137
0.00409855
0.00468227
0.00559062
0.00684816
0.00404012
0.00409953
0.00471609
0.00576858
0.00701113
0.00414641
0.00410879
0.00479985
0.00614558
0.00712816
0.00421858
0.00413031
0.00494614
0.00681055
0.00720074
0.00425947
0.00415591
0.00508743
0.00761042
0.00723908
0.00426207
0.00417151
0.00519989
0.00863548
0.00725906
0.00428574
0.00418515
0.00531282
0.00968529
0.00729421
0.00437957
0.00420906
0.00540172
0.0106681
0.00736631
0.00478668
0.00424975
0.0054778
0.0114888
0.00745709
0.0193191
0.00502225
0.005614
0.0122764
0.00757339
0.0580013
0.00998629
0.00591965
0.0128061
0.00770694
0.0813713
0.0236805
0.00688782
0.01297
0.0078412
0.0974961
0.0379474
0.00928542
0.0131235
0.0079552
0.109964
0.0507609
0.015326
0.0135908
0.00804802
0.120188
0.0630783
0.0242664
0.0148783
0.00818568
0.128102
0.0726368
0.0329951
0.0180323
0.00848954
0.134225
0.0805917
0.0413722
0.0232863
0.00915479
0.139166
0.0874809
0.0492462
0.0290987
0.0105663
0.143407
0.0935777
0.0567783
0.0349115
0.0126854
0.14729
0.0987578
0.0634045
0.0396858
0.0151006
0.150769
0.10277
0.0680731
0.0434509
0.017506
0.153831
0.105673
0.0708077
0.0458892
0.0195502
0.156368
0.10799
0.0725881
0.0476221
0.0211571
0.158588
0.110021
0.0741393
0.0489767
0.0222673
0.16049
0.111653
0.0753503
0.0495872
0.0233055
0.162359
0.113278
0.0757234
0.0493766
0.0237744
0.163685
0.114371
0.0758256
0.0493852
0.0238493
0.165155
0.115166
0.0768905
0.0499487
0.0240684
0.165255
0.115385
0.0765545
0.0494814
0.0239559
0.166987
0.117169
0.0780749
0.0504487
0.0245174
0.16806
0.118833
0.0796437
0.0514982
0.0250247
0.169167
0.120433
0.0808258
0.0528127
0.0257419
0.169258
0.120485
0.0812871
0.0535289
0.0263308
0.170319
0.122031
0.0827233
0.0543309
0.0270118
0.170964
0.123112
0.0841151
0.0552365
0.0275738
0.171487
0.123884
0.0854266
0.0564072
0.0283122
0.172025
0.124602
0.0868019
0.0577022
0.0290689
0.172593
0.125404
0.0881094
0.0589117
0.0297526
0.173069
0.126394
0.0896742
0.0605365
0.0305288
0.173155
0.126869
0.0904681
0.0612335
0.0312272
0.173334
0.126918
0.0905234
0.0614697
0.0312686
0.173938
0.127984
0.0918839
0.0628266
0.0320525
0.174004
0.128166
0.0924588
0.0635392
0.0331612
0.174028
0.12825
0.0924496
0.0637776
0.0332429
0.174382
0.128829
0.0935075
0.0649407
0.0339903
0.174334
0.128855
0.0937923
0.0654976
0.0348678
0.174159
0.128781
0.0937713
0.0655599
0.0350226
0.174407
0.129107
0.0944973
0.0664773
0.0356516
0.174397
0.129059
0.0943634
0.0663919
0.0358505
0.174072
0.128735
0.0943357
0.0664874
0.0358272
)
;
    }
    walls
    {
        type            kqRWallFunction;
        value           nonuniform List<scalar> 
250
(
0.00684811
0.00684821
0.00684818
0.00684808
0.00684822
0.00701113
0.00701121
0.00701123
0.00701112
0.00701113
0.00712814
0.00712808
0.0071282
0.00712816
0.00712817
0.00720085
0.0072009
0.00720062
0.00720072
0.00720064
0.00723904
0.00723907
0.00723909
0.00723902
0.00723911
0.00725909
0.00725881
0.00725865
0.0072585
0.00725903
0.00729416
0.00729512
0.00729452
0.00729456
0.00729426
0.00736586
0.00736474
0.00736562
0.00736485
0.00736676
0.00745808
0.00745596
0.00745745
0.00745702
0.00745611
0.00757415
0.00757307
0.00757357
0.00757348
0.00757263
0.00770694
0.00770686
0.00770708
0.00770691
0.00770695
0.00784186
0.00784052
0.00784115
0.00784091
0.00784054
0.0079528
0.0079584
0.00795222
0.00795844
0.0079576
0.00804655
0.00804572
0.00804373
0.00804759
0.00804949
0.00818511
0.00818915
0.00818317
0.00817858
0.00818625
0.0084831
0.00850016
0.00848041
0.00848836
0.00849598
0.0091336
0.00917152
0.00912334
0.00915573
0.00917599
0.0105097
0.010581
0.0104616
0.0105198
0.0106228
0.012741
0.0128367
0.0126473
0.0127396
0.0126298
0.0151697
0.0152975
0.0150943
0.0152136
0.0150315
0.0175641
0.0177296
0.0175053
0.0176647
0.0174479
0.0196145
0.0194627
0.0195502
0.0194073
0.0194858
0.021108
0.0211997
0.0212861
0.021103
0.0212063
0.022209
0.0222872
0.0223614
0.0222199
0.0223257
0.0232254
0.0233203
0.0234439
0.0232429
0.0233856
0.023765
0.0237634
0.0235591
0.0237602
0.0237838
0.0238743
0.0238841
0.0237183
0.0236171
0.0238244
0.024224
0.0239864
0.024106
0.0239466
0.0239129
0.0239054
0.0240044
0.0238564
0.0239612
0.0240065
0.0244432
0.0245032
0.0243535
0.0244561
0.0245916
0.0250597
0.0251498
0.0249538
0.0250417
0.0249896
0.0257883
0.0257042
0.025757
0.0258159
0.0256955
0.0263773
0.0262604
0.0263477
0.0264231
0.0262842
0.0270569
0.0269066
0.0269836
0.0270944
0.0269667
0.0276307
0.0275144
0.0276137
0.0275737
0.0275169
0.0283381
0.0281893
0.0282967
0.0282223
0.0282862
0.0290893
0.0289667
0.0290608
0.0289904
0.0290486
0.0297604
0.0296128
0.0297131
0.0296543
0.0297447
0.0305972
0.0303975
0.0305787
0.0305175
0.0304604
0.0309705
0.0314445
0.0309335
0.030959
0.0314838
0.0312329
0.0313805
0.031212
0.0312295
0.0313043
0.0320286
0.0321747
0.0321006
0.0321219
0.0320763
0.0332046
0.0332069
0.0331213
0.0331407
0.0331178
0.0332161
0.0331235
0.0332632
0.0333926
0.0332697
0.0339842
0.0339738
0.0340394
0.0340908
0.0339965
0.0348204
0.0347834
0.0348304
0.0348844
0.0349152
0.0351981
0.0352157
0.0353328
0.0352332
0.0348472
0.0357576
0.0357857
0.0354713
0.0358499
0.0355455
0.0360223
0.0359113
0.0356419
0.0357861
0.0356787
0.0358547
0.0358261
0.0357855
0.0358619
0.0357996
)
;
    }
}


// ************************************************************************* //
