/*--------------------------------*- C++ -*----------------------------------*\
  =========                 |
  \\      /  F ield         | OpenFOAM: The Open Source CFD Toolbox
   \\    /   O peration     | Website:  https://openfoam.org
    \\  /    A nd           | Version:  8
     \\/     M anipulation  |
\*---------------------------------------------------------------------------*/
FoamFile
{
    version     2.0;
    format      ascii;
    class       volScalarField;
    location    "100";
    object      p;
}
// * * * * * * * * * * * * * * * * * * * * * * * * * * * * * * * * * * * * * //

dimensions      [0 2 -2 0 0 0 0];

internalField   nonuniform List<scalar> 
1250
(
-0.141661
-0.143132
-0.145553
-0.148179
-0.152136
-0.153624
-0.150789
-0.145885
-0.138023
-0.131123
-0.124649
-0.120248
-0.116541
-0.112209
-0.106318
-0.0991923
-0.0904761
-0.0805289
-0.0700513
-0.0599788
-0.0507696
-0.0425545
-0.0349968
-0.0280562
-0.0216995
-0.0158168
-0.0104184
-0.00538301
-0.000766508
0.0034681
0.00741731
0.0109094
0.0141062
0.016946
0.0193787
0.0214448
0.0231218
0.024154
0.0246981
0.0245419
0.0238628
0.0227018
0.0209777
0.018898
0.0164951
0.013758
0.0109265
0.00783674
0.00473634
0.00145747
-0.14166
-0.143132
-0.145553
-0.148177
-0.152137
-0.15363
-0.150781
-0.145887
-0.138036
-0.131181
-0.124653
-0.120243
-0.116553
-0.112235
-0.106356
-0.099246
-0.0905522
-0.080621
-0.0701529
-0.0600821
-0.0508697
-0.0426563
-0.0351076
-0.0281825
-0.0218342
-0.0159587
-0.0105731
-0.0055465
-0.000944105
0.00327885
0.00720712
0.0106948
0.0138786
0.0167019
0.0191423
0.0212297
0.0229191
0.0239793
0.0245365
0.0243999
0.0237414
0.0225896
0.0208853
0.0188195
0.0164291
0.0137064
0.0108826
0.00780362
0.0047103
0.00144082
-0.14166
-0.143132
-0.145553
-0.148176
-0.152142
-0.153628
-0.150782
-0.145892
-0.138035
-0.131149
-0.124639
-0.120243
-0.116538
-0.112199
-0.106297
-0.0991598
-0.0904465
-0.0804961
-0.0700083
-0.0599164
-0.0506964
-0.0424719
-0.0349075
-0.027965
-0.0215941
-0.0156925
-0.0102833
-0.00522616
-0.000599416
0.00365842
0.0076132
0.0111338
0.0143462
0.0171946
0.0196471
0.0217157
0.0233604
0.0243833
0.0249042
0.0247388
0.0240488
0.0228596
0.021119
0.0190159
0.0165911
0.0138383
0.0109863
0.00788634
0.00477322
0.00148873
-0.14166
-0.143132
-0.145553
-0.148177
-0.152142
-0.153623
-0.150784
-0.145889
-0.13802
-0.131058
-0.124627
-0.120256
-0.116522
-0.112151
-0.10622
-0.099041
-0.0902948
-0.080319
-0.0698192
-0.0597192
-0.0505013
-0.0422677
-0.0346897
-0.0277294
-0.0213402
-0.0154219
-0.00999032
-0.00491408
-0.000263723
0.00401583
0.00799719
0.0115353
0.0147677
0.0176361
0.0200906
0.0221361
0.0237446
0.024723
0.0252126
0.0250125
0.0242932
0.0230743
0.0213021
0.019169
0.0167165
0.0139412
0.0110672
0.00795184
0.00482247
0.0015254
-0.14166
-0.143132
-0.145553
-0.148178
-0.152141
-0.153624
-0.150787
-0.145888
-0.138018
-0.131049
-0.124626
-0.120254
-0.116527
-0.112176
-0.106266
-0.0991072
-0.0903759
-0.0804105
-0.0699138
-0.0598258
-0.0506134
-0.0423812
-0.0348085
-0.0278559
-0.0214757
-0.0155644
-0.010145
-0.00507677
-0.000438499
0.0038341
0.00780524
0.0113389
0.0145699
0.0174339
0.0198807
0.0219321
0.0235563
0.0245551
0.0250583
0.0248753
0.0241687
0.0229666
0.0212097
0.0190925
0.0166553
0.0138923
0.0110313
0.00792327
0.00480129
0.00150723
-0.100864
-0.103174
-0.109544
-0.112651
-0.115696
-0.114911
-0.11071
-0.103848
-0.0981439
-0.093608
-0.0908011
-0.0881318
-0.0843294
-0.0796136
-0.0744799
-0.0687309
-0.0622688
-0.0551346
-0.0474725
-0.0397914
-0.0324785
-0.0258322
-0.0198084
-0.0143367
-0.0093373
-0.00474498
-0.000576116
0.00332907
0.00687716
0.0101186
0.0130936
0.0157404
0.0181192
0.0201917
0.021962
0.0234283
0.0245602
0.0252078
0.0253897
0.0250215
0.0241752
0.0228592
0.0210888
0.0189449
0.0165127
0.0137852
0.0109296
0.00785098
0.00473434
0.00146438
-0.100864
-0.103172
-0.109542
-0.112646
-0.115697
-0.114913
-0.110691
-0.103842
-0.0981921
-0.0936444
-0.0907987
-0.0881058
-0.0842984
-0.0795984
-0.0744745
-0.0687311
-0.0622939
-0.055187
-0.0475556
-0.0398906
-0.0325612
-0.0258966
-0.0198787
-0.0144153
-0.00942011
-0.00482704
-0.000667293
0.00323457
0.0067752
0.0100113
0.0129749
0.0156169
0.0179802
0.0200147
0.0217545
0.02323
0.0243809
0.0250583
0.0252543
0.0249021
0.0240687
0.022759
0.0209993
0.0188683
0.0164458
0.0137251
0.0108749
0.00780497
0.00469761
0.00143863
-0.100863
-0.103172
-0.109546
-0.112646
-0.11569
-0.114908
-0.110714
-0.103869
-0.0981559
-0.0935709
-0.0907528
-0.0880943
-0.0843138
-0.0796227
-0.0744979
-0.0687462
-0.0623015
-0.0551854
-0.0475382
-0.0398361
-0.0324522
-0.0257875
-0.0197728
-0.0143084
-0.00930918
-0.00471053
-0.000540006
0.00337031
0.00692544
0.0101755
0.013158
0.0158163
0.0181991
0.0202728
0.0220634
0.0235651
0.0247129
0.0253725
0.0255565
0.0251843
0.0243364
0.0230062
0.0212188
0.0190596
0.0166096
0.0138614
0.0109858
0.00789557
0.00476961
0.00149671
-0.100864
-0.103172
-0.109541
-0.112649
-0.115703
-0.114904
-0.110699
-0.103873
-0.098161
-0.0935718
-0.0907514
-0.0880988
-0.0843243
-0.0796306
-0.0744985
-0.068734
-0.0622633
-0.0551179
-0.0474404
-0.0397079
-0.032315
-0.0256599
-0.0196437
-0.0141771
-0.00917461
-0.00457013
-0.000390322
0.00353095
0.00709496
0.0103596
0.0133551
0.0160307
0.018435
0.0205557
0.0223982
0.0239067
0.025023
0.0256459
0.0258034
0.0254116
0.024544
0.023198
0.0213894
0.0192073
0.0167355
0.0139702
0.0110763
0.00797599
0.00483401
0.00154754
-0.100863
-0.103172
-0.109546
-0.112646
-0.115697
-0.114907
-0.110717
-0.103875
-0.0981515
-0.0935689
-0.0907594
-0.0881124
-0.0843368
-0.0796296
-0.0744926
-0.0687295
-0.0622504
-0.0550968
-0.0474066
-0.0396881
-0.0323325
-0.0256899
-0.0196668
-0.0141978
-0.00919462
-0.00459797
-0.000417632
0.00349677
0.00705848
0.0103143
0.0133061
0.0159709
0.0183691
0.0204835
0.0223144
0.0238079
0.0249206
0.0255359
0.0256951
0.0253017
0.0244404
0.0231015
0.0213051
0.0191332
0.0166735
0.0139198
0.0110408
0.00794889
0.0048133
0.0015262
-0.022459
-0.0211099
-0.0196219
-0.0244381
-0.0319619
-0.0363694
-0.0364848
-0.0337607
-0.0306884
-0.0269894
-0.0219441
-0.0165735
-0.0118819
-0.00824736
-0.00516689
-0.00207024
0.00143747
0.00515925
0.0088182
0.0121155
0.0149075
0.0172292
0.0192595
0.0209973
0.0225256
0.0238414
0.0250016
0.0259896
0.0268536
0.0275231
0.0280722
0.0284423
0.0287765
0.029011
0.0291477
0.0291559
0.0290223
0.0285882
0.0278953
0.0268345
0.025456
0.0237455
0.021694
0.0193345
0.0167762
0.0139566
0.0110319
0.00790252
0.00475662
0.00146855
-0.0224584
-0.0211128
-0.019603
-0.0244274
-0.031985
-0.0363659
-0.0364804
-0.0337611
-0.0307003
-0.0269781
-0.0219138
-0.0165516
-0.0118874
-0.0082651
-0.00517574
-0.00207569
0.00141104
0.0051072
0.00874096
0.0120322
0.0148069
0.0171306
0.0191505
0.0208848
0.0224097
0.0237348
0.0248848
0.0258744
0.0267331
0.0274047
0.0279454
0.0283179
0.0286472
0.0288711
0.0289962
0.029009
0.0288745
0.0284554
0.0277664
0.0267204
0.0253522
0.0236514
0.0216079
0.0192659
0.0167083
0.013882
0.0109606
0.00784466
0.00470969
0.00143494
-0.0224578
-0.0211077
-0.0196267
-0.0244183
-0.0319683
-0.0363677
-0.036488
-0.0337705
-0.0307218
-0.0270128
-0.0219675
-0.0166091
-0.0119303
-0.00829216
-0.00520073
-0.00209556
0.00140002
0.00509681
0.00872649
0.0120251
0.014815
0.0171505
0.0191757
0.0209172
0.0224468
0.0237807
0.0249338
0.0259313
0.0268002
0.0274867
0.0280419
0.0284345
0.0287796
0.0290313
0.0291904
0.0292349
0.0291169
0.0287118
0.0280264
0.026978
0.0255991
0.0238856
0.0218166
0.0194527
0.01687
0.0140248
0.011077
0.00794473
0.00478525
0.00150539
-0.0224575
-0.0211095
-0.0196139
-0.0244377
-0.0319697
-0.0363631
-0.0364876
-0.0337589
-0.0307069
-0.0269955
-0.0219513
-0.0165932
-0.0119178
-0.0082871
-0.00520018
-0.00209895
0.0014095
0.00512514
0.00877161
0.0120792
0.0148955
0.017234
0.0192741
0.0210219
0.0225589
0.0238866
0.0250583
0.0260564
0.0269435
0.0276353
0.0282123
0.0286141
0.0289716
0.0292432
0.029427
0.0294716
0.0293594
0.0289367
0.028249
0.0271797
0.0257851
0.0240564
0.0219719
0.0195849
0.0169895
0.014126
0.0111685
0.00803245
0.00486515
0.00157325
-0.0224581
-0.0211127
-0.0196135
-0.0244249
-0.0319738
-0.0363772
-0.0364906
-0.0337897
-0.0307421
-0.0270222
-0.0219803
-0.0166314
-0.0119575
-0.00831189
-0.00522464
-0.00212831
0.00137358
0.00510013
0.00875928
0.0120782
0.0148873
0.0172315
0.0192665
0.0210148
0.0225427
0.0238681
0.0250307
0.0260346
0.026905
0.0275976
0.0281572
0.0285549
0.0289012
0.029158
0.0293239
0.0293656
0.0292381
0.0288184
0.0281235
0.0270646
0.0256761
0.0239579
0.0218848
0.019516
0.01693
0.0140915
0.0111455
0.008032
0.00485238
0.00156209
0.0911353
0.0626087
0.0641119
0.0690757
0.0757562
0.0815979
0.087175
0.0924944
0.0971046
0.0997566
0.0997223
0.0973601
0.0930797
0.0884676
0.0841677
0.080322
0.0768786
0.0737286
0.0707877
0.0680876
0.0655718
0.0632109
0.0609797
0.0588124
0.0567439
0.0546986
0.0527467
0.0508937
0.0490706
0.0473234
0.045621
0.0439682
0.042393
0.0407914
0.0391378
0.0374789
0.0358109
0.0340264
0.0321768
0.0301389
0.0279235
0.0255965
0.0230412
0.0202691
0.0174401
0.0144366
0.011326
0.0080835
0.00485379
0.00153706
0.0911385
0.062609
0.0641092
0.0690851
0.0757629
0.0816135
0.0871818
0.092492
0.0971071
0.0997675
0.0997106
0.0973248
0.0930354
0.0884239
0.0841165
0.0802567
0.0768003
0.0736338
0.0706955
0.0679987
0.065486
0.063124
0.0608908
0.0587202
0.0566511
0.0546149
0.052663
0.0508084
0.0489905
0.0472465
0.0455486
0.0438991
0.0423245
0.0407175
0.0390585
0.0373955
0.0357255
0.0339464
0.0321004
0.0300653
0.027859
0.0255341
0.0229926
0.0202405
0.0173878
0.014335
0.0112457
0.00802663
0.00481702
0.00150938
0.0911402
0.0626067
0.0641126
0.0690699
0.0757633
0.0816108
0.0871809
0.0924923
0.0971051
0.0997612
0.0997051
0.0973279
0.0930314
0.0884089
0.0841032
0.0802593
0.0768229
0.0736643
0.0707208
0.068016
0.0655085
0.0631442
0.0609184
0.0587525
0.056686
0.0546501
0.0527039
0.0508506
0.0490465
0.0473086
0.0456291
0.0439935
0.0424374
0.0408595
0.0392302
0.0375862
0.0359397
0.034169
0.0323327
0.0302988
0.0280877
0.0257432
0.0231696
0.0203953
0.0175309
0.0144716
0.0113587
0.00811995
0.00488316
0.0015715
0.0911398
0.0626109
0.064107
0.0690742
0.0757621
0.0816161
0.0871718
0.0924849
0.0971119
0.0997779
0.0997223
0.0973481
0.0930588
0.0884463
0.0841441
0.0802912
0.0768445
0.0736889
0.0707456
0.0680499
0.0655425
0.0631818
0.0609553
0.0587948
0.0567264
0.0546924
0.0527497
0.0509061
0.0491027
0.0473718
0.0456938
0.0440667
0.0425115
0.0409341
0.0393058
0.0376633
0.0360101
0.0342329
0.0323876
0.0303527
0.0281327
0.0257872
0.0232027
0.020425
0.0175632
0.0145123
0.0113889
0.00817729
0.00493269
0.00162919
0.0911419
0.0626068
0.064113
0.0690709
0.0757486
0.0816127
0.0871791
0.0924878
0.0970996
0.0997631
0.0997096
0.0973328
0.0930441
0.0884197
0.0841019
0.0802399
0.0767919
0.0736442
0.0707201
0.0680264
0.0655284
0.0631693
0.060944
0.0587872
0.056716
0.0546688
0.0527322
0.0508805
0.0490745
0.0473327
0.0456485
0.0440081
0.0424421
0.0408524
0.0392191
0.0375726
0.0359233
0.0341437
0.032305
0.0302724
0.0280639
0.0257284
0.0231556
0.020394
0.0175539
0.0145222
0.0114225
0.00822332
0.00494848
0.00163019
0.283616
0.300266
0.295073
0.291698
0.288071
0.281367
0.271413
0.259046
0.246389
0.235471
0.22632
0.217989
0.211026
0.204475
0.19798
0.19149
0.185086
0.178718
0.17235
0.165863
0.159244
0.152449
0.145582
0.138651
0.13171
0.124831
0.118118
0.111459
0.104971
0.0985799
0.0923149
0.086077
0.0799162
0.0738209
0.0678085
0.0619188
0.056239
0.0507649
0.0455672
0.0406359
0.035979
0.0315761
0.0273916
0.0233781
0.0195268
0.015824
0.0122505
0.00872427
0.00521599
0.00175591
0.283617
0.300269
0.295082
0.291706
0.288076
0.281377
0.27142
0.25904
0.246395
0.235488
0.226346
0.218008
0.211035
0.204466
0.197943
0.191439
0.185038
0.178686
0.172322
0.165828
0.159201
0.152401
0.145526
0.138588
0.131649
0.124757
0.118047
0.111393
0.104908
0.0985195
0.0922518
0.0860172
0.0798585
0.0737644
0.0677569
0.0618738
0.0562003
0.0507329
0.0455409
0.0406178
0.0359599
0.0315479
0.0273687
0.023349
0.0195247
0.0158542
0.0122211
0.00866104
0.00517738
0.0017394
0.283617
0.300273
0.295077
0.291697
0.288073
0.281376
0.271423
0.259045
0.246379
0.235473
0.226326
0.21798
0.211015
0.204462
0.197962
0.191471
0.185081
0.178731
0.172369
0.165869
0.159241
0.152446
0.145573
0.138641
0.131707
0.124821
0.118118
0.111475
0.104993
0.0986128
0.0923544
0.0861307
0.0799867
0.0739071
0.0679175
0.0620534
0.0563919
0.0509307
0.0457393
0.0408086
0.0361446
0.0317205
0.0275248
0.0234925
0.0196231
0.0158906
0.0122604
0.00871132
0.00522344
0.00176903
0.28362
0.300265
0.295081
0.291705
0.288072
0.281368
0.271415
0.25905
0.246397
0.235482
0.226332
0.21799
0.21103
0.204477
0.197974
0.191479
0.185082
0.178737
0.172395
0.165906
0.159282
0.152486
0.145615
0.138679
0.131751
0.124867
0.11816
0.111517
0.105036
0.0986598
0.0924068
0.0861865
0.0800442
0.0739645
0.0679724
0.062109
0.056445
0.0509821
0.0457832
0.0408512
0.0361825
0.0317612
0.0275584
0.0235187
0.0196484
0.0159224
0.0122866
0.00873761
0.00524887
0.00178803
0.283617
0.300269
0.295071
0.291704
0.288072
0.281379
0.271418
0.259035
0.246381
0.235474
0.226325
0.217975
0.210998
0.20444
0.197951
0.191471
0.185082
0.178726
0.172369
0.165878
0.159246
0.152444
0.145571
0.138625
0.131695
0.124819
0.118101
0.111451
0.104964
0.0985825
0.0923262
0.0861012
0.0799556
0.0738763
0.0678837
0.0620193
0.0563567
0.0508988
0.0457099
0.040784
0.0361304
0.0317262
0.027531
0.0234948
0.019622
0.0158937
0.0122741
0.00872522
0.00525194
0.00178589
)
;

boundaryField
{
    inlet
    {
        type            zeroGradient;
    }
    outlet
    {
        type            fixedValue;
        value           uniform 0;
    }
    side1
    {
        type            cyclicAMI;
        value           nonuniform List<scalar> 
250
(
-0.141661
-0.100864
-0.0224585
0.0911386
0.283617
-0.143132
-0.103173
-0.0211113
0.0626077
0.300267
-0.145553
-0.109545
-0.0196177
0.0641124
0.295072
-0.148178
-0.112648
-0.0244315
0.0690733
0.291701
-0.152139
-0.115696
-0.0319679
0.0757524
0.288072
-0.153624
-0.114909
-0.0363733
0.0816053
0.281373
-0.150788
-0.110714
-0.0364877
0.0871771
0.271415
-0.145886
-0.103861
-0.0337752
0.0924911
0.259041
-0.138021
-0.0981477
-0.0307153
0.0971021
0.246385
-0.131086
-0.0935884
-0.0270058
0.0997598
0.235472
-0.124637
-0.0907802
-0.0219622
0.099716
0.226322
-0.120251
-0.0881221
-0.0166025
0.0973465
0.217982
-0.116534
-0.0843331
-0.0119197
0.0930619
0.211012
-0.112193
-0.0796216
-0.00827962
0.0884437
0.204457
-0.106292
-0.0744862
-0.00519576
0.0841348
0.197966
-0.0991497
-0.0687302
-0.00209927
0.0802809
0.19148
-0.090426
-0.0622596
0.00140553
0.0768352
0.185084
-0.0804697
-0.0551157
0.00512969
0.0736864
0.178722
-0.0699826
-0.0474395
0.00878874
0.0707539
0.17236
-0.0599023
-0.0397398
0.0120968
0.068057
0.16587
-0.0506915
-0.0324055
0.0148974
0.0655501
0.159245
-0.0424679
-0.0257611
0.0172304
0.0631901
0.152447
-0.0349027
-0.0197376
0.019263
0.0609619
0.145576
-0.027956
-0.0142673
0.021006
0.0587998
0.138638
-0.0215876
-0.00926596
0.0225341
0.05673
0.131703
-0.0156906
-0.00467147
0.0238548
0.0546837
0.124825
-0.0102817
-0.000496874
0.0250161
0.0527395
0.11811
-0.00522989
0.00341292
0.0260121
0.0508871
0.111455
-0.000602503
0.00696782
0.0268793
0.0490726
0.104967
0.0036511
0.0102165
0.0275603
0.0473281
0.0985812
0.00761128
0.0131998
0.0281147
0.0456347
0.0923206
0.0111242
0.0158557
0.0284986
0.0439882
0.0860891
0.014338
0.0182441
0.0288388
0.0424176
0.0799359
0.0171899
0.0203376
0.0290845
0.0408219
0.0738486
0.0196297
0.0221382
0.0292358
0.0391785
0.0678461
0.0216885
0.0236181
0.0292608
0.0375257
0.0619691
0.0233391
0.0247404
0.0291302
0.0358671
0.0562978
0.0243545
0.0253719
0.0287033
0.034085
0.0508318
0.0248782
0.0255424
0.0280094
0.0322409
0.0456386
0.0247086
0.0251616
0.0269496
0.0302057
0.04071
0.0240157
0.0243078
0.025566
0.0279937
0.0360547
0.0228342
0.0229803
0.0238517
0.0256625
0.0316511
0.0210937
0.0211969
0.0217894
0.0230984
0.0274613
0.0189952
0.0190391
0.0194252
0.0203316
0.0234364
0.0165752
0.0165931
0.0168531
0.017497
0.0195744
0.0138251
0.0138525
0.014024
0.0144794
0.0158588
0.0109789
0.0109852
0.0110887
0.0113743
0.0122623
0.00788001
0.00789994
0.00796726
0.00815341
0.00872474
0.00476881
0.00477382
0.0048045
0.00490114
0.00523396
0.00148235
0.00149529
0.00151532
0.00158363
0.0017709
)
;
    }
    side2
    {
        type            cyclicAMI;
        value           nonuniform List<scalar> 
250
(
-0.141661
-0.100864
-0.0224585
0.0911386
0.283617
-0.143132
-0.103173
-0.0211113
0.0626077
0.300267
-0.145553
-0.109545
-0.0196177
0.0641124
0.295072
-0.148178
-0.112648
-0.0244315
0.0690733
0.291701
-0.152139
-0.115696
-0.0319679
0.0757524
0.288072
-0.153624
-0.114909
-0.0363733
0.0816053
0.281373
-0.150788
-0.110714
-0.0364877
0.0871771
0.271415
-0.145886
-0.103861
-0.0337752
0.0924911
0.259041
-0.138021
-0.0981477
-0.0307153
0.0971021
0.246385
-0.131086
-0.0935884
-0.0270058
0.0997598
0.235472
-0.124637
-0.0907802
-0.0219622
0.099716
0.226322
-0.120251
-0.0881221
-0.0166025
0.0973465
0.217982
-0.116534
-0.0843331
-0.0119197
0.0930619
0.211012
-0.112193
-0.0796216
-0.00827962
0.0884437
0.204457
-0.106292
-0.0744862
-0.00519576
0.0841348
0.197966
-0.0991497
-0.0687302
-0.00209927
0.0802809
0.19148
-0.090426
-0.0622596
0.00140553
0.0768352
0.185084
-0.0804697
-0.0551157
0.00512969
0.0736864
0.178722
-0.0699826
-0.0474395
0.00878874
0.0707539
0.17236
-0.0599023
-0.0397398
0.0120968
0.068057
0.16587
-0.0506915
-0.0324055
0.0148974
0.0655501
0.159245
-0.0424679
-0.0257611
0.0172304
0.0631901
0.152447
-0.0349027
-0.0197376
0.019263
0.0609619
0.145576
-0.027956
-0.0142673
0.021006
0.0587998
0.138638
-0.0215876
-0.00926596
0.0225341
0.05673
0.131703
-0.0156906
-0.00467147
0.0238548
0.0546837
0.124825
-0.0102817
-0.000496874
0.0250161
0.0527395
0.11811
-0.00522989
0.00341292
0.0260121
0.0508871
0.111455
-0.000602503
0.00696782
0.0268793
0.0490726
0.104967
0.0036511
0.0102165
0.0275603
0.0473281
0.0985812
0.00761128
0.0131998
0.0281147
0.0456347
0.0923206
0.0111242
0.0158557
0.0284986
0.0439882
0.0860891
0.014338
0.0182441
0.0288388
0.0424176
0.0799359
0.0171899
0.0203376
0.0290845
0.0408219
0.0738486
0.0196297
0.0221382
0.0292358
0.0391785
0.0678461
0.0216885
0.0236181
0.0292608
0.0375257
0.0619691
0.0233391
0.0247404
0.0291302
0.0358671
0.0562978
0.0243545
0.0253719
0.0287033
0.034085
0.0508318
0.0248782
0.0255424
0.0280094
0.0322409
0.0456386
0.0247086
0.0251616
0.0269496
0.0302057
0.04071
0.0240157
0.0243078
0.025566
0.0279937
0.0360547
0.0228342
0.0229803
0.0238517
0.0256625
0.0316511
0.0210937
0.0211969
0.0217894
0.0230984
0.0274613
0.0189952
0.0190391
0.0194252
0.0203316
0.0234364
0.0165752
0.0165931
0.0168531
0.017497
0.0195744
0.0138251
0.0138525
0.014024
0.0144794
0.0158588
0.0109789
0.0109852
0.0110887
0.0113743
0.0122623
0.00788001
0.00789994
0.00796726
0.00815341
0.00872474
0.00476881
0.00477382
0.0048045
0.00490114
0.00523396
0.00148235
0.00149529
0.00151532
0.00158363
0.0017709
)
;
    }
    walls
    {
        type            zeroGradient;
    }
}


// ************************************************************************* //
