/*--------------------------------*- C++ -*----------------------------------*\
  =========                 |
  \\      /  F ield         | OpenFOAM: The Open Source CFD Toolbox
   \\    /   O peration     | Website:  https://openfoam.org
    \\  /    A nd           | Version:  8
     \\/     M anipulation  |
\*---------------------------------------------------------------------------*/
FoamFile
{
    version     2.0;
    format      ascii;
    class       volVectorField;
    location    "100";
    object      U;
}
// * * * * * * * * * * * * * * * * * * * * * * * * * * * * * * * * * * * * * //

dimensions      [0 1 -1 0 0 0 0];

internalField   nonuniform List<vector> 
1250
(
(0.999841 0.102659 0.0787539)
(1.00177 0.100205 0.0773987)
(1.00384 0.0942699 0.0777358)
(1.00663 0.0906347 0.0757398)
(1.01099 0.0899935 0.0721987)
(1.01174 0.0923196 0.0665435)
(1.01002 0.0997622 0.0617547)
(1.00284 0.105609 0.0623869)
(0.992583 0.106395 0.0673369)
(0.98359 0.0956978 0.0596699)
(0.97173 0.0871699 0.0574621)
(0.963526 0.0863724 0.0585673)
(0.956078 0.0864393 0.059039)
(0.950338 0.0856148 0.0584884)
(0.947792 0.0838987 0.0571867)
(0.948645 0.0815705 0.0555181)
(0.952445 0.0784535 0.0535567)
(0.957987 0.0749928 0.0514826)
(0.96415 0.0714302 0.0493259)
(0.970102 0.06795 0.0471456)
(0.975486 0.0645713 0.0449225)
(0.980218 0.0612498 0.0426978)
(0.984334 0.0579868 0.040509)
(0.988004 0.0547643 0.0383428)
(0.991278 0.0515933 0.0361897)
(0.994169 0.0484348 0.0340306)
(0.996756 0.0453096 0.0318944)
(0.99906 0.0421859 0.0297384)
(1.00113 0.0390924 0.0276005)
(1.00302 0.0359945 0.025446)
(1.00474 0.0329103 0.0233153)
(1.00628 0.0298478 0.0211697)
(1.00764 0.0268337 0.0190587)
(1.00889 0.0238892 0.0169987)
(1.01003 0.0210607 0.0149964)
(1.01101 0.0183849 0.013084)
(1.01187 0.0158497 0.0113029)
(1.01259 0.0135028 0.00963737)
(1.01315 0.0113531 0.0081228)
(1.01361 0.00943596 0.00675455)
(1.01393 0.00775355 0.00555096)
(1.01415 0.00629751 0.00451581)
(1.01432 0.00505476 0.00362142)
(1.01442 0.00400933 0.00287464)
(1.01449 0.00313996 0.00225033)
(1.01453 0.0024336 0.00173985)
(1.01455 0.00185276 0.00132595)
(1.01456 0.001405 0.0010022)
(1.01457 0.00103339 0.000735852)
(1.01458 0.000781426 0.000554906)
(0.999839 0.121968 0.0431791)
(1.00177 0.119215 0.042644)
(1.00384 0.113682 0.0447869)
(1.00663 0.109602 0.0440342)
(1.01099 0.107876 0.040849)
(1.01174 0.108371 0.034796)
(1.01001 0.114019 0.0278194)
(1.00286 0.119675 0.0268576)
(0.992656 0.122105 0.0307094)
(0.983582 0.109444 0.0269464)
(0.971742 0.100658 0.0276836)
(0.963542 0.100214 0.0290155)
(0.956095 0.100439 0.0294204)
(0.95035 0.0995123 0.0291328)
(0.947793 0.0974962 0.0284141)
(0.948634 0.0947824 0.027528)
(0.952423 0.0912305 0.0266185)
(0.957957 0.0873097 0.0257138)
(0.964116 0.0832591 0.0247662)
(0.970068 0.0792771 0.0237699)
(0.975457 0.075382 0.0226988)
(0.980193 0.0715347 0.021606)
(0.984311 0.0677571 0.0205322)
(0.987983 0.064026 0.0194677)
(0.991259 0.0603466 0.018398)
(0.994151 0.0566775 0.0173179)
(0.99674 0.053049 0.0162504)
(0.999045 0.0494143 0.0151626)
(1.00111 0.0458161 0.0140836)
(1.00301 0.042207 0.0129898)
(1.00472 0.0386203 0.0119162)
(1.00627 0.0350463 0.0108191)
(1.00763 0.0315317 0.00973925)
(1.00888 0.0281122 0.0086788)
(1.01003 0.0248267 0.00762792)
(1.01101 0.0216896 0.00663723)
(1.01186 0.018714 0.00574993)
(1.01258 0.0159486 0.00491486)
(1.01315 0.0134238 0.00415549)
(1.01361 0.0111672 0.00345622)
(1.01392 0.00918569 0.00283803)
(1.01415 0.00747245 0.00231018)
(1.01432 0.00600402 0.00184892)
(1.01442 0.00476942 0.00146721)
(1.01449 0.00374016 0.00114716)
(1.01453 0.00290112 0.000884157)
(1.01455 0.00221248 0.000674201)
(1.01456 0.00167854 0.000507566)
(1.01457 0.00123604 0.000371859)
(1.01459 0.000935691 0.000279492)
(0.99984 0.129342 0.00337391)
(1.00177 0.126557 0.00371737)
(1.00384 0.12196 0.00746999)
(1.00663 0.117842 0.00801148)
(1.01099 0.115236 0.00550455)
(1.01175 0.113803 -0.00041748)
(1.01002 0.11703 -0.00872517)
(1.00284 0.122129 -0.0115109)
(0.992684 0.125588 -0.00836326)
(0.98364 0.112558 -0.00803562)
(0.971789 0.104314 -0.00479914)
(0.963581 0.104265 -0.00341278)
(0.956127 0.104614 -0.00306478)
(0.950366 0.103661 -0.00301316)
(0.947788 0.101531 -0.00304781)
(0.948607 0.0986902 -0.00302654)
(0.952379 0.0950412 -0.00277245)
(0.957903 0.0910378 -0.00240733)
(0.964061 0.0868947 -0.0020519)
(0.970017 0.0828016 -0.00176702)
(0.975414 0.078763 -0.00158014)
(0.980154 0.0747689 -0.00142695)
(0.984276 0.0708455 -0.00127559)
(0.987952 0.0669682 -0.00112921)
(0.99123 0.0631396 -0.00100412)
(0.994125 0.0593188 -0.00089185)
(0.996717 0.0555394 -0.000779403)
(0.999024 0.0517492 -0.000685077)
(1.00109 0.0479952 -0.000593187)
(1.00299 0.0442276 -0.000513772)
(1.00471 0.0404857 -0.000423016)
(1.00626 0.036751 -0.000362845)
(1.00762 0.0330767 -0.00030549)
(1.00887 0.0294974 -0.00025204)
(1.01002 0.0260499 -0.000218828)
(1.01099 0.0227697 -0.000175867)
(1.01185 0.0196627 -0.000117366)
(1.01258 0.0167667 -8.71248e-05)
(1.01315 0.0141219 -5.08526e-05)
(1.0136 0.0117532 -3.3657e-05)
(1.01392 0.009672 -2.23918e-05)
(1.01415 0.00787282 -7.81824e-06)
(1.01432 0.00632794 -6.33484e-06)
(1.01442 0.00502967 -9.69176e-07)
(1.01449 0.00394575 3.54157e-07)
(1.01454 0.00306091 -1.84354e-06)
(1.01455 0.00233557 1.22896e-06)
(1.01457 0.00177176 -1.12418e-06)
(1.01457 0.00130499 -1.2069e-06)
(1.01459 0.000988387 -2.07095e-06)
(0.999841 0.124055 -0.036761)
(1.00177 0.121513 -0.0355736)
(1.00384 0.118299 -0.0305838)
(1.00663 0.114549 -0.0287999)
(1.01099 0.111304 -0.0303595)
(1.01175 0.108107 -0.0355714)
(1.01002 0.108609 -0.0444746)
(1.00283 0.112613 -0.0487163)
(0.992704 0.116788 -0.046675)
(0.983629 0.104591 -0.0422165)
(0.97177 0.0977448 -0.0367768)
(0.963555 0.098115 -0.0354976)
(0.9561 0.0985564 -0.0352419)
(0.95035 0.0976671 -0.0348571)
(0.947789 0.0956314 -0.0342034)
(0.948627 0.0929382 -0.0332715)
(0.952416 0.0895427 -0.0318771)
(0.957951 0.0858444 -0.030279)
(0.964111 0.0820112 -0.0286574)
(0.970066 0.0782053 -0.0271212)
(0.975457 0.0744189 -0.025691)
(0.980191 0.0706677 -0.0243061)
(0.98431 0.0669816 -0.022945)
(0.987983 0.0633374 -0.0216024)
(0.991259 0.0597344 -0.0202948)
(0.994152 0.0561351 -0.019001)
(0.996742 0.0525738 -0.0177195)
(0.999048 0.0489975 -0.0164519)
(1.00112 0.0454536 -0.0151974)
(1.00301 0.0418933 -0.0139514)
(1.00473 0.0383593 -0.0127033)
(1.00628 0.0348255 -0.0114879)
(1.00763 0.0313495 -0.0102911)
(1.00888 0.0279694 -0.00911032)
(1.01001 0.0247129 -0.00797049)
(1.01099 0.0215986 -0.00691371)
(1.01186 0.018649 -0.00593629)
(1.01258 0.0158978 -0.00505738)
(1.01315 0.0133904 -0.00423589)
(1.01361 0.0111435 -0.00350744)
(1.01393 0.00916927 -0.00286963)
(1.01415 0.00746356 -0.00231515)
(1.01432 0.00599707 -0.00185212)
(1.01442 0.00476581 -0.00146118)
(1.01449 0.00373716 -0.00113961)
(1.01453 0.00289715 -0.000881854)
(1.01455 0.00220985 -0.000667016)
(1.01456 0.00167519 -0.000505844)
(1.01457 0.00123307 -0.000371123)
(1.01459 0.000933222 -0.000280971)
(0.999844 0.106625 -0.0732973)
(1.00177 0.10457 -0.0713824)
(1.00384 0.103065 -0.065644)
(1.00663 0.100042 -0.0627913)
(1.01099 0.0964751 -0.063266)
(1.01174 0.0918064 -0.0672505)
(1.01005 0.0896155 -0.0757863)
(1.00281 0.091937 -0.0811683)
(0.992667 0.0966696 -0.0804609)
(0.983616 0.0863598 -0.0724808)
(0.971752 0.0815895 -0.0651493)
(0.963538 0.0823662 -0.0640686)
(0.956086 0.0828542 -0.0639726)
(0.950341 0.0821035 -0.0633392)
(0.94779 0.0803536 -0.0620938)
(0.948638 0.0780644 -0.0603807)
(0.952434 0.0752468 -0.05801)
(0.957974 0.0722121 -0.0553524)
(0.964138 0.0690626 -0.0526288)
(0.970091 0.0659151 -0.0499933)
(0.975478 0.0627535 -0.0474644)
(0.98021 0.0596132 -0.0449914)
(0.984327 0.0565247 -0.0425617)
(0.987998 0.0534699 -0.0401626)
(0.991273 0.0504445 -0.0378097)
(0.994164 0.0474179 -0.0354708)
(0.996753 0.0444228 -0.0331554)
(0.999058 0.0414096 -0.0308485)
(1.00113 0.0384225 -0.0285639)
(1.00302 0.0354179 -0.0262817)
(1.00474 0.0324389 -0.0240043)
(1.00628 0.0294539 -0.0217558)
(1.00763 0.0265189 -0.01954)
(1.00888 0.023663 -0.0173663)
(1.01002 0.0209035 -0.0152746)
(1.011 0.0182591 -0.0133073)
(1.01186 0.0157629 -0.0114623)
(1.01259 0.0134321 -0.00977087)
(1.01316 0.011312 -0.00820986)
(1.01361 0.00940925 -0.006818)
(1.01393 0.00773813 -0.00559631)
(1.01415 0.00629635 -0.00453664)
(1.01432 0.00505503 -0.003638)
(1.01442 0.00401472 -0.00288108)
(1.01449 0.00314544 -0.0022535)
(1.01453 0.00243562 -0.00174576)
(1.01455 0.00185656 -0.00132649)
(1.01456 0.00140567 -0.00100607)
(1.01457 0.00103341 -0.00073934)
(1.01459 0.000780841 -0.000559162)
(0.999043 0.251584 0.177485)
(1.00366 0.256006 0.177197)
(1.00838 0.266322 0.170781)
(1.01161 0.275081 0.17494)
(1.01416 0.275471 0.184885)
(1.01304 0.267113 0.198449)
(1.00945 0.251274 0.209646)
(1.00225 0.232471 0.207449)
(0.993144 0.219056 0.195796)
(0.986526 0.21936 0.180036)
(0.982191 0.227249 0.170932)
(0.976707 0.234828 0.169503)
(0.969566 0.238267 0.170306)
(0.961803 0.237329 0.169697)
(0.954474 0.23352 0.166726)
(0.949214 0.228462 0.162038)
(0.947484 0.221995 0.156271)
(0.94977 0.213902 0.149745)
(0.955051 0.204554 0.14299)
(0.961462 0.194805 0.136577)
(0.967384 0.185601 0.130595)
(0.972541 0.176987 0.124773)
(0.977122 0.168512 0.119017)
(0.981214 0.160117 0.113295)
(0.984858 0.151858 0.107621)
(0.9881 0.143622 0.101926)
(0.990967 0.135499 0.0963058)
(0.993535 0.127353 0.0906246)
(0.99581 0.11932 0.0850118)
(0.997921 0.111221 0.0793061)
(0.999839 0.103111 0.0736239)
(1.00158 0.0949655 0.0678425)
(1.00312 0.0868471 0.06206)
(1.00462 0.0787435 0.0562929)
(1.00608 0.0707391 0.0505699)
(1.00746 0.0629155 0.0449472)
(1.00878 0.0553193 0.0395231)
(1.01002 0.0480736 0.0343198)
(1.0111 0.0412429 0.0294524)
(1.01204 0.0349694 0.0249615)
(1.01278 0.0293076 0.0209166)
(1.01333 0.0242843 0.0173446)
(1.01376 0.0198846 0.0141929)
(1.01404 0.0160943 0.0114935)
(1.01423 0.012864 0.0091806)
(1.01435 0.0101802 0.0072504)
(1.01441 0.00791375 0.00563645)
(1.01444 0.00612632 0.00435787)
(1.01445 0.00459549 0.00326539)
(1.01444 0.00353844 0.00251149)
(0.999043 0.294115 0.0910539)
(1.00366 0.298228 0.0894186)
(1.00837 0.30608 0.080093)
(1.01161 0.315691 0.0813692)
(1.01418 0.319059 0.0907148)
(1.01302 0.315349 0.10631)
(1.00941 0.303726 0.121538)
(1.00231 0.285095 0.125363)
(0.993263 0.268955 0.118428)
(0.986578 0.264564 0.103314)
(0.982193 0.269201 0.0923795)
(0.976706 0.275812 0.088725)
(0.969585 0.279196 0.0883619)
(0.961822 0.278077 0.0879356)
(0.954483 0.273589 0.0861864)
(0.949214 0.267357 0.0832182)
(0.947492 0.259431 0.0796922)
(0.949774 0.249752 0.0759823)
(0.955052 0.238794 0.0724785)
(0.961463 0.227548 0.0694182)
(0.967399 0.217008 0.0665507)
(0.972537 0.207044 0.0636735)
(0.977118 0.197206 0.0608272)
(0.981206 0.187455 0.0579885)
(0.984849 0.177847 0.0551525)
(0.988089 0.168261 0.0522856)
(0.990957 0.158803 0.0494537)
(0.993525 0.149309 0.0465713)
(0.995801 0.139942 0.0437164)
(0.997913 0.13049 0.040796)
(0.999832 0.121034 0.0379011)
(1.00157 0.11151 0.0349183)
(1.00312 0.102002 0.0319282)
(1.00462 0.0925084 0.0289408)
(1.00607 0.0831574 0.0259723)
(1.00743 0.0740608 0.0230724)
(1.00875 0.0651879 0.0202884)
(1.01 0.0566795 0.0175986)
(1.01108 0.0486641 0.0151013)
(1.01202 0.0412979 0.0127898)
(1.01277 0.0346471 0.0107126)
(1.01332 0.0287477 0.0088877)
(1.01375 0.0235679 0.0072687)
(1.01404 0.0191046 0.00588725)
(1.01423 0.0152909 0.00470184)
(1.01435 0.0121123 0.00371247)
(1.01441 0.00942976 0.00288918)
(1.01444 0.00730441 0.00223226)
(1.01445 0.00548515 0.00167057)
(1.01444 0.00423475 0.00128421)
(0.999043 0.30786 -0.00429045)
(1.00366 0.311266 -0.00711988)
(1.00838 0.315834 -0.0183736)
(1.01159 0.325361 -0.0201951)
(1.01417 0.33155 -0.012348)
(1.01304 0.332752 0.00365384)
(1.00942 0.326446 0.02192)
(1.00232 0.309884 0.0311321)
(0.993255 0.292353 0.0293222)
(0.986578 0.283487 0.0163999)
(0.982204 0.284508 0.00465564)
(0.976721 0.289709 -0.000875464)
(0.969603 0.292873 -0.00226734)
(0.961832 0.29172 -0.00228841)
(0.954491 0.286937 -0.00251281)
(0.949218 0.280113 -0.00336542)
(0.947495 0.271509 -0.00423178)
(0.949767 0.26118 -0.00472341)
(0.955044 0.249681 -0.00464467)
(0.961449 0.238038 -0.00409934)
(0.967334 0.227168 -0.00358637)
(0.972472 0.216798 -0.00320721)
(0.977063 0.206555 -0.00285278)
(0.981161 0.196397 -0.00252511)
(0.984812 0.186377 -0.00223973)
(0.988058 0.176376 -0.00198679)
(0.990931 0.166503 -0.00174481)
(0.993503 0.156585 -0.00153658)
(0.995782 0.146794 -0.00134341)
(0.997896 0.136905 -0.0011816)
(0.999818 0.127017 -0.000999046)
(1.00156 0.117039 -0.000877223)
(1.00311 0.107064 -0.000773831)
(1.00459 0.0971362 -0.000670016)
(1.00602 0.0874016 -0.000586442)
(1.00739 0.0778667 -0.000516917)
(1.00873 0.0685444 -0.000425338)
(1.00999 0.0596002 -0.00036724)
(1.01108 0.051186 -0.000284878)
(1.01202 0.0434509 -0.000228347)
(1.01277 0.0364677 -0.000176285)
(1.01332 0.0302739 -0.000118947)
(1.01376 0.0248283 -8.82619e-05)
(1.01404 0.0201385 -5.42339e-05)
(1.01424 0.0161239 -3.39185e-05)
(1.01436 0.0127729 -2.26282e-05)
(1.01442 0.0099465 -5.98725e-06)
(1.01445 0.0077042 -3.39302e-06)
(1.01446 0.00578656 -1.79066e-06)
(1.01445 0.0044723 -1.25185e-06)
(0.999042 0.291464 -0.0992122)
(1.00365 0.293831 -0.102959)
(1.00838 0.294705 -0.115093)
(1.01161 0.303237 -0.119719)
(1.01416 0.311444 -0.114168)
(1.01301 0.317606 -0.099396)
(1.00944 0.317231 -0.0802654)
(1.00233 0.304445 -0.0660243)
(0.993244 0.28711 -0.0622054)
(0.986574 0.274571 -0.0718893)
(0.982213 0.271994 -0.0835331)
(0.97673 0.275266 -0.0904368)
(0.969608 0.277858 -0.0926979)
(0.961835 0.276762 -0.092298)
(0.954484 0.272156 -0.090974)
(0.949213 0.26543 -0.0896175)
(0.947487 0.257001 -0.0877424)
(0.949765 0.247028 -0.0849685)
(0.955051 0.236118 -0.0813202)
(0.961459 0.225228 -0.0772051)
(0.967319 0.215045 -0.0733058)
(0.972464 0.205293 -0.0697134)
(0.977056 0.195659 -0.0662065)
(0.981158 0.186098 -0.062753)
(0.984813 0.176654 -0.0593818)
(0.988063 0.16722 -0.0560398)
(0.990936 0.157904 -0.0527508)
(0.99351 0.148535 -0.049476)
(0.995788 0.139282 -0.0462533)
(0.997902 0.129925 -0.0430265)
(0.999822 0.120573 -0.0397823)
(1.00156 0.111123 -0.0365644)
(1.0031 0.101672 -0.0333729)
(1.00458 0.0922543 -0.0301779)
(1.00603 0.0829976 -0.0270493)
(1.00741 0.0739327 -0.0240177)
(1.00875 0.0650827 -0.0210586)
(1.01001 0.0565845 -0.0182582)
(1.0111 0.0485938 -0.0156039)
(1.01204 0.0412432 -0.0131865)
(1.01278 0.034608 -0.0110109)
(1.01333 0.028727 -0.00907934)
(1.01377 0.0235518 -0.00740633)
(1.01406 0.0190993 -0.00596329)
(1.01424 0.0152849 -0.00474392)
(1.01437 0.0121001 -0.00373846)
(1.01442 0.00941772 -0.00288685)
(1.01445 0.00729076 -0.00222905)
(1.01446 0.00547396 -0.00166737)
(1.01446 0.00422825 -0.00128018)
(0.999043 0.246543 -0.184424)
(1.00366 0.247637 -0.188716)
(1.00837 0.244707 -0.200525)
(1.01162 0.25136 -0.207591)
(1.01417 0.260973 -0.204846)
(1.01301 0.271361 -0.192655)
(1.00944 0.276932 -0.174022)
(1.00233 0.268991 -0.156917)
(0.993211 0.253756 -0.148312)
(0.986526 0.239141 -0.153375)
(0.982191 0.233016 -0.163412)
(0.97672 0.233863 -0.17094)
(0.969587 0.235606 -0.173935)
(0.961815 0.234712 -0.17325)
(0.954481 0.230757 -0.170549)
(0.949218 0.22478 -0.16716)
(0.947482 0.217335 -0.162766)
(0.949763 0.208672 -0.157049)
(0.955048 0.199394 -0.150231)
(0.96146 0.190302 -0.142961)
(0.967343 0.181801 -0.136065)
(0.972499 0.173612 -0.129636)
(0.977086 0.165523 -0.123337)
(0.981185 0.157487 -0.117109)
(0.984837 0.14954 -0.110997)
(0.988084 0.141588 -0.104913)
(0.990954 0.133737 -0.0989143)
(0.993526 0.125826 -0.0929137)
(0.995802 0.118012 -0.0869966)
(0.997914 0.110093 -0.0810455)
(0.999832 0.102188 -0.0750772)
(1.00157 0.0941834 -0.0691042)
(1.0031 0.0861779 -0.0631585)
(1.00459 0.0781989 -0.057216)
(1.00606 0.0703117 -0.0513594)
(1.00745 0.0625701 -0.0456527)
(1.00878 0.0550508 -0.0401039)
(1.01003 0.0478405 -0.0348261)
(1.01111 0.041073 -0.0298405)
(1.01205 0.0348389 -0.0252715)
(1.01279 0.029216 -0.0211519)
(1.01334 0.0242374 -0.0174965)
(1.01377 0.0198529 -0.0143055)
(1.01405 0.0160875 -0.0115573)
(1.01424 0.0128619 -0.00922069)
(1.01436 0.0101694 -0.00728586)
(1.01442 0.00790876 -0.00565059)
(1.01445 0.00611754 -0.00437252)
(1.01446 0.00458938 -0.00327554)
(1.01445 0.0035377 -0.00251722)
(0.999366 0.405918 0.2937)
(0.999156 0.396232 0.308852)
(0.998248 0.37381 0.317959)
(1.00516 0.36754 0.310443)
(1.01191 0.372814 0.296225)
(1.01634 0.388943 0.277572)
(1.01562 0.40922 0.264821)
(1.01229 0.427042 0.263883)
(1.01002 0.436754 0.273847)
(1.0066 0.434735 0.289551)
(1.00011 0.423068 0.301434)
(0.991719 0.407053 0.304781)
(0.983463 0.390808 0.300515)
(0.976457 0.376708 0.291604)
(0.971076 0.365038 0.281446)
(0.967449 0.354787 0.271592)
(0.965965 0.344875 0.26189)
(0.966665 0.33446 0.251763)
(0.969146 0.322917 0.241165)
(0.972631 0.310549 0.230697)
(0.976497 0.297883 0.220919)
(0.980249 0.285401 0.211713)
(0.983686 0.273068 0.202602)
(0.986755 0.260847 0.193511)
(0.989451 0.248897 0.184571)
(0.991783 0.23705 0.175651)
(0.993814 0.225392 0.166962)
(0.995617 0.213704 0.158058)
(0.9972 0.202149 0.14936)
(0.998653 0.190515 0.140414)
(0.999956 0.178803 0.13145)
(1.00109 0.166932 0.122335)
(1.00206 0.154975 0.113267)
(1.00304 0.142729 0.103998)
(1.00408 0.130197 0.094577)
(1.00515 0.11755 0.0850924)
(1.00626 0.104916 0.0757029)
(1.00739 0.092582 0.0665864)
(1.00843 0.0806912 0.0578873)
(1.00939 0.069551 0.0497817)
(1.0102 0.0592292 0.0423398)
(1.01081 0.0498475 0.0356022)
(1.01132 0.0414489 0.0295706)
(1.01167 0.0340663 0.0243043)
(1.01188 0.0276218 0.0196905)
(1.01204 0.0222087 0.0157963)
(1.01212 0.0175089 0.0124454)
(1.01215 0.0137768 0.00979543)
(1.01216 0.0104553 0.00742862)
(1.01212 0.00819386 0.00582755)
(0.999367 0.476806 0.15389)
(0.999153 0.472273 0.17132)
(0.998275 0.45363 0.186855)
(1.00512 0.445624 0.181652)
(1.01189 0.446264 0.166457)
(1.01637 0.455522 0.143853)
(1.01564 0.470896 0.125445)
(1.01226 0.487729 0.118927)
(1.00996 0.500016 0.125425)
(1.00656 0.502808 0.140935)
(1.00012 0.495314 0.155715)
(0.99177 0.481115 0.163713)
(0.983546 0.464373 0.164595)
(0.976532 0.448267 0.160488)
(0.971133 0.434089 0.154438)
(0.96749 0.421319 0.148228)
(0.966007 0.40894 0.142036)
(0.966696 0.395906 0.135593)
(0.96916 0.381669 0.12907)
(0.972633 0.366685 0.122928)
(0.976496 0.35163 0.117554)
(0.980255 0.336913 0.112667)
(0.983699 0.322381 0.107816)
(0.986761 0.307972 0.10296)
(0.989457 0.293861 0.098153)
(0.991781 0.279856 0.0933334)
(0.993814 0.266093 0.0886677)
(0.995613 0.252231 0.0838152)
(0.997194 0.23857 0.0791141)
(0.998645 0.224751 0.0742069)
(0.999949 0.21086 0.0693039)
(1.00109 0.19677 0.0643078)
(1.00206 0.182608 0.0593657)
(1.00304 0.168132 0.0543282)
(1.00407 0.153345 0.0492442)
(1.00512 0.138426 0.0441643)
(1.00623 0.123549 0.0391853)
(1.00735 0.109027 0.0343747)
(1.00839 0.0950524 0.0298256)
(1.00935 0.0819618 0.0256048)
(1.01016 0.0698403 0.0217557)
(1.01077 0.0588231 0.0182875)
(1.01128 0.0489566 0.0151849)
(1.01164 0.0402836 0.0124804)
(1.01187 0.0326979 0.0101152)
(1.01202 0.0262981 0.00813199)
(1.01211 0.0207539 0.00641558)
(1.01214 0.0163339 0.00505461)
(1.01215 0.0124056 0.00382849)
(1.01211 0.00975774 0.00301144)
(0.999366 0.501024 -0.000985226)
(0.99914 0.502143 0.0169537)
(0.998282 0.489189 0.0375838)
(1.00517 0.479768 0.0351068)
(1.01188 0.475883 0.020418)
(1.01633 0.477819 -0.00408551)
(1.01563 0.486603 -0.0262108)
(1.0123 0.50055 -0.037504)
(1.00998 0.514346 -0.0351547)
(1.00655 0.521871 -0.0213411)
(1.00012 0.51932 -0.00498057)
(0.991791 0.508299 0.0070533)
(0.983562 0.492707 0.0130906)
(0.976538 0.476145 0.0141953)
(0.971149 0.460745 0.0128472)
(0.967509 0.446661 0.0108725)
(0.966017 0.432976 0.0088071)
(0.9667 0.418592 0.00671837)
(0.969152 0.403034 0.00492625)
(0.972621 0.386881 0.00373123)
(0.976514 0.370899 0.00332108)
(0.980263 0.355409 0.00323813)
(0.983701 0.340088 0.00313206)
(0.986759 0.324883 0.0029659)
(0.989453 0.30997 0.0027582)
(0.991771 0.29517 0.00251076)
(0.993804 0.280629 0.00233668)
(0.995601 0.265948 0.00201716)
(0.997181 0.2515 0.00177918)
(0.99863 0.23685 0.0014021)
(0.999932 0.222126 0.00104793)
(1.00106 0.207201 0.000673247)
(1.00204 0.192214 0.000367472)
(1.00301 0.176907 8.09857e-05)
(1.00404 0.161295 -0.000151449)
(1.00509 0.145564 -0.000336803)
(1.0062 0.129888 -0.000455504)
(1.00734 0.114607 -0.00052951)
(1.00838 0.0999069 -0.000531033)
(1.00934 0.0861473 -0.000498595)
(1.01017 0.0734153 -0.00042976)
(1.01078 0.061843 -0.00034167)
(1.0113 0.0514769 -0.000263678)
(1.01166 0.0423755 -0.000182249)
(1.01189 0.034398 -0.00012067)
(1.01204 0.027659 -6.83374e-05)
(1.01213 0.0218274 -2.84968e-05)
(1.01216 0.0171768 -2.93146e-06)
(1.01217 0.0130427 4.38406e-07)
(1.01214 0.0102765 1.48191e-05)
(0.999365 0.476199 -0.155761)
(0.99916 0.48275 -0.138991)
(0.998245 0.476914 -0.115538)
(1.00514 0.467274 -0.114932)
(1.01191 0.458804 -0.127534)
(1.01638 0.453117 -0.151432)
(1.01561 0.454741 -0.175361)
(1.01225 0.464468 -0.190438)
(1.00998 0.478266 -0.192324)
(1.00658 0.489706 -0.181423)
(1.00012 0.4924 -0.165084)
(0.991772 0.485672 -0.150275)
(0.983557 0.47259 -0.139714)
(0.976538 0.457081 -0.133547)
(0.971123 0.442046 -0.130062)
(0.967471 0.428086 -0.127584)
(0.965992 0.414447 -0.125287)
(0.966674 0.400142 -0.122787)
(0.969124 0.384828 -0.119636)
(0.972603 0.369125 -0.115741)
(0.976498 0.353819 -0.111175)
(0.980256 0.339072 -0.106468)
(0.983687 0.324493 -0.10182)
(0.986748 0.309993 -0.0972725)
(0.989442 0.295765 -0.0928467)
(0.991767 0.281615 -0.0884953)
(0.993799 0.267753 -0.0841571)
(0.9956 0.253698 -0.0799141)
(0.997175 0.23991 -0.0756617)
(0.998625 0.225873 -0.0714763)
(0.999924 0.211782 -0.0672436)
(1.00105 0.197491 -0.0629632)
(1.00202 0.183167 -0.058589)
(1.00299 0.168539 -0.0540723)
(1.00403 0.153633 -0.049409)
(1.0051 0.138613 -0.0446835)
(1.00622 0.123654 -0.0399321)
(1.00737 0.109073 -0.035268)
(1.00841 0.0950605 -0.0307236)
(1.00938 0.0819479 -0.026449)
(1.0102 0.0698303 -0.0224679)
(1.01082 0.0588142 -0.0188445)
(1.01134 0.0489484 -0.0156086)
(1.0117 0.0402893 -0.0127603)
(1.01192 0.032696 -0.0102909)
(1.01207 0.0262782 -0.0082236)
(1.01215 0.0207312 -0.00643803)
(1.01218 0.0163091 -0.00504504)
(1.01218 0.0123849 -0.00382162)
(1.01218 0.00975725 -0.00297812)
(0.999367 0.404757 -0.295294)
(0.99914 0.416223 -0.281426)
(0.998293 0.4178 -0.257093)
(1.00515 0.408806 -0.253663)
(1.01186 0.397023 -0.263281)
(1.01636 0.384188 -0.284019)
(1.01564 0.378233 -0.307178)
(1.01228 0.382888 -0.324571)
(1.00999 0.395424 -0.33068)
(1.00657 0.40963 -0.323815)
(1.00013 0.417194 -0.309039)
(0.991785 0.41533 -0.292852)
(0.983532 0.406226 -0.278778)
(0.976483 0.393508 -0.26815)
(0.971083 0.380337 -0.260205)
(0.967449 0.367863 -0.253522)
(0.965975 0.355632 -0.247073)
(0.96667 0.34283 -0.240253)
(0.969122 0.329267 -0.232521)
(0.972616 0.315534 -0.223957)
(0.976505 0.302355 -0.214904)
(0.980256 0.289756 -0.205882)
(0.983689 0.277315 -0.196959)
(0.98675 0.264919 -0.188149)
(0.989446 0.252745 -0.179537)
(0.991779 0.240614 -0.171011)
(0.993805 0.228774 -0.162604)
(0.995611 0.216712 -0.154225)
(0.997187 0.204898 -0.14592)
(0.998639 0.192823 -0.137606)
(0.999939 0.180712 -0.129223)
(1.00107 0.168413 -0.120732)
(1.00204 0.156132 -0.112138)
(1.00301 0.143586 -0.103316)
(1.00406 0.130808 -0.0942653)
(1.00513 0.117917 -0.0851286)
(1.00626 0.105096 -0.0759883)
(1.0074 0.0926094 -0.0670526)
(1.00844 0.0806387 -0.0584121)
(1.00941 0.0694495 -0.0503088)
(1.01022 0.0591385 -0.0427944)
(1.01084 0.0497741 -0.0359644)
(1.01135 0.04139 -0.0298549)
(1.0117 0.034044 -0.024488)
(1.01192 0.0276041 -0.0198127)
(1.01207 0.0221637 -0.0158919)
(1.01215 0.0174716 -0.0125005)
(1.01218 0.01374 -0.0098347)
(1.01218 0.0104314 -0.00745476)
(1.01217 0.00820167 -0.00582073)
(1.00377 0.572398 0.399512)
(1.02677 0.617988 0.363281)
(1.02412 0.661482 0.362178)
(1.01836 0.684581 0.391408)
(1.01092 0.683473 0.432297)
(1.00485 0.658516 0.469665)
(0.99968 0.617515 0.488439)
(0.995123 0.573862 0.485269)
(0.991421 0.539307 0.465555)
(0.990114 0.516948 0.436585)
(0.991941 0.505349 0.407372)
(0.996594 0.498648 0.383477)
(1.0028 0.494494 0.365475)
(1.00794 0.490209 0.353659)
(1.01072 0.484063 0.344152)
(1.0108 0.47516 0.333238)
(1.00913 0.463545 0.319764)
(1.00694 0.4498 0.305311)
(1.00503 0.434967 0.291496)
(1.00367 0.41991 0.279014)
(1.00294 0.404909 0.267656)
(1.00263 0.390142 0.25708)
(1.00256 0.375357 0.246983)
(1.00258 0.360468 0.237155)
(1.0027 0.345782 0.227582)
(1.00281 0.33107 0.218079)
(1.00293 0.31654 0.208747)
(1.00298 0.301747 0.199368)
(1.00305 0.287144 0.190156)
(1.00306 0.272171 0.180856)
(1.00305 0.257014 0.17156)
(1.00301 0.241505 0.162147)
(1.00299 0.225916 0.152621)
(1.00304 0.20992 0.142744)
(1.00316 0.193194 0.132189)
(1.00331 0.176068 0.12112)
(1.00355 0.158785 0.109759)
(1.00387 0.141752 0.0983824)
(1.0042 0.124991 0.087149)
(1.00457 0.109085 0.0763247)
(1.00491 0.0940877 0.0660795)
(1.00515 0.0801236 0.0565293)
(1.0054 0.0674404 0.0477153)
(1.00556 0.0561373 0.0398425)
(1.00564 0.0460009 0.0327511)
(1.00572 0.0374872 0.0266955)
(1.00578 0.0298678 0.0212601)
(1.00577 0.0238557 0.0170108)
(1.00579 0.0182156 0.0129999)
(1.00573 0.0145411 0.0104395)
(1.00378 0.667817 0.203068)
(1.02677 0.700038 0.154479)
(1.02412 0.741051 0.140168)
(1.01836 0.771915 0.160699)
(1.01091 0.783644 0.199801)
(1.00484 0.771438 0.243186)
(0.99969 0.738158 0.273826)
(0.995143 0.695704 0.284273)
(0.991421 0.656809 0.276059)
(0.990099 0.626601 0.255385)
(0.99192 0.606546 0.231276)
(0.99656 0.592769 0.210747)
(1.00275 0.583211 0.194987)
(1.00791 0.575476 0.184976)
(1.01072 0.566647 0.177589)
(1.01085 0.554762 0.169735)
(1.00919 0.539412 0.160433)
(1.007 0.521834 0.150967)
(1.00507 0.503465 0.14246)
(1.00369 0.48529 0.135235)
(1.00295 0.467537 0.129053)
(1.00263 0.450228 0.123578)
(1.00256 0.433053 0.118545)
(1.00258 0.415891 0.113791)
(1.0027 0.39895 0.109216)
(1.00281 0.382037 0.104704)
(1.00293 0.365325 0.100322)
(1.00298 0.348326 0.0959886)
(1.00307 0.331644 0.0916726)
(1.00307 0.31454 0.0874375)
(1.00306 0.297257 0.0832579)
(1.00302 0.279622 0.079063)
(1.00301 0.261857 0.0747825)
(1.00306 0.243627 0.0702859)
(1.00317 0.224501 0.0654013)
(1.0033 0.204851 0.0601671)
(1.00353 0.184954 0.0547178)
(1.00383 0.165299 0.049204)
(1.00414 0.145937 0.0437545)
(1.00451 0.127506 0.0384357)
(1.00485 0.110093 0.033384)
(1.00508 0.0938816 0.0286822)
(1.00532 0.0790941 0.0242886)
(1.0055 0.0659277 0.0203426)
(1.00559 0.0540967 0.0167497)
(1.00566 0.0440862 0.0136911)
(1.00572 0.0351257 0.0109378)
(1.00573 0.028069 0.00878629)
(1.00576 0.0214314 0.00670729)
(1.00569 0.0171928 0.00543153)
(1.00378 0.697919 -0.0132292)
(1.02677 0.713443 -0.0693955)
(1.02411 0.748117 -0.0957931)
(1.01836 0.783908 -0.0856399)
(1.01093 0.806949 -0.0520648)
(1.00483 0.808808 -0.00716407)
(0.999658 0.786678 0.0322387)
(0.995135 0.749509 0.0553751)
(0.991435 0.709971 0.0596238)
(0.990112 0.674805 0.0492763)
(0.991925 0.648245 0.032495)
(0.99657 0.628818 0.0171833)
(1.00278 0.614847 0.0051466)
(1.00795 0.604357 -0.00197039)
(1.01074 0.593705 -0.00622696)
(1.01085 0.580052 -0.00996869)
(1.00919 0.562696 -0.0140565)
(1.007 0.543103 -0.0176085)
(1.00507 0.522965 -0.0199956)
(1.00369 0.503409 -0.0212345)
(1.00297 0.484596 -0.0216504)
(1.00265 0.466453 -0.0215543)
(1.00257 0.448573 -0.0210437)
(1.00258 0.43077 -0.0202715)
(1.0027 0.413244 -0.0193655)
(1.0028 0.395761 -0.0184381)
(1.00292 0.378523 -0.0174398)
(1.00297 0.361025 -0.0162778)
(1.00305 0.343805 -0.0152291)
(1.00305 0.326231 -0.013962)
(1.00304 0.308501 -0.0125871)
(1.00299 0.290431 -0.0111093)
(1.00298 0.272217 -0.0096821)
(1.00301 0.253492 -0.00830635)
(1.00312 0.233801 -0.00701561)
(1.00325 0.213496 -0.00588684)
(1.00348 0.192905 -0.00489363)
(1.00379 0.172519 -0.00402709)
(1.00411 0.152421 -0.0031923)
(1.00449 0.133246 -0.00251457)
(1.00484 0.115117 -0.001924)
(1.00509 0.0982264 -0.00137613)
(1.00535 0.0827991 -0.000975863)
(1.00553 0.0690476 -0.000660118)
(1.00564 0.0566665 -0.000408168)
(1.00572 0.0461718 -0.000236598)
(1.00577 0.0367926 -0.000127436)
(1.00578 0.0294001 -3.50296e-05)
(1.00579 0.0224437 -1.47582e-05)
(1.00576 0.0180435 4.92421e-05)
(1.00377 0.659646 -0.228252)
(1.02677 0.657148 -0.286468)
(1.02413 0.681862 -0.322224)
(1.01834 0.718993 -0.323765)
(1.01091 0.75147 -0.298913)
(1.00486 0.767031 -0.256693)
(0.999681 0.75809 -0.21239)
(0.995121 0.729905 -0.178964)
(0.991419 0.693658 -0.16269)
(0.990105 0.657067 -0.161634)
(0.991914 0.626635 -0.169375)
(0.996557 0.60335 -0.177909)
(1.00276 0.586329 -0.18503)
(1.00793 0.574258 -0.188554)
(1.01073 0.562864 -0.189271)
(1.01085 0.54866 -0.18855)
(1.00919 0.530706 -0.187042)
(1.00699 0.510858 -0.18439)
(1.00506 0.491005 -0.180441)
(1.00368 0.472035 -0.175567)
(1.00295 0.454047 -0.170138)
(1.00263 0.436827 -0.164402)
(1.00256 0.419992 -0.158415)
(1.00257 0.403323 -0.152152)
(1.00269 0.386966 -0.145884)
(1.00279 0.370622 -0.139549)
(1.0029 0.354575 -0.13329)
(1.00295 0.338322 -0.126783)
(1.00302 0.322292 -0.120445)
(1.00302 0.305995 -0.113805)
(1.00301 0.289599 -0.107015)
(1.00296 0.272909 -0.100008)
(1.00295 0.256065 -0.0929889)
(1.00299 0.238719 -0.085837)
(1.0031 0.22044 -0.0784681)
(1.00325 0.201511 -0.0710536)
(1.00349 0.182275 -0.0636881)
(1.00381 0.163166 -0.0565205)
(1.00415 0.144313 -0.0494805)
(1.00454 0.12627 -0.0428997)
(1.00491 0.109199 -0.0367348)
(1.00516 0.0932681 -0.0310242)
(1.00542 0.0786767 -0.0259048)
(1.00561 0.0656643 -0.0213903)
(1.00572 0.0539302 -0.0173707)
(1.00579 0.0439572 -0.0140356)
(1.00584 0.0350428 -0.0110885)
(1.00583 0.0280166 -0.0088036)
(1.00582 0.0213998 -0.00671565)
(1.00583 0.0172197 -0.0053183)
(1.00378 0.556842 -0.420924)
(1.02676 0.536399 -0.475517)
(1.02413 0.548949 -0.517215)
(1.01836 0.583831 -0.530008)
(1.0109 0.622221 -0.516503)
(1.00484 0.650094 -0.481201)
(0.999686 0.655412 -0.436228)
(0.99514 0.638895 -0.395767)
(0.991427 0.609391 -0.369133)
(0.990113 0.574899 -0.356832)
(0.991941 0.543546 -0.354784)
(0.996584 0.518818 -0.355701)
(1.00279 0.500434 -0.357247)
(1.00796 0.48771 -0.356873)
(1.01076 0.476541 -0.353993)
(1.01084 0.463297 -0.34886)
(1.00916 0.44688 -0.341798)
(1.00694 0.428989 -0.333165)
(1.00501 0.411392 -0.323425)
(1.00364 0.394944 -0.312922)
(1.00293 0.379537 -0.302184)
(1.00263 0.364975 -0.291408)