/*--------------------------------*- C++ -*----------------------------------*\
  =========                 |
  \\      /  F ield         | OpenFOAM: The Open Source CFD Toolbox
   \\    /   O peration     | Website:  https://openfoam.org
    \\  /    A nd           | Version:  8
     \\/     M anipulation  |
\*---------------------------------------------------------------------------*/
FoamFile
{
    version     2.0;
    format      ascii;
    class       volScalarField;
    location    "2";
    object      p;
}
// * * * * * * * * * * * * * * * * * * * * * * * * * * * * * * * * * * * * * //

dimensions      [0 2 -2 0 0 0 0];

internalField   nonuniform List<scalar> 
10000
(
96.8361
93.8667
93.2963
92.8234
91.8489
90.7716
89.7943
88.8581
87.9052
86.9397
85.9758
85.0151
84.0546
83.0934
82.132
81.1707
80.2096
79.2484
78.2873
77.3261
76.365
75.4038
74.4427
73.4816
72.5205
71.5594
70.5983
69.6372
68.6762
67.7151
66.754
65.7929
64.8319
63.8708
62.9097
61.9487
60.9876
60.0266
59.0655
58.1045
57.1434
56.1824
55.2213
54.2603
53.2992
52.3382
51.3771
50.416
49.455
48.4939
47.5329
46.5718
45.6108
44.6497
43.6887
42.7276
41.7665
40.8055
39.8444
38.8834
37.9223
36.9612
36.0002
35.0391
34.078
33.117
32.1559
31.1948
30.2337
29.2727
28.3116
27.3505
26.3894
25.4283
24.4673
23.5062
22.5451
21.584
20.6229
19.6618
18.7007
17.7396
16.7785
15.8175
14.8564
13.8953
12.9342
11.9731
11.012
10.0509
9.08976
8.12866
7.16756
6.20647
5.24536
4.28434
3.3231
2.36275
1.40056
0.456673
96.8378
93.8721
93.2825
92.8181
91.8531
90.774
89.7936
88.8573
87.9054
86.9399
85.9758
85.015
84.0546
83.0934
82.132
81.1707
80.2096
79.2484
78.2872
77.3261
76.3649
75.4038
74.4427
73.4816
72.5205
71.5594
70.5983
69.6372
68.6761
67.7151
66.754
65.7929
64.8319
63.8708
62.9097
61.9487
60.9876
60.0266
59.0655
58.1045
57.1434
56.1824
55.2213
54.2603
53.2992
52.3381
51.3771
50.416
49.455
48.4939
47.5329
46.5718
45.6108
44.6497
43.6887
42.7276
41.7665
40.8055
39.8444
38.8834
37.9223
36.9612
36.0002
35.0391
34.078
33.117
32.1559
31.1948
30.2337
29.2727
28.3116
27.3505
26.3894
25.4283
24.4673
23.5062
22.5451
21.584
20.6229
19.6618
18.7007
17.7396
16.7785
15.8174
14.8564
13.8953
12.9342
11.9731
11.012
10.0509
9.08975
8.12865
7.16755
6.20646
5.24535
4.2843
3.32305
2.36262
1.40048
0.456872
96.8374
93.8708
93.278
92.8178
91.8556
90.7749
89.7928
88.8569
87.9055
86.9401
85.9757
85.0149
84.0545
83.0933
82.1319
81.1707
80.2095
79.2484
78.2872
77.3261
76.3649
75.4038
74.4427
73.4816
72.5205
71.5594
70.5983
69.6372
68.6761
67.7151
66.754
65.7929
64.8319
63.8708
62.9097
61.9487
60.9876
60.0266
59.0655
58.1045
57.1434
56.1824
55.2213
54.2602
53.2992
52.3381
51.3771
50.416
49.455
48.4939
47.5329
46.5718
45.6108
44.6497
43.6887
42.7276
41.7665
40.8055
39.8444
38.8834
37.9223
36.9612
36.0002
35.0391
34.078
33.117
32.1559
31.1948
30.2337
29.2727
28.3116
27.3505
26.3894
25.4283
24.4673
23.5062
22.5451
21.584
20.6229
19.6618
18.7007
17.7396
16.7785
15.8174
14.8564
13.8953
12.9342
11.9731
11.012
10.0508
9.08975
8.12865
7.16754
6.20645
5.24533
4.28428
3.32302
2.36258
1.40044
0.456933
96.8376
93.8702
93.2765
92.8167
91.8555
90.7748
89.7925
88.8566
87.9053
86.94
85.9756
85.0148
84.0544
83.0932
82.1318
81.1706
80.2095
79.2483
78.2872
77.326
76.3649
75.4038
74.4426
73.4815
72.5204
71.5594
70.5983
69.6372
68.6761
67.715
66.754
65.7929
64.8318
63.8708
62.9097
61.9487
60.9876
60.0265
59.0655
58.1044
57.1434
56.1823
55.2213
54.2602
53.2992
52.3381
51.3771
50.416
49.455
48.4939
47.5329
46.5718
45.6108
44.6497
43.6886
42.7276
41.7665
40.8055
39.8444
38.8833
37.9223
36.9612
36.0002
35.0391
34.078
33.1169
32.1559
31.1948
30.2337
29.2727
28.3116
27.3505
26.3894
25.4283
24.4673
23.5062
22.5451
21.584
20.6229
19.6618
18.7007
17.7396
16.7785
15.8174
14.8563
13.8952
12.9341
11.973
11.0119
10.0508
9.08973
8.12863
7.16752
6.20642
5.24531
4.28425
3.32298
2.36254
1.40037
0.456981
96.8374
93.8694
93.2751
92.8156
91.8552
90.7747
89.7923
88.8563
87.9051
86.9398
85.9755
85.0147
84.0543
83.0931
82.1318
81.1705
80.2094
79.2482
78.2871
77.3259
76.3648
75.4037
74.4426
73.4815
72.5204
71.5593
70.5982
69.6371
68.6761
67.715
66.7539
65.7929
64.8318
63.8707
62.9097
61.9486
60.9876
60.0265
59.0655
58.1044
57.1434
56.1823
55.2213
54.2602
53.2992
52.3381
51.3771
50.416
49.455
48.4939
47.5329
46.5718
45.6107
44.6497
43.6886
42.7276
41.7665
40.8055
39.8444
38.8833
37.9223
36.9612
36.0001
35.0391
34.078
33.1169
32.1559
31.1948
30.2337
29.2726
28.3116
27.3505
26.3894
25.4283
24.4672
23.5062
22.5451
21.584
20.6229
19.6618
18.7007
17.7396
16.7785
15.8174
14.8563
13.8952
12.9341
11.973
11.0119
10.0508
9.08971
8.12861
7.1675
6.2064
5.24527
4.28421
3.32294
2.36251
1.40031
0.457043
96.8374
93.8686
93.2741
92.8148
91.8547
90.7745
89.792
88.856
87.9049
86.9396
85.9753
85.0145
84.0541
83.093
82.1316
81.1704
80.2093
79.2481
78.287
77.3259
76.3647
75.4036
74.4425
73.4814
72.5203
71.5593
70.5982
69.6371
68.676
67.715
66.7539
65.7928
64.8318
63.8707
62.9097
61.9486
60.9875
60.0265
59.0654
58.1044
57.1433
56.1823
55.2212
54.2602
53.2991
52.3381
51.377
50.416
49.4549
48.4939
47.5328
46.5718
45.6107
44.6497
43.6886
42.7275
41.7665
40.8054
39.8444
38.8833
37.9222
36.9612
36.0001
35.039
34.078
33.1169
32.1558
31.1948
30.2337
29.2726
28.3115
27.3505
26.3894
25.4283
24.4672
23.5061
22.545
21.584
20.6229
19.6618
18.7007
17.7396
16.7785
15.8174
14.8563
13.8952
12.9341
11.973
11.0119
10.0508
9.08968
8.12858
7.16747
6.20636
5.24524
4.28418
3.32289
2.36247
1.40024
0.457115
96.8374
93.8679
93.2731
92.8141
91.8542
90.7741
89.7916
88.8556
87.9046
86.9394
85.9751
85.0143
84.054
83.0928
82.1315
81.1703
80.2091
79.248
78.2869
77.3258
76.3646
75.4035
74.4424
73.4814
72.5203
71.5592
70.5981
69.637
68.676
67.7149
66.7538
65.7928
64.8317
63.8707
62.9096
61.9486
60.9875
60.0264
59.0654
58.1043
57.1433
56.1823
55.2212
54.2602
53.2991
52.3381
51.377
50.416
49.4549
48.4938
47.5328
46.5717
45.6107
44.6496
43.6886
42.7275
41.7665
40.8054
39.8443
38.8833
37.9222
36.9612
36.0001
35.039
34.078
33.1169
32.1558
31.1947
30.2337
29.2726
28.3115
27.3504
26.3894
25.4283
24.4672
23.5061
22.545
21.5839
20.6228
19.6618
18.7007
17.7396
16.7785
15.8174
14.8563
13.8952
12.9341
11.973
11.0119
10.0508
9.08965
8.12854
7.16743
6.20633
5.2452
4.28413
3.32284
2.36243
1.40016
0.457197
96.8374
93.8671
93.2722
92.8133
91.8536
90.7736
89.7912
88.8552
87.9042
86.9391
85.9748
85.0141
84.0537
83.0926
82.1313
81.1701
80.209
79.2479
78.2868
77.3256
76.3645
75.4034
74.4423
73.4813
72.5202
71.5591
70.598
69.637
68.6759
67.7148
66.7538
65.7927
64.8317
63.8706
62.9096
61.9485
60.9875
60.0264
59.0654
58.1043
57.1433
56.1822
55.2212
54.2601
53.2991
52.338
51.377
50.4159
49.4549
48.4938
47.5328
46.5717
45.6107
44.6496
43.6885
42.7275
41.7664
40.8054
39.8443
38.8832
37.9222
36.9611
36.0001
35.039
34.0779
33.1169
32.1558
31.1947
30.2336
29.2726
28.3115
27.3504
26.3893
25.4282
24.4672
23.5061
22.545
21.5839
20.6228
19.6617
18.7006
17.7395
16.7784
15.8173
14.8562
13.8951
12.934
11.9729
11.0118
10.0507
9.08962
8.12851
7.16739
6.20628
5.24515
4.28409
3.32279
2.36239
1.40007
0.457287
96.8374
93.8663
93.2712
92.8126
91.8531
90.7731
89.7907
88.8548
87.9039
86.9387
85.9745
85.0138
84.0535
83.0924
82.1311
81.1699
80.2088
79.2477
78.2866
77.3255
76.3644
75.4033
74.4422
73.4812
72.5201
71.559
70.5979
69.6369
68.6758
67.7148
66.7537
65.7926
64.8316
63.8705
62.9095
61.9484
60.9874
60.0263
59.0653
58.1043
57.1432
56.1822
55.2211
54.2601
53.299
52.338
51.3769
50.4159
49.4548
48.4938
47.5327
46.5717
45.6106
44.6496
43.6885
42.7274
41.7664
40.8053
39.8443
38.8832
37.9222
36.9611
36
35.039
34.0779
33.1168
32.1558
31.1947
30.2336
29.2725
28.3115
27.3504
26.3893
25.4282
24.4671
23.506
22.545
21.5839
20.6228
19.6617
18.7006
17.7395
16.7784
15.8173
14.8562
13.8951
12.934
11.9729
11.0118
10.0507
9.08958
8.12846
7.16735
6.20624
5.24511
4.28404
3.32274
2.36235
1.39998
0.457382
96.8374
93.8656
93.2702
92.8118
91.8525
90.7726
89.7902
88.8544
87.9035
86.9384
85.9742
85.0135
84.0533
83.0922
82.1309
81.1697
80.2087
79.2476
78.2865
77.3254
76.3643
75.4032
74.4421
73.4811
72.52
71.5589
70.5979
69.6368
68.6757
67.7147
66.7536
65.7926
64.8315
63.8705
62.9094
61.9484
60.9873
60.0263
59.0652
58.1042
57.1432
56.1821
55.2211
54.26
53.299
52.3379
51.3769
50.4158
49.4548
48.4937
47.5327
46.5716
45.6106
44.6495
43.6885
42.7274
41.7664
40.8053
39.8442
38.8832
37.9221
36.961
36
35.0389
34.0779
33.1168
32.1557
31.1946
30.2336
29.2725
28.3114
27.3503
26.3893
25.4282
24.4671
23.506
22.5449
21.5838
20.6227
19.6617
18.7006
17.7395
16.7784
15.8173
14.8562
13.8951
12.934
11.9729
11.0118
10.0506
9.08953
8.12842
7.1673
6.20619
5.24505
4.28399
3.32268
2.3623
1.39989
0.457479
96.8374
93.8648
93.2693
92.8111
91.8519
90.772
89.7897
88.8539
87.9031
86.938
85.9739
85.0132
84.053
83.092
82.1307
81.1695
80.2085
79.2474
78.2863
77.3252
76.3641
75.4031
74.442
73.4809
72.5199
71.5588
70.5978
69.6367
68.6756
67.7146
66.7535
65.7925
64.8314
63.8704
62.9094
61.9483
60.9873
60.0262
59.0652
58.1041
57.1431
56.182
55.221
54.26
53.2989
52.3379
51.3768
50.4158
49.4547
48.4937
47.5326
46.5716
45.6105
44.6495
43.6884
42.7274
41.7663
40.8052
39.8442
38.8831
37.9221
36.961
35.9999
35.0389
34.0778
33.1167
32.1557
31.1946
30.2335
29.2725
28.3114
27.3503
26.3892
25.4281
24.4671
23.506
22.5449
21.5838
20.6227
19.6616
18.7005
17.7394
16.7783
15.8172
14.8561
13.895
12.9339
11.9728
11.0117
10.0506
9.08949
8.12837
7.16725
6.20614
5.245
4.28393
3.32262
2.36225
1.39979
0.457578
96.8374
93.864
93.2683
92.8103
91.8513
90.7715
89.7892
88.8535
87.9027
86.9377
85.9736
85.0129
84.0527
83.0917
82.1304
81.1693
80.2083
79.2472
78.2861
77.3251
76.364
75.4029
74.4419
73.4808
72.5198
71.5587
70.5976
69.6366
68.6755
67.7145
66.7535
65.7924
64.8314
63.8703
62.9093
61.9482
60.9872
60.0262
59.0651
58.1041
57.143
56.182
55.2209
54.2599
53.2989
52.3378
51.3768
50.4157
49.4547
48.4936
47.5326
46.5715
45.6105
44.6494
43.6884
42.7273
41.7663
40.8052
39.8441
38.8831
37.922
36.961
35.9999
35.0388
34.0778
33.1167
32.1556
31.1946
30.2335
29.2724
28.3113
27.3503
26.3892
25.4281
24.467
23.5059
22.5448
21.5838
20.6227
19.6616
18.7005
17.7394
16.7783
15.8172
14.8561
13.895
12.9339
11.9728
11.0117
10.0506
9.08944
8.12832
7.1672
6.20609
5.24495
4.28388
3.32256
2.3622
1.39969
0.457675
96.8374
93.8633
93.2674
92.8096
91.8508
90.771
89.7887
88.853
87.9023
86.9373
85.9732
85.0126
84.0524
83.0914
82.1302
81.1691
80.2081
79.247
78.286
77.3249
76.3638
75.4028
74.4417
73.4807
72.5196
71.5586
70.5975
69.6365
68.6754
67.7144
66.7534
65.7923
64.8313
63.8702
62.9092
61.9482
60.9871
60.0261
59.065
58.104
57.143
56.1819
55.2209
54.2598
53.2988
52.3378
51.3767
50.4157
49.4546
48.4936
47.5325
46.5715
45.6104
44.6494
43.6883
42.7273
41.7662
40.8052
39.8441
38.883
37.922
36.9609
35.9999
35.0388
34.0777
33.1167
32.1556
31.1945
30.2334
29.2724
28.3113
27.3502
26.3891
25.4281
24.467
23.5059
22.5448
21.5837
20.6226
19.6615
18.7004
17.7393
16.7782
15.8171
14.856
13.8949
12.9338
11.9727
11.0116
10.0505
9.08939
8.12827
7.16715
6.20604
5.24489
4.28382
3.3225
2.36215
1.3996
0.45777
96.8374
93.8626
93.2666
92.8089
91.8502
90.7704
89.7882
88.8526
87.9018
86.9369
85.9729
85.0123
84.0521
83.0912
82.1299
81.1689
80.2078
79.2468
78.2858
77.3247
76.3637
75.4026
74.4416
73.4805
72.5195
71.5585
70.5974
69.6364
68.6753
67.7143
66.7533
65.7922
64.8312
63.8702
62.9091
61.9481
60.987
60.026
59.065
58.1039
57.1429
56.1819
55.2208
54.2598
53.2987
52.3377
51.3766
50.4156
49.4546
48.4935
47.5325
46.5714
45.6104
44.6493
43.6883
42.7272
41.7662
40.8051
39.844
38.883
37.9219
36.9609
35.9998
35.0387
34.0777
33.1166
32.1555
31.1945
30.2334
29.2723
28.3112
27.3502
26.3891
25.428
24.4669
23.5058
22.5448
21.5837
20.6226
19.6615
18.7004
17.7393
16.7782
15.8171
14.856
13.8949
12.9338
11.9727
11.0116
10.0505
9.08934
8.12822
7.1671
6.20598
5.24484
4.28377
3.32243
2.3621
1.3995
0.457862
96.8375
93.862
93.2657
92.8083
91.8497
90.7699
89.7877
88.8521
87.9014
86.9366
85.9725
85.012
84.0518
83.0909
82.1297
81.1686
80.2076
79.2466
78.2856
77.3245
76.3635
75.4025
74.4414
73.4804
72.5194
71.5583
70.5973
69.6363
68.6752
67.7142
66.7532
65.7921
64.8311
63.8701
62.909
61.948
60.987
60.0259
59.0649
58.1039
57.1428
56.1818
55.2208
54.2597
53.2987
52.3376
51.3766
50.4155
49.4545
48.4935
47.5324
46.5714
45.6103
44.6493
43.6882
42.7272
41.7661
40.8051
39.844
38.8829
37.9219
36.9608
35.9998
35.0387
34.0776
33.1166
32.1555
31.1944
30.2333
29.2723
28.3112
27.3501
26.389
25.428
24.4669
23.5058
22.5447
21.5836
20.6225
19.6614
18.7003
17.7392
16.7782
15.8171
14.8559
13.8948
12.9337
11.9726
11.0115
10.0504
9.08929
8.12817
7.16705
6.20593
5.24478
4.28371
3.32237
2.36205
1.39941
0.457948
96.8375
93.8614
93.2649
92.8076
91.8492
90.7694
89.7873
88.8517
87.901
86.9362
85.9722
85.0117
84.0516
83.0906
82.1294
81.1684
80.2074
79.2464
78.2854
77.3244
76.3633
75.4023
74.4413
73.4803
72.5192
71.5582
70.5972
69.6362
68.6751
67.7141
66.7531
65.792
64.831
63.87
62.9089
61.9479
60.9869
60.0259
59.0648
58.1038
57.1428
56.1817
55.2207
54.2596
53.2986
52.3376
51.3765
50.4155
49.4544
48.4934
47.5324
46.5713
45.6103
44.6492
43.6882
42.7271
41.7661
40.805
39.8439
38.8829
37.9218
36.9608
35.9997
35.0386
34.0776
33.1165
32.1554
31.1944
30.2333
29.2722
28.3111
27.3501
26.389
25.4279
24.4668
23.5057
22.5447
21.5836
20.6225
19.6614
18.7003
17.7392
16.7781
15.817
14.8559
13.8948
12.9337
11.9726
11.0115
10.0504
9.08924
8.12812
7.167
6.20588
5.24473
4.28366
3.32232
2.362
1.39932
0.45803
96.8375
93.8608
93.2642
92.807
91.8487
90.769
89.7868
88.8513
87.9007
86.9358
85.9719
85.0114
84.0513
83.0904
82.1292
81.1682
80.2072
79.2462
78.2852
77.3242
76.3632
75.4022
74.4411
73.4801
72.5191
71.5581
70.5971
69.636
68.675
67.714
66.753
65.7919
64.8309
63.8699
62.9089
61.9478
60.9868
60.0258
59.0647
58.1037
57.1427
56.1816
55.2206
54.2596
53.2985
52.3375
51.3765
50.4154
49.4544
48.4933
47.5323
46.5712
45.6102
44.6492
43.6881
42.7271
41.766
40.8049
39.8439
38.8828
37.9218
36.9607
35.9997
35.0386
34.0775
33.1165
32.1554
31.1943
30.2333
29.2722
28.3111
27.35
26.3889
25.4279
24.4668
23.5057
22.5446
21.5835
20.6224
19.6613
18.7003
17.7392
16.7781
15.817
14.8559
13.8948
12.9336
11.9725
11.0114
10.0503
9.08919
8.12807
7.16695
6.20583
5.24468
4.28361
3.32226
2.36196
1.39924
0.458105
96.8376
93.8603
93.2635
92.8065
91.8482
90.7685
89.7864
88.8509
87.9003
86.9355
85.9716
85.0111
84.051
83.0901
82.129
81.1679
80.207
79.246
78.285
77.324
76.363
75.402
74.441
73.48
72.519
71.558
70.5969
69.6359
68.6749
67.7139
66.7529
65.7918
64.8308
63.8698
62.9088
61.9477
60.9867
60.0257
59.0647
58.1036
57.1426
56.1816
55.2205
54.2595
53.2985
52.3374
51.3764
50.4154
49.4543
48.4933
47.5322
46.5712
45.6101
44.6491
43.688
42.727
41.7659
40.8049
39.8438
38.8828
37.9217
36.9607
35.9996
35.0385
34.0775
33.1164
32.1553
31.1943
30.2332
29.2721
28.3111
27.35
26.3889
25.4278
24.4667
23.5057
22.5446
21.5835
20.6224
19.6613
18.7002
17.7391
16.778
15.8169
14.8558
13.8947
12.9336
11.9725
11.0114
10.0503
9.08914
8.12802
7.1669
6.20578
5.24463
4.28356
3.32221
2.36192
1.39916
0.458175
96.8376
93.8598
93.2629
92.8059
91.8478
90.7681
89.786
88.8505
87.8999
86.9352
85.9712
85.0108
84.0507
83.0898
82.1287
81.1677
80.2068
79.2458
78.2848
77.3238
76.3628
75.4018
74.4408
73.4798
72.5188
71.5578
70.5968
69.6358
68.6748
67.7138
66.7528
65.7917
64.8307
63.8697
62.9087
61.9477
60.9866
60.0256
59.0646
58.1036
57.1425
56.1815
55.2205
54.2594
53.2984
52.3374
51.3763
50.4153
49.4543
48.4932
47.5322
46.5711
45.6101
44.649
43.688
42.7269
41.7659
40.8048
39.8438
38.8827
37.9217
36.9606
35.9996
35.0385
34.0774
33.1164
32.1553
31.1942
30.2332
29.2721
28.311
27.3499
26.3889
25.4278
24.4667
23.5056
22.5445
21.5834
20.6223
19.6613
18.7002
17.7391
16.778
15.8169
14.8558
13.8947
12.9336
11.9724
11.0113
10.0502
9.0891
8.12798
7.16685
6.20573
5.24458
4.28351
3.32216
2.36188
1.39909
0.458238
96.8376
93.8594
93.2623
92.8055
91.8474
90.7678
89.7856
88.8501
87.8996
86.9349
85.971
85.0105
84.0505
83.0896
82.1285
81.1675
80.2066
79.2456
78.2846
77.3237
76.3627
75.4017
74.4407
73.4797
72.5187
71.5577
70.5967
69.6357
68.6747
67.7137
66.7527
65.7916
64.8306
63.8696
62.9086
61.9476
60.9866
60.0255
59.0645
58.1035
57.1425
56.1814
55.2204
54.2594
53.2983
52.3373
51.3763
50.4152
49.4542
48.4932
47.5321
46.5711
45.61
44.649
43.6879
42.7269
41.7658
40.8048
39.8437
38.8827
37.9216
36.9606
35.9995
35.0384
34.0774
33.1163
32.1552
31.1942
30.2331
29.272
28.311
27.3499
26.3888
25.4277
24.4666
23.5056
22.5445
21.5834
20.6223
19.6612
18.7001
17.739
16.7779
15.8168
14.8557
13.8946
12.9335
11.9724
11.0113
10.0502
9.08905
8.12793
7.16681
6.20569
5.24454
4.28347
3.32211
2.36184
1.39902
0.458295
96.8377
93.859
93.2618
92.805
91.847
90.7674
89.7853
88.8498
87.8993
86.9346
85.9707
85.0102
84.0502
83.0894
82.1283
81.1673
80.2064
79.2454
78.2845
77.3235
76.3625
75.4015
74.4405
73.4796
72.5186
71.5576
70.5966
69.6356
68.6746
67.7136
66.7526
65.7915
64.8305
63.8695
62.9085
61.9475
60.9865
60.0255
59.0644
58.1034
57.1424
56.1814
55.2203
54.2593
53.2983
52.3372
51.3762
50.4152
49.4541
48.4931
47.5321
46.571
45.61
44.6489
43.6879
42.7268
41.7658
40.8047
39.8437
38.8826
37.9216
36.9605
35.9995
35.0384
34.0773
33.1163
32.1552
31.1941
30.2331
29.272
28.3109
27.3498
26.3888
25.4277
24.4666
23.5055
22.5444
21.5833
20.6223
19.6612
18.7001
17.739
16.7779
15.8168
14.8557
13.8946
12.9335
11.9724
11.0112
10.0501
9.08901
8.12789
7.16676
6.20564
5.24449
4.28342
3.32207
2.3618
1.39896
0.458346
96.8377
93.8587
93.2613
92.8047
91.8467
90.7671
89.7849
88.8495
87.899
86.9343
85.9704
85.01
84.05
83.0891
82.128
81.1671
80.2062
79.2452
78.2843
77.3233
76.3623
75.4014
74.4404
73.4794
72.5184
71.5574
70.5964
69.6355
68.6745
67.7135
66.7524
65.7914
64.8304
63.8694
62.9084
61.9474
60.9864
60.0254
59.0644
58.1033
57.1423
56.1813
55.2203
54.2592
53.2982
52.3372
51.3761
50.4151
49.4541
48.493
47.532
46.571
45.6099
44.6489
43.6878
42.7268
41.7657
40.8047
39.8436
38.8826
37.9215
36.9605
35.9994
35.0383
34.0773
33.1162
32.1551
31.1941
30.233
29.2719
28.3109
27.3498
26.3887
25.4276
24.4666
23.5055
22.5444
21.5833
20.6222
19.6611
18.7
17.7389
16.7778
15.8167
14.8556
13.8945
12.9334
11.9723
11.0112
10.0501
9.08897
8.12785
7.16672
6.2056
5.24445
4.28338
3.32203
2.36177
1.39891
0.458391
96.8378
93.8584
93.2609
92.8043
91.8464
90.7668
89.7846
88.8492
87.8987
86.934
85.9702
85.0098
84.0497
83.0889
82.1278
81.1669
80.206
79.2451
78.2841
77.3232
76.3622
75.4012
74.4403
73.4793
72.5183
71.5573
70.5963
69.6353
68.6743
67.7133
66.7523
65.7913
64.8303
63.8693
62.9083
61.9473
60.9863
60.0253
59.0643
58.1033
57.1422
56.1812
55.2202
54.2592
53.2981
52.3371
51.3761
50.415
49.454
48.493
47.5319
46.5709
45.6099
44.6488
43.6878
42.7267
41.7657
40.8046
39.8436
38.8825
37.9215
36.9604
35.9994
35.0383
34.0772
33.1162
32.1551
31.194
30.233
29.2719
28.3108
27.3497
26.3887
25.4276
24.4665
23.5054
22.5443
21.5833
20.6222
19.6611
18.7
17.7389
16.7778
15.8167
14.8556
13.8945
12.9334
11.9723
11.0112
10.05
9.08893
8.12781
7.16668
6.20556
5.24441
4.28335
3.32199
2.36174
1.39886
0.45843
96.8378
93.8582
93.2606
92.804
91.8461
90.7665
89.7844
88.849
87.8985
86.9338
85.9699
85.0095
84.0495
83.0887
82.1276
81.1667
80.2058
79.2449
78.2839
77.323
76.362
75.4011
74.4401
73.4791
72.5182
71.5572
70.5962
69.6352
68.6742
67.7132
66.7522
65.7913
64.8303
63.8692
62.9082
61.9472
60.9862
60.0252
59.0642
58.1032
57.1422
56.1811
55.2201
54.2591
53.2981
52.337
51.376
50.415
49.454
48.4929
47.5319
46.5708
45.6098
44.6488
43.6877
42.7267
41.7656
40.8046
39.8435
38.8825
37.9214
36.9604
35.9993
35.0382
34.0772
33.1161
32.1551
31.194
30.2329
29.2718
28.3108
27.3497
26.3886
25.4275
24.4665
23.5054
22.5443
21.5832
20.6221
19.661
18.6999
17.7388
16.7777
15.8167
14.8555
13.8944
12.9333
11.9722
11.0111
10.05
9.08889
8.12777
7.16665
6.20553
5.24438
4.28331
3.32195
2.36171
1.39881
0.458464
96.8379
93.858
93.2603
92.8037
91.8459
90.7663
89.7841
88.8487
87.8983
86.9336
85.9697
85.0093
84.0493
83.0885
82.1275
81.1665
80.2056
79.2447
78.2838
77.3228
76.3619
75.4009
74.44
73.479
72.518
71.5571
70.5961
69.6351
68.6741
67.7131
66.7522
65.7912
64.8302
63.8692
62.9082
61.9472
60.9861
60.0251
59.0641
58.1031
57.1421
56.1811
55.2201
54.259
53.298
52.337
51.376
50.4149
49.4539
48.4929
47.5318
46.5708
45.6097
44.6487
43.6877
42.7266
41.7656
40.8045
39.8435
38.8824
37.9214
36.9603
35.9993
35.0382
34.0771
33.1161
32.155
31.1939
30.2329
29.2718
28.3107
27.3497
26.3886
25.4275
24.4664
23.5053
22.5443
21.5832
20.6221
19.661
18.6999
17.7388
16.7777
15.8166
14.8555
13.8944
12.9333
11.9722
11.0111
10.05
9.08885
8.12774
7.16661
6.20549
5.24435
4.28328
3.32192
2.36169
1.39878
0.458494
96.8379
93.8578
93.26
92.8035
91.8456
90.7661
89.7839
88.8485
87.898
86.9334
85.9695
85.0091
84.0491
83.0883
82.1273
81.1663
80.2055
79.2446
78.2836
77.3227
76.3618
75.4008
74.4399
73.4789
72.5179
71.557
70.596
69.635
68.674
67.713
66.7521
65.7911
64.8301
63.8691
62.9081
61.9471
60.9861
60.0251
59.0641
58.103
57.142
56.181
55.22
54.259
53.2979
52.3369
51.3759
50.4149
49.4538
48.4928
47.5318
46.5707
45.6097
44.6487
43.6876
42.7266
41.7655
40.8045
39.8434
38.8824
37.9213
36.9603
35.9992
35.0382
34.0771
33.116
32.155
31.1939
30.2328
29.2718
28.3107
27.3496
26.3885
25.4275
24.4664
23.5053
22.5442
21.5831
20.622
19.661
18.6999
17.7388
16.7777
15.8166
14.8555
13.8944
12.9333
11.9722
11.011
10.0499
9.08882
8.1277
7.16658
6.20546
5.24432
4.28325
3.32189
2.36166
1.39874
0.458519
96.838
93.8577
93.2598
92.8033
91.8455
90.7659
89.7837
88.8483
87.8978
86.9332
85.9693
85.0089
84.049
83.0882
82.1271
81.1662
80.2053
79.2444
78.2835
77.3226
76.3616
75.4007
74.4397
73.4788
72.5178
71.5568
70.5959
69.6349
68.6739
67.7129
66.752
65.791
64.83
63.869
62.908
61.947
60.986
60.025
59.064
58.103
57.142
56.1809
55.2199
54.2589
53.2979
52.3369
51.3758
50.4148
49.4538
48.4927
47.5317
46.5707
45.6096
44.6486
43.6876
42.7265
41.7655
40.8044
39.8434
38.8823
37.9213
36.9602
35.9992
35.0381
34.077
33.116
32.1549
31.1939
30.2328
29.2717
28.3106
27.3496
26.3885
25.4274
24.4663
23.5053
22.5442
21.5831
20.622
19.6609
18.6998
17.7387
16.7776
15.8165
14.8554
13.8943
12.9332
11.9721
11.011
10.0499
9.08879
8.12767
7.16655
6.20543
5.24429
4.28323
3.32187
2.36164
1.39871
0.458541
96.838
93.8576
93.2596
92.8031
91.8453
90.7657
89.7835
88.8481
87.8977
86.933
85.9692
85.0088
84.0488
83.088
82.127
81.166
80.2052
79.2443
78.2834
77.3224
76.3615
75.4006
74.4396
73.4787
72.5177
71.5567
70.5958
69.6348
68.6738
67.7129
66.7519
65.7909
64.8299
63.8689
62.9079
61.9469
60.9859
60.0249
59.0639
58.1029
57.1419
56.1809
55.2199
54.2588
53.2978
52.3368
51.3758
50.4148
49.4537
48.4927
47.5317
46.5706
45.6096
44.6486
43.6875
42.7265
41.7654
40.8044
39.8433
38.8823
37.9212
36.9602
35.9991
35.0381
34.077
33.1159
32.1549
31.1938
30.2327
29.2717
28.3106
27.3495
26.3885
25.4274
24.4663
23.5052
22.5441
21.5831
20.622
19.6609
18.6998
17.7387
16.7776
15.8165
14.8554
13.8943
12.9332
11.9721
11.011
10.0499
9.08876
8.12764
7.16652
6.20541
5.24426
4.2832
3.32185
2.36162
1.39869
0.458559
96.8381
93.8575
93.2595
92.8029
91.8452
90.7655
89.7834
88.848
87.8975
86.9328
85.969
85.0086
84.0486
83.0879
82.1268
81.1659
80.205
79.2441
78.2832
77.3223
76.3614
75.4004
74.4395
73.4785
72.5176
71.5566
70.5957
69.6347
68.6737
67.7128
66.7518
65.7908
64.8298
63.8688
62.9078
61.9468
60.9858
60.0248
59.0638
58.1028
57.1418
56.1808
55.2198
54.2588
53.2978
52.3367
51.3757
50.4147
49.4537
48.4926
47.5316
46.5706
45.6095
44.6485
43.6875
42.7264
41.7654
40.8043
39.8433
38.8822
37.9212
36.9601
35.9991
35.038
34.077
33.1159
32.1548
31.1938
30.2327
29.2716
28.3106
27.3495
26.3884
25.4273
24.4663
23.5052
22.5441
21.583
20.6219
19.6608
18.6998
17.7387
16.7776
15.8165
14.8554
13.8943
12.9332
11.9721
11.011
10.0498
9.08873
8.12761
7.1665
6.20538
5.24424
4.28318
3.32183
2.36161
1.39866
0.458574
96.8381
93.8574
93.2593
92.8028
91.845
90.7654
89.7832
88.8478
87.8974
86.9327
85.9689
85.0085
84.0485
83.0877
82.1267
81.1658
80.2049
79.244
78.2831
77.3222
76.3613
75.4003
74.4394
73.4784
72.5175
71.5565
70.5956
69.6346
68.6737
67.7127
66.7517
65.7907
64.8297
63.8688
62.9078
61.9468
60.9858
60.0248
59.0638
58.1028
57.1418
56.1808
55.2197
54.2587
53.2977
52.3367
51.3757
50.4146
49.4536
48.4926
47.5316
46.5705
45.6095
44.6485
43.6874
42.7264
41.7653
40.8043
39.8432
38.8822
37.9211
36.9601
35.999
35.038
34.0769
33.1159
32.1548
31.1937
30.2327
29.2716
28.3105
27.3495
26.3884
25.4273
24.4662
23.5052
22.5441
21.583
20.6219
19.6608
18.6997
17.7386
16.7775
15.8164
14.8553
13.8942
12.9331
11.972
11.0109
10.0498
9.0887
8.12759
7.16647
6.20536
5.24422
4.28316
3.32181
2.36159
1.39865
0.458587
96.8382
93.8574
93.2592
92.8027
91.8449
90.7653
89.7831
88.8477
87.8972
86.9326
85.9687
85.0084
84.0484
83.0876
82.1265
81.1656
80.2048
79.2439
78.283
77.3221
76.3611
75.4002
74.4393
73.4783
72.5174
71.5564
70.5955
69.6345
68.6736
67.7126
66.7516
65.7906
64.8297
63.8687
62.9077
61.9467
60.9857
60.0247
59.0637
58.1027
57.1417
56.1807
55.2197
54.2587
53.2977
52.3366
51.3756
50.4146
49.4536
48.4925
47.5315
46.5705
45.6094
44.6484
43.6874
42.7263
41.7653
40.8043
39.8432
38.8822
37.9211
36.9601
35.999
35.0379
34.0769
33.1158
32.1548
31.1937
30.2326
29.2716
28.3105
27.3494
26.3883
25.4273
24.4662
23.5051
22.544
21.583
20.6219
19.6608
18.6997
17.7386
16.7775
15.8164
14.8553
13.8942
12.9331
11.972
11.0109
10.0498
9.08868
8.12757
7.16645
6.20534
5.2442
4.28314
3.32179
2.36158
1.39863
0.458597
96.8382
93.8574
93.2591
92.8026
91.8448
90.7652
89.783
88.8476
87.8971
86.9325
85.9686
85.0082
84.0483
83.0875
82.1264
81.1655
80.2047
79.2438
78.2829
77.322
76.361
75.4001
74.4392
73.4782
72.5173
71.5564
70.5954
69.6344
68.6735
67.7125
66.7515
65.7906
64.8296
63.8686
62.9076
61.9466
60.9856
60.0246
59.0636
58.1026
57.1416
56.1806
55.2196
54.2586
53.2976
52.3366
51.3756
50.4145
49.4535
48.4925
47.5315
46.5704
45.6094
44.6484
43.6873
42.7263
41.7653
40.8042
39.8432
38.8821
37.9211
36.96
35.999
35.0379
34.0768
33.1158
32.1547
31.1937
30.2326
29.2715
28.3105
27.3494
26.3883
25.4272
24.4662
23.5051
22.544
21.5829
20.6218
19.6607
18.6997
17.7386
16.7775
15.8164
14.8553
13.8942
12.9331
11.972
11.0109
10.0498
9.08865
8.12754
7.16643
6.20532
5.24418
4.28313
3.32178
2.36157
1.39862
0.458606
96.8383
93.8574
93.2591
92.8025
91.8448
90.7651
89.7829
88.8475
87.897
86.9323
85.9685
85.0081
84.0481
83.0874
82.1263
81.1654
80.2046
79.2437
78.2828
77.3219
76.3609
75.4
74.4391
73.4782
72.5172
71.5563
70.5953
69.6344
68.6734
67.7124
66.7515
65.7905
64.8295
63.8685
62.9076
61.9466
60.9856
60.0246
59.0636
58.1026
57.1416
56.1806
55.2196
54.2586
53.2975
52.3365
51.3755
50.4145
49.4535
48.4924
47.5314
46.5704
45.6094
44.6483
43.6873
42.7263
41.7652
40.8042
39.8431
38.8821
37.921
36.96
35.9989
35.0379
34.0768
33.1158
32.1547
31.1936
30.2326
29.2715
28.3104
27.3494
26.3883
25.4272
24.4661
23.5051
22.544
21.5829
20.6218
19.6607
18.6996
17.7385
16.7774
15.8164
14.8553
13.8942
12.9331
11.972
11.0108
10.0497
9.08863
8.12752
7.16641
6.2053
5.24416
4.28311
3.32176
2.36156
1.3986
0.458613
96.8383
93.8574
93.259
92.8025
91.8447
90.7651
89.7828
88.8474
87.8969
86.9323
85.9684
85.008
84.048
83.0873
82.1262
81.1653
80.2045
79.2436
78.2827
77.3218
76.3609
75.3999
74.439
73.4781
72.5171
71.5562
70.5952
69.6343
68.6733
67.7124
66.7514
65.7904
64.8295
63.8685
62.9075
61.9465
60.9855
60.0245
59.0635
58.1025
57.1415
56.1805
55.2195
54.2585
53.2975
52.3365
51.3755
50.4145
49.4534
48.4924
47.5314
46.5704
45.6093
44.6483
43.6873
42.7262
41.7652
40.8041
39.8431
38.882
37.921
36.9599
35.9989
35.0378
34.0768
33.1157
32.1547
31.1936
30.2325
29.2715
28.3104
27.3493
26.3883
25.4272
24.4661
23.505
22.5439
21.5829
20.6218
19.6607
18.6996
17.7385
16.7774
15.8163
14.8552
13.8941
12.933
11.9719
11.0108
10.0497
9.08861
8.1275
7.16639
6.20528
5.24415
4.2831
3.32175
2.36155
1.39859
0.458619
96.8384
93.8574
93.259
92.8024
91.8446
90.765
89.7828
88.8473
87.8969
86.9322
85.9683
85.0079
84.048
83.0872
82.1261
81.1652
80.2044
79.2435
78.2826
77.3217
76.3608
75.3998
74.4389
73.478
72.5171
71.5561
70.5952
69.6342
68.6733
67.7123
66.7513
65.7904
64.8294
63.8684
62.9074
61.9464
60.9855
60.0245
59.0635
58.1025
57.1415
56.1805
55.2195
54.2585
53.2975
52.3364
51.3754
50.4144
49.4534
48.4924
47.5313
46.5703
45.6093
44.6482
43.6872
42.7262
41.7651
40.8041
39.8431
38.882
37.921
36.9599
35.9989
35.0378
34.0767
33.1157
32.1546
31.1936
30.2325
29.2714
28.3104
27.3493
26.3882
25.4272
24.4661
23.505
22.5439
21.5828
20.6218
19.6607
18.6996
17.7385
16.7774
15.8163
14.8552
13.8941
12.933
11.9719
11.0108
10.0497
9.08859
8.12749
7.16637
6.20527
5.24413
4.28309
3.32174
2.36154
1.39858
0.458624
96.8384
93.8574
93.259
92.8024
91.8446
90.7649
89.7827
88.8473
87.8968
86.9321
85.9682
85.0079
84.0479
83.0871
82.1261
81.1651
80.2043
79.2434
78.2825
77.3216
76.3607
75.3998
74.4388
73.4779
72.517
71.556
70.5951
69.6341
68.6732
67.7122
66.7513
65.7903
64.8293
63.8684
62.9074
61.9464
60.9854
60.0244
59.0634
58.1024
57.1414
56.1804
55.2194
54.2584
53.2974
52.3364
51.3754
50.4144
49.4533
48.4923
47.5313
46.5703
45.6092
44.6482
43.6872
42.7261
41.7651
40.8041
39.843
38.882
37.9209
36.9599
35.9988
35.0378
34.0767
33.1157
32.1546
31.1935
30.2325
29.2714
28.3103
27.3493
26.3882
25.4271
24.466
23.505
22.5439
21.5828
20.6217
19.6606
18.6996
17.7385
16.7774
15.8163
14.8552
13.8941
12.933
11.9719
11.0108
10.0497
9.08858
8.12747
7.16636
6.20525
5.24412
4.28308
3.32173
2.36153
1.39858
0.458628
96.8384
93.8574
93.2589
92.8024
91.8446
90.7649
89.7827
88.8472
87.8967
86.932
85.9682
85.0078
84.0478
83.087
82.126
81.1651
80.2042
79.2433
78.2824
77.3215
76.3606
75.3997
74.4388
73.4778
72.5169
71.556
70.595
69.6341
68.6731
67.7122
66.7512
65.7902
64.8293
63.8683
62.9073
61.9463
60.9854
60.0244
59.0634
58.1024
57.1414
56.1804
55.2194
54.2584
53.2974
52.3364
51.3753
50.4143
49.4533
48.4923
47.5313
46.5702
45.6092
44.6482
43.6871
42.7261
41.7651
40.804
39.843
38.8819
37.9209
36.9598
35.9988
35.0377
34.0767
33.1156
32.1546
31.1935
30.2324
29.2714
28.3103
27.3492
26.3882
25.4271
24.466
23.5049
22.5439
21.5828
20.6217
19.6606
18.6995
17.7384
16.7774
15.8163
14.8552
13.8941
12.933
11.9719
11.0108
10.0497
9.08856
8.12746
7.16635
6.20524
5.24411
4.28307
3.32172
2.36153
1.39857
0.458631
96.8385
93.8574
93.2589
92.8023
91.8445
90.7649
89.7826
88.8472
87.8967