/*--------------------------------*- C++ -*----------------------------------*\
  =========                 |
  \\      /  F ield         | OpenFOAM: The Open Source CFD Toolbox
   \\    /   O peration     | Website:  https://openfoam.org
    \\  /    A nd           | Version:  8
     \\/     M anipulation  |
\*---------------------------------------------------------------------------*/
FoamFile
{
    version     2.0;
    format      ascii;
    class       surfaceScalarField;
    location    "2";
    object      phi;
}
// * * * * * * * * * * * * * * * * * * * * * * * * * * * * * * * * * * * * * //

dimensions      [0 3 -1 0 0 0 0];

internalField   nonuniform List<scalar> 
19800
(
4.54275
2.24346e-06
4.54275
9.74466e-07
4.54274
4.84882e-06
4.54274
5.32932e-06
4.54273
3.9672e-06
4.54273
3.55508e-06
4.54273
3.85658e-06
4.54272
4.00937e-06
4.54272
3.94717e-06
4.54271
3.89369e-06
4.54271
3.90226e-06
4.54271
3.92186e-06
4.5427
3.92886e-06
4.5427
3.93148e-06
4.54269
3.93663e-06
4.54269
3.94316e-06
4.54269
3.94898e-06
4.54268
3.95393e-06
4.54268
3.95844e-06
4.54267
3.96263e-06
4.54267
3.96642e-06
4.54267
3.96981e-06
4.54266
3.97283e-06
4.54266
3.97553e-06
4.54265
3.97794e-06
4.54265
3.98008e-06
4.54265
3.98198e-06
4.54264
3.98366e-06
4.54264
3.98514e-06
4.54263
3.98644e-06
4.54263
3.98759e-06
4.54263
3.98859e-06
4.54262
3.98945e-06
4.54262
3.9902e-06
4.54262
3.99084e-06
4.54261
3.99139e-06
4.54261
3.99184e-06
4.5426
3.99222e-06
4.5426
3.99252e-06
4.5426
3.99276e-06
4.54259
3.99293e-06
4.54259
3.99305e-06
4.54258
3.99312e-06
4.54258
3.99315e-06
4.54258
3.99313e-06
4.54257
3.99308e-06
4.54257
3.99299e-06
4.54256
3.99287e-06
4.54256
3.99272e-06
4.54256
3.99255e-06
4.54255
3.99235e-06
4.54255
3.99213e-06
4.54254
3.99189e-06
4.54254
3.99163e-06
4.54254
3.99136e-06
4.54253
3.99107e-06
4.54253
3.99076e-06
4.54252
3.99044e-06
4.54252
3.99011e-06
4.54252
3.98977e-06
4.54251
3.98941e-06
4.54251
3.98905e-06
4.5425
3.98868e-06
4.5425
3.98831e-06
4.5425
3.98792e-06
4.54249
3.98754e-06
4.54249
3.98714e-06
4.54248
3.98675e-06
4.54248
3.98635e-06
4.54248
3.98595e-06
4.54247
3.98555e-06
4.54247
3.98515e-06
4.54246
3.98475e-06
4.54246
3.98436e-06
4.54246
3.98396e-06
4.54245
3.98358e-06
4.54245
3.9832e-06
4.54244
3.98283e-06
4.54244
3.98247e-06
4.54244
3.98213e-06
4.54243
3.9818e-06
4.54243
3.98149e-06
4.54242
3.9812e-06
4.54242
3.98095e-06
4.54242
3.98073e-06
4.54241
3.98055e-06
4.54241
3.98043e-06
4.5424
3.98038e-06
4.5424
3.98043e-06
4.5424
3.98059e-06
4.54239
3.98092e-06
4.54239
3.98151e-06
4.54238
3.98243e-06
4.54238
3.98411e-06
4.54238
3.98652e-06
4.54237
3.99247e-06
4.54237
4.00001e-06
4.54236
4.02562e-06
4.54236
4.04092e-06
3.97934e-06
4.54411
6.22113e-06
4.5441
6.09096e-06
4.5441
7.15554e-06
4.5441
8.16932e-06
4.54409
7.91754e-06
4.54409
7.54849e-06
4.54409
7.60619e-06
4.54408
7.74608e-06
4.54408
7.76606e-06
4.54407
7.74686e-06
4.54407
7.75644e-06
4.54407
7.78067e-06
4.54406
7.79859e-06
4.54406
7.81069e-06
4.54405
7.82248e-06
4.54405
7.83459e-06
4.54405
7.84569e-06
4.54404
7.85542e-06
4.54404
7.86413e-06
4.54404
7.87204e-06
4.54403
7.87916e-06
4.54403
7.88553e-06
4.54402
7.89122e-06
4.54402
7.8963e-06
4.54402
7.90084e-06
4.54401
7.90488e-06
4.54401
7.90848e-06
4.544
7.91168e-06
4.544
7.91451e-06
4.544
7.91701e-06
4.54399
7.91922e-06
4.54399
7.92116e-06
4.54398
7.92285e-06
4.54398
7.92433e-06
4.54398
7.9256e-06
4.54397
7.9267e-06
4.54397
7.92762e-06
4.54396
7.9284e-06
4.54396
7.92904e-06
4.54396
7.92956e-06
4.54395
7.92996e-06
4.54395
7.93025e-06
4.54394
7.93046e-06
4.54394
7.93057e-06
4.54394
7.93061e-06
4.54393
7.93057e-06
4.54393
7.93047e-06
4.54393
7.93031e-06
4.54392
7.93009e-06
4.54392
7.92982e-06
4.54391
7.92951e-06
4.54391
7.92915e-06
4.54391
7.92875e-06
4.5439
7.92831e-06
4.5439
7.92785e-06
4.54389
7.92735e-06
4.54389
7.92682e-06
4.54389
7.92627e-06
4.54388
7.92569e-06
4.54388
7.92509e-06
4.54387
7.92447e-06
4.54387
7.92383e-06
4.54387
7.92318e-06
4.54386
7.92251e-06
4.54386
7.92182e-06
4.54385
7.92113e-06
4.54385
7.92043e-06
4.54385
7.91972e-06
4.54384
7.919e-06
4.54384
7.91829e-06
4.54383
7.91757e-06
4.54383
7.91685e-06
4.54383
7.91613e-06
4.54382
7.91542e-06
4.54382
7.91471e-06
4.54382
7.91402e-06
4.54381
7.91334e-06
4.54381
7.91267e-06
4.5438
7.91203e-06
4.5438
7.91141e-06
4.5438
7.91082e-06
4.54379
7.91027e-06
4.54379
7.90977e-06
4.54378
7.90933e-06
4.54378
7.90895e-06
4.54378
7.90866e-06
4.54377
7.90848e-06
4.54377
7.90842e-06
4.54376
7.90855e-06
4.54376
7.90889e-06
4.54376
7.90954e-06
4.54375
7.9106e-06
4.54375
7.91224e-06
4.54374
7.91479e-06
4.54374
7.91862e-06
4.54374
7.92463e-06
4.54373
7.93385e-06
4.54373
7.94519e-06
4.54372
7.97439e-06
7.94927e-06
4.54536
1.00156e-05
4.54535
1.01028e-05
4.54535
1.0673e-05
4.54535
1.13244e-05
4.54534
1.13811e-05
4.54534
1.12296e-05
4.54534
1.1267e-05
4.54533
1.13899e-05
4.54533
1.14504e-05
4.54533
1.14672e-05
4.54532
1.14907e-05
4.54532
1.15234e-05
4.54531
1.15518e-05
4.54531
1.1574e-05
4.54531
1.15936e-05
4.5453
1.16121e-05
4.5453
1.1629e-05
4.5453
1.16439e-05
4.54529
1.16572e-05
4.54529
1.16692e-05
4.54528
1.168e-05
4.54528
1.16897e-05
4.54528
1.16983e-05
4.54527
1.1706e-05
4.54527
1.1713e-05
4.54527
1.17192e-05
4.54526
1.17248e-05
4.54526
1.17297e-05
4.54525
1.17341e-05
4.54525
1.17381e-05
4.54525
1.17416e-05
4.54524
1.17447e-05
4.54524
1.17475e-05
4.54523
1.17499e-05
4.54523
1.1752e-05
4.54523
1.17539e-05
4.54522
1.17555e-05
4.54522
1.17569e-05
4.54522
1.17581e-05
4.54521
1.17591e-05
4.54521
1.17599e-05
4.5452
1.17606e-05
4.5452
1.17611e-05
4.5452
1.17615e-05
4.54519
1.17618e-05
4.54519
1.1762e-05
4.54518
1.17621e-05
4.54518
1.17621e-05
4.54518
1.1762e-05
4.54517
1.17618e-05
4.54517
1.17616e-05
4.54517
1.17612e-05
4.54516
1.17609e-05
4.54516
1.17604e-05
4.54515
1.176e-05
4.54515
1.17594e-05
4.54515
1.17589e-05
4.54514
1.17582e-05
4.54514
1.17576e-05
4.54514
1.17569e-05
4.54513
1.17562e-05
4.54513
1.17554e-05
4.54512
1.17547e-05
4.54512
1.17539e-05
4.54512
1.1753e-05
4.54511
1.17522e-05
4.54511
1.17514e-05
4.5451
1.17505e-05
4.5451
1.17496e-05
4.5451
1.17487e-05
4.54509
1.17478e-05
4.54509
1.1747e-05
4.54509
1.17461e-05
4.54508
1.17452e-05
4.54508
1.17443e-05
4.54507
1.17435e-05
4.54507
1.17426e-05
4.54507
1.17418e-05
4.54506
1.1741e-05
4.54506
1.17403e-05
4.54505
1.17396e-05
4.54505
1.17389e-05
4.54505
1.17383e-05
4.54504
1.17378e-05
4.54504
1.17374e-05
4.54504
1.17371e-05
4.54503
1.1737e-05
4.54503
1.1737e-05
4.54502
1.17373e-05
4.54502
1.17379e-05
4.54502
1.17388e-05
4.54501
1.17403e-05
4.54501
1.17425e-05
4.545
1.17455e-05
4.545
1.17499e-05
4.545
1.17557e-05
4.54499
1.17648e-05
4.54499
1.17717e-05
4.54499
1.17954e-05
1.17742e-05
4.5465
1.35101e-05
4.5465
1.36746e-05
4.5465
1.40663e-05
4.54649
1.44846e-05
4.54649
1.46641e-05
4.54649
1.46939e-05
4.54648
1.47625e-05
4.54648
1.48714e-05
4.54648
1.49523e-05
4.54647
1.50007e-05
4.54647
1.50432e-05
4.54647
1.50872e-05
4.54646
1.5127e-05
4.54646
1.51605e-05
4.54646
1.51899e-05
4.54645
1.52166e-05
4.54645
1.52407e-05
4.54644
1.52622e-05
4.54644
1.52814e-05
4.54644
1.52987e-05
4.54643
1.53142e-05
4.54643
1.53282e-05
4.54643
1.53407e-05
4.54642
1.5352e-05
4.54642
1.53621e-05
4.54642
1.53713e-05
4.54641
1.53795e-05
4.54641
1.53869e-05
4.5464
1.53935e-05
4.5464
1.53995e-05
4.5464
1.54048e-05
4.54639
1.54096e-05
4.54639
1.54139e-05
4.54639
1.54178e-05
4.54638
1.54212e-05
4.54638
1.54243e-05
4.54638
1.5427e-05
4.54637
1.54294e-05
4.54637
1.54316e-05
4.54636
1.54334e-05
4.54636
1.54351e-05
4.54636
1.54365e-05
4.54635
1.54377e-05
4.54635
1.54387e-05
4.54635
1.54396e-05
4.54634
1.54403e-05
4.54634
1.54409e-05
4.54633
1.54413e-05
4.54633
1.54416e-05
4.54633
1.54419e-05
4.54632
1.5442e-05
4.54632
1.5442e-05
4.54632
1.54419e-05
4.54631
1.54417e-05
4.54631
1.54415e-05
4.54631
1.54412e-05
4.5463
1.54408e-05
4.5463
1.54404e-05
4.54629
1.54399e-05
4.54629
1.54394e-05
4.54629
1.54388e-05
4.54628
1.54382e-05
4.54628
1.54376e-05
4.54628
1.54369e-05
4.54627
1.54361e-05
4.54627
1.54354e-05
4.54626
1.54346e-05
4.54626
1.54338e-05
4.54626
1.5433e-05
4.54625
1.54322e-05
4.54625
1.54313e-05
4.54625
1.54305e-05
4.54624
1.54296e-05
4.54624
1.54288e-05
4.54624
1.54279e-05
4.54623
1.54271e-05
4.54623
1.54263e-05
4.54622
1.54255e-05
4.54622
1.54248e-05
4.54622
1.54241e-05
4.54621
1.54234e-05
4.54621
1.54229e-05
4.54621
1.54224e-05
4.5462
1.5422e-05
4.5462
1.54217e-05
4.54619
1.54215e-05
4.54619
1.54216e-05
4.54619
1.54219e-05
4.54618
1.54224e-05
4.54618
1.54233e-05
4.54618
1.54246e-05
4.54617
1.54265e-05
4.54617
1.54291e-05
4.54617
1.54326e-05
4.54616
1.54373e-05
4.54616
1.54428e-05
4.54615
1.54516e-05
4.54615
1.54559e-05
4.54615
1.54788e-05
1.54529e-05
4.54755
1.68109e-05
4.54755
1.69829e-05
4.54754
1.73142e-05
4.54754
1.76405e-05
4.54754
1.78499e-05
4.54753
1.79611e-05
4.54753
1.8059e-05
4.54753
1.81682e-05
4.54752
1.82632e-05
4.54752
1.83348e-05
4.54752
1.83948e-05
4.54751
1.84504e-05
4.54751
1.85008e-05
4.54751
1.85447e-05
4.5475
1.85834e-05
4.5475
1.86181e-05
4.5475
1.86493e-05
4.54749
1.86774e-05
4.54749
1.87026e-05
4.54749
1.87252e-05
4.54748
1.87457e-05
4.54748
1.87641e-05
4.54748
1.87808e-05
4.54747
1.87959e-05
4.54747
1.88096e-05
4.54747
1.88219e-05
4.54746
1.88331e-05
4.54746
1.88433e-05
4.54745
1.88525e-05
4.54745
1.88609e-05
4.54745
1.88685e-05
4.54744
1.88754e-05
4.54744
1.88816e-05
4.54744
1.88873e-05
4.54743
1.88924e-05
4.54743
1.88971e-05
4.54743
1.89013e-05
4.54742
1.89051e-05
4.54742
1.89085e-05
4.54742
1.89116e-05
4.54741
1.89144e-05
4.54741
1.89169e-05
4.54741
1.89192e-05
4.5474
1.89212e-05
4.5474
1.89229e-05
4.5474
1.89245e-05
4.54739
1.89259e-05
4.54739
1.89271e-05
4.54739
1.89282e-05
4.54738
1.89291e-05
4.54738
1.89298e-05
4.54737
1.89305e-05
4.54737
1.8931e-05
4.54737
1.89314e-05
4.54736
1.89317e-05
4.54736
1.89319e-05
4.54736
1.89321e-05
4.54735
1.89321e-05
4.54735
1.89321e-05
4.54735
1.8932e-05
4.54734
1.89318e-05
4.54734
1.89316e-05
4.54734
1.89313e-05
4.54733
1.8931e-05
4.54733
1.89306e-05
4.54733
1.89302e-05
4.54732
1.89297e-05
4.54732
1.89292e-05
4.54732
1.89287e-05
4.54731
1.89282e-05
4.54731
1.89276e-05
4.54731
1.89271e-05
4.5473
1.89265e-05
4.5473
1.89259e-05
4.54729
1.89254e-05
4.54729
1.89248e-05
4.54729
1.89243e-05
4.54728
1.89237e-05
4.54728
1.89233e-05
4.54728
1.89228e-05
4.54727
1.89225e-05
4.54727
1.89222e-05
4.54727
1.8922e-05
4.54726
1.89219e-05
4.54726
1.89219e-05
4.54726
1.89221e-05
4.54725
1.89225e-05
4.54725
1.89232e-05
4.54725
1.89241e-05
4.54724
1.89255e-05
4.54724
1.89273e-05
4.54724
1.89296e-05
4.54723
1.89327e-05
4.54723
1.89365e-05
4.54722
1.89415e-05
4.54722
1.8947e-05
4.54722
1.89557e-05
4.54721
1.89586e-05
4.54721
1.89826e-05
1.89508e-05
4.5485
1.9861e-05
4.54849
2.00372e-05
4.54849
2.03482e-05
4.54849
2.06396e-05
4.54849
2.08523e-05
4.54848
2.10022e-05
4.54848
2.11292e-05
4.54848
2.12503e-05
4.54847
2.13576e-05
4.54847
2.14459e-05
4.54847
2.15206e-05
4.54846
2.15875e-05
4.54846
2.16475e-05
4.54846
2.17006e-05
4.54845
2.17476e-05
4.54845
2.17898e-05
4.54845
2.18277e-05
4.54844
2.18619e-05
4.54844
2.18926e-05
4.54844
2.19204e-05
4.54844
2.19456e-05
4.54843
2.19685e-05
4.54843
2.19892e-05
4.54843
2.20081e-05
4.54842
2.20253e-05
4.54842
2.20409e-05
4.54842
2.20552e-05
4.54841
2.20682e-05
4.54841
2.20801e-05
4.54841
2.2091e-05
4.5484
2.2101e-05
4.5484
2.21102e-05
4.5484
2.21185e-05
4.54839
2.21262e-05
4.54839
2.21332e-05
4.54839
2.21397e-05
4.54838
2.21456e-05
4.54838
2.2151e-05
4.54838
2.2156e-05
4.54837
2.21605e-05
4.54837
2.21647e-05
4.54837
2.21686e-05
4.54836
2.21721e-05
4.54836
2.21753e-05
4.54836
2.21782e-05
4.54835
2.21809e-05
4.54835
2.21834e-05
4.54835
2.21856e-05
4.54834
2.21877e-05
4.54834
2.21895e-05
4.54834
2.21912e-05
4.54833
2.21927e-05
4.54833
2.21941e-05
4.54833
2.21953e-05
4.54832
2.21965e-05
4.54832
2.21974e-05
4.54832
2.21983e-05
4.54832
2.21991e-05
4.54831
2.21998e-05
4.54831
2.22003e-05
4.54831
2.22008e-05
4.5483
2.22013e-05
4.5483
2.22016e-05
4.5483
2.22019e-05
4.54829
2.22021e-05
4.54829
2.22023e-05
4.54829
2.22024e-05
4.54828
2.22024e-05
4.54828
2.22025e-05
4.54828
2.22025e-05
4.54827
2.22025e-05
4.54827
2.22024e-05
4.54827
2.22023e-05
4.54826
2.22023e-05
4.54826
2.22022e-05
4.54826
2.22021e-05
4.54825
2.22021e-05
4.54825
2.22021e-05
4.54825
2.22021e-05
4.54824
2.22021e-05
4.54824
2.22022e-05
4.54824
2.22024e-05
4.54823
2.22027e-05
4.54823
2.22031e-05
4.54823
2.22037e-05
4.54822
2.22044e-05
4.54822
2.22054e-05
4.54822
2.22066e-05
4.54821
2.22081e-05
4.54821
2.221e-05
4.54821
2.22124e-05
4.5482
2.22153e-05
4.5482
2.22189e-05
4.5482
2.22232e-05
4.54819
2.22286e-05
4.54819
2.22342e-05
4.54819
2.22432e-05
4.54818
2.22453e-05
4.54818
2.22713e-05
2.22345e-05
4.54935
2.26729e-05
4.54935
2.28499e-05
4.54935
2.31553e-05
4.54934
2.34328e-05
4.54934
2.36454e-05
4.54934
2.38147e-05
4.54934
2.3962e-05
4.54933
2.40948e-05
4.54933
2.42117e-05
4.54933
2.43118e-05
4.54933
2.43984e-05
4.54932
2.44752e-05
4.54932
2.45439e-05
4.54932
2.46051e-05
4.54931
2.46596e-05
4.54931
2.47085e-05
4.54931
2.47526e-05
4.5493
2.47924e-05
4.5493
2.48284e-05
4.5493
2.48611e-05
4.5493
2.48907e-05
4.54929
2.49177e-05
4.54929
2.49424e-05
4.54929
2.49649e-05
4.54928
2.49854e-05
4.54928
2.50043e-05
4.54928
2.50215e-05
4.54928
2.50374e-05
4.54927
2.5052e-05
4.54927
2.50654e-05
4.54927
2.50778e-05
4.54926
2.50892e-05
4.54926
2.50997e-05
4.54926
2.51095e-05
4.54925
2.51185e-05
4.54925
2.51268e-05
4.54925
2.51345e-05
4.54925
2.51416e-05
4.54924
2.51483e-05
4.54924
2.51544e-05
4.54924
2.51601e-05
4.54923
2.51654e-05
4.54923
2.51704e-05
4.54923
2.5175e-05
4.54922
2.51792e-05
4.54922
2.51832e-05
4.54922
2.51869e-05
4.54922
2.51903e-05
4.54921
2.51936e-05
4.54921
2.51965e-05
4.54921
2.51993e-05
4.5492
2.52019e-05
4.5492
2.52043e-05
4.5492
2.52066e-05
4.54919
2.52087e-05
4.54919
2.52107e-05
4.54919
2.52125e-05
4.54919
2.52142e-05
4.54918
2.52157e-05
4.54918
2.52172e-05
4.54918
2.52186e-05
4.54917
2.52198e-05
4.54917
2.5221e-05
4.54917
2.52221e-05
4.54916
2.52231e-05
4.54916
2.52241e-05
4.54916
2.5225e-05
4.54916
2.52258e-05
4.54915
2.52266e-05
4.54915
2.52273e-05
4.54915
2.5228e-05
4.54914
2.52287e-05
4.54914
2.52293e-05
4.54914
2.523e-05
4.54913
2.52306e-05
4.54913
2.52312e-05
4.54913
2.52319e-05
4.54912
2.52325e-05
4.54912
2.52332e-05
4.54912
2.5234e-05
4.54912
2.52347e-05
4.54911
2.52356e-05
4.54911
2.52366e-05
4.54911
2.52377e-05
4.5491
2.52389e-05
4.5491
2.52403e-05
4.5491
2.5242e-05
4.54909
2.52439e-05
4.54909
2.52461e-05
4.54909
2.52488e-05
4.54909
2.52518e-05
4.54908
2.52554e-05
4.54908
2.52597e-05
4.54908
2.52645e-05
4.54907
2.52704e-05
4.54907
2.52764e-05
4.54907
2.52859e-05
4.54906
2.52878e-05
4.54906
2.53158e-05
2.52753e-05
4.55012
2.52269e-05
4.55012
2.54055e-05
4.55012
2.57095e-05
4.55011
2.59827e-05
4.55011
2.61961e-05
4.55011
2.63756e-05
4.55011
2.65358e-05
4.5501
2.66787e-05
4.5501
2.68042e-05
4.5501
2.69137e-05
4.5501
2.70098e-05
4.55009
2.70953e-05
4.55009
2.71716e-05
4.55009
2.72399e-05
4.55009
2.7301e-05
4.55008
2.73561e-05
4.55008
2.74058e-05
4.55008
2.74508e-05
4.55008
2.74916e-05
4.55007
2.75287e-05
4.55007
2.75626e-05
4.55007
2.75935e-05
4.55006
2.76218e-05
4.55006
2.76477e-05
4.55006
2.76715e-05
4.55006
2.76935e-05
4.55005
2.77136e-05
4.55005
2.77322e-05
4.55005
2.77494e-05
4.55005
2.77653e-05
4.55004
2.77801e-05
4.55004
2.77938e-05
4.55004
2.78064e-05
4.55003
2.78183e-05
4.55003
2.78292e-05
4.55003
2.78395e-05
4.55003
2.7849e-05
4.55002
2.78579e-05
4.55002
2.78663e-05
4.55002
2.78741e-05
4.55002
2.78814e-05
4.55001
2.78883e-05
4.55001
2.78947e-05
4.55001
2.79007e-05
4.55
2.79064e-05
4.55
2.79118e-05
4.55
2.79168e-05
4.55
2.79216e-05
4.54999
2.79261e-05
4.54999
2.79303e-05
4.54999
2.79343e-05
4.54999
2.79381e-05
4.54998
2.79417e-05
4.54998
2.79451e-05
4.54998
2.79483e-05
4.54997
2.79514e-05
4.54997
2.79543e-05
4.54997
2.7957e-05
4.54997
2.79596e-05
4.54996
2.79621e-05
4.54996
2.79645e-05
4.54996
2.79668e-05
4.54996
2.79689e-05
4.54995
2.7971e-05
4.54995
2.79729e-05
4.54995
2.79748e-05
4.54994
2.79767e-05
4.54994
2.79784e-05
4.54994
2.79801e-05
4.54994
2.79817e-05
4.54993
2.79833e-05
4.54993
2.79849e-05
4.54993
2.79864e-05
4.54993
2.79879e-05
4.54992
2.79894e-05
4.54992
2.79909e-05
4.54992
2.79924e-05
4.54991
2.79939e-05
4.54991
2.79954e-05
4.54991
2.7997e-05
4.54991
2.79986e-05
4.5499
2.80004e-05
4.5499
2.80022e-05
4.5499
2.80041e-05
4.54989
2.80062e-05
4.54989
2.80084e-05
4.54989
2.80109e-05
4.54989
2.80136e-05
4.54988
2.80167e-05
4.54988
2.80201e-05
4.54988
2.8024e-05
4.54988
2.80283e-05
4.54987
2.80333e-05
4.54987
2.80388e-05
4.54987
2.80454e-05
4.54986
2.80519e-05
4.54986
2.8062e-05
4.54986
2.8064e-05
4.54986
2.80938e-05
2.8051e-05
4.55081
2.75206e-05
4.55081
2.76992e-05
4.5508
2.80023e-05
4.5508
2.82735e-05
4.5508
2.84874e-05
4.5508
2.86721e-05
4.5508
2.88402e-05
4.55079
2.89905e-05
4.55079
2.91228e-05
4.55079
2.92395e-05
4.55079
2.9343e-05
4.55078
2.94354e-05
4.55078
2.95182e-05
4.55078
2.95926e-05
4.55078
2.96595e-05
4.55077
2.97199e-05
4.55077
2.97746e-05
4.55077
2.98243e-05
4.55077
2.98695e-05
4.55076
2.99108e-05
4.55076
2.99485e-05
4.55076
2.99831e-05
4.55076
3.00148e-05
4.55076
3.0044e-05
4.55075
3.00709e-05
4.55075
3.00958e-05
4.55075
3.01187e-05
4.55075
3.014e-05
4.55074
3.01597e-05
4.55074
3.01781e-05
4.55074
3.01951e-05
4.55074
3.0211e-05
4.55073
3.02258e-05
4.55073
3.02397e-05
4.55073
3.02527e-05
4.55073
3.02648e-05
4.55072
3.02762e-05
4.55072
3.02869e-05
4.55072
3.0297e-05
4.55072
3.03065e-05
4.55071
3.03154e-05
4.55071
3.03239e-05
4.55071
3.03318e-05
4.55071
3.03394e-05
4.5507
3.03466e-05
4.5507
3.03533e-05
4.5507
3.03598e-05
4.5507
3.03659e-05
4.55069
3.03718e-05
4.55069
3.03773e-05
4.55069
3.03826e-05
4.55069
3.03877e-05
4.55068
3.03925e-05
4.55068
3.03971e-05
4.55068
3.04016e-05
4.55068
3.04058e-05
4.55067
3.04099e-05
4.55067
3.04138e-05
4.55067
3.04176e-05
4.55067
3.04212e-05
4.55066
3.04247e-05
4.55066
3.0428e-05
4.55066
3.04313e-05
4.55066
3.04344e-05
4.55066
3.04375e-05
4.55065
3.04404e-05
4.55065
3.04433e-05
4.55065
3.04461e-05
4.55065
3.04488e-05
4.55064
3.04514e-05
4.55064
3.0454e-05
4.55064
3.04566e-05
4.55064
3.04591e-05
4.55063
3.04616e-05
4.55063
3.04641e-05
4.55063
3.04665e-05
4.55063
3.0469e-05
4.55062
3.04715e-05
4.55062
3.0474e-05
4.55062
3.04765e-05
4.55062
3.04791e-05
4.55061
3.04817e-05
4.55061
3.04845e-05
4.55061
3.04874e-05
4.55061
3.04904e-05
4.5506
3.04936e-05
4.5506
3.04969e-05
4.5506
3.05006e-05
4.5506
3.05046e-05
4.55059
3.05089e-05
4.55059
3.05136e-05
4.55059
3.05188e-05
4.55059
3.05245e-05
4.55058
3.05309e-05
4.55058
3.05381e-05
4.55058
3.05452e-05
4.55058
3.05561e-05
4.55057
3.05585e-05
4.55057
3.05896e-05
3.05458e-05
4.55142
2.95477e-05
4.55142
2.97248e-05
4.55142
3.00254e-05
4.55141
3.02943e-05
4.55141
3.05079e-05
4.55141
3.0695e-05
4.55141
3.08675e-05
4.55141
3.10227e-05
4.5514
3.116e-05
4.5514
3.12819e-05
4.5514
3.1391e-05
4.5514
3.14889e-05
4.5514
3.1577e-05
4.55139
3.16564e-05
4.55139
3.17282e-05
4.55139
3.17932e-05
4.55139
3.18523e-05
4.55139
3.19062e-05
4.55138
3.19553e-05
4.55138
3.20004e-05
4.55138
3.20416e-05
4.55138
3.20796e-05
4.55137
3.21145e-05
4.55137
3.21468e-05
4.55137
3.21766e-05
4.55137
3.22042e-05
4.55137
3.22298e-05
4.55136
3.22536e-05
4.55136
3.22758e-05
4.55136
3.22965e-05
4.55136
3.23158e-05
4.55136
3.23339e-05
4.55135
3.23508e-05
4.55135
3.23667e-05
4.55135
3.23816e-05
4.55135
3.23956e-05
4.55134
3.24089e-05
4.55134
3.24213e-05
4.55134
3.24331e-05
4.55134
3.24443e-05
4.55134
3.24549e-05
4.55133
3.2465e-05
4.55133
3.24745e-05
4.55133
3.24836e-05
4.55133
3.24922e-05
4.55133
3.25005e-05
4.55132
3.25084e-05
4.55132
3.25159e-05
4.55132
3.25231e-05
4.55132
3.25301e-05
4.55131
3.25367e-05
4.55131
3.25431e-05
4.55131
3.25492e-05
4.55131
3.25551e-05
4.55131
3.25608e-05
4.5513
3.25663e-05
4.5513
3.25716e-05
4.5513
3.25768e-05
4.5513
3.25817e-05
4.5513
3.25865e-05
4.55129
3.25912e-05
4.55129
3.25957e-05
4.55129
3.26001e-05
4.55129
3.26044e-05
4.55128
3.26086e-05
4.55128
3.26127e-05
4.55128
3.26166e-05
4.55128
3.26205e-05
4.55128
3.26244e-05
4.55127
3.26281e-05
4.55127
3.26318e-05
4.55127
3.26355e-05
4.55127
3.2639e-05
4.55127
3.26426e-05
4.55126
3.26461e-05
4.55126
3.26497e-05
4.55126
3.26532e-05
4.55126
3.26567e-05
4.55125
3.26602e-05
4.55125
3.26638e-05
4.55125
3.26674e-05
4.55125
3.26711e-05
4.55125
3.26749e-05
4.55124
3.26787e-05
4.55124
3.26827e-05
4.55124
3.26869e-05
4.55124
3.26913e-05
4.55123
3.26959e-05
4.55123
3.27008e-05
4.55123
3.27061e-05
4.55123
3.27117e-05
4.55123
3.27178e-05
4.55122
3.27244e-05
4.55122
3.27315e-05
4.55122
3.27394e-05
4.55122
3.27473e-05
4.55121
3.27588e-05
4.55121
3.27618e-05
4.55121
3.27938e-05
3.275e-05
4.55196
3.13086e-05
4.55196
3.14822e-05
4.55196
3.17778e-05
4.55196
3.20428e-05
4.55195
3.22545e-05
4.55195
3.24418e-05
4.55195
3.26158e-05
4.55195
3.27736e-05
4.55195
3.2914e-05
4.55195
3.30395e-05
4.55194
3.31525e-05
4.55194
3.32545e-05
4.55194
3.33466e-05
4.55194
3.34301e-05
4.55194
3.35058e-05
4.55193
3.35747e-05
4.55193
3.36376e-05
4.55193
3.3695e-05
4.55193
3.37477e-05
4.55193
3.3796e-05
4.55193
3.38405e-05
4.55192
3.38815e-05
4.55192
3.39194e-05
4.55192
3.39544e-05
4.55192
3.39869e-05
4.55192
3.40172e-05
4.55191
3.40453e-05
4.55191
3.40715e-05
4.55191
3.4096e-05
4.55191
3.41189e-05
4.55191
3.41404e-05
4.55191
3.41606e-05
4.5519
3.41795e-05
4.5519
3.41973e-05
4.5519
3.42142e-05
4.5519
3.42301e-05
4.5519
3.42451e-05
4.55189
3.42594e-05
4.55189
3.42729e-05
4.55189
3.42857e-05
4.55189
3.42979e-05
4.55189
3.43096e-05
4.55189
3.43207e-05
4.55188
3.43313e-05
4.55188
3.43415e-05
4.55188
3.43512e-05
4.55188
3.43605e-05
4.55188
3.43695e-05
4.55187
3.43781e-05
4.55187
3.43864e-05
4.55187
3.43944e-05
4.55187
3.44022e-05
4.55187
3.44096e-05
4.55186
3.44168e-05
4.55186
3.44238e-05
4.55186
3.44306e-05
4.55186
3.44372e-05
4.55186
3.44435e-05
4.55186
3.44497e-05
4.55185
3.44558e-05
4.55185
3.44617e-05
4.55185
3.44674e-05
4.55185
3.4473e-05
4.55185
3.44785e-05
4.55184
3.44838e-05
4.55184
3.44891e-05
4.55184
3.44942e-05
4.55184
3.44993e-05
4.55184
3.45042e-05
4.55184
3.45091e-05
4.55183
3.45139e-05
4.55183
3.45187e-05
4.55183
3.45234e-05
4.55183
3.45281e-05
4.55183
3.45328e-05
4.55182
3.45374e-05
4.55182
3.4542e-05
4.55182
3.45466e-05
4.55182
3.45512e-05
4.55182
3.45559e-05
4.55181
3.45605e-05
4.55181
3.45653e-05
4.55181
3.45701e-05
4.55181
3.4575e-05
4.55181
3.45801e-05
4.5518
3.45853e-05
4.5518
3.45907e-05
4.5518
3.45963e-05
4.5518
3.46022e-05
4.5518
3.46084e-05
4.5518
3.46149e-05
4.55179
3.46219e-05
4.55179
3.46293e-05
4.55179
3.46372e-05
4.55179
3.46459e-05
4.55179
3.46545e-05
4.55178
3.46666e-05
4.55178
3.46702e-05
4.55178
3.47027e-05
3.46598e-05
4.55244
3.28055e-05
4.55244
3.29738e-05
4.55243
3.32614e-05
4.55243
3.35205e-05
4.55243
3.37287e-05
4.55243
3.39141e-05
4.55243
3.40876e-05
4.55243
3.42459e-05
4.55243
3.43877e-05
4.55242
3.45151e-05
4.55242
3.46305e-05
4.55242
3.47353e-05
4.55242
3.48304e-05
4.55242
3.49169e-05
4.55242
3.49958e-05
4.55242
3.50678e-05
4.55241
3.51337e-05
4.55241
3.51942e-05
4.55241
3.52498e-05
4.55241
3.5301e-05
4.55241
3.53483e-05
4.55241
3.53921e-05
4.55241
3.54326e-05
4.5524
3.54702e-05
4.5524
3.55052e-05
4.5524
3.55378e-05
4.5524
3.55683e-05
4.5524
3.55968e-05
4.5524
3.56235e-05
4.55239
3.56485e-05
4.55239
3.5672e-05
4.55239
3.56942e-05
4.55239
3.57151e-05
4.55239
3.57348e-05
4.55239
3.57535e-05
4.55239
3.57712e-05
4.55238
3.5788e-05
4.55238
3.58039e-05
4.55238
3.58191e-05
4.55238
3.58336e-05
4.55238
3.58474e-05
4.55238
3.58606e-05
4.55237
3.58733e-05
4.55237
3.58854e-05
4.55237
3.58971e-05
4.55237
3.59083e-05
4.55237
3.5919e-05
4.55237
3.59294e-05
4.55237
3.59395e-05
4.55236
3.59491e-05
4.55236
3.59585e-05
4.55236
3.59676e-05
4.55236
3.59764e-05
4.55236
3.59849e-05
4.55236
3.59932e-05
4.55235
3.60012e-05
4.55235
3.60091e-05
4.55235
3.60167e-05
4.55235
3.60242e-05
4.55235
3.60314e-05
4.55235
3.60385e-05
4.55234
3.60455e-05
4.55234
3.60523e-05
4.55234
3.6059e-05
4.55234
3.60655e-05
4.55234
3.60719e-05
4.55234
3.60783e-05
4.55234
3.60845e-05
4.55233
3.60906e-05
4.55233
3.60967e-05
4.55233
3.61027e-05
4.55233
3.61086e-05
4.55233
3.61144e-05
4.55233
3.61202e-05
4.55232
3.6126e-05
4.55232
3.61318e-05
4.55232
3.61375e-05
4.55232
3.61432e-05
4.55232
3.61489e-05
4.55232
3.61547e-05
4.55231
3.61605e-05
4.55231
3.61663e-05
4.55231
3.61722e-05
4.55231
3.61782e-05
4.55231
3.61843e-05
4.55231
3.61905e-05
4.5523
3.61969e-05
4.5523
3.62035e-05
4.5523
3.62104e-05
4.5523
3.62175e-05
4.5523
3.62249e-05
4.5523
3.62327e-05
4.5523
3.6241e-05
4.55229
3.62496e-05
4.55229
3.62591e-05
4.55229
3.62683e-05
4.55229
3.6281e-05
4.55229
3.62853e-05
4.55229
3.63178e-05
3.62764e-05
4.55286
3.40445e-05
4.55286
3.42056e-05
4.55285
3.44827e-05
4.55285
3.47336e-05
4.55285
3.49365e-05
4.55285
3.51183e-05
4.55285
3.52893e-05
4.55285
3.54465e-05
4.55285
3.5588e-05
4.55285
3.57159e-05
4.55284
3.58325e-05
4.55284
3.59388e-05
4.55284
3.60358e-05
4.55284
3.61244e-05
4.55284
3.62056e-05
4.55284
3.628e-05
4.55284
3.63483e-05
4.55284
3.64113e-05
4.55284
3.64694e-05
4.55283
3.6523e-05
4.55283
3.65727e-05
4.55283
3.66189e-05
4.55283
3.66617e-05
4.55283
3.67016e-05
4.55283
3.67389e-05
4.55283
3.67737e-05
4.55283
3.68063e-05
4.55282
3.68368e-05
4.55282
3.68655e-05
4.55282
3.68925e-05
4.55282
3.6918e-05
4.55282
3.6942e-05
4.55282
3.69648e-05
4.55282
3.69863e-05
4.55282
3.70067e-05
4.55281
3.70262e-05
4.55281
3.70446e-05
4.55281
3.70622e-05
4.55281
3.7079e-05
4.55281
3.70951e-05
4.55281
3.71105e-05
4.55281
3.71252e-05
4.55281
3.71394e-05
4.5528
3.7153e-05
4.5528
3.71661e-05
4.5528
3.71787e-05
4.5528
3.71909e-05
4.5528
3.72027e-05
4.5528
3.72141e-05
4.5528
3.72251e-05
4.5528
3.72359e-05
4.55279
3.72462e-05
4.55279
3.72563e-05
4.55279
3.72662e-05
4.55279
3.72757e-05
4.55279
3.72851e-05
4.55279
3.72942e-05
4.55279
3.73031e-05
4.55278
3.73117e-05
4.55278
3.73202e-05
4.55278
3.73286e-05
4.55278
3.73367e-05
4.55278
3.73447e-05
4.55278
3.73526e-05
4.55278
3.73603e-05
4.55278
3.7368e-05
4.55277
3.73755e-05
4.55277
3.73828e-05
4.55277
3.73901e-05
4.55277
3.73974e-05
4.55277
3.74045e-05
4.55277
3.74115e-05
4.55277
3.74185e-05
4.55277
3.74255e-05
4.55276
3.74324e-05
4.55276
3.74393e-05
4.55276
3.74461e-05
4.55276
3.74529e-05
4.55276
3.74597e-05
4.55276
3.74666e-05
4.55276
3.74734e-05
4.55275
3.74803e-05
4.55275
3.74873e-05
4.55275
3.74943e-05
4.55275
3.75014e-05
4.55275
3.75087e-05
4.55275
3.75161e-05
4.55275
3.75237e-05
4.55275
3.75314e-05
4.55274
3.75395e-05
4.55274
3.75478e-05
4.55274
3.75564e-05
4.55274
3.75654e-05
4.55274
3.75748e-05
4.55274
3.75849e-05
4.55274
3.75947e-05
4.55273
3.76078e-05
4.55273
3.76128e-05
4.55273
3.7645e-05
3.76057e-05
4.55322
3.50343e-05
4.55322
3.51868e-05
4.55322
3.54509e-05
4.55322
3.56915e-05
4.55322
3.58875e-05
4.55322
3.6064e-05
4.55322
3.62311e-05
4.55322
3.63854e-05
4.55322
3.65253e-05
4.55321
3.66525e-05
4.55321
3.6769e-05
4.55321
3.68758e-05
4.55321
3.69737e-05
4.55321
3.70636e-05
4.55321
3.71462e-05
4.55321
3.72223e-05
4.55321
3.72924e-05
4.55321
3.73573e-05
4.55321
3.74173e-05
4.55321
3.7473e-05
4.5532
3.75247e-05
4.5532
3.75729e-05
4.5532
3.76177e-05
4.5532
3.76597e-05
4.5532
3.76989e-05
4.5532
3.77356e-05
4.5532
3.77701e-05
4.5532
3.78026e-05
4.5532
3.78331e-05
4.5532
3.7862e-05
4.55319
3.78892e-05
4.55319
3.7915e-05
4.55319
3.79395e-05
4.55319
3.79627e-05
4.55319
3.79848e-05
4.55319
3.80058e-05
4.55319
3.80259e-05
4.55319
3.80451e-05
4.55319
3.80634e-05
4.55319
3.8081e-05
4.55319
3.80979e-05
4.55318
3.81141e-05
4.55318
3.81297e-05
4.55318
3.81447e-05
4.55318
3.81592e-05
4.55318
3.81732e-05
4.55318
3.81868e-05
4.55318
3.81999e-05
4.55318
3.82126e-05
4.55318
3.8225e-05
4.55318
3.8237e-05
4.55317
3.82487e-05
4.55317
3.82601e-05
4.55317
3.82712e-05
4.55317
3.8282e-05
4.55317
3.82925e-05
4.55317
3.83029e-05
4.55317
3.8313e-05
4.55317
3.83229e-05
4.55317
3.83326e-05
4.55317
3.83421e-05
4.55316
3.83514e-05
4.55316
3.83606e-05
4.55316
3.83697e-05
4.55316
3.83786e-05
4.55316
3.83873e-05
4.55316
3.8396e-05
4.55316
3.84045e-05
4.55316
3.8413e-05
4.55316
3.84213e-05
4.55315
3.84296e-05
4.55315
3.84377e-05
4.55315
3.84459e-05
4.55315
3.84539e-05
4.55315
3.84619e-05
4.55315
3.84699e-05
4.55315
3.84778e-05
4.55315
3.84857e-05
4.55315
3.84936e-05
4.55315
3.85015e-05
4.55314
3.85094e-05
4.55314
3.85173e-05
4.55314
3.85253e-05
4.55314
3.85333e-05
4.55314
3.85415e-05
4.55314
3.85497e-05
4.55314
3.8558e-05
4.55314
3.85665e-05
4.55314
3.85752e-05
4.55314
3.85841e-05
4.55313
3.85932e-05
4.55313
3.86026e-05
4.55313
3.86124e-05
4.55313
3.86224e-05
4.55313
3.8633e-05
4.55313
3.86434e-05
4.55313
3.86568e-05
4.55313
3.86624e-05
4.55313
3.86939e-05
3.86572e-05
4.55354
3.57863e-05
4.55354
3.59288e-05
4.55354
3.61779e-05
4.55354
3.64065e-05
4.55354
3.65941e-05
4.55354
3.6764e-05
4.55354
3.69257e-05
4.55354
3.70759e-05
4.55354
3.72129e-05
4.55354
3.73382e-05
4.55354
3.74535e-05
4.55354
3.75599e-05
4.55353
3.76578e-05
4.55353
3.77481e-05
4.55353
3.78314e-05
4.55353
3.79085e-05
4.55353
3.79799e-05
4.55353
3.80461e-05
4.55353
3.81076e-05
4.55353
3.81648e-05
4.55353
3.82182e-05
4.55353
3.8268e-05
4.55353
3.83146e-05
4.55353
3.83582e-05
4.55353
3.83991e-05
4.55353
3.84375e-05
4.55353
3.84737e-05
4.55352
3.85079e-05
4.55352
3.85401e-05
4.55352
3.85706e-05
4.55352
3.85995e-05
4.55352
3.86269e-05
4.55352
3.86529e-05
4.55352
3.86777e-05
4.55352
3.87013e-05
4.55352
3.87238e-05
4.55352
3.87454e-05
4.55352
3.8766e-05
4.55352
3.87858e-05
4.55352
3.88048e-05
4.55352
3.88231e-05
4.55351
3.88407e-05
4.55351
3.88577e-05
4.55351
3.88741e-05
4.55351
3.88899e-05
4.55351
3.89053e-05
4.55351
3.89201e-05
4.55351
3.89345e-05
4.55351
3.89485e-05
4.55351
3.89622e-05
4.55351
3.89754e-05
4.55351
3.89883e-05
4.55351
3.90009e-05
4.55351
3.90132e-05
4.5535
3.90252e-05
4.5535
3.9037e-05
4.5535
3.90485e-05
4.5535
3.90598e-05
4.5535
3.90708e-05
4.5535
3.90817e-05
4.5535
3.90924e-05
4.5535
3.91029e-05
4.5535
3.91132e-05
4.5535
3.91233e-05
4.5535
3.91334e-05
4.5535
3.91433e-05
4.5535
3.9153e-05
4.5535
3.91627e-05
4.55349
3.91722e-05
4.55349
3.91816e-05
4.55349
3.9191e-05
4.55349
3.92002e-05
4.55349
3.92094e-05
4.55349
3.92185e-05
4.55349
3.92276e-05
4.55349
3.92366e-05
4.55349
3.92456e-05
4.55349
3.92545e-05
4.55349
3.92634e-05
4.55349
3.92723e-05
4.55349
3.92813e-05
4.55348
3.92902e-05
4.55348
3.92991e-05
4.55348
3.93081e-05
4.55348
3.93172e-05
4.55348
3.93263e-05
4.55348