/*--------------------------------*- C++ -*----------------------------------*\
  =========                 |
  \\      /  F ield         | OpenFOAM: The Open Source CFD Toolbox
   \\    /   O peration     | Website:  https://openfoam.org
    \\  /    A nd           | Version:  8
     \\/     M anipulation  |
\*---------------------------------------------------------------------------*/
FoamFile
{
    version     2.0;
    format      ascii;
    class       volVectorField;
    location    "2";
    object      U;
}
// * * * * * * * * * * * * * * * * * * * * * * * * * * * * * * * * * * * * * //

dimensions      [0 1 -1 0 0 0 0];

internalField   nonuniform List<vector> 
10000
(
(113.566 1.95974e-05 0)
(113.572 4.80113e-06 0)
(113.57 3.72043e-05 -1.1236e-19)
(113.568 5.9979e-05 -1.24972e-23)
(113.568 5.48232e-05 2.20971e-19)
(113.568 4.69484e-05 0)
(113.568 4.70115e-05 0)
(113.568 4.91447e-05 0)
(113.568 4.94411e-05 0)
(113.568 4.89181e-05 0)
(113.568 4.87807e-05 0)
(113.568 4.89473e-05 0)
(113.568 4.90845e-05 0)
(113.568 4.91505e-05 0)
(113.567 4.92161e-05 0)
(113.567 4.9299e-05 0)
(113.567 4.93815e-05 0)
(113.567 4.94549e-05 0)
(113.567 4.9521e-05 0)
(113.567 4.95819e-05 0)
(113.567 4.96375e-05 3.105e-19)
(113.567 4.96876e-05 5.51233e-26)
(113.567 4.97324e-05 -3.10491e-19)
(113.567 4.97725e-05 0)
(113.566 4.98082e-05 0)
(113.566 4.98401e-05 1.03493e-19)
(113.566 4.98684e-05 1.29718e-26)
(113.566 4.98935e-05 -1.0349e-19)
(113.566 4.99156e-05 0)
(113.566 4.99352e-05 0)
(113.566 4.99524e-05 0)
(113.566 4.99674e-05 1.03486e-19)
(113.566 4.99806e-05 9.01979e-27)
(113.566 4.9992e-05 -1.03484e-19)
(113.565 5.00018e-05 0)
(113.565 5.00103e-05 0)
(113.565 5.00174e-05 0)
(113.565 5.00234e-05 0)
(113.565 5.00283e-05 -2.06959e-19)
(113.565 5.00322e-05 -1.28037e-26)
(113.565 5.00353e-05 2.06956e-19)
(113.565 5.00376e-05 -2.06955e-19)
(113.565 5.00391e-05 -1.13556e-26)
(113.565 5.00401e-05 2.06952e-19)
(113.564 5.00404e-05 -2.06951e-19)
(113.564 5.00402e-05 -1.02572e-26)
(113.564 5.00394e-05 2.06948e-19)
(113.564 5.00383e-05 0)
(113.564 5.00367e-05 0)
(113.564 5.00348e-05 0)
(113.564 5.00325e-05 0)
(113.564 5.003e-05 0)
(113.564 5.00271e-05 -2.06941e-19)
(113.564 5.0024e-05 -2.06939e-19)
(113.563 5.00207e-05 -8.13508e-27)
(113.563 5.00172e-05 2.06937e-19)
(113.563 5.00134e-05 2.06936e-19)
(113.563 5.00095e-05 0)
(113.563 5.00054e-05 0)
(113.563 5.00011e-05 0)
(113.563 4.99967e-05 -2.06931e-19)
(113.563 4.99922e-05 -7.04267e-27)
(113.563 4.99876e-05 2.06929e-19)
(113.563 4.99828e-05 1.03464e-19)
(113.562 4.9978e-05 3.34246e-27)
(113.562 4.9973e-05 -1.03463e-19)
(113.562 4.99681e-05 1.03462e-19)
(113.562 4.9963e-05 3.21957e-27)
(113.562 4.99579e-05 -1.03461e-19)
(113.562 4.99528e-05 1.03461e-19)
(113.562 4.99477e-05 3.14449e-27)
(113.562 4.99425e-05 -1.0346e-19)
(113.562 4.99374e-05 0)
(113.562 4.99323e-05 0)
(113.561 4.99272e-05 0)
(113.561 4.99222e-05 0)
(113.561 4.99173e-05 0)
(113.561 4.99125e-05 -2.06913e-19)
(113.561 4.99078e-05 -6.42455e-27)
(113.561 4.99033e-05 2.06911e-19)
(113.561 4.98989e-05 0)
(113.561 4.98948e-05 0)
(113.561 4.98909e-05 0)
(113.561 4.98874e-05 0)
(113.56 4.98843e-05 0)
(113.56 4.98816e-05 0)
(113.56 4.98796e-05 0)
(113.56 4.98784e-05 0)
(113.56 4.98782e-05 0)
(113.56 4.98794e-05 0)
(113.56 4.98824e-05 0)
(113.56 4.98883e-05 0)
(113.56 4.98977e-05 0)
(113.56 4.99155e-05 0)
(113.559 4.99407e-05 0)
(113.559 5.00052e-05 2.03484e-19)
(113.559 5.00855e-05 5.53186e-26)
(113.559 5.03719e-05 -2.0351e-19)
(113.559 5.07036e-05 0)
(113.559 5.01007e-05 0)
(113.6 9.86805e-05 0)
(113.606 7.6959e-05 0)
(113.604 0.000140575 -1.25731e-19)
(113.602 0.000178024 -2.13047e-23)
(113.602 0.000160198 2.4384e-19)
(113.602 0.000142232 0)
(113.602 0.00014331 0)
(113.602 0.00014808 0)
(113.602 0.000148208 0)
(113.602 0.000146767 0)
(113.602 0.000146506 0)
(113.602 0.000146967 0)
(113.602 0.000147296 0)
(113.602 0.000147445 0)
(113.601 0.00014761 0)
(113.601 0.00014782 0)
(113.601 0.000148025 0)
(113.601 0.000148204 0)
(113.601 0.000148365 0)
(113.601 0.000148513 0)
(113.601 0.000148648 3.43932e-19)
(113.601 0.000148769 2.08785e-25)
(113.601 0.000148877 -3.43922e-19)
(113.601 0.000148973 0)
(113.6 0.000149059 0)
(113.6 0.000149136 1.14636e-19)
(113.6 0.000149204 4.72207e-26)
(113.6 0.000149264 -1.14634e-19)
(113.6 0.000149317 0)
(113.6 0.000149364 0)
(113.6 0.000149405 0)
(113.6 0.000149441 1.1463e-19)
(113.6 0.000149472 3.12783e-26)
(113.6 0.000149499 -1.14628e-19)
(113.599 0.000149522 0)
(113.599 0.000149541 0)
(113.599 0.000149557 0)
(113.599 0.000149571 0)
(113.599 0.000149581 -2.29249e-19)
(113.599 0.00014959 -4.16368e-26)
(113.599 0.000149596 2.29246e-19)
(113.599 0.0001496 -2.29245e-19)
(113.599 0.000149602 -3.59691e-26)
(113.599 0.000149603 2.29242e-19)
(113.598 0.000149602 -2.29241e-19)
(113.598 0.000149599 -3.16795e-26)
(113.598 0.000149596 2.29239e-19)
(113.598 0.000149591 0)
(113.598 0.000149586 0)
(113.598 0.000149579 0)
(113.598 0.000149572 0)
(113.598 0.000149564 0)
(113.598 0.000149555 -2.29233e-19)
(113.598 0.000149545 -2.29232e-19)
(113.597 0.000149535 -2.35147e-26)
(113.597 0.000149524 2.2923e-19)
(113.597 0.000149513 2.29229e-19)
(113.597 0.000149501 0)
(113.597 0.000149489 0)
(113.597 0.000149476 0)
(113.597 0.000149463 -2.29226e-19)
(113.597 0.00014945 -1.92396e-26)
(113.597 0.000149436 2.29224e-19)
(113.597 0.000149422 1.14612e-19)
(113.597 0.000149408 8.96002e-27)
(113.596 0.000149393 -1.14611e-19)
(113.596 0.000149379 1.1461e-19)
(113.596 0.000149364 8.51842e-27)
(113.596 0.000149349 -1.14609e-19)
(113.596 0.000149334 1.14609e-19)
(113.596 0.000149319 8.30584e-27)
(113.596 0.000149304 -1.14608e-19)
(113.596 0.000149289 0)
(113.596 0.000149275 0)
(113.596 0.00014926 0)
(113.595 0.000149246 0)
(113.595 0.000149232 0)
(113.595 0.000149218 -2.29212e-19)
(113.595 0.000149205 -1.75672e-26)
(113.595 0.000149193 2.2921e-19)
(113.595 0.00014918 0)
(113.595 0.000149169 0)
(113.595 0.000149159 0)
(113.595 0.000149149 0)
(113.595 0.000149141 0)
(113.594 0.000149135 0)
(113.594 0.000149131 0)
(113.594 0.000149129 0)
(113.594 0.000149131 0)
(113.594 0.000149138 0)
(113.594 0.00014915 0)
(113.594 0.000149171 0)
(113.594 0.000149205 0)
(113.594 0.000149261 0)
(113.594 0.000149344 0)
(113.593 0.00014951 2.21882e-19)
(113.593 0.000149742 1.55236e-25)
(113.593 0.000150276 -2.21911e-19)
(113.593 0.000151037 0)
(113.593 0.000149862 0)
(113.631 0.000208493 1.77124e-23)
(113.637 0.00020971 2.22383e-22)
(113.636 0.000232127 -1.24868e-19)
(113.633 0.000244488 1.61777e-22)
(113.633 0.000238473 2.43349e-19)
(113.634 0.000233586 -9.32191e-23)
(113.634 0.000236345 1.29435e-22)
(113.633 0.000239876 8.80831e-23)
(113.633 0.000240752 1.84979e-24)
(113.633 0.000240759 0)
(113.633 0.000241306 2.13364e-23)
(113.633 0.000242109 2.46864e-23)
(113.633 0.000242722 1.68161e-23)
(113.633 0.000243162 1.30023e-23)
(113.633 0.000243565 1.3103e-23)
(113.633 0.000243955 0)
(113.633 0.000244307 1.16156e-23)
(113.632 0.000244613 1.04068e-23)
(113.632 0.000244886 9.56565e-24)
(113.632 0.000245131 8.86944e-24)
(113.632 0.00024535 3.4386e-19)
(113.632 0.000245547 -1.13258e-23)
(113.632 0.000245722 -3.43835e-19)
(113.632 0.000245878 6.48659e-24)
(113.632 0.000246018 6.03586e-24)
(113.632 0.000246142 1.14615e-19)
(113.632 0.000246254 5.09029e-24)
(113.631 0.000246352 -1.14602e-19)
(113.631 0.00024644 4.62343e-24)
(113.631 0.000246518 0)
(113.631 0.000246587 4.09999e-24)
(113.631 0.000246648 1.14607e-19)
(113.631 0.000246701 -1.83265e-24)
(113.631 0.000246747 -1.14598e-19)
(113.631 0.000246788 3.30228e-24)
(113.631 0.000246823 0)
(113.631 0.000246853 2.99833e-24)
(113.631 0.000246878 2.86527e-24)
(113.63 0.000246899 -2.29195e-19)
(113.63 0.000246916 2.63293e-24)
(113.63 0.000246929 2.29195e-19)
(113.63 0.00024694 -2.29191e-19)
(113.63 0.000246947 2.35575e-24)
(113.63 0.000246952 2.29191e-19)
(113.63 0.000246954 -2.29186e-19)
(113.63 0.000246954 2.14562e-24)
(113.63 0.000246952 2.29185e-19)
(113.63 0.000246948 -1.9687e-24)
(113.629 0.000246943 9.28751e-25)
(113.629 0.000246936 -9.69008e-25)
(113.629 0.000246928 -9.4752e-25)
(113.629 0.000246918 8.6782e-25)
(113.629 0.000246907 -2.29182e-19)
(113.629 0.000246895 -2.29177e-19)
(113.629 0.000246882 1.74333e-24)
(113.629 0.000246868 2.29178e-19)
(113.629 0.000246853 2.29177e-19)
(113.629 0.000246837 -5.25583e-26)
(113.629 0.00024682 -5.16048e-26)
(113.628 0.000246803 1.58631e-24)
(113.628 0.000246785 -2.29172e-19)
(113.628 0.000246767 1.53438e-24)
(113.628 0.000246747 2.29172e-19)
(113.628 0.000246728 1.14586e-19)
(113.628 0.000246708 1.42509e-24)
(113.628 0.000246687 -1.14582e-19)
(113.628 0.000246667 1.14585e-19)
(113.628 0.000246646 -7.15494e-25)
(113.628 0.000246624 -1.14581e-19)
(113.627 0.000246603 1.14584e-19)
(113.627 0.000246582 -7.06118e-25)
(113.627 0.000246561 -1.1458e-19)
(113.627 0.000246539 1.41082e-24)
(113.627 0.000246518 0)
(113.627 0.000246498 1.41766e-24)
(113.627 0.000246477 1.42398e-24)
(113.627 0.000246457 1.43293e-24)
(113.627 0.000246438 -2.29157e-19)
(113.627 0.000246419 1.45846e-24)
(113.627 0.000246401 2.29158e-19)
(113.626 0.000246383 1.49858e-24)
(113.626 0.000246368 1.52623e-24)
(113.626 0.000246353 1.56133e-24)
(113.626 0.00024634 1.605e-24)
(113.626 0.000246329 0)
(113.626 0.000246321 1.73052e-24)
(113.626 0.000246316 1.82021e-24)
(113.626 0.000246315 1.93511e-24)
(113.626 0.00024632 2.08498e-24)
(113.626 0.000246331 2.28245e-24)
(113.625 0.00024635 0)
(113.625 0.000246382 2.91396e-24)
(113.625 0.00024643 3.42809e-24)
(113.625 0.000246501 4.16867e-24)
(113.625 0.000246606 5.24596e-24)
(113.625 0.000246755 2.2184e-19)
(113.625 0.000246992 -8.55805e-24)
(113.625 0.000247207 -2.21852e-19)
(113.625 0.00024779 1.33194e-23)
(113.625 0.000247274 -1.37149e-23)
(113.66 0.000293564 2.263e-20)
(113.666 0.000297418 1.35678e-20)
(113.664 0.000308693 -1.25617e-19)
(113.662 0.000320094 -1.20924e-33)
(113.662 0.000324594 2.43482e-19)
(113.662 0.000325486 5.65333e-34)
(113.662 0.000327294 -2.94678e-33)
(113.662 0.000329711 3.07212e-33)
(113.662 0.000331308 -2.28533e-19)
(113.662 0.000332228 -3.61497e-33)
(113.662 0.000333093 2.29544e-19)
(113.662 0.000334001 2.54388e-33)
(113.662 0.000334804 -5.59198e-37)
(113.662 0.000335475 -1.27251e-33)
(113.661 0.00033607 -2.29241e-19)
(113.661 0.000336617 3.27798e-33)
(113.661 0.000337113 2.29197e-19)
(113.661 0.000337556 2.13448e-33)
(113.661 0.000337952 -2.45646e-33)
(113.661 0.000338308 -2.54484e-33)
(113.661 0.000338629 -2.29188e-19)
(113.661 0.000338917 4.94579e-33)
(113.661 0.000339175 2.29181e-19)
(113.661 0.000339407 -2.54416e-33)
(113.661 0.000339615 -2.04655e-34)
(113.66 0.000339802 1.07264e-19)
(113.66 0.000339969 -4.98604e-34)
(113.66 0.000340119 -1.07262e-19)
(113.66 0.000340253 -2.29166e-19)
(113.66 0.000340373 -9.36698e-34)
(113.66 0.00034048 2.29162e-19)
(113.66 0.000340575 -2.2916e-19)
(113.66 0.00034066 7.27724e-34)
(113.66 0.000340735 2.29156e-19)
(113.66 0.000340801 -2.29155e-19)
(113.66 0.00034086 2.92643e-35)
(113.659 0.000340911 2.29152e-19)
(113.659 0.000340956 -2.36472e-19)
(113.659 0.000340994 -2.29149e-19)
(113.659 0.000341027 2.36469e-19)
(113.659 0.000341055 -7.3217e-21)
(113.659 0.000341079 -2.29145e-19)
(113.659 0.000341098 2.36465e-19)
(113.659 0.000341113 1.14571e-19)
(113.659 0.000341125 -2.29142e-19)
(113.659 0.000341134 -1.1457e-19)
(113.659 0.00034114 -2.21818e-19)
(113.658 0.000341143 1.07248e-19)
(113.658 0.000341143 1.07247e-19)
(113.658 0.000341142 -2.21815e-19)
(113.658 0.000341138 2.21814e-19)
(113.658 0.000341132 -2.21813e-19)
(113.658 0.000341125 -1.07245e-19)
(113.658 0.000341116 3.36378e-19)
(113.658 0.000341105 -3.18135e-34)
(113.658 0.000341093 2.29131e-19)
(113.658 0.00034108 -7.32117e-21)
(113.657 0.000341065 -2.3645e-19)
(113.657 0.000341049 2.36449e-19)
(113.657 0.000341032 -2.60039e-33)
(113.657 0.000341014 -2.29126e-19)
(113.657 0.000340996 2.36447e-19)
(113.657 0.000340976 2.29125e-19)
(113.657 0.000340956 1.07241e-19)
(113.657 0.000340935 9.38921e-38)
(113.657 0.000340913 -1.0724e-19)
(113.657 0.000340891 -2.29122e-19)
(113.657 0.000340868 -1.45521e-33)
(113.656 0.000340845 2.2912e-19)
(113.656 0.000340822 -2.29119e-19)
(113.656 0.000340799 1.24773e-34)
(113.656 0.000340776 2.29118e-19)
(113.656 0.000340753 -2.29117e-19)
(113.656 0.00034073 -1.28742e-33)
(113.656 0.000340707 2.29115e-19)
(113.656 0.000340685 1.17005e-34)
(113.656 0.000340663 -3.21361e-38)
(113.656 0.000340641 -2.29113e-19)
(113.656 0.000340621 -6.58148e-33)
(113.655 0.000340602 2.29112e-19)
(113.655 0.000340584 -6.60911e-38)
(113.655 0.000340567 8.77763e-35)
(113.655 0.000340552 4.38812e-34)
(113.655 0.00034054 -2.29109e-19)
(113.655 0.00034053 -8.57282e-33)
(113.655 0.000340523 2.29107e-19)
(113.655 0.000340521 1.27179e-33)
(113.655 0.000340524 1.27195e-33)
(113.655 0.000340534 2.54357e-33)
(113.655 0.000340551 -2.29103e-19)
(113.654 0.000340579 3.54005e-33)
(113.654 0.000340621 2.29102e-19)
(113.654 0.000340681 2.04609e-33)
(113.654 0.000340763 1.5936e-33)
(113.654 0.000340877 -3.21629e-33)
(113.654 0.000341019 -2.29112e-19)
(113.654 0.000341242 -2.13561e-33)
(113.654 0.000341377 2.29142e-19)
(113.654 0.000341946 5.01368e-33)
(113.654 0.00034137 -6.50732e-34)
(113.686 0.000381325 -7.14101e-24)
(113.692 0.000385565 -1.8873e-22)
(113.691 0.000394402 -1.25904e-19)
(113.688 0.000403265 -2.27151e-22)
(113.688 0.000408067 2.43215e-19)
(113.688 0.000409873 -3.59968e-23)
(113.688 0.000411716 -5.77493e-23)
(113.688 0.000414189 -7.31667e-23)
(113.688 0.000416353 -5.74236e-23)
(113.688 0.000417916 0)
(113.688 0.000419221 -3.74326e-23)
(113.688 0.000420465 -3.6891e-23)
(113.688 0.000421603 -3.36305e-23)
(113.688 0.000422592 -2.96141e-23)
(113.688 0.00042346 -2.6797e-23)
(113.688 0.000424241 0)
(113.687 0.000424943 -2.2826e-23)
(113.687 0.000425572 -2.09547e-23)
(113.687 0.000426135 -1.93075e-23)
(113.687 0.00042664 -1.78823e-23)
(113.687 0.000427094 3.43702e-19)
(113.687 0.000427502 2.31898e-23)
(113.687 0.00042787 -3.43724e-19)
(113.687 0.000428201 -1.35023e-23)
(113.687 0.000428499 -1.26718e-23)
(113.687 0.000428769 1.14554e-19)
(113.687 0.000429012 -1.0887e-23)
(113.687 0.000429231 -1.14574e-19)
(113.686 0.000429428 -1.00799e-23)
(113.686 0.000429607 0)
(113.686 0.000429768 -9.11767e-24)
(113.686 0.000429913 1.14551e-19)
(113.686 0.000430044 4.159e-24)
(113.686 0.000430161 -1.14566e-19)
(113.686 0.000430267 -7.64975e-24)
(113.686 0.000430362 0)
(113.686 0.000430447 -7.08958e-24)
(113.686 0.000430523 -6.84427e-24)
(113.686 0.000430591 -2.29109e-19)
(113.685 0.000430651 -6.41402e-24)
(113.685 0.000430704 2.291e-19)
(113.685 0.000430751 -2.29105e-19)
(113.685 0.000430792 -5.89612e-24)
(113.685 0.000430828 2.29097e-19)
(113.685 0.000430859 -2.29105e-19)
(113.685 0.000430886 -5.49813e-24)
(113.685 0.000430908 2.291e-19)
(113.685 0.000430927 5.1141e-24)
(113.685 0.000430942 -2.42774e-24)
(113.685 0.000430954 2.5487e-24)
(113.685 0.000430964 2.50673e-24)
(113.684 0.00043097 -2.30948e-24)
(113.684 0.000430974 -2.29087e-19)
(113.684 0.000430976 -2.29098e-19)
(113.684 0.000430975 -4.71996e-24)
(113.684 0.000430973 2.29087e-19)
(113.684 0.000430968 2.29086e-19)
(113.684 0.000430962 1.44858e-25)
(113.684 0.000430954 1.43062e-25)
(113.684 0.000430944 -4.42421e-24)
(113.684 0.000430933 -2.29087e-19)
(113.684 0.000430921 -4.32792e-24)
(113.683 0.000430908 2.29081e-19)
(113.683 0.000430893 1.14538e-19)
(113.683 0.000430877 -4.07696e-24)
(113.683 0.000430861 -1.14546e-19)
(113.683 0.000430844 1.14537e-19)
(113.683 0.000430826 2.0658e-24)
(113.683 0.000430808 -1.14545e-19)
(113.683 0.000430789 1.14536e-19)
(113.683 0.00043077 2.04381e-24)
(113.683 0.00043075 -1.14544e-19)
(113.683 0.000430731 -4.07655e-24)
(113.682 0.000430712 0)
(113.682 0.000430693 -4.07922e-24)
(113.682 0.000430674 -4.08583e-24)
(113.682 0.000430656 -4.0964e-24)
(113.682 0.000430639 -2.29079e-19)
(113.682 0.000430622 -4.13147e-24)
(113.682 0.000430607 2.29069e-19)
(113.682 0.000430593 -4.19156e-24)
(113.682 0.00043058 -4.23458e-24)
(113.682 0.00043057 -4.28908e-24)
(113.682 0.000430563 -4.35766e-24)
(113.682 0.000430559 0)
(113.681 0.000430558 -4.55178e-24)
(113.681 0.000430563 -4.68698e-24)
(113.681 0.000430573 -4.85614e-24)
(113.681 0.000430591 -5.06807e-24)
(113.681 0.000430618 -5.33354e-24)
(113.681 0.000430657 0)
(113.681 0.000430709 -6.08247e-24)
(113.681 0.00043078 -6.60435e-24)
(113.681 0.00043087 -7.22597e-24)
(113.681 0.000430991 -8.02778e-24)
(113.681 0.000431128 2.21747e-19)
(113.68 0.000431345 9.82689e-24)
(113.68 0.000431431 -2.21795e-19)
(113.68 0.000432011 -1.59881e-23)
(113.68 0.000431282 1.67601e-23)
(113.709 0.000459499 0)
(113.716 0.000463914 0)
(113.714 0.000471926 -1.25611e-19)
(113.712 0.000479442 -1.92567e-33)
(113.712 0.000484586 2.43206e-19)
(113.712 0.000488006 0)
(113.712 0.000491051 0)
(113.712 0.00049406 0)
(113.712 0.000496655 0)
(113.712 0.00049871 0)
(113.712 0.000500434 0)
(113.712 0.000501986 0)
(113.712 0.000503379 0)
(113.711 0.0005046 0)
(113.711 0.000505675 0)
(113.711 0.000506637 0)
(113.711 0.000507502 0)
(113.711 0.000508279 0)
(113.711 0.000508978 0)
(113.711 0.000509609 0)
(113.711 0.000510179 3.43662e-19)
(113.711 0.000510695 -7.66527e-33)
(113.711 0.000511162 -3.43654e-19)
(113.711 0.000511586 0)
(113.711 0.000511972 0)
(113.711 0.000512321 1.14548e-19)
(113.71 0.00051264 -1.25789e-33)
(113.71 0.00051293 -1.14545e-19)
(113.71 0.000513193 0)
(113.71 0.000513434 0)
(113.71 0.000513653 0)
(113.71 0.000513853 1.14542e-19)
(113.71 0.000514035 -4.3805e-35)
(113.71 0.000514201 -1.1454e-19)
(113.71 0.000514352 0)
(113.71 0.00051449 0)
(113.71 0.000514615 0)
(113.71 0.00051473 0)
(113.709 0.000514834 -2.29074e-19)
(113.709 0.000514928 -8.78793e-35)
(113.709 0.000515014 2.29071e-19)
(113.709 0.000515092 -2.2907e-19)
(113.709 0.000515162 1.25779e-33)
(113.709 0.000515226 2.29068e-19)
(113.709 0.000515284 -2.29067e-19)
(113.709 0.000515336 -4.09468e-34)
(113.709 0.000515382 2.29065e-19)
(113.709 0.000515424 0)
(113.709 0.000515461 0)
(113.709 0.000515495 0)
(113.708 0.000515524 0)
(113.708 0.00051555 0)
(113.708 0.000515572 -2.2906e-19)
(113.708 0.000515592 -2.29059e-19)
(113.708 0.000515608 2.34016e-34)
(113.708 0.000515622 2.29057e-19)
(113.708 0.000515633 2.29056e-19)
(113.708 0.000515642 0)
(113.708 0.000515649 0)
(113.708 0.000515654 0)
(113.708 0.000515656 -2.29053e-19)
(113.708 0.000515657 -6.14298e-34)
(113.708 0.000515657 2.29052e-19)
(113.707 0.000515654 1.14526e-19)
(113.707 0.000515651 8.65263e-38)
(113.707 0.000515646 -1.14525e-19)
(113.707 0.00051564 1.14524e-19)
(113.707 0.000515633 6.28904e-34)
(113.707 0.000515626 -1.14524e-19)
(113.707 0.000515617 1.14523e-19)
(113.707 0.000515609 1.30172e-33)
(113.707 0.000515599 -1.14523e-19)
(113.707 0.00051559 0)
(113.707 0.00051558 0)
(113.707 0.000515571 0)
(113.706 0.000515562 0)
(113.706 0.000515553 0)
(113.706 0.000515545 -2.29042e-19)
(113.706 0.000515538 -2.54476e-33)
(113.706 0.000515532 2.2904e-19)
(113.706 0.000515528 0)
(113.706 0.000515526 0)
(113.706 0.000515525 0)
(113.706 0.000515528 0)
(113.706 0.000515534 0)
(113.706 0.000515545 0)
(113.706 0.000515561 0)
(113.705 0.000515583 0)
(113.705 0.000515613 0)
(113.705 0.000515653 0)
(113.705 0.000515704 0)
(113.705 0.00051577 0)
(113.705 0.000515852 0)
(113.705 0.000515953 0)
(113.705 0.000516082 0)
(113.705 0.00051622 2.21725e-19)
(113.705 0.000516439 -4.9707e-33)
(113.705 0.000516499 -2.21758e-19)
(113.704 0.000517122 0)
(113.704 0.000516257 0)
(113.731 0.000533423 0)
(113.737 0.000537834 0)
(113.736 0.000545503 -1.25594e-19)
(113.733 0.000552509 3.75833e-33)
(113.733 0.000557768 2.43127e-19)
(113.734 0.000561822 0)
(113.734 0.000565323 0)
(113.733 0.000568491 0)
(113.733 0.000571256 0)
(113.733 0.000573595 0)
(113.733 0.000575614 0)
(113.733 0.00057741 0)
(113.733 0.000579019 0)
(113.733 0.000580448 0)
(113.733 0.000581721 0)
(113.733 0.000582862 0)
(113.733 0.000583891 0)
(113.733 0.000584819 0)
(113.733 0.000585657 0)
(113.733 0.000586416 0)
(113.732 0.000587105 3.43611e-19)
(113.732 0.00058773 -3.91933e-33)
(113.732 0.0005883 -3.43604e-19)
(113.732 0.000588818 0)
(113.732 0.000589292 0)
(113.732 0.000589724 1.14531e-19)
(113.732 0.00059012 -1.88676e-33)
(113.732 0.000590482 -1.14529e-19)
(113.732 0.000590814 0)
(113.732 0.000591119 0)
(113.732 0.000591399 0)
(113.732 0.000591656 1.14526e-19)
(113.732 0.000591892 -2.92779e-35)
(113.731 0.00059211 -1.14524e-19)
(113.731 0.00059231 0)
(113.731 0.000592495 0)
(113.731 0.000592665 0)
(113.731 0.000592822 0)
(113.731 0.000592966 -2.29042e-19)
(113.731 0.000593099 -5.85077e-34)
(113.731 0.000593222 2.2904e-19)
(113.731 0.000593336 -2.29039e-19)
(113.731 0.000593441 5.85305e-35)
(113.731 0.000593537 2.29037e-19)
(113.731 0.000593627 -2.29036e-19)
(113.731 0.000593709 -6.72734e-34)
(113.73 0.000593785 2.29034e-19)
(113.73 0.000593855 0)
(113.73 0.00059392 0)
(113.73 0.00059398 0)
(113.73 0.000594035 0)
(113.73 0.000594086 0)
(113.73 0.000594133 -2.2903e-19)
(113.73 0.000594176 -2.29029e-19)
(113.73 0.000594215 3.21771e-34)
(113.73 0.000594251 2.29027e-19)
(113.73 0.000594284 2.29027e-19)
(113.73 0.000594314 0)
(113.73 0.000594341 0)
(113.73 0.000594365 0)
(113.729 0.000594387 -2.29024e-19)
(113.729 0.000594407 -6.14216e-34)
(113.729 0.000594425 2.29022e-19)
(113.729 0.000594441 1.14511e-19)
(113.729 0.000594455 1.24306e-33)
(113.729 0.000594468 -1.1451e-19)
(113.729 0.000594479 1.1451e-19)
(113.729 0.000594489 1.30156e-33)
(113.729 0.000594498 -1.14509e-19)
(113.729 0.000594506 1.14509e-19)
(113.729 0.000594513 1.93036e-33)
(113.729 0.000594519 -1.14508e-19)
(113.729 0.000594526 0)
(113.728 0.000594532 0)
(113.728 0.000594537 0)
(113.728 0.000594543 0)
(113.728 0.00059455 0)
(113.728 0.000594557 -2.29013e-19)
(113.728 0.000594564 -2.54434e-33)
(113.728 0.000594573 2.29012e-19)
(113.728 0.000594584 0)
(113.728 0.000594596 0)
(113.728 0.000594611 0)
(113.728 0.000594629 0)
(113.728 0.00059465 0)
(113.728 0.000594676 0)
(113.727 0.000594708 0)
(113.727 0.000594746 0)
(113.727 0.000594792 0)
(113.727 0.000594848 0)
(113.727 0.000594915 0)
(113.727 0.000594996 0)
(113.727 0.000595093 0)
(113.727 0.000595207 0)
(113.727 0.000595347 0)
(113.727 0.000595492 2.21699e-19)
(113.727 0.000595721 -4.91202e-33)
(113.727 0.000595769 -2.21735e-19)
(113.726 0.000596444 0)
(113.726 0.000595472 0)
(113.75 0.000600281 0)
(113.757 0.000604739 0)
(113.755 0.000612363 -1.25575e-19)
(113.752 0.000619227 -1.87826e-33)
(113.752 0.000624538 2.4306e-19)
(113.753 0.000628922 0)
(113.753 0.000632807 0)
(113.753 0.00063628 0)
(113.753 0.000639328 0)
(113.752 0.000641974 0)
(113.752 0.000644285 0)
(113.752 0.000646333 0)
(113.752 0.000648159 0)
(113.752 0.000649788 0)
(113.752 0.000651244 0)
(113.752 0.00065255 0)
(113.752 0.000653727 0)
(113.752 0.000654791 0)
(113.752 0.000655755 0)
(113.752 0.000656629 0)
(113.752 0.000657425 3.43565e-19)
(113.752 0.00065815 -7.66249e-33)
(113.752 0.000658813 -3.43558e-19)
(113.752 0.000659419 0)
(113.752 0.000659974 0)
(113.751 0.000660484 1.14516e-19)
(113.751 0.000660953 -1.2869e-33)
(113.751 0.000661384 -1.14514e-19)
(113.751 0.000661782 0)
(113.751 0.000662149 0)
(113.751 0.000662488 0)
(113.751 0.000662802 1.14511e-19)
(113.751 0.000663093 -2.90607e-35)
(113.751 0.000663362 -1.1451e-19)
(113.751 0.000663612 0)
(113.751 0.000663843 0)
(113.751 0.000664059 0)
(113.751 0.00066426 0)
(113.751 0.000664446 -2.29015e-19)
(113.75 0.00066462 -7.01972e-34)
(113.75 0.000664783 2.29013e-19)
(113.75 0.000664934 -2.29012e-19)
(113.75 0.000665076 7.30981e-34)
(113.75 0.000665208 2.2901e-19)
(113.75 0.000665332 -2.29009e-19)
(113.75 0.000665448 -4.09418e-34)
(113.75 0.000665556 2.29008e-19)
(113.75 0.000665658 0)
(113.75 0.000665754 0)
(113.75 0.000665844 0)
(113.75 0.000665929 0)
(113.75 0.000666008 0)
(113.75 0.000666083 -2.29003e-19)
(113.75 0.000666153 -2.29003e-19)
(113.749 0.000666219 -2.92733e-35)
(113.749 0.000666281 2.29001e-19)
(113.749 0.00066634 2.29001e-19)
(113.749 0.000666395 0)
(113.749 0.000666446 0)
(113.749 0.000666495 0)
(113.749 0.000666541 -2.28998e-19)
(113.749 0.000666584 2.91599e-35)
(113.749 0.000666625 2.28997e-19)
(113.749 0.000666663 1.14498e-19)
(113.749 0.0006667 -1.46078e-35)
(113.749 0.000666734 -1.14498e-19)
(113.749 0.000666767 1.14497e-19)
(113.749 0.000666798 6.43422e-34)
(113.749 0.000666828 -1.14497e-19)
(113.748 0.000666857 1.14497e-19)
(113.748 0.000666885 1.2721e-33)
(113.748 0.000666912 -1.14496e-19)
(113.748 0.000666938 0)
(113.748 0.000666964 0)
(113.748 0.00066699 0)
(113.748 0.000667015 0)
(113.748 0.000667041 0)
(113.748 0.000667068 -2.28989e-19)
(113.748 0.000667095 -2.57349e-33)
(113.748 0.000667123 2.28988e-19)
(113.748 0.000667153 0)
(113.748 0.000667184 0)
(113.748 0.000667218 0)
(113.747 0.000667255 0)
(113.747 0.000667296 0)
(113.747 0.000667341 0)
(113.747 0.000667392 0)
(113.747 0.000667449 0)
(113.747 0.000667515 0)
(113.747 0.000667589 0)
(113.747 0.000667675 0)
(113.747 0.000667774 0)
(113.747 0.000667889 0)
(113.747 0.000668019 0)
(113.747 0.000668173 0)
(113.747 0.000668329 2.21678e-19)
(113.747 0.000668573 -4.94035e-33)
(113.747 0.000668621 -2.21717e-19)
(113.746 0.000669343 0)
(113.746 0.000668299 0)
(113.767 0.000661037 0)
(113.774 0.000665505 0)
(113.772 0.0006731 -1.25558e-19)
(113.77 0.0006799 1.78029e-22)
(113.769 0.000685236 2.43002e-19)
(113.77 0.000689799 0)
(113.77 0.000693928 0)
(113.77 0.000697615 0)
(113.77 0.00070085 0)
(113.77 0.000703686 0)
(113.77 0.000706191 0)
(113.77 0.000708421 0)
(113.77 0.000710415 0)
(113.769 0.000712201 0)
(113.769 0.000713805 0)
(113.769 0.000715252 0)
(113.769 0.00071656 0)
(113.769 0.000717746 0)
(113.769 0.000718824 0)
(113.769 0.000719806 0)
(113.769 0.000720703 3.43523e-19)
(113.769 0.000721523 -4.25227e-23)
(113.769 0.000722275 -3.43517e-19)
(113.769 0.000722966 0)
(113.769 0.000723601 0)
(113.769 0.000724186 1.14503e-19)
(113.769 0.000724727 2.04704e-23)
(113.769 0.000725226 -1.14501e-19)
(113.769 0.000725689 0)
(113.769 0.000726117 -2.67996e-23)
(113.768 0.000726515 0)
(113.768 0.000726885 1.14499e-19)
(113.768 0.00072723 -8.02911e-24)
(113.768 0.000727551 -1.14497e-19)
(113.768 0.000727851 0)
(113.768 0.00072813 -2.10927e-23)
(113.768 0.000728392 0)
(113.768 0.000728637 0)
(113.768 0.000728867 -2.2899e-19)
(113.768 0.000729083 1.26919e-23)
(113.768 0.000729286 2.28988e-19)
(113.768 0.000729477 -2.28988e-19)
(113.768 0.000729657 1.17581e-23)
(113.768 0.000729826 2.28986e-19)
(113.768 0.000729986 -2.28985e-19)
(113.768 0.000730138 1.10272e-23)
(113.768 0.000730281 2.28984e-19)
(113.767 0.000730417 -1.02855e-23)
(113.767 0.000730546 -5.22199e-24)
(113.767 0.000730668 -5.13715e-24)
(113.767 0.000730784 -5.05732e-24)
(113.767 0.000730895 -4.98194e-24)
(113.767 0.000731 -2.28994e-19)
(113.767 0.0007311 -2.2897e-19)
(113.767 0.000731196 9.55674e-24)
(113.767 0.000731287 2.28988e-19)
(113.767 0.000731374 2.28978e-19)
(113.767 0.000731457 -2.94207e-25)
(113.767 0.000731536 -2.90883e-25)
(113.767 0.000731612 0)
(113.767 0.000731685 -2.28976e-19)
(113.767 0.000731754 8.82982e-24)
(113.767 0.000731821 2.28975e-19)
(113.766 0.000731885 1.14487e-19)
(113.766 0.000731947 8.34062e-24)
(113.766 0.000732007 -1.14487e-19)
(113.766 0.000732065 1.14486e-19)
(113.766 0.000732121 -4.23104e-24)
(113.766 0.000732175 -1.14486e-19)
(113.766 0.000732228 1.14486e-19)
(113.766 0.00073228 -4.18146e-24)
(113.766 0.000732331 -1.14485e-19)
(113.766 0.000732381 0)
(113.766 0.00073243 -1.22014e-23)
(113.766 0.000732479 0)
(113.766 0.000732528 0)
(113.766 0.000732577 0)
(113.766 0.000732626 -2.28968e-19)
(113.766 0.000732676 8.33425e-24)
(113.765 0.000732727 2.28967e-19)
(113.765 0.000732779 0)
(113.765 0.000732833 0)
(113.765 0.00073289 0)
(113.765 0.000732949 0)
(113.765 0.000733012 0)
(113.765 0.00073308 0)
(113.765 0.000733152 0)
(113.765 0.000733232 0)
(113.765 0.000733319 0)
(113.765 0.000733415 0)
(113.765 0.000733522 0)
(113.765 0.000733641 0)
(113.765 0.000733775 0)
(113.765 0.000733923 0)
(113.765 0.000734094 0)
(113.764 0.000734265 2.21659e-19)
(113.764 0.000734526 -1.30534e-23)
(113.764 0.000734581 -2.21702e-19)
(113.764 0.000735343 0)
(113.764 0.000734258 0)
(113.782 0.000715006 0)
(113.789 0.000719459 0)
(113.787 0.000727022 0)
(113.785 0.000733785 2.35237e-36)
(113.785 0.000739136 0)
(113.785 0.000743796 0)
(113.785 0.000748071 0)
(113.785 0.000751909 0)
(113.785 0.000755292 0)
(113.785 0.000758285 0)
(113.785 0.000760955 0)
(113.785 0.000763346 0)
(113.785 0.000765491 0)
(113.785 0.000767421 0)
(113.785 0.000769161 0)
(113.785 0.000770736 0)
(113.785 0.000772163 0)
(113.785 0.000773462 0)
(113.785 0.000774646 0)
(113.785 0.000775727 0)
(113.784 0.000776718 0)
(113.784 0.000777626 -1.90744e-33)
(113.784 0.000778462 0)
(113.784 0.000779231 0)
(113.784 0.000779942 0)
(113.784 0.000780599 3.36157e-19)
(113.784 0.000781207 -3.77378e-33)
(113.784 0.000781772 -3.36153e-19)
(113.784 0.000782296 -3.36151e-19)
(113.784 0.000782784 4.73684e-33)
(113.784 0.00078324 3.36147e-19)
(113.784 0.000783665 0)
(113.784 0.000784062 -2.40284e-37)
(113.784 0.000784434 0)
(113.784 0.000784783 -3.36141e-19)
(113.784 0.00078511 1.87091e-33)
(113.784 0.000785418 3.36139e-19)
(113.784 0.000785708 -7.31603e-21)
(113.784 0.000785981 1.30055e-34)
(113.783 0.000786239 7.31598e-21)
(113.783 0.000786483 -7.31596e-21)
(113.783 0.000786714 9.94055e-36)
(113.783 0.000786933 7.31592e-21)
(113.783 0.000787141 0)
(113.783 0.000787338 0)
(113.783 0.000787526 1.72306e-37)
(113.783 0.000787705 -2.21647e-19)
(113.783 0.000787876 -1.14481e-19)
(113.783 0.000788039 1.07165e-19)
(113.783 0.000788195 -3.42928e-35)
(113.783 0.000788344 2.00426e-35)
(113.783 0.000788487 -2.21644e-19)
(113.783 0.000788625 1.1448e-19)
(113.783 0.000788756 3.36123e-19)
(113.783 0.000788883 1.59136e-34)
(113.783 0.000789005 7.94619e-34)
(113.783 0.000789122 -7.31567e-21)
(113.783 0.000789235 -7.31566e-21)
(113.782 0.000789343 7.31564e-21)
(113.782 0.000789449 -8.86346e-35)
(113.782 0.00078955 2.94313e-37)
(113.782 0.000789648 7.3156e-21)
(113.782 0.000789743 0)
(113.782 0.000789835 3.36116e-19)
(113.782 0.000789925 5.61404e-33)
(113.782 0.000790012 -3.36115e-19)
(113.782 0.000790097 0)
(113.782 0.00079018 -6.35548e-34)
(113.782 0.000790261 0)
(113.782 0.000790341 0)