/*--------------------------------*- C++ -*----------------------------------*\
  =========                 |
  \\      /  F ield         | OpenFOAM: The Open Source CFD Toolbox
   \\    /   O peration     | Website:  https://openfoam.org
    \\  /    A nd           | Version:  8
     \\/     M anipulation  |
\*---------------------------------------------------------------------------*/
FoamFile
{
    version     2.0;
    format      ascii;
    class       volScalarField;
    location    "5.5";
    object      p;
}
// * * * * * * * * * * * * * * * * * * * * * * * * * * * * * * * * * * * * * //

dimensions      [0 2 -2 0 0 0 0];

internalField   nonuniform List<scalar> 
262620
(
-1.35927
-1.35949
-1.36017
-1.36119
-1.36253
-1.36417
-1.36611
-1.36832
-1.37079
-1.3735
-1.37643
-1.37956
-1.38289
-1.3864
-1.39006
-1.39388
-1.39784
-1.40192
-1.40611
-1.41041
-1.4148
-1.41927
-1.42381
-1.42842
-1.43307
-1.43778
-1.44252
-1.4473
-1.4521
-1.45692
-1.46175
-1.46658
-1.47142
-1.47625
-1.48108
-1.48589
-1.49068
-1.49545
-1.5002
-1.50492
-1.50961
-1.51427
-1.51888
-1.52346
-1.528
-1.5325
-1.53695
-1.54136
-1.54572
-1.55003
-1.55429
-1.5585
-1.56265
-1.56676
-1.57081
-1.5748
-1.57875
-1.58264
-1.58647
-1.59025
-1.59397
-1.59764
-1.60125
-1.60481
-1.60831
-1.61176
-1.61515
-1.61849
-1.62177
-1.62501
-1.62818
-1.63131
-1.63438
-1.6374
-1.64037
-1.64329
-1.64616
-1.64898
-1.65175
-1.65447
-1.65715
-1.65977
-1.66235
-1.66489
-1.66737
-1.66982
-1.67222
-1.67458
-1.67689
-1.67916
-1.68139
-1.68358
-1.68573
-1.68784
-1.68991
-1.69194
-1.69394
-1.6959
-1.69782
-1.6997
-1.70155
-1.70337
-1.70515
-1.7069
-1.70862
-1.7103
-1.71196
-1.71358
-1.71517
-1.71673
-1.71826
-1.71977
-1.72124
-1.72269
-1.72411
-1.72551
-1.72687
-1.72821
-1.72953
-1.73082
-1.35914
-1.35936
-1.36003
-1.36105
-1.36239
-1.36403
-1.36597
-1.36818
-1.37065
-1.37335
-1.37628
-1.37942
-1.38275
-1.38625
-1.38992
-1.39374
-1.39769
-1.40178
-1.40597
-1.41027
-1.41466
-1.41913
-1.42367
-1.42828
-1.43294
-1.43765
-1.44239
-1.44717
-1.45197
-1.45679
-1.46162
-1.46646
-1.4713
-1.47614
-1.48096
-1.48578
-1.49057
-1.49535
-1.5001
-1.50482
-1.50951
-1.51417
-1.51879
-1.52337
-1.52792
-1.53241
-1.53687
-1.54128
-1.54564
-1.54995
-1.55422
-1.55843
-1.56259
-1.56669
-1.57075
-1.57475
-1.57869
-1.58259
-1.58642
-1.5902
-1.59393
-1.5976
-1.60122
-1.60478
-1.60828
-1.61173
-1.61513
-1.61847
-1.62176
-1.62499
-1.62817
-1.6313
-1.63438
-1.6374
-1.64037
-1.64329
-1.64617
-1.64899
-1.65176
-1.65449
-1.65716
-1.65979
-1.66237
-1.66491
-1.6674
-1.66985
-1.67225
-1.67461
-1.67693
-1.6792
-1.68143
-1.68363
-1.68578
-1.68789
-1.68996
-1.692
-1.694
-1.69596
-1.69788
-1.69977
-1.70162
-1.70344
-1.70522
-1.70698
-1.70869
-1.71038
-1.71204
-1.71366
-1.71525
-1.71682
-1.71835
-1.71986
-1.72133
-1.72278
-1.7242
-1.7256
-1.72697
-1.72831
-1.72963
-1.73092
-1.35891
-1.35912
-1.35979
-1.36081
-1.36214
-1.36378
-1.36572
-1.36793
-1.3704
-1.3731
-1.37603
-1.37916
-1.38249
-1.386
-1.38967
-1.39349
-1.39744
-1.40153
-1.40572
-1.41002
-1.41441
-1.41889
-1.42343
-1.42804
-1.43271
-1.43742
-1.44217
-1.44695
-1.45175
-1.45658
-1.46141
-1.46625
-1.4711
-1.47594
-1.48077
-1.48558
-1.49038
-1.49516
-1.49992
-1.50465
-1.50934
-1.51401
-1.51863
-1.52322
-1.52777
-1.53227
-1.53673
-1.54115
-1.54551
-1.54983
-1.5541
-1.55832
-1.56248
-1.56659
-1.57065
-1.57466
-1.57861
-1.5825
-1.58635
-1.59013
-1.59386
-1.59754
-1.60116
-1.60472
-1.60823
-1.61169
-1.61509
-1.61844
-1.62173
-1.62497
-1.62815
-1.63129
-1.63437
-1.6374
-1.64037
-1.6433
-1.64617
-1.649
-1.65178
-1.65451
-1.65719
-1.65982
-1.66241
-1.66495
-1.66744
-1.66989
-1.6723
-1.67466
-1.67698
-1.67926
-1.6815
-1.68369
-1.68585
-1.68796
-1.69004
-1.69208
-1.69408
-1.69604
-1.69797
-1.69986
-1.70171
-1.70354
-1.70532
-1.70708
-1.7088
-1.71049
-1.71215
-1.71377
-1.71537
-1.71694
-1.71847
-1.71998
-1.72146
-1.72291
-1.72434
-1.72573
-1.72711
-1.72845
-1.72977
-1.73107
-1.35856
-1.35877
-1.35943
-1.36044
-1.36177
-1.36341
-1.36535
-1.36756
-1.37002
-1.37272
-1.37565
-1.37878
-1.38211
-1.38562
-1.38929
-1.39311
-1.39707
-1.40115
-1.40535
-1.40965
-1.41405
-1.41852
-1.42307
-1.42768
-1.43235
-1.43707
-1.44182
-1.44661
-1.45142
-1.45625
-1.46109
-1.46594
-1.47079
-1.47563
-1.48047
-1.48529
-1.4901
-1.49489
-1.49965
-1.50438
-1.50909
-1.51376
-1.51839
-1.52299
-1.52754
-1.53205
-1.53652
-1.54094
-1.54532
-1.54964
-1.55392
-1.55814
-1.56232
-1.56644
-1.5705
-1.57452
-1.57847
-1.58238
-1.58623
-1.59002
-1.59376
-1.59744
-1.60107
-1.60464
-1.60816
-1.61162
-1.61503
-1.61839
-1.62169
-1.62493
-1.62813
-1.63127
-1.63435
-1.63739
-1.64037
-1.64331
-1.64619
-1.64902
-1.65181
-1.65454
-1.65723
-1.65987
-1.66246
-1.66501
-1.66751
-1.66997
-1.67238
-1.67475
-1.67707
-1.67936
-1.6816
-1.6838
-1.68596
-1.68808
-1.69016
-1.69221
-1.69421
-1.69618
-1.69811
-1.70001
-1.70187
-1.7037
-1.70549
-1.70725
-1.70898
-1.71067
-1.71233
-1.71396
-1.71557
-1.71714
-1.71868
-1.72019
-1.72167
-1.72313
-1.72456
-1.72596
-1.72733
-1.72868
-1.73001
-1.73131
-1.3581
-1.3583
-1.35896
-1.35996
-1.36129
-1.36292
-1.36485
-1.36706
-1.36952
-1.37222
-1.37515
-1.37828
-1.38161
-1.38511
-1.38879
-1.39261
-1.39657
-1.40066
-1.40486
-1.40916
-1.41356
-1.41804
-1.4226
-1.42721
-1.43189
-1.43661
-1.44137
-1.44616
-1.45098
-1.45582
-1.46066
-1.46552
-1.47038
-1.47523
-1.48008
-1.48491
-1.48973
-1.49452
-1.49929
-1.50404
-1.50875
-1.51343
-1.51807
-1.52268
-1.52724
-1.53176
-1.53624
-1.54067
-1.54506
-1.54939
-1.55368
-1.55792
-1.5621
-1.56623
-1.57031
-1.57433
-1.5783
-1.58221
-1.58607
-1.58988
-1.59363
-1.59732
-1.60096
-1.60454
-1.60807
-1.61154
-1.61496
-1.61832
-1.62163
-1.62489
-1.62809
-1.63124
-1.63433
-1.63738
-1.64037
-1.64331
-1.64621
-1.64905
-1.65184
-1.65458
-1.65728
-1.65993
-1.66253
-1.66508
-1.66759
-1.67006
-1.67248
-1.67485
-1.67719
-1.67948
-1.68173
-1.68394
-1.6861
-1.68823
-1.69032
-1.69237
-1.69439
-1.69636
-1.6983
-1.7002
-1.70207
-1.7039
-1.7057
-1.70747
-1.7092
-1.7109
-1.71257
-1.71421
-1.71581
-1.71739
-1.71893
-1.72045
-1.72194
-1.7234
-1.72484
-1.72624
-1.72762
-1.72898
-1.73031
-1.73161
-1.35753
-1.35772
-1.35837
-1.35937
-1.36069
-1.36232
-1.36424
-1.36644
-1.3689
-1.3716
-1.37453
-1.37766
-1.38099
-1.38449
-1.38816
-1.39199
-1.39595
-1.40004
-1.40425
-1.40856
-1.41296
-1.41745
-1.42201
-1.42663
-1.43131
-1.43604
-1.44081
-1.44561
-1.45044
-1.45528
-1.46014
-1.465
-1.46987
-1.47474
-1.47959
-1.48444
-1.48926
-1.49407
-1.49885
-1.50361
-1.50833
-1.51302
-1.51768
-1.5223
-1.52687
-1.53141
-1.5359
-1.54034
-1.54474
-1.54909
-1.55339
-1.55763
-1.56183
-1.56597
-1.57006
-1.5741
-1.57808
-1.58201
-1.58588
-1.5897
-1.59346
-1.59716
-1.60081
-1.60441
-1.60795
-1.61143
-1.61486
-1.61824
-1.62156
-1.62483
-1.62804
-1.6312
-1.63431
-1.63737
-1.64037
-1.64332
-1.64623
-1.64908
-1.65188
-1.65464
-1.65734
-1.66
-1.66261
-1.66518
-1.6677
-1.67017
-1.6726
-1.67499
-1.67733
-1.67963
-1.68189
-1.68411
-1.68629
-1.68842
-1.69052
-1.69258
-1.6946
-1.69659
-1.69853
-1.70045
-1.70232
-1.70416
-1.70597
-1.70774
-1.70948
-1.71119
-1.71287
-1.71451
-1.71612
-1.71771
-1.71926
-1.72078
-1.72228
-1.72375
-1.72519
-1.7266
-1.72799
-1.72935
-1.73068
-1.73199
-1.35685
-1.35703
-1.35767
-1.35866
-1.35997
-1.3616
-1.36352
-1.36571
-1.36817
-1.37087
-1.37379
-1.37692
-1.38025
-1.38375
-1.38743
-1.39125
-1.39522
-1.39931
-1.40352
-1.40784
-1.41225
-1.41674
-1.42131
-1.42594
-1.43063
-1.43536
-1.44014
-1.44495
-1.44979
-1.45464
-1.45951
-1.46439
-1.46927
-1.47415
-1.47902
-1.48387
-1.48871
-1.49353
-1.49833
-1.5031
-1.50784
-1.51254
-1.51721
-1.52184
-1.52643
-1.53098
-1.53549
-1.53995
-1.54436
-1.54872
-1.55304
-1.5573
-1.56151
-1.56567
-1.56977
-1.57383
-1.57782
-1.58176
-1.58565
-1.58948
-1.59326
-1.59698
-1.60064
-1.60425
-1.60781
-1.61131
-1.61475
-1.61814
-1.62148
-1.62476
-1.62799
-1.63116
-1.63428
-1.63735
-1.64037
-1.64334
-1.64625
-1.64912
-1.65193
-1.6547
-1.65742
-1.66009
-1.66272
-1.66529
-1.66782
-1.67031
-1.67275
-1.67515
-1.6775
-1.67982
-1.68209
-1.68431
-1.6865
-1.68865
-1.69076
-1.69283
-1.69486
-1.69685
-1.69881
-1.70073
-1.70262
-1.70447
-1.70628
-1.70807
-1.70982
-1.71153
-1.71322
-1.71487
-1.71649
-1.71808
-1.71964
-1.72118
-1.72268
-1.72416
-1.7256
-1.72703
-1.72842
-1.72979
-1.73113
-1.73244
-1.35607
-1.35624
-1.35686
-1.35785
-1.35915
-1.36077
-1.36268
-1.36487
-1.36732
-1.37001
-1.37293
-1.37606
-1.37939
-1.3829
-1.38657
-1.3904
-1.39437
-1.39847
-1.40269
-1.40701
-1.41142
-1.41592
-1.4205
-1.42514
-1.42984
-1.43458
-1.43937
-1.44419
-1.44904
-1.45391
-1.45879
-1.46368
-1.46857
-1.47346
-1.47835
-1.48322
-1.48807
-1.49291
-1.49772
-1.50251
-1.50726
-1.51198
-1.51667
-1.52132
-1.52593
-1.53049
-1.53502
-1.53949
-1.54392
-1.5483
-1.55263
-1.55691
-1.56114
-1.56532
-1.56944
-1.57351
-1.57752
-1.58148
-1.58539
-1.58924
-1.59303
-1.59677
-1.60045
-1.60408
-1.60765
-1.61116
-1.61462
-1.61803
-1.62138
-1.62468
-1.62792
-1.63111
-1.63425
-1.63734
-1.64037
-1.64335
-1.64628
-1.64916
-1.65199
-1.65478
-1.65751
-1.66019
-1.66283
-1.66542
-1.66797
-1.67047
-1.67292
-1.67534
-1.6777
-1.68003
-1.68231
-1.68455
-1.68675
-1.68891
-1.69103
-1.69311
-1.69516
-1.69716
-1.69913
-1.70106
-1.70296
-1.70482
-1.70665
-1.70844
-1.7102
-1.71193
-1.71362
-1.71529
-1.71692
-1.71852
-1.72009
-1.72163
-1.72315
-1.72463
-1.72609
-1.72752
-1.72892
-1.7303
-1.73165
-1.73297
-1.35518
-1.35534
-1.35595
-1.35693
-1.35822
-1.35982
-1.36173
-1.36392
-1.36636
-1.36905
-1.37197
-1.3751
-1.37842
-1.38193
-1.38561
-1.38944
-1.39341
-1.39752
-1.40174
-1.40606
-1.41049
-1.415
-1.41958
-1.42423
-1.42894
-1.4337
-1.4385
-1.44333
-1.44819
-1.45308
-1.45797
-1.46288
-1.46779
-1.47269
-1.47759
-1.48248
-1.48735
-1.4922
-1.49703
-1.50184
-1.50661
-1.51135
-1.51606
-1.52072
-1.52535
-1.52994
-1.53448
-1.53898
-1.54342
-1.54783
-1.55218
-1.55648
-1.56072
-1.56492
-1.56906
-1.57315
-1.57718
-1.58116
-1.58509
-1.58896
-1.59277
-1.59653
-1.60023
-1.60387
-1.60746
-1.611
-1.61448
-1.6179
-1.62127
-1.62459
-1.62785
-1.63106
-1.63421
-1.63732
-1.64037
-1.64337
-1.64632
-1.64921
-1.65206
-1.65486
-1.65761
-1.66031
-1.66297
-1.66557
-1.66813
-1.67065
-1.67312
-1.67555
-1.67793
-1.68027
-1.68257
-1.68482
-1.68704
-1.68921
-1.69134
-1.69344
-1.6955
-1.69751
-1.6995
-1.70144
-1.70335
-1.70522
-1.70706
-1.70887
-1.71064
-1.71238
-1.71408
-1.71576
-1.7174
-1.71901
-1.7206
-1.72215
-1.72367
-1.72517
-1.72663
-1.72807
-1.72949
-1.73087
-1.73223
-1.73356
-1.35419
-1.35433
-1.35494
-1.3559
-1.35718
-1.35878
-1.36067
-1.36285
-1.36529
-1.36798
-1.37089
-1.37402
-1.37734
-1.38085
-1.38453
-1.38837
-1.39234
-1.39645
-1.40068
-1.40501
-1.40945
-1.41396
-1.41856
-1.42322
-1.42794
-1.43271
-1.43753
-1.44237
-1.44725
-1.45215
-1.45706
-1.46198
-1.46691
-1.47183
-1.47675
-1.48166
-1.48655
-1.49142
-1.49627
-1.50109
-1.50589
-1.51065
-1.51537
-1.52006
-1.52471
-1.52932
-1.53388
-1.5384
-1.54287
-1.54729
-1.55167
-1.55599
-1.56026
-1.56448
-1.56864
-1.57275
-1.57681
-1.58081
-1.58475
-1.58864
-1.59248
-1.59626
-1.59998
-1.60365
-1.60726
-1.61081
-1.61432
-1.61776
-1.62115
-1.62449
-1.62777
-1.631
-1.63417
-1.6373
-1.64037
-1.64339
-1.64635
-1.64927
-1.65214
-1.65495
-1.65772
-1.66044
-1.66311
-1.66574
-1.66832
-1.67085
-1.67334
-1.67578
-1.67818
-1.68054
-1.68285
-1.68512
-1.68735
-1.68954
-1.69169
-1.6938
-1.69587
-1.69791
-1.6999
-1.70186
-1.70378
-1.70567
-1.70753
-1.70934
-1.71113
-1.71288
-1.7146
-1.71629
-1.71794
-1.71957
-1.72116
-1.72272
-1.72426
-1.72577
-1.72725
-1.7287
-1.73012
-1.73152
-1.73289
-1.73423
-1.35311
-1.35323
-1.35382
-1.35476
-1.35603
-1.35762
-1.35951
-1.36168
-1.36411
-1.36679
-1.3697
-1.37283
-1.37616
-1.37967
-1.38335
-1.38718
-1.39117
-1.39528
-1.39952
-1.40386
-1.4083
-1.41283
-1.41743
-1.42211
-1.42684
-1.43162
-1.43645
-1.44132
-1.44621
-1.45112
-1.45605
-1.461
-1.46594
-1.47088
-1.47582
-1.48075
-1.48566
-1.49055
-1.49542
-1.50027
-1.50509
-1.50987
-1.51462
-1.51933
-1.524
-1.52863
-1.53322
-1.53776
-1.54226
-1.54671
-1.5511
-1.55545
-1.55974
-1.56399
-1.56817
-1.57231
-1.57639
-1.58041
-1.58438
-1.5883
-1.59216
-1.59596
-1.59971
-1.6034
-1.60703
-1.61061
-1.61414
-1.6176
-1.62102
-1.62438
-1.62768
-1.63093
-1.63413
-1.63727
-1.64037
-1.64341
-1.6464
-1.64933
-1.65222
-1.65506
-1.65785
-1.66059
-1.66328
-1.66592
-1.66852
-1.67107
-1.67358
-1.67604
-1.67846
-1.68083
-1.68316
-1.68545
-1.6877
-1.68991
-1.69207
-1.6942
-1.69629
-1.69834
-1.70035
-1.70232
-1.70426
-1.70617
-1.70803
-1.70987
-1.71167
-1.71343
-1.71517
-1.71687
-1.71854
-1.72017
-1.72178
-1.72336
-1.72491
-1.72643
-1.72792
-1.72938
-1.73082
-1.73223
-1.73361
-1.73496
-1.35192
-1.35202
-1.3526
-1.35353
-1.35478
-1.35636
-1.35824
-1.3604
-1.36283
-1.3655
-1.36841
-1.37154
-1.37486
-1.37837
-1.38205
-1.3859
-1.38988
-1.394
-1.39825
-1.4026
-1.40705
-1.41159
-1.4162
-1.42089
-1.42564
-1.43044
-1.43528
-1.44016
-1.44508
-1.45001
-1.45496
-1.45992
-1.46488
-1.46985
-1.47481
-1.47976
-1.48469
-1.48961
-1.4945
-1.49937
-1.50421
-1.50902
-1.5138
-1.51853
-1.52323
-1.52789
-1.5325
-1.53707
-1.54159
-1.54607
-1.55049
-1.55486
-1.55918
-1.56345
-1.56767
-1.57183
-1.57593
-1.57999
-1.58398
-1.58792
-1.59181
-1.59564
-1.59941
-1.60313
-1.60679
-1.61039
-1.61394
-1.61743
-1.62087
-1.62426
-1.62759
-1.63086
-1.63408
-1.63725
-1.64037
-1.64343
-1.64644
-1.6494
-1.65231
-1.65517
-1.65798
-1.66074
-1.66346
-1.66612
-1.66874
-1.67131
-1.67384
-1.67632
-1.67876
-1.68115
-1.6835
-1.68581
-1.68808
-1.69031
-1.69249
-1.69464
-1.69674
-1.69881
-1.70084
-1.70283
-1.70479
-1.70671
-1.70859
-1.71044
-1.71226
-1.71404
-1.71579
-1.7175
-1.71919
-1.72084
-1.72246
-1.72405
-1.72562
-1.72715
-1.72865
-1.73013
-1.73158
-1.733
-1.7344
-1.73576
-1.35064
-1.35072
-1.35128
-1.35219
-1.35344
-1.355
-1.35687
-1.35902
-1.36144
-1.36411
-1.36701
-1.37014
-1.37346
-1.37697
-1.38066
-1.3845
-1.3885
-1.39262
-1.39687
-1.40123
-1.40569
-1.41025
-1.41488
-1.41958
-1.42434
-1.42916
-1.43402
-1.43892
-1.44385
-1.4488
-1.45377
-1.45875
-1.46374
-1.46873
-1.47371
-1.47868
-1.48364
-1.48859
-1.49351
-1.4984
-1.50327
-1.50811
-1.51291
-1.51767
-1.5224
-1.52708
-1.53172
-1.53632
-1.54087
-1.54537
-1.54982
-1.55423
-1.55858
-1.56287
-1.56712
-1.57131
-1.57544
-1.57952
-1.58355
-1.58752
-1.59143
-1.59529
-1.59909
-1.60283
-1.60652
-1.61015
-1.61373
-1.61725
-1.62071
-1.62412
-1.62748
-1.63078
-1.63403
-1.63722
-1.64036
-1.64345
-1.64649
-1.64947
-1.65241
-1.65529
-1.65813
-1.66091
-1.66365
-1.66634
-1.66898
-1.67158
-1.67412
-1.67663
-1.67909
-1.6815
-1.68388
-1.6862
-1.68849
-1.69074
-1.69294
-1.69511
-1.69723
-1.69932
-1.70137
-1.70338
-1.70535
-1.70729
-1.70919
-1.71106
-1.71289
-1.71469
-1.71646
-1.71819
-1.71989
-1.72156
-1.7232
-1.72481
-1.72638
-1.72793
-1.72945
-1.73094
-1.73241
-1.73384
-1.73525
-1.73662
-1.34927
-1.34933
-1.34986
-1.35076
-1.35199
-1.35354
-1.35539
-1.35754
-1.35995
-1.36261
-1.36551
-1.36863
-1.37196
-1.37547
-1.37916
-1.38301
-1.38701
-1.39114
-1.3954
-1.39977
-1.40424
-1.40881
-1.41345
-1.41817
-1.42295
-1.42778
-1.43266
-1.43758
-1.44253
-1.4475
-1.4525
-1.4575
-1.46251
-1.46752
-1.47253
-1.47753
-1.48252
-1.48749
-1.49244
-1.49736
-1.50226
-1.50712
-1.51195
-1.51675
-1.5215
-1.52622
-1.53089
-1.53551
-1.54009
-1.54463
-1.54911
-1.55354
-1.55792
-1.56225
-1.56653
-1.57075
-1.57491
-1.57902
-1.58308
-1.58708
-1.59102
-1.59491
-1.59874
-1.60251
-1.60623
-1.60989
-1.6135
-1.61705
-1.62054
-1.62398
-1.62737
-1.6307
-1.63397
-1.63719
-1.64036
-1.64348
-1.64654
-1.64955
-1.65252
-1.65543
-1.65829
-1.6611
-1.66386
-1.66657
-1.66924
-1.67186
-1.67443
-1.67696
-1.67944
-1.68188
-1.68427
-1.68663
-1.68893
-1.6912
-1.69343
-1.69562
-1.69776
-1.69987
-1.70194
-1.70397
-1.70596
-1.70792
-1.70984
-1.71173
-1.71358
-1.7154
-1.71718
-1.71893
-1.72065
-1.72233
-1.72399
-1.72561
-1.72721
-1.72877
-1.73031
-1.73182
-1.73329
-1.73475
-1.73617
-1.73755
-1.3478
-1.34783
-1.34835
-1.34923
-1.35044
-1.35198
-1.35382
-1.35595
-1.35836
-1.36102
-1.36391
-1.36703
-1.37035
-1.37386
-1.37755
-1.38141
-1.38541
-1.38956
-1.39382
-1.3982
-1.40269
-1.40727
-1.41193
-1.41666
-1.42146
-1.42631
-1.43121
-1.43615
-1.44112
-1.44612
-1.45113
-1.45616
-1.4612
-1.46624
-1.47127
-1.4763
-1.48132
-1.48631
-1.49129
-1.49624
-1.50117
-1.50607
-1.51093
-1.51575
-1.52054
-1.52529
-1.52999
-1.53465
-1.53926
-1.54383
-1.54835
-1.55281
-1.55722
-1.56159
-1.56589
-1.57015
-1.57435
-1.57849
-1.58258
-1.58661
-1.59059
-1.59451
-1.59837
-1.60218
-1.60593
-1.60962
-1.61326
-1.61684
-1.62036
-1.62383
-1.62725
-1.63061
-1.63391
-1.63716
-1.64036
-1.64351
-1.6466
-1.64964
-1.65263
-1.65557
-1.65845
-1.66129
-1.66408
-1.66682
-1.66951
-1.67216
-1.67476
-1.67731
-1.67982
-1.68228
-1.6847
-1.68708
-1.68941
-1.6917
-1.69395
-1.69616
-1.69833
-1.70046
-1.70255
-1.7046
-1.70662
-1.70859
-1.71054
-1.71244
-1.71431
-1.71615
-1.71795
-1.71972
-1.72146
-1.72316
-1.72484
-1.72648
-1.72809
-1.72967
-1.73123
-1.73275
-1.73425
-1.73571
-1.73715
-1.73855
-1.34624
-1.34625
-1.34675
-1.34761
-1.3488
-1.35032
-1.35215
-1.35427
-1.35667
-1.35932
-1.36221
-1.36532
-1.36864
-1.37216
-1.37585
-1.37971
-1.38372
-1.38787
-1.39215
-1.39654
-1.40104
-1.40563
-1.41031
-1.41506
-1.41987
-1.42474
-1.42967
-1.43463
-1.43962
-1.44464
-1.44969
-1.45474
-1.45981
-1.46487
-1.46994
-1.47499
-1.48004
-1.48507
-1.49007
-1.49506
-1.50002
-1.50495
-1.50984
-1.5147
-1.51952
-1.5243
-1.52904
-1.53373
-1.53838
-1.54298
-1.54753
-1.55203
-1.55648
-1.56088
-1.56522
-1.56951
-1.57374
-1.57792
-1.58205
-1.58611
-1.59012
-1.59408
-1.59797
-1.60181
-1.6056
-1.60933
-1.613
-1.61661
-1.62017
-1.62367
-1.62712
-1.63051
-1.63385
-1.63713
-1.64036
-1.64354
-1.64666
-1.64973
-1.65275
-1.65572
-1.65863
-1.6615
-1.66432
-1.66709
-1.66981
-1.67248
-1.67511
-1.67769
-1.68022
-1.68271
-1.68515
-1.68756
-1.68991
-1.69223
-1.6945
-1.69674
-1.69893
-1.70108
-1.7032
-1.70527
-1.70731
-1.70931
-1.71127
-1.7132
-1.71509
-1.71695
-1.71877
-1.72056
-1.72232
-1.72405
-1.72574
-1.7274
-1.72903
-1.73063
-1.7322
-1.73374
-1.73526
-1.73674
-1.7382
-1.73961
-1.34459
-1.34458
-1.34505
-1.34589
-1.34706
-1.34857
-1.35038
-1.35249
-1.35488
-1.35752
-1.36041
-1.36352
-1.36684
-1.37035
-1.37405
-1.37791
-1.38193
-1.38609
-1.39038
-1.39478
-1.39929
-1.4039
-1.40859
-1.41336
-1.4182
-1.42309
-1.42803
-1.43302
-1.43804
-1.44308
-1.44815
-1.45324
-1.45833
-1.46342
-1.46852
-1.47361
-1.47868
-1.48374
-1.48879
-1.4938
-1.4988
-1.50376
-1.50869
-1.51358
-1.51844
-1.52326
-1.52803
-1.53276
-1.53745
-1.54208
-1.54667
-1.55121
-1.55569
-1.56013
-1.56451
-1.56883
-1.57311
-1.57732
-1.58148
-1.58558
-1.58963
-1.59362
-1.59756
-1.60143
-1.60525
-1.60902
-1.61272
-1.61637
-1.61996
-1.6235
-1.62698
-1.63041
-1.63378
-1.6371
-1.64036
-1.64357
-1.64672
-1.64983
-1.65288
-1.65588
-1.65882
-1.66172
-1.66457
-1.66737
-1.67012
-1.67282
-1.67548
-1.67808
-1.68065
-1.68316
-1.68564
-1.68806
-1.69045
-1.69279
-1.69509
-1.69735
-1.69957
-1.70175
-1.70389
-1.70598
-1.70805
-1.71007
-1.71206
-1.71401
-1.71592
-1.7178
-1.71965
-1.72146
-1.72324
-1.72498
-1.7267
-1.72838
-1.73003
-1.73165
-1.73324
-1.7348
-1.73633
-1.73784
-1.73931
-1.74073
-1.34286
-1.34281
-1.34326
-1.34408
-1.34523
-1.34672
-1.34852
-1.35062
-1.353
-1.35563
-1.35851
-1.36162
-1.36494
-1.36845
-1.37215
-1.37602
-1.38005
-1.38421
-1.38851
-1.39293
-1.39745
-1.40208
-1.40679
-1.41157
-1.41643
-1.42134
-1.42631
-1.43132
-1.43637
-1.44144
-1.44654
-1.45165
-1.45677
-1.4619
-1.46702
-1.47214
-1.47725
-1.48235
-1.48743
-1.49248
-1.49751
-1.50251
-1.50747
-1.51241
-1.5173
-1.52216
-1.52697
-1.53174
-1.53646
-1.54114
-1.54576
-1.55034
-1.55486
-1.55934
-1.56376
-1.56812
-1.57243
-1.57669
-1.58089
-1.58503
-1.58911
-1.59314
-1.59711
-1.60103
-1.60489
-1.60869
-1.61243
-1.61612
-1.61975
-1.62332
-1.62684
-1.6303
-1.63371
-1.63706
-1.64036
-1.6436
-1.64679
-1.64993
-1.65301
-1.65604
-1.65903
-1.66196
-1.66484
-1.66767
-1.67045
-1.67318
-1.67587
-1.6785
-1.6811
-1.68364
-1.68614
-1.6886
-1.69102
-1.69339
-1.69571
-1.698
-1.70024
-1.70245
-1.70461
-1.70674
-1.70882
-1.71087
-1.71288
-1.71486
-1.7168
-1.7187
-1.72057
-1.7224
-1.7242
-1.72597
-1.72771
-1.72941
-1.73108
-1.73272
-1.73433
-1.73591
-1.73747
-1.73899
-1.74048
-1.74192
-1.34103
-1.34096
-1.34139
-1.34218
-1.34331
-1.34478
-1.34657
-1.34865
-1.35102
-1.35364
-1.35652
-1.35962
-1.36294
-1.36646
-1.37016
-1.37403
-1.37806
-1.38224
-1.38655
-1.39098
-1.39552
-1.40016
-1.40489
-1.4097
-1.41457
-1.41951
-1.4245
-1.42954
-1.43461
-1.43971
-1.44484
-1.44998
-1.45513
-1.46029
-1.46545
-1.47061
-1.47575
-1.48088
-1.48599
-1.49109
-1.49615
-1.50119
-1.5062
-1.51117
-1.5161
-1.521
-1.52585
-1.53066
-1.53542
-1.54014
-1.54481
-1.54942
-1.55399
-1.5585
-1.56296
-1.56737
-1.57172
-1.57602
-1.58026
-1.58444
-1.58857
-1.59264
-1.59665
-1.6006
-1.6045
-1.60834
-1.61213
-1.61585
-1.61952
-1.62313
-1.62669
-1.63019
-1.63363
-1.63702
-1.64036
-1.64364
-1.64686
-1.65003
-1.65315
-1.65622
-1.65924
-1.6622
-1.66512
-1.66798
-1.67079
-1.67356
-1.67628
-1.67895
-1.68157
-1.68415
-1.68668
-1.68917
-1.69161
-1.69401
-1.69637
-1.69868
-1.70095
-1.70319
-1.70538
-1.70753
-1.70964
-1.71172
-1.71376
-1.71576
-1.71772
-1.71965
-1.72154
-1.7234
-1.72522
-1.72701
-1.72877
-1.7305
-1.73219
-1.73385
-1.73548
-1.73709
-1.73866
-1.7402
-1.74171
-1.74317
-1.33913
-1.33902
-1.33942
-1.34019
-1.3413
-1.34275
-1.34452
-1.34659
-1.34895
-1.35156
-1.35443
-1.35753
-1.36085
-1.36437
-1.36807
-1.37195
-1.37599
-1.38018
-1.3845
-1.38894
-1.3935
-1.39815
-1.4029
-1.40773
-1.41263
-1.41759
-1.4226
-1.42767
-1.43277
-1.4379
-1.44305
-1.44823
-1.45342
-1.45861
-1.4638
-1.46899
-1.47418
-1.47934
-1.4845
-1.48963
-1.49473
-1.49981
-1.50485
-1.50987
-1.51484
-1.51978
-1.52467
-1.52953
-1.53433
-1.53909
-1.5438
-1.54846
-1.55307
-1.55763
-1.56213
-1.56658
-1.57098
-1.57532
-1.5796
-1.58383
-1.588
-1.59211
-1.59616
-1.60016
-1.6041
-1.60798
-1.6118
-1.61557
-1.61928
-1.62293
-1.62653
-1.63007
-1.63355
-1.63698
-1.64035
-1.64367
-1.64694
-1.65015
-1.6533
-1.65641
-1.65946
-1.66246
-1.66541
-1.66831
-1.67116
-1.67396
-1.67671
-1.67941
-1.68207
-1.68468
-1.68724
-1.68976
-1.69224
-1.69467
-1.69705
-1.6994
-1.7017
-1.70396
-1.70618
-1.70836
-1.7105
-1.71261
-1.71467
-1.7167
-1.71869
-1.72064
-1.72256
-1.72444
-1.72629
-1.72811
-1.72989
-1.73164
-1.73335
-1.73504
-1.73669
-1.73832
-1.73991
-1.74148
-1.74301
-1.74449
-1.33714
-1.337
-1.33737
-1.33811
-1.3392
-1.34063
-1.34239
-1.34444
-1.34678
-1.34939
-1.35225
-1.35535
-1.35866
-1.36218
-1.36589
-1.36978
-1.37382
-1.37802
-1.38235
-1.38681
-1.39138
-1.39605
-1.40082
-1.40567
-1.41059
-1.41558
-1.42062
-1.42571
-1.43084
-1.436
-1.44119
-1.4464
-1.45162
-1.45685
-1.46208
-1.46731
-1.47253
-1.47774
-1.48293
-1.4881
-1.49324
-1.49836
-1.50345
-1.50851
-1.51353
-1.51851
-1.52345
-1.52834
-1.53319
-1.538
-1.54275
-1.54746
-1.55211
-1.55672
-1.56126
-1.56576
-1.5702
-1.57458
-1.57891
-1.58318
-1.5874
-1.59155
-1.59565
-1.59969
-1.60368
-1.6076
-1.61147
-1.61528
-1.61903
-1.62273
-1.62636
-1.62995
-1.63347
-1.63694
-1.64035
-1.64371
-1.64701
-1.65026
-1.65346
-1.6566
-1.65969
-1.66273
-1.66572
-1.66865
-1.67154
-1.67437
-1.67716
-1.6799
-1.68259
-1.68523
-1.68783
-1.69038
-1.69289
-1.69535
-1.69777
-1.70015
-1.70248
-1.70477
-1.70702
-1.70923
-1.7114
-1.71353
-1.71563
-1.71768
-1.7197
-1.72168
-1.72363
-1.72554
-1.72741
-1.72925
-1.73106
-1.73283
-1.73457
-1.73628
-1.73796
-1.73961
-1.74123
-1.74282
-1.74437
-1.74586
-1.33506
-1.3349
-1.33524
-1.33595
-1.33702
-1.33843
-1.34016
-1.3422
-1.34453
-1.34713
-1.34998
-1.35307
-1.35639
-1.35991
-1.36362
-1.36751
-1.37156
-1.37577
-1.38011
-1.38459
-1.38917
-1.39387
-1.39865
-1.40353
-1.40847
-1.41348
-1.41855
-1.42367
-1.42883
-1.43403
-1.43925
-1.44449
-1.44975
-1.45501
-1.46028
-1.46555
-1.47081
-1.47606
-1.48129
-1.4865
-1.49169
-1.49686
-1.50199
-1.50709
-1.51215
-1.51718
-1.52216
-1.52711
-1.532
-1.53685
-1.54166
-1.54641
-1.55111
-1.55576
-1.56036
-1.5649
-1.56939
-1.57382
-1.57819
-1.58251
-1.58677
-1.59097
-1.59512
-1.5992
-1.60323
-1.6072
-1.61112
-1.61497
-1.61877
-1.62251
-1.62619
-1.62982
-1.63338
-1.63689
-1.64035
-1.64375
-1.6471
-1.65039
-1.65362
-1.6568
-1.65993
-1.66301
-1.66604
-1.66901
-1.67193
-1.67481
-1.67763
-1.68041
-1.68313
-1.68581
-1.68845
-1.69103
-1.69357
-1.69607
-1.69852
-1.70093
-1.7033
-1.70562
-1.7079
-1.71014
-1.71234
-1.71451
-1.71663
-1.71871
-1.72076
-1.72277
-1.72474
-1.72668
-1.72858
-1.73045
-1.73228
-1.73408
-1.73585
-1.73758
-1.73928
-1.74096
-1.7426
-1.74421
-1.74578
-1.7473
-1.33291
-1.33271
-1.33302
-1.33371
-1.33475
-1.33613
-1.33785
-1.33987
-1.34219
-1.34478
-1.34762
-1.35071
-1.35402
-1.35754
-1.36126
-1.36515
-1.36921
-1.37343
-1.37779
-1.38228
-1.38688
-1.39159
-1.3964
-1.4013
-1.40627
-1.41131
-1.4164
-1.42155
-1.42674
-1.43197
-1.43723
-1.44251
-1.4478
-1.4531
-1.45841
-1.46372
-1.46902
-1.47431
-1.47959
-1.48484
-1.49008
-1.49529
-1.50046
-1.50561
-1.51072
-1.5158
-1.52083
-1.52582
-1.53076
-1.53566
-1.54051
-1.54532
-1.55007
-1.55477
-1.55941
-1.564
-1.56854
-1.57302
-1.57744
-1.58181
-1.58612
-1.59037
-1.59456
-1.5987
-1.60277
-1.60679
-1.61075
-1.61465
-1.6185
-1.62228
-1.62601
-1.62968
-1.63329
-1.63685
-1.64035
-1.64379
-1.64718
-1.65051
-1.65379
-1.65702
-1.66019
-1.6633
-1.66637
-1.66938
-1.67235
-1.67526
-1.67812
-1.68094
-1.6837
-1.68642
-1.68909
-1.69171
-1.69429
-1.69682
-1.6993
-1.70175
-1.70415
-1.7065
-1.70882
-1.71109
-1.71332
-1.71552
-1.71767
-1.71979
-1.72186
-1.7239
-1.7259
-1.72787
-1.7298
-1.73169
-1.73356
-1.73538
-1.73718
-1.73894
-1.74066
-1.74236
-1.74403
-1.74567
-1.74726
-1.7488
-1.33067
-1.33044
-1.33072
-1.33138
-1.33239
-1.33375
-1.33545
-1.33746
-1.33976
-1.34234
-1.34518
-1.34826
-1.35157
-1.35509
-1.35881
-1.36271
-1.36678
-1.371
-1.37537
-1.37988
-1.3845
-1.38923
-1.39406
-1.39898
-1.40398
-1.40904
-1.41417
-1.41935
-1.42458
-1.42984
-1.43513
-1.44044
-1.44578
-1.45112
-1.45647
-1.46182
-1.46716
-1.4725
-1.47782
-1.48312
-1.4884
-1.49365
-1.49888
-1.50408
-1.50923
-1.51436
-1.51944
-1.52448
-1.52948
-1.53443
-1.53933
-1.54418
-1.54898
-1.55373
-1.55843
-1.56307
-1.56766
-1.57219
-1.57666
-1.58108
-1.58544
-1.58974
-1.59398
-1.59817
-1.60229
-1.60636
-1.61037
-1.61432
-1.61821
-1.62204
-1.62582
-1.62954
-1.6332
-1.6368
-1.64034
-1.64383
-1.64727
-1.65064
-1.65397
-1.65723
-1.66045
-1.66361
-1.66672
-1.66977
-1.67278
-1.67573
-1.67863
-1.68149
-1.68429
-1.68705
-1.68975
-1.69241
-1.69503
-1.6976
-1.70012
-1.7026
-1.70503
-1.70742
-1.70977
-1.71208
-1.71435
-1.71657
-1.71876
-1.7209
-1.72301
-1.72508
-1.72711
-1.72911
-1.73107
-1.73299
-1.73488
-1.73674
-1.73856
-1.74035
-1.7421
-1.74382
-1.74552
-1.74718
-1.7488
-1.75036
-1.32836
-1.32809
-1.32833
-1.32896
-1.32995
-1.33129
-1.33297
-1.33496
-1.33725
-1.33981
-1.34264
-1.34572
-1.34902
-1.35255
-1.35627
-1.36017
-1.36425
-1.36849
-1.37287
-1.37739
-1.38203
-1.38678
-1.39164
-1.39658
-1.4016
-1.4067
-1.41186
-1.41707
-1.42233
-1.42762
-1.43295
-1.4383
-1.44368
-1.44906
-1.45445
-1.45984
-1.46523
-1.47061
-1.47598
-1.48133
-1.48666
-1.49196
-1.49724
-1.50248
-1.50769
-1.51286
-1.518
-1.52309
-1.52814
-1.53314
-1.53809
-1.543
-1.54785
-1.55266
-1.5574
-1.5621
-1.56674
-1.57132
-1.57585
-1.58032
-1.58473
-1.58909
-1.59338
-1.59762
-1.60179
-1.60591
-1.60997
-1.61397
-1.61792
-1.6218
-1.62562
-1.62939
-1.6331
-1.63675
-1.64034
-1.64388
-1.64736
-1.65078
-1.65415
-1.65746
-1.66072
-1.66393
-1.66708
-1.67018
-1.67322
-1.67622
-1.67916
-1.68206
-1.6849
-1.6877
-1.69044
-1.69314
-1.6958
-1.6984
-1.70096
-1.70348
-1.70595
-1.70838
-1.71076
-1.7131
-1.71541
-1.71766
-1.71988
-1.72206
-1.7242
-1.72631
-1.72837
-1.7304
-1.73239
-1.73434
-1.73626
-1.73814
-1.73999
-1.74181
-1.74359
-1.74534
-1.74706
-1.74875
-1.7504
-1.75198
-1.32597
-1.32566
-1.32587
-1.32647
-1.32743
-1.32875
-1.3304
-1.33237
-1.33465
-1.3372
-1.34002
-1.34309
-1.3464
-1.34992
-1.35364
-1.35755
-1.36164
-1.36589
-1.37029
-1.37482
-1.37948
-1.38425
-1.38913
-1.3941
-1.39915
-1.40427
-1.40946
-1.4147
-1.42
-1.42533
-1.4307
-1.43609
-1.4415
-1.44693
-1.45236
-1.4578
-1.46323
-1.46866
-1.47408
-1.47947
-1.48485
-1.49021
-1.49553
-1.50083
-1.50609
-1.51132
-1.5165
-1.52165
-1.52675
-1.53181
-1.53682
-1.54178
-1.54668
-1.55154
-1.55635
-1.56109
-1.56579
-1.57043
-1.57501
-1.57953
-1.584
-1.58841
-1.59276
-1.59705
-1.60128
-1.60545
-1.60956
-1.61361
-1.61761
-1.62154
-1.62542
-1.62923
-1.63299
-1.63669
-1.64034
-1.64392
-1.64745
-1.65092
-1.65434
-1.6577
-1.661
-1.66425
-1.66745
-1.67059
-1.67369
-1.67672
-1.67971
-1.68265
-1.68554
-1.68837
-1.69116
-1.6939
-1.69659
-1.69924
-1.70184
-1.70439
-1.7069
-1.70937
-1.71179
-1.71417
-1.7165
-1.7188
-1.72105
-1.72327
-1.72544
-1.72758
-1.72967
-1.73173
-1.73375
-1.73574
-1.73769
-1.7396
-1.74148
-1.74333
-1.74514
-1.74692
-1.74867
-1.75039
-1.75206
-1.75366
-1.32351
-1.32315
-1.32333
-1.3239
-1.32483
-1.32612
-1.32775
-1.32971
-1.33196
-1.33451
-1.33732
-1.34038
-1.34368
-1.3472
-1.35093
-1.35485
-1.35894
-1.3632
-1.36761
-1.37216
-1.37684
-1.38164
-1.38654
-1.39153
-1.39661
-1.40176
-1.40698
-1.41226
-1.41759
-1.42296
-1.42837
-1.4338
-1.43926
-1.44473
-1.4502
-1.45569
-1.46117
-1.46664
-1.47211
-1.47756
-1.48299
-1.48839
-1.49377
-1.49912
-1.50444
-1.50972
-1.51496
-1.52016
-1.52532
-1.53043
-1.53549
-1.54051
-1.54547
-1.55039
-1.55525
-1.56005
-1.56481
-1.5695
-1.57414
-1.57872
-1.58324
-1.5877
-1.59211
-1.59646
-1.60074
-1.60497
-1.60913
-1.61324
-1.61729
-1.62128
-1.62521
-1.62907
-1.63289
-1.63664
-1.64033
-1.64397
-1.64755
-1.65107
-1.65453
-1.65794
-1.66129
-1.66459
-1.66784
-1.67103
-1.67416
-1.67725
-1.68028
-1.68326
-1.68619
-1.68907
-1.6919
-1.69469
-1.69742
-1.70011
-1.70275
-1.70534
-1.70789
-1.71039
-1.71285
-1.71527
-1.71764
-1.71997
-1.72226
-1.72451
-1.72672
-1.72889
-1.73102
-1.73312
-1.73517
-1.73719
-1.73917
-1.74112
-1.74303
-1.7449
-1.74675
-1.74855
-1.75033
-1.75208
-1.75378
-1.7554
-1.32097
-1.32057
-1.32071
-1.32125
-1.32215
-1.32341
-1.32502
-1.32696
-1.3292
-1.33173
-1.33453
-1.33759
-1.34088
-1.3444
-1.34813
-1.35206
-1.35616
-1.36043
-1.36486
-1.36943
-1.37412
-1.37894
-1.38386
-1.38888
-1.39399
-1.39917
-1.40443
-1.40974
-1.41511
-1.42052
-1.42596
-1.43144
-1.43693
-1.44245
-1.44797
-1.45351
-1.45904
-1.46456
-1.47007
-1.47557
-1.48106
-1.48652
-1.49195
-1.49735
-1.50272
-1.50806
-1.51336
-1.51862
-1.52383
-1.529
-1.53412
-1.5392
-1.54422
-1.54919
-1.55411
-1.55898