/*--------------------------------*- C++ -*---------------------------------*\ 
| ========                 |                                                 | 
| \      /  F ield         | OpenFOAM: The Open Source CFD Toolbox           | 
|  \    /   O peration     | Version:  v1812                                 | 
|   \  /    A nd           | Web:      www.OpenFOAM.com                      | 
|    \/     M anipulation  |                                                 | 
\*--------------------------------------------------------------------------*/ 
FoamFile
{
    version     2.0;
    format      ascii;
    class       volVectorField;
    location    "/home/james/dafoam/myRuns/bezier_coanda_opt/0.00000000001/";
    object      sens_CL_shapey;
}
// * * * * * * * * * * * * * * * * * * * * * * * * * * * * * * * * * * * * * //

dimensions      [0 0 0 0 0 0 0];
internalField   uniform (0 0 0);
boundaryField
{
    allWalls
    {
        type  wall;
        value nonuniform List<vector>
164
(
(-0.069165 0.040335 0.000682)
(-0.096750 0.038711 0.000743)
(-0.127141 0.050315 0.000763)
(-0.133730 0.068876 0.000787)
(-0.070813 0.040884 0.000816)
(-0.030738 0.034084 0.000849)
(-0.040476 0.054335 0.000886)
(-0.057558 0.121370 0.000925)
(-0.071706 0.190660 0.000968)
(-0.055752 0.192718 0.001013)
(-0.046353 0.205007 0.001790)
(-0.036322 0.209626 0.002715)
(-0.028123 0.215916 0.003069)
(-0.021188 0.225289 0.003447)
(-0.015370 0.240814 0.003840)
(-0.009887 0.262857 0.004235)
(-0.004300 0.295420 0.005328)
(0.002254 0.347564 0.006614)
(0.010824 0.422182 0.007332)
(0.021847 0.501246 0.007600)
(0.032407 0.539429 0.006891)
(0.039943 0.532066 0.003652)
(0.049814 0.564475 0.000642)
(0.056838 0.573439 0.000741)
(0.067767 0.611150 0.000273)
(0.078968 0.654052 -0.000656)
(0.086048 0.652630 -0.000775)
(0.098274 0.691464 -0.001054)
(0.110217 0.721888 -0.001821)
(0.122906 0.752108 -0.002305)
(0.135772 0.777944 -0.001956)
(0.148505 0.798102 -0.001501)
(0.160541 0.809786 -0.000826)
(0.171501 0.812432 -0.000671)
(0.178562 0.792785 -0.000792)
(0.184741 0.769316 -0.000568)
(0.181648 0.695482 -0.000462)
(0.168534 0.596454 -0.000469)
(0.118915 0.306576 -0.000475)
(0.156536 0.552662 -0.000612)
(0.134460 -0.164562 -0.000055)
(-0.448988 0.245662 -0.000411)
(-0.656854 0.335130 -0.000421)
(-0.330918 0.853469 -0.000453)
(0.088609 0.601934 -0.000444)
(0.500068 -0.920676 -0.000434)
(0.352382 -1.344688 -0.000187)
(0.108924 -0.627116 -0.000176)
(0.022421 -0.270232 -0.000418)
(0.017785 -0.186685 -0.000154)
(0.001370 -0.070846 0.000111)
(-0.018544 0.065522 0.000569)
(-0.029280 0.162503 0.001036)
(-0.032082 0.219199 0.001019)
(-0.031597 0.257195 0.000962)
(-0.029956 0.293975 0.000847)
(-0.024020 0.282480 0.000649)
(-0.027767 0.451379 0.000343)
(-0.019001 0.339124 -0.000100)
(-0.006185 0.314860 -0.001043)
(-0.006066 0.442288 -0.001870)
(0.003255 0.324737 -0.002084)
(0.008673 0.309647 -0.002173)
(0.012824 0.249522 -0.002181)
(0.015669 0.215418 -0.001129)
(0.023413 0.218349 -0.000076)
(0.024510 0.187538 -0.000039)
(0.036316 0.200056 0.000014)
(0.044127 0.204350 0.000075)
(0.047136 0.165418 0.000094)
(0.049229 0.158742 0.000121)
(0.067636 0.175361 0.000196)
(0.043420 0.110336 0.000267)
(-0.042804 -0.085508 0.000334)
(-0.027488 -0.115445 0.000396)
(-0.043650 -0.147205 0.000453)
(0.032347 -0.070024 0.000504)
(0.247633 0.176264 0.000550)
(0.149486 0.219812 0.000590)
(-0.043068 0.105455 0.000619)
(0.092349 0.727901 -0.000353)
(-0.055513 0.383509 -0.000137)
(-0.028473 0.435677 -0.000314)
(0.028879 1.191055 -0.000314)
(0.055295 1.854741 -0.000314)
(0.053483 1.402391 -0.000314)
(0.084159 0.676930 -0.000314)
(0.392933 6.564597 -0.000314)
(1.519630 26.969553 -0.000314)
(-40.004903 -6.205082 -0.000207)
(388.110999 -707.875899 -0.000207)
(-48.879973 -38.512480 -0.000100)
(-367.676206 546.483097 -0.000207)
(13.861603 327.579396 -0.000100)
(16.519447 136.905912 -0.000100)
(7.820952 51.934868 -0.000100)
(3.878959 17.877513 -0.000100)
(2.243838 6.562079 -0.000100)
(0.790486 1.291234 -0.000100)
(0.495003 0.542742 -0.000100)
(2.463835 4.272301 -0.000100)
(1.239913 2.697273 -0.000066)
(1.081237 2.574228 -0.000032)
(1.786740 3.353437 -0.000032)
(1.815569 2.967628 -0.000032)
(2.494922 3.622653 -0.000032)
(5.887004 6.238782 -0.000032)
(14.592737 13.014923 -0.000032)
(12.897203 13.446852 -0.000032)
(-24.802470 -15.423979 -0.000032)
(-19.295618 -16.705641 -0.000032)
(21.892297 11.561503 -0.000032)
(54.759995 25.983597 -0.000032)
(48.477347 13.168715 -0.000032)
(-55.463816 -23.298654 -0.000032)
(-94.838140 -13.811020 -0.000032)
(-49.530017 -15.338985 -0.000032)
(-6.232426 -21.873147 -0.000032)
(32.261791 -1.925363 -0.000032)
(22.764583 -0.317818 -0.000032)
(-0.666772 -1.779013 -0.000032)
(-0.845126 -1.863931 -0.000032)
(-0.091645 -2.060235 -0.000032)
(1.015876 -1.857128 -0.000032)
(3.251695 -1.704617 -0.000032)
(2.745989 -1.501721 -0.000032)
(3.509694 -1.440062 -0.000032)
(3.486474 -1.077425 -0.000032)
(2.255563 -0.497647 -0.000032)
(1.430994 -0.176374 -0.000032)
(1.234538 -0.177252 -0.000032)
(1.039367 -0.254807 -0.000032)
(0.713578 -0.246467 -0.000032)
(0.431261 -0.189354 -0.000032)
(0.234687 -0.130932 -0.000032)
(0.105226 -0.080450 -0.000032)
(0.024619 -0.038855 -0.000032)
(-0.021684 -0.006247 -0.000032)
(-0.045348 0.017525 -0.000032)
(-0.056010 0.034346 -0.000032)
(-0.059761 0.046459 -0.000032)
(-0.059229 0.054717 -0.000032)
(-0.055249 0.056973 -0.000066)
(-0.049287 0.055796 -0.000100)
(-0.042606 0.053476 -0.000100)
(-0.035390 0.047464 -0.000100)
(-0.027856 0.036686 -0.000100)
(-0.020174 0.021340 -0.000100)
(-0.013569 0.005961 -0.000100)
(-0.009549 -0.002715 -0.000100)
(-0.008951 -0.003456 -0.000100)
(-159.692096 -0.001667 -0.000207)
(159.707325 -0.011125 -0.000314)
(-0.101801 0.255318 -0.000207)
(-0.124663 0.385754 -0.000207)
(-0.006279 0.223349 -0.000314)
(-0.009906 0.245855 -0.000314)
(-0.009527 0.254388 -0.000314)
(-0.005074 0.206193 -0.000314)
(-0.002675 0.167122 -0.000314)
(0.003881 0.117688 -0.000314)
(0.012129 0.102001 -0.000314)
(0.036891 0.136426 0.000000)
(0.129986 -0.200097 0.000321)
)
;
    }
}
