/*--------------------------------*- C++ -*---------------------------------*\ 
| ========                 |                                                 | 
| \      /  F ield         | OpenFOAM: The Open Source CFD Toolbox           | 
|  \    /   O peration     | Version:  v1812                                 | 
|   \  /    A nd           | Web:      www.OpenFOAM.com                      | 
|    \/     M anipulation  |                                                 | 
\*--------------------------------------------------------------------------*/ 
FoamFile
{
    version     2.0;
    format      ascii;
    class       volVectorField;
    location    "/home/james/dafoam/myRuns/bezier_coanda_opt/0.00000000001/";
    object      sens_CL_shapey;
}
// * * * * * * * * * * * * * * * * * * * * * * * * * * * * * * * * * * * * * //

dimensions      [0 0 0 0 0 0 0];
internalField   uniform (0 0 0);
boundaryField
{
    allWalls
    {
        type  wall;
        value nonuniform List<vector>
164
(
(-0.001228 0.004717 0.000596)
(0.024909 0.005269 0.000675)
(-0.059987 0.047791 0.000697)
(-0.172136 0.122613 0.000723)
(-0.209739 0.185887 0.000754)
(-0.146450 0.169015 0.000789)
(-0.055078 0.103156 0.000828)
(-0.042205 0.115666 0.000870)
(-0.041821 0.141745 0.000914)
(-0.035461 0.158782 0.000962)
(-0.033180 0.179253 0.001745)
(-0.027392 0.190690 0.002678)
(-0.023039 0.208993 0.003038)
(-0.017803 0.220925 0.003421)
(-0.012857 0.237937 0.003817)
(-0.007926 0.260366 0.004215)
(-0.002776 0.294868 0.005219)
(0.003543 0.353207 0.006387)
(0.012130 0.438300 0.007058)
(0.023160 0.522586 0.007299)
(0.032823 0.552812 0.006605)
(0.038911 0.529848 0.003990)
(0.045229 0.532660 0.001401)
(0.055096 0.588425 0.000368)
(0.069721 0.682695 -0.000847)
(0.079444 0.717975 -0.001337)
(0.083828 0.695730 -0.001155)
(0.092962 0.717467 -0.001522)
(0.104468 0.755247 -0.001587)
(0.115842 0.787170 -0.001379)
(0.127438 0.815829 -0.001379)
(0.138752 0.838660 -0.001015)
(0.148973 0.850948 -0.000634)
(0.158788 0.857646 -0.000634)
(0.166741 0.850141 -0.000634)
(0.167512 0.809212 -0.000634)
(0.159494 0.716216 -0.000597)
(0.175943 0.749687 -0.000501)
(0.195997 0.748017 -0.000387)
(0.099469 0.327708 -0.000313)
(-0.205294 -0.009301 -0.000332)
(-0.614955 0.357643 -0.000024)
(-0.286068 0.481736 0.000012)
(0.149718 0.162675 0.000046)
(0.337572 -0.785604 -0.000292)
(0.169255 -0.767439 -0.000282)
(-0.005469 -0.178402 -0.000282)
(-0.028294 -0.024419 -0.000262)
(-0.015742 -0.009083 -0.000247)
(-0.022770 0.065753 -0.000197)
(-0.033113 0.155821 0.000302)
(-0.036816 0.213583 0.000380)
(-0.036496 0.248618 0.000284)
(-0.034814 0.274849 0.000322)
(-0.032185 0.295029 0.000484)
(-0.028854 0.311238 0.000476)
(-0.022782 0.288788 0.000428)
(-0.024529 0.420112 -0.000051)
(-0.019190 0.393660 -0.000271)
(-0.007772 0.291185 -0.000919)
(-0.004500 0.382862 -0.001948)
(0.001733 0.352848 -0.002112)
(0.006487 0.278154 -0.002162)
(0.010574 0.239349 -0.002141)
(0.013423 0.209726 -0.001001)
(0.018268 0.199003 0.000111)
(0.018972 0.167631 0.000112)
(0.030667 0.192113 0.000130)
(0.034855 0.183696 0.000158)
(0.042691 0.166821 0.000091)
(0.040973 0.150476 0.000044)
(0.036337 0.109387 0.000115)
(0.064424 0.153839 0.000182)
(0.007805 0.011346 0.000245)
(-0.018183 -0.091915 0.000304)
(-0.063038 -0.155761 0.000357)
(-0.012568 -0.115144 0.000407)
(0.209622 0.138926 0.000450)
(0.152323 0.199527 0.000488)
(-0.009819 0.079379 0.000515)
(0.015063 0.408702 -0.000305)
(0.005536 0.830267 -0.000318)
(-0.008021 0.757236 -0.000320)
(0.024781 1.263336 -0.000320)
(0.056030 1.998024 -0.000320)
(0.059614 1.693704 -0.000320)
(0.090666 1.044642 -0.000320)
(0.393479 7.271583 -0.000320)
(1.562932 28.416523 -0.000320)
(-45.720103 -3.036641 -0.000209)
(603.017983 -899.384325 -0.000320)
(-55.608571 -50.756543 -0.000209)
(-583.794253 677.611445 -0.000209)
(23.736412 481.917542 -0.000097)
(24.354160 184.614858 -0.000097)
(12.444692 70.970125 -0.000097)
(6.048449 26.754442 -0.000097)
(2.582920 6.784909 -0.000097)
(0.882532 1.085986 -0.000097)
(0.799926 0.647415 -0.000097)
(0.212323 -0.629252 -0.000097)
(2.409509 4.142672 -0.000064)
(2.373823 5.983390 -0.000030)
(0.139586 0.834566 -0.000030)
(1.856237 3.390795 -0.000030)
(1.609640 2.598904 -0.000030)
(8.105150 8.489777 -0.000030)
(21.247899 18.744081 -0.000030)
(13.170419 16.065679 -0.000030)
(-53.343196 -36.038135 -0.000030)
(-37.816573 -33.257014 -0.000030)
(32.131095 16.669556 -0.000030)
(47.348772 17.646570 -0.000030)
(6.525542 -10.562738 -0.000030)
(-54.666711 0.129084 -0.000030)
(-62.634661 17.592559 -0.000030)
(-43.285250 -24.146277 -0.000030)
(10.056452 -23.180505 -0.000030)
(44.044428 0.242635 -0.000030)
(24.436119 0.661510 -0.000030)
(0.817457 -0.302256 -0.000030)
(-0.129022 -1.168080 -0.000030)
(0.661006 -1.361447 -0.000030)
(1.280767 -1.246015 -0.000030)
(4.398544 -1.410700 -0.000030)
(4.163170 -1.400708 -0.000030)
(3.887370 -1.280162 -0.000030)
(3.387208 -0.894218 -0.000030)
(1.847791 -0.278533 -0.000030)
(0.907671 0.016277 -0.000030)
(0.850700 -0.092666 -0.000030)
(0.634706 -0.136055 -0.000030)
(0.367661 -0.106076 -0.000030)
(0.175559 -0.066878 -0.000030)
(0.058117 -0.038658 -0.000030)
(-0.004151 -0.018188 -0.000030)
(-0.033435 -0.003113 -0.000030)
(-0.046755 0.007709 -0.000030)
(-0.052982 0.015139 -0.000030)
(-0.055707 0.020604 -0.000030)
(-0.055939 0.025214 -0.000030)
(-0.054117 0.029695 -0.000030)
(-0.050818 0.031457 -0.000064)
(-0.046002 0.033332 -0.000097)
(-0.039950 0.037072 -0.000097)
(-0.033437 0.037830 -0.000097)
(-0.027107 0.034896 -0.000097)
(-0.021269 0.027634 -0.000097)
(-0.016181 0.017635 -0.000097)
(-0.012344 0.010033 -0.000097)
(-0.009637 0.005717 -0.000097)
(-159.697970 0.001653 -0.000209)
(159.681776 0.018584 -0.000209)
(0.062755 -0.334126 -0.000097)
(0.064123 -0.216124 -0.000209)
(-0.015098 0.155633 -0.000320)
(-0.015693 0.183193 -0.000320)
(-0.011530 0.272384 -0.000320)
(-0.004611 0.233227 -0.000320)
(-0.005535 0.225575 -0.000320)
(0.002107 0.198169 -0.000320)
(0.007712 0.179712 -0.000320)
(0.061464 0.223828 -0.000477)
(0.216640 -0.092869 -0.000634)
)
;
    }
}
