/*--------------------------------*- C++ -*---------------------------------*\ 
| ========                 |                                                 | 
| \      /  F ield         | OpenFOAM: The Open Source CFD Toolbox           | 
|  \    /   O peration     | Version:  v1812                                 | 
|   \  /    A nd           | Web:      www.OpenFOAM.com                      | 
|    \/     M anipulation  |                                                 | 
\*--------------------------------------------------------------------------*/ 
FoamFile
{
    version     2.0;
    format      ascii;
    class       volVectorField;
    location    "/home/james/dafoam/myRuns/bezier_coanda_opt/0.00000000001/";
    object      sens_CL_shapey;
}
// * * * * * * * * * * * * * * * * * * * * * * * * * * * * * * * * * * * * * //

dimensions      [0 0 0 0 0 0 0];
internalField   uniform (0 0 0);
boundaryField
{
    allWalls
    {
        type  wall;
        value nonuniform List<vector>
164
(
(-0.034657 0.023189 0.000293)
(-0.032272 0.021976 0.000335)
(-0.087313 0.047158 0.000456)
(-0.138384 0.087001 0.000393)
(-0.147702 0.124478 0.000245)
(-0.106650 0.115171 0.000726)
(-0.046244 0.072894 0.001413)
(-0.050708 0.123960 0.001771)
(-0.056965 0.169723 0.002108)
(-0.042994 0.171446 0.002463)
(-0.038183 0.188878 0.002905)
(-0.031097 0.199366 0.003457)
(-0.025180 0.212647 0.003943)
(-0.019079 0.222530 0.004583)
(-0.013864 0.239926 0.005186)
(-0.008644 0.261616 0.005864)
(-0.003290 0.295053 0.006239)
(0.003197 0.350866 0.006214)
(0.011709 0.430793 0.007061)
(0.022898 0.517497 0.006594)
(0.033247 0.553916 0.003794)
(0.039272 0.523477 0.001646)
(0.045642 0.523523 0.000691)
(0.055141 0.573115 -0.000002)
(0.071025 0.673180 -0.000474)
(0.080397 0.701543 -0.000767)
(0.083811 0.668799 -0.000685)
(0.094629 0.702797 -0.000497)
(0.106383 0.738746 -0.000497)
(0.118079 0.769139 -0.000497)
(0.130065 0.796626 -0.000497)
(0.141737 0.818191 -0.000505)
(0.152433 0.829930 -0.000513)
(0.162497 0.834573 -0.000513)
(0.170567 0.824645 -0.000513)
(0.174523 0.795876 -0.000513)
(0.167270 0.706472 -0.000476)
(0.168475 0.668447 -0.000438)
(0.161977 0.548498 -0.000438)
(0.126230 0.443953 -0.000438)
(-0.044557 -0.073994 -0.000438)
(-0.600677 0.368477 -0.000438)
(-0.560285 0.470818 -0.000438)
(0.185971 0.047487 -0.000476)
(0.468082 -0.697038 -0.000513)
(0.159093 -0.693145 -0.000513)
(0.037912 -0.395144 -0.000513)
(0.018152 -0.240688 -0.000513)
(0.001536 -0.117911 -0.000499)
(-0.011622 -0.014236 -0.000491)
(-0.025943 0.095217 -0.000497)
(-0.032006 0.165274 -0.000497)
(-0.034291 0.216743 -0.000497)
(-0.034510 0.257340 -0.000497)
(-0.032342 0.282662 0.000307)
(-0.029202 0.302946 0.001104)
(-0.023064 0.281952 0.001060)
(-0.025343 0.425946 0.000954)
(-0.019803 0.398015 0.000770)
(-0.007538 0.287915 -0.000349)
(-0.004252 0.391647 -0.001289)
(0.002361 0.362426 -0.001306)
(0.007231 0.283523 -0.001416)
(0.011482 0.242906 -0.001411)
(0.014668 0.215513 -0.001542)
(0.019395 0.201615 -0.001631)
(0.020687 0.173380 -0.001476)
(0.033243 0.199552 -0.001101)
(0.037938 0.189336 -0.000937)
(0.046256 0.172861 -0.000533)
(0.041823 0.147008 -0.000245)
(0.035739 0.105379 -0.000205)
(0.077678 0.176751 0.000098)
(-0.008250 -0.011103 -0.000023)
(-0.040510 -0.132892 0.000010)
(-0.048474 -0.143590 0.000197)
(0.008036 -0.096683 0.000225)
(0.223859 0.155402 0.000175)
(0.149634 0.208103 0.000197)
(-0.022180 0.092243 0.000290)
(0.048054 0.560295 -0.000438)
(-0.021573 0.627825 -0.000375)
(-0.016699 0.614185 -0.000312)
(0.026792 1.235456 -0.000312)
(0.055444 1.934290 -0.000312)
(0.056396 1.568291 -0.000312)
(0.087029 0.900970 -0.000312)
(0.392148 6.971265 -0.000312)
(1.535293 27.709758 -0.000312)
(-43.028246 -4.342197 -0.000205)
(503.213111 -809.133641 -0.000312)
(-52.400999 -44.709320 -0.000205)
(-483.309361 615.472730 -0.000205)
(19.114008 409.669897 -0.000097)
(20.706187 162.290768 -0.000097)
(10.295689 62.111838 -0.000097)
(5.020715 22.557951 -0.000097)
(2.242531 6.117497 -0.000097)
(0.611545 0.536734 -0.000097)
(1.596052 2.659568 -0.000097)
(2.040538 3.372182 -0.000097)
(0.145362 0.449879 -0.000065)
(1.696695 4.141349 -0.000033)
(1.483537 3.075320 -0.000033)
(1.644255 2.809893 -0.000033)
(2.243904 3.397400 -0.000033)
(6.922287 7.248613 -0.000033)
(18.213282 16.168117 -0.000033)
(13.589694 15.284117 -0.000033)
(-38.742298 -25.446733 -0.000033)
(-30.190667 -26.172024 -0.000033)
(27.371336 14.277401 -0.000033)
(53.161324 23.005041 -0.000033)
(26.992328 0.494942 -0.000033)
(-58.627341 -13.707919 -0.000033)
(-80.292799 1.644952 -0.000033)
(-43.643634 -18.265410 -0.000033)
(1.582675 -22.784690 -0.000033)
(37.379489 -1.991142 -0.000033)
(24.964950 0.145200 -0.000033)
(-0.388910 -0.641817 -0.000033)
(-1.097683 -1.358311 -0.000033)
(0.213343 -1.585348 -0.000033)
(1.468408 -1.480749 -0.000033)
(3.597474 -1.419694 -0.000033)
(3.877032 -1.488637 -0.000033)
(4.639327 -1.455233 -0.000033)
(2.867584 -0.682339 -0.000033)
(1.854613 -0.222967 -0.000033)
(1.549410 -0.151765 -0.000033)
(1.135803 -0.099185 -0.000033)
(0.811873 -0.108237 -0.000033)
(0.541570 -0.107062 -0.000033)
(0.319606 -0.074969 -0.000033)
(0.162207 -0.042876 -0.000033)
(0.064244 -0.019369 -0.000033)
(0.008235 -0.002043 -0.000033)
(-0.021274 0.011262 -0.000033)
(-0.035856 0.021286 -0.000033)
(-0.042903 0.028687 -0.000033)
(-0.045742 0.034125 -0.000033)
(-0.045796 0.038218 -0.000033)
(-0.043744 0.038599 -0.000065)
(-0.040272 0.038171 -0.000097)
(-0.035942 0.039232 -0.000097)
(-0.030900 0.038105 -0.000097)
(-0.025506 0.034076 -0.000097)
(-0.019974 0.026261 -0.000097)
(-0.014806 0.016050 -0.000097)
(-0.010907 0.007490 -0.000097)
(-0.008500 0.002951 -0.000097)
(-159.695187 0.000651 -0.000205)
(159.688964 0.000333 -0.000205)
(-0.032257 0.036676 -0.000097)
(-0.038106 0.116471 -0.000205)
(-0.011005 0.152281 -0.000312)
(-0.012515 0.229087 -0.000312)
(-0.010969 0.270843 -0.000312)
(-0.005473 0.229122 -0.000312)
(-0.005115 0.212520 -0.000312)
(0.001936 0.173226 -0.000312)
(0.009105 0.162318 -0.000312)
(0.048580 0.199253 -0.000375)
(0.185356 -0.142007 -0.000438)
)
;
    }
}
