/*--------------------------------*- C++ -*---------------------------------*\ 
| ========                 |                                                 | 
| \      /  F ield         | OpenFOAM: The Open Source CFD Toolbox           | 
|  \    /   O peration     | Version:  v1812                                 | 
|   \  /    A nd           | Web:      www.OpenFOAM.com                      | 
|    \/     M anipulation  |                                                 | 
\*--------------------------------------------------------------------------*/ 
FoamFile
{
    version     2.0;
    format      ascii;
    class       volVectorField;
    location    "/home/james/dafoam/myRuns/bezier_coanda_opt/0.00000000001/";
    object      sens_CL_shapey;
}
// * * * * * * * * * * * * * * * * * * * * * * * * * * * * * * * * * * * * * //

dimensions      [0 0 0 0 0 0 0];
internalField   uniform (0 0 0);
boundaryField
{
    allWalls
    {
        type  wall;
        value nonuniform List<vector>
164
(
(0.057711 -0.030849 0.000637)
(0.141491 -0.030698 0.000632)
(-0.002119 0.045900 0.000699)
(-0.273306 0.213972 0.000860)
(-0.304745 0.263101 0.000793)
(-0.190449 0.243091 0.000637)
(-0.082950 0.161617 0.000637)
(-0.031501 0.106662 0.000637)
(-0.030548 0.115819 0.001463)
(-0.020708 0.122681 0.002497)
(-0.026776 0.161355 0.003001)
(-0.023612 0.179039 0.003605)
(-0.021684 0.206818 0.004106)
(-0.017199 0.220232 0.004588)
(-0.012622 0.238327 0.005173)
(-0.007807 0.261195 0.006070)
(-0.002791 0.298552 0.006208)
(0.003582 0.362996 0.006272)
(0.012395 0.454807 0.007566)
(0.024423 0.555016 0.006524)
(0.031956 0.534796 0.003431)
(0.038353 0.518490 0.001576)
(0.049654 0.602511 0.000590)
(0.058943 0.642281 -0.000121)
(0.068868 0.686248 -0.000602)
(0.082675 0.759051 -0.000896)
(0.090892 0.770915 -0.000818)
(0.097054 0.762908 -0.000633)
(0.109030 0.802744 -0.000633)
(0.121545 0.841514 -0.000633)
(0.133873 0.873628 -0.000633)
(0.145796 0.899167 -0.000607)
(0.156611 0.913604 -0.000580)
(0.167395 0.924001 -0.000580)
(0.175761 0.916711 -0.000580)
(0.171465 0.850715 -0.000580)
(0.159827 0.738886 -0.000536)
(0.199970 0.883647 -0.000491)
(0.265211 1.093360 -0.000491)
(0.056292 0.081359 -0.000491)
(-0.263944 0.038424 -0.000491)
(-0.693729 0.579098 -0.000491)
(-0.086713 0.217262 -0.000491)
(0.363502 -0.511329 -0.000536)
(0.219282 -0.686484 -0.000580)
(0.015106 -0.310048 -0.000580)
(-0.043289 -0.009754 -0.000580)
(-0.029922 0.016381 -0.000580)
(-0.026374 0.058976 -0.000566)
(-0.034979 0.140993 -0.000592)
(-0.039017 0.201547 -0.000633)
(-0.039576 0.242244 -0.000633)
(-0.037971 0.269042 -0.000633)
(-0.035393 0.288712 -0.000633)
(-0.032484 0.307111 0.000083)
(-0.027848 0.306264 0.000777)
(-0.025580 0.341026 0.000706)
(-0.023666 0.392580 0.000576)
(-0.015818 0.345905 0.000378)
(-0.009323 0.331784 -0.000431)
(-0.004581 0.378214 -0.001288)
(0.001405 0.345604 -0.001515)
(0.006113 0.272275 -0.001583)
(0.009836 0.232183 -0.001557)
(0.012846 0.205005 -0.001468)
(0.017608 0.197402 -0.001627)
(0.018545 0.165881 -0.001728)
(0.028520 0.184354 -0.001194)
(0.031601 0.171428 -0.000981)
(0.042066 0.168569 -0.001109)
(0.037840 0.144157 -0.000679)
(0.034759 0.104478 -0.000517)
(0.064421 0.155706 -0.000035)
(0.010520 0.015656 0.000637)
(-0.006726 -0.073431 0.000637)
(-0.059818 -0.146491 0.000637)
(-0.026013 -0.123219 0.000468)
(0.192612 0.123247 0.000413)
(0.142386 0.178357 0.000583)
(-0.000627 0.048063 0.000637)
(-0.042935 0.099236 -0.000491)
(0.052759 1.182889 -0.000392)
(0.005888 0.993322 -0.000294)
(0.020126 1.282607 -0.000294)
(0.056292 2.079575 -0.000294)
(0.065198 1.917001 -0.000294)
(0.097952 1.347142 -0.000294)
(0.395481 7.746699 -0.000294)
(1.596885 29.366934 -0.000294)
(-50.169472 0.737486 -0.000205)
(778.803760 -1057.957587 -0.000205)
(-60.979522 -57.853433 -0.000116)
(-760.370173 786.331136 -0.000205)
(31.414982 605.725690 -0.000116)
(30.570197 223.958484 -0.000116)
(16.010438 86.258435 -0.000116)
(7.706903 33.575911 -0.000116)
(2.916940 7.243701 -0.000116)
(0.767873 0.478102 -0.000116)
(0.350886 -0.828971 -0.000116)
(0.005918 -1.514028 -0.000116)
(2.744328 4.603401 -0.000080)
(2.481471 6.638878 -0.000045)
(-0.398158 0.133159 -0.000045)
(1.631987 3.266781 -0.000045)
(1.251868 2.302573 -0.000045)
(9.656683 9.990881 -0.000045)
(26.375116 23.145467 -0.000045)
(13.268306 17.735639 -0.000045)
(-75.303401 -51.702726 -0.000045)
(-51.304211 -45.218891 -0.000045)
(39.987000 20.414792 -0.000045)
(41.640843 11.292613 -0.000045)
(-17.437520 -24.721177 -0.000045)
(-56.915274 14.098423 -0.000045)
(-50.279097 36.639506 -0.000045)
(-36.529781 -26.320708 -0.000045)
(24.156674 -22.350431 -0.000045)
(54.096714 1.992030 -0.000045)
(28.777496 1.304256 -0.000045)
(1.237943 0.100372 -0.000045)
(-0.065672 -0.876190 -0.000045)
(0.531559 -1.122530 -0.000045)
(0.922882 -1.103648 -0.000045)
(4.844707 -1.397016 -0.000045)
(4.732927 -1.442180 -0.000045)
(4.140513 -1.273402 -0.000045)
(3.417548 -0.829609 -0.000045)
(1.710290 -0.159848 -0.000045)
(0.767426 0.157000 -0.000045)
(0.766397 0.021481 -0.000045)
(0.565608 -0.040995 -0.000045)
(0.307562 -0.024940 -0.000045)
(0.134352 0.000209 -0.000045)
(0.038197 0.014783 -0.000045)
(-0.011078 0.025216 -0.000045)
(-0.035778 0.033002 -0.000045)
(-0.048884 0.037877 -0.000045)
(-0.055984 0.040486 -0.000045)
(-0.058710 0.041978 -0.000045)
(-0.058131 0.043710 -0.000045)
(-0.054845 0.046106 -0.000045)
(-0.049647 0.046217 -0.000080)
(-0.044021 0.046707 -0.000116)
(-0.038260 0.048818 -0.000116)
(-0.031835 0.047658 -0.000116)
(-0.025167 0.043780 -0.000116)
(-0.018802 0.036985 -0.000116)
(-0.013130 0.024789 -0.000116)
(-0.009743 0.012120 -0.000116)
(-0.008534 0.006609 -0.000116)
(-159.697678 0.003371 -0.000205)
(159.676892 0.025964 -0.000294)
(0.132613 -0.613133 -0.000205)
(0.137061 -0.420066 -0.000205)
(-0.015821 0.205134 -0.000294)
(-0.014129 0.142059 -0.000294)
(-0.010404 0.250733 -0.000294)
(-0.004290 0.218247 -0.000294)
(-0.006239 0.224241 -0.000294)
(0.002257 0.206799 -0.000294)
(0.005004 0.184518 -0.000294)
(0.062430 0.227891 -0.000392)
(0.223902 -0.058102 -0.000491)
)
;
    }
}
