/*--------------------------------*- C++ -*----------------------------------*\
  =========                 |
  \\      /  F ield         | OpenFOAM: The Open Source CFD Toolbox
   \\    /   O peration     | Website:  https://openfoam.org
    \\  /    A nd           | Version:  8
     \\/     M anipulation  |
\*---------------------------------------------------------------------------*/
FoamFile
{
    version     2.0;
    format      ascii;
    class       volScalarField;
    location    "2.7";
    object      p;
}
// * * * * * * * * * * * * * * * * * * * * * * * * * * * * * * * * * * * * * //

dimensions      [0 2 -2 0 0 0 0];

internalField   nonuniform List<scalar> 
248760
(
0.0932177
0.0931745
0.0929748
0.0926877
0.0923034
0.0918249
0.0912587
0.0906084
0.0898782
0.0890717
0.0881928
0.0872447
0.0862309
0.0851546
0.0840188
0.0828266
0.0815808
0.0802842
0.0789395
0.0775494
0.0761163
0.0746429
0.0731315
0.0715844
0.070004
0.0683926
0.0667522
0.0650851
0.0633933
0.0616788
0.0599436
0.0581896
0.0564187
0.0546326
0.0528332
0.0510221
0.049201
0.0473715
0.0455351
0.0436933
0.0418476
0.0399993
0.0381498
0.0363004
0.0344523
0.0326067
0.0307648
0.0289275
0.027096
0.0252712
0.0234541
0.0216457
0.0198467
0.018058
0.0162803
0.0145144
0.0127609
0.0110206
0.00929391
0.00758158
0.00588403
0.00420186
0.00253544
0.0008853
-0.000748251
-0.00236473
-0.00396389
-0.00554531
-0.00710881
-0.00865399
-0.0101807
-0.0116887
-0.0131778
-0.0146478
-0.0160985
-0.0175298
-0.0189416
-0.0203337
-0.0217061
-0.0230586
-0.0243914
-0.0257041
-0.026997
-0.0282698
-0.0295227
-0.0307555
-0.0319683
-0.0331611
-0.034334
-0.0354869
-0.0366199
-0.037733
-0.0388264
-0.0398998
-0.0409537
-0.0419878
-0.0430025
-0.0439975
-0.0449731
-0.0459293
-0.0468663
-0.0477839
-0.0486825
-0.0495619
-0.0504225
-0.0512639
-0.0520867
-0.0528906
-0.0536759
-0.0544424
-0.0551906
-0.05592
-0.0566311
-0.0573236
-0.057998
-0.0586536
-0.05929
-0.0599092
-0.0605294
-0.0611417
0.093231
0.093187
0.0929888
0.0927017
0.0923179
0.0918399
0.0912741
0.0906243
0.0898945
0.0890886
0.0882101
0.0872626
0.0862493
0.0851735
0.0840383
0.0828466
0.0816014
0.0803053
0.0789612
0.0775716
0.0761391
0.0746662
0.0731553
0.0716087
0.0700289
0.0684179
0.0667781
0.0651115
0.0634201
0.0617061
0.0599713
0.0582178
0.0564473
0.0546617
0.0528626
0.0510519
0.0492312
0.047402
0.0455659
0.0437244
0.041879
0.040031
0.0381817
0.0363326
0.0344847
0.0326393
0.0307975
0.0289604
0.027129
0.0253043
0.0234874
0.021679
0.0198801
0.0180914
0.0163138
0.0145479
0.0127945
0.0110541
0.00932748
0.00761508
0.00591755
0.00423529
0.00256885
0.000918598
-0.000714984
-0.00233159
-0.00393082
-0.00551239
-0.00707596
-0.00862131
-0.0101482
-0.0116563
-0.0131455
-0.0146156
-0.0160665
-0.017498
-0.01891
-0.0203023
-0.0216749
-0.0230277
-0.0243606
-0.0256736
-0.0269667
-0.0282398
-0.0294929
-0.0307259
-0.0319391
-0.0331322
-0.0343054
-0.0354586
-0.0365919
-0.0377054
-0.0387991
-0.039873
-0.0409273
-0.0419618
-0.0429769
-0.0439724
-0.0449486
-0.0459054
-0.046843
-0.0477613
-0.0486606
-0.0495407
-0.0504021
-0.0512445
-0.0520682
-0.0528731
-0.0536596
-0.0544273
-0.0551767
-0.0559076
-0.0566203
-0.0573145
-0.0579907
-0.0586484
-0.0592869
-0.0599088
-0.0605322
-0.0611458
0.0932536
0.09321
0.0930128
0.0927261
0.0923431
0.0918658
0.0913008
0.0906518
0.0899229
0.0891178
0.0882402
0.0872935
0.0862811
0.0852063
0.084072
0.0828812
0.0816369
0.0803417
0.0789985
0.0776099
0.0761783
0.0747063
0.0731963
0.0716507
0.0700717
0.0684616
0.0668226
0.0651568
0.0634663
0.0617531
0.0600191
0.0582663
0.0564965
0.0547115
0.0529131
0.051103
0.0492829
0.0474542
0.0456187
0.0437777
0.0419327
0.0400851
0.0382362
0.0363874
0.0345398
0.0326946
0.0308531
0.0290162
0.027185
0.0253605
0.0235436
0.0217353
0.0199364
0.0181478
0.0163701
0.0146043
0.0128507
0.0111103
0.00938353
0.00767109
0.0059733
0.00429095
0.00262422
0.000973845
-0.000660072
-0.00227684
-0.00387644
-0.0054582
-0.00702218
-0.00856776
-0.010095
-0.0116034
-0.0130931
-0.0145635
-0.0160149
-0.0174467
-0.0188591
-0.0202518
-0.0216249
-0.0229781
-0.0243116
-0.025625
-0.0269186
-0.0281921
-0.0294458
-0.0306794
-0.0318931
-0.0330867
-0.0342605
-0.0354142
-0.0365483
-0.0376623
-0.0387567
-0.0398312
-0.0408863
-0.0419215
-0.0429374
-0.0439336
-0.0449107
-0.0458682
-0.0468067
-0.0477258
-0.0486261
-0.0495072
-0.0503696
-0.051213
-0.0520379
-0.0528439
-0.0536316
-0.0544006
-0.0551514
-0.0558837
-0.0565979
-0.0572937
-0.0579717
-0.0586311
-0.0592715
-0.0598954
-0.0605211
-0.0611372
0.093287
0.0932443
0.0930481
0.0927624
0.0923804
0.0919043
0.0913403
0.0906926
0.0899648
0.0891609
0.0882846
0.0873392
0.0863282
0.0852546
0.0841217
0.0829323
0.0816893
0.0803955
0.0790537
0.0776664
0.0762362
0.0747656
0.0732569
0.0717126
0.070135
0.0685262
0.0668884
0.0652239
0.0635345
0.0618225
0.0600896
0.0583379
0.0565691
0.0547852
0.0529877
0.0511786
0.0493593
0.0475314
0.0456966
0.0438564
0.0420121
0.0401651
0.0383168
0.0364685
0.0346213
0.0327766
0.0309355
0.0290989
0.027268
0.0254437
0.0236271
0.0218189
0.0200202
0.0182316
0.016454
0.014688
0.0129345
0.0111939
0.00946708
0.00775441
0.00605652
0.00437387
0.00270697
0.00105624
-0.00057789
-0.00219508
-0.00379493
-0.00537717
-0.00694144
-0.00848753
-0.0100151
-0.0115241
-0.0130142
-0.0144852
-0.0159369
-0.0173694
-0.0187823
-0.0201756
-0.0215492
-0.0229031
-0.0242371
-0.0255512
-0.0268454
-0.0281197
-0.029374
-0.0306083
-0.0318227
-0.0330172
-0.0341916
-0.0353463
-0.036481
-0.0375961
-0.0386912
-0.0397668
-0.0408227
-0.0418591
-0.0428758
-0.0438733
-0.0448514
-0.0458102
-0.0467498
-0.0476705
-0.048572
-0.0494548
-0.0503186
-0.0511638
-0.0519902
-0.0527983
-0.0535877
-0.054359
-0.0551118
-0.0558466
-0.0565631
-0.0572617
-0.0579422
-0.0586046
-0.059248
-0.0598753
-0.0605042
-0.0611243
0.0933312
0.0932897
0.0930947
0.0928103
0.0924298
0.0919551
0.0913926
0.0907464
0.0900202
0.0892179
0.0883432
0.0873996
0.0863902
0.0853184
0.0841872
0.0829996
0.0817584
0.0804665
0.0791264
0.0777409
0.0763125
0.0748437
0.0733368
0.0717942
0.0702183
0.0686112
0.0669751
0.0653121
0.0636244
0.0619138
0.0601824
0.0584321
0.0566648
0.0548821
0.053086
0.051278
0.0494598
0.0476331
0.0457993
0.04396
0.0421165
0.0402703
0.0384228
0.0365752
0.0347287
0.0328845
0.0310438
0.0292077
0.0273771
0.0255532
0.0237367
0.0219288
0.0201301
0.0183416
0.016564
0.014798
0.0130444
0.0113038
0.00957666
0.00786381
0.00616561
0.00448269
0.00281541
0.00116433
-0.000470258
-0.00208787
-0.00368824
-0.00527097
-0.00683581
-0.00838247
-0.00991071
-0.0114203
-0.012911
-0.0143827
-0.0158352
-0.0172683
-0.018682
-0.0200761
-0.0214505
-0.0228052
-0.02414
-0.025455
-0.0267501
-0.0280253
-0.0292805
-0.0305158
-0.0317311
-0.0329266
-0.0341021
-0.0352578
-0.0363937
-0.0375098
-0.0386062
-0.0396829
-0.04074
-0.0417777
-0.0427958
-0.0437946
-0.0447741
-0.0457344
-0.0466755
-0.0475977
-0.0485009
-0.0493853
-0.0502509
-0.0510979
-0.0519262
-0.0527362
-0.0535277
-0.0543011
-0.0550561
-0.0557932
-0.056512
-0.0572131
-0.0578961
-0.0585613
-0.0592073
-0.0598376
-0.0604695
-0.0610929
0.0933859
0.0933458
0.0931524
0.0928696
0.0924908
0.0920178
0.0914572
0.0908128
0.0900886
0.0892883
0.0884157
0.087474
0.0864668
0.0853972
0.0842682
0.0830827
0.0818438
0.080554
0.0792162
0.0778329
0.0764067
0.0749401
0.0734354
0.071895
0.0703211
0.0687161
0.0670821
0.0654211
0.0637353
0.0620266
0.060297
0.0585485
0.0567828
0.0550018
0.0532072
0.0514007
0.0495839
0.0477585
0.0459259
0.0440878
0.0422454
0.0404002
0.0385536
0.0367068
0.0348611
0.0330176
0.0311775
0.0293419
0.0275118
0.0256882
0.0238721
0.0220643
0.0202658
0.0184773
0.0166998
0.0149337
0.01318
0.0114391
0.00971193
0.0079987
0.00630026
0.00461687
0.00294926
0.0012976
-0.000337403
-0.00195567
-0.00355654
-0.00514
-0.00670543
-0.00825287
-0.00978176
-0.0112922
-0.0127836
-0.0142562
-0.0157095
-0.0171436
-0.0185581
-0.0199532
-0.0213285
-0.0226842
-0.02402
-0.0253361
-0.0266321
-0.0279085
-0.0291647
-0.0304013
-0.0316177
-0.0328144
-0.0339911
-0.0351481
-0.0362852
-0.0374027
-0.0385003
-0.0395785
-0.040637
-0.0416761
-0.0426957
-0.0436962
-0.0446772
-0.0456392
-0.046582
-0.047506
-0.048411
-0.0492974
-0.0501649
-0.051014
-0.0518445
-0.0526568
-0.0534505
-0.0542263
-0.0549838
-0.0557235
-0.056445
-0.057149
-0.0578349
-0.0585031
-0.0591522
-0.0597857
-0.060421
-0.0610479
0.0934508
0.0934125
0.0932208
0.09294
0.0925631
0.0920922
0.0915338
0.0908916
0.0901697
0.0893718
0.0885015
0.0875624
0.0865577
0.0854906
0.0843641
0.0831813
0.081945
0.0806579
0.0793227
0.077942
0.0765185
0.0750544
0.0735523
0.0720144
0.0704431
0.0688405
0.0672089
0.0655503
0.0638667
0.0621603
0.0604329
0.0586865
0.0569228
0.0551437
0.0533509
0.0515462
0.0497311
0.0479072
0.0460761
0.0442393
0.0423983
0.0405543
0.0387087
0.0368629
0.0350181
0.0331754
0.031336
0.029501
0.0276714
0.0258483
0.0240325
0.022225
0.0204266
0.0186383
0.0168607
0.0150947
0.0133408
0.0115998
0.00987221
0.00815873
0.00645982
0.00477605
0.00310785
0.00145571
-0.000179997
-0.00179884
-0.00340052
-0.00498464
-0.00655096
-0.00809915
-0.00962901
-0.0111403
-0.0126327
-0.0141062
-0.0155606
-0.0169956
-0.0184113
-0.0198074
-0.0211839
-0.0225407
-0.0238778
-0.025195
-0.0264924
-0.0277699
-0.0290275
-0.0302652
-0.0314831
-0.0326811
-0.0338593
-0.0350176
-0.0361563
-0.0372751
-0.0383744
-0.0394541
-0.0405143
-0.0415549
-0.0425763
-0.0435783
-0.0445612
-0.0455249
-0.0464697
-0.0473955
-0.0483025
-0.0491907
-0.0500604
-0.0509115
-0.0517443
-0.0525586
-0.0533548
-0.0541327
-0.0548927
-0.0556347
-0.0563588
-0.0570651
-0.0577538
-0.0584244
-0.0590764
-0.0597124
-0.0603506
-0.06098
0.0935257
0.0934894
0.0932997
0.0930212
0.0926466
0.0921781
0.0916221
0.0909825
0.0902632
0.089468
0.0886006
0.0876643
0.0866624
0.0855983
0.0844748
0.083295
0.0820617
0.0807776
0.0794454
0.0780678
0.0766473
0.0751862
0.0736871
0.0721521
0.0705837
0.068984
0.0673551
0.0656992
0.0640184
0.0623145
0.0605896
0.0588456
0.0570842
0.0553074
0.0535167
0.051714
0.0499008
0.0480787
0.0462494
0.0444142
0.0425746
0.040732
0.0388877
0.037043
0.0351992
0.0333574
0.0315189
0.0296846
0.0278556
0.026033
0.0242176
0.0224104
0.0206123
0.018824
0.0170465
0.0152803
0.0135263
0.011785
0.0100572
0.00834327
0.00664395
0.0049596
0.00329085
0.00163802
1.63914e-06
-0.00161801
-0.00322047
-0.00480549
-0.00637271
-0.00792189
-0.00945274
-0.0109651
-0.0124586
-0.0139332
-0.0153888
-0.016825
-0.0182419
-0.0196393
-0.0210171
-0.0223752
-0.0237136
-0.0250321
-0.0263309
-0.0276098
-0.0288689
-0.0301081
-0.0313275
-0.032527
-0.0337068
-0.0348667
-0.0360069
-0.0371274
-0.0382284
-0.0393097
-0.0403716
-0.041414
-0.0424372
-0.0434411
-0.0444258
-0.0453914
-0.0463382
-0.0472659
-0.048175
-0.0490653
-0.0499371
-0.0507904
-0.0516253
-0.052442
-0.0532405
-0.0540208
-0.0547832
-0.0555277
-0.0562544
-0.0569632
-0.0576545
-0.0583278
-0.0589826
-0.0596212
-0.0602623
-0.0608946
0.0936104
0.0935764
0.0933889
0.093113
0.0927409
0.0922751
0.0917219
0.0910852
0.0903689
0.0895768
0.0887125
0.0877794
0.0867808
0.08572
0.0845999
0.0834234
0.0821935
0.0809129
0.0795842
0.07821
0.0767928
0.0753352
0.0738394
0.0723078
0.0707426
0.0691461
0.0675204
0.0658676
0.0641898
0.0624888
0.0607667
0.0590254
0.0572667
0.0554924
0.0537041
0.0519037
0.0500927
0.0482727
0.0464452
0.0446118
0.0427739
0.0409329
0.03909
0.0372466
0.035404
0.0335633
0.0317256
0.0298921
0.0280638
0.0262418
0.0244268
0.02262
0.0208221
0.019034
0.0172564
0.0154902
0.013736
0.0119945
0.0102662
0.00855198
0.00685204
0.00516721
0.00349769
0.00184421
0.000206924
-0.0014135
-0.00301698
-0.0046029
-0.00617125
-0.00772143
-0.00925351
-0.0107669
-0.0122618
-0.0137376
-0.0151945
-0.016632
-0.0180503
-0.019449
-0.0208284
-0.0221878
-0.0235278
-0.0248478
-0.0261483
-0.0274287
-0.0286894
-0.0299302
-0.0311513
-0.0323523
-0.0335338
-0.0346954
-0.0358374
-0.0369596
-0.0380624
-0.0391455
-0.0402093
-0.0412535
-0.0422786
-0.0432843
-0.044271
-0.0452385
-0.0461872
-0.047117
-0.0480281
-0.0489204
-0.0497942
-0.0506495
-0.0514866
-0.0523053
-0.0531058
-0.0538884
-0.0546529
-0.0553995
-0.0561282
-0.0568394
-0.0575327
-0.0582083
-0.058865
-0.0595061
-0.060149
-0.0607838
0.0937046
0.0936732
0.0934882
0.093215
0.0928459
0.0923831
0.091833
0.0911995
0.0904865
0.0896978
0.0888369
0.0879074
0.0869125
0.0858553
0.084739
0.0835663
0.0823402
0.0810633
0.0797384
0.0783681
0.0769547
0.0755009
0.0740088
0.0724809
0.0709194
0.0693265
0.0677043
0.066055
0.0643804
0.0626828
0.0609638
0.0592256
0.0574698
0.0556982
0.0539127
0.0521148
0.0503062
0.0484885
0.0466632
0.0448319
0.0429958
0.0411565
0.0393152
0.0374733
0.035632
0.0337924
0.0319558
0.0301232
0.0282957
0.0264743
0.0246599
0.0228534
0.0210557
0.0192677
0.0174902
0.0157239
0.0139695
0.0122277
0.0104991
0.00878427
0.00708383
0.00539825
0.00372806
0.00207368
0.000435578
-0.0011859
-0.00279033
-0.00437744
-0.00594685
-0.00749834
-0.00903159
-0.0105464
-0.0120425
-0.0135199
-0.0149781
-0.0164172
-0.0178369
-0.0192373
-0.0206181
-0.0219793
-0.0233208
-0.0246426
-0.0259446
-0.0272268
-0.0284892
-0.0297318
-0.0309545
-0.0321576
-0.0333407
-0.0345043
-0.035648
-0.0367722
-0.0378767
-0.0389618
-0.0400274
-0.0410737
-0.0421006
-0.0431084
-0.044097
-0.0450666
-0.0460173
-0.0469491
-0.0478622
-0.0487566
-0.0496325
-0.05049
-0.0513292
-0.05215
-0.0529528
-0.0537375
-0.0545043
-0.0552531
-0.0559843
-0.0566975
-0.0573933
-0.0580711
-0.0587304
-0.0593735
-0.060019
-0.0606558
0.0938081
0.0937795
0.0935973
0.0933272
0.0929612
0.0925017
0.091955
0.0913251
0.0906157
0.0898307
0.0889737
0.0880481
0.0870572
0.0860041
0.0848918
0.0837233
0.0825013
0.0812287
0.079908
0.0785418
0.0771327
0.075683
0.074195
0.0726712
0.0711137
0.0695248
0.0679065
0.0662609
0.0645901
0.062896
0.0611805
0.0594456
0.057693
0.0559246
0.054142
0.0523469
0.050541
0.0487259
0.046903
0.0450738
0.0432398
0.0414024
0.0395629
0.0377226
0.0358827
0.0340444
0.032209
0.0303774
0.0285507
0.02673
0.0249161
0.0231101
0.0213127
0.0195249
0.0177474
0.015981
0.0142264
0.0124843
0.0107552
0.00903986
0.00733873
0.00565246
0.00398141
0.00232616
0.000687028
-0.000935478
-0.00254109
-0.00412937
-0.00570009
-0.00725288
-0.00878754
-0.0103038
-0.0118014
-0.0132803
-0.0147401
-0.0161808
-0.0176022
-0.0190043
-0.0203868
-0.0217497
-0.023093
-0.0244166
-0.0257204
-0.0270045
-0.0282687
-0.0295132
-0.0307379
-0.0319428
-0.0331279
-0.0342933
-0.035439
-0.0365652
-0.0376717
-0.0387588
-0.0398263
-0.0408746
-0.0419035
-0.0429132
-0.0439038
-0.0448754
-0.045828
-0.0467618
-0.0476769
-0.0485733
-0.0494511
-0.0503105
-0.0511516
-0.0519743
-0.052779
-0.0535654
-0.054334
-0.0550845
-0.0558174
-0.0565322
-0.0572296
-0.0579087
-0.0585695
-0.0592137
-0.0598606
-0.060498
0.0939207
0.0938952
0.0937159
0.0934493
0.0930866
0.0926307
0.0920877
0.0914616
0.0907562
0.0899753
0.0891225
0.0882011
0.0872145
0.0861658
0.085058
0.083894
0.0826766
0.0814085
0.0800924
0.0787308
0.0773263
0.0758811
0.0743976
0.0728783
0.0713252
0.0697405
0.0681264
0.066485
0.0648182
0.063128
0.0614163
0.0596851
0.0579361
0.056171
0.0543917
0.0525997
0.0507967
0.0489843
0.047164
0.0453373
0.0435055
0.0416702
0.0398326
0.0379941
0.0361558
0.0343189
0.0324847
0.0306542
0.0288285
0.0270085
0.0251953
0.0233897
0.0215927
0.019805
0.0180275
0.016261
0.0145062
0.0127637
0.0110342
0.00931819
0.00761647
0.00592931
0.00425745
0.00260111
0.000960998
-0.000662769
-0.00226953
-0.00385922
-0.00543123
-0.00698557
-0.00852165
-0.0100396
-0.0115387
-0.0130193
-0.0144808
-0.0159233
-0.0173465
-0.0187504
-0.0201347
-0.0214996
-0.0228447
-0.0241703
-0.025476
-0.0267622
-0.0280283
-0.0292749
-0.0305015
-0.0317085
-0.0328956
-0.0340631
-0.0352108
-0.036339
-0.0374475
-0.0385367
-0.0396063
-0.0406566
-0.0416875
-0.0426994
-0.0436919
-0.0446656
-0.0456202
-0.0465561
-0.0474731
-0.0483716
-0.0492514
-0.0501129
-0.050956
-0.0517808
-0.0525875
-0.053376
-0.0541467
-0.0548994
-0.0556343
-0.0563513
-0.0570508
-0.0577323
-0.0583952
-0.0590417
-0.0596908
-0.0603307
0.0940422
0.09402
0.0938439
0.0935809
0.093222
0.0927699
0.0922309
0.091609
0.0909078
0.0901313
0.089283
0.0883662
0.0873843
0.0863404
0.0852374
0.0840782
0.0828658
0.0816026
0.0802915
0.0789348
0.0775351
0.0760949
0.0746163
0.0731017
0.0715534
0.0699734
0.0683638
0.0667269
0.0650644
0.0633785
0.061671
0.0599437
0.0581985
0.0564371
0.0546612
0.0528726
0.0510728
0.0492634
0.0474459
0.0456218
0.0437925
0.0419595
0.040124
0.0382874
0.0364508
0.0346155
0.0327826
0.0309533
0.0291286
0.0273095
0.0254969
0.0236918
0.0218951
0.0201076
0.0183302
0.0165636
0.0148085
0.0130656
0.0113356
0.00961905
0.0079165
0.00622854
0.00455564
0.00289831
0.00125694
-0.000368004
-0.00197619
-0.00356722
-0.00514082
-0.00669664
-0.00823445
-0.00975396
-0.011255
-0.0127373
-0.0142007
-0.015645
-0.0170702
-0.018476
-0.0198624
-0.0212292
-0.0225765
-0.0239041
-0.025212
-0.0265001
-0.0277685
-0.029017
-0.0302459
-0.0314549
-0.0326442
-0.0338138
-0.0349637
-0.036094
-0.0372047
-0.0382959
-0.0393676
-0.0404199
-0.041453
-0.0424668
-0.0434615
-0.0444371
-0.0453938
-0.0463315
-0.0472506
-0.0481507
-0.0490325
-0.0498956
-0.0507405
-0.0515668
-0.0523752
-0.0531651
-0.0539373
-0.0546911
-0.0554274
-0.0561452
-0.0568459
-0.0575279
-0.0581919
-0.0588385
-0.0594885
-0.0601281
0.0941724
0.0941536
0.0939811
0.0937219
0.0933669
0.0929189
0.0923843
0.0917668
0.0910702
0.0902984
0.0894549
0.0885431
0.0875662
0.0865273
0.0854295
0.0842756
0.0830684
0.0818105
0.0805047
0.0791534
0.077759
0.076324
0.0748506
0.0733412
0.0717979
0.0702229
0.0686184
0.0669862
0.0653284
0.0636471
0.0619439
0.0602209
0.0584798
0.0567224
0.0549503
0.0531653
0.0513689
0.0495627
0.0477483
0.0459271
0.0441005
0.0422699
0.0404366
0.038602
0.0367673
0.0349337
0.0331023
0.0312742
0.0294506
0.0276324
0.0258206
0.0240161
0.0222198
0.0204325
0.0186551
0.0168883
0.015133
0.0133897
0.0116592
0.00994189
0.00823858
0.00654965
0.00487575
0.00321721
0.00157463
-5.17057e-05
-0.00166131
-0.00325391
-0.00482908
-0.00638662
-0.00792616
-0.00944751
-0.0109504
-0.0124346
-0.0139
-0.0153464
-0.0167736
-0.0181815
-0.01957
-0.020939
-0.0222885
-0.0236183
-0.0249284
-0.0262187
-0.0274893
-0.0287402
-0.0299712
-0.0311825
-0.0323741
-0.0335459
-0.0346981
-0.0358305
-0.0369435
-0.0380368
-0.0391108
-0.0401653
-0.0412005
-0.0422164
-0.0432132
-0.0441908
-0.0451496
-0.0460893
-0.0470104
-0.0479125
-0.0487963
-0.0496612
-0.0505081
-0.0513362
-0.0521465
-0.0529381
-0.0537123
-0.0544677
-0.055206
-0.0559254
-0.0566282
-0.0573118
-0.0579778
-0.0586263
-0.0592783
-0.0599201
0.094311
0.094296
0.0941271
0.0938721
0.0935213
0.0930777
0.0925477
0.0919348
0.0912431
0.0904763
0.089638
0.0887314
0.0877599
0.0867265
0.0856342
0.0844858
0.0832842
0.082032
0.0807319
0.0793862
0.0779975
0.076568
0.0751003
0.0735964
0.0720586
0.0704889
0.0688896
0.0672626
0.0656098
0.0639333
0.0622349
0.0605165
0.0587798
0.0570266
0.0552586
0.0534774
0.0516847
0.049882
0.0480708
0.0462526
0.0444289
0.0426009
0.0407701
0.0389377
0.037105
0.0352732
0.0334434
0.0316167
0.0297942
0.027977
0.026166
0.0243621
0.0225661
0.0207791
0.0190018
0.017235
0.0154793
0.0137356
0.0120044
0.0102865
0.00858222
0.00689239
0.00521727
0.0035576
0.00191358
0.000285885
-0.00132536
-0.0029195
-0.0044965
-0.00605575
-0.00759726
-0.00912047
-0.0106255
-0.0121117
-0.0135793
-0.0150277
-0.0164572
-0.0178673
-0.0192582
-0.0206294
-0.0219812
-0.0233133
-0.0246258
-0.0259184
-0.0271915
-0.0284446
-0.0296781
-0.0308917
-0.0320857
-0.0332598
-0.0344144
-0.0355491
-0.0366644
-0.03776
-0.0388363
-0.0398929
-0.0409304
-0.0419483
-0.0429474
-0.043927
-0.0448879
-0.0458295
-0.0467527
-0.0476566
-0.0485424
-0.049409
-0.0502579
-0.0510875
-0.0518997
-0.0526926
-0.0534686
-0.0542251
-0.0549649
-0.0556854
-0.0563896
-0.057074
-0.0577413
-0.0583901
-0.0590432
-0.0596852
0.0944579
0.0944468
0.0942819
0.0940312
0.0936849
0.0932459
0.0927207
0.0921129
0.0914263
0.0906649
0.0898319
0.0889309
0.0879651
0.0869375
0.085851
0.0847086
0.0835129
0.0822667
0.0809726
0.0796329
0.0782502
0.0768268
0.0753649
0.0738669
0.0723348
0.0707709
0.0691772
0.0675556
0.0659082
0.0642369
0.0625436
0.06083
0.059098
0.0573493
0.0555856
0.0538086
0.0520198
0.0502208
0.0484131
0.0465981
0.0447774
0.0429523
0.0411241
0.0392941
0.0374635
0.0356336
0.0338055
0.0319803
0.0301591
0.0283429
0.0265327
0.0247294
0.022934
0.0211472
0.0193699
0.017603
0.0158471
0.0141029
0.0123711
0.0106523
0.00894722
0.00725627
0.00558003
0.00391897
0.00227359
0.00064427
-0.000968545
-0.00256452
-0.00414328
-0.00570454
-0.00724796
-0.00877334
-0.0102804
-0.0117689
-0.0132386
-0.0146895
-0.0161212
-0.0175338
-0.018927
-0.0203007
-0.0216549
-0.0229895
-0.0243045
-0.0255997
-0.0268752
-0.0281309
-0.0293668
-0.030583
-0.0317793
-0.032956
-0.0341129
-0.0352502
-0.0363678
-0.0374659
-0.0385443
-0.0396034
-0.040643
-0.0416634
-0.0426644
-0.0436465
-0.0446092
-0.0455532
-0.046478
-0.0473843
-0.0482716
-0.0491406
-0.0499906
-0.0508226
-0.0516358
-0.0524313
-0.0532079
-0.053967
-0.0547073
-0.0554304
-0.0561348
-0.0568218
-0.0574887
-0.0581407
-0.0587928
-0.0594386
0.0946129
0.0946059
0.0944451
0.0941991
0.0938574
0.0934234
0.0929032
0.0923007
0.0916196
0.0908637
0.0900365
0.0891414
0.0881816
0.08716
0.0860798
0.0849436
0.0837543
0.0825144
0.0812266
0.0798933
0.0785169
0.0770998
0.0756442
0.0741524
0.0726265
0.0710686
0.0694808
0.067865
0.0662233
0.0645575
0.0628695
0.0611611
0.0594341
0.0576902
0.0559311
0.0541584
0.0523737
0.0505787
0.0487747
0.0469632
0.0451458
0.0433236
0.0414982
0.0396707
0.0378424
0.0360145
0.0341882
0.0323646
0.0305448
0.0287297
0.0269204
0.0251179
0.0233229
0.0215364
0.0197592
0.0179921
0.0162359
0.0144912
0.0127588
0.0110393
0.00933311
0.00764108
0.00596354
0.00430113
0.00265418
0.00102326
-0.00059135
-0.00218915
-0.00376989
-0.00533317
-0.00687875
-0.0084063
-0.00991563
-0.0114065
-0.0128786
-0.0143319
-0.0157661
-0.0171812
-0.018577
-0.0199533
-0.0213101
-0.0226474
-0.0239649
-0.0252628
-0.0265409
-0.0277993
-0.0290378
-0.0302566
-0.0314556
-0.0326349
-0.0337944
-0.0349342
-0.0360543
-0.0371549
-0.0382358
-0.0392973
-0.0403393
-0.041362
-0.0423654
-0.0433496
-0.0443146
-0.0452607
-0.0461877
-0.0470961
-0.0479854
-0.0488563
-0.0497084
-0.0505422
-0.0513573
-0.0521544
-0.052933
-0.0536935
-0.0544359
-0.0551602
-0.0558666
-0.0565547
-0.0572239
-0.0578763
-0.0585307
-0.0591761
0.0947756
0.094773
0.0946166
0.0943754
0.0940386
0.0936097
0.093095
0.092498
0.0918226
0.0910726
0.0902515
0.0893626
0.088409
0.0873939
0.0863201
0.0851905
0.0840078
0.0827746
0.0814935
0.0801669
0.0787973
0.0773868
0.0759378
0.0744526
0.0729331
0.0713816
0.0698
0.0681904
0.0665546
0.0648947
0.0632123
0.0615094
0.0597876
0.0580488
0.0562946
0.0545265
0.0527463
0.0509554
0.0491553
0.0473476
0.0455335
0.0437146
0.041892
0.0400672
0.0382414
0.0364157
0.0345913
0.0327694
0.030951
0.0291371
0.0273288
0.025527
0.0237326
0.0219463
0.0201693
0.018402
0.0166455
0.0149003
0.0131672
0.0114468
0.0097397
0.00804639
0.00636761
0.00470362
0.00305515
0.0014224
-0.00019397
-0.00179383
-0.00337656
-0.00494209
-0.00648984
-0.00801982
-0.00953147
-0.0110249
-0.0124995
-0.0139554
-0.0153922
-0.0168101
-0.0182084
-0.0195876
-0.0209471
-0.0222872
-0.0236075
-0.0249082
-0.0261891
-0.0274503
-0.0286916
-0.0299132
-0.0311149
-0.0322969
-0.0334591
-0.0346016
-0.0357243
-0.0368276
-0.037911
-0.0389751
-0.0400195
-0.0410448
-0.0420505
-0.0430371
-0.0440043
-0.0449527
-0.0458819
-0.0467923
-0.0476837
-0.0485565
-0.0494105
-0.0502461
-0.0510631
-0.0518617
-0.052642
-0.0534039
-0.0541479
-0.0548734
-0.0555812
-0.0562703
-0.0569406
-0.0575938
-0.0582491
-0.0588952
0.0949461
0.094948
0.0947961
0.09456
0.0942284
0.0938049
0.0932957
0.0927045
0.0920352
0.0912914
0.0904766
0.0895941
0.0886472
0.0876388
0.0865718
0.0854491
0.0842734
0.0830472
0.0817732
0.0804536
0.0790909
0.0776875
0.0762455
0.0747671
0.0732544
0.0717096
0.0701346
0.0685314
0.066902
0.0652481
0.0635717
0.0618746
0.0601584
0.0584249
0.0566758
0.0549126
0.053137
0.0513505
0.0495546
0.0477508
0.0459404
0.0441248
0.0423054
0.0404834
0.0386601
0.0368367
0.0350144
0.0331943
0.0313774
0.0295648
0.0277575
0.0259565
0.0241626
0.0223768
0.0205997
0.0188324
0.0170756
0.0153299
0.013596
0.0118747
0.0101665
0.00847203
0.00679177
0.00512629
0.00347605
0.00184153
0.000223124
-0.00137874
-0.00296374
-0.00453148
-0.00608171
-0.00761407
-0.00912836
-0.0106243
-0.0121017
-0.0135603
-0.015
-0.0164205
-0.0178219
-0.0192038
-0.0205664
-0.0219093
-0.0232326
-0.0245362
-0.0258202
-0.0270842
-0.0283286
-0.029553
-0.0307577
-0.0319426
-0.0331077
-0.034253
-0.0353786
-0.0364845
-0.0375708
-0.0386374
-0.0396846
-0.0407123
-0.0417207
-0.0427097
-0.0436795
-0.0446301
-0.0455617
-0.0464743
-0.047368
-0.0482429
-0.0490991
-0.0499367
-0.0507557
-0.0515562
-0.0523383
-0.0531022
-0.0538477
-0.0545752
-0.0552843
-0.0559753
-0.0566468
-0.057302
-0.0579583
-0.0586068
0.0951239
0.0951306
0.0949835
0.0947526
0.0944264
0.0940085
0.0935052
0.0929201
0.092257
0.0915196
0.0907115
0.0898358
0.0888958
0.0878944
0.0868346
0.0857191
0.0845506
0.0833318
0.0820651
0.0807529
0.0793976
0.0780015
0.0765668
0.0750956
0.0735901
0.0720523
0.0704842
0.0688878
0.0672649
0.0656175
0.0639474
0.0622563
0.060546
0.0588181
0.0570744
0.0553164
0.0535457
0.0517638
0.0499723
0.0481725
0.046366
0.0445539
0.0427378
0.0409188
0.0390983
0.0372773
0.0354572
0.0336389
0.0318237
0.0300125
0.0282063
0.0264061
0.0246129
0.0228273
0.0210505
0.019283
0.0175258
0.0157795
0.014045
0.0123227
0.0106134
0.00891756
0.00723587
0.00556871
0.00391672
0.00228022
0.000659782
-0.000944317
-0.00253159
-0.00410179
-0.0056545
-0.00718951
-0.00870647
-0.0102052
-0.0116854
-0.0131469
-0.0145895
-0.0160131
-0.0174175
-0.0188025
-0.0201682
-0.0215142
-0.0228407
-0.0241474
-0.0254344
-0.0267017
-0.0279491
-0.0291767
-0.0303845
-0.0315724
-0.0327405
-0.0338888
-0.0350174
-0.0361262
-0.0372154
-0.0382849
-0.0393349
-0.0403653
-0.0413764
-0.042368
-0.0433404
-0.0442935
-0.0452276
-0.0461426
-0.0470386
-0.0479158
-0.0487741
-0.0496138
-0.0504348
-0.0512374
-0.0520214
-0.0527871
-0.0535343
-0.0542635
-0.0549742
-0.0556667
-0.0563395
-0.056996
-0.0576533
-0.0583028
0.0953091
0.0953207
0.0951785
0.0949531
0.0946325
0.0942205
0.0937233
0.0931445
0.0924879
0.0917573
0.090956
0.0900874
0.0891545
0.0881605
0.0871081
0.0860002
0.0848393
0.0836281
0.0823691
0.0810646
0.079717
0.0783286
0.0769015
0.0754378
0.0739398
0.0724093
0.0708484
0.0692591
0.0676432
0.0660025
0.064339
0.0626542
0.06095
0.0592281
0.05749
0.0557374
0.0539719
0.0521949
0.050408
0.0486125
0.04681
0.0450017
0.043189
0.0413732
0.0395555
0.0377372
0.0359193
0.0341031
0.0322896
0.0304798
0.0286748
0.0268755
0.0250828
0.0232978
0.021521
0.0197535
0.0179959
0.0162491
0.0145137
0.0127905
0.01108
0.00938283
0.00769949
0.00603071
0.00437673
0.0027383
0.00111558
-0.000490733
-0.00208054
-0.0036532
-0.00520866
-0.00674633
-0.00826623
-0.00976779
-0.0112511
-0.0127156
-0.0141614
-0.0155881
-0.0169957
-0.018384
-0.0197529
-0.0211022
-0.022432
-0.023742
-0.0250324
-0.0263029
-0.0275537
-0.0287845
-0.0299957
-0.0311867
-0.0323582
-0.0335096
-0.0346414
-0.0357533
-0.0368456
-0.0379181
-0.0389711
-0.0400044
-0.0410184
-0.0420128
-0.042988
-0.0439438
-0.0448805
-0.0457981
-0.0466966
-0.0475762
-0.048437
-0.049279
-0.0501022
-0.050907
-0.0516931
-0.052461
-0.0532101
-0.0539412
-0.0546537
-0.0553481
-0.0560227
-0.0566809
-0.0573397
-0.057991
0.0955013
0.0955179
0.0953809
0.0951612
0.0948464
0.0944405
0.0939496
0.0933774
0.0927276
0.0920039
0.0912098
0.0903485
0.0894232
0.0884368
0.0873921
0.086292
0.0851391
0.0839359
0.0826849
0.0813884
0.0800488
0.0786683
0.0772492
0.0757934
0.0743031
0.0727804
0.071227
0.0696451
0.0680364
0.0664028
0.0647461
0.063068
0.0613703
0.0596545
0.0579223
0.0561754
0.0544153
0.0526434
0.0508613
0.0490704
0.0472721
0.0454678
0.0436588
0.0418463
0.0400316
0.038216
0.0364006
0.0345864
0.0327748
0.0309665
0.0291627
0.0273644
0.0255725
0.0237877
0.0220112
0.0202435
0.0184857
0.0167383
0.0150021
0.0132778
0.0115661
0.00986742
0.00818253
0.00651186
0.00485599
0.00321534
0.00159041
-1.84184e-05
-0.00161071
-0.00318614
-0.00474431
-0.00628498
-0.00780779
-0.00931252
-0.0107989
-0.0122667
-0.0137157
-0.0151459
-0.0165568
-0.0179486
-0.0193209
-0.0206737
-0.022007
-0.0233206
-0.0246144
-0.0258885
-0.0271427
-0.0283772
-0.0295916
-0.0307863
-0.0319611
-0.033116
-0.0342511
-0.0353664
-0.0364619
-0.0375377
-0.0385938
-0.0396304
-0.0406473
-0.0416449
-0.0426229
-0.0435817
-0.0445212
-0.0454416
-0.0463428
-0.0472251
-0.0480884
-0.0489329
-0.0497586
-0.0505656
-0.0513542
-0.052124
-0.0528756
-0.0536085
-0.0543232
-0.0550192
-0.055696
-0.0563556
-0.0570164
-0.0576686
0.0957004
0.0957223
0.0955906
0.0953768
0.095068
0.0946684
0.0941841
0.0936186
0.0929759
0.0922594
0.0914728
0.0906191
0.0897015
0.088723
0.0876864
0.0865944
0.0854497
0.0842548
0.0830121
0.081724
0.0803927
0.0790206
0.0776097
0.0761621
0.0746799
0.0731651
0.0716197
0.0700455
0.0684443
0.0668181
0.0651686
0.0634974
0.0618063
0.060097
0.0583711
0.0566301
0.0548756
0.0531091
0.0513321
0.0495459
0.0477521
0.0459519
0.0441467
0.0423377
0.0405262
0.0387135
0.0369006
0.0350887
0.0332789
0.0314723
0.0296698
0.0278726
0.0260813
0.0242971
0.0225207
0.020753
0.0189947
0.0172468
0.0155097
0.0137844
0.0120713
0.0103712
0.00868457
0.00701206
0.00535407
0.00371122
0.00208385
0.000472509
-0.00112252
-0.00270073
-0.00426189
-0.00580558
-0.00733157
-0.00883953
-0.0103293
-0.0118005
-0.013253
-0.0146866
-0.0161012
-0.0174965
-0.0188726
-0.0202291
-0.0215661
-0.0228834
-0.024181
-0.0254588
-0.0267167
-0.0279548
-0.029173
-0.0303714
-0.0315498
-0.0327084
-0.033847
-0.0349659
-0.0360649
-0.0371442
-0.0382037
-0.0392436
-0.0402639
-0.0412647
-0.0422459
-0.0432079
-0.0441504
-0.0450738
-0.045978
-0.0468631
-0.0477292
-0.0485764
-0.0494049
-0.0502145
-0.0510055
-0.0517778
-0.0525317
-0.0532669
-0.053984
-0.0546821
-0.0553609
-0.0560224
-0.0566851
-0.0573391
0.0959062
0.0959335
0.0958073
0.0955996
0.095297
0.0949039
0.0944264
0.093868
0.0932325
0.0925235
0.0917446
0.0908988
0.0899892
0.0890189
0.0879906
0.0869071
0.0857709
0.0845846
0.0833505
0.082071
0.0807484
0.0793849
0.0779826
0.0765435
0.0750698
0.0735633
0.0720261
0.0704599
0.0688666
0.067248
0.065606
0.063942
0.062258
0.0605554
0.0588359
0.0571012
0.0553526
0.0535917
0.0518199
0.0500388
0.0482496
0.0464537
0.0446525
0.0428472
0.0410391
0.0392293