/*--------------------------------*- C++ -*----------------------------------*\
  =========                 |
  \\      /  F ield         | OpenFOAM: The Open Source CFD Toolbox
   \\    /   O peration     | Website:  https://openfoam.org
    \\  /    A nd           | Version:  9
     \\/     M anipulation  |
\*---------------------------------------------------------------------------*/
FoamFile
{
    format      ascii;
    class       volScalarField;
    location    "0";
    object      yPlus;
}
// * * * * * * * * * * * * * * * * * * * * * * * * * * * * * * * * * * * * * //

dimensions      [0 0 0 0 0 0 0];

internalField   uniform 0;

boundaryField
{
    down
    {
        type            calculated;
        value           uniform 0;
    }
    right
    {
        type            calculated;
        value           uniform 0;
    }
    up
    {
        type            calculated;
        value           uniform 0;
    }
    meanFlow
    {
        type            calculated;
        value           uniform 0;
    }
    surface
    {
        type            calculated;
        value           nonuniform List<scalar> 
345
(
86.912
86.912
86.912
86.912
86.912
86.912
86.912
86.912
86.912
86.912
86.912
86.912
86.912
86.912
86.912
86.912
86.912
86.912
86.912
86.912
86.912
86.912
86.912
86.912
86.912
86.912
86.912
86.912
86.912
86.912
86.912
86.912
86.912
86.912
86.912
86.912
86.912
86.912
86.912
86.912
86.7049
86.7108
86.7168
86.7226
86.7284
86.7341
86.7396
86.7451
86.7505
86.7557
86.7609
86.766
86.771
86.7759
86.7807
86.7854
86.79
86.7946
86.799
86.8034
86.8076
86.8118
86.8159
86.8198
86.8237
86.8275
86.8313
86.8349
86.8384
86.8419
86.8452
86.8485
86.8517
86.8548
86.8578
86.8607
86.8635
86.8663
86.8689
86.8715
86.874
86.8764
86.8787
86.8809
86.8831
86.8851
86.8871
86.889
86.8908
86.8925
86.8941
86.8957
86.8971
86.8985
86.8998
86.901
86.9021
86.9031
86.9041
86.9049
86.9057
86.9064
86.907
86.9075
86.908
86.9083
86.9086
86.9088
86.9089
86.9089
17.8285
17.8285
17.8285
17.8285
18.0143
9.46197
10.3115
11.1088
11.8579
12.5607
13.2182
13.831
14.3991
14.9228
15.4019
15.841
16.2332
16.5813
16.8855
17.1456
17.3619
17.5342
17.6626
17.7471
17.7879
17.7848
17.7379
17.6472
17.5127
17.3345
17.1124
16.8466
16.537
16.1836
15.7865
15.3429
14.8593
14.3314
13.7594
13.1432
12.4824
11.7767
11.025
10.2251
9.37303
87.06
87.06
87.06
87.06
87.06
87.06
87.06
87.06
87.06
87.06
87.06
87.06
87.06
87.06
87.06
87.06
87.06
87.06
87.06
87.06
87.06
87.06
87.06
87.06
87.06
87.06
87.06
87.06
87.06
87.06
87.06
87.06
87.06
87.06
87.06
87.06
87.06
87.06
87.06
87.06
87.06
87.06
87.06
87.06
87.06
87.06
87.06
87.06
87.06
87.06
87.06
87.06
87.06
87.06
87.06
87.06
87.06
87.06
87.06
87.06
87.06
87.06
87.06
87.06
87.06
87.06
87.06
87.06
87.06
87.06
87.06
87.06
87.06
87.06
87.06
87.06
87.06
87.06
87.06
87.06
87.06
87.06
87.06
87.06
87.06
87.06
87.06
87.06
87.06
87.06
87.06
87.06
87.06
87.06
87.06
87.06
87.06
87.06
87.06
87.06
87.06
87.06
87.06
87.06
87.06
87.06
87.06
87.06
87.06
87.06
88.1568
88.1579
88.159
88.1602
88.1614
88.1626
88.1639
88.1651
88.1665
88.1678
88.1692
88.1705
88.1719
88.1733
88.1748
88.1762
88.1777
88.1791
88.1806
88.182
88.1835
88.185
88.1864
88.1879
88.1893
88.1907
88.1921
88.1935
88.1949
88.1963
88.1976
88.199
88.2002
88.2015
88.2028
88.204
88.2051
88.2063
88.2074
88.2084
88.2119
88.2129
88.214
88.2152
88.2163
88.2175
88.2187
88.22
88.2213
88.2226
88.2239
88.2253
88.2266
88.228
88.2294
88.2308
88.2322
88.2337
88.2351
88.2365
88.2379
88.2394
88.2408
88.2422
88.2436
88.245
88.2464
88.2478
88.2491
88.2505
88.2518
88.2531
88.2543
88.2556
88.2568
88.258
88.2591
88.2602
88.2613
88.2623
)
;
    }
    surfaceInner
    {
        type            calculated;
        value           nonuniform List<scalar> 
90
(
25.0941
25.0941
25.0941
25.0941
25.0941
25.0941
25.0941
25.0941
25.0941
25.0941
25.0941
25.0941
25.0941
25.0941
25.0941
25.3066
25.3066
25.3066
25.3066
25.3066
25.3066
25.3066
25.3066
25.3066
25.3066
25.3066
25.3066
25.3066
25.3066
25.3066
11.077
10.2828
9.51239
8.76902
8.05283
7.3648
6.70565
6.07638
5.47917
4.91837
4.40172
3.94248
3.55978
3.27947
3.12954
24.9478
24.5876
23.928
23.0605
22.057
20.9695
19.8493
18.7203
17.6061
16.5231
15.4793
14.4899
13.5521
12.6685
11.8393
28.3604
32.3491
34.2684
34.6728
33.9873
32.5329
30.5567
28.2474
25.7442
23.1523
20.5393
17.9631
15.4472
13.0199
10.6735
9.10846
8.65484
8.17667
7.6808
7.17353
6.66071
6.14794
5.64095
5.14622
4.67159
4.22836
3.83078
3.49839
3.25512
3.12532
)
;
    }
    coandaInlet
    {
        type            calculated;
        value           uniform 0;
    }
    defaultFaces
    {
        type            empty;
    }
}


// ************************************************************************* //
