/*--------------------------------*- C++ -*----------------------------------*\
  =========                 |
  \\      /  F ield         | OpenFOAM: The Open Source CFD Toolbox
   \\    /   O peration     | Website:  https://openfoam.org
    \\  /    A nd           | Version:  8
     \\/     M anipulation  |
\*---------------------------------------------------------------------------*/
FoamFile
{
    version     2.0;
    format      ascii;
    class       volScalarField;
    location    "5.9";
    object      p;
}
// * * * * * * * * * * * * * * * * * * * * * * * * * * * * * * * * * * * * * //

dimensions      [0 2 -2 0 0 0 0];

internalField   nonuniform List<scalar> 
262620
(
-1.35735
-1.35756
-1.35824
-1.35926
-1.3606
-1.36224
-1.36418
-1.36639
-1.36886
-1.37156
-1.37449
-1.37762
-1.38095
-1.38445
-1.38812
-1.39193
-1.39589
-1.39996
-1.40416
-1.40845
-1.41283
-1.4173
-1.42184
-1.42644
-1.4311
-1.4358
-1.44054
-1.44532
-1.45011
-1.45493
-1.45975
-1.46459
-1.46942
-1.47425
-1.47907
-1.48388
-1.48867
-1.49344
-1.49818
-1.5029
-1.50758
-1.51223
-1.51685
-1.52143
-1.52596
-1.53046
-1.5349
-1.53931
-1.54366
-1.54797
-1.55223
-1.55643
-1.56058
-1.56469
-1.56873
-1.57273
-1.57667
-1.58055
-1.58438
-1.58816
-1.59188
-1.59554
-1.59915
-1.60271
-1.60621
-1.60965
-1.61304
-1.61638
-1.61966
-1.62289
-1.62606
-1.62919
-1.63226
-1.63527
-1.63824
-1.64116
-1.64402
-1.64684
-1.64961
-1.65233
-1.655
-1.65762
-1.6602
-1.66273
-1.66522
-1.66766
-1.67006
-1.67241
-1.67473
-1.67699
-1.67922
-1.68141
-1.68356
-1.68566
-1.68773
-1.68976
-1.69176
-1.69371
-1.69563
-1.69752
-1.69937
-1.70118
-1.70296
-1.70471
-1.70642
-1.70811
-1.70976
-1.71138
-1.71297
-1.71453
-1.71606
-1.71756
-1.71903
-1.72048
-1.7219
-1.72329
-1.72466
-1.726
-1.72731
-1.7286
-1.35721
-1.35743
-1.3581
-1.35912
-1.36046
-1.3621
-1.36404
-1.36625
-1.36871
-1.37142
-1.37434
-1.37748
-1.3808
-1.38431
-1.38797
-1.39179
-1.39574
-1.39982
-1.40401
-1.40831
-1.41269
-1.41716
-1.4217
-1.42631
-1.43096
-1.43567
-1.44041
-1.44519
-1.44998
-1.4548
-1.45963
-1.46447
-1.4693
-1.47413
-1.47896
-1.48377
-1.48856
-1.49333
-1.49808
-1.50279
-1.50748
-1.51214
-1.51676
-1.52134
-1.52587
-1.53037
-1.53482
-1.53923
-1.54359
-1.5479
-1.55216
-1.55636
-1.56052
-1.56462
-1.56868
-1.57267
-1.57662
-1.5805
-1.58434
-1.58811
-1.59184
-1.59551
-1.59912
-1.60268
-1.60618
-1.60963
-1.61302
-1.61636
-1.61964
-1.62287
-1.62605
-1.62918
-1.63225
-1.63527
-1.63824
-1.64116
-1.64403
-1.64685
-1.64962
-1.65234
-1.65502
-1.65764
-1.66022
-1.66276
-1.66525
-1.66769
-1.67009
-1.67245
-1.67476
-1.67703
-1.67927
-1.68146
-1.6836
-1.68571
-1.68779
-1.68982
-1.69181
-1.69377
-1.69569
-1.69758
-1.69943
-1.70125
-1.70303
-1.70478
-1.7065
-1.70818
-1.70984
-1.71146
-1.71305
-1.71461
-1.71614
-1.71765
-1.71912
-1.72057
-1.72199
-1.72339
-1.72475
-1.72609
-1.72741
-1.7287
-1.35698
-1.35719
-1.35786
-1.35888
-1.36021
-1.36185
-1.36379
-1.366
-1.36846
-1.37116
-1.37409
-1.37722
-1.38055
-1.38405
-1.38772
-1.39154
-1.39549
-1.39957
-1.40376
-1.40806
-1.41245
-1.41692
-1.42146
-1.42607
-1.43073
-1.43544
-1.44018
-1.44496
-1.44976
-1.45458
-1.45942
-1.46426
-1.4691
-1.47393
-1.47876
-1.48357
-1.48837
-1.49315
-1.4979
-1.50262
-1.50731
-1.51197
-1.5166
-1.52118
-1.52573
-1.53023
-1.53468
-1.5391
-1.54346
-1.54777
-1.55204
-1.55625
-1.56041
-1.56452
-1.56858
-1.57258
-1.57653
-1.58042
-1.58426
-1.58804
-1.59177
-1.59544
-1.59906
-1.60262
-1.60613
-1.60958
-1.61298
-1.61633
-1.61962
-1.62285
-1.62603
-1.62916
-1.63224
-1.63527
-1.63824
-1.64117
-1.64404
-1.64686
-1.64964
-1.65236
-1.65504
-1.65767
-1.66026
-1.6628
-1.66529
-1.66774
-1.67014
-1.6725
-1.67482
-1.67709
-1.67933
-1.68152
-1.68367
-1.68579
-1.68786
-1.6899
-1.6919
-1.69386
-1.69578
-1.69767
-1.69953
-1.70135
-1.70313
-1.70488
-1.7066
-1.70829
-1.70995
-1.71157
-1.71317
-1.71473
-1.71627
-1.71777
-1.71925
-1.7207
-1.72212
-1.72352
-1.72489
-1.72623
-1.72755
-1.72885
-1.35663
-1.35684
-1.3575
-1.35852
-1.35984
-1.36148
-1.36342
-1.36562
-1.36808
-1.37079
-1.37371
-1.37684
-1.38017
-1.38367
-1.38734
-1.39116
-1.39511
-1.3992
-1.40339
-1.40769
-1.41208
-1.41656
-1.4211
-1.42571
-1.43038
-1.43509
-1.43984
-1.44462
-1.44943
-1.45426
-1.4591
-1.46394
-1.46879
-1.47363
-1.47846
-1.48328
-1.48809
-1.49287
-1.49763
-1.50236
-1.50706
-1.51173
-1.51636
-1.52095
-1.5255
-1.53001
-1.53447
-1.53889
-1.54326
-1.54759
-1.55186
-1.55608
-1.56025
-1.56437
-1.56843
-1.57244
-1.57639
-1.5803
-1.58414
-1.58793
-1.59167
-1.59535
-1.59897
-1.60254
-1.60606
-1.60952
-1.61292
-1.61628
-1.61957
-1.62282
-1.62601
-1.62914
-1.63223
-1.63526
-1.63824
-1.64117
-1.64405
-1.64688
-1.64966
-1.6524
-1.65508
-1.65772
-1.66031
-1.66285
-1.66535
-1.66781
-1.67022
-1.67259
-1.67491
-1.67719
-1.67943
-1.68163
-1.68379
-1.68591
-1.68799
-1.69003
-1.69203
-1.694
-1.69593
-1.69782
-1.69968
-1.70151
-1.7033
-1.70506
-1.70678
-1.70847
-1.71013
-1.71176
-1.71336
-1.71493
-1.71647
-1.71798
-1.71946
-1.72092
-1.72235
-1.72375
-1.72512
-1.72647
-1.72779
-1.72909
-1.35617
-1.35637
-1.35703
-1.35804
-1.35936
-1.36099
-1.36292
-1.36513
-1.36759
-1.37029
-1.37321
-1.37634
-1.37967
-1.38317
-1.38684
-1.39066
-1.39462
-1.3987
-1.4029
-1.4072
-1.4116
-1.41608
-1.42063
-1.42524
-1.42991
-1.43463
-1.43939
-1.44418
-1.44899
-1.45383
-1.45867
-1.46352
-1.46838
-1.47323
-1.47807
-1.4829
-1.48771
-1.4925
-1.49727
-1.50201
-1.50672
-1.5114
-1.51604
-1.52064
-1.5252
-1.52972
-1.5342
-1.53862
-1.54301
-1.54734
-1.55162
-1.55585
-1.56003
-1.56416
-1.56823
-1.57225
-1.57622
-1.58013
-1.58399
-1.58779
-1.59153
-1.59522
-1.59886
-1.60244
-1.60596
-1.60943
-1.61285
-1.61621
-1.61952
-1.62277
-1.62597
-1.62912
-1.63221
-1.63525
-1.63824
-1.64118
-1.64407
-1.64691
-1.6497
-1.65244
-1.65513
-1.65778
-1.66038
-1.66293
-1.66544
-1.6679
-1.67032
-1.67269
-1.67502
-1.67731
-1.67956
-1.68177
-1.68393
-1.68606
-1.68815
-1.69019
-1.6922
-1.69418
-1.69612
-1.69802
-1.69988
-1.70171
-1.70351
-1.70527
-1.707
-1.7087
-1.71037
-1.712
-1.71361
-1.71518
-1.71673
-1.71824
-1.71973
-1.72119
-1.72262
-1.72403
-1.72541
-1.72676
-1.72809
-1.72939
-1.3556
-1.35579
-1.35644
-1.35744
-1.35876
-1.36039
-1.36231
-1.36451
-1.36697
-1.36967
-1.37259
-1.37572
-1.37904
-1.38255
-1.38622
-1.39004
-1.394
-1.39809
-1.40229
-1.4066
-1.411
-1.41548
-1.42004
-1.42466
-1.42934
-1.43406
-1.43883
-1.44363
-1.44845
-1.45329
-1.45815
-1.46301
-1.46787
-1.47273
-1.47759
-1.48243
-1.48725
-1.49205
-1.49683
-1.50158
-1.50631
-1.51099
-1.51565
-1.52026
-1.52483
-1.52936
-1.53385
-1.53829
-1.54269
-1.54703
-1.55133
-1.55557
-1.55976
-1.5639
-1.56799
-1.57202
-1.576
-1.57993
-1.5838
-1.58761
-1.59137
-1.59507
-1.59872
-1.60231
-1.60585
-1.60933
-1.61276
-1.61613
-1.61945
-1.62271
-1.62592
-1.62908
-1.63219
-1.63524
-1.63824
-1.64119
-1.64409
-1.64694
-1.64974
-1.6525
-1.6552
-1.65786
-1.66046
-1.66303
-1.66554
-1.66802
-1.67044
-1.67283
-1.67517
-1.67747
-1.67972
-1.68194
-1.68412
-1.68625
-1.68835
-1.6904
-1.69242
-1.6944
-1.69635
-1.69826
-1.70013
-1.70197
-1.70378
-1.70555
-1.70729
-1.70899
-1.71067
-1.71231
-1.71392
-1.7155
-1.71706
-1.71858
-1.72007
-1.72154
-1.72298
-1.72439
-1.72577
-1.72713
-1.72847
-1.72977
-1.35492
-1.3551
-1.35574
-1.35674
-1.35805
-1.35967
-1.36159
-1.36378
-1.36623
-1.36893
-1.37185
-1.37498
-1.3783
-1.38181
-1.38548
-1.3893
-1.39327
-1.39736
-1.40157
-1.40588
-1.41028
-1.41477
-1.41934
-1.42397
-1.42865
-1.43339
-1.43816
-1.44297
-1.4478
-1.45265
-1.45752
-1.46239
-1.46727
-1.47214
-1.47701
-1.48186
-1.4867
-1.49152
-1.49631
-1.50107
-1.50581
-1.51051
-1.51518
-1.51981
-1.5244
-1.52894
-1.53344
-1.5379
-1.54231
-1.54667
-1.55098
-1.55524
-1.55945
-1.5636
-1.5677
-1.57175
-1.57574
-1.57968
-1.58357
-1.5874
-1.59117
-1.59489
-1.59855
-1.60216
-1.60571
-1.6092
-1.61265
-1.61603
-1.61936
-1.62264
-1.62587
-1.62904
-1.63216
-1.63523
-1.63824
-1.64121
-1.64412
-1.64698
-1.6498
-1.65256
-1.65528
-1.65794
-1.66057
-1.66314
-1.66567
-1.66815
-1.67059
-1.67299
-1.67534
-1.67765
-1.67992
-1.68214
-1.68433
-1.68648
-1.68858
-1.69065
-1.69268
-1.69467
-1.69663
-1.69855
-1.70043
-1.70228
-1.70409
-1.70587
-1.70762
-1.70933
-1.71102
-1.71267
-1.71429
-1.71588
-1.71744
-1.71897
-1.72047
-1.72195
-1.72339
-1.72481
-1.72621
-1.72757
-1.72891
-1.73022
-1.35414
-1.35431
-1.35494
-1.35592
-1.35722
-1.35884
-1.36075
-1.36294
-1.36539
-1.36808
-1.371
-1.37413
-1.37745
-1.38096
-1.38463
-1.38845
-1.39242
-1.39652
-1.40073
-1.40505
-1.40946
-1.41396
-1.41853
-1.42317
-1.42786
-1.43261
-1.43739
-1.44221
-1.44706
-1.45192
-1.4568
-1.46169
-1.46658
-1.47146
-1.47634
-1.48121
-1.48606
-1.49089
-1.4957
-1.50048
-1.50524
-1.50995
-1.51464
-1.51928
-1.52389
-1.52845
-1.53297
-1.53744
-1.54187
-1.54625
-1.55058
-1.55485
-1.55908
-1.56325
-1.56737
-1.57144
-1.57545
-1.5794
-1.5833
-1.58715
-1.59094
-1.59467
-1.59835
-1.60198
-1.60555
-1.60906
-1.61252
-1.61592
-1.61927
-1.62256
-1.6258
-1.62899
-1.63213
-1.63521
-1.63824
-1.64122
-1.64415
-1.64703
-1.64986
-1.65263
-1.65537
-1.65805
-1.66068
-1.66327
-1.66582
-1.66831
-1.67077
-1.67318
-1.67554
-1.67786
-1.68014
-1.68238
-1.68458
-1.68674
-1.68886
-1.69094
-1.69298
-1.69498
-1.69695
-1.69888
-1.70077
-1.70263
-1.70446
-1.70625
-1.70801
-1.70973
-1.71142
-1.71309
-1.71472
-1.71632
-1.71789
-1.71943
-1.72094
-1.72242
-1.72388
-1.72531
-1.72671
-1.72808
-1.72943
-1.73075
-1.35326
-1.35341
-1.35403
-1.355
-1.35629
-1.3579
-1.3598
-1.36198
-1.36443
-1.36712
-1.37003
-1.37316
-1.37648
-1.37999
-1.38366
-1.38749
-1.39146
-1.39556
-1.39978
-1.40411
-1.40853
-1.41303
-1.41761
-1.42226
-1.42697
-1.43172
-1.43652
-1.44135
-1.44621
-1.45109
-1.45598
-1.46088
-1.46579
-1.47069
-1.47559
-1.48047
-1.48534
-1.49019
-1.49502
-1.49982
-1.50459
-1.50932
-1.51403
-1.51869
-1.52331
-1.5279
-1.53243
-1.53693
-1.54137
-1.54577
-1.55012
-1.55442
-1.55866
-1.56285
-1.56699
-1.57108
-1.57511
-1.57908
-1.583
-1.58687
-1.59068
-1.59443
-1.59813
-1.60178
-1.60536
-1.60889
-1.61237
-1.61579
-1.61916
-1.62247
-1.62573
-1.62894
-1.63209
-1.63519
-1.63824
-1.64124
-1.64418
-1.64708
-1.64992
-1.65272
-1.65547
-1.65817
-1.66082
-1.66342
-1.66598
-1.66849
-1.67096
-1.67339
-1.67577
-1.6781
-1.6804
-1.68265
-1.68486
-1.68704
-1.68917
-1.69126
-1.69332
-1.69533
-1.69731
-1.69926
-1.70116
-1.70303
-1.70487
-1.70668
-1.70844
-1.71018
-1.71189
-1.71356
-1.7152
-1.71681
-1.71839
-1.71994
-1.72146
-1.72296
-1.72442
-1.72586
-1.72727
-1.72866
-1.73002
-1.73134
-1.35227
-1.35241
-1.35301
-1.35397
-1.35525
-1.35685
-1.35874
-1.36092
-1.36336
-1.36604
-1.36895
-1.37208
-1.3754
-1.37891
-1.38259
-1.38642
-1.3904
-1.3945
-1.39873
-1.40306
-1.40749
-1.412
-1.41659
-1.42125
-1.42597
-1.43074
-1.43555
-1.44039
-1.44527
-1.45016
-1.45507
-1.45999
-1.46491
-1.46983
-1.47474
-1.47965
-1.48454
-1.4894
-1.49425
-1.49907
-1.50386
-1.50862
-1.51334
-1.51803
-1.52267
-1.52728
-1.53184
-1.53635
-1.54082
-1.54524
-1.54961
-1.55393
-1.55819
-1.56241
-1.56657
-1.57068
-1.57473
-1.57873
-1.58267
-1.58656
-1.59039
-1.59417
-1.59789
-1.60155
-1.60516
-1.60871
-1.61221
-1.61565
-1.61904
-1.62237
-1.62565
-1.62888
-1.63205
-1.63517
-1.63824
-1.64126
-1.64422
-1.64713
-1.65
-1.65281
-1.65558
-1.6583
-1.66097
-1.66359
-1.66616
-1.6687
-1.67118
-1.67362
-1.67602
-1.67837
-1.68068
-1.68295
-1.68518
-1.68737
-1.68952
-1.69162
-1.69369
-1.69572
-1.69772
-1.69968
-1.7016
-1.70348
-1.70533
-1.70715
-1.70893
-1.71068
-1.7124
-1.71409
-1.71574
-1.71736
-1.71896
-1.72052
-1.72205
-1.72356
-1.72503
-1.72648
-1.72791
-1.7293
-1.73067
-1.73201
-1.35118
-1.3513
-1.35189
-1.35284
-1.35411
-1.35569
-1.35758
-1.35975
-1.36218
-1.36486
-1.36777
-1.37089
-1.37422
-1.37772
-1.3814
-1.38524
-1.38922
-1.39333
-1.39756
-1.4019
-1.40634
-1.41086
-1.41547
-1.42014
-1.42487
-1.42965
-1.43448
-1.43934
-1.44423
-1.44914
-1.45406
-1.459
-1.46394
-1.46888
-1.47382
-1.47874
-1.48365
-1.48854
-1.49341
-1.49825
-1.50306
-1.50784
-1.51259
-1.5173
-1.52197
-1.52659
-1.53118
-1.53572
-1.54021
-1.54465
-1.54905
-1.55339
-1.55768
-1.56192
-1.56611
-1.57024
-1.57431
-1.57834
-1.5823
-1.58621
-1.59007
-1.59387
-1.59761
-1.6013
-1.60493
-1.60851
-1.61203
-1.6155
-1.61891
-1.62226
-1.62557
-1.62881
-1.63201
-1.63515
-1.63824
-1.64128
-1.64426
-1.6472
-1.65008
-1.65292
-1.6557
-1.65844
-1.66113
-1.66377
-1.66637
-1.66892
-1.67142
-1.67388
-1.6763
-1.67867
-1.681
-1.68328
-1.68553
-1.68773
-1.6899
-1.69202
-1.69411
-1.69616
-1.69817
-1.70014
-1.70208
-1.70398
-1.70584
-1.70768
-1.70947
-1.71124
-1.71297
-1.71467
-1.71634
-1.71797
-1.71958
-1.72115
-1.7227
-1.72422
-1.72571
-1.72717
-1.7286
-1.73001
-1.73139
-1.73274
-1.35
-1.3501
-1.35067
-1.3516
-1.35286
-1.35443
-1.35631
-1.35847
-1.3609
-1.36357
-1.36648
-1.3696
-1.37292
-1.37643
-1.38011
-1.38395
-1.38794
-1.39205
-1.39629
-1.40064
-1.40509
-1.40963
-1.41424
-1.41892
-1.42367
-1.42847
-1.43331
-1.43819
-1.44309
-1.44802
-1.45297
-1.45793
-1.46289
-1.46785
-1.4728
-1.47775
-1.48268
-1.4876
-1.49249
-1.49735
-1.50219
-1.507
-1.51177
-1.5165
-1.5212
-1.52585
-1.53046
-1.53503
-1.53954
-1.54401
-1.54843
-1.5528
-1.55712
-1.56139
-1.5656
-1.56976
-1.57386
-1.57791
-1.5819
-1.58584
-1.58972
-1.59355
-1.59732
-1.60103
-1.60469
-1.60829
-1.61184
-1.61533
-1.61876
-1.62214
-1.62547
-1.62874
-1.63196
-1.63513
-1.63824
-1.6413
-1.64431
-1.64727
-1.65017
-1.65303
-1.65584
-1.6586
-1.66131
-1.66397
-1.66659
-1.66916
-1.67168
-1.67416
-1.6766
-1.67899
-1.68134
-1.68365
-1.68591
-1.68813
-1.69032
-1.69246
-1.69456
-1.69663
-1.69866
-1.70065
-1.7026
-1.70452
-1.7064
-1.70825
-1.71006
-1.71184
-1.71359
-1.7153
-1.71699
-1.71864
-1.72026
-1.72185
-1.72341
-1.72494
-1.72644
-1.72792
-1.72937
-1.73079
-1.73218
-1.73354
-1.34872
-1.3488
-1.34936
-1.35027
-1.35151
-1.35307
-1.35494
-1.35709
-1.35951
-1.36218
-1.36508
-1.3682
-1.37152
-1.37503
-1.37872
-1.38256
-1.38655
-1.39067
-1.39492
-1.39928
-1.40374
-1.40829
-1.41291
-1.41761
-1.42237
-1.42719
-1.43204
-1.43694
-1.44187
-1.44682
-1.45178
-1.45676
-1.46175
-1.46673
-1.47171
-1.47668
-1.48164
-1.48658
-1.49149
-1.49638
-1.50125
-1.50608
-1.51088
-1.51564
-1.52036
-1.52504
-1.52968
-1.53428
-1.53882
-1.54332
-1.54777
-1.55217
-1.55651
-1.56081
-1.56505
-1.56924
-1.57337
-1.57745
-1.58147
-1.58543
-1.58934
-1.5932
-1.59699
-1.60074
-1.60442
-1.60805
-1.61162
-1.61514
-1.61861
-1.62201
-1.62537
-1.62866
-1.63191
-1.6351
-1.63824
-1.64132
-1.64436
-1.64734
-1.65027
-1.65315
-1.65599
-1.65877
-1.6615
-1.66419
-1.66683
-1.66942
-1.67197
-1.67447
-1.67693
-1.67934
-1.68171
-1.68404
-1.68632
-1.68857
-1.69077
-1.69293
-1.69506
-1.69714
-1.69919
-1.7012
-1.70317
-1.7051
-1.707
-1.70887
-1.7107
-1.7125
-1.71426
-1.71599
-1.71769
-1.71936
-1.72099
-1.7226
-1.72418
-1.72572
-1.72724
-1.72873
-1.73019
-1.73163
-1.73303
-1.7344
-1.34734
-1.3474
-1.34794
-1.34884
-1.35006
-1.35161
-1.35347
-1.35561
-1.35802
-1.36068
-1.36358
-1.3667
-1.37002
-1.37353
-1.37722
-1.38106
-1.38506
-1.38919
-1.39345
-1.39781
-1.40228
-1.40685
-1.41149
-1.4162
-1.42098
-1.42581
-1.43069
-1.4356
-1.44055
-1.44552
-1.45051
-1.45551
-1.46052
-1.46553
-1.47053
-1.47553
-1.48051
-1.48548
-1.49042
-1.49534
-1.50023
-1.5051
-1.50992
-1.51471
-1.51947
-1.52418
-1.52885
-1.53347
-1.53805
-1.54258
-1.54706
-1.55149
-1.55586
-1.56019
-1.56446
-1.56868
-1.57284
-1.57695
-1.581
-1.585
-1.58894
-1.59282
-1.59665
-1.60042
-1.60414
-1.60779
-1.6114
-1.61494
-1.61844
-1.62187
-1.62525
-1.62858
-1.63185
-1.63507
-1.63824
-1.64135
-1.64441
-1.64742
-1.65038
-1.65329
-1.65614
-1.65895
-1.66171
-1.66442
-1.66709
-1.66971
-1.67228
-1.6748
-1.67728
-1.67972
-1.68211
-1.68446
-1.68677
-1.68903
-1.69126
-1.69344
-1.69558
-1.69769
-1.69976
-1.70179
-1.70378
-1.70573
-1.70765
-1.70954
-1.71139
-1.7132
-1.71498
-1.71673
-1.71845
-1.72013
-1.72179
-1.72341
-1.725
-1.72656
-1.7281
-1.7296
-1.73108
-1.73253
-1.73395
-1.73533
-1.34588
-1.34591
-1.34643
-1.34731
-1.34852
-1.35005
-1.3519
-1.35403
-1.35643
-1.35909
-1.36198
-1.36509
-1.36841
-1.37193
-1.37561
-1.37947
-1.38347
-1.38761
-1.39187
-1.39625
-1.40073
-1.40531
-1.40996
-1.41469
-1.41949
-1.42434
-1.42924
-1.43417
-1.43914
-1.44413
-1.44915
-1.45417
-1.45921
-1.46424
-1.46927
-1.4743
-1.47931
-1.4843
-1.48928
-1.49423
-1.49915
-1.50404
-1.5089
-1.51372
-1.51851
-1.52325
-1.52795
-1.53261
-1.53722
-1.54178
-1.54629
-1.55075
-1.55517
-1.55952
-1.56383
-1.56808
-1.57227
-1.57642
-1.5805
-1.58453
-1.5885
-1.59242
-1.59628
-1.60008
-1.60383
-1.60752
-1.61115
-1.61473
-1.61826
-1.62172
-1.62513
-1.62849
-1.63179
-1.63504
-1.63824
-1.64138
-1.64447
-1.64751
-1.65049
-1.65343
-1.65631
-1.65915
-1.66194
-1.66467
-1.66736
-1.67001
-1.6726
-1.67515
-1.67766
-1.68012
-1.68254
-1.68491
-1.68724
-1.68953
-1.69178
-1.69398
-1.69615
-1.69828
-1.70037
-1.70242
-1.70443
-1.70641
-1.70835
-1.71025
-1.71212
-1.71395
-1.71576
-1.71752
-1.71926
-1.72096
-1.72263
-1.72427
-1.72588
-1.72747
-1.72902
-1.73054
-1.73203
-1.7335
-1.73493
-1.73633
-1.34432
-1.34433
-1.34483
-1.34569
-1.34688
-1.3484
-1.35023
-1.35235
-1.35474
-1.35739
-1.36028
-1.36339
-1.36671
-1.37022
-1.37391
-1.37777
-1.38178
-1.38593
-1.3902
-1.39459
-1.39909
-1.40367
-1.40835
-1.41309
-1.41791
-1.42278
-1.42769
-1.43265
-1.43764
-1.44266
-1.4477
-1.45275
-1.45781
-1.46288
-1.46794
-1.47299
-1.47803
-1.48306
-1.48806
-1.49304
-1.498
-1.50292
-1.50782
-1.51267
-1.51749
-1.52227
-1.527
-1.53169
-1.53634
-1.54093
-1.54548
-1.54998
-1.55442
-1.55882
-1.56316
-1.56744
-1.57167
-1.57585
-1.57997
-1.58403
-1.58804
-1.59199
-1.59589
-1.59972
-1.6035
-1.60723
-1.6109
-1.61451
-1.61806
-1.62156
-1.62501
-1.6284
-1.63173
-1.63501
-1.63824
-1.64141
-1.64453
-1.6476
-1.65062
-1.65358
-1.65649
-1.65936
-1.66217
-1.66494
-1.66766
-1.67033
-1.67295
-1.67553
-1.67806
-1.68055
-1.68299
-1.68539
-1.68775
-1.69006
-1.69233
-1.69456
-1.69675
-1.6989
-1.70102
-1.70309
-1.70513
-1.70712
-1.70909
-1.71101
-1.7129
-1.71476
-1.71658
-1.71837
-1.72012
-1.72185
-1.72354
-1.7252
-1.72683
-1.72842
-1.72999
-1.73153
-1.73305
-1.73453
-1.73598
-1.73739
-1.34267
-1.34266
-1.34313
-1.34397
-1.34514
-1.34664
-1.34846
-1.35057
-1.35295
-1.3556
-1.35848
-1.36159
-1.36491
-1.36842
-1.37211
-1.37597
-1.37999
-1.38415
-1.38843
-1.39283
-1.39734
-1.40194
-1.40663
-1.4114
-1.41623
-1.42112
-1.42606
-1.43104
-1.43606
-1.4411
-1.44617
-1.45125
-1.45634
-1.46143
-1.46652
-1.47161
-1.47668
-1.48174
-1.48677
-1.49179
-1.49678
-1.50174
-1.50666
-1.51156
-1.51641
-1.52122
-1.52599
-1.53072
-1.5354
-1.54004
-1.54462
-1.54916
-1.55364
-1.55807
-1.56245
-1.56677
-1.57104
-1.57525
-1.57941
-1.58351
-1.58755
-1.59154
-1.59547
-1.59934
-1.60316
-1.60692
-1.61062
-1.61427
-1.61786
-1.62139
-1.62487
-1.6283
-1.63166
-1.63498
-1.63824
-1.64144
-1.6446
-1.6477
-1.65074
-1.65374
-1.65669
-1.65958
-1.66243
-1.66522
-1.66797
-1.67067
-1.67332
-1.67593
-1.67849
-1.681
-1.68347
-1.6859
-1.68828
-1.69062
-1.69292
-1.69518
-1.69739
-1.69957
-1.70171
-1.7038
-1.70586
-1.70788
-1.70987
-1.71182
-1.71373
-1.71561
-1.71745
-1.71926
-1.72104
-1.72278
-1.72449
-1.72617
-1.72782
-1.72944
-1.73103
-1.73259
-1.73412
-1.73562
-1.73709
-1.73852
-1.34094
-1.3409
-1.34134
-1.34216
-1.34331
-1.3448
-1.3466
-1.3487
-1.35107
-1.35371
-1.35658
-1.35969
-1.36301
-1.36652
-1.37022
-1.37408
-1.3781
-1.38227
-1.38657
-1.39098
-1.3955
-1.40012
-1.40483
-1.40961
-1.41447
-1.41938
-1.42434
-1.42935
-1.43439
-1.43946
-1.44455
-1.44966
-1.45478
-1.4599
-1.46503
-1.47014
-1.47525
-1.48034
-1.48542
-1.49047
-1.49549
-1.50049
-1.50545
-1.51038
-1.51527
-1.52012
-1.52493
-1.5297
-1.53442
-1.53909
-1.54371
-1.54829
-1.55281
-1.55728
-1.56169
-1.56606
-1.57036
-1.57462
-1.57881
-1.58295
-1.58703
-1.59106
-1.59503
-1.59894
-1.60279
-1.60659
-1.61033
-1.61402
-1.61764
-1.62121
-1.62473
-1.62819
-1.63159
-1.63494
-1.63824
-1.64148
-1.64466
-1.6478
-1.65088
-1.65391
-1.65689
-1.65982
-1.66269
-1.66552
-1.6683
-1.67103
-1.67371
-1.67635
-1.67894
-1.68148
-1.68398
-1.68644
-1.68885
-1.69122
-1.69354
-1.69583
-1.69807
-1.70027
-1.70243
-1.70456
-1.70664
-1.70869
-1.7107
-1.71267
-1.71461
-1.71651
-1.71837
-1.72021
-1.72201
-1.72377
-1.7255
-1.72721
-1.72888
-1.73051
-1.73212
-1.7337
-1.73525
-1.73678
-1.73826
-1.7397
-1.33912
-1.33905
-1.33947
-1.34026
-1.34139
-1.34286
-1.34465
-1.34673
-1.34909
-1.35172
-1.35459
-1.35769
-1.36101
-1.36452
-1.36822
-1.3721
-1.37612
-1.3803
-1.38461
-1.38903
-1.39357
-1.39821
-1.40293
-1.40774
-1.41261
-1.41754
-1.42253
-1.42756
-1.43263
-1.43773
-1.44285
-1.44799
-1.45314
-1.4583
-1.46346
-1.46861
-1.47375
-1.47888
-1.48399
-1.48907
-1.49414
-1.49917
-1.50417
-1.50914
-1.51407
-1.51896
-1.52381
-1.52862
-1.53338
-1.53809
-1.54276
-1.54737
-1.55194
-1.55645
-1.5609
-1.56531
-1.56966
-1.57395
-1.57819
-1.58237
-1.58649
-1.59056
-1.59456
-1.59852
-1.60241
-1.60625
-1.61003
-1.61375
-1.61742
-1.62103
-1.62458
-1.62808
-1.63152
-1.6349
-1.63824
-1.64151
-1.64474
-1.64791
-1.65102
-1.65409
-1.6571
-1.66006
-1.66297
-1.66584
-1.66865
-1.67141
-1.67413
-1.67679
-1.67942
-1.68199
-1.68452
-1.687
-1.68945
-1.69184
-1.6942
-1.69651
-1.69878
-1.70101
-1.7032
-1.70535
-1.70746
-1.70953
-1.71157
-1.71357
-1.71553
-1.71745
-1.71935
-1.7212
-1.72302
-1.72481
-1.72657
-1.72829
-1.72999
-1.73165
-1.73328
-1.73488
-1.73645
-1.73799
-1.7395
-1.74096
-1.33721
-1.33711
-1.33751
-1.33827
-1.33938
-1.34083
-1.3426
-1.34467
-1.34702
-1.34964
-1.35251
-1.3556
-1.35892
-1.36243
-1.36614
-1.37001
-1.37405
-1.37823
-1.38255
-1.38699
-1.39155
-1.3962
-1.40094
-1.40577
-1.41066
-1.41562
-1.42064
-1.42569
-1.43079
-1.43592
-1.44107
-1.44625
-1.45143
-1.45662
-1.46181
-1.467
-1.47218
-1.47734
-1.48249
-1.48762
-1.49272
-1.49779
-1.50283
-1.50784
-1.51282
-1.51775
-1.52264
-1.52749
-1.53229
-1.53705
-1.54176
-1.54641
-1.55102
-1.55557
-1.56007
-1.56452
-1.56891
-1.57325
-1.57753
-1.58175
-1.58592
-1.59003
-1.59408
-1.59807
-1.60201
-1.60589
-1.60971
-1.61347
-1.61718
-1.62083
-1.62442
-1.62796
-1.63144
-1.63487
-1.63824
-1.64155
-1.64481
-1.64802
-1.65117
-1.65427
-1.65732
-1.66032
-1.66327
-1.66616
-1.66901
-1.67181
-1.67456
-1.67726
-1.67991
-1.68252
-1.68508
-1.6876
-1.69007
-1.6925
-1.69488
-1.69723
-1.69953
-1.70179
-1.704
-1.70618
-1.70832
-1.71042
-1.71248
-1.71451
-1.7165
-1.71845
-1.72037
-1.72225
-1.72409
-1.72591
-1.72769
-1.72943
-1.73115
-1.73283
-1.73449
-1.73611
-1.7377
-1.73927
-1.74079
-1.74227
-1.33522
-1.33509
-1.33546
-1.3362
-1.33729
-1.33872
-1.34047
-1.34252
-1.34486
-1.34747
-1.35033
-1.35342
-1.35674
-1.36025
-1.36396
-1.36784
-1.37189
-1.37608
-1.38041
-1.38486
-1.38943
-1.3941
-1.39887
-1.40371
-1.40863
-1.41362
-1.41866
-1.42374
-1.42887
-1.43403
-1.43921
-1.44442
-1.44964
-1.45486
-1.46009
-1.46531
-1.47053
-1.47573
-1.48092
-1.48609
-1.49123
-1.49635
-1.50143
-1.50649
-1.5115
-1.51648
-1.52141
-1.52631
-1.53115
-1.53596
-1.54071
-1.54541
-1.55006
-1.55466
-1.55921
-1.5637
-1.56814
-1.57252
-1.57684
-1.58111
-1.58532
-1.58947
-1.59357
-1.59761
-1.60159
-1.60551
-1.60937
-1.61318
-1.61693
-1.62062
-1.62426
-1.62784
-1.63136
-1.63482
-1.63823
-1.64159
-1.64489
-1.64814
-1.65133
-1.65447
-1.65756
-1.66059
-1.66358
-1.66651
-1.66939
-1.67223
-1.67501
-1.67775
-1.68044
-1.68308
-1.68567
-1.68822
-1.69073
-1.69319
-1.6956
-1.69798
-1.70031
-1.7026
-1.70485
-1.70705
-1.70922
-1.71135
-1.71344
-1.7155
-1.71751
-1.71949
-1.72143
-1.72334
-1.72521
-1.72705
-1.72886
-1.73063
-1.73237
-1.73408
-1.73575
-1.7374
-1.73902
-1.7406
-1.74215
-1.74365
-1.33315
-1.33298
-1.33332
-1.33404
-1.3351
-1.33651
-1.33825
-1.34028
-1.34261
-1.34521
-1.34806
-1.35115
-1.35446
-1.35798
-1.36169
-1.36558
-1.36963
-1.37383
-1.37817
-1.38264
-1.38723
-1.39192
-1.3967
-1.40157
-1.40651
-1.41152
-1.41659
-1.42171
-1.42686
-1.43205
-1.43727
-1.44251
-1.44776
-1.45303
-1.45829
-1.46356
-1.46881
-1.47406
-1.47929
-1.4845
-1.48968
-1.49484
-1.49997
-1.50507
-1.51013
-1.51515
-1.52013
-1.52507
-1.52997
-1.53481
-1.53961
-1.54436
-1.54906
-1.55371
-1.5583
-1.56284
-1.56732
-1.57175
-1.57612
-1.58044
-1.58469
-1.58889
-1.59304
-1.59712
-1.60115
-1.60511
-1.60902
-1.61288
-1.61667
-1.62041
-1.62409
-1.62771
-1.63127
-1.63478
-1.63823
-1.64163
-1.64497
-1.64826
-1.65149
-1.65467
-1.6578
-1.66088
-1.6639
-1.66687
-1.66979
-1.67266
-1.67548
-1.67826
-1.68098
-1.68366
-1.68629
-1.68887
-1.69141
-1.69391
-1.69636
-1.69876
-1.70113
-1.70345
-1.70573
-1.70797
-1.71016
-1.71232
-1.71444
-1.71653
-1.71857
-1.72058
-1.72255
-1.72448
-1.72638
-1.72825
-1.73008
-1.73188
-1.73364
-1.73538
-1.73708
-1.73875
-1.74039
-1.742
-1.74357
-1.74508
-1.331
-1.3308
-1.3311
-1.33179
-1.33283
-1.33422
-1.33593
-1.33796
-1.34027
-1.34286
-1.3457
-1.34879
-1.3521
-1.35561
-1.35933
-1.36322
-1.36728
-1.37149
-1.37585
-1.38033
-1.38494
-1.38964
-1.39445
-1.39934
-1.40431
-1.40935
-1.41444
-1.41959
-1.42478
-1.43
-1.43525
-1.44053
-1.44582
-1.45112
-1.45642
-1.46173
-1.46702
-1.47231
-1.47758
-1.48284
-1.48807
-1.49327
-1.49845
-1.50359
-1.5087
-1.51377
-1.5188
-1.52379
-1.52873
-1.53362
-1.53847
-1.54327
-1.54802
-1.55271
-1.55736
-1.56194
-1.56648
-1.57095
-1.57537
-1.57974
-1.58404
-1.58829
-1.59248
-1.59661
-1.60069
-1.6047
-1.60866
-1.61256
-1.6164
-1.62018
-1.62391
-1.62757
-1.63118
-1.63474
-1.63823
-1.64167
-1.64506
-1.64839
-1.65166
-1.65489
-1.65806
-1.66117
-1.66423
-1.66725
-1.67021
-1.67312
-1.67598
-1.67879
-1.68155
-1.68426
-1.68693
-1.68955
-1.69212
-1.69465
-1.69714
-1.69958
-1.70198
-1.70433
-1.70664
-1.70891
-1.71115
-1.71334
-1.71549
-1.7176
-1.71967
-1.72171
-1.72371
-1.72568
-1.7276
-1.7295
-1.73136
-1.73318
-1.73497
-1.73673
-1.73846
-1.74015
-1.74182
-1.74345
-1.74505
-1.74658
-1.32876
-1.32853
-1.3288
-1.32947
-1.33048
-1.33184
-1.33354
-1.33554
-1.33784
-1.34042
-1.34326
-1.34634
-1.34964
-1.35316
-1.35688
-1.36078
-1.36484
-1.36907
-1.37344
-1.37794
-1.38256
-1.38728
-1.39211
-1.39703
-1.40202
-1.40708
-1.41221
-1.41739
-1.42261
-1.42787
-1.43315
-1.43847
-1.4438
-1.44914
-1.45448
-1.45983
-1.46517
-1.4705
-1.47582
-1.48111
-1.48639
-1.49164
-1.49687
-1.50206
-1.50721
-1.51233
-1.51741
-1.52245
-1.52744
-1.53239
-1.53729
-1.54214
-1.54693
-1.55168
-1.55637
-1.56101
-1.5656
-1.57012
-1.5746
-1.57901
-1.58337
-1.58766
-1.5919
-1.59609
-1.60021
-1.60427
-1.60828
-1.61223
-1.61612
-1.61995
-1.62372
-1.62743
-1.63109
-1.63469
-1.63823
-1.64172
-1.64515
-1.64852
-1.65184
-1.65511
-1.65832
-1.66148
-1.66458
-1.66764
-1.67064
-1.67359
-1.67649
-1.67934
-1.68214
-1.68489
-1.6876
-1.69026
-1.69287
-1.69543
-1.69795
-1.70043
-1.70286
-1.70525
-1.7076
-1.7099
-1.71217
-1.71439
-1.71657
-1.71872
-1.72082
-1.72289
-1.72492
-1.72692
-1.72887
-1.7308
-1.73268
-1.73454
-1.73636
-1.73814
-1.7399
-1.74162
-1.74331
-1.74497
-1.74659
-1.74814
-1.32645
-1.32618
-1.32642
-1.32705
-1.32804
-1.32938
-1.33106
-1.33305
-1.33533
-1.3379
-1.34073
-1.3438
-1.3471
-1.35062
-1.35434
-1.35824
-1.36232
-1.36656
-1.37094
-1.37545
-1.38009
-1.38484
-1.38969
-1.39463
-1.39965
-1.40474
-1.4099
-1.4151
-1.42036
-1.42565
-1.43098
-1.43633
-1.4417
-1.44708
-1.45247
-1.45785
-1.46324
-1.46862
-1.47398
-1.47933
-1.48465
-1.48995
-1.49522
-1.50047
-1.50567
-1.51084
-1.51597
-1.52106
-1.52611
-1.5311
-1.53606
-1.54096
-1.54581
-1.55061
-1.55535
-1.56005
-1.56468
-1.56926
-1.57379
-1.57825
-1.58266
-1.58701
-1.5913
-1.59554
-1.59971
-1.60383
-1.60788
-1.61188
-1.61582
-1.6197
-1.62352
-1.62729
-1.63099
-1.63464
-1.63823
-1.64176
-1.64524
-1.64866
-1.65203
-1.65534
-1.65859
-1.66179
-1.66494
-1.66804
-1.67108
-1.67408
-1.67702
-1.67991
-1.68275
-1.68555
-1.68829
-1.69099
-1.69364
-1.69624
-1.6988
-1.70131
-1.70378
-1.70621
-1.70859
-1.71093
-1.71323
-1.71548
-1.7177
-1.71988
-1.72202
-1.72412
-1.72618
-1.7282
-1.73019
-1.73214
-1.73406
-1.73594
-1.73779
-1.73961
-1.74139
-1.74314
-1.74486
-1.74654
-1.74819
-1.74976
-1.32407
-1.32375
-1.32396
-1.32456
-1.32552
-1.32684
-1.32849
-1.33046
-1.33273
-1.33529
-1.33811
-1.34117
-1.34448
-1.34799
-1.35172
-1.35563
-1.35971
-1.36396
-1.36835
-1.37288
-1.37754
-1.38231
-1.38718
-1.39215
-1.39719
-1.40232
-1.4075
-1.41274
-1.41803
-1.42336
-1.42873
-1.43412
-1.43953
-1.44495
-1.45038
-1.45581
-1.46124
-1.46667
-1.47208
-1.47747
-1.48285
-1.4882
-1.49352
-1.49881
-1.50407
-1.5093
-1.51448
-1.51962
-1.52472
-1.52977
-1.53478
-1.53974
-1.54464
-1.54949
-1.5543
-1.55904
-1.56373
-1.56837
-1.57295
-1.57747
-1.58193
-1.58634
-1.59068
-1.59497
-1.5992
-1.60337
-1.60747
-1.61152
-1.61551
-1.61945
-1.62332
-1.62713
-1.63089
-1.63459
-1.63823
-1.64181
-1.64533
-1.6488
-1.65222
-1.65557
-1.65888
-1.66212
-1.66532
-1.66846
-1.67155
-1.67458
-1.67757
-1.6805
-1.68339
-1.68622
-1.68901
-1.69175
-1.69444
-1.69708
-1.69968
-1.70223
-1.70474
-1.7072
-1.70962
-1.71199
-1.71433
-1.71662
-1.71887
-1.72108
-1.72326
-1.72539
-1.72748
-1.72954
-1.73156
-1.73354
-1.73549
-1.7374
-1.73928
-1.74113
-1.74294
-1.74471
-1.74646
-1.74818
-1.74985
-1.75145
-1.3216
-1.32125
-1.32143
-1.32199
-1.32292
-1.32421
-1.32584
-1.3278
-1.33005
-1.33259
-1.3354
-1.33847
-1.34176
-1.34528
-1.34901
-1.35292
-1.35702
-1.36127
-1.36568
-1.37023
-1.3749
-1.37969
-1.38459
-1.38958
-1.39466
-1.39981
-1.40503
-1.4103
-1.41563
-1.42099
-1.4264
-1.43183
-1.43728
-1.44275
-1.44822
-1.4537
-1.45918
-1.46465
-1.47011
-1.47556
-1.48098
-1.48639
-1.49176
-1.49711
-1.50242
-1.5077
-1.51294
-1.51813
-1.52329
-1.5284
-1.53346
-1.53847
-1.54343
-1.54834
-1.5532
-1.558
-1.56275
-1.56744
-1.57208
-1.57666
-1.58117
-1.58564
-1.59004
-1.59438
-1.59866
-1.60289
-1.60705
-1.61115
-1.6152
-1.61918
-1.62311
-1.62697
-1.63078
-1.63453
-1.63822
-1.64186
-1.64543
-1.64895
-1.65241
-1.65582
-1.65917
-1.66246
-1.66571
-1.66889
-1.67203
-1.67511
-1.67814
-1.68112
-1.68405
-1.68692
-1.68975
-1.69253
-1.69526
-1.69795
-1.70059
-1.70318
-1.70572
-1.70823
-1.71068
-1.7131
-1.71547
-1.7178
-1.72008
-1.72233
-1.72454
-1.72671
-1.72883
-1.73092
-1.73298
-1.73499
-1.73697
-1.73892
-1.74083
-1.7427
-1.74454
-1.74635
-1.74812
-1.74987
-1.75157
-1.75319
-1.31907
-1.31867
-1.31881
-1.31934
-1.32024
-1.32151
-1.32312
-1.32505
-1.32729
-1.32982
-1.33262
-1.33567
-1.33897
-1.34249
-1.34621
-1.35013
-1.35424
-1.3585
-1.36293
-1.36749
-1.37219
-1.377
-1.38192
-1.38694
-1.39204
-1.39722
-1.40247
-1.40778
-1.41314
-1.41855
-1.42399
-1.42947
-1.43496
-1.44047
-1.44599
-1.45152
-1.45705
-1.46257
-1.46808
-1.47358
-1.47906
-1.48451
-1.48994
-1.49534
-1.50071
-1.50604
-1.51134
-1.51659
-1.5218
-1.52697
-1.53209
-1.53716
-1.54218
-1.54715
-1.55207