/*--------------------------------*- C++ -*----------------------------------*\
  =========                 |
  \\      /  F ield         | OpenFOAM: The Open Source CFD Toolbox
   \\    /   O peration     | Website:  https://openfoam.org
    \\  /    A nd           | Version:  8
     \\/     M anipulation  |
\*---------------------------------------------------------------------------*/
FoamFile
{
    version     2.0;
    format      ascii;
    class       volScalarField;
    location    "35";
    object      nuTilda;
}
// * * * * * * * * * * * * * * * * * * * * * * * * * * * * * * * * * * * * * //

dimensions      [0 2 -1 0 0 0 0];

internalField   nonuniform List<scalar> 
277560
(
0.139981
0.139964
0.139962
0.139966
0.139975
0.139986
0.139999
0.140012
0.140026
0.140039
0.140052
0.140064
0.140075
0.140085
0.140093
0.1401
0.140105
0.140108
0.14011
0.140109
0.140107
0.140102
0.140095
0.140085
0.140073
0.140059
0.140042
0.140023
0.140001
0.139976
0.139948
0.139917
0.139883
0.139845
0.139805
0.13976
0.139712
0.139661
0.139605
0.139545
0.139481
0.139413
0.13934
0.139263
0.13918
0.139093
0.139001
0.138904
0.138802
0.138694
0.138581
0.138463
0.13834
0.138211
0.138078
0.137939
0.137796
0.137649
0.137497
0.137341
0.137182
0.13702
0.136855
0.136687
0.136518
0.136348
0.136178
0.136007
0.135837
0.135669
0.135503
0.135339
0.135179
0.135023
0.134872
0.134726
0.134588
0.134456
0.134333
0.134219
0.134113
0.134018
0.133934
0.133861
0.133799
0.133749
0.133712
0.133687
0.133674
0.133673
0.133684
0.133707
0.133741
0.133786
0.13384
0.133903
0.133976
0.134056
0.134143
0.134238
0.134338
0.134445
0.134556
0.134671
0.134791
0.134913
0.135039
0.135167
0.135297
0.135428
0.13556
0.135692
0.135823
0.135952
0.13608
0.136204
0.136327
0.136446
0.136562
0.136675
0.139995
0.139989
0.139992
0.139999
0.14001
0.140023
0.140037
0.140052
0.140067
0.140081
0.140095
0.140108
0.14012
0.14013
0.140139
0.140146
0.140152
0.140156
0.140157
0.140157
0.140155
0.14015
0.140143
0.140134
0.140122
0.140108
0.140091
0.140071
0.140049
0.140024
0.139996
0.139964
0.13993
0.139892
0.139851
0.139806
0.139757
0.139704
0.139648
0.139587
0.139522
0.139453
0.139379
0.1393
0.139217
0.139128
0.139035
0.138936
0.138832
0.138723
0.138609
0.138489
0.138364
0.138234
0.138099
0.137958
0.137813
0.137664
0.137511
0.137353
0.137192
0.137028
0.136862
0.136693
0.136523
0.136352
0.13618
0.136008
0.135837
0.135668
0.135501
0.135337
0.135176
0.13502
0.134869
0.134723
0.134585
0.134453
0.13433
0.134216
0.134112
0.134018
0.133934
0.133862
0.133803
0.133755
0.13372
0.133698
0.133689
0.133694
0.13371
0.133739
0.13378
0.133831
0.133891
0.133961
0.134039
0.134124
0.134217
0.134316
0.134421
0.134532
0.134647
0.134767
0.13489
0.135016
0.135144
0.135275
0.135407
0.135539
0.135672
0.135804
0.135935
0.136065
0.136193
0.136319
0.136442
0.136563
0.136681
0.136795
0.140004
0.14001
0.14002
0.140032
0.140047
0.140063
0.14008
0.140097
0.140113
0.14013
0.140145
0.140159
0.140172
0.140184
0.140194
0.140202
0.140208
0.140213
0.140215
0.140215
0.140214
0.140209
0.140203
0.140194
0.140183
0.140169
0.140152
0.140133
0.140111
0.140086
0.140058
0.140027
0.139992
0.139955
0.139914
0.139869
0.13982
0.139767
0.139711
0.13965
0.139584
0.139514
0.13944
0.13936
0.139276
0.139186
0.139091
0.13899
0.138885
0.138773
0.138656
0.138534
0.138407
0.138274
0.138135
0.137992
0.137844
0.137691
0.137535
0.137374
0.13721
0.137043
0.136874
0.136702
0.13653
0.136356
0.136182
0.136009
0.135836
0.135666
0.135497
0.135332
0.13517
0.135013
0.134862
0.134716
0.134577
0.134446
0.134324
0.13421
0.134107
0.134014
0.133933
0.133863
0.133806
0.133762
0.133732
0.133715
0.133712
0.133723
0.133747
0.133783
0.13383
0.133887
0.133954
0.13403
0.134114
0.134206
0.134304
0.13441
0.134521
0.134637
0.134758
0.134884
0.135012
0.135144
0.135278
0.135414
0.135551
0.135688
0.135825
0.135962
0.136098
0.136232
0.136364
0.136494
0.136622
0.136746
0.136867
0.136984
0.14001
0.140028
0.140046
0.140065
0.140084
0.140104
0.140124
0.140144
0.140163
0.140181
0.140199
0.140215
0.140229
0.140242
0.140253
0.140262
0.14027
0.140275
0.140278
0.140279
0.140278
0.140275
0.140269
0.14026
0.140249
0.140236
0.14022
0.140201
0.140179
0.140155
0.140127
0.140096
0.140062
0.140025
0.139984
0.139939
0.139891
0.139838
0.139782
0.139721
0.139656
0.139586
0.139511
0.139431
0.139346
0.139255
0.139159
0.139057
0.13895
0.138837
0.138718
0.138593
0.138462
0.138326
0.138184
0.138037
0.137885
0.137728
0.137567
0.137403
0.137234
0.137063
0.13689
0.136715
0.136538
0.136362
0.136185
0.136009
0.135834
0.135661
0.135491
0.135324
0.135162
0.135004
0.134851
0.134705
0.134567
0.134436
0.134314
0.134201
0.134099
0.134008
0.133929
0.133863
0.133809
0.13377
0.133744
0.133733
0.133737
0.133755
0.133786
0.133829
0.133883
0.133947
0.134021
0.134103
0.134194
0.134293
0.134398
0.134511
0.134629
0.134753
0.134882
0.135015
0.135151
0.135291
0.135432
0.135575
0.135719
0.135864
0.136008
0.136152
0.136294
0.136435
0.136574
0.13671
0.136843
0.136973
0.137099
0.137221
0.140016
0.140044
0.14007
0.140095
0.14012
0.140145
0.140169
0.140192
0.140214
0.140234
0.140254
0.140272
0.140288
0.140302
0.140315
0.140325
0.140334
0.14034
0.140344
0.140346
0.140345
0.140342
0.140337
0.140329
0.140319
0.140306
0.14029
0.140271
0.14025
0.140225
0.140198
0.140167
0.140134
0.140097
0.140056
0.140012
0.139963
0.139911
0.139855
0.139794
0.139729
0.139659
0.139584
0.139504
0.139419
0.139328
0.139231
0.139128
0.13902
0.138905
0.138784
0.138657
0.138524
0.138385
0.138239
0.138089
0.137932
0.137771
0.137605
0.137436
0.137262
0.137086
0.136908
0.136729
0.136548
0.136368
0.136187
0.136008
0.135831
0.135656
0.135483
0.135315
0.13515
0.134991
0.134838
0.134692
0.134553
0.134422
0.134301
0.134189
0.134089
0.134
0.133924
0.13386
0.133811
0.133776
0.133755
0.133751
0.133761
0.133786
0.133824
0.133874
0.133935
0.134006
0.134087
0.134177
0.134275
0.134382
0.134496
0.134617
0.134744
0.134876
0.135013
0.135155
0.1353
0.135449
0.135599
0.135751
0.135904
0.136058
0.136211
0.136363
0.136514
0.136663
0.136809
0.136953
0.137093
0.13723
0.137362
0.13749
0.14002
0.140058
0.140092
0.140124
0.140155
0.140184
0.140212
0.140239
0.140264
0.140288
0.140309
0.140329
0.140347
0.140363
0.140377
0.140389
0.140399
0.140406
0.140411
0.140413
0.140413
0.140411
0.140406
0.140398
0.140388
0.140375
0.14036
0.140341
0.14032
0.140296
0.140269
0.140238
0.140205
0.140168
0.140127
0.140083
0.140035
0.139983
0.139926
0.139866
0.139801
0.139731
0.139656
0.139576
0.13949
0.139398
0.139301
0.139198
0.139088
0.138972
0.13885
0.138721
0.138585
0.138444
0.138295
0.138141
0.137981
0.137815
0.137645
0.13747
0.137291
0.13711
0.136927
0.136742
0.136557
0.136372
0.136188
0.136006
0.135825
0.135647
0.135473
0.135302
0.135136
0.134976
0.134822
0.134675
0.134536
0.134406
0.134285
0.134175
0.134076
0.133989
0.133915
0.133855
0.133809
0.133779
0.133764
0.133766
0.133783
0.133815
0.13386
0.133917
0.133985
0.134063
0.134151
0.134249
0.134356
0.134471
0.134594
0.134723
0.13486
0.135002
0.135149
0.1353
0.135455
0.135614
0.135774
0.135936
0.1361
0.136263
0.136426
0.136588
0.136748
0.136907
0.137062
0.137214
0.137362
0.137507
0.137646
0.137781
0.140025
0.14007
0.140112
0.140151
0.140187
0.140222
0.140254
0.140285
0.140313
0.140339
0.140364
0.140386
0.140406
0.140423
0.140439
0.140452
0.140462
0.140471
0.140476
0.140479
0.14048
0.140478
0.140473
0.140466
0.140456
0.140443
0.140428
0.14041
0.140388
0.140364
0.140337
0.140306
0.140273
0.140235
0.140195
0.140151
0.140102
0.14005
0.139994
0.139933
0.139868
0.139798
0.139723
0.139642
0.139556
0.139464
0.139366
0.139262
0.139152
0.139035
0.138911
0.13878
0.138643
0.138498
0.138347
0.138189
0.138026
0.137856
0.137681
0.137501
0.137318
0.137131
0.136943
0.136753
0.136564
0.136374
0.136186
0.136
0.135817
0.135636
0.135459
0.135287
0.135119
0.134958
0.134803
0.134655
0.134516
0.134386
0.134266
0.134156
0.134059
0.133974
0.133903
0.133846
0.133805
0.133779
0.133769
0.133777
0.133801
0.133839
0.133891
0.133955
0.13403
0.134116
0.134212
0.134318
0.134434
0.134557
0.134689
0.134829
0.134975
0.135127
0.135284
0.135446
0.135612
0.135781
0.135953
0.136126
0.1363
0.136474
0.136648
0.13682
0.136991
0.137159
0.137324
0.137486
0.137643
0.137796
0.137943
0.138085
0.140028
0.140082
0.140131
0.140176
0.140218
0.140257
0.140294
0.140328
0.14036
0.140389
0.140416
0.14044
0.140462
0.140482
0.140498
0.140513
0.140524
0.140533
0.14054
0.140543
0.140544
0.140543
0.140538
0.140531
0.140521
0.140508
0.140493
0.140474
0.140453
0.140429
0.140401
0.14037
0.140336
0.140299
0.140258
0.140213
0.140165
0.140112
0.140056
0.139995
0.139929
0.139859
0.139783
0.139702
0.139615
0.139523
0.139424
0.139319
0.139208
0.13909
0.138964
0.138832
0.138692
0.138546
0.138392
0.138231
0.138064
0.13789
0.137711
0.137527
0.137339
0.137147
0.136954
0.136759
0.136565
0.136372
0.13618
0.13599
0.135804
0.135621
0.135442
0.135267
0.135098
0.134935
0.13478
0.134631
0.134492
0.134362
0.134243
0.134135
0.134039
0.133956
0.133887
0.133834
0.133796
0.133774
0.13377
0.133783
0.133813
0.133858
0.133917
0.133987
0.13407
0.134164
0.134268
0.134383
0.134507
0.13464
0.134781
0.13493
0.135087
0.135249
0.135418
0.135591
0.135768
0.135948
0.136131
0.136316
0.136501
0.136687
0.136872
0.137055
0.137237
0.137416
0.137591
0.137763
0.13793
0.138091
0.138247
0.138397
0.140032
0.140092
0.140147
0.140199
0.140246
0.14029
0.140331
0.140369
0.140404
0.140437
0.140466
0.140492
0.140516
0.140537
0.140555
0.140571
0.140583
0.140593
0.1406
0.140604
0.140605
0.140604
0.140599
0.140592
0.140582
0.140569
0.140554
0.140535
0.140513
0.140488
0.14046
0.140429
0.140394
0.140357
0.140315
0.14027
0.140221
0.140168
0.140111
0.140049
0.139983
0.139912
0.139835
0.139754
0.139666
0.139573
0.139473
0.139367
0.139255
0.139135
0.139008
0.138874
0.138732
0.138583
0.138427
0.138263
0.138093
0.137916
0.137732
0.137544
0.137351
0.137155
0.136957
0.136759
0.13656
0.136363
0.136168
0.135975
0.135786
0.1356
0.135419
0.135243
0.135073
0.134909
0.134753
0.134604
0.134465
0.134335
0.134216
0.134109
0.134015
0.133934
0.133868
0.133817
0.133782
0.133765
0.133766
0.133784
0.13382
0.133871
0.133936
0.134014
0.134104
0.134205
0.134318
0.134441
0.134574
0.134716
0.134867
0.135027
0.135194
0.135367
0.135546
0.135731
0.135919
0.136111
0.136306
0.136502
0.1367
0.136897
0.137094
0.137289
0.137482
0.137672
0.137859
0.138041
0.138218
0.138389
0.138554
0.138712
0.140035
0.140102
0.140163
0.14022
0.140272
0.140321
0.140366
0.140408
0.140446
0.140481
0.140512
0.140541
0.140567
0.140589
0.140608
0.140625
0.140638
0.140648
0.140656
0.14066
0.140662
0.14066
0.140656
0.140649
0.140638
0.140625
0.140609
0.14059
0.140567
0.140542
0.140513
0.140481
0.140446
0.140407
0.140365
0.140319
0.140269
0.140216
0.140158
0.140095
0.140028
0.139956
0.139879
0.139796
0.139707
0.139613
0.139512
0.139405
0.139291
0.13917
0.139041
0.138905
0.138761
0.13861
0.138451
0.138284
0.13811
0.13793
0.137743
0.137551
0.137354
0.137154
0.136952
0.136749
0.136547
0.136347
0.136148
0.135953
0.135762
0.135575
0.135392
0.135214
0.135043
0.134878
0.134721
0.134572
0.134433
0.134304
0.134185
0.134079
0.133986
0.133907
0.133843
0.133795
0.133764
0.133751
0.133755
0.133779
0.133821
0.133878
0.133949
0.134034
0.134131
0.13424
0.13436
0.134492
0.134634
0.134786
0.134947
0.135116
0.135293
0.135478
0.135668
0.135864
0.136064
0.136268
0.136475
0.136683
0.136893
0.137103
0.137312
0.137519
0.137724
0.137926
0.138123
0.138316
0.138504
0.138685
0.13886
0.139027
0.140038
0.14011
0.140177
0.140239
0.140296
0.140349
0.140398
0.140443
0.140484
0.140522
0.140556
0.140586
0.140613
0.140637
0.140657
0.140674
0.140688
0.140699
0.140707
0.140711
0.140713
0.140711
0.140707
0.140699
0.140688
0.140675
0.140658
0.140638
0.140615
0.140589
0.140559
0.140527
0.14049
0.140451
0.140408
0.140361
0.14031
0.140255
0.140196
0.140132
0.140064
0.13999
0.139912
0.139828
0.139738
0.139642
0.13954
0.139431
0.139316
0.139193
0.139062
0.138924
0.138778
0.138624
0.138462
0.138293
0.138116
0.137932
0.137741
0.137545
0.137345
0.137141
0.136936
0.13673
0.136525
0.136322
0.136122
0.135925
0.135731
0.135543
0.135359
0.13518
0.135008
0.134843
0.134685
0.134536
0.134397
0.134268
0.13415
0.134045
0.133954
0.133876
0.133814
0.133769
0.133741
0.133731
0.133739
0.133768
0.133815
0.133877
0.133955
0.134046
0.13415
0.134267
0.134395
0.134535
0.134686
0.134847
0.135018
0.135197
0.135385
0.13558
0.135782
0.135989
0.136201
0.136417
0.136636
0.136857
0.137079
0.137301
0.137522
0.137742
0.137959
0.138173
0.138382
0.138586
0.138785
0.138977
0.139162
0.139339
0.140041
0.140118
0.14019
0.140257
0.140318
0.140375
0.140427
0.140475
0.140519
0.140559
0.140595
0.140627
0.140655
0.14068
0.140701
0.140719
0.140734
0.140745
0.140752
0.140757
0.140758
0.140757
0.140752
0.140743
0.140732
0.140718
0.1407
0.140679
0.140655
0.140628
0.140598
0.140564
0.140527
0.140486
0.140441
0.140393
0.140341
0.140285
0.140224
0.140159
0.140089
0.140015
0.139935
0.139849
0.139758
0.13966
0.139556
0.139446
0.139328
0.139203
0.13907
0.138929
0.138781
0.138624
0.13846
0.138287
0.138107
0.13792
0.137726
0.137527
0.137323
0.137116
0.136908
0.1367
0.136493
0.136288
0.136086
0.135888
0.135694
0.135504
0.13532
0.135141
0.134968
0.134802
0.134645
0.134496
0.134357
0.134228
0.134111
0.134007
0.133917
0.133841
0.133781
0.133738
0.133712
0.133705
0.133717
0.13375
0.133802
0.13387
0.133953
0.134051
0.134162
0.134285
0.134422
0.13457
0.134729
0.1349
0.13508
0.135269
0.135468
0.135673
0.135886
0.136105
0.136329
0.136557
0.136788
0.137021
0.137255
0.13749
0.137724
0.137956
0.138186
0.138412
0.138633
0.138849
0.139059
0.139263
0.139458
0.139645
0.140043
0.140126
0.140202
0.140273
0.140338
0.140398
0.140453
0.140504
0.14055
0.140592
0.14063
0.140663
0.140693
0.140718
0.14074
0.140759
0.140773
0.140784
0.140792
0.140797
0.140798
0.140795
0.14079
0.140781
0.140769
0.140753
0.140735
0.140713
0.140688
0.14066
0.140628
0.140593
0.140554
0.140512
0.140466
0.140416
0.140363
0.140305
0.140243
0.140176
0.140105
0.140028
0.139946
0.139859
0.139766
0.139666
0.13956
0.139447
0.139327
0.139199
0.139064
0.138921
0.13877
0.13861
0.138443
0.138267
0.138084
0.137894
0.137697
0.137495
0.137288
0.137079
0.136869
0.136659
0.136451
0.136245
0.136043
0.135844
0.13565
0.135459
0.135274
0.135095
0.134923
0.134757
0.1346
0.134451
0.134312
0.134184
0.134068
0.133965
0.133876
0.133801
0.133743
0.133702
0.133678
0.133674
0.133689
0.133725
0.133782
0.133855
0.133944
0.134048
0.134165
0.134296
0.13444
0.134596
0.134763
0.134943
0.135132
0.135331
0.13554
0.135756
0.13598
0.13621
0.136445
0.136685
0.136929
0.137174
0.137421
0.137669
0.137915
0.13816
0.138402
0.138641
0.138875
0.139103
0.139325
0.13954
0.139746
0.139944
0.140046
0.140132
0.140212
0.140287
0.140355
0.140419
0.140477
0.14053
0.140578
0.140621
0.14066
0.140695
0.140725
0.140752
0.140774
0.140792
0.140807
0.140818
0.140826
0.140829
0.14083
0.140827
0.14082
0.140811
0.140798
0.140781
0.140761
0.140738
0.140712
0.140682
0.140649
0.140613
0.140572
0.140529
0.140481
0.14043
0.140374
0.140315
0.14025
0.140182
0.140108
0.14003
0.139946
0.139856
0.139761
0.139659
0.13955
0.139435
0.139312
0.139182
0.139044
0.138898
0.138744
0.138581
0.138411
0.138232
0.138046
0.137852
0.137653
0.137448
0.137239
0.137029
0.136817
0.136607
0.136399
0.136194
0.135991
0.135793
0.135598
0.135408
0.135224
0.135045
0.134872
0.134707
0.13455
0.134402
0.134264
0.134137
0.134021
0.133919
0.133831
0.133757
0.133701
0.133661
0.13364
0.133637
0.133656
0.133695
0.133755
0.133833
0.133927
0.134036
0.13416
0.134298
0.134448
0.134612
0.134788
0.134976
0.135174
0.135383
0.135601
0.135828
0.136062
0.136303
0.13655
0.136802
0.137057
0.137315
0.137575
0.137835
0.138094
0.138352
0.138607
0.138859
0.139105
0.139346
0.13958
0.139807
0.140025
0.140234
0.140048
0.140138
0.140222
0.140299
0.140371
0.140436
0.140497
0.140552
0.140601
0.140646
0.140686
0.140722
0.140753
0.140779
0.140802
0.14082
0.140835
0.140845
0.140852
0.140855
0.140855
0.140851
0.140844
0.140833
0.140818
0.140801
0.14078
0.140755
0.140727
0.140696
0.140661
0.140623
0.140581
0.140535
0.140486
0.140432
0.140375
0.140313
0.140247
0.140176
0.1401
0.140019
0.139933
0.139841
0.139743
0.139638
0.139527
0.139409
0.139283
0.13915
0.139009
0.13886
0.138702
0.138537
0.138363
0.138181
0.137992
0.137796
0.137594
0.137387
0.137177
0.136966
0.136755
0.136545
0.136338
0.136133
0.135932
0.135734
0.135541
0.135351
0.135167
0.134989
0.134817
0.134653
0.134497
0.134349
0.134212
0.134085
0.133971
0.133869
0.133782
0.13371
0.133654
0.133616
0.133596
0.133596
0.133616
0.133658
0.133721
0.133804
0.133903
0.134017
0.134147
0.134291
0.134448
0.134619
0.134803
0.134999
0.135206
0.135423
0.135651
0.135888
0.136133
0.136385
0.136643
0.136906
0.137173
0.137444
0.137716
0.137988
0.138261
0.138531
0.138799
0.139064
0.139323
0.139577
0.139824
0.140063
0.140294
0.140514
0.140049
0.140143
0.14023
0.14031
0.140384
0.140452
0.140514
0.14057
0.140621
0.140667
0.140708
0.140743
0.140775
0.140801
0.140824
0.140842
0.140856
0.140866
0.140872
0.140874
0.140873
0.140867
0.140859
0.140847
0.140831
0.140812
0.140789
0.140763
0.140733
0.1407
0.140664
0.140623
0.140579
0.140532
0.14048
0.140424
0.140364
0.1403
0.140232
0.140158
0.14008
0.139996
0.139907
0.139812
0.139711
0.139603
0.139489
0.139368
0.139239
0.139102
0.138958
0.138805
0.138645
0.138476
0.138299
0.138114
0.137922
0.137724
0.13752
0.137312
0.137103
0.136892
0.136682
0.136474
0.136269
0.136066
0.135866
0.13567
0.135477
0.135289
0.135107
0.134929
0.134759
0.134595
0.13444
0.134293
0.134157
0.134031
0.133917
0.133817
0.13373
0.133659
0.133604
0.133567
0.133549
0.13355
0.133572
0.133616
0.133682
0.133768
0.133871
0.133991
0.134126
0.134275
0.134439
0.134617
0.134808
0.135011
0.135226
0.135453
0.13569
0.135936
0.136191
0.136454
0.136723
0.136997
0.137276
0.137558
0.137843
0.138128
0.138413
0.138697
0.138978
0.139255
0.139528
0.139795
0.140055
0.140307
0.14055
0.140783
0.140051
0.140147
0.140236
0.140319
0.140395
0.140464
0.140528
0.140585
0.140637
0.140683
0.140724
0.14076
0.140791
0.140818
0.140839
0.140857
0.14087
0.140879
0.140884
0.140885
0.140882
0.140876
0.140866
0.140852
0.140835
0.140814
0.140789
0.140761
0.14073
0.140695
0.140656
0.140613
0.140567
0.140517
0.140463
0.140405
0.140342
0.140276
0.140204
0.140128
0.140047
0.13996
0.139868
0.139769
0.139665
0.139554
0.139436
0.139311
0.139179
0.139039
0.138891
0.138735
0.138571
0.138399
0.138219
0.138031
0.137837
0.137637
0.137433
0.137225
0.137017
0.136808
0.136601
0.136395
0.136192
0.135992
0.135794
0.1356
0.135409
0.135223
0.135042
0.134866
0.134697
0.134534
0.13438
0.134235
0.134099
0.133974
0.133861
0.133761
0.133676
0.133606
0.133552
0.133515
0.133498
0.1335
0.133524
0.133569
0.133636
0.133725
0.133833
0.133957
0.134097
0.134252
0.134422
0.134606
0.134803
0.135014
0.135237
0.135471
0.135717
0.135972
0.136237
0.13651
0.136789
0.137075
0.137365
0.137659
0.137956
0.138253
0.138551
0.138848
0.139142
0.139433
0.139719
0.139999
0.140272
0.140537
0.140793
0.14104
0.140052
0.140151
0.140242
0.140326
0.140403
0.140474
0.140538
0.140596
0.140649
0.140695
0.140736
0.140772
0.140802
0.140828
0.140849
0.140865
0.140877
0.140885
0.140889
0.140888
0.140884
0.140876
0.140864
0.140849
0.140829
0.140807
0.14078
0.14075
0.140716
0.140679
0.140638
0.140593
0.140544
0.140491
0.140435
0.140374
0.140308
0.140239
0.140164
0.140085
0.14
0.13991
0.139814
0.139713
0.139605
0.13949
0.139368
0.13924
0.139104
0.13896
0.138808
0.138648
0.138481
0.138305
0.138122
0.137933
0.137737
0.137537
0.137333
0.137128
0.136922
0.136717
0.136513
0.136311
0.136111
0.135913
0.135718
0.135526
0.135338
0.135154
0.134974
0.1348
0.134633
0.134472
0.134319
0.134174
0.13404
0.133916
0.133804
0.133705
0.13362
0.13355
0.133497
0.133461
0.133444
0.133447
0.133471
0.133517
0.133586
0.133677
0.133788
0.133916
0.134061
0.134221
0.134396
0.134585
0.134789
0.135006
0.135237
0.135479
0.135733
0.135997
0.13627
0.136553
0.136842
0.137139
0.13744
0.137746
0.138054
0.138364
0.138674
0.138984
0.139291
0.139595
0.139895
0.140188
0.140475
0.140754
0.141024
0.141283
0.140053
0.140154
0.140246
0.140332
0.14041
0.140481
0.140546
0.140604
0.140656
0.140702
0.140743
0.140778
0.140807
0.140832
0.140852
0.140867
0.140878
0.140884
0.140886
0.140884
0.140878
0.140868
0.140854
0.140837
0.140815
0.14079
0.140761
0.140729
0.140693
0.140653
0.140609
0.140561
0.14051
0.140454
0.140395
0.140331
0.140262
0.140189
0.140111
0.140028
0.13994
0.139846
0.139747
0.139641
0.139529
0.13941
0.139285
0.139152
0.139012
0.138864
0.138708
0.138545
0.138374
0.138196
0.138012
0.137821
0.137625
0.137426
0.137225
0.137023
0.136821
0.13662
0.13642
0.136222
0.136025
0.135831
0.135639
0.13545
0.135264
0.135082
0.134905
0.134733
0.134567
0.134408
0.134256
0.134113
0.13398
0.133857
0.133746
0.133647
0.133563
0.133494
0.133441
0.133406
0.133389
0.133392
0.133416
0.133463
0.133532
0.133625
0.133738
0.13387
0.134018
0.134182
0.134362
0.134557
0.134766
0.13499
0.135227
0.135476
0.135737
0.136009
0.136292
0.136583
0.136883
0.137189
0.137501
0.137818
0.138138
0.13846
0.138782
0.139104
0.139425
0.139742
0.140055
0.140363
0.140663
0.140956
0.141239
0.141513
0.140054
0.140156
0.140249
0.140335
0.140414
0.140486
0.14055
0.140608
0.14066
0.140705
0.140745
0.140779
0.140807
0.14083
0.140849
0.140862
0.140871
0.140876
0.140876
0.140872
0.140864
0.140851
0.140835
0.140815
0.140792
0.140764
0.140733
0.140698
0.140659
0.140616
0.14057
0.140519
0.140464
0.140406
0.140343
0.140275
0.140203
0.140127
0.140045
0.139958
0.139866
0.139768
0.139665
0.139555
0.139438
0.139315
0.139186
0.139049
0.138904
0.138753
0.138593
0.138427
0.138254
0.138074
0.137888
0.137698
0.137504
0.137308
0.137111
0.136914
0.136717
0.13652
0.136325
0.136131
0.135938
0.135747
0.135558
0.135372
0.13519
0.135011
0.134836
0.134666
0.134502
0.134345
0.134195
0.134053
0.13392
0.133799
0.133688
0.13359
0.133506
0.133437
0.133385
0.133349
0.133333
0.133336
0.13336
0.133406
0.133475
0.133568
0.133684
0.133818
0.133969
0.134137
0.134321
0.134521
0.134735
0.134964
0.135207
0.135463
0.135731
0.136011
0.136301
0.136601
0.13691
0.137226
0.137548
0.137875
0.138207
0.13854
0.138875
0.13921
0.139543
0.139874
0.1402
0.140522
0.140836
0.141143
0.14144
0.141728
0.140054
0.140157
0.140251
0.140338
0.140416
0.140487
0.140551
0.140609
0.140659
0.140703
0.140742
0.140774
0.140801
0.140822
0.140839
0.14085
0.140857
0.14086
0.140858
0.140851
0.140841
0.140826
0.140808
0.140785
0.140759
0.140729
0.140695
0.140657
0.140615
0.140569
0.140519
0.140466
0.140408
0.140345
0.140279
0.140208
0.140132
0.140051
0.139965
0.139874
0.139778
0.139676
0.139568
0.139453
0.139333
0.139205
0.139071
0.13893
0.138781
0.138626
0.138464
0.138295
0.13812
0.13794
0.137756
0.137568
0.137378
0.137187
0.136995
0.136804
0.136612
0.13642
0.136229
0.13604
0.135851
0.135664
0.135479
0.135296
0.135116
0.13494
0.134768
0.1346
0.134438
0.134283
0.134134
0.133994
0.133863
0.133742
0.133632
0.133535
0.133451
0.133382
0.133329
0.133294
0.133277
0.133279
0.133303
0.133348
0.133417
0.133509
0.133625
0.133761
0.133916
0.134087
0.134275
0.134478
0.134697
0.134931
0.135179
0.135441
0.135715
0.136002
0.1363
0.136608
0.136925
0.13725
0.137582
0.137919
0.138261
0.138606
0.138953
0.1393
0.139646
0.13999
0.14033
0.140665
0.140993
0.141314
0.141626
0.141928
0.140055
0.140158
0.140252
0.140338
0.140416
0.140486
0.140549
0.140605
0.140654
0.140697
0.140733
0.140764
0.140789
0.140808
0.140822
0.140832
0.140836
0.140836
0.140832
0.140823
0.14081
0.140793
0.140771
0.140746
0.140717
0.140684
0.140647
0.140606
0.140561
0.140512
0.140458
0.140401
0.140339
0.140273
0.140203
0.140128
0.140048
0.139963
0.139873
0.139777
0.139676
0.139569
0.139456
0.139337
0.139212
0.13908
0.138942
0.138797
0.138645
0.138487
0.138323
0.138154
0.137979
0.137801
0.13762
0.137438
0.137253
0.137068
0.136882
0.136696
0.136509
0.136322
0.136136
0.135951
0.135766
0.135583
0.135401
0.135222
0.135045
0.134872
0.134702
0.134537
0.134377
0.134224
0.134077
0.133938
0.133808
0.133688
0.133579
0.133482
0.133398
0.133329
0.133276
0.13324
0.133222
0.133224
0.133246
0.133291
0.133358
0.133449
0.133565
0.133702
0.133858
0.134032
0.134223
0.134429
0.134652
0.13489
0.135143
0.13541
0.13569
0.135983
0.136287
0.136603
0.136928
0.137261
0.137602
0.13795
0.138302
0.138658
0.139016
0.139375
0.139733
0.14009
0.140443
0.140792
0.141135
0.14147
0.141797
0.142113
0.140055
0.140157
0.140251
0.140336
0.140414
0.140483
0.140544
0.140598
0.140645
0.140686
0.14072
0.140748
0.140771
0.140788
0.140799
0.140806
0.140808
0.140805
0.140798
0.140787
0.140771
0.140751
0.140726
0.140698
0.140666
0.14063
0.140589
0.140545
0.140496
0.140444
0.140387
0.140325
0.14026
0.14019
0.140115
0.140035
0.139951
0.139861
0.139767
0.139666
0.139561
0.139449
0.139331
0.139208
0.139078
0.138942
0.1388
0.138652
0.138498
0.138339
0.138176
0.138008
0.137837
0.137664
0.137489
0.137312
0.137133
0.136954
0.136773
0.136592
0.136411
0.136229
0.136047
0.135866
0.135686
0.135506
0.135328
0.135152
0.134979
0.134808
0.134642
0.134479
0.134321
0.13417
0.134024
0.133887
0.133758
0.133639
0.13353
0.133433
0.13335
0.133281
0.133227
0.13319
0.133171
0.133171
0.133192
0.133235
0.1333
0.133389
0.133503
0.133641
0.133798
0.133974
0.134167
0.134376
0.134602
0.134843
0.1351
0.135371
0.135657
0.135955
0.136265
0.136587
0.13692
0.137261
0.137611
0.137967
0.138329
0.138695
0.139064
0.139435
0.139805
0.140175
0.140541
0.140904
0.141261
0.14161
0.141952
0.142283
0.140055
0.140157
0.140249
0.140333
0.140409
0.140476
0.140536
0.140587
0.140632
0.14067
0.140702
0.140727
0.140747
0.140761
0.14077
0.140774
0.140773
0.140767
0.140757
0.140742
0.140723
0.1407
0.140673
0.140641
0.140606
0.140566
0.140522
0.140474
0.140422
0.140365
0.140304
0.140239
0.140169
0.140095
0.140015
0.139931
0.139842
0.139748
0.139648
0.139543
0.139432
0.139316
0.139194
0.139066
0.138933
0.138794
0.13865
0.138501
0.138348
0.13819
0.13803
0.137867
0.137702
0.137534
0.137365
0.137194
0.137021
0.136847
0.136672
0.136496
0.136319
0.136143
0.135965
0.135788
0.135612
0.135436
0.135262
0.13509
0.134919
0.134752
0.134587
0.134427
0.134272
0.134122
0.133978
0.133842
0.133714
0.133596
0.133487
0.133391
0.133307
0.133237
0.133182
0.133144
0.133124
0.133122
0.133141
0.133182
0.133245
0.133331
0.133443
0.133579
0.133737
0.133914
0.134108
0.13432
0.134548
0.134792
0.135052
0.135327
0.135616
0.135919
0.136235
0.136563
0.136901
0.13725
0.137607
0.137972
0.138343
0.138719
0.139099
0.13948
0.139863
0.140245
0.140624
0.141
0.141371
0.141735
0.142091
0.142438
0.140054
0.140155
0.140246
0.140328
0.140402
0.140467
0.140524
0.140573
0.140615
0.14065
0.140679
0.140701
0.140718
0.140729
0.140734
0.140735
0.140731
0.140722
0.140709
0.140691
0.140668
0.140642
0.140611
0.140576
0.140537
0.140493
0.140446
0.140394
0.140338
0.140277
0.140212
0.140142
0.140068
0.139989
0.139905
0.139816
0.139722
0.139623
0.139518
0.139409
0.139294
0.139173
0.139048
0.138917
0.138782
0.138642
0.138499
0.138352
0.138202
0.13805
0.137895
0.137737
0.137578
0.137416
0.137252
0.137087
0.13692
0.136751
0.136581
0.13641
0.136238
0.136065
0.135893
0.13572
0.135547
0.135375
0.135205
0.135035
0.134868
0.134703
0.134542
0.134384
0.13423
0.134082
0.13394
0.133805
0.133678
0.13356
0.133452
0.133356
0.133271
0.133201
0.133145
0.133105
0.133083
0.13308
0.133096
0.133134
0.133194
0.133277
0.133386
0.133519
0.133677
0.133853
0.134048
0.134261
0.134491
0.134737
0.134999
0.135277
0.13557
0.135877
0.136197
0.13653
0.136874
0.137229
0.137594
0.137966
0.138346
0.138731
0.13912
0.139512
0.139906
0.1403
0.140692
0.141081
0.141465
0.141844
0.142214
0.142576
0.140053
0.140152
0.140242
0.140322
0.140392
0.140455
0.140508
0.140555
0.140593
0.140625
0.14065
0.140669
0.140682
0.14069
0.140692
0.14069
0.140682
0.14067
0.140653
0.140631
0.140606
0.140576
0.140541
0.140502
0.140459
0.140412
0.140361
0.140305
0.140244
0.140179
0.14011
0.140035
0.139956
0.139873
0.139784
0.13969
0.139592
0.139488
0.139379
0.139266
0.139148
0.139025
0.138898
0.138768
0.138634
0.138497
0.138358
0.138216
0.138072
0.137925
0.137775
0.137623
0.137469
0.137312
0.137154
0.136994
0.136831
0.136668
0.136502
0.136336
0.136169
0.136
0.135832
0.135663
0.135494
0.135326
0.135158
0.134992
0.134828
0.134666
0.134506
0.134351
0.134199
0.134053
0.133912
0.133779
0.133652
0.133535
0.133427
0.13333
0.133245
0.133173
0.133116
0.133075
0.13305
0.133044
0.133058
0.133093
0.133149
0.133229
0.133333
0.133463
0.133618
0.133794
0.133989
0.134202
0.134432
0.13468
0.134944
0.135224
0.135519
0.135829
0.136153
0.13649
0.136839
0.1372
0.137571
0.13795
0.138337
0.138731
0.139129
0.139532
0.139936
0.140341
0.140745
0.141147
0.141545
0.141937
0.142323
0.1427
0.140052
0.140149
0.140236
0.140313
0.140381
0.14044
0.14049
0.140532
0.140568
0.140596
0.140617
0.140632
0.140642
0.140646
0.140644
0.140638
0.140627
0.140611
0.14059
0.140565
0.140536
0.140502
0.140464
0.140421
0.140374
0.140323
0.140267
0.140207
0.140142
0.140073
0.139999
0.13992
0.139836
0.139748
0.139655
0.139557
0.139455
0.139348
0.139237
0.139121
0.139003
0.138881
0.138757
0.138631
0.138502
0.13837
0.138236
0.138099
0.13796
0.137818
0.137673
0.137527
0.137377
0.137226
0.137073
0.136917
0.13676
0.1366
0.13644
0.136278
0.136114
0.13595
0.135785
0.13562
0.135455
0.13529
0.135126
0.134962
0.134801
0.134641
0.134484
0.134331
0.134181
0.134036
0.133897
0.133764
0.133639
0.133521
0.133413
0.133316
0.13323
0.133157
0.133098
0.133055
0.133028
0.133019
0.133029
0.13306
0.133112
0.133188
0.133288
0.133413
0.133564
0.133738
0.133932
0.134144
0.134375
0.134623
0.134887
0.135168
0.135465
0.135778
0.136104
0.136445
0.136798
0.137163
0.137539
0.137925
0.138319
0.13872
0.139127
0.139539
0.139953
0.140369
0.140785
0.141199
0.14161
0.142016
0.142416
0.142808
0.140051
0.140145
0.140229
0.140303
0.140367
0.140422
0.140468
0.140507
0.140538
0.140562
0.140579
0.14059
0.140596
0.140596
0.140591
0.14058
0.140565
0.140546
0.140521
0.140492
0.140459
0.140421
0.140379
0.140333
0.140282
0.140226
0.140166
0.140102
0.140033
0.139959
0.139881
0.139798
0.13971
0.139618
0.139522
0.139421
0.139317
0.13921
0.1391
0.138987
0.138873
0.138756
0.138637
0.138515
0.138391
0.138265
0.138135
0.138004
0.137869
0.137732
0.137593
0.137451
0.137306
0.13716
0.137011
0.13686
0.136707
0.136552