/*--------------------------------*- C++ -*----------------------------------*\
  =========                 |
  \\      /  F ield         | OpenFOAM: The Open Source CFD Toolbox
   \\    /   O peration     | Website:  https://openfoam.org
    \\  /    A nd           | Version:  8
     \\/     M anipulation  |
\*---------------------------------------------------------------------------*/
FoamFile
{
    version     2.0;
    format      ascii;
    class       volScalarField;
    location    "0.01961";
    object      p;
}
// * * * * * * * * * * * * * * * * * * * * * * * * * * * * * * * * * * * * * //

dimensions      [0 2 -2 0 0 0 0];

internalField   nonuniform List<scalar> 
108821
(
0.782156
0.775877
0.770698
0.765718
0.760857
0.755977
0.751013
0.745971
0.740857
0.735673
0.730412
0.725077
0.719673
0.714199
0.708662
0.703059
0.697393
0.691671
0.685892
0.680059
0.674173
0.668239
0.662257
0.65623
0.650158
0.644047
0.637894
0.631701
0.625474
0.619211
0.612916
0.606587
0.600227
0.593839
0.587421
0.580976
0.574505
0.568007
0.561487
0.554943
0.548379
0.541792
0.535183
0.528554
0.521906
0.51524
0.508557
0.501856
0.495137
0.488402
0.481652
0.474887
0.468106
0.461312
0.454503
0.447681
0.440845
0.433997
0.427135
0.420261
0.413377
0.406479
0.399569
0.392648
0.385716
0.378773
0.371818
0.364853
0.357878
0.350891
0.343895
0.336887
0.329869
0.32284
0.315802
0.308753
0.301693
0.294625
0.287545
0.280456
0.273354
0.266244
0.259123
0.251993
0.24485
0.237696
0.230536
0.223361
0.216177
0.208981
0.201774
0.194558
0.187329
0.180089
0.172838
0.165576
0.158302
0.151015
0.143717
0.136408
0.129085
0.121751
0.114404
0.107044
0.0996719
0.0922882
0.0848898
0.0774782
0.0700535
0.0626171
0.0551648
0.0476991
0.0402198
0.0327255
0.0252203
0.0176965
0.0101594
0.00260973
-0.00495604
-0.0125368
-0.0201339
-0.0277444
-0.035371
-0.0430116
-0.0506706
-0.0583434
-0.0660325
-0.073738
-0.0814589
-0.0891963
-0.0969487
-0.104718
-0.112504
-0.120305
-0.128125
-0.13596
-0.143811
-0.15168
-0.159565
-0.167466
-0.175382
-0.183317
-0.191268
-0.199234
-0.207217
-0.215216
-0.223231
-0.231262
-0.239309
-0.247371
-0.255449
-0.263542
-0.27165
-0.279771
-0.287906
-0.296056
-0.30422
-0.312397
-0.320587
-0.328787
-0.336998
-0.345222
-0.353456
-0.361702
-0.369955
-0.378216
-0.386486
-0.39476
-0.403042
-0.411327
-0.419615
-0.427908
-0.436201
-0.444497
-0.45279
-0.461077
-0.469365
-0.477644
-0.485918
-0.494181
-0.502437
-0.510678
-0.518905
-0.527116
-0.535313
-0.543487
-0.551636
-0.559766
-0.56787
-0.575951
-0.584005
-0.592027
-0.600036
-0.608031
-0.616005
-0.623955
-0.631991
-0.640352
-0.64922
-0.659981
0.785441
0.77936
0.773963
0.768736
0.763774
0.758908
0.754001
0.749017
0.743953
0.738815
0.733602
0.728315
0.722955
0.717521
0.712022
0.706457
0.700825
0.695134
0.689383
0.683575
0.677715
0.671799
0.665836
0.659825
0.653766
0.647665
0.641521
0.635334
0.62911
0.622849
0.616551
0.61022
0.603854
0.597458
0.591031
0.584573
0.578088
0.571576
0.565037
0.558474
0.551886
0.545276
0.538643
0.531987
0.525309
0.518613
0.511898
0.505163
0.498409
0.491638
0.484849
0.478044
0.471222
0.464385
0.457532
0.450664
0.443782
0.436886
0.429975
0.423051
0.416113
0.409163
0.402199
0.395223
0.388235
0.381233
0.374221
0.367197
0.360161
0.353112
0.346054
0.338982
0.331901
0.324807
0.317703
0.310587
0.30346
0.296323
0.289175
0.282015
0.274844
0.267662
0.26047
0.253266
0.246051
0.238824
0.231588
0.224339
0.217079
0.209808
0.202525
0.195231
0.187926
0.180608
0.173279
0.165938
0.158585
0.15122
0.143842
0.136454
0.12905
0.121636
0.114208
0.106768
0.0993151
0.0918492
0.0843702
0.0768769
0.0693712
0.0618518
0.0543186
0.0467714
0.0392103
0.0316348
0.0240465
0.016442
0.00882385
0.00119146
-0.00645539
-0.0141177
-0.0217948
-0.0294872
-0.0371939
-0.0449158
-0.0526537
-0.0604073
-0.0681755
-0.0759598
-0.0837594
-0.0915753
-0.0994056
-0.107253
-0.115116
-0.122994
-0.130888
-0.1388
-0.146725
-0.154668
-0.162626
-0.170599
-0.178589
-0.186594
-0.194615
-0.202651
-0.210703
-0.218769
-0.226852
-0.234948
-0.243059
-0.251184
-0.259324
-0.267479
-0.275646
-0.283826
-0.292019
-0.300224
-0.308443
-0.316673
-0.324913
-0.333163
-0.341424
-0.349694
-0.357974
-0.366261
-0.374556
-0.382857
-0.391164
-0.399473
-0.407788
-0.416104
-0.424424
-0.432741
-0.441058
-0.449377
-0.457688
-0.465994
-0.474295
-0.482587
-0.490869
-0.499142
-0.507398
-0.515642
-0.523869
-0.532075
-0.540264
-0.548425
-0.556564
-0.564682
-0.572767
-0.580827
-0.588861
-0.596868
-0.604858
-0.612821
-0.620769
-0.628766
-0.637046
-0.645906
-0.655217
-0.665798
0.78726
0.782511
0.777228
0.771854
0.766734
0.761823
0.75696
0.752033
0.747022
0.741936
0.73677
0.731531
0.726216
0.720828
0.715369
0.709842
0.704247
0.69859
0.692869
0.687091
0.681254
0.675364
0.669418
0.663425
0.657382
0.651294
0.64516
0.638981
0.632763
0.626504
0.620207
0.613875
0.607506
0.601104
0.594668
0.588201
0.581703
0.575177
0.568622
0.56204
0.555432
0.548799
0.542143
0.535461
0.528757
0.52203
0.515284
0.508516
0.501729
0.494921
0.488095
0.48125
0.474388
0.467508
0.460612
0.4537
0.446771
0.439826
0.432867
0.425892
0.418903
0.411899
0.404882
0.39785
0.390805
0.383747
0.376675
0.36959
0.362494
0.355383
0.348261
0.341127
0.33398
0.32682
0.319649
0.312466
0.305271
0.298064
0.290846
0.283615
0.276373
0.269118
0.261853
0.254575
0.247286
0.239983
0.232672
0.225347
0.21801
0.210662
0.2033
0.195929
0.188544
0.181147
0.173738
0.166317
0.158883
0.151437
0.143978
0.136508
0.129022
0.121527
0.114016
0.106493
0.0989571
0.0914084
0.0838461
0.0762704
0.0686803
0.0610784
0.0534602
0.0458307
0.0381851
0.0305266
0.0228549
0.0151662
0.00746534
-0.000250987
-0.00797999
-0.015726
-0.0234859
-0.0312605
-0.0390496
-0.0468538
-0.0546736
-0.0625073
-0.070357
-0.0782224
-0.0861027
-0.0939964
-0.101907
-0.109833
-0.117773
-0.12573
-0.133702
-0.141688
-0.149691
-0.157708
-0.16574
-0.173788
-0.181849
-0.189926
-0.198017
-0.206123
-0.214244
-0.222378
-0.230526
-0.238689
-0.246864
-0.255054
-0.263256
-0.271471
-0.279697
-0.287936
-0.296185
-0.304447
-0.312719
-0.321002
-0.329291
-0.337591
-0.345899
-0.354216
-0.362539
-0.370868
-0.379202
-0.38754
-0.395884
-0.404227
-0.412573
-0.420918
-0.429265
-0.437608
-0.445948
-0.454286
-0.462615
-0.470935
-0.479249
-0.487549
-0.495841
-0.504115
-0.512377
-0.520617
-0.52884
-0.537039
-0.545217
-0.553368
-0.561492
-0.569589
-0.577659
-0.585697
-0.593712
-0.601697
-0.609662
-0.617598
-0.625543
-0.633688
-0.642312
-0.651503
-0.66072
-0.669181
0.788469
0.785105
0.780375
0.775056
0.769795
0.764784
0.759909
0.755028
0.750074
0.745039
0.739926
0.734735
0.729467
0.724126
0.718709
0.713222
0.707667
0.702044
0.696357
0.690608
0.684801
0.678934
0.673012
0.667039
0.661014
0.65494
0.648818
0.64265
0.636439
0.630185
0.62389
0.617559
0.611188
0.60478
0.598339
0.591865
0.585356
0.578817
0.572248
0.565648
0.559021
0.552368
0.545688
0.538983
0.532252
0.525497
0.51872
0.511922
0.5051
0.498257
0.491394
0.484511
0.477608
0.470687
0.463749
0.456791
0.449815
0.442824
0.435815
0.42879
0.421749
0.414692
0.40762
0.400534
0.393431
0.386315
0.379183
0.372039
0.36488
0.357708
0.350522
0.343322
0.33611
0.328883
0.321644
0.314393
0.307128
0.29985
0.292561
0.285257
0.277942
0.270614
0.263274
0.255921
0.248556
0.241177
0.233788
0.226385
0.21897
0.211542
0.204101
0.196649
0.189184
0.181706
0.174215
0.166712
0.159196
0.151667
0.144125
0.13657
0.129002
0.121421
0.113827
0.106219
0.0985982
0.0909643
0.0833164
0.0756554
0.0679802
0.0602925
0.0525896
0.044873
0.0371431
0.0293986
0.0216409
0.0138679
0.00608163
-0.00172049
-0.00953475
-0.0173653
-0.0252088
-0.0330689
-0.0409412
-0.0488297
-0.0567331
-0.0646492
-0.0725819
-0.0805297
-0.0884905
-0.0964668
-0.104458
-0.112463
-0.120484
-0.128518
-0.136569
-0.144632
-0.152712
-0.160805
-0.168912
-0.177033
-0.185169
-0.193317
-0.201481
-0.209656
-0.217847
-0.22605
-0.234264
-0.242492
-0.250734
-0.258986
-0.26725
-0.275526
-0.283813
-0.292107
-0.300414
-0.30873
-0.317057
-0.325389
-0.33373
-0.342078
-0.350433
-0.358794
-0.36716
-0.375529
-0.383903
-0.392276
-0.400653
-0.409031
-0.417407
-0.42578
-0.434152
-0.442519
-0.45088
-0.459235
-0.467581
-0.475914
-0.484237
-0.492546
-0.500841
-0.509121
-0.517378
-0.525616
-0.533832
-0.542025
-0.550189
-0.558325
-0.566435
-0.574512
-0.582561
-0.590581
-0.59857
-0.606534
-0.614472
-0.622401
-0.630438
-0.638826
-0.64777
-0.656961
-0.665345
-0.671579
0.790198
0.787302
0.783225
0.778218
0.772944
0.767809
0.762875
0.75801
0.753106
0.748126
0.743066
0.737925
0.732708
0.727413
0.722043
0.716599
0.711085
0.7055
0.699848
0.694131
0.688354
0.682516
0.67662
0.670669
0.664664
0.658605
0.652498
0.646342
0.640141
0.633894
0.627605
0.621275
0.614904
0.608495
0.602049
0.595567
0.58905
0.582499
0.575917
0.569302
0.562659
0.555985
0.549283
0.542555
0.535799
0.529017
0.522211
0.51538
0.508526
0.50165
0.494749
0.487829
0.480887
0.473924
0.466942
0.45994
0.452918
0.445879
0.438821
0.431745
0.424653
0.417543
0.410416
0.403273
0.396114
0.388939
0.381748
0.374541
0.367321
0.360085
0.352834
0.345569
0.33829
0.330996
0.323688
0.316366
0.309031
0.301682
0.294319
0.286943
0.279554
0.27215
0.264734
0.257304
0.249862
0.242405
0.234936
0.227454
0.219959
0.21245
0.204928
0.197394
0.189846
0.182284
0.174711
0.167123
0.159523
0.151909
0.144281
0.136641
0.128987
0.12132
0.113639
0.105945
0.0982374
0.0905159
0.0827815
0.0750323
0.0672702
0.0594943
0.0517043
0.0439
0.0360828
0.0282505
0.0204054
0.0125446
0.00467127
-0.00321685
-0.0111187
-0.0190365
-0.0269666
-0.0349111
-0.0428706
-0.0508447
-0.0588319
-0.0668343
-0.0748503
-0.0828816
-0.0909257
-0.0989852
-0.107059
-0.115145
-0.123246
-0.131362
-0.139491
-0.147634
-0.15579
-0.16396
-0.172144
-0.18034
-0.188549
-0.196772
-0.205007
-0.213254
-0.221515
-0.229786
-0.238068
-0.246364
-0.25467
-0.262985
-0.271313
-0.279647
-0.287993
-0.296348
-0.30471
-0.313081
-0.32146
-0.329842
-0.338234
-0.346631
-0.35503
-0.363434
-0.371842
-0.380252
-0.388663
-0.397072
-0.405481
-0.413889
-0.422295
-0.430695
-0.43909
-0.447479
-0.455858
-0.464229
-0.472588
-0.480935
-0.489266
-0.49758
-0.505877
-0.514154
-0.522409
-0.530643
-0.53885
-0.547031
-0.555181
-0.563302
-0.571391
-0.579449
-0.587476
-0.595473
-0.603439
-0.611379
-0.619301
-0.627274
-0.635485
-0.644162
-0.653216
-0.661978
-0.669361
-0.674901
0.792323
0.789342
0.785733
0.781204
0.776097
0.770908
0.765884
0.760995
0.756122
0.751196
0.746188
0.741101
0.735933
0.73069
0.725366
0.719968
0.714497
0.708952
0.703339
0.69766
0.691914
0.686105
0.680237
0.67431
0.668327
0.662288
0.656198
0.650057
0.643868
0.637632
0.631349
0.625022
0.618654
0.612244
0.605796
0.599309
0.592785
0.586224
0.57963
0.573002
0.566343
0.559651
0.552928
0.546177
0.539397
0.532589
0.525755
0.518893
0.512007
0.505097
0.498163
0.491204
0.484222
0.477218
0.470193
0.463148
0.45608
0.448993
0.441887
0.43476
0.427615
0.420452
0.41327
0.406071
0.398854
0.391619
0.384368
0.377101
0.369817
0.362517
0.355201
0.347868
0.340521
0.33316
0.325781
0.31839
0.310981
0.30356
0.296123
0.288672
0.281206
0.273727
0.266233
0.258726
0.251204
0.243667
0.236118
0.228554
0.220977
0.213385
0.205781
0.198162
0.19053
0.182883
0.175224
0.167551
0.159864
0.152164
0.144448
0.136721
0.128979
0.121224
0.113454
0.105672
0.0978751
0.0900643
0.0822408
0.0744018
0.0665507
0.0586843
0.0508051
0.0429111
0.0350043
0.027082
0.019148
0.0111978
0.00323445
-0.00474234
-0.0127333
-0.0207384
-0.0287576
-0.0367902
-0.0448378
-0.0528976
-0.0609733
-0.0690605
-0.0771643
-0.085279
-0.0934084
-0.101552
-0.10971
-0.117879
-0.126062
-0.134259
-0.142469
-0.150691
-0.158927
-0.167174
-0.175436
-0.183708
-0.191992
-0.20029
-0.208597
-0.216916
-0.225247
-0.233587
-0.241939
-0.250301
-0.258672
-0.267052
-0.275441
-0.283836
-0.292241
-0.300654
-0.309072
-0.317498
-0.325928
-0.334362
-0.342803
-0.351246
-0.35969
-0.368137
-0.376585
-0.385034
-0.393481
-0.401925
-0.410366
-0.418804
-0.427236
-0.435661
-0.444079
-0.452486
-0.460881
-0.469266
-0.477636
-0.485992
-0.494329
-0.502646
-0.510943
-0.51922
-0.527471
-0.535693
-0.543888
-0.552056
-0.56019
-0.568291
-0.576362
-0.584395
-0.5924
-0.600373
-0.608318
-0.616235
-0.624177
-0.632265
-0.640704
-0.649557
-0.658423
-0.666478
-0.67317
-0.678945
0.794575
0.79136
0.788002
0.783943
0.779158
0.774034
0.768946
0.764002
0.759134
0.754246
0.749293
0.74426
0.739146
0.733952
0.72868
0.723329
0.717903
0.712403
0.70683
0.701188
0.695478
0.689702
0.683862
0.677964
0.672005
0.665989
0.659918
0.653794
0.647619
0.641393
0.635119
0.628801
0.622436
0.616028
0.609579
0.603089
0.596559
0.589991
0.583386
0.576747
0.570071
0.563364
0.556622
0.54985
0.543047
0.536214
0.529351
0.522462
0.515545
0.508601
0.50163
0.494636
0.487616
0.480571
0.473504
0.466415
0.459301
0.452168
0.445012
0.437835
0.430637
0.423421
0.416183
0.408928
0.401652
0.394358
0.387047
0.379717
0.372369
0.365004
0.357622
0.350223
0.342807
0.335375
0.327927
0.320462
0.312981
0.305485
0.297973
0.290446
0.282904
0.275346
0.267773
0.260185
0.252583
0.244965
0.237334
0.229686
0.222026
0.21435
0.20666
0.198955
0.191237
0.183505
0.175756
0.167997
0.16022
0.152431
0.144627
0.13681
0.128978
0.121133
0.113272
0.105399
0.0975101
0.0896102
0.0816931
0.0737642
0.0658207
0.0578626
0.0498918
0.041906
0.0339075
0.0258937
0.0178673
0.00982634
0.00177206
-0.00629601
-0.0143787
-0.0224744
-0.0305829
-0.0387061
-0.0468427
-0.0549918
-0.0631559
-0.0713322
-0.0795224
-0.0877244
-0.0959413
-0.104169
-0.112412
-0.120666
-0.128933
-0.137213
-0.145504
-0.153807
-0.162124
-0.17045
-0.178789
-0.187138
-0.1955
-0.203871
-0.212253
-0.220644
-0.229046
-0.237455
-0.245876
-0.254305
-0.262741
-0.271184
-0.279636
-0.288094
-0.296557
-0.305026
-0.313501
-0.32198
-0.330463
-0.338947
-0.347436
-0.355923
-0.364414
-0.372902
-0.38139
-0.389876
-0.398358
-0.406835
-0.415306
-0.423772
-0.432229
-0.440676
-0.449114
-0.457539
-0.46595
-0.474346
-0.482726
-0.491087
-0.499429
-0.507746
-0.516042
-0.524312
-0.532555
-0.540767
-0.54895
-0.557098
-0.565214
-0.573295
-0.581342
-0.589354
-0.597333
-0.605282
-0.613204
-0.621128
-0.629135
-0.637391
-0.64602
-0.654852
-0.663273
-0.670635
-0.676999
-0.683259
0.796802
0.793423
0.790131
0.786441
0.782052
0.777125
0.772042
0.767046
0.762154
0.757288
0.752381
0.747403
0.742344
0.737203
0.731981
0.726681
0.721303
0.715847
0.710318
0.704716
0.699044
0.693302
0.687498
0.681627
0.675696
0.669703
0.663655
0.65755
0.651391
0.64518
0.638918
0.632607
0.62625
0.619845
0.613397
0.606906
0.600373
0.593799
0.587186
0.580535
0.573847
0.567124
0.560366
0.553573
0.546749
0.539892
0.533003
0.526086
0.519139
0.512162
0.505157
0.498125
0.491069
0.483985
0.476875
0.469743
0.462585
0.455403
0.448197
0.440971
0.433722
0.426451
0.419159
0.411845
0.404512
0.397158
0.389785
0.382392
0.37498
0.36755
0.360101
0.352633
0.345148
0.337645
0.330124
0.322587
0.315032
0.307461
0.299872
0.292267
0.284646
0.277009
0.269355
0.261686
0.254002
0.246301
0.238585
0.230853
0.223107
0.215344
0.207568
0.199776
0.191969
0.184147
0.17631
0.168459
0.160593
0.152713
0.144817
0.136909
0.128984
0.121046
0.113093
0.105127
0.0971453
0.0891505
0.0811409
0.0731173
0.0650801
0.0570281
0.0489638
0.040883
0.0327912
0.0246837
0.0165634
0.00842834
0.000281182
-0.00787975
-0.0160556
-0.024243
-0.0324451
-0.04066
-0.0488879
-0.0571286
-0.0653821
-0.0736485
-0.0819279
-0.0902194
-0.0985234
-0.10684
-0.115168
-0.123508
-0.131861
-0.140224
-0.148599
-0.156985
-0.165382
-0.173789
-0.182207
-0.190635
-0.199073
-0.207518
-0.215975
-0.22444
-0.232913
-0.241393
-0.249882
-0.258378
-0.266878
-0.275386
-0.283901
-0.292421
-0.300942
-0.309469
-0.317999
-0.326531
-0.335064
-0.3436
-0.352134
-0.360667
-0.3692
-0.377729
-0.386256
-0.394777
-0.403292
-0.411801
-0.420301
-0.428793
-0.437273
-0.445742
-0.454197
-0.462638
-0.471061
-0.479468
-0.487853
-0.49622
-0.504561
-0.512879
-0.521167
-0.529432
-0.537662
-0.545863
-0.554028
-0.562161
-0.570254
-0.578313
-0.586336
-0.594324
-0.602277
-0.610202
-0.618117
-0.626078
-0.6342
-0.642624
-0.651331
-0.659925
-0.667776
-0.674615
-0.68096
-0.687591
0.798923
0.795487
0.792182
0.788733
0.784733
0.780108
0.775135
0.770121
0.765196
0.76033
0.755457
0.750529
0.745523
0.740437
0.735271
0.730022
0.724693
0.719286
0.713801
0.708243
0.70261
0.696909
0.691137
0.6853
0.679399
0.673433
0.667408
0.661325
0.655186
0.648991
0.642743
0.636443
0.630093
0.623696
0.617251
0.610759
0.604226
0.597649
0.591029
0.584369
0.577669
0.570933
0.564159
0.557349
0.550503
0.543624
0.53671
0.529766
0.522789
0.515782
0.508744
0.501678
0.494582
0.487461
0.480308
0.473132
0.465929
0.458701
0.451448
0.444171
0.436869
0.429544
0.422196
0.414826
0.407434
0.40002
0.392585
0.385129
0.377652
0.370155
0.362638
0.355101
0.347546
0.339971
0.332378
0.324765
0.317135
0.309487
0.30182
0.294137
0.286434
0.278717
0.270982
0.263229
0.255461
0.247674
0.239873
0.232055
0.224221
0.216371
0.208505
0.200622
0.192726
0.184812
0.176885
0.168941
0.160982
0.153009
0.14502
0.137017
0.128998
0.120965
0.112917
0.104855
0.0967785
0.088687
0.0805824
0.072462
0.0643291
0.0561804
0.048019
0.0398436
0.0316542
0.0234513
0.0152351
0.00700393
-0.00123849
-0.00949568
-0.0177659
-0.0260474
-0.0343447
-0.0426521
-0.0509746
-0.0593084
-0.067654
-0.0760125
-0.0843821
-0.0927652
-0.101159
-0.109564
-0.117981
-0.126408
-0.134847
-0.143296
-0.151756
-0.160225
-0.168704
-0.177193
-0.18569
-0.194197
-0.202713
-0.211235
-0.219766
-0.228305
-0.23685
-0.2454
-0.25396
-0.262522
-0.27109
-0.279661
-0.288238
-0.296817
-0.305399
-0.313981
-0.322566
-0.331151
-0.339735
-0.348318
-0.356899
-0.365475
-0.374051
-0.38262
-0.391184
-0.399739
-0.408285
-0.416825
-0.425352
-0.433867
-0.44237
-0.450857
-0.459328
-0.467783
-0.476216
-0.48463
-0.49302
-0.501389
-0.509728
-0.518041
-0.526326
-0.534574
-0.542795
-0.550977
-0.559126
-0.567237
-0.575308
-0.583344
-0.591339
-0.5993
-0.607233
-0.615143
-0.623073
-0.631108
-0.639365
-0.647902
-0.656514
-0.664697
-0.671992
-0.67852
-0.684985
-0.691811
0.800931
0.797541
0.794218
0.790887
0.787209
0.782928
0.778165
0.773202
0.768259
0.763381
0.758527
0.753638
0.748686
0.743657
0.738545
0.733349
0.728074
0.722716
0.71728
0.711766
0.706178
0.700516
0.694783
0.68898
0.683111
0.677176
0.671178
0.665119
0.659001
0.652826
0.646593
0.640307
0.633968
0.627578
0.62114
0.614651
0.608118
0.601538
0.594914
0.588247
0.581538
0.57479
0.568001
0.561175
0.554312
0.54741
0.540474
0.533503
0.526499
0.51946
0.512391
0.50529
0.498159
0.490997
0.483805
0.476585
0.469338
0.462065
0.454762
0.447434
0.440081
0.432702
0.425299
0.417871
0.41042
0.402945
0.395448
0.387928
0.380385
0.372821
0.365236
0.357629
0.350001
0.342354
0.334687
0.327
0.319292
0.311565
0.30382
0.296056
0.288273
0.280472
0.272653
0.264815
0.256961
0.249089
0.241199
0.233292
0.225369
0.217428
0.209472
0.201498
0.193508
0.185502
0.17748
0.169442
0.161389
0.153319
0.145235
0.137135
0.12902
0.120889
0.112745
0.104584
0.0964099
0.0882204
0.0800162
0.0717986
0.0635661
0.0553192
0.0470591
0.0387851
0.0304972
0.0221956
0.0138807
0.00555231
-0.00278822
-0.0111433
-0.0195099
-0.0278901
-0.0362818
-0.0446867
-0.0531029
-0.0615325
-0.0699733
-0.0784245
-0.0868879
-0.0953618
-0.103848
-0.112344
-0.12085
-0.129367
-0.137894
-0.146429
-0.154975
-0.163529
-0.172091
-0.180663
-0.189242
-0.197829
-0.206422
-0.215022
-0.22363
-0.232241
-0.240858
-0.249481
-0.258109
-0.26674
-0.275373
-0.284009
-0.292646
-0.301286
-0.309925
-0.318566
-0.327203
-0.335842
-0.344474
-0.353105
-0.361732
-0.370351
-0.378966
-0.387573
-0.396173
-0.404762
-0.413339
-0.421907
-0.430458
-0.438995
-0.447518
-0.456022
-0.464509
-0.472972
-0.481414
-0.489833
-0.498226
-0.506591
-0.514928
-0.523234
-0.531507
-0.539745
-0.547948
-0.556114
-0.56424
-0.572329
-0.580374
-0.588384
-0.596355
-0.60429
-0.612202
-0.620118
-0.62809
-0.636223
-0.644592
-0.653131
-0.661482
-0.669185
-0.676034
-0.682461
-0.689053
-0.695903
0.80283
0.799555
0.796247
0.792961
0.789501
0.785564
0.78108
0.776253
0.771333
0.766446
0.761595
0.75674
0.751836
0.746859
0.741804
0.736664
0.731442
0.726138
0.720752
0.715286
0.709743
0.704125
0.698432
0.692667
0.686834
0.68093
0.674962
0.66893
0.662836
0.656682
0.650468
0.644198
0.637872
0.631494
0.625064
0.618579
0.612047
0.605468
0.598842
0.59217
0.585456
0.578695
0.571894
0.565054
0.558172
0.551251
0.544293
0.537297
0.530267
0.523199
0.516098
0.508963
0.501796
0.494597
0.487367
0.480104
0.472813
0.465492
0.458143
0.450764
0.44336
0.435926
0.428468
0.420983
0.413472
0.405935
0.398376
0.39079
0.383183
0.37555
0.367895
0.360219
0.352519
0.344797
0.337055
0.32929
0.321505
0.313699
0.305873
0.298027
0.290161
0.282276
0.274371
0.266448
0.258505
0.250544
0.242565
0.234567
0.226553
0.21852
0.210469
0.202402
0.194318
0.186216
0.178098
0.169964
0.161812
0.153646
0.145463
0.137264
0.12905
0.12082
0.112574
0.104315
0.0960388
0.0877486
0.0794445
0.0711248
0.0627917
0.0544441
0.0460824
0.0377065
0.029319
0.0209153
0.0125005
0.00407155
-0.00437018
-0.0128236
-0.0212906
-0.0297696
-0.0382605
-0.0467632
-0.0552775
-0.0638029
-0.0723398
-0.0808882
-0.0894457
-0.098014
-0.106593
-0.115181
-0.123779
-0.132387
-0.141002
-0.149627
-0.158258
-0.166899
-0.175548
-0.184202
-0.192862
-0.201531
-0.210202
-0.218881
-0.227564
-0.236251
-0.244941
-0.253636
-0.262331
-0.27103
-0.279729
-0.288429
-0.297129
-0.305829
-0.314526
-0.323221
-0.331913
-0.340602
-0.349285
-0.357961
-0.366631
-0.375296
-0.383948
-0.392592
-0.401224
-0.409844
-0.418452
-0.427046
-0.43562
-0.444178
-0.452718
-0.461236
-0.469733
-0.478206
-0.486654
-0.495075
-0.503467
-0.511831
-0.520159
-0.528456
-0.536716
-0.544939
-0.553122
-0.561269
-0.569372
-0.577434
-0.585455
-0.593437
-0.60138
-0.609297
-0.617201
-0.625134
-0.633177
-0.641405
-0.649821
-0.658222
-0.666202
-0.673421
-0.680001
-0.68645
-0.693115
-0.699878
0.804643
0.801529
0.798271
0.794995
0.791669
0.788014
0.783842
0.779225
0.77439
0.769517
0.764672
0.759837
0.754971
0.750046
0.745046
0.739964
0.734798
0.729548
0.724215
0.7188
0.713305
0.707733
0.702083
0.696359
0.690562
0.684696
0.678759
0.672756
0.66669
0.660559
0.654367
0.648116
0.641806
0.63544
0.629019
0.622543
0.616017
0.60944
0.602814
0.59614
0.589418
0.582651
0.575839
0.568985
0.562087
0.555147
0.548168
0.54115
0.534093
0.526999
0.519868
0.512701
0.505498
0.498262
0.490993
0.483689
0.476354
0.468987
0.46159
0.454163
0.446705
0.439219
0.431704
0.424162
0.416591
0.408994
0.401369
0.39372
0.386046
0.378345
0.37062
0.362871
0.355099
0.347302
0.339482
0.331641
0.323776
0.315889
0.307981
0.300052
0.292101
0.284129
0.276138
0.268125
0.260094
0.252042
0.243972
0.235882
0.227773
0.219646
0.2115
0.203336
0.195155
0.186955
0.17874
0.170506
0.162256
0.153988
0.145704
0.137404
0.129088
0.120756
0.112408
0.104044
0.0956667
0.0872723
0.0788655
0.0704416
0.0620053
0.0535535
0.0450884
0.0366097
0.0281168
0.0196112
0.011093
0.00256037
-0.00598282
-0.0145398
-0.0231075
-0.0316888
-0.0402807
-0.0488835
-0.0574977
-0.0661222
-0.0747581
-0.0834024
-0.0920583
-0.100723
-0.109396
-0.118079
-0.126769
-0.135469
-0.144176
-0.152889
-0.16161
-0.170338
-0.179072
-0.187811
-0.196556
-0.205303
-0.214057
-0.222814
-0.231572
-0.240335
-0.249099
-0.257866
-0.266631
-0.275396
-0.284163
-0.292926
-0.301687
-0.310446
-0.319201
-0.32795
-0.336695
-0.345435
-0.354167
-0.362888
-0.371602
-0.380305
-0.388997
-0.397675
-0.40634
-0.414989
-0.423623
-0.43224
-0.440837
-0.449414
-0.457969
-0.466499
-0.475005
-0.483485
-0.491934
-0.500356
-0.508746
-0.517101
-0.525421
-0.533705
-0.541951
-0.550154
-0.558319
-0.566439
-0.574519
-0.582553
-0.590547
-0.598499
-0.606421
-0.614321
-0.622235
-0.630211
-0.638323
-0.646613
-0.654973
-0.663116
-0.670667
-0.677509
-0.683962
-0.690493
-0.697175
-0.703772
0.80637
0.803424
0.80026
0.797008
0.793753
0.790305
0.786434
0.782079
0.777397
0.772579
0.767749
0.76293
0.758098
0.753219
0.748274
0.743249
0.738139
0.732946
0.727668
0.722307
0.716863
0.711338
0.705735
0.700054
0.694298
0.688469
0.682569
0.676598
0.670561
0.664457
0.658289
0.652059
0.645768
0.639416
0.633008
0.626543
0.620025
0.613453
0.606828
0.600152
0.593427
0.586654
0.579834
0.572968
0.566055
0.5591
0.552102
0.545061
0.537982
0.53086
0.5237
0.516501
0.509266
0.501993
0.494685
0.487341
0.479963
0.472551
0.465107
0.457629
0.45012
0.442581
0.43501
0.427409
0.41978
0.412121
0.404433
0.396718
0.388976
0.381207
0.373411
0.365589
0.357742
0.34987
0.341973
0.334052
0.326106
0.318138
0.310146
0.302131
0.294094
0.286035
0.277955
0.269851
0.261729
0.253585
0.24542
0.237236
0.229032
0.220807
0.212565
0.204301
0.196022
0.187722
0.179405
0.171069
0.162717
0.154346
0.145959
0.137555
0.129135
0.120698
0.112245
0.103776
0.0952925
0.0867925
0.0782785
0.0697486
0.0612065
0.0526469
0.0440769
0.0354907
0.0268923
0.0182811
0.00965614
0.00101933
-0.00762936
-0.0162917
-0.0249635
-0.0336483
-0.0423428
-0.0510489
-0.0597655
-0.0684908
-0.0772271
-0.0859721
-0.0947261
-0.103488
-0.112259
-0.121037
-0.129824
-0.138616
-0.147415
-0.15622
-0.165032
-0.173848
-0.182667
-0.191492
-0.200321
-0.209152
-0.217986
-0.226823
-0.235658
-0.244496
-0.253334
-0.262172
-0.271007
-0.279842
-0.288671
-0.2975
-0.306322
-0.315141
-0.323951
-0.332756
-0.341552
-0.350341
-0.35912
-0.367887
-0.376641
-0.385384
-0.394111
-0.402824
-0.41152
-0.420197
-0.428855
-0.437493
-0.44611
-0.454703
-0.46327
-0.47181
-0.480323
-0.488806
-0.497257
-0.505675
-0.514058
-0.522405
-0.530713
-0.538981
-0.547208
-0.555393
-0.563532
-0.571628
-0.579678
-0.587685
-0.595651
-0.603579
-0.611479
-0.619376
-0.627308
-0.635337
-0.643506
-0.651789
-0.659985
-0.667783
-0.674926
-0.681518
-0.687947
-0.694539
-0.701168
-0.707588
0.808006
0.805231
0.802205
0.79901
0.795792
0.792481
0.78886
0.784788
0.780315
0.775606
0.770819
0.766022
0.761217
0.756381
0.751485
0.746517
0.741466
0.736331
0.73111
0.725805
0.720414
0.714941
0.709387
0.703752
0.698039
0.692251
0.686388
0.680453
0.674447
0.668374
0.662233
0.656025
0.649756
0.643422
0.63703
0.630578
0.624069
0.617504
0.610883
0.60421
0.597483
0.590706
0.583879
0.577003
0.570079
0.563108
0.556093
0.549033
0.541931
0.534783
0.527596
0.520367
0.513099
0.505791
0.498445
0.491062
0.483642
0.476186
0.468694
0.461167
0.453608
0.446014
0.438387
0.43073
0.42304
0.415319
0.407568
0.399786
0.391976
0.384137
0.37627
0.368374
0.360452
0.352502
0.344526
0.336525
0.328498
0.320446
0.312368
0.304268
0.296143
0.287994
0.279823
0.271628
0.263412
0.255173
0.246913
0.238632
0.230329
0.222007
0.213664
0.2053
0.196918
0.188516
0.180095
0.171656
0.163198
0.154722
0.146229
0.137718
0.129191
0.120646
0.112085
0.103508
0.0949155
0.0863078
0.0776841
0.069046
0.0603937
0.0517262
0.0430454
0.0343519
0.0256433
0.0169241
0.00819065
-0.000554729
-0.00931086
-0.0180803
-0.0268589
-0.0356504
-0.044451
-0.0532606
-0.0620822
-0.0709112
-0.0797496
-0.0885965
-0.0974514
-0.106314
-0.115183
-0.12406
-0.132942
-0.141831
-0.150723
-0.159622
-0.168524
-0.17743
-0.186339
-0.195249
-0.204163
-0.213078
-0.221993
-0.230909
-0.239824
-0.248737
-0.257648
-0.266558
-0.275463
-0.284365
-0.293261
-0.302152
-0.311035
-0.319913
-0.328779
-0.337637
-0.346485
-0.355322
-0.364146
-0.372957
-0.381752
-0.390531
-0.399294
-0.408038
-0.416763
-0.425466
-0.434147
-0.442805
-0.451437
-0.460044
-0.46862
-0.477171
-0.485688
-0.494169
-0.502618
-0.511031
-0.519406
-0.527741
-0.536034
-0.544285
-0.55249
-0.56065
-0.568764
-0.576832
-0.584854
-0.592831
-0.600768
-0.608672
-0.616563
-0.624464
-0.632429
-0.6405
-0.648683
-0.656873
-0.664812
-0.672232
-0.679053
-0.685512
-0.691979
-0.698577
-0.705077
-0.711319
0.809559
0.806959
0.804087
0.80098
0.797798
0.79457
0.791148
0.787342
0.783115
0.778567
0.773862
0.769105
0.76433
0.759531
0.754684
0.749769
0.744777
0.739702
0.734541
0.729293
0.723957
0.718538
0.713035
0.707449
0.701783
0.696038
0.690217
0.684319
0.67835
0.672308
0.666196
0.660017
0.65377
0.647459
0.641083
0.634648
0.628151
0.621594
0.614981
0.608312
0.601585
0.594807
0.587975
0.581092
0.574157
0.567174
0.560143
0.553065
0.545942
0.53877
0.531557
0.5243
0.516998
0.509658
0.502275
0.494852
0.487391
0.479891
0.472354
0.464779
0.457167
0.44952
0.441838
0.434122
0.426371
0.418589
0.410774
0.402926
0.395047
0.387138
0.379199
0.371229
0.36323
0.355203
0.347147
0.339065
0.330953
0.322817
0.314652
0.306464
0.298248
0.290009
0.281745
0.273458
0.265144
0.25681
0.248451
0.240071
0.231668
0.223244
0.214799
0.206332
0.197845
0.189338
0.180812
0.172266
0.1637
0.155115
0.146514
0.137893
0.129256
0.1206
0.11193
0.103241
0.0945366
0.0858169
0.0770826
0.0683317
0.0595675
0.0507882
0.0419956
0.0331898
0.0243699
0.0155389
0.00669398
-0.00216084
-0.0110299
-0.0199068
-0.0287962
-0.037695
-0.0466048
-0.0555221
-0.0644504
-0.0733842
-0.0823293
-0.0912788
-0.100237
-0.109201
-0.118172
-0.127148
-0.136128
-0.145113
-0.154102
-0.163094
-0.172089
-0.181085
-0.190084
-0.199083
-0.208083
-0.217082
-0.22608
-0.235076
-0.244068
-0.253059
-0.262044
-0.271025
-0.280001
-0.288969
-0.297932
-0.306885
-0.315828
-0.324764
-0.333686
-0.342597
-0.351494
-0.360378
-0.369248
-0.378099
-0.386934
-0.395748
-0.404545
-0.413318
-0.422069
-0.430797
-0.439499
-0.448173
-0.456821
-0.465437
-0.474025
-0.482576
-0.491095
-0.499576
-0.508019
-0.516423
-0.524786
-0.533106
-0.541381
-0.549611
-0.557792
-0.565927
-0.574015
-0.582053
-0.590041
-0.597989
-0.6059
-0.613787
-0.621671
-0.629588
-0.637583
-0.645672
-0.653807
-0.661818
-0.66944
-0.67651
-0.683093
-0.689513
-0.696021
-0.702576
-0.708922
-0.714977
0.811021
0.808586
0.805881
0.802904
0.799782
0.796612
0.793325
0.78975
0.785777
0.781435
0.776856
0.772163
0.767431
0.762669
0.757866
0.753006
0.748072
0.743057
0.737956
0.732768
0.727491
0.722129
0.716679
0.711145
0.705528
0.699831
0.694053
0.688197
0.682265
0.676258
0.67018
0.66403
0.65781
0.651522
0.645169
0.63875
0.632269
0.625724
0.61912
0.612457
0.605734
0.598955
0.592122
0.585233
0.578291
0.571296
0.564253
0.557157
0.550014
0.542822
0.535584
0.528299
0.520968
0.513594
0.506176
0.498716
0.491213
0.483669
0.476087
0.468463
0.460802
0.453101
0.445363
0.43759
0.429781
0.421934
0.414054
0.40614
0.398193
0.390212
0.382199
0.374155
0.366079
0.357972
0.349836
0.34167
0.333474
0.325251
0.317
0.30872
0.300414
0.292083
0.283723
0.275339
0.266929
0.258495
0.250038
0.241555
0.233051
0.224521
0.215972
0.207399
0.198805
0.19019
0.181555
0.172898
0.164223
0.155528
0.146814
0.138081
0.129331
0.120562
0.111777
0.102975
0.0941566
0.0853216