/*--------------------------------*- C++ -*----------------------------------*\
  =========                 |
  \\      /  F ield         | OpenFOAM: The Open Source CFD Toolbox
   \\    /   O peration     | Website:  https://openfoam.org
    \\  /    A nd           | Version:  8
     \\/     M anipulation  |
\*---------------------------------------------------------------------------*/
FoamFile
{
    version     2.0;
    format      ascii;
    class       volScalarField;
    location    "0.11";
    object      p;
}
// * * * * * * * * * * * * * * * * * * * * * * * * * * * * * * * * * * * * * //

dimensions      [0 2 -2 0 0 0 0];

internalField   nonuniform List<scalar> 
114714
(
2.24062
2.2223
2.20719
2.19266
2.17848
2.16424
2.14976
2.13506
2.12014
2.10504
2.08971
2.07416
2.05843
2.04249
2.02638
2.01009
1.99361
1.97698
1.9602
1.94326
1.92618
1.90896
1.89162
1.87415
1.85656
1.83887
1.82107
1.80315
1.78515
1.76706
1.74888
1.73061
1.71226
1.69385
1.67535
1.65679
1.63816
1.61947
1.60072
1.58191
1.56306
1.54415
1.52519
1.50618
1.48713
1.46803
1.4489
1.42973
1.41051
1.39127
1.37198
1.35267
1.33332
1.31395
1.29454
1.27511
1.25565
1.23616
1.21665
1.19712
1.17756
1.15798
1.13837
1.11874
1.0991
1.07943
1.05974
1.04003
1.02031
1.00056
0.980799
0.961015
0.941213
0.921391
0.901553
0.881697
0.861819
0.84193
0.82202
0.802093
0.782144
0.76218
0.742198
0.722201
0.70218
0.682137
0.662086
0.642008
0.621913
0.601798
0.581662
0.561512
0.541338
0.521142
0.500925
0.480692
0.460434
0.440152
0.41985
0.399526
0.379177
0.358807
0.338412
0.317992
0.29755
0.277086
0.256592
0.236072
0.215528
0.194962
0.174362
0.153737
0.133085
0.112403
0.0917012
0.0709595
0.0501918
0.0294006
0.0085759
-0.012279
-0.033168
-0.0540828
-0.0750308
-0.0960065
-0.117022
-0.138064
-0.159139
-0.180249
-0.20139
-0.222565
-0.24377
-0.265011
-0.286285
-0.307591
-0.328935
-0.350311
-0.371721
-0.393165
-0.414645
-0.436158
-0.4577
-0.47928
-0.500895
-0.522538
-0.54422
-0.565932
-0.587677
-0.609452
-0.631263
-0.653102
-0.674973
-0.696874
-0.718807
-0.740762
-0.762744
-0.784757
-0.806794
-0.828858
-0.850945
-0.87305
-0.895173
-0.91732
-0.939484
-0.96167
-0.983863
-1.00607
-1.02829
-1.05051
-1.07274
-1.09497
-1.11719
-1.13942
-1.16164
-1.18386
-1.20606
-1.22824
-1.25041
-1.27254
-1.29466
-1.31673
-1.33878
-1.36078
-1.38273
-1.40463
-1.42649
-1.44828
-1.46999
-1.49165
-1.51323
-1.53475
-1.55618
-1.57753
-1.59883
-1.62009
-1.6413
-1.66243
-1.68379
-1.70601
-1.72958
-1.75818
2.25021
2.23247
2.21672
2.20146
2.18699
2.17279
2.15847
2.14394
2.12917
2.11419
2.099
2.08359
2.06798
2.05216
2.03616
2.01997
2.00359
1.98705
1.97034
1.95347
1.93646
1.91929
1.902
1.88457
1.86701
1.84934
1.83156
1.81366
1.79566
1.77757
1.75937
1.74109
1.72272
1.70428
1.68575
1.66715
1.64847
1.62973
1.61092
1.59206
1.57313
1.55415
1.53511
1.51602
1.49688
1.47769
1.45846
1.43919
1.41987
1.40051
1.38111
1.36168
1.34221
1.32271
1.30317
1.2836
1.26401
1.24438
1.22472
1.20504
1.18533
1.16559
1.14583
1.12604
1.10623
1.08639
1.06654
1.04666
1.02676
1.00683
0.986892
0.966925
0.94694
0.926932
0.906906
0.886857
0.86679
0.846704
0.826598
0.80647
0.786323
0.766156
0.745971
0.725766
0.70554
0.685291
0.665028
0.64474
0.624433
0.604105
0.583757
0.563388
0.542998
0.522584
0.502151
0.481696
0.461218
0.440718
0.420191
0.399649
0.379074
0.358484
0.337863
0.317222
0.296556
0.275865
0.255148
0.234404
0.213636
0.192841
0.17202
0.15117
0.130294
0.109389
0.0884601
0.0674975
0.0465085
0.0254915
0.00444581
-0.0166313
-0.0377378
-0.0588751
-0.0800407
-0.101237
-0.122465
-0.143726
-0.165015
-0.186338
-0.207691
-0.229077
-0.250492
-0.271943
-0.293423
-0.314935
-0.336479
-0.35806
-0.379668
-0.40131
-0.422984
-0.444688
-0.466426
-0.488194
-0.509995
-0.531824
-0.553685
-0.575575
-0.597498
-0.619446
-0.641425
-0.66343
-0.685465
-0.707527
-0.729613
-0.751723
-0.773854
-0.79601
-0.818192
-0.840393
-0.862611
-0.884842
-0.907095
-0.929361
-0.951642
-0.973933
-0.996233
-1.01854
-1.04085
-1.06316
-1.08547
-1.10778
-1.13009
-1.15237
-1.17466
-1.19693
-1.21917
-1.24139
-1.26359
-1.28576
-1.30788
-1.32998
-1.35202
-1.37403
-1.39597
-1.41786
-1.43969
-1.46144
-1.48312
-1.50474
-1.52627
-1.54772
-1.5691
-1.5904
-1.61165
-1.63283
-1.65396
-1.67522
-1.69723
-1.72078
-1.74552
-1.77364
2.25552
2.24166
2.22624
2.21056
2.19562
2.1813
2.16711
2.15273
2.13812
2.12329
2.10823
2.09297
2.07748
2.06179
2.0459
2.02982
2.01354
1.99709
1.98046
1.96368
1.94673
1.92963
1.91238
1.895
1.87749
1.85985
1.84209
1.82421
1.80622
1.78813
1.76993
1.75164
1.73326
1.71479
1.69623
1.6776
1.65888
1.64009
1.62123
1.6023
1.58331
1.56426
1.54515
1.52598
1.50675
1.48747
1.46815
1.44877
1.42936
1.40989
1.39038
1.37083
1.35124
1.33161
1.31194
1.29224
1.27251
1.25274
1.23294
1.21311
1.19325
1.17335
1.15343
1.13348
1.11351
1.09351
1.07348
1.05342
1.03335
1.01324
0.993117
0.972971
0.952797
0.9326
0.91238
0.892141
0.871877
0.851592
0.831286
0.810957
0.790606
0.770232
0.749842
0.729425
0.70899
0.688527
0.66805
0.647549
0.627023
0.606481
0.585909
0.565323
0.544709
0.524075
0.503418
0.48274
0.462036
0.44131
0.420558
0.399787
0.378986
0.358167
0.337319
0.316448
0.295551
0.274631
0.253685
0.232713
0.211713
0.190691
0.169636
0.148561
0.127453
0.10632
0.0851632
0.0639704
0.0427556
0.0215095
0.000240073
-0.0210648
-0.0423965
-0.063757
-0.0851459
-0.106565
-0.128015
-0.149493
-0.171002
-0.192543
-0.214114
-0.235709
-0.25734
-0.279002
-0.30069
-0.322412
-0.344164
-0.365945
-0.387757
-0.409599
-0.431469
-0.453372
-0.475299
-0.497258
-0.519244
-0.54126
-0.563304
-0.585372
-0.607468
-0.629592
-0.651737
-0.673913
-0.696108
-0.71833
-0.740568
-0.76283
-0.78511
-0.807414
-0.829732
-0.85207
-0.874415
-0.896774
-0.919147
-0.941533
-0.963925
-0.986321
-1.00872
-1.03112
-1.05353
-1.07592
-1.09831
-1.12069
-1.14306
-1.16542
-1.18775
-1.21007
-1.23236
-1.25461
-1.27683
-1.29902
-1.32117
-1.34326
-1.36531
-1.3873
-1.40923
-1.43109
-1.45289
-1.47461
-1.49625
-1.51781
-1.53929
-1.56068
-1.58201
-1.60325
-1.62443
-1.64553
-1.66665
-1.6883
-1.71122
-1.73565
-1.76015
-1.78263
2.25904
2.24923
2.23543
2.21991
2.20456
2.18993
2.17571
2.16147
2.14702
2.13234
2.11743
2.1023
2.08695
2.07139
2.05562
2.03965
2.02349
2.00713
1.9906
1.9739
1.95703
1.93999
1.92281
1.90548
1.88801
1.87041
1.85268
1.83482
1.81685
1.79877
1.78057
1.76228
1.74388
1.72539
1.70681
1.68815
1.66939
1.65056
1.63166
1.61267
1.59362
1.5745
1.55532
1.53608
1.51677
1.4974
1.47798
1.45852
1.43899
1.41942
1.3998
1.38013
1.36042
1.34067
1.32088
1.30104
1.28117
1.26126
1.24131
1.22133
1.20132
1.18127
1.16119
1.14108
1.12094
1.10077
1.08057
1.06034
1.04008
1.0198
0.99949
0.979153
0.958793
0.938402
0.917987
0.897553
0.877089
0.856601
0.836093
0.815555
0.794999
0.774416
0.753813
0.733182
0.712531
0.691854
0.671158
0.650435
0.629691
0.608922
0.588129
0.567317
0.546477
0.525616
0.504729
0.483821
0.462887
0.44193
0.420948
0.399942
0.37891
0.357855
0.336774
0.315669
0.294538
0.273382
0.2522
0.230993
0.209758
0.1885
0.167212
0.145898
0.124559
0.103191
0.0817985
0.0603754
0.0389274
0.0174474
-0.00405424
-0.0255889
-0.0471479
-0.0687404
-0.090355
-0.112002
-0.133679
-0.155378
-0.177112
-0.198875
-0.220663
-0.24248
-0.264327
-0.2862
-0.308105
-0.330035
-0.351998
-0.373984
-0.396003
-0.418045
-0.440115
-0.462214
-0.484338
-0.506487
-0.528664
-0.550862
-0.573091
-0.595342
-0.61761
-0.639905
-0.662225
-0.684564
-0.706923
-0.729302
-0.751699
-0.774107
-0.796535
-0.818979
-0.841439
-0.863903
-0.886381
-0.908865
-0.931358
-0.953857
-0.976357
-0.998855
-1.02136
-1.04385
-1.06633
-1.08882
-1.11128
-1.13373
-1.15616
-1.17857
-1.20096
-1.22332
-1.24564
-1.26792
-1.29017
-1.31237
-1.33452
-1.35662
-1.37866
-1.40064
-1.42254
-1.44438
-1.46614
-1.48781
-1.50941
-1.53092
-1.55234
-1.57368
-1.59493
-1.61611
-1.63722
-1.6583
-1.67966
-1.70196
-1.72573
-1.75016
-1.77244
-1.789
2.26408
2.25564
2.24374
2.22913
2.21374
2.19876
2.18436
2.17017
2.15586
2.14134
2.12658
2.1116
2.09639
2.08097
2.06533
2.04948
2.03343
2.01718
2.00075
1.98413
1.96734
1.95039
1.93327
1.91601
1.89859
1.88103
1.86333
1.84551
1.82756
1.80949
1.7913
1.77301
1.75461
1.7361
1.71751
1.69882
1.68003
1.66116
1.64221
1.62318
1.60407
1.58489
1.56563
1.54632
1.52693
1.50748
1.48797
1.46841
1.44878
1.42911
1.40938
1.3896
1.36977
1.34989
1.32997
1.31
1.28999
1.26994
1.24985
1.22972
1.20956
1.18935
1.16911
1.14884
1.12853
1.10819
1.08781
1.0674
1.04697
1.0265
1.00601
0.985478
0.964925
0.94434
0.92373
0.903091
0.882428
0.861734
0.841016
0.820273
0.799504
0.778705
0.757885
0.737038
0.716169
0.695269
0.674349
0.653402
0.632432
0.611435
0.590414
0.56937
0.5483
0.527204
0.506086
0.48494
0.463772
0.442577
0.421357
0.400114
0.378843
0.35755
0.336229
0.314883
0.293512
0.272115
0.250694
0.229243
0.207769
0.186269
0.164742
0.143187
0.121608
0.1
0.0783685
0.0567055
0.0350201
0.0133058
-0.00843441
-0.0302063
-0.0520005
-0.073822
-0.0956727
-0.117552
-0.139455
-0.161387
-0.183346
-0.205334
-0.227345
-0.249386
-0.271454
-0.293546
-0.315664
-0.337812
-0.359986
-0.382182
-0.404405
-0.426655
-0.448929
-0.471224
-0.493543
-0.515888
-0.538254
-0.560642
-0.583054
-0.605485
-0.627933
-0.650404
-0.672894
-0.695396
-0.717921
-0.740454
-0.763004
-0.785567
-0.80814
-0.830726
-0.85332
-0.875914
-0.898521
-0.921131
-0.943737
-0.966346
-0.988951
-1.01155
-1.03415
-1.05673
-1.0793
-1.10185
-1.12439
-1.1469
-1.16939
-1.19185
-1.21428
-1.23668
-1.25903
-1.28135
-1.30361
-1.32581
-1.34797
-1.37006
-1.39208
-1.41404
-1.43592
-1.45773
-1.47944
-1.50107
-1.52261
-1.54406
-1.56542
-1.58669
-1.60788
-1.62899
-1.65006
-1.67125
-1.69308
-1.71614
-1.74021
-1.76349
-1.78311
-1.79783
2.27028
2.26159
2.25106
2.23785
2.22295
2.2078
2.19314
2.17888
2.16466
2.15029
2.13569
2.12086
2.10579
2.09051
2.075
2.05929
2.04336
2.02722
2.0109
1.99439
1.97769
1.96081
1.94377
1.92657
1.90921
1.8917
1.87405
1.85626
1.83834
1.8203
1.80212
1.78383
1.76543
1.74692
1.72831
1.7096
1.69079
1.67188
1.65289
1.63381
1.61465
1.59541
1.57609
1.55671
1.53724
1.51771
1.49812
1.47846
1.45874
1.43896
1.41912
1.39923
1.37928
1.35928
1.33923
1.31913
1.29898
1.27879
1.25856
1.23828
1.21796
1.1976
1.17719
1.15676
1.13628
1.11576
1.09521
1.07463
1.05401
1.03336
1.01267
0.991948
0.971198
0.95042
0.929605
0.908766
0.887892
0.866994
0.846063
0.825106
0.804119
0.783105
0.762064
0.740996
0.7199
0.698775
0.677629
0.65645
0.635249
0.614019
0.592765
0.571483
0.550178
0.528842
0.507486
0.4861
0.464689
0.443255
0.42179
0.400304
0.378788
0.357251
0.335683
0.314093
0.292476
0.270832
0.249165
0.227467
0.205748
0.183999
0.162226
0.140425
0.118601
0.0967465
0.0748721
0.0529648
0.0310339
0.00907803
-0.0129047
-0.0349138
-0.0569497
-0.0790101
-0.1011
-0.12321
-0.145353
-0.167514
-0.189709
-0.211921
-0.234162
-0.25643
-0.278723
-0.301036
-0.323376
-0.34574
-0.368127
-0.390538
-0.412972
-0.435426
-0.457905
-0.480404
-0.502922
-0.525464
-0.548019
-0.570598
-0.593196
-0.615806
-0.638436
-0.661082
-0.683743
-0.706414
-0.729097
-0.751787
-0.774491
-0.797205
-0.819922
-0.842649
-0.865376
-0.888102
-0.910835
-0.933563
-0.956283
-0.979
-1.00171
-1.02441
-1.04709
-1.06976
-1.09241
-1.11503
-1.13764
-1.16021
-1.18276
-1.20526
-1.22773
-1.25015
-1.27253
-1.29486
-1.31714
-1.33935
-1.36149
-1.38358
-1.40559
-1.42751
-1.44935
-1.47111
-1.49278
-1.51435
-1.53584
-1.55722
-1.57852
-1.59973
-1.62085
-1.64191
-1.66302
-1.68452
-1.70695
-1.73048
-1.75404
-1.77545
-1.79323
-1.80857
2.27684
2.26747
2.25768
2.24584
2.23188
2.21693
2.20208
2.18765
2.17345
2.15919
2.14474
2.13007
2.11516
2.10002
2.08466
2.06907
2.05327
2.03727
2.02105
2.00464
1.98804
1.97126
1.95429
1.93717
1.91988
1.90243
1.88483
1.86708
1.8492
1.83117
1.81302
1.79475
1.77635
1.75784
1.73922
1.72049
1.70166
1.68272
1.6637
1.64458
1.62537
1.60607
1.58669
1.56724
1.5477
1.5281
1.50841
1.48867
1.46885
1.44897
1.42902
1.40902
1.38895
1.36883
1.34865
1.32843
1.30814
1.28781
1.26743
1.247
1.22652
1.20601
1.18544
1.16484
1.14419
1.1235
1.10277
1.08201
1.0612
1.04036
1.01948
0.99857
0.97762
0.95664
0.935623
0.914575
0.893492
0.87238
0.851235
0.830059
0.808854
0.787618
0.76635
0.745055
0.72373
0.702376
0.680995
0.659582
0.638145
0.616677
0.595184
0.57366
0.552111
0.530537
0.508929
0.487303
0.465642
0.44396
0.422247
0.400512
0.378746
0.356957
0.335138
0.313298
0.291425
0.269534
0.247609
0.225663
0.20369
0.181689
0.159665
0.137612
0.115537
0.0934317
0.0713046
0.0491498
0.0269709
0.00476645
-0.0174658
-0.039721
-0.0619991
-0.0843051
-0.106635
-0.128987
-0.151368
-0.17377
-0.196198
-0.218645
-0.241121
-0.263615
-0.286135
-0.308676
-0.331239
-0.353825
-0.376429
-0.399054
-0.421705
-0.444366
-0.467053
-0.489753
-0.512477
-0.535213
-0.557967
-0.580733
-0.603519
-0.62631
-0.64912
-0.671941
-0.69477
-0.717607
-0.740455
-0.763308
-0.786164
-0.809022
-0.831887
-0.85475
-0.877611
-0.900465
-0.923321
-0.946162
-0.969
-0.991821
-1.01463
-1.03742
-1.06019
-1.08294
-1.10566
-1.12836
-1.15103
-1.17365
-1.19624
-1.21879
-1.24129
-1.26374
-1.28614
-1.30848
-1.33076
-1.35296
-1.3751
-1.39716
-1.41914
-1.44104
-1.46284
-1.48455
-1.50616
-1.52768
-1.54909
-1.57042
-1.59164
-1.61278
-1.63385
-1.65491
-1.6762
-1.69815
-1.72108
-1.74455
-1.76693
-1.78649
-1.80341
-1.82004
2.28333
2.27349
2.26389
2.25313
2.24032
2.22595
2.21111
2.19653
2.18226
2.16806
2.15375
2.13923
2.12448
2.10949
2.09428
2.07883
2.06317
2.04729
2.0312
2.0149
1.99841
1.98171
1.96485
1.9478
1.93058
1.9132
1.89566
1.87796
1.86011
1.84213
1.824
1.80575
1.78737
1.76886
1.75023
1.73149
1.71265
1.69369
1.67463
1.65547
1.63622
1.61687
1.59744
1.57792
1.55832
1.53863
1.51887
1.49903
1.47912
1.45914
1.43909
1.41897
1.3988
1.37856
1.35825
1.3379
1.31748
1.297
1.27648
1.2559
1.23527
1.21459
1.19387
1.17309
1.15227
1.13141
1.1105
1.08955
1.06856
1.04753
1.02645
1.00534
0.984194
0.963008
0.941784
0.920525
0.899231
0.877901
0.856537
0.835139
0.813707
0.792246
0.770748
0.749222
0.727665
0.706073
0.684454
0.662802
0.641125
0.619411
0.597674
0.575904
0.554108
0.532281
0.510426
0.488545
0.466634
0.444696
0.422729
0.400738
0.378716
0.35667
0.334595
0.312494
0.290366
0.268214
0.246033
0.223827
0.201595
0.179336
0.157055
0.134742
0.112411
0.0900502
0.0676665
0.0452549
0.0228229
0.000365724
-0.0221197
-0.0446241
-0.0671559
-0.0897101
-0.112287
-0.134887
-0.157509
-0.180154
-0.202821
-0.225509
-0.248219
-0.27095
-0.2937
-0.31647
-0.339261
-0.362069
-0.384898
-0.407744
-0.430604
-0.453484
-0.476378
-0.499286
-0.522211
-0.545143
-0.568096
-0.591056
-0.614027
-0.637003
-0.659992
-0.682988
-0.705985
-0.72899
-0.752002
-0.775014
-0.79802
-0.821027
-0.844033
-0.867033
-0.890023
-0.913009
-0.935981
-0.958938
-0.981881
-1.00481
-1.02771
-1.05059
-1.07345
-1.09627
-1.11907
-1.14183
-1.16454
-1.18722
-1.20985
-1.23244
-1.25496
-1.27744
-1.29984
-1.32219
-1.34446
-1.36666
-1.38878
-1.41082
-1.43276
-1.45462
-1.47637
-1.49803
-1.51958
-1.54103
-1.56238
-1.58364
-1.60479
-1.62587
-1.64691
-1.66807
-1.68966
-1.71205
-1.73519
-1.75803
-1.7789
-1.79707
-1.81393
-1.83156
2.28951
2.2795
2.26987
2.25981
2.24814
2.23465
2.22014
2.20551
2.19114
2.17694
2.16272
2.14835
2.13375
2.11892
2.10386
2.08856
2.07304
2.0573
2.04133
2.02516
2.00877
1.9922
1.97542
1.95846
1.94133
1.92401
1.90653
1.88889
1.8711
1.85315
1.83506
1.81684
1.79847
1.77997
1.76135
1.74261
1.72375
1.70478
1.68569
1.6665
1.6472
1.62782
1.60833
1.58875
1.56908
1.54932
1.52948
1.50956
1.48956
1.46948
1.44933
1.42911
1.40882
1.38846
1.36803
1.34754
1.32699
1.30637
1.2857
1.26498
1.24419
1.22335
1.20246
1.18152
1.16053
1.13949
1.1184
1.09726
1.07608
1.05486
1.03359
1.01228
0.990924
0.969527
0.948095
0.926621
0.905111
0.883561
0.86197
0.84035
0.818687
0.796996
0.775265
0.7535
0.731706
0.709872
0.68801
0.666114
0.644186
0.622228
0.600238
0.578215
0.556166
0.534082
0.511973
0.489832
0.467662
0.445466
0.423237
0.400983
0.3787
0.35639
0.33405
0.311687
0.289295
0.266875
0.244432
0.221959
0.199464
0.176939
0.154392
0.13182
0.109222
0.0865996
0.063954
0.0412803
0.0185888
-0.00413025
-0.026872
-0.0496315
-0.0724218
-0.0952263
-0.118059
-0.14091
-0.16378
-0.186673
-0.209583
-0.232517
-0.255466
-0.278437
-0.301423
-0.324426
-0.347449
-0.370484
-0.393538
-0.416604
-0.439684
-0.462778
-0.485884
-0.509002
-0.532131
-0.555265
-0.578412
-0.601565
-0.624725
-0.647887
-0.671061
-0.694227
-0.717401
-0.740569
-0.763741
-0.786907
-0.81007
-0.833219
-0.856367
-0.879501
-0.902622
-0.925728
-0.948819
-0.971884
-0.994938
-1.01796
-1.04096
-1.06392
-1.08686
-1.10976
-1.13261
-1.15543
-1.1782
-1.20092
-1.22359
-1.24621
-1.26875
-1.29124
-1.31365
-1.336
-1.35826
-1.38044
-1.40254
-1.42453
-1.44644
-1.46825
-1.48995
-1.51155
-1.53304
-1.55442
-1.5757
-1.59687
-1.61797
-1.639
-1.66009
-1.68145
-1.70339
-1.72608
-1.74897
-1.77072
-1.7901
-1.80745
-1.82463
-1.84278
2.29536
2.28549
2.2758
2.26609
2.25537
2.24288
2.22898
2.2145
2.20007
2.18584
2.17168
2.15742
2.14297
2.12831
2.1134
2.09826
2.08289
2.06728
2.05145
2.03541
2.01915
2.00268
1.98601
1.96915
1.9521
1.93487
1.91746
1.89989
1.88215
1.86426
1.8462
1.82801
1.80966
1.79119
1.77258
1.75383
1.73497
1.71598
1.69687
1.67766
1.65833
1.6389
1.61936
1.59973
1.58
1.56017
1.54026
1.52025
1.50017
1.47999
1.45974
1.43942
1.41901
1.39853
1.37798
1.35736
1.33668
1.31593
1.29511
1.27423
1.25329
1.23229
1.21124
1.19013
1.16896
1.14774
1.12647
1.10515
1.08378
1.06235
1.04089
1.01937
0.99781
0.976207
0.954559
0.93287
0.911136
0.889359
0.867546
0.845691
0.8238
0.801868
0.779901
0.757894
0.735855
0.713777
0.691665
0.669518
0.647338
0.625125
0.602879
0.580598
0.558286
0.535945
0.51357
0.491165
0.468732
0.446265
0.423773
0.401249
0.378697
0.356115
0.333509
0.310871
0.28821
0.26552
0.242802
0.220061
0.197292
0.174498
0.151679
0.128837
0.105969
0.0830773
0.0601623
0.0372236
0.014265
-0.00872035
-0.0317238
-0.0547512
-0.0777968
-0.100865
-0.123951
-0.147061
-0.170188
-0.193329
-0.216491
-0.239669
-0.262867
-0.286079
-0.309304
-0.332547
-0.355804
-0.37907
-0.40235
-0.425643
-0.448943
-0.472257
-0.495576
-0.518906
-0.542239
-0.565579
-0.588926
-0.612269
-0.635618
-0.658968
-0.68232
-0.705667
-0.729008
-0.752346
-0.775673
-0.798998
-0.822306
-0.845608
-0.868888
-0.89216
-0.915403
-0.93863
-0.961836
-0.985011
-1.00816
-1.03128
-1.05437
-1.07742
-1.10042
-1.12339
-1.14631
-1.16918
-1.192
-1.21475
-1.23746
-1.26009
-1.28265
-1.30514
-1.32756
-1.34989
-1.37214
-1.3943
-1.41636
-1.43832
-1.46018
-1.48193
-1.50357
-1.52511
-1.54652
-1.56784
-1.58904
-1.61014
-1.63119
-1.65223
-1.67342
-1.69504
-1.71729
-1.73998
-1.76217
-1.78264
-1.80084
-1.81792
-1.83545
-1.85366
2.30088
2.29135
2.28172
2.27214
2.26205
2.25057
2.23748
2.2234
2.20904
2.19478
2.18063
2.16646
2.15216
2.13764
2.1229
2.10792
2.0927
2.07725
2.06156
2.04565
2.02952
2.01317
1.99661
1.97986
1.96291
1.94576
1.92844
1.91093
1.89326
1.87542
1.85742
1.83926
1.82095
1.8025
1.7839
1.76516
1.7463
1.7273
1.70819
1.68895
1.66959
1.65012
1.63054
1.61086
1.59107
1.57118
1.55119
1.53111
1.51094
1.49068
1.47033
1.4499
1.42938
1.40879
1.38812
1.36737
1.34655
1.32566
1.3047
1.28367
1.26258
1.24142
1.2202
1.19892
1.17758
1.15618
1.13473
1.11321
1.09165
1.07003
1.04836
1.02664
1.00487
0.983049
0.961185
0.93927
0.917312
0.89531
0.873264
0.851175
0.829045
0.806873
0.784659
0.76241
0.740119
0.717789
0.695425
0.673018
0.650583
0.628107
0.605597
0.583053
0.560477
0.537864
0.515223
0.492547
0.469839
0.447102
0.424334
0.401535
0.378707
0.35585
0.332964
0.310052
0.28711
0.264141
0.241149
0.218126
0.195081
0.172009
0.148913
0.125791
0.102651
0.0794796
0.056292
0.0330792
0.00984515
-0.0134072
-0.0366834
-0.0599784
-0.0832927
-0.106625
-0.129976
-0.153344
-0.17673
-0.200133
-0.223548
-0.246979
-0.270425
-0.293882
-0.317354
-0.340838
-0.364329
-0.387834
-0.411344
-0.434865
-0.458393
-0.481925
-0.50546
-0.529004
-0.552544
-0.576089
-0.599634
-0.623175
-0.646713
-0.670254
-0.69378
-0.717302
-0.740815
-0.764319
-0.787808
-0.811286
-0.834743
-0.858183
-0.881603
-0.905003
-0.928375
-0.951717
-0.975031
-0.99832
-1.02156
-1.04477
-1.06794
-1.09107
-1.11415
-1.13718
-1.16015
-1.18307
-1.20592
-1.22871
-1.25144
-1.27409
-1.29666
-1.31915
-1.34156
-1.36388
-1.3861
-1.40823
-1.43025
-1.45216
-1.47397
-1.49566
-1.51724
-1.5387
-1.56004
-1.58128
-1.60241
-1.62346
-1.64448
-1.66557
-1.68695
-1.70882
-1.73118
-1.75351
-1.77472
-1.7939
-1.81138
-1.82852
-1.84624
-1.86423
2.30615
2.2971
2.28761
2.27807
2.26837
2.25771
2.24554
2.23207
2.21796
2.20374
2.18961
2.1755
2.1613
2.14694
2.13235
2.11754
2.10248
2.08718
2.07164
2.05588
2.03988
2.02366
2.00723
1.99058
1.97374
1.95669
1.93945
1.92203
1.90443
1.88665
1.8687
1.85059
1.83232
1.8139
1.79532
1.7766
1.75774
1.73875
1.71962
1.70037
1.68099
1.66149
1.64187
1.62214
1.6023
1.58235
1.56229
1.54214
1.52189
1.50154
1.4811
1.46056
1.43994
1.41923
1.39845
1.37757
1.35662
1.33559
1.31449
1.29331
1.27206
1.25075
1.22936
1.20791
1.18639
1.16481
1.14316
1.12146
1.0997
1.07788
1.05601
1.03408
1.0121
0.99006
0.967971
0.945835
0.923647
0.901413
0.87913
0.856803
0.834429
0.812009
0.78955
0.767045
0.744502
0.721913
0.699289
0.676624
0.653919
0.631178
0.6084
0.585584
0.562736
0.539848
0.516932
0.493976
0.470992
0.447973
0.424924
0.401843
0.378732
0.355591
0.332422
0.309223
0.285998
0.262742
0.239466
0.216156
0.192827
0.169469
0.146089
0.122686
0.0992573
0.0758082
0.0523385
0.0288434
0.00533332
-0.0182004
-0.0417495
-0.0653219
-0.0889095
-0.112513
-0.136133
-0.159768
-0.18342
-0.207081
-0.23076
-0.254448
-0.278146
-0.301856
-0.325575
-0.349305
-0.373039
-0.396778
-0.420526
-0.444277
-0.468033
-0.491788
-0.515544
-0.539296
-0.563052
-0.586801
-0.610544
-0.634285
-0.658015
-0.68174
-0.705449
-0.729144
-0.752831
-0.776497
-0.800144
-0.823773
-0.847379
-0.870958
-0.894513
-0.918042
-0.941537
-0.964994
-0.988418
-1.0118
-1.03514
-1.05844
-1.08169
-1.10488
-1.12803
-1.15111
-1.17414
-1.1971
-1.21999
-1.2428
-1.26554
-1.2882
-1.31077
-1.33326
-1.35566
-1.37795
-1.40014
-1.42223
-1.44421
-1.46606
-1.48781
-1.50943
-1.53094
-1.55233
-1.57359
-1.59475
-1.61581
-1.63682
-1.65786
-1.67906
-1.70062
-1.72266
-1.74488
-1.76651
-1.78658
-1.80476
-1.82191
-1.83927
-1.85704
-1.87459
2.31117
2.30261
2.2934
2.28393
2.27445
2.2644
2.2531
2.2404
2.22674
2.21268
2.19859
2.18452
2.17042
2.15619
2.14177
2.12711
2.11222
2.09708
2.0817
2.06608
2.05023
2.03415
2.01784
2.00132
1.98459
1.96765
1.95051
1.93317
1.91565
1.89794
1.88006
1.862
1.84378
1.82539
1.80684
1.78815
1.7693
1.75032
1.73119
1.71192
1.69253
1.673
1.65335
1.63358
1.61369
1.59368
1.57356
1.55334
1.53301
1.51257
1.49204
1.47141
1.45069
1.42986
1.40896
1.38796
1.36688
1.34571
1.32447
1.30314
1.28174
1.26026
1.23871
1.21708
1.19539
1.17363
1.1518
1.1299
1.10794
1.08592
1.06384
1.0417
1.0195
0.997242
0.97493
0.952564
0.930142
0.907673
0.885149
0.862576
0.839956
0.817286
0.794573
0.771809
0.749005
0.726156
0.703263
0.680331
0.657357
0.634339
0.61129
0.588192
0.565066
0.541898
0.518696
0.495457
0.472188
0.44888
0.425544
0.402173
0.378772
0.35534
0.33188
0.308387
0.284871
0.261323
0.237752
0.214151
0.190531
0.166877
0.143209
0.119511
0.0957942
0.072057
0.0482961
0.0245173
0.000720364
-0.0230996
-0.0469309
-0.0707836
-0.0946482
-0.118531
-0.142427
-0.166333
-0.190255
-0.214186
-0.238128
-0.262078
-0.286037
-0.310003
-0.333977
-0.357952
-0.38193
-0.405915
-0.429901
-0.453886
-0.477867
-0.501849
-0.525828
-0.549798
-0.573763
-0.597723
-0.621667
-0.645602
-0.669526
-0.693436
-0.717325
-0.741201
-0.76505
-0.788884
-0.812686
-0.836469
-0.860215
-0.883938
-0.907623
-0.931275
-0.95489
-0.97846
-1.00199
-1.02547
-1.0489
-1.07228
-1.0956
-1.11886
-1.14206
-1.1652
-1.18827
-1.21126
-1.23418
-1.25701
-1.27977
-1.30243
-1.325
-1.34747
-1.36984
-1.3921
-1.41426
-1.4363
-1.45822
-1.48002
-1.5017
-1.52325
-1.54468
-1.56598
-1.58717
-1.60826
-1.62927
-1.65026
-1.67135
-1.69269
-1.7144
-1.73641
-1.75819
-1.77891
-1.7979
-1.81541
-1.8325
-1.85003
-1.86766
-1.88475
2.31591
2.30786
2.29906
2.28976
2.28039
2.27074
2.26018
2.2483
2.23525
2.22151
2.20754
2.19355
2.17953
2.16542
2.15113
2.13664
2.12191
2.10694
2.09173
2.07627
2.06057
2.04463
2.02847
2.01207
1.99546
1.97863
1.96159
1.94435
1.92692
1.90929
1.89148
1.87348
1.85531
1.83697
1.81847
1.7998
1.78098
1.762
1.74287
1.72361
1.7042
1.68465
1.66497
1.64517
1.62523
1.60517
1.585
1.56471
1.54431
1.52379
1.50317
1.48244
1.46162
1.44069
1.41966
1.39854
1.37733
1.35604
1.33465
1.31317
1.29162
1.26998
1.24826
1.22646
1.20459
1.18264
1.16062
1.13853
1.11638
1.09415
1.07186
1.0495
1.02708
1.0046
0.982062
0.959463
0.936806
0.914095
0.891324
0.868506
0.845633
0.822705
0.799732
0.776706
0.753637
0.730518
0.707352
0.684147
0.660892
0.637599
0.614263
0.590884
0.567469
0.544014
0.520521
0.496993
0.473427
0.449828
0.426194
0.402526
0.378828
0.355096
0.331336
0.307546
0.283727
0.259882
0.236008
0.212109
0.188186
0.164236
0.140264
0.116273
0.0922548
0.0682227
0.0441662
0.020092
-0.00399688
-0.0281073
-0.0522282
-0.0763696
-0.100521
-0.124682
-0.148862
-0.173047
-0.197243
-0.221447
-0.245659
-0.269878
-0.2941
-0.318328
-0.342557
-0.366787
-0.391017
-0.415246
-0.439472
-0.463694
-0.487911
-0.512117
-0.536319
-0.560511
-0.584688
-0.608856
-0.633005
-0.657138
-0.681251
-0.705346
-0.729418
-0.753467
-0.777486
-0.801481
-0.825441
-0.849374
-0.873263
-0.897119
-0.920933
-0.944709
-0.968436
-0.992116
-1.01574
-1.03931
-1.06283
-1.08629
-1.10968
-1.133
-1.15626
-1.17944
-1.20254
-1.22557
-1.2485
-1.27136
-1.29411
-1.31676
-1.33932
-1.36177
-1.38411
-1.40634
-1.42845
-1.45044
-1.4723
-1.49403
-1.51563
-1.5371
-1.55845
-1.57967
-1.60078
-1.6218
-1.64278
-1.66379
-1.68496
-1.70641
-1.72816
-1.74992
-1.77102
-1.79074
-1.80886
-1.82603
-1.84322
-1.86077
-1.87806
-1.89468
2.32041
2.31287
2.30454
2.2955
2.28624
2.27683
2.26686
2.25576
2.24342
2.23015
2.21642
2.20254
2.18861
2.1746
2.16046
2.14613
2.13157
2.11677
2.10172
2.08643
2.07088
2.0551
2.03908
2.02282
2.00634
1.98963
1.97271
1.95557
1.93823
1.9207
1.90296
1.88504
1.86693
1.84864
1.83018
1.81155
1.79276
1.7738
1.75469
1.73542
1.716
1.69645
1.67675
1.65691
1.63694
1.61683
1.59661
1.57625
1.55578
1.53519
1.51449
1.49367
1.47274
1.45171
1.43057
1.40933
1.38799
1.36656
1.34503
1.32341
1.3017
1.2799
1.25801
1.23604
1.21399
1.19186
1.16965
1.14737
1.12501
1.10258
1.08007
1.0575
1.03486
1.01215
0.989375
0.966543
0.94364
0.920686
0.897666
0.874593
0.851459
0.828274
0.805033
0.781744
0.758396
0.735005
0.711561
0.688073
0.664535
0.640955
0.61733
0.59366
0.569952
0.546199
0.522411
0.498583
0.474715
0.450811
0.426877
0.402902
0.3789
0.354859
0.330796
0.306696
0.282568
0.258413
0.234234
0.210025
0.185795
0.161538
0.13726
0.112961
0.088639
0.0643017
0.0399417
0.0155698
-0.00882578
-0.0332278
-0.0576485
-0.0820799
-0.106526
-0.130978
-0.155445
-0.179911
-0.204394
-0.228873
-0.253362
-0.277851
-0.302343
-0.326837
-0.351325
-0.375812
-0.400297
-0.424775
-0.449247
-0.473706
-0.49816
-0.522599
-0.547026
-0.571437
-0.595832
-0.620207
-0.644558
-0.668893
-0.693198
-0.71748
-0.741733
-0.765951
-0.790144
-0.814297
-0.83841
-0.862491
-0.886521
-0.91051
-0.934449
-0.958341
-0.982182
-1.00596
-1.02969
-1.05334
-1.07695
-1.10047
-1.12393
-1.14731
-1.17061
-1.19383
-1.21696
-1.24001
-1.26296
-1.28581
-1.30857
-1.33121
-1.35374
-1.37617
-1.39847
-1.42065
-1.4427
-1.46463
-1.48642
-1.50808
-1.52961
-1.551
-1.57226
-1.59339
-1.61443
-1.63541
-1.65636
-1.67741
-1.69866
-1.72016
-1.74178
-1.76306
-1.78332
-1.80211
-1.8196
-1.83667
-1.85397
-1.87141
-1.8883
-1.90442
2.32465
2.31759
2.30975
2.30109
2.29201
2.28278
2.2732
2.26278
2.25119
2.23852
2.22516
2.21147
2.19765
2.18376
2.16975
2.15557
2.14117
2.12655
2.11168
2.09655
2.08118
2.06555
2.04968
2.03357
2.01722
2.00065
1.98385
1.96683
1.94959
1.93215
1.91451
1.89666
1.87862
1.8604
1.84199
1.8234
1.80465
1.78571
1.76662
1.74737
1.72795
1.70838
1.68867
1.66881
1.6488
1.62866
1.60839
1.58798
1.56744
1.54677
1.52599
1.50509
1.48406
1.46293
1.44168
1.42032
1.39886
1.37729
1.35562
1.33385
1.31199
1.29003
1.26798
1.24584
1.22361
1.20129
1.17889
1.15641
1.13384
1.1112
1.08848
1.06569
1.04282
1.01989
0.996878
0.973802
0.950657
0.927449
0.904179
0.880844
0.857449
0.834
0.810484
0.78692
0.763296
0.739621
0.715895
0.692115
0.668291
0.644412
0.620493
0.596524
0.572514
0.548459
0.524364
0.500227
0.476052
0.45184
0.427591
0.403304
0.378988
0.354634
0.330251
0.305838
0.281395
0.256922
0.232425
0.207901
0.183353
0.158781
0.134191
0.109573
0.084943
0.0602897
0.0356223
0.0109387
-0.0137608
-0.0384694
-0.0631973
-0.0879264
-0.11267
-0.137422
-0.162176
-0.186938
-0.211706
-0.236472
-0.26124
-0.286008
-0.310776
-0.335534
-0.360291
-0.38504
-0.40978
-0.434511
-0.459229
-0.483937
-0.508626
-0.533297
-0.557951
-0.582587
-0.607196
-0.631784
-0.65634
-0.680871
-0.705372
-0.729838
-0.754272
-0.778665
-0.80302
-0.827334
-0.851599
-0.875823
-0.89999
-0.924111
-0.948171
-0.97218
-0.996125
-1.02001
-1.04382
-1.06756
-1.09124
-1.11483
-1.13834
-1.16178
-1.18512
-1.20837
-1.23153
-1.25459
-1.27754
-1.3004
-1.32313
-1.34576
-1.36827
-1.39065
-1.41291
-1.43503
-1.45703
-1.47889
-1.50061
-1.52218
-1.54362
-1.56492
-1.5861
-1.60715
-1.62813
-1.64905
-1.67002
-1.69111
-1.71239
-1.73383
-1.75513
-1.77575
-1.79512
-1.81314
-1.8303
-1.84738
-1.86469
-1.88183
-1.89827
-1.91394
2.32859
2.32201
2.31469
2.30649
2.29769
2.28861
2.27932
2.26943
2.25855
2.24655
2.23367
2.22028
2.20664
2.19287
2.17899
2.16496
2.15074
2.13628
2.12159
2.10664
2.09144
2.07598
2.06027
2.04431
2.02812
2.01168
1.99501
1.97811
1.96099
1.94365
1.92611
1.90835
1.89039
1.87224
1.85389
1.83535
1.81664
1.79775
1.77868
1.75944
1.74003
1.72046
1.70074
1.68086
1.66083
1.64065
1.62034
1.59988
1.57928
1.55855
1.53769
1.5167
1.49558
1.47435
1.45299
1.43152
1.40993
1.38824
1.36643
1.34452
1.3225
1.30038
1.27816
1.25585
1.23344
1.21094
1.18834
1.16566
1.14289
1.12004
1.09711
1.07409
1.05099
1.02782
1.00457
0.981252
0.95786
0.934396
0.910865
0.887268
0.863605
0.83988
0.81609
0.792242
0.768337
0.744372
0.720353
0.696282
0.672155
0.64798
0.623754
0.599479
0.57516
0.550792
0.526386
0.501931
0.477442
0.452909
0.42834
0.403732
0.379093
0.354416
0.329709
0.304969
0.280204
0.255404
0.230584
0.205733
0.180862
0.155965
0.131049
0.106114
0.0811586
0.0561885
0.0312024
0.0062003
-0.0188114
-0.0438365
-0.0688716
-0.0939124
-0.118961
-0.144014
-0.169071
-0.194131
-0.219189
-0.244245
-0.269301
-0.294353
-0.319396
-0.344432
-0.369457
-0.394474
-0.419475
-0.444463
-0.469432
-0.494385
-0.519314
-0.544223