/*--------------------------------*- C++ -*----------------------------------*\
  =========                 |
  \\      /  F ield         | OpenFOAM: The Open Source CFD Toolbox
   \\    /   O peration     | Website:  https://openfoam.org
    \\  /    A nd           | Version:  8
     \\/     M anipulation  |
\*---------------------------------------------------------------------------*/
FoamFile
{
    version     2.0;
    format      ascii;
    class       volScalarField;
    location    "1.5";
    object      p;
}
// * * * * * * * * * * * * * * * * * * * * * * * * * * * * * * * * * * * * * //

dimensions      [0 2 -2 0 0 0 0];

internalField   nonuniform List<scalar> 
277560
(
-0.0501982
-0.0502085
-0.0502063
-0.0502017
-0.0501952
-0.0501872
-0.050178
-0.050168
-0.0501572
-0.0501458
-0.0501338
-0.0501214
-0.0501087
-0.0500956
-0.0500822
-0.0500686
-0.0500547
-0.0500405
-0.0500261
-0.0500115
-0.0499965
-0.0499813
-0.0499659
-0.0499502
-0.0499341
-0.0499178
-0.0499012
-0.0498843
-0.0498671
-0.0498495
-0.0498317
-0.0498135
-0.0497951
-0.0497762
-0.0497571
-0.0497376
-0.0497179
-0.0496977
-0.0496772
-0.0496564
-0.0496352
-0.0496136
-0.0495917
-0.0495693
-0.0495466
-0.0495235
-0.0495
-0.049476
-0.0494517
-0.0494269
-0.0494016
-0.0493759
-0.0493498
-0.0493231
-0.0492961
-0.0492684
-0.0492404
-0.0492117
-0.0491826
-0.0491529
-0.0491227
-0.0490919
-0.0490606
-0.0490286
-0.0489961
-0.048963
-0.0489293
-0.0488949
-0.04886
-0.0488243
-0.0487881
-0.0487512
-0.0487137
-0.0486754
-0.0486366
-0.0485969
-0.0485567
-0.0485157
-0.0484741
-0.0484318
-0.0483888
-0.048345
-0.0483007
-0.0482555
-0.0482097
-0.048163
-0.0481157
-0.0480676
-0.0480187
-0.047969
-0.0479185
-0.0478671
-0.047815
-0.0477619
-0.047708
-0.0476531
-0.0475973
-0.0475406
-0.047483
-0.0474243
-0.0473647
-0.0473041
-0.0472425
-0.0471798
-0.0471161
-0.0470513
-0.0469855
-0.0469184
-0.0468504
-0.0467811
-0.0467107
-0.046639
-0.0465662
-0.046492
-0.0464167
-0.04634
-0.0462621
-0.0461817
-0.0460991
-0.0460273
-0.0502076
-0.0502125
-0.050209
-0.0502036
-0.0501965
-0.0501882
-0.0501789
-0.0501687
-0.0501578
-0.0501464
-0.0501344
-0.0501219
-0.0501092
-0.050096
-0.0500827
-0.050069
-0.0500551
-0.0500409
-0.0500265
-0.0500118
-0.0499968
-0.0499816
-0.0499662
-0.0499504
-0.0499344
-0.0499181
-0.0499015
-0.0498845
-0.0498673
-0.0498498
-0.0498319
-0.0498138
-0.0497953
-0.0497765
-0.0497574
-0.0497379
-0.0497182
-0.049698
-0.0496776
-0.0496567
-0.0496356
-0.049614
-0.0495921
-0.0495698
-0.0495471
-0.049524
-0.0495005
-0.0494766
-0.0494522
-0.0494275
-0.0494022
-0.0493766
-0.0493505
-0.0493239
-0.0492968
-0.0492693
-0.0492412
-0.0492126
-0.0491835
-0.0491539
-0.0491237
-0.049093
-0.0490617
-0.0490298
-0.0489973
-0.0489643
-0.0489306
-0.0488963
-0.0488614
-0.0488259
-0.0487897
-0.0487528
-0.0487153
-0.0486772
-0.0486383
-0.0485988
-0.0485586
-0.0485177
-0.0484761
-0.0484338
-0.0483908
-0.0483472
-0.0483028
-0.0482578
-0.048212
-0.0481655
-0.0481182
-0.0480702
-0.0480214
-0.0479719
-0.0479214
-0.0478702
-0.0478181
-0.0477651
-0.0477112
-0.0476565
-0.0476007
-0.0475441
-0.0474865
-0.0474279
-0.0473683
-0.0473078
-0.0472461
-0.0471835
-0.0471198
-0.0470551
-0.0469891
-0.0469222
-0.046854
-0.0467848
-0.0467143
-0.0466427
-0.0465698
-0.0464957
-0.0464202
-0.0463436
-0.0462654
-0.0461849
-0.0461019
-0.0460299
-0.0502188
-0.0502185
-0.0502128
-0.0502062
-0.0501986
-0.0501899
-0.0501803
-0.05017
-0.050159
-0.0501474
-0.0501353
-0.0501229
-0.05011
-0.0500969
-0.0500834
-0.0500697
-0.0500558
-0.0500416
-0.0500271
-0.0500124
-0.0499975
-0.0499823
-0.0499668
-0.049951
-0.049935
-0.0499187
-0.049902
-0.0498851
-0.0498679
-0.0498504
-0.0498325
-0.0498144
-0.0497959
-0.0497772
-0.0497581
-0.0497386
-0.0497189
-0.0496988
-0.0496783
-0.0496575
-0.0496363
-0.0496148
-0.0495929
-0.0495706
-0.049548
-0.0495249
-0.0495014
-0.0494776
-0.0494532
-0.0494285
-0.0494033
-0.0493777
-0.0493516
-0.0493251
-0.049298
-0.0492705
-0.0492425
-0.049214
-0.0491849
-0.0491554
-0.0491252
-0.0490945
-0.0490633
-0.0490315
-0.048999
-0.048966
-0.0489324
-0.0488982
-0.0488633
-0.0488279
-0.0487917
-0.048755
-0.0487175
-0.0486794
-0.0486406
-0.0486012
-0.048561
-0.0485202
-0.0484786
-0.0484365
-0.0483935
-0.04835
-0.0483056
-0.0482607
-0.048215
-0.0481686
-0.0481214
-0.0480735
-0.0480248
-0.0479754
-0.0479251
-0.047874
-0.047822
-0.0477691
-0.0477154
-0.0476607
-0.0476051
-0.0475486
-0.0474911
-0.0474326
-0.0473731
-0.0473127
-0.0472511
-0.0471886
-0.0471249
-0.0470603
-0.0469944
-0.0469276
-0.0468594
-0.0467903
-0.0467198
-0.0466483
-0.0465754
-0.0465014
-0.0464259
-0.0463493
-0.0462711
-0.0461905
-0.0461074
-0.0460353
-0.0502287
-0.0502248
-0.0502173
-0.0502097
-0.0502014
-0.0501923
-0.0501824
-0.0501718
-0.0501607
-0.050149
-0.0501369
-0.0501243
-0.0501114
-0.0500982
-0.0500847
-0.0500709
-0.050057
-0.0500427
-0.0500282
-0.0500135
-0.0499985
-0.0499833
-0.0499678
-0.049952
-0.049936
-0.0499196
-0.049903
-0.0498861
-0.0498689
-0.0498514
-0.0498336
-0.0498155
-0.049797
-0.0497783
-0.0497592
-0.0497398
-0.0497201
-0.0497
-0.0496796
-0.0496588
-0.0496377
-0.0496162
-0.0495943
-0.0495721
-0.0495495
-0.0495264
-0.049503
-0.0494792
-0.0494549
-0.0494303
-0.0494051
-0.0493796
-0.0493536
-0.0493271
-0.0493001
-0.0492727
-0.0492447
-0.0492162
-0.0491873
-0.0491577
-0.0491277
-0.0490971
-0.0490659
-0.0490342
-0.0490019
-0.0489689
-0.0489354
-0.0489013
-0.0488666
-0.0488312
-0.0487952
-0.0487585
-0.0487213
-0.0486833
-0.0486447
-0.0486053
-0.0485653
-0.0485246
-0.0484832
-0.0484411
-0.0483984
-0.0483549
-0.0483108
-0.0482659
-0.0482204
-0.0481741
-0.0481271
-0.0480793
-0.0480308
-0.0479815
-0.0479314
-0.0478804
-0.0478286
-0.0477759
-0.0477223
-0.0476677
-0.0476123
-0.0475559
-0.0474986
-0.0474402
-0.0473809
-0.0473205
-0.0472591
-0.0471966
-0.0471332
-0.0470685
-0.0470028
-0.0469359
-0.046868
-0.0467988
-0.0467285
-0.0466568
-0.046584
-0.0465099
-0.0464346
-0.0463578
-0.0462798
-0.0461991
-0.0461161
-0.0460441
-0.0502372
-0.0502311
-0.0502222
-0.0502137
-0.0502048
-0.0501952
-0.050185
-0.0501742
-0.0501629
-0.0501511
-0.0501388
-0.0501262
-0.0501132
-0.0500999
-0.0500863
-0.0500725
-0.0500585
-0.0500442
-0.0500297
-0.0500149
-0.0499999
-0.0499847
-0.0499692
-0.0499534
-0.0499373
-0.049921
-0.0499044
-0.0498875
-0.0498703
-0.0498528
-0.049835
-0.0498169
-0.0497985
-0.0497798
-0.0497607
-0.0497414
-0.0497217
-0.0497016
-0.0496813
-0.0496605
-0.0496395
-0.049618
-0.0495962
-0.049574
-0.0495515
-0.0495285
-0.0495052
-0.0494814
-0.0494572
-0.0494326
-0.0494076
-0.0493821
-0.0493561
-0.0493297
-0.0493028
-0.0492754
-0.0492476
-0.0492192
-0.0491903
-0.0491609
-0.049131
-0.0491004
-0.0490694
-0.0490377
-0.0490056
-0.0489727
-0.0489394
-0.0489053
-0.0488708
-0.0488355
-0.0487997
-0.0487632
-0.048726
-0.0486882
-0.0486498
-0.0486106
-0.0485708
-0.0485302
-0.048489
-0.048447
-0.0484045
-0.0483611
-0.0483172
-0.0482724
-0.0482271
-0.0481809
-0.0481341
-0.0480865
-0.0480382
-0.047989
-0.0479391
-0.0478882
-0.0478366
-0.047784
-0.0477306
-0.0476762
-0.047621
-0.0475647
-0.0475075
-0.0474493
-0.0473901
-0.0473299
-0.0472687
-0.0472063
-0.047143
-0.0470785
-0.0470129
-0.0469461
-0.0468783
-0.0468092
-0.0467391
-0.0466676
-0.0465949
-0.0465209
-0.0464457
-0.0463691
-0.0462912
-0.0462106
-0.0461277
-0.0460557
-0.0502448
-0.0502371
-0.0502272
-0.0502181
-0.0502085
-0.0501985
-0.050188
-0.050177
-0.0501655
-0.0501536
-0.0501412
-0.0501284
-0.0501153
-0.050102
-0.0500883
-0.0500745
-0.0500604
-0.0500461
-0.0500315
-0.0500167
-0.0500017
-0.0499864
-0.0499709
-0.0499551
-0.049939
-0.0499227
-0.0499061
-0.0498892
-0.049872
-0.0498546
-0.0498368
-0.0498187
-0.0498004
-0.0497817
-0.0497627
-0.0497434
-0.0497237
-0.0497037
-0.0496834
-0.0496628
-0.0496418
-0.0496204
-0.0495986
-0.0495765
-0.049554
-0.0495312
-0.0495079
-0.0494842
-0.0494601
-0.0494356
-0.0494106
-0.0493852
-0.0493593
-0.049333
-0.0493062
-0.049279
-0.0492512
-0.049223
-0.0491942
-0.0491649
-0.049135
-0.0491047
-0.0490737
-0.0490422
-0.0490101
-0.0489775
-0.0489443
-0.0489104
-0.048876
-0.048841
-0.0488053
-0.048769
-0.048732
-0.0486944
-0.0486561
-0.0486172
-0.0485775
-0.0485372
-0.0484961
-0.0484545
-0.048412
-0.0483689
-0.0483251
-0.0482807
-0.0482355
-0.0481896
-0.0481429
-0.0480956
-0.0480474
-0.0479985
-0.0479487
-0.0478981
-0.0478466
-0.0477943
-0.047741
-0.0476869
-0.0476318
-0.0475758
-0.0475187
-0.0474608
-0.0474017
-0.0473418
-0.0472807
-0.0472186
-0.0471554
-0.0470911
-0.0470257
-0.0469592
-0.0468915
-0.0468227
-0.0467527
-0.0466815
-0.0466089
-0.0465352
-0.0464601
-0.0463838
-0.0463059
-0.0462257
-0.0461428
-0.0460711
-0.0502516
-0.0502429
-0.0502323
-0.0502226
-0.0502126
-0.0502022
-0.0501914
-0.0501802
-0.0501685
-0.0501564
-0.0501439
-0.0501311
-0.0501179
-0.0501044
-0.0500907
-0.0500768
-0.0500626
-0.0500482
-0.0500336
-0.0500188
-0.0500038
-0.0499885
-0.0499729
-0.0499571
-0.0499411
-0.0499247
-0.0499081
-0.0498913
-0.0498741
-0.0498567
-0.049839
-0.0498209
-0.0498026
-0.049784
-0.049765
-0.0497458
-0.0497262
-0.0497063
-0.049686
-0.0496655
-0.0496445
-0.0496232
-0.0496015
-0.0495795
-0.0495571
-0.0495343
-0.0495111
-0.0494875
-0.0494635
-0.0494391
-0.0494142
-0.049389
-0.0493632
-0.049337
-0.0493103
-0.0492832
-0.0492555
-0.0492274
-0.0491988
-0.0491696
-0.0491399
-0.0491097
-0.0490789
-0.0490476
-0.0490156
-0.0489832
-0.0489501
-0.0489165
-0.0488822
-0.0488474
-0.0488119
-0.0487759
-0.0487391
-0.0487018
-0.0486637
-0.048625
-0.0485855
-0.0485455
-0.0485046
-0.0484632
-0.0484209
-0.0483781
-0.0483345
-0.0482903
-0.0482453
-0.0481997
-0.0481533
-0.0481061
-0.0480582
-0.0480095
-0.0479599
-0.0479096
-0.0478584
-0.0478063
-0.0477533
-0.0476994
-0.0476445
-0.0475888
-0.047532
-0.0474743
-0.0474155
-0.0473558
-0.0472949
-0.0472331
-0.0471701
-0.0471061
-0.0470409
-0.0469747
-0.0469073
-0.0468388
-0.0467689
-0.046698
-0.0466257
-0.0465523
-0.0464775
-0.0464014
-0.0463238
-0.0462438
-0.0461612
-0.0460897
-0.0502577
-0.0502483
-0.0502373
-0.0502272
-0.0502169
-0.0502062
-0.0501951
-0.0501837
-0.0501718
-0.0501596
-0.050147
-0.050134
-0.0501207
-0.0501072
-0.0500934
-0.0500794
-0.0500651
-0.0500507
-0.0500361
-0.0500212
-0.0500061
-0.0499908
-0.0499753
-0.0499595
-0.0499434
-0.0499271
-0.0499105
-0.0498937
-0.0498766
-0.0498592
-0.0498415
-0.0498235
-0.0498052
-0.0497867
-0.0497678
-0.0497486
-0.0497291
-0.0497092
-0.0496891
-0.0496686
-0.0496477
-0.0496265
-0.0496049
-0.049583
-0.0495607
-0.049538
-0.0495149
-0.0494914
-0.0494675
-0.0494432
-0.0494185
-0.0493933
-0.0493677
-0.0493416
-0.0493151
-0.0492881
-0.0492606
-0.0492326
-0.0492041
-0.0491751
-0.0491456
-0.0491155
-0.0490849
-0.0490537
-0.0490221
-0.0489898
-0.0489569
-0.0489235
-0.0488895
-0.0488549
-0.0488197
-0.0487838
-0.0487474
-0.0487102
-0.0486725
-0.048634
-0.0485949
-0.048555
-0.0485145
-0.0484733
-0.0484314
-0.0483888
-0.0483455
-0.0483015
-0.0482569
-0.0482114
-0.0481653
-0.0481184
-0.0480708
-0.0480223
-0.0479731
-0.047923
-0.047872
-0.0478202
-0.0477675
-0.0477139
-0.0476594
-0.0476038
-0.0475474
-0.0474899
-0.0474315
-0.047372
-0.0473116
-0.04725
-0.0471874
-0.0471236
-0.0470589
-0.0469928
-0.0469258
-0.0468575
-0.046788
-0.0467173
-0.0466454
-0.0465722
-0.0464977
-0.0464219
-0.0463447
-0.0462649
-0.0461828
-0.0461116
-0.0502634
-0.0502536
-0.0502423
-0.0502319
-0.0502213
-0.0502104
-0.0501991
-0.0501875
-0.0501755
-0.0501631
-0.0501504
-0.0501373
-0.0501239
-0.0501103
-0.0500964
-0.0500823
-0.050068
-0.0500535
-0.0500388
-0.0500239
-0.0500088
-0.0499935
-0.0499779
-0.0499621
-0.0499461
-0.0499298
-0.0499132
-0.0498964
-0.0498794
-0.049862
-0.0498444
-0.0498264
-0.0498082
-0.0497897
-0.0497709
-0.0497518
-0.0497324
-0.0497126
-0.0496926
-0.0496721
-0.0496514
-0.0496303
-0.0496088
-0.049587
-0.0495648
-0.0495422
-0.0495192
-0.0494959
-0.0494721
-0.0494479
-0.0494233
-0.0493983
-0.0493728
-0.0493469
-0.0493205
-0.0492936
-0.0492663
-0.0492385
-0.0492102
-0.0491813
-0.049152
-0.0491221
-0.0490917
-0.0490608
-0.0490293
-0.0489973
-0.0489647
-0.0489315
-0.0488978
-0.0488634
-0.0488285
-0.0487929
-0.0487567
-0.0487199
-0.0486824
-0.0486443
-0.0486055
-0.0485659
-0.0485258
-0.0484848
-0.0484433
-0.048401
-0.048358
-0.0483143
-0.0482699
-0.0482247
-0.0481789
-0.0481323
-0.048085
-0.0480368
-0.0479878
-0.047938
-0.0478874
-0.0478359
-0.0477835
-0.0477302
-0.047676
-0.0476208
-0.0475647
-0.0475076
-0.0474495
-0.0473903
-0.0473302
-0.047269
-0.0472067
-0.0471433
-0.0470789
-0.0470132
-0.0469465
-0.0468786
-0.0468095
-0.0467392
-0.0466677
-0.0465948
-0.0465208
-0.0464453
-0.0463686
-0.0462892
-0.0462075
-0.0461368
-0.0502687
-0.0502587
-0.0502473
-0.0502367
-0.050226
-0.0502148
-0.0502034
-0.0501916
-0.0501794
-0.0501669
-0.050154
-0.0501408
-0.0501274
-0.0501136
-0.0500996
-0.0500854
-0.0500711
-0.0500565
-0.0500418
-0.0500269
-0.0500117
-0.0499964
-0.0499808
-0.0499651
-0.049949
-0.0499328
-0.0499163
-0.0498995
-0.0498824
-0.0498651
-0.0498476
-0.0498297
-0.0498116
-0.0497931
-0.0497744
-0.0497554
-0.0497361
-0.0497164
-0.0496964
-0.0496761
-0.0496555
-0.0496345
-0.0496131
-0.0495914
-0.0495693
-0.0495469
-0.0495241
-0.0495008
-0.0494772
-0.0494532
-0.0494287
-0.0494038
-0.0493785
-0.0493528
-0.0493265
-0.0492999
-0.0492727
-0.0492451
-0.0492169
-0.0491883
-0.0491592
-0.0491295
-0.0490994
-0.0490687
-0.0490374
-0.0490057
-0.0489733
-0.0489405
-0.048907
-0.0488729
-0.0488383
-0.048803
-0.0487672
-0.0487307
-0.0486935
-0.0486558
-0.0486173
-0.0485782
-0.0485383
-0.0484978
-0.0484565
-0.0484146
-0.0483719
-0.0483286
-0.0482845
-0.0482397
-0.0481941
-0.0481478
-0.0481007
-0.0480529
-0.0480042
-0.0479548
-0.0479045
-0.0478533
-0.0478013
-0.0477484
-0.0476945
-0.0476397
-0.0475839
-0.0475272
-0.0474694
-0.0474107
-0.0473509
-0.0472901
-0.0472281
-0.0471652
-0.0471011
-0.0470359
-0.0469696
-0.0469021
-0.0468334
-0.0467636
-0.0466925
-0.0466202
-0.0465465
-0.0464716
-0.0463952
-0.0463165
-0.0462352
-0.046165
-0.0502738
-0.0502637
-0.0502523
-0.0502417
-0.0502308
-0.0502195
-0.0502078
-0.0501959
-0.0501836
-0.0501709
-0.0501579
-0.0501447
-0.0501311
-0.0501172
-0.0501032
-0.0500889
-0.0500744
-0.0500598
-0.050045
-0.0500301
-0.0500149
-0.0499996
-0.049984
-0.0499683
-0.0499522
-0.049936
-0.0499195
-0.0499028
-0.0498858
-0.0498686
-0.0498511
-0.0498333
-0.0498152
-0.0497969
-0.0497783
-0.0497593
-0.0497401
-0.0497206
-0.0497007
-0.0496805
-0.04966
-0.0496391
-0.0496179
-0.0495963
-0.0495744
-0.0495521
-0.0495294
-0.0495063
-0.0494828
-0.049459
-0.0494347
-0.04941
-0.0493848
-0.0493592
-0.0493332
-0.0493067
-0.0492797
-0.0492523
-0.0492244
-0.049196
-0.0491671
-0.0491377
-0.0491078
-0.0490774
-0.0490464
-0.0490149
-0.0489829
-0.0489503
-0.0489171
-0.0488834
-0.0488491
-0.0488142
-0.0487787
-0.0487426
-0.0487058
-0.0486684
-0.0486303
-0.0485916
-0.0485521
-0.048512
-0.0484711
-0.0484296
-0.0483872
-0.0483442
-0.0483004
-0.048256
-0.0482107
-0.0481647
-0.048118
-0.0480705
-0.0480222
-0.0479731
-0.0479231
-0.0478724
-0.0478207
-0.0477682
-0.0477147
-0.0476603
-0.0476049
-0.0475486
-0.0474912
-0.0474329
-0.0473735
-0.0473132
-0.0472516
-0.0471892
-0.0471255
-0.0470608
-0.0469949
-0.0469279
-0.0468597
-0.0467904
-0.0467198
-0.046648
-0.0465748
-0.0465006
-0.0464247
-0.0463465
-0.0462659
-0.0461963
-0.050279
-0.0502688
-0.0502574
-0.0502468
-0.0502357
-0.0502243
-0.0502125
-0.0502004
-0.050188
-0.0501752
-0.0501621
-0.0501487
-0.050135
-0.0501211
-0.0501069
-0.0500926
-0.050078
-0.0500634
-0.0500485
-0.0500335
-0.0500184
-0.050003
-0.0499875
-0.0499717
-0.0499557
-0.0499395
-0.0499231
-0.0499064
-0.0498895
-0.0498723
-0.0498549
-0.0498372
-0.0498192
-0.049801
-0.0497825
-0.0497636
-0.0497445
-0.0497251
-0.0497053
-0.0496853
-0.0496649
-0.0496441
-0.0496231
-0.0496016
-0.0495799
-0.0495577
-0.0495352
-0.0495123
-0.049489
-0.0494653
-0.0494411
-0.0494166
-0.0493917
-0.0493663
-0.0493404
-0.0493141
-0.0492874
-0.0492602
-0.0492325
-0.0492044
-0.0491758
-0.0491466
-0.049117
-0.0490869
-0.0490562
-0.049025
-0.0489933
-0.0489611
-0.0489282
-0.0488948
-0.0488609
-0.0488263
-0.0487912
-0.0487554
-0.0487191
-0.0486821
-0.0486444
-0.048606
-0.048567
-0.0485273
-0.0484868
-0.0484456
-0.0484037
-0.048361
-0.0483176
-0.0482735
-0.0482286
-0.048183
-0.0481366
-0.0480895
-0.0480416
-0.0479928
-0.0479433
-0.0478929
-0.0478417
-0.0477895
-0.0477365
-0.0476825
-0.0476276
-0.0475717
-0.0475149
-0.047457
-0.0473981
-0.0473382
-0.0472772
-0.0472151
-0.0471521
-0.0470878
-0.0470225
-0.0469559
-0.0468883
-0.0468195
-0.0467495
-0.0466782
-0.0466057
-0.0465319
-0.0464568
-0.0463791
-0.0462993
-0.0462303
-0.0502842
-0.0502739
-0.0502627
-0.050252
-0.0502409
-0.0502294
-0.0502174
-0.0502052
-0.0501926
-0.0501797
-0.0501665
-0.050153
-0.0501392
-0.0501251
-0.0501109
-0.0500965
-0.0500819
-0.0500671
-0.0500522
-0.0500372
-0.050022
-0.0500067
-0.0499911
-0.0499754
-0.0499595
-0.0499433
-0.0499269
-0.0499103
-0.0498935
-0.0498764
-0.049859
-0.0498414
-0.0498236
-0.0498054
-0.049787
-0.0497683
-0.0497493
-0.04973
-0.0497104
-0.0496904
-0.0496702
-0.0496496
-0.0496287
-0.0496074
-0.0495858
-0.0495638
-0.0495414
-0.0495187
-0.0494956
-0.049472
-0.0494481
-0.0494238
-0.0493991
-0.0493739
-0.0493483
-0.0493222
-0.0492957
-0.0492688
-0.0492414
-0.0492135
-0.0491852
-0.0491563
-0.049127
-0.0490972
-0.0490669
-0.049036
-0.0490046
-0.0489727
-0.0489402
-0.0489072
-0.0488736
-0.0488394
-0.0488047
-0.0487693
-0.0487334
-0.0486967
-0.0486595
-0.0486215
-0.0485829
-0.0485435
-0.0485035
-0.0484626
-0.0484211
-0.0483788
-0.0483358
-0.048292
-0.0482476
-0.0482023
-0.0481564
-0.0481096
-0.0480622
-0.0480138
-0.0479648
-0.0479148
-0.047864
-0.0478123
-0.0477598
-0.0477062
-0.0476518
-0.0475964
-0.0475401
-0.0474827
-0.0474244
-0.0473649
-0.0473045
-0.047243
-0.0471805
-0.0471167
-0.047052
-0.046986
-0.0469191
-0.0468508
-0.0467814
-0.0467108
-0.046639
-0.0465658
-0.0464914
-0.0464145
-0.0463354
-0.0462671
-0.0502895
-0.0502793
-0.0502682
-0.0502575
-0.0502463
-0.0502346
-0.0502226
-0.0502102
-0.0501974
-0.0501844
-0.050171
-0.0501574
-0.0501435
-0.0501294
-0.0501151
-0.0501006
-0.0500859
-0.0500711
-0.0500561
-0.0500411
-0.0500259
-0.0500105
-0.049995
-0.0499793
-0.0499634
-0.0499473
-0.049931
-0.0499144
-0.0498977
-0.0498807
-0.0498634
-0.0498459
-0.0498282
-0.0498101
-0.0497918
-0.0497732
-0.0497544
-0.0497352
-0.0497157
-0.0496959
-0.0496758
-0.0496554
-0.0496347
-0.0496136
-0.0495921
-0.0495703
-0.0495481
-0.0495256
-0.0495027
-0.0494794
-0.0494556
-0.0494315
-0.049407
-0.0493821
-0.0493567
-0.0493309
-0.0493047
-0.049278
-0.0492509
-0.0492233
-0.0491953
-0.0491667
-0.0491377
-0.0491082
-0.0490782
-0.0490477
-0.0490167
-0.0489852
-0.0489531
-0.0489204
-0.0488872
-0.0488535
-0.0488191
-0.0487842
-0.0487486
-0.0487124
-0.0486755
-0.048638
-0.0485997
-0.0485608
-0.048521
-0.0484807
-0.0484395
-0.0483976
-0.048355
-0.0483117
-0.0482676
-0.0482228
-0.0481773
-0.048131
-0.0480839
-0.0480361
-0.0479875
-0.047938
-0.0478877
-0.0478365
-0.0477844
-0.0477315
-0.0476775
-0.0476227
-0.0475668
-0.04751
-0.0474522
-0.0473934
-0.0473335
-0.0472726
-0.0472106
-0.0471476
-0.0470835
-0.0470183
-0.0469518
-0.0468844
-0.0468156
-0.0467458
-0.0466746
-0.0466023
-0.0465285
-0.0464525
-0.0463741
-0.0463066
-0.0502952
-0.0502848
-0.0502739
-0.0502632
-0.0502519
-0.0502401
-0.0502279
-0.0502154
-0.0502025
-0.0501893
-0.0501758
-0.050162
-0.0501481
-0.0501338
-0.0501194
-0.0501048
-0.0500901
-0.0500752
-0.0500602
-0.0500451
-0.0500299
-0.0500146
-0.0499991
-0.0499834
-0.0499676
-0.0499515
-0.0499353
-0.0499188
-0.0499021
-0.0498852
-0.0498681
-0.0498507
-0.049833
-0.0498151
-0.0497969
-0.0497785
-0.0497598
-0.0497408
-0.0497214
-0.0497018
-0.0496819
-0.0496616
-0.049641
-0.0496202
-0.0495989
-0.0495773
-0.0495553
-0.049533
-0.0495102
-0.0494872
-0.0494637
-0.0494398
-0.0494155
-0.0493908
-0.0493657
-0.0493402
-0.0493143
-0.0492879
-0.0492611
-0.0492338
-0.0492061
-0.0491779
-0.0491492
-0.0491201
-0.0490904
-0.0490603
-0.0490296
-0.0489985
-0.0489668
-0.0489346
-0.0489017
-0.0488684
-0.0488344
-0.0487999
-0.0487647
-0.0487289
-0.0486924
-0.0486553
-0.0486174
-0.0485789
-0.0485396
-0.0484996
-0.0484589
-0.0484175
-0.0483752
-0.0483324
-0.0482888
-0.0482445
-0.0481994
-0.0481536
-0.048107
-0.0480597
-0.0480115
-0.0479626
-0.0479128
-0.0478622
-0.0478106
-0.0477582
-0.0477048
-0.0476505
-0.0475952
-0.0475391
-0.0474818
-0.0474236
-0.0473643
-0.0473041
-0.0472428
-0.0471804
-0.0471169
-0.0470524
-0.0469867
-0.04692
-0.0468519
-0.0467829
-0.0467124
-0.0466409
-0.0465679
-0.0464927
-0.0464152
-0.0463485
-0.0503013
-0.0502907
-0.0502799
-0.0502692
-0.0502577
-0.0502458
-0.0502335
-0.0502207
-0.0502077
-0.0501944
-0.0501807
-0.0501668
-0.0501527
-0.0501384
-0.0501239
-0.0501093
-0.0500945
-0.0500796
-0.0500645
-0.0500494
-0.0500342
-0.0500188
-0.0500033
-0.0499877
-0.0499719
-0.0499559
-0.0499398
-0.0499234
-0.0499068
-0.04989
-0.049873
-0.0498557
-0.0498382
-0.0498204
-0.0498024
-0.0497841
-0.0497655
-0.0497466
-0.0497275
-0.049708
-0.0496883
-0.0496682
-0.0496478
-0.0496271
-0.049606
-0.0495846
-0.0495629
-0.0495408
-0.0495183
-0.0494954
-0.0494722
-0.0494486
-0.0494246
-0.0494002
-0.0493754
-0.0493501
-0.0493245
-0.0492984
-0.0492719
-0.049245
-0.0492176
-0.0491898
-0.0491615
-0.0491327
-0.0491034
-0.0490737
-0.0490434
-0.0490126
-0.0489813
-0.0489495
-0.0489171
-0.0488842
-0.0488506
-0.0488165
-0.0487817
-0.0487463
-0.0487103
-0.0486735
-0.0486361
-0.048598
-0.0485592
-0.0485196
-0.0484794
-0.0484384
-0.0483967
-0.0483542
-0.0483111
-0.0482673
-0.0482227
-0.0481774
-0.0481313
-0.0480845
-0.0480369
-0.0479885
-0.0479392
-0.0478891
-0.0478382
-0.0477863
-0.0477336
-0.0476799
-0.0476253
-0.0475697
-0.0475131
-0.0474555
-0.047397
-0.0473374
-0.0472768
-0.0472151
-0.0471524
-0.0470885
-0.0470237
-0.0469575
-0.0468904
-0.046822
-0.0467525
-0.0466816
-0.0466096
-0.0465352
-0.0464587
-0.0463928
-0.0503079
-0.050297
-0.0502862
-0.0502754
-0.0502639
-0.0502518
-0.0502392
-0.0502263
-0.0502131
-0.0501996
-0.0501858
-0.0501718
-0.0501576
-0.0501432
-0.0501286
-0.0501139
-0.050099
-0.050084
-0.050069
-0.0500538
-0.0500386
-0.0500232
-0.0500078
-0.0499922
-0.0499765
-0.0499605
-0.0499445
-0.0499282
-0.0499117
-0.049895
-0.0498781
-0.0498609
-0.0498436
-0.0498259
-0.049808
-0.0497899
-0.0497715
-0.0497528
-0.0497338
-0.0497146
-0.049695
-0.0496751
-0.049655
-0.0496344
-0.0496136
-0.0495924
-0.0495709
-0.049549
-0.0495268
-0.0495042
-0.0494813
-0.0494579
-0.0494342
-0.04941
-0.0493856
-0.0493606
-0.0493353
-0.0493096
-0.0492835
-0.0492568
-0.0492298
-0.0492023
-0.0491744
-0.049146
-0.0491172
-0.0490878
-0.049058
-0.0490276
-0.0489967
-0.0489653
-0.0489333
-0.0489008
-0.0488677
-0.0488339
-0.0487996
-0.0487646
-0.048729
-0.0486927
-0.0486558
-0.0486181
-0.0485798
-0.0485407
-0.0485009
-0.0484604
-0.0484193
-0.0483773
-0.0483347
-0.0482913
-0.0482473
-0.0482024
-0.0481569
-0.0481106
-0.0480636
-0.0480156
-0.047967
-0.0479175
-0.0478671
-0.0478158
-0.0477638
-0.0477107
-0.0476568
-0.0476018
-0.047546
-0.047489
-0.0474313
-0.0473723
-0.0473125
-0.0472515
-0.0471896
-0.0471265
-0.0470624
-0.0469971
-0.0469308
-0.0468632
-0.0467946
-0.0467247
-0.0466535
-0.04658
-0.0465046
-0.0464395
-0.0503149
-0.0503036
-0.0502929
-0.050282
-0.0502702
-0.050258
-0.0502452
-0.0502321
-0.0502187
-0.050205
-0.050191
-0.0501769
-0.0501625
-0.050148
-0.0501334
-0.0501186
-0.0501037
-0.0500887
-0.0500736
-0.0500584
-0.0500431
-0.0500278
-0.0500124
-0.0499968
-0.0499812
-0.0499653
-0.0499493
-0.0499332
-0.0499168
-0.0499002
-0.0498834
-0.0498664
-0.0498492
-0.0498317
-0.049814
-0.049796
-0.0497778
-0.0497593
-0.0497405
-0.0497214
-0.0497021
-0.0496824
-0.0496625
-0.0496422
-0.0496216
-0.0496006
-0.0495794
-0.0495577
-0.0495358
-0.0495135
-0.0494908
-0.0494677
-0.0494443
-0.0494205
-0.0493963
-0.0493718
-0.0493468
-0.0493214
-0.0492956
-0.0492694
-0.0492427
-0.0492156
-0.0491881
-0.0491601
-0.0491316
-0.0491027
-0.0490733
-0.0490433
-0.0490129
-0.0489819
-0.0489503
-0.0489182
-0.0488855
-0.0488522
-0.0488183
-0.0487838
-0.0487486
-0.0487128
-0.0486763
-0.0486392
-0.0486013
-0.0485628
-0.0485235
-0.0484836
-0.0484429
-0.0484016
-0.0483595
-0.0483167
-0.0482731
-0.0482288
-0.0481838
-0.048138
-0.0480915
-0.0480442
-0.047996
-0.0479472
-0.0478974
-0.0478468
-0.0477953
-0.0477429
-0.0476896
-0.0476354
-0.0475802
-0.0475241
-0.0474669
-0.0474089
-0.0473497
-0.0472897
-0.0472285
-0.0471663
-0.047103
-0.0470387
-0.0469732
-0.0469066
-0.0468388
-0.0467699
-0.0466996
-0.0466272
-0.0465526
-0.0464886
-0.0503226
-0.0503107
-0.0502999
-0.0502888
-0.0502769
-0.0502644
-0.0502514
-0.050238
-0.0502244
-0.0502105
-0.0501964
-0.0501821
-0.0501676
-0.050153
-0.0501383
-0.0501234
-0.0501085
-0.0500934
-0.0500783
-0.0500631
-0.0500478
-0.0500325
-0.0500171
-0.0500016
-0.049986
-0.0499703
-0.0499544
-0.0499383
-0.0499221
-0.0499056
-0.049889
-0.0498721
-0.049855
-0.0498377
-0.0498202
-0.0498024
-0.0497843
-0.049766
-0.0497475
-0.0497286
-0.0497095
-0.0496901
-0.0496703
-0.0496503
-0.0496299
-0.0496093
-0.0495882
-0.0495669
-0.0495452
-0.0495232
-0.0495008
-0.0494781
-0.049455
-0.0494316
-0.0494077
-0.0493835
-0.0493588
-0.0493339
-0.0493084
-0.0492826
-0.0492563
-0.0492296
-0.0492025
-0.0491749
-0.0491469
-0.0491184
-0.0490893
-0.0490598
-0.0490298
-0.0489992
-0.0489681
-0.0489364
-0.0489041
-0.0488713
-0.0488378
-0.0488038
-0.048769
-0.0487338
-0.0486978
-0.0486612
-0.0486238
-0.0485859
-0.0485472
-0.0485078
-0.0484677
-0.0484269
-0.0483853
-0.0483431
-0.0483
-0.0482563
-0.0482118
-0.0481667
-0.0481206
-0.048074
-0.0480264
-0.0479782
-0.047929
-0.0478791
-0.0478282
-0.0477766
-0.0477239
-0.0476705
-0.047616
-0.0475607
-0.0475043
-0.0474471
-0.0473887
-0.0473295
-0.0472691
-0.0472079
-0.0471454
-0.047082
-0.0470174
-0.0469518
-0.0468849
-0.046817
-0.0467477
-0.0466763
-0.0466028
-0.0465399
-0.0503308
-0.0503183
-0.0503074
-0.0502961
-0.0502838
-0.050271
-0.0502577
-0.0502441
-0.0502302
-0.0502161
-0.0502018
-0.0501874
-0.0501728
-0.0501581
-0.0501433
-0.0501283
-0.0501133
-0.0500983
-0.0500831
-0.0500679
-0.0500526
-0.0500374
-0.050022
-0.0500066
-0.0499911
-0.0499754
-0.0499596
-0.0499437
-0.0499275
-0.0499112
-0.0498947
-0.049878
-0.0498611
-0.049844
-0.0498266
-0.049809
-0.0497912
-0.0497731
-0.0497547
-0.0497361
-0.0497172
-0.049698
-0.0496785
-0.0496588
-0.0496387
-0.0496183
-0.0495976
-0.0495765
-0.0495551
-0.0495334
-0.0495114
-0.049489
-0.0494662
-0.0494431
-0.0494196
-0.0493958
-0.0493715
-0.0493469
-0.0493219
-0.0492964
-0.0492706
-0.0492443
-0.0492176
-0.0491904
-0.0491628
-0.0491347
-0.0491061
-0.049077
-0.0490475
-0.0490173
-0.0489866
-0.0489554
-0.0489236
-0.0488912
-0.0488582
-0.0488246
-0.0487904
-0.0487556
-0.0487202
-0.0486841
-0.0486474
-0.0486099
-0.0485719
-0.048533
-0.0484935
-0.0484532
-0.0484123
-0.0483706
-0.0483282
-0.0482849
-0.0482411
-0.0481964
-0.0481511
-0.0481049
-0.0480581
-0.0480104
-0.0479619
-0.0479126
-0.0478626
-0.0478116
-0.0477598
-0.047707
-0.0476534
-0.0475988
-0.0475434
-0.0474868
-0.0474295
-0.047371
-0.0473116
-0.0472511
-0.0471897
-0.0471271
-0.0470636
-0.0469988
-0.0469331
-0.0468661
-0.046798
-0.0467275
-0.0466553
-0.0465933
-0.0503398
-0.0503264
-0.0503153
-0.0503036
-0.050291
-0.0502778
-0.0502642
-0.0502503
-0.0502362
-0.0502218
-0.0502074
-0.0501927
-0.050178
-0.0501632
-0.0501483
-0.0501333
-0.0501183
-0.0501032
-0.050088
-0.0500728
-0.0500576
-0.0500423
-0.050027
-0.0500117
-0.0499962
-0.0499807
-0.049965
-0.0499492
-0.0499332
-0.049917
-0.0499007
-0.0498842
-0.0498674
-0.0498505
-0.0498333
-0.0498159
-0.0497983
-0.0497804
-0.0497623
-0.0497439
-0.0497253
-0.0497063
-0.0496871
-0.0496676
-0.0496478
-0.0496277
-0.0496073
-0.0495866
-0.0495655
-0.0495441
-0.0495225
-0.0495004
-0.049478
-0.0494552
-0.0494322
-0.0494086
-0.0493848
-0.0493606
-0.049336
-0.0493109
-0.0492855
-0.0492596
-0.0492334
-0.0492066
-0.0491795
-0.0491518
-0.0491236
-0.0490949
-0.0490658
-0.0490361
-0.0490059
-0.0489751
-0.0489438
-0.0489118
-0.0488794
-0.0488462
-0.0488126
-0.0487783
-0.0487434
-0.0487079
-0.0486717
-0.0486348
-0.0485974
-0.0485591
-0.0485202
-0.0484805
-0.0484402
-0.048399
-0.0483572
-0.0483146
-0.0482713
-0.0482272
-0.0481825
-0.0481369
-0.0480908
-0.0480437
-0.047996
-0.0479474
-0.047898
-0.0478478
-0.0477968
-0.0477448
-0.0476921
-0.0476383
-0.0475837
-0.0475281
-0.0474717
-0.0474141
-0.0473557
-0.0472962
-0.0472357
-0.0471741
-0.0471116
-0.0470479
-0.0469832
-0.0469172
-0.0468502
-0.0467809
-0.0467098
-0.0466489
-0.0503494
-0.050335
-0.0503235
-0.0503115
-0.0502984
-0.0502849
-0.0502709
-0.0502566
-0.0502422
-0.0502276
-0.0502129
-0.0501982
-0.0501833
-0.0501684
-0.0501534
-0.0501384
-0.0501233
-0.0501082
-0.0500931
-0.0500779
-0.0500627
-0.0500474
-0.0500322
-0.0500169
-0.0500015
-0.0499861
-0.0499705
-0.0499549
-0.049939
-0.049923
-0.0499068
-0.0498905
-0.0498739
-0.0498572
-0.0498402
-0.049823
-0.0498057
-0.049788
-0.0497701
-0.049752
-0.0497336
-0.049715
-0.049696
-0.0496768
-0.0496573
-0.0496375
-0.0496175
-0.0495971
-0.0495764
-0.0495553
-0.049534
-0.0495123
-0.0494903
-0.0494679
-0.0494452
-0.0494221
-0.0493987
-0.0493748
-0.0493506
-0.049326
-0.049301
-0.0492756
-0.0492497
-0.0492235
-0.0491967
-0.0491695
-0.0491418
-0.0491136
-0.0490848
-0.0490556
-0.0490258
-0.0489955
-0.0489647
-0.0489333
-0.0489013
-0.0488687
-0.0488356
-0.0488019
-0.0487675
-0.0487326
-0.0486969
-0.0486607
-0.0486237
-0.0485861
-0.0485477
-0.0485087
-0.0484689
-0.0484284
-0.0483872
-0.0483452
-0.0483025
-0.0482591
-0.0482149
-0.0481701
-0.0481245
-0.0480782
-0.0480311
-0.0479833
-0.0479347
-0.0478853
-0.047835
-0.047784
-0.047732
-0.0476793
-0.0476255
-0.0475709
-0.0475153
-0.0474589
-0.0474014
-0.047343
-0.0472835
-0.0472231
-0.0471615
-0.047099
-0.0470353
-0.0469706
-0.0469046
-0.0468365
-0.0467665
-0.0467068
-0.0503598
-0.0503441
-0.0503322
-0.0503196
-0.0503061
-0.050292
-0.0502777
-0.050263
-0.0502483
-0.0502335
-0.0502186
-0.0502036
-0.0501886
-0.0501736
-0.0501586
-0.0501435
-0.0501284
-0.0501133
-0.0500982
-0.050083
-0.0500678
-0.0500526
-0.0500374
-0.0500222
-0.050007
-0.0499916
-0.0499762
-0.0499607
-0.049945
-0.0499292
-0.0499132
-0.049897
-0.0498807
-0.0498641
-0.0498474
-0.0498304
-0.0498133
-0.0497959
-0.0497783
-0.0497604
-0.0497423
-0.0497239
-0.0497053
-0.0496864
-0.0496672
-0.0496478
-0.049628
-0.049608
-0.0495876
-0.049567
-0.049546