# Forces      
# CofR        : (-1.050000e-01 0.000000e+00 0.000000e+00)
# Time        forces(pressure viscous)	moments(pressure viscous)
400           	((1.430732e+00 7.628965e+01 -4.139811e-18) (2.228936e-01 2.717968e-02 1.464517e-18)) ((1.375477e-20 -2.883553e-19 -1.020964e+00) (-1.244369e-23 6.019807e-21 2.472896e-03))
