/*--------------------------------*- C++ -*----------------------------------*\
  =========                 |
  \\      /  F ield         | OpenFOAM: The Open Source CFD Toolbox
   \\    /   O peration     | Website:  https://openfoam.org
    \\  /    A nd           | Version:  10
     \\/     M anipulation  |
\*---------------------------------------------------------------------------*/
FoamFile
{
    format      ascii;
    class       volScalarField;
    location    "433";
    object      nut;
}
// * * * * * * * * * * * * * * * * * * * * * * * * * * * * * * * * * * * * * //

dimensions      [0 2 -1 0 0 0 0];

internalField   nonuniform List<scalar> 
13320
(
0.000397489
0.00037036
0.000403661
0.000420776
0.000416497
0.000404694
0.000392212
0.000381002
0.000371802
0.000364326
0.000357991
0.000352406
0.000347408
0.000342789
0.000338354
0.000334185
0.000331215
0.000329548
0.000328149
0.000326466
0.000324513
0.000322278
0.000319868
0.000317429
0.000315149
0.000313375
0.000312328
0.000311784
0.000311387
0.000310902
0.000310231
0.000309316
0.000308132
0.000306676
0.000304953
0.000302973
0.000300747
0.000298283
0.000295589
0.00029267
0.000289519
0.000286126
0.000282472
0.000278525
0.000274228
0.00026948
0.000264197
0.000257828
0.000250444
0.000237851
0.00149141
0.00140028
0.00124157
0.00106743
0.000910771
0.000781685
0.000680395
0.000600514
0.000538127
0.000488494
0.000447247
0.000412041
0.000381998
0.000355898
0.00033278
0.000313432
0.000304765
0.000306604
0.000311199
0.00031569
0.000320488
0.000325182
0.00032985
0.000334401
0.000338917
0.000343057
0.000346533
0.000349473
0.00035189
0.000353821
0.000355407
0.000356724
0.000357816
0.000358714
0.000359437
0.000360007
0.000360437
0.000360741
0.000360929
0.000361008
0.000360982
0.00036085
0.000360611
0.000360254
0.000359752
0.000359099
0.000358135
0.00035693
0.00035435
0.000351922
0.00267723
0.00258199
0.00238953
0.00213979
0.00188773
0.00166191
0.00147269
0.00131591
0.00118946
0.00108661
0.000996925
0.000918566
0.00085094
0.000789994
0.000734918
0.000685527
0.000650242
0.000633371
0.000620214
0.000608008
0.000601609
0.000598116
0.000597517
0.00059879
0.000601691
0.000605856
0.000610265
0.000613991
0.000616889
0.000619045
0.000620587
0.000621647
0.000622322
0.000622689
0.000622792
0.000622673
0.000622345
0.000621824
0.000621113
0.000620204
0.000619083
0.000617728
0.000616106
0.000614161
0.000611797
0.000608917
0.000605195
0.000600314
0.000592877
0.000584107
0.00384806
0.00374195
0.00349977
0.00315267
0.00279158
0.00246489
0.00219048
0.00196486
0.00178595
0.00164279
0.00151141
0.00139726
0.00130058
0.00121208
0.00113158
0.00105777
0.000991195
0.000932415
0.000880011
0.000839044
0.000819639
0.000806663
0.000800667
0.000798631
0.000800358
0.000804873
0.000810642
0.000816082
0.000820714
0.000824526
0.000827575
0.000829958
0.000831769
0.000833097
0.000834001
0.000834536
0.000834726
0.000834591
0.000834138
0.000833363
0.000832252
0.00083078
0.00082891
0.000826581
0.000823685
0.00082011
0.000815538
0.000809639
0.000801411
0.00079202
0.00496782
0.00486105
0.00458046
0.00419324
0.00377663
0.00337517
0.00301691
0.00270531
0.0024445
0.00222935
0.00205224
0.00190659
0.00178814
0.00167279
0.00156856
0.00147289
0.00138353
0.00130092
0.00122442
0.00115426
0.00109287
0.0010421
0.00101696
0.0010026
0.000997414
0.000998081
0.00100243
0.00100754
0.00101236
0.00101665
0.00102029
0.00102327
0.00102563
0.00102745
0.00102876
0.00102962
0.00103004
0.00103006
0.00102966
0.00102885
0.00102762
0.00102594
0.00102378
0.00102107
0.00101773
0.00101364
0.00100853
0.00100216
0.000993879
0.000984872
0.00601464
0.0059152
0.00563413
0.0052512
0.00481985
0.00437936
0.00396319
0.00358167
0.00324429
0.00295134
0.00270163
0.00249067
0.00231568
0.00216808
0.00204359
0.00192839
0.00181923
0.00171602
0.00161902
0.00152756
0.00144224
0.00136355
0.00129544
0.00124065
0.001215
0.00120356
0.00120185
0.00120321
0.00120554
0.00120824
0.00121079
0.00121295
0.00121467
0.00121597
0.00121686
0.00121734
0.0012174
0.00121703
0.00121623
0.00121499
0.0012133
0.00121113
0.00120845
0.00120521
0.00120132
0.0011967
0.00119114
0.00118448
0.00117635
0.00116795
0.00697641
0.00688775
0.00663224
0.00627841
0.00586117
0.00541251
0.00496648
0.00454037
0.00414652
0.00379015
0.003474
0.00319559
0.00295472
0.00274795
0.00257244
0.0024229
0.00229437
0.00217377
0.00205799
0.00194714
0.00184204
0.00174257
0.00164991
0.00156544
0.0014942
0.00144552
0.00142741
0.00141855
0.0014139
0.00141188
0.00141081
0.00141
0.00140931
0.00140866
0.00140793
0.00140699
0.00140575
0.00140417
0.00140221
0.00139986
0.0013971
0.00139392
0.00139025
0.00138607
0.00138132
0.00137584
0.00136957
0.00136246
0.0013543
0.00134633
0.00784768
0.00776916
0.00755228
0.00724008
0.00685436
0.00641994
0.00596681
0.00552219
0.00509528
0.00469676
0.00433227
0.00399942
0.00370054
0.0034345
0.00320054
0.00299725
0.00282257
0.00267139
0.00253924
0.00241007
0.00228703
0.002169
0.00205674
0.00195125
0.00185444
0.00177578
0.00172041
0.00168063
0.00165759
0.00164475
0.00163523
0.00162759
0.00162164
0.00161694
0.00161287
0.00160899
0.00160504
0.00160097
0.00159664
0.00159209
0.00158733
0.00158235
0.00157683
0.00157101
0.00156485
0.00155831
0.00155125
0.00154363
0.00153534
0.0015276
0.00862798
0.00856339
0.00838365
0.00811654
0.0077692
0.00736136
0.00692478
0.00647727
0.00603865
0.00562143
0.00523203
0.00486348
0.0045226
0.00420894
0.00392333
0.00366664
0.00343921
0.00323978
0.00306676
0.00291418
0.00277541
0.00264015
0.00251021
0.00238668
0.00227073
0.00217305
0.0020974
0.00203673
0.00198784
0.00194785
0.00191434
0.00188861
0.00187065
0.00185753
0.00184667
0.00183668
0.00182719
0.00181823
0.00180915
0.00180052
0.00179237
0.00178459
0.001777
0.00176946
0.00176184
0.00175408
0.00174604
0.00173768
0.00172894
0.00172109
0.00931942
0.00926871
0.00912277
0.00889934
0.00859734
0.00823574
0.0078356
0.00740858
0.00697378
0.00654536
0.00613536
0.00574858
0.00538536
0.00504059
0.0047169
0.00441676
0.00414214
0.00389388
0.00367286
0.003478
0.00330665
0.0031543
0.00300821
0.00286854
0.00273624
0.0026228
0.00253215
0.00245726
0.00239365
0.00233837
0.00228945
0.00224569
0.00220714
0.00217323
0.00214329
0.00211582
0.00209173
0.00207141
0.00205459
0.00204047
0.00202817
0.00201699
0.0020065
0.00199646
0.00198667
0.00197709
0.00196752
0.00195793
0.00194823
0.00193981
0.00992678
0.00988832
0.00977167
0.00958686
0.0093346
0.00902643
0.00867503
0.0082862
0.00787625
0.00745796
0.00704266
0.00663969
0.00625709
0.00589751
0.00555186
0.00522268
0.00491263
0.00462374
0.00435863
0.00411887
0.00390507
0.00371643
0.0035491
0.00339532
0.00324848
0.00312017
0.00301616
0.00292884
0.00285338
0.00278619
0.00272574
0.00267065
0.00261904
0.00257224
0.00252982
0.00249124
0.00245603
0.00242393
0.00239464
0.00236784
0.00234321
0.00232056
0.00229994
0.00228155
0.0022653
0.00225086
0.00223756
0.00222503
0.00221293
0.00220278
0.0104567
0.0104283
0.0103364
0.0101861
0.00998039
0.00972466
0.00942506
0.00908213
0.00871178
0.00832474
0.00792597
0.00752617
0.00713418
0.0067575
0.00639908
0.00605685
0.00572595
0.00540883
0.00510953
0.00483114
0.00457634
0.00434702
0.00414371
0.00396483
0.00380452
0.00366227
0.00354515
0.00344519
0.00335806
0.00327828
0.0032065
0.00314179
0.00308236
0.00302867
0.00297979
0.0029351
0.00289391
0.00285575
0.00282022
0.00278697
0.00275567
0.00272609
0.00269808
0.00267158
0.00264643
0.00262272
0.00260025
0.00257904
0.00255921
0.00254232
0.0109167
0.0108964
0.0108247
0.0107043
0.0105391
0.0103301
0.0100781
0.00978734
0.00946421
0.00911551
0.00874959
0.00837507
0.007994
0.00761594
0.00724742
0.00689351
0.00655625
0.00622461
0.00590391
0.00559782
0.00531013
0.00504437
0.00480358
0.00458968
0.00440226
0.00424548
0.00411422
0.00399957
0.0038996
0.00381144
0.00373298
0.00366266
0.00359828
0.00354006
0.00348687
0.00343802
0.00339274
0.0033505
0.00331088
0.00327351
0.00323805
0.00320428
0.00317205
0.00314125
0.00311171
0.00308352
0.00305652
0.00303076
0.00300644
0.00298527
0.0113148
0.0113006
0.0112452
0.0111498
0.0110184
0.0108485
0.0106433
0.010403
0.0101301
0.00982765
0.00950125
0.00915738
0.00880364
0.00844461
0.00808305
0.00772582
0.00737942
0.00704538
0.00671735
0.00639671
0.00608773
0.00579493
0.00552278
0.00527533
0.00505529
0.00487362
0.00472566
0.00459944
0.00449077
0.00439613
0.00431252
0.00423785
0.00417001
0.00410777
0.0040508
0.00399832
0.00394949
0.00390378
0.00386075
0.00382003
0.0037813
0.00374434
0.00370902
0.00367523
0.00364281
0.00361185
0.00358221
0.00355392
0.00352722
0.00350394
0.0116587
0.0116492
0.0116066
0.0115316
0.0114278
0.0112917
0.0111269
0.0109313
0.0107061
0.0104516
0.0101707
0.00986689
0.00954657
0.00921511
0.00887803
0.00853444
0.008191
0.00785372
0.00752593
0.00720402
0.00688673
0.00657877
0.00628539
0.00601186
0.00576284
0.00555583
0.00539053
0.00525299
0.00513633
0.00503564
0.00494714
0.00486827
0.00479683
0.00473079
0.0046702
0.00461423
0.00456201
0.00451303
0.00446682
0.00442304
0.00438139
0.00434162
0.00430364
0.00426737
0.00423245
0.00419924
0.00416755
0.00413743
0.00410911
0.00408445
0.0119558
0.0119497
0.011917
0.0118582
0.0117767
0.0116685
0.0115372
0.0113787
0.0111944
0.0109842
0.010749
0.0104903
0.0102122
0.00991618
0.00960757
0.00929263
0.0089679
0.00864013
0.00831516
0.00799676
0.00768372
0.00737324
0.00707055
0.00678149
0.00651184
0.00628444
0.00610419
0.00595645
0.00583237
0.0057259
0.00563262
0.00554959
0.00547442
0.0054048
0.00534072
0.00528137
0.00522589
0.00517377
0.00512454
0.00507787
0.00503348
0.0049909
0.00495036
0.00491181
0.00487504
0.00484018
0.00480702
0.00477559
0.00474614
0.0047205
0.0122125
0.0122089
0.0121838
0.0121378
0.0120738
0.0119883
0.0118841
0.0117572
0.011609
0.0114382
0.0112448
0.0110285
0.0107917
0.0105377
0.0102651
0.00997957
0.00968472
0.00938144
0.00907214
0.00876233
0.00845655
0.00815535
0.00785549
0.00756262
0.00728299
0.0070431
0.00685263
0.00669735
0.0065674
0.00645615
0.00635874
0.00627204
0.00619355
0.00612144
0.00605399
0.0059914
0.00593285
0.0058778
0.00582544
0.00577591
0.00572898
0.0056844
0.00564208
0.00560195
0.00556379
0.00552771
0.00549348
0.00546113
0.00543089
0.00540454
0.0124346
0.0124329
0.0124136
0.0123776
0.0123273
0.0122596
0.012177
0.0120761
0.011958
0.0118207
0.0116639
0.0114865
0.0112893
0.0110737
0.010841
0.0105926
0.0103303
0.0100575
0.00977602
0.00948648
0.00919419
0.00890403
0.00861786
0.00833262
0.00805427
0.00781111
0.00761659
0.00745773
0.00732458
0.00721043
0.0071103
0.00702104
0.00694006
0.00686574
0.00679578
0.00673025
0.00666893
0.0066114
0.00655724
0.00650611
0.00645775
0.00641193
0.00636854
0.00632749
0.00628854
0.00625179
0.00621699
0.00618415
0.00615351
0.00612673
0.012627
0.0126267
0.0126118
0.0125835
0.012544
0.0124905
0.0124243
0.0123447
0.0122509
0.0121404
0.0120138
0.01187
0.011709
0.0115313
0.0113362
0.0111251
0.0108998
0.0106602
0.0104099
0.0101505
0.00988205
0.00960949
0.00933793
0.00907009
0.00880351
0.00856636
0.0083745
0.00821677
0.00808382
0.00796931
0.00786837
0.00777805
0.00769536
0.00761932
0.00754775
0.00748129
0.00741918
0.00736096
0.00730622
0.00725464
0.00720591
0.00715982
0.00711624
0.00707506
0.00703605
0.00699927
0.00696449
0.0069317
0.00690111
0.00687423
0.0127939
0.012795
0.0127831
0.0127609
0.0127298
0.0126875
0.0126349
0.0125718
0.0124972
0.012409
0.0123078
0.0121921
0.0120617
0.0119161
0.0117561
0.0115802
0.0113898
0.0111862
0.010969
0.010741
0.0105041
0.0102579
0.0100072
0.00975706
0.00951074
0.00928778
0.0091049
0.00895289
0.00882356
0.00871136
0.00861096
0.00852084
0.00843895
0.00836395
0.00829432
0.00822864
0.00816734
0.00810992
0.00805599
0.00800519
0.00795725
0.00791194
0.00786912
0.0078287
0.00779043
0.00775437
0.00772026
0.00768812
0.00765814
0.00763168
0.012939
0.0129404
0.0129313
0.0129141
0.0128896
0.0128561
0.0128143
0.0127642
0.0127042
0.0126344
0.0125538
0.0124613
0.0123563
0.0122385
0.0121074
0.0119638
0.0118059
0.0116348
0.011452
0.0112565
0.0110507
0.0108365
0.0106136
0.0103865
0.0101602
0.00995751
0.00978847
0.00964532
0.00952172
0.00941376
0.00931795
0.00923198
0.00915388
0.00908239
0.00901615
0.00895351
0.00889495
0.00884005
0.00878841
0.00873975
0.00869381
0.00865038
0.00860934
0.00857059
0.0085339
0.0084993
0.00846643
0.00843561
0.0084068
0.0083813
0.0130654
0.0130669
0.0130602
0.0130468
0.0130275
0.0130009
0.0129677
0.0129278
0.0128799
0.0128243
0.0127601
0.0126855
0.012601
0.0125068
0.0124008
0.0122833
0.012154
0.0120134
0.0118609
0.0116978
0.0115232
0.0113392
0.0111478
0.0109488
0.0107466
0.0105625
0.0104088
0.0102779
0.0101647
0.0100655
0.00997727
0.00989799
0.00982588
0.00975978
0.00969852
0.00964096
0.00958646
0.00953527
0.00948679
0.0094411
0.00939799
0.00935724
0.00931876
0.00928246
0.00924825
0.00921594
0.00918517
0.00915616
0.00912912
0.00910517
0.0131758
0.0131774
0.0131724
0.0131621
0.0131469
0.0131257
0.0130992
0.0130674
0.0130291
0.0129847
0.0129334
0.0128736
0.012806
0.0127297
0.0126442
0.0125497
0.0124449
0.0123298
0.0122048
0.0120694
0.0119249
0.0117701
0.0116074
0.0114384
0.0112636
0.0111017
0.0109651
0.0108485
0.0107474
0.0106587
0.0105796
0.0105084
0.0104435
0.0103838
0.0103285
0.0102765
0.0102267
0.01018
0.010136
0.0100945
0.0100553
0.0100183
0.00998326
0.00995018
0.00991898
0.00988948
0.00986134
0.00983476
0.00980995
0.00978794
0.0132724
0.013274
0.0132704
0.0132626
0.0132505
0.0132335
0.0132125
0.013187
0.0131563
0.0131207
0.0130791
0.0130315
0.0129775
0.0129165
0.0128478
0.0127711
0.0126869
0.0125936
0.0124914
0.0123808
0.0122613
0.012134
0.0119981
0.0118558
0.0117089
0.0115707
0.0114529
0.0113518
0.0112639
0.0111864
0.0111171
0.0110545
0.0109969
0.0109438
0.0108946
0.0108487
0.0108053
0.010764
0.0107251
0.0106884
0.0106537
0.0106209
0.0105898
0.0105603
0.0105324
0.0105061
0.010481
0.0104573
0.0104351
0.0104153
0.0133571
0.0133587
0.0133562
0.0133505
0.0133406
0.013327
0.0133105
0.0132897
0.013265
0.0132364
0.013203
0.0131649
0.0131216
0.0130726
0.0130174
0.0129558
0.0128873
0.0128124
0.0127297
0.0126395
0.0125422
0.0124374
0.0123261
0.0122081
0.0120854
0.0119704
0.0118713
0.0117857
0.0117108
0.0116445
0.0115844
0.01153
0.0114802
0.0114345
0.011392
0.0113525
0.0113155
0.0112799
0.0112464
0.0112147
0.0111847
0.0111562
0.0111293
0.0111036
0.0110792
0.0110563
0.0110344
0.0110137
0.0109943
0.0109769
0.0134314
0.013433
0.0134314
0.0134269
0.013419
0.0134082
0.0133949
0.0133782
0.0133584
0.0133353
0.0133084
0.0132778
0.013243
0.0132032
0.0131586
0.0131093
0.0130543
0.0129934
0.0129271
0.0128542
0.012775
0.0126899
0.0125987
0.0125025
0.0124014
0.0123057
0.0122239
0.0121521
0.0120888
0.0120325
0.011982
0.0119361
0.0118942
0.0118556
0.0118198
0.0117865
0.0117553
0.0117258
0.0116974
0.0116706
0.0116452
0.0116209
0.0115978
0.011576
0.0115552
0.0115356
0.0115169
0.0114992
0.0114826
0.0114677
0.0134969
0.0134983
0.0134976
0.0134939
0.0134876
0.0134791
0.0134683
0.0134548
0.013439
0.0134202
0.0133985
0.0133737
0.0133457
0.0133136
0.0132777
0.0132376
0.0131931
0.0131442
0.0130904
0.013032
0.0129681
0.012899
0.0128252
0.0127466
0.0126644
0.0125859
0.0125178
0.0124583
0.0124059
0.0123592
0.0123173
0.0122792
0.0122444
0.0122123
0.0121825
0.0121545
0.0121283
0.0121036
0.0120801
0.0120576
0.0120363
0.012016
0.0119968
0.0119785
0.0119611
0.0119447
0.011929
0.0119142
0.0119002
0.0118876
0.0135545
0.0135558
0.0135555
0.0135527
0.0135478
0.0135412
0.0135323
0.0135213
0.0135084
0.0134931
0.0134758
0.0134556
0.0134329
0.0134069
0.0133779
0.0133457
0.0133098
0.0132701
0.0132269
0.0131794
0.0131282
0.0130724
0.013013
0.0129493
0.0128823
0.0128186
0.0127628
0.012714
0.0126709
0.0126326
0.012598
0.0125666
0.0125375
0.0125108
0.0124859
0.0124628
0.0124412
0.0124209
0.0124017
0.0123832
0.0123655
0.0123488
0.012333
0.0123179
0.0123034
0.0122897
0.0122767
0.0122643
0.0122527
0.0122422
0.0136054
0.0136066
0.0136065
0.0136044
0.0136006
0.0135953
0.0135881
0.0135791
0.0135686
0.0135562
0.013542
0.0135255
0.0135071
0.0134861
0.0134627
0.0134367
0.0134078
0.0133758
0.0133407
0.0133025
0.0132608
0.0132161
0.0131678
0.0131167
0.0130625
0.0130106
0.0129655
0.0129258
0.0128906
0.0128589
0.0128302
0.0128042
0.0127804
0.0127585
0.0127381
0.0127192
0.0127015
0.0126849
0.0126692
0.0126543
0.0126398
0.012626
0.0126129
0.0126005
0.0125887
0.0125774
0.0125666
0.0125564
0.0125468
0.0125381
0.0136503
0.0136514
0.0136515
0.0136501
0.0136473
0.0136428
0.0136369
0.0136298
0.0136211
0.0136108
0.0135992
0.0135858
0.0135707
0.0135537
0.0135347
0.0135136
0.0134903
0.0134645
0.0134362
0.0134051
0.0133716
0.0133353
0.0132965
0.013255
0.0132115
0.0131695
0.0131326
0.0131001
0.0130712
0.0130454
0.0130221
0.0130009
0.0129815
0.0129636
0.012947
0.0129316
0.0129171
0.0129035
0.0128905
0.0128782
0.0128665
0.0128552
0.0128445
0.0128344
0.0128246
0.0128153
0.0128065
0.012798
0.0127901
0.012783
0.0136901
0.0136911
0.0136913
0.0136904
0.0136881
0.0136845
0.0136799
0.0136739
0.0136667
0.0136585
0.0136488
0.0136378
0.0136254
0.0136117
0.0135962
0.013579
0.0135601
0.0135393
0.0135164
0.0134913
0.013464
0.0134348
0.0134033
0.01337
0.0133347
0.013301
0.0132711
0.0132447
0.0132212
0.0132002
0.0131812
0.013164
0.0131481
0.0131334
0.0131197
0.0131069
0.013095
0.0130837
0.0130731
0.013063
0.0130535
0.0130444
0.0130356
0.0130272
0.0130192
0.0130116
0.0130043
0.0129974
0.0129909
0.012985
0.0137253
0.0137263
0.0137265
0.0137259
0.0137241
0.0137213
0.0137174
0.0137125
0.0137067
0.0136998
0.0136918
0.0136829
0.0136727
0.0136614
0.0136487
0.0136347
0.0136193
0.0136024
0.0135839
0.0135637
0.0135416
0.0135181
0.0134927
0.0134656
0.0134372
0.0134098
0.0133858
0.0133644
0.0133453
0.0133282
0.0133126
0.0132983
0.0132853
0.0132732
0.0132621
0.0132517
0.0132419
0.0132327
0.013224
0.0132157
0.0132079
0.0132005
0.0131933
0.0131864
0.0131799
0.0131736
0.0131676
0.0131619
0.0131565
0.0131517
0.0137565
0.0137574
0.0137578
0.0137573
0.013756
0.0137537
0.0137505
0.0137465
0.0137416
0.0137359
0.0137294
0.0137219
0.0137136
0.0137043
0.013694
0.0136825
0.0136699
0.0136561
0.013641
0.0136246
0.0136068
0.0135876
0.0135672
0.0135453
0.0135226
0.0135004
0.0134808
0.0134633
0.0134477
0.0134336
0.0134209
0.0134093
0.0133987
0.0133889
0.0133798
0.0133713
0.0133634
0.0133558
0.0133486
0.0133418
0.0133355
0.0133294
0.0133235
0.0133178
0.0133124
0.0133072
0.0133023
0.0132975
0.0132931
0.0132891
0.0137842
0.0137851
0.0137854
0.0137851
0.0137841
0.0137822
0.0137797
0.0137763
0.0137722
0.0137675
0.0137621
0.0137559
0.013749
0.0137413
0.0137328
0.0137235
0.0137131
0.0137019
0.0136896
0.0136762
0.0136618
0.0136462
0.0136295
0.013612
0.0135935
0.0135757
0.0135598
0.0135457
0.013533
0.0135215
0.0135112
0.0135018
0.0134931
0.0134851
0.0134776
0.0134705
0.0134639
0.0134576
0.0134518
0.0134462
0.0134409
0.0134359
0.0134311
0.0134264
0.0134219
0.0134176
0.0134135
0.0134096
0.0134059
0.0134026
0.0138088
0.0138097
0.01381
0.0138098
0.0138089
0.0138075
0.0138053
0.0138025
0.0137992
0.0137953
0.0137907
0.0137856
0.0137799
0.0137735
0.0137665
0.0137588
0.0137504
0.0137411
0.013731
0.0137201
0.0137084
0.0136957
0.0136822
0.0136681
0.0136531
0.0136386
0.0136258
0.0136143
0.013604
0.0135947
0.0135863
0.0135784
0.0135712
0.0135646
0.0135584
0.0135525
0.0135471
0.0135419
0.013537
0.0135324
0.0135281
0.0135239
0.0135199
0.0135161
0.0135124
0.0135089
0.0135054
0.0135022
0.0134991
0.0134964
0.0138307
0.0138315
0.0138319
0.0138317
0.013831
0.0138297
0.013828
0.0138257
0.0138229
0.0138197
0.0138159
0.0138116
0.0138068
0.0138015
0.0137957
0.0137893
0.0137823
0.0137748
0.0137665
0.0137575
0.0137479
0.0137377
0.0137267
0.0137153
0.0137032
0.0136915
0.013681
0.0136717
0.0136633
0.0136556
0.0136486
0.0136422
0.0136363
0.0136308
0.0136257
0.0136209
0.0136163
0.0136121
0.013608
0.0136042
0.0136005
0.0135971
0.0135938
0.0135906
0.0135875
0.0135845
0.0135817
0.0135789
0.0135764
0.0135741
0.0138502
0.0138509
0.0138513
0.0138511
0.0138506
0.0138495
0.0138481
0.0138461
0.0138438
0.0138411
0.013838
0.0138344
0.0138304
0.013826
0.0138211
0.0138158
0.01381
0.0138037
0.013797
0.0137896
0.0137818
0.0137734
0.0137645
0.0137552
0.0137455
0.013736
0.0137275
0.0137198
0.0137128
0.0137066
0.0137008
0.0136956
0.0136907
0.0136861
0.0136819
0.0136778
0.0136741
0.0136705
0.0136671
0.013664
0.0136609
0.0136581
0.0136553
0.0136526
0.0136501
0.0136476
0.0136452
0.0136429
0.0136407
0.0136388
0.0138675
0.0138682
0.0138685
0.0138685
0.013868
0.0138671
0.0138658
0.0138642
0.0138622
0.01386
0.0138573
0.0138544
0.013851
0.0138473
0.0138432
0.0138388
0.013834
0.0138287
0.0138232
0.0138172
0.0138108
0.013804
0.0137968
0.0137892
0.0137813
0.0137736
0.0137666
0.0137603
0.0137546
0.0137494
0.0137447
0.0137404
0.0137364
0.0137326
0.0137291
0.0137257
0.0137226
0.0137196
0.0137168
0.0137141
0.0137115
0.0137091
0.0137067
0.0137045
0.0137024
0.0137003
0.0136982
0.0136963
0.0136945
0.0136929
0.013883
0.0138836
0.0138839
0.0138839
0.0138834
0.0138827
0.0138816
0.0138802
0.0138786
0.0138767
0.0138744
0.0138719
0.0138691
0.013866
0.0138625
0.0138588
0.0138548
0.0138505
0.0138459
0.0138409
0.0138357
0.0138301
0.0138242
0.013818
0.0138115
0.0138052
0.0137996
0.0137944
0.0137897
0.0137855
0.0137816
0.013778
0.0137747
0.0137715
0.0137685
0.0137658
0.0137631
0.0137606
0.0137582
0.013756
0.0137538
0.0137517
0.0137498
0.0137479
0.0137461
0.0137443
0.0137426
0.013741
0.0137394
0.0137381
0.0138967
0.0138973
0.0138976
0.0138976
0.0138972
0.0138965
0.0138956
0.0138944
0.013893
0.0138913
0.0138895
0.0138873
0.0138849
0.0138823
0.0138794
0.0138764
0.013873
0.0138694
0.0138656
0.0138615
0.0138571
0.0138525
0.0138476
0.0138426
0.0138373
0.0138322
0.0138275
0.0138233
0.0138195
0.013816
0.0138127
0.0138097
0.013807
0.0138043
0.0138019
0.0137995
0.0137973
0.0137952
0.0137932
0.0137913
0.0137895
0.0137877
0.013786
0.0137844
0.0137829
0.0137814
0.0137799
0.0137786
0.0137772
0.0137761
0.013909
0.0139095
0.0139098
0.0139098
0.0139094
0.0139089
0.0139081
0.013907
0.0139058
0.0139044
0.0139027
0.0139009
0.0138989
0.0138967
0.0138943
0.0138917
0.0138889
0.0138858
0.0138826
0.0138792
0.0138756
0.0138718
0.0138679
0.0138637
0.0138594
0.0138552
0.0138514
0.0138479
0.0138448
0.0138419
0.0138392
0.0138367
0.0138344
0.0138322
0.0138301
0.0138282
0.0138263
0.0138245
0.0138228
0.0138212
0.0138196
0.0138181
0.0138167
0.0138153
0.013814
0.0138128
0.0138115
0.0138103
0.0138092
0.0138082
0.0139199
0.0139204
0.0139206
0.0139206
0.0139204
0.0139199
0.0139191
0.0139182
0.0139172
0.0139159
0.0139145
0.013913
0.0139113
0.0139094
0.0139073
0.0139051
0.0139027
0.0139002
0.0138975
0.0138947
0.0138917
0.0138886
0.0138853
0.0138819
0.0138784
0.013875
0.0138719
0.013869
0.0138664
0.013864
0.0138617
0.0138597
0.0138577
0.0138558
0.0138541
0.0138524
0.0138508
0.0138493
0.0138479
0.0138465
0.0138452
0.0138439
0.0138427
0.0138415
0.0138404
0.0138393
0.0138383
0.0138372
0.0138363
0.0138354
0.0139296
0.0139301
0.0139303
0.0139303
0.0139301
0.0139296
0.013929
0.0139282
0.0139273
0.0139262
0.013925
0.0139236
0.0139221
0.0139205
0.0139188
0.0139169
0.0139149
0.0139128
0.0139106
0.0139082
0.0139057
0.0139031
0.0139004
0.0138976
0.0138947
0.0138919
0.0138893
0.013887
0.0138848
0.0138828
0.0138809
0.0138792
0.0138775
0.013876
0.0138745
0.0138731
0.0138717
0.0138705
0.0138692
0.013868
0.0138669
0.0138658
0.0138648
0.0138638
0.0138628
0.0138619
0.013861
0.0138601
0.0138593
0.0138585
0.0139383
0.0139387
0.0139389
0.0139389
0.0139387
0.0139383
0.0139378
0.0139371
0.0139363
0.0139353
0.0139343
0.0139331
0.0139318
0.0139304
0.0139289
0.0139274
0.0139257
0.0139239
0.013922
0.01392
0.0139179
0.0139157
0.0139135
0.0139112
0.0139088
0.0139065
0.0139044
0.0139024
0.0139006
0.013899
0.0138974
0.0138959
0.0138945
0.0138932
0.0138919
0.0138907
0.0138896
0.0138885
0.0138875
0.0138864
0.0138855
0.0138845
0.0138836
0.0138828
0.0138819
0.0138811
0.0138804
0.0138796
0.0138789
0.0138782
0.0139461
0.0139464
0.0139466
0.0139466
0.0139464
0.0139461
0.0139456
0.013945
0.0139443
0.0139435
0.0139425
0.0139415
0.0139404
0.0139392
0.0139379
0.0139365
0.0139351
0.0139336
0.013932
0.0139303
0.0139286
0.0139268
0.0139249
0.013923
0.013921
0.0139191
0.0139174
0.0139157
0.0139142
0.0139128
0.0139115
0.0139103
0.0139091
0.013908
0.0139069
0.0139059
0.0139049
0.013904
0.0139031
0.0139022
0.0139014
0.0139006
0.0138998
0.0138991
0.0138983
0.0138976
0.013897
0.0138963
0.0138957
0.0138951
0.013953
0.0139533
0.0139535
0.0139535
0.0139533
0.013953
0.0139526
0.0139521
0.0139514
0.0139507
0.0139499
0.013949
0.013948
0.013947
0.0139458
0.0139447
0.0139434
0.0139421
0.0139408
0.0139394
0.0139379
0.0139364
0.0139349
0.0139332
0.0139316
0.0139301
0.0139286
0.0139272
0.013926
0.0139248
0.0139237
0.0139227
0.0139217
0.0139207
0.0139198
0.0139189
0.0139181
0.0139173
0.0139165
0.0139158
0.013915
0.0139143
0.0139137
0.013913
0.0139124
0.0139118
0.0139112
0.0139106
0.0139101
0.0139096
0.0139592
0.0139594
0.0139596
0.0139596
0.0139594
0.0139592
0.0139588
0.0139583
0.0139578
0.0139571
0.0139564
0.0139556
0.0139548
0.0139539
0.0139529
0.0139519
0.0139508
0.0139497
0.0139486
0.0139474
0.0139461
0.0139449
0.0139435
0.0139422
0.0139409
0.0139396
0.0139384
0.0139372
0.0139362
0.0139352
0.0139343
0.0139334
0.0139325
0.0139317
0.0139309
0.0139301
0.0139294
0.0139287
0.013928
0.0139274
0.0139268
0.0139262
0.0139256
0.013925
0.0139245
0.013924
0.0139235
0.013923
0.0139225
0.0139221
0.0139647
0.0139649
0.013965
0.013965
0.0139649
0.0139647
0.0139644
0.0139639
0.0139634
0.0139629
0.0139623
0.0139616
0.0139608
0.01396
0.0139592
0.0139583
0.0139574
0.0139564
0.0139554
0.0139544
0.0139534
0.0139523
0.0139512
0.0139501
0.013949
0.0139479
0.0139469
0.0139459
0.013945
0.0139442
0.0139434
0.0139426
0.0139419
0.0139412
0.0139405
0.0139399
0.0139392
0.0139386
0.0139381
0.0139375
0.013937
0.0139364
0.0139359
0.0139354
0.013935
0.0139345
0.0139341
0.0139336
0.0139332
0.0139328
0.0139696
0.0139698
0.0139699
0.0139699
0.0139698
0.0139696
0.0139693
0.0139689
0.0139685
0.013968
0.0139674
0.0139668
0.0139662
0.0139655
0.0139648
0.013964
0.0139632
0.0139624
0.0139615
0.0139606
0.0139598
0.0139588
0.0139579
0.013957
0.0139561
0.0139552
0.0139543
0.0139535
0.0139527
0.013952
0.0139513
0.0139507
0.01395
0.0139494
0.0139489
0.0139483
0.0139478
0.0139473
0.0139467
0.0139463
0.0139458
0.0139453
0.0139449
0.0139445
0.013944
0.0139436
0.0139433
0.0139429
0.0139425
0.0139422
0.013974
0.0139742
0.0139742
0.0139742
0.0139741
0.013974
0.0139737
0.0139734
0.013973
0.0139726
0.0139721
0.0139716
0.013971
0.0139704
0.0139697
0.0139691
0.0139684
0.0139677
0.0139669
0.0139662
0.0139654
0.0139646
0.0139639
0.0139631
0.0139623
0.0139615
0.0139608
0.0139601
0.0139595
0.0139589
0.0139583
0.0139577
0.0139572
0.0139566
0.0139561
0.0139557
0.0139552
0.0139547
0.0139543
0.0139539
0.0139535
0.0139531
0.0139527
0.0139523
0.013952
0.0139516
0.0139513
0.013951
0.0139506
0.0139504
0.0139779
0.0139781
0.0139781
0.0139781
0.013978
0.0139779
0.0139776
0.0139773
0.013977
0.0139766
0.0139762
0.0139758
0.0139753
0.0139747
0.0139742
0.0139736
0.013973
0.0139724
0.0139718
0.0139711
0.0139704
0.0139698
0.0139691
0.0139684
0.0139678
0.0139672
0.0139665
0.013966
0.0139654
0.0139649
0.0139644
0.0139639
0.0139634
0.013963
0.0139625
0.0139621
0.0139617
0.0139613
0.013961
0.0139606
0.0139602
0.0139599
0.0139595
0.0139592
0.0139589
0.0139586
0.0139583
0.013958
0.0139577
0.0139575
0.0139814
0.0139815
0.0139816
0.0139816
0.0139815
0.0139813
0.0139811
0.0139809
0.0139806
0.0139803
0.0139799
0.0139795
0.0139791
0.0139786
0.0139781
0.0139776
0.0139771
0.0139766
0.013976
0.0139755
0.0139749
0.0139744
0.0139738
0.0139732
0.0139727
0.0139721
0.0139716
0.0139711
0.0139706
0.0139702
0.0139697
0.0139693
0.0139689
0.0139685
0.0139682
0.0139678
0.0139675
0.0139671
0.0139668
0.0139665
0.0139661
0.0139658
0.0139655
0.0139653
0.013965
0.0139647
0.0139645
0.0139642
0.013964
0.0139637
0.0139845
0.0139846
0.0139847
0.0139847
0.0139846
0.0139844
0.0139843
0.0139841
0.0139838
0.0139835
0.0139832
0.0139828
0.0139825
0.0139821
0.0139817
0.0139812
0.0139808
0.0139803
0.0139799
0.0139794
0.0139789
0.0139784
0.0139779
0.0139775
0.013977
0.0139765
0.0139761
0.0139757
0.0139753
0.0139749
0.0139745
0.0139741
0.0139738
0.0139735
0.0139731
0.0139728
0.0139725
0.0139722
0.0139719
0.0139716
0.0139714
0.0139711
0.0139708
0.0139706
0.0139703
0.0139701
0.0139699
0.0139696
0.0139694
0.0139692
0.0139873
0.0139874
0.0139874
0.0139874
0.0139873
0.0139872
0.0139871
0.0139869
0.0139867
0.0139864
0.0139861
0.0139858
0.0139855
0.0139852
0.0139848
0.0139845
0.0139841
0.0139837
0.0139833
0.0139829
0.0139825
0.0139821
0.0139817
0.0139812
0.0139808
0.0139805
0.0139801
0.0139797
0.0139794
0.013979
0.0139787
0.0139784
0.0139781
0.0139778
0.0139775
0.0139772
0.013977
0.0139767
0.0139765
0.0139762
0.013976
0.0139757
0.0139755
0.0139753
0.0139751
0.0139749
0.0139747
0.0139745
0.0139743
0.0139741
0.0139898
0.0139899
0.0139899
0.0139899
0.0139898
0.0139897
0.0139896
0.0139894
0.0139892
0.013989
0.0139888
0.0139885
0.0139882
0.013988
0.0139877
0.0139873
0.013987
0.0139867
0.0139864
0.013986
0.0139857
0.0139853
0.013985
0.0139846
0.0139843
0.013984
0.0139836
0.0139833
0.013983
0.0139828
0.0139825
0.0139822
0.0139819
0.0139817
0.0139814
0.0139812
0.013981
0.0139807
0.0139805
0.0139803
0.0139801
0.0139799
0.0139797
0.0139795
0.0139793
0.0139791
0.0139789
0.0139787
0.0139786
0.0139784
0.013992
0.0139921
0.0139921
0.0139921
0.013992
0.0139919
0.0139918
0.0139917
0.0139915
0.0139913
0.0139911
0.0139909
0.0139907
0.0139905
0.0139902
0.0139899
0.0139897
0.0139894
0.0139891
0.0139888
0.0139885
0.0139882
0.013988
0.0139877
0.0139874
0.0139871
0.0139868
0.0139866
0.0139863
0.0139861
0.0139858
0.0139856
0.0139854
0.0139852
0.0139849
0.0139847
0.0139845
0.0139843
0.0139841
0.0139839
0.0139837
0.0139836
0.0139834
0.0139832
0.013983
0.0139829
0.0139827
0.0139826
0.0139824
0.0139823
0.013994
0.013994
0.013994
0.013994
0.013994
0.0139939
0.0139938
0.0139937
0.0139936
0.0139934
0.0139933
0.0139931
0.0139929
0.0139927
0.0139925
0.0139923
0.0139921
0.0139918
0.0139916
0.0139914
0.0139911
0.0139909
0.0139907
0.0139904
0.0139902
0.01399
0.0139897
0.0139895
0.0139893
0.0139891
0.0139889
0.0139887
0.0139885
0.0139883
0.0139881
0.0139879
0.0139877
0.0139876
0.0139874
0.0139872
0.0139871
0.0139869
0.0139867
0.0139866
0.0139864
0.0139863
0.0139862
0.013986
0.0139859
0.0139858