/*--------------------------------*- C++ -*----------------------------------*\
  =========                 |
  \\      /  F ield         | OpenFOAM: The Open Source CFD Toolbox
   \\    /   O peration     | Website:  https://openfoam.org
    \\  /    A nd           | Version:  10
     \\/     M anipulation  |
\*---------------------------------------------------------------------------*/
FoamFile
{
    format      ascii;
    class       surfaceScalarField;
    location    "433";
    object      phi;
}
// * * * * * * * * * * * * * * * * * * * * * * * * * * * * * * * * * * * * * //

dimensions      [1 0 -1 0 0 0 0];

internalField   nonuniform List<scalar> 
26421
(
0.000750947
-0.000750942
-5.63914e-09
0.00140416
-0.000653214
0.00187296
-0.0004688
0.00215612
-0.000283158
0.00231
-0.00015388
0.00238563
-7.56301e-05
0.00241726
-3.16255e-05
0.00242661
-9.35388e-06
0.00242526
1.35245e-06
0.00241847
6.78937e-06
0.00240938
9.08461e-06
0.00239833
1.1053e-05
0.00238572
1.26067e-05
0.00237136
1.43647e-05
0.00235495
1.64055e-05
0.00233651
1.84412e-05
0.00231626
2.02503e-05
0.0022945
2.17568e-05
0.00227116
2.33439e-05
0.00224614
2.50193e-05
0.00221976
2.6383e-05
0.00219246
2.72963e-05
0.00216515
2.73167e-05
0.00213912
2.60248e-05
0.00211574
2.33785e-05
0.00209887
1.68721e-05
0.00208863
1.02361e-05
0.00208141
7.22233e-06
0.0020749
6.51378e-06
0.00206787
7.03118e-06
0.00205947
8.39957e-06
0.0020494
1.00617e-05
0.00203754
1.1865e-05
0.00202391
1.36308e-05
0.00200846
1.5445e-05
0.00199135
1.71117e-05
0.00197256
1.87951e-05
0.00195215
2.04076e-05
0.00193016
2.19912e-05
0.00190655
2.3612e-05
0.00188123
2.53181e-05
0.00185406
2.71731e-05
0.00182483
2.92253e-05
0.00179318
3.16512e-05
0.00175838
3.47991e-05
0.00171979
3.85862e-05
0.00167494
4.48534e-05
0.00162115
5.37922e-05
0.00154312
7.80259e-05
0.000110985
0.00143214
0.00066152
-0.00141246
-5.78746e-09
0.00127378
-0.00126548
0.00175615
-0.000951166
0.00209126
-0.000618265
0.00231042
-0.000373045
0.00245253
-0.000217739
0.00254657
-0.00012566
0.00261148
-7.42625e-05
0.00265828
-4.54552e-05
0.00269253
-2.74534e-05
0.00271794
-1.63308e-05
0.00273603
-7.03237e-06
0.00274823
4.04884e-07
0.00275521
7.38165e-06
0.00275727
1.43447e-05
0.0027547
2.10109e-05
0.00274783
2.71242e-05
0.00273681
3.27714e-05
0.00272202
3.81391e-05
0.00270379
4.32456e-05
0.00268257
4.76082e-05
0.00265909
5.07726e-05
0.00263456
5.1846e-05
0.00261049
5.00969e-05
0.00258826
4.56126e-05
0.00257188
3.32476e-05
0.002562
2.01162e-05
0.00255512
1.41035e-05
0.00254875
1.288e-05
0.00254169
1.40899e-05
0.00253314
1.69532e-05
0.00252275
2.04549e-05
0.00251033
2.42837e-05
0.00249591
2.8045e-05
0.00247946
3.19044e-05
0.00246111
3.54565e-05
0.00244088
3.9027e-05
0.00241885
4.24376e-05
0.00239507
4.57739e-05
0.00236951
4.91658e-05
0.00234212
5.27123e-05
0.00231275
5.65395e-05
0.00228124
6.07414e-05
0.00224725
6.56381e-05
0.00221013
7.19183e-05
0.0021693
7.94141e-05
0.00212291
9.12475e-05
0.00206878
0.000107923
0.0020037
0.000143103
0.000177129
0.00193755
0.000621937
-0.00203439
-6.05251e-09
0.00123701
-0.00188055
0.00178014
-0.0014943
0.00220524
-0.00104336
0.00251177
-0.00067958
0.00272236
-0.000428323
0.00286327
-0.00026657
0.0029589
-0.000169901
0.00302555
-0.000112097
0.00307337
-7.52797e-05
0.00310902
-5.19808e-05
0.00313588
-3.38894e-05
0.00315625
-1.99671e-05
0.0031713
-7.6699e-06
0.00318166
3.98525e-06
0.00318765
1.50255e-05
0.00318917
2.56024e-05
0.003186
3.59455e-05
0.00317833
4.58043e-05
0.00316645
5.51222e-05
0.00315083
6.32343e-05
0.00313218
6.94229e-05
0.00311172
7.2298e-05
0.00309112
7.07062e-05
0.00307187
6.48581e-05
0.00305802
4.70951e-05
0.00305034
2.78025e-05
0.00304543
1.9007e-05
0.00304073
1.75794e-05
0.00303497
1.9858e-05
0.00302733
2.45896e-05
0.00301749
3.02917e-05
0.00300527
3.65026e-05
0.00299073
4.25922e-05
0.00297381
4.88163e-05
0.00295473
5.45421e-05
0.00293349
6.02632e-05
0.00291022
6.57058e-05
0.002885
7.09994e-05
0.00285783
7.63364e-05
0.00282867
8.1867e-05
0.00279743
8.77778e-05
0.00276399
9.41896e-05
0.00272809
0.000101532
0.00268921
0.000110799
0.00264701
0.000121616
0.00260047
0.000137784
0.00254889
0.000159509
0.00249501
0.000196978
0.00023023
0.00244191
0.000599793
-0.00263417
-6.39284e-09
0.001212
-0.00249275
0.00178864
-0.00207094
0.0022761
-0.00153082
0.00265425
-0.00105773
0.00292975
-0.000703823
0.00312257
-0.000459385
0.00325801
-0.000305341
0.00335462
-0.000208707
0.00342527
-0.000145931
0.00347858
-0.000105296
0.00351959
-7.49006e-05
0.00355173
-5.2098e-05
0.00357696
-3.29005e-05
0.00359643
-1.54891e-05
0.00361091
5.49304e-07
0.00362077
1.57441e-05
0.00362601
3.07024e-05
0.00362677
4.50433e-05
0.00362307
5.88193e-05
0.00361513
7.118e-05
0.0036036
8.09507e-05
0.00358972
8.61771e-05
0.00357519
8.52381e-05
0.00356162
7.84306e-05
0.0035528
5.59102e-05
0.00354937
3.12287e-05
0.00354812
2.02639e-05
0.00354647
1.92261e-05
0.00354317
2.31551e-05
0.00353748
3.02806e-05
0.00352911
3.86615e-05
0.00351792
4.76982e-05
0.00350399
5.65141e-05
0.00348734
6.54694e-05
0.00346819
7.36924e-05
0.0034466
8.1851e-05
0.00342274
8.95737e-05
0.0033967
9.70333e-05
0.00336856
0.000104482
0.00333831
0.000112118
0.0033059
0.000120181
0.0032713
0.000128792
0.00323438
0.000138449
0.00319481
0.000150375
0.00315258
0.000163843
0.0031075
0.000182862
0.00305994
0.000207072
0.0030142
0.000242721
0.000272626
0.0029718
0.000589975
-0.00322414
-6.70766e-09
0.00120012
-0.00310289
0.00180023
-0.00267105
0.00234104
-0.00207164
0.00279047
-0.00150716
0.003138
-0.00105135
0.0033921
-0.000713484
0.00357556
-0.000488797
0.00370797
-0.000341125
0.00380516
-0.000243116
0.0038783
-0.000178441
0.00393457
-0.000131165
0.00397879
-9.63236e-05
0.00401396
-6.8064e-05
0.00404192
-4.34495e-05
0.00406394
-2.14739e-05
0.00408087
-1.1819e-06
0.00409308
1.84918e-05
0.00410094
3.71831e-05
0.0041046
5.51539e-05
0.00410431
7.1469e-05
0.00410059
8.46765e-05
0.00409446
9.23038e-05
0.00408761
9.20873e-05
0.00408168
8.43573e-05
0.00407997
5.76278e-05
0.00408266
2.85374e-05
0.00408662
1.62981e-05
0.00408938
1.64705e-05
0.00408974
2.27989e-05
0.00408701
3.30106e-05
0.00408098
4.46912e-05
0.00407156
5.71141e-05
0.00405893
6.91491e-05
0.00404312
8.1279e-05
0.00402443
9.23834e-05
0.00400296
0.000103315
0.00397893
0.000113601
0.00395251
0.000123458
0.0039238
0.000133195
0.00389286
0.000143053
0.00385973
0.00015331
0.00382447
0.000164056
0.00378711
0.000175808
0.00374755
0.000189933
0.00370618
0.000205217
0.00366343
0.000225607
0.00362038
0.000250123
0.00358153
0.000281572
0.000306129
0.00354803
0.00059066
-0.0038148
-6.99825e-09
0.00120298
-0.00371521
0.00182067
-0.00328874
0.00240472
-0.00265569
0.00292008
-0.00202252
0.00334239
-0.00147366
0.00366585
-0.00103695
0.00390692
-0.000729869
0.0040837
-0.000517904
0.00421412
-0.000373535
0.00431202
-0.000276334
0.00438701
-0.00020616
0.00444571
-0.000155027
0.00449238
-0.000114732
0.00452978
-8.08421e-05
0.00455977
-5.14717e-05
0.00458369
-2.51019e-05
0.00460231
-1.27916e-07
0.00461633
2.3161e-05
0.00462623
4.52583e-05
0.00463251
6.51876e-05
0.00463588
8.13106e-05
0.00463745
9.07273e-05
0.00463887
9.06742e-05
0.00464165
8.15697e-05
0.00464843
5.08551e-05
0.0046587
1.82688e-05
0.00466929
5.70264e-06
0.00467775
8.0161e-06
0.00468293
1.76143e-05
0.00468422
3.17258e-05
0.00468146
4.7443e-05
0.00467466
6.39176e-05
0.00466405
7.97562e-05
0.00464975
9.55807e-05
0.00463212
0.000110014
0.00461133
0.000124103
0.00458766
0.000137273
0.00456134
0.000149781
0.00453254
0.000161987
0.00450143
0.00017417
0.00446811
0.000186626
0.00443279
0.000199381
0.00439568
0.000212917
0.00435694
0.000228673
0.00431729
0.000244863
0.00427762
0.000265277
0.00423938
0.000288362
0.00420642
0.00031453
0.000332685
0.00417987
0.00060091
-0.0044157
-7.27978e-09
0.00122144
-0.00433574
0.00185488
-0.00392218
0.00247346
-0.00327427
0.00304636
-0.00259542
0.00354229
-0.0019696
0.00394128
-0.00143593
0.00425
-0.00103859
0.00448159
-0.000749496
0.00465417
-0.000546111
0.00478364
-0.0004058
0.00488229
-0.000304816
0.00495896
-0.000231692
0.00501961
-0.000175386
0.00506819
-0.000129423
0.00510737
-9.06514e-05
0.00513904
-5.67716e-05
0.0051644
-2.54894e-05
0.00518452
3.04671e-06
0.00520018
2.95971e-05
0.00521221
5.31597e-05
0.00522164
7.18785e-05
0.00522994
8.24251e-05
0.00523901
8.15998e-05
0.00525055
7.0038e-05
0.00526637
3.50274e-05
0.00528503
-3.87695e-07
0.0053032
-1.24632e-05
0.00531832
-7.10656e-06
0.00532926
6.67221e-06
0.00533544
2.55472e-05
0.00533678
4.60997e-05
0.00533334
6.73553e-05
0.00532546
8.7644e-05
0.0053133
0.000107738
0.00529732
0.000125996
0.00527776
0.000143664
0.00525497
0.000160059
0.00522927
0.00017548
0.00520093
0.000190332
0.00517018
0.000204915
0.00513728
0.000219528
0.00510256
0.000234097
0.00506645
0.000249027
0.00502935
0.000265777
0.00499225
0.000281963
0.00495626
0.000301269
0.00492293
0.000321692
0.00489517
0.000342288
0.00035375
0.0048741
0.000620223
-0.00503591
-7.56014e-09
0.00125591
-0.00497142
0.00190629
-0.00457256
0.00255374
-0.00392172
0.00317529
-0.00321697
0.00373961
-0.00253391
0.00421652
-0.00191285
0.00460138
-0.00142345
0.00489886
-0.00104698
0.00512442
-0.000771672
0.00529458
-0.000575952
0.00542393
-0.000434166
0.00552368
-0.000331444
0.00560194
-0.000253646
0.00566427
-0.000191751
0.00571448
-0.00014086
0.00575524
-9.75325e-05
0.00578828
-5.85353e-05
0.00581507
-2.37452e-05
0.00583674
7.93194e-06
0.00585441
3.54903e-05
0.00586945
5.68422e-05
0.00588367
6.81977e-05
0.00589944
6.58326e-05
0.00591886
5.0617e-05
0.00594335
1.05411e-05
0.00597047
-2.75149e-05
0.0059966
-3.85838e-05
0.0060189
-2.94161e-05
0.00603614
-1.05606e-05
0.00604775
1.39333e-05
0.00605373
4.01245e-05
0.00605418
6.69059e-05
0.00604951
9.23133e-05
0.00603997
0.000117276
0.00602609
0.000139873
0.0060082
0.000161552
0.00598675
0.000181516
0.00596212
0.000200104
0.00593471
0.00021775
0.00590486
0.000234766
0.00587295
0.000251435
0.00583949
0.000267554
0.00580509
0.000283427
0.00577035
0.000300517
0.00573644
0.000315875
0.0057045
0.000333207
0.00567598
0.000350211
0.00565291
0.000365359
0.000370416
0.00563625
0.000648432
-0.00568434
-7.84432e-09
0.00130702
-0.00563001
0.00197818
-0.00524372
0.00265233
-0.00459588
0.00331503
-0.00387967
0.00393989
-0.00315877
0.00449265
-0.0024656
0.00495865
-0.00188946
0.00533196
-0.00142029
0.00562217
-0.00106187
0.00584401
-0.000797795
0.00601328
-0.000603432
0.00614329
-0.000461457
0.0062445
-0.000354854
0.00632444
-0.00027169
0.00638844
-0.00020486
0.00644028
-0.000149376
0.00648248
-0.000100739
0.00651705
-5.83078e-05
0.00654549
-2.05121e-05
0.00656928
1.17034e-05
0.00659008
3.6035e-05
0.00661008
4.82e-05
0.00663204
4.38721e-05
0.00665856
2.40956e-05
0.00669092
-2.18206e-05
0.00672599
-6.25838e-05
0.00675982
-7.2411e-05
0.0067893
-5.89005e-05
0.00681295
-3.42011e-05
0.0068302
-3.32412e-06
0.00684105
2.9278e-05
0.00684563
6.23265e-05
0.00684442
9.35257e-05
0.00683774
0.000123956
0.00682621
0.000151403
0.00681024
0.000177514
0.00679039
0.000201368
0.00676716
0.000223336
0.00674103
0.000243879
0.00671249
0.000263306
0.00668205
0.00028187
0.00665039
0.000299222
0.00661825
0.000315561
0.00658639
0.000332379
0.00655603
0.000346232
0.00652823
0.00036101
0.00650419
0.000374249
0.00648523
0.000384324
0.000383586
0.00647206
0.000685602
-0.00636993
-8.13272e-09
0.0013755
-0.00631991
0.00207343
-0.00594165
0.00277529
-0.00529774
0.00347458
-0.00457896
0.00415198
-0.00383617
0.00477455
-0.00308818
0.00532227
-0.00243718
0.00577847
-0.00187649
0.00614425
-0.00142765
0.00642973
-0.00108328
0.00664998
-0.000823685
0.00681953
-0.000631004
0.006951
-0.000486319
0.0070541
-0.000374793
0.00713601
-0.000286773
0.00720196
-0.000215324
0.00725553
-0.000154314
0.00729952
-0.000102294
0.00733601
-5.7e-05
0.00736687
-1.91614e-05
0.00739414
8.77018e-06
0.00742031
2.20249e-05
0.00744858
1.5609e-05
0.00748201
-9.33744e-06
0.00752184
-6.16489e-05
0.0075644
-0.000105147
0.00760549
-0.000113497
0.00764183
-9.52412e-05
0.00767166
-6.40357e-05
0.00769439
-2.6057e-05
0.00771
1.36713e-05
0.00771866
5.36721e-05
0.00772089
9.12905e-05
0.0077171
0.000127752
0.00770798
0.000160524
0.00769404
0.000191452
0.00767592
0.000219481
0.00765425
0.000245007
0.00762963
0.000268504
0.00760266
0.00029027
0.00757401
0.00031052
0.00754447
0.000328764
0.00751492
0.000345113
0.00748616
0.00036114
0.00745939
0.000373002
0.00743549
0.000384907
0.00741535
0.000394389
0.00739978
0.000399898
0.000394138
0.00738923
0.000732018
-0.00710194
-8.42687e-09
0.0014622
-0.0070501
0.00219449
-0.00667393
0.00292803
-0.00603129
0.00366243
-0.00531335
0.00438615
-0.00455988
0.00507117
-0.0037732
0.0056968
-0.00306281
0.00623884
-0.00241853
0.00668878
-0.00187759
0.00704949
-0.00144399
0.00733283
-0.00110703
0.00755294
-0.000851117
0.00772395
-0.000657329
0.00785764
-0.000508481
0.00796321
-0.000392345
0.00804764
-0.00029975
0.00811589
-0.000222562
0.00817178
-0.00015819
0.0082182
-0.000103422
0.00825762
-5.85778e-05
0.00829251
-2.61174e-05
0.00832576
-1.12291e-05
0.00836097
-1.95949e-05
0.00840169
-5.00617e-05
0.00844913
-0.000109093
0.00849921
-0.000155218
0.00854744
-0.000161737
0.00859048
-0.000138275
0.00862633
-9.98872e-05
0.00865433
-5.40523e-05
0.00867447
-6.47839e-06
0.008687
4.11511e-05
0.00869249
8.57969e-05
0.00869141
0.000128828
0.00868457
0.000167366
0.00867256
0.000203458
0.00865615
0.000235895
0.00863606
0.000265095
0.00861303
0.000291541
0.00858778
0.00031552
0.00856108
0.000337213
0.00853384
0.00035601
0.00850697
0.000371976
0.00848128
0.000386833
0.00845785
0.000396432
0.00843734
0.000405416
0.00842035
0.000411379
0.00840735
0.0004129
0.000403001
0.00839849
0.000788131
-0.00789006
-8.72772e-09
0.00156815
-0.00783012
0.00234354
-0.00744932
0.00311513
-0.00680288
0.00388647
-0.00608469
0.0046531
-0.00532652
0.00539369
-0.00451378
0.00609071
-0.00375983
0.00671716
-0.00304498
0.00725628
-0.00241671
0.00770208
-0.00188979
0.00806062
-0.00146557
0.00834349
-0.00113398
0.00856504
-0.000878882
0.00873861
-0.000682048
0.00887537
-0.000529109
0.00898421
-0.000408594
0.00907177
-0.000310115
0.00914316
-0.000229584
0.0092023
-0.00016256
0.00925244
-0.000108718
0.00929668
-7.03544e-05
0.00933841
-5.29651e-05
0.00938169
-6.28693e-05
0.00943059
-9.89696e-05
0.0094863
-0.000164797
0.00954433
-0.000213246
0.00960003
-0.000217439
0.00964995
-0.000188194
0.00969195
-0.000141887
0.00972526
-8.73631e-05
0.00974994
-3.11607e-05
0.00976626
2.48285e-05
0.00977491
7.71453e-05
0.00977644
0.000127305
0.00977175
0.000172054
0.00976157
0.000213641
0.00974677
0.000250691
0.00972822
0.000283647
0.00970676
0.000313002
0.00968324
0.000339041
0.00965851
0.000361934
0.00963354
0.000380986
0.00960924
0.000396271
0.00958634
0.000409733
0.00956578
0.000416998
0.00954798
0.000423218
0.00953333
0.000426029
0.00952201
0.000424218
0.000411019
0.00951399
0.000854574
-0.00874463
-9.03532e-09
0.00169461
-0.00867016
0.0025228
-0.00827751
0.00334063
-0.0076207
0.00415381
-0.00689787
0.00496324
-0.00613594
0.00575487
-0.00530541
0.00651618
-0.00452115
0.00722169
-0.00375049
0.00785058
-0.00304561
0.00838822
-0.00242743
0.0088329
-0.00191024
0.00919109
-0.00149217
0.0094755
-0.00116329
0.00969997
-0.000906513
0.00987726
-0.000706404
0.0100182
-0.000549516
0.0101312
-0.000423128
0.010223
-0.000321378
0.0102987
-0.000238308
0.0103627
-0.000172684
0.0104188
-0.000126428
0.010471
-0.000105204
0.010524
-0.000115879
0.0105825
-0.00015746
0.0106476
-0.00022987
0.0107144
-0.000280072
0.0107782
-0.000281273
0.0108356
-0.000245518
0.0108842
-0.000190474
0.0109231
-0.000126327
0.0109526
-6.0646e-05
0.0109729
4.49426e-06
0.0109849
6.51714e-05
0.0109892
0.000123052
0.0109867
0.000174475
0.0109785
0.000221902
0.0109654
0.000263777
0.0109485
0.000300574
0.0109287
0.000332811
0.0109069
0.000360791
0.0108841
0.000384702
0.0108613
0.000403811
0.0108393
0.000418257
0.0108188
0.000430264
0.0108005
0.00043533
0.0107846
0.000439094
0.0107714
0.000439198
0.0107609
0.000434725
0.00041898
0.010753
0.000932145
-0.00967676
-9.34982e-09
0.00184311
-0.00958113
0.00273467
-0.00916906
0.00360835
-0.00849439
0.00447084
-0.00776036
0.00532642
-0.00699153
0.00616742
-0.00614641
0.00698751
-0.00534123
0.00776541
-0.00452839
0.00848025
-0.00376045
0.00911206
-0.00305924
0.00965097
-0.00244916
0.0100962
-0.00193743
0.0104565
-0.00152355
0.0107444
-0.00119437
0.0109733
-0.000935339
0.0111557
-0.000731958
0.011302
-0.000569436
0.0114206
-0.000439973
0.0115182
-0.000335867
0.0116002
-0.000254707
0.0116716
-0.000197789
0.0117371
-0.000170778
0.0118022
-0.000180963
0.0118723
-0.000227504
0.0119483
-0.000305903
0.0120252
-0.000356927
0.0120981
-0.000354246
0.0121637
-0.00031107
0.0122196
-0.00024638
0.0122648
-0.000171556
0.0122997
-9.54746e-05
0.0123245
-2.03272e-05
0.0123402
4.94516e-05
0.0123476
0.000115685
0.0123478
0.000174272
0.0123418
0.000227903
0.0123307
0.000274834
0.0123157
0.000315582
0.0122978
0.000350714
0.012278
0.000380582
0.0122573
0.000405433
0.0122365
0.00042454
0.0122166
0.000438164
0.012198
0.000448859
0.0121814
0.000452003
0.0121667
0.000453737
0.0121543
0.000451642
0.0121438
0.000445181
0.000427554
0.0121353
0.0010218
-0.0106986
-9.6735e-09
0.00201549
-0.0105748
0.00298186
-0.0101354
0.00392222
-0.00943475
0.00484341
-0.00868155
0.00575163
-0.00789974
0.00664393
-0.00703871
0.0075199
-0.0062172
0.00836416
-0.00537265
0.00915887
-0.00455517
0.00988269
-0.00378305
0.0105197
-0.0030862
0.0110613
-0.00247896
0.0115098
-0.00197204
0.0118743
-0.00155895
0.0121676
-0.00122861
0.0124028
-0.000967185
0.0125921
-0.00075867
0.0127455
-0.000593441
0.0128716
-0.000461935
0.0129772
-0.000360328
0.0130685
-0.000289037
0.0131512
-0.000253521
0.0132316
-0.000261317
0.0133159
-0.000311795
0.013405
-0.000395065
0.0134936
-0.000445476
0.0135771
-0.000437745
0.013652
-0.000385963
0.0137162
-0.000310613
0.0137686
-0.000223974
0.0138096
-0.000136448
0.0138396
-5.03577e-05
0.0138598
2.93225e-05
0.0138709
0.000104586
0.0138743
0.000170863
0.0138711
0.000231096
0.0138626
0.000283349
0.0138499
0.00032821
0.0138343
0.000366321
0.0138168
0.000398122
0.0137982
0.000423962
0.0137796
0.000443163
0.0137616
0.000456153
0.0137446
0.000465847
0.0137292
0.000467456
0.0137152
0.00046769
0.0137029
0.000463945
0.013692
0.000456122
0.000437203
0.0136823
0.00112466
-0.0118232
-1.00054e-08
0.00221389
-0.011664
0.00326754
-0.0111891
0.0042865
-0.0104537
0.00527735
-0.0096724
0.00624714
-0.00886953
0.00719617
-0.00798774
0.0081286
-0.00714963
0.00903554
-0.00627959
0.00990391
-0.00542354
0.0107144
-0.00459357
0.011449
-0.00382078
0.0120921
-0.00312205
0.012639
-0.0025189
0.0130932
-0.00201319
0.0134645
-0.00159988
0.0137654
-0.00126813
0.0140091
-0.00100233
0.0142073
-0.000791676
0.0143703
-0.000624893
0.0145065
-0.000496607
0.0146236
-0.000406108
0.0147285
-0.000358444
0.0148284
-0.000361184
0.0149305
-0.000413935
0.0150357
-0.000500246
0.0151382
-0.000547923
0.015234
-0.000533574
0.0153197
-0.0004717
0.0153936
-0.000384465
0.0154544
-0.000284782
0.0155026
-0.000184633
0.0155388
-8.65701e-05
0.0155642
3.88296e-06
0.0155799
8.89123e-05
0.0155873
0.000163458
0.0155877
0.000230744
0.0155824
0.00028865
0.0155727
0.000337863
0.0155599
0.000379141
0.015545
0.000413049
0.0155289
0.000440078
0.0155124
0.000459631
0.0154962
0.000472335
0.0154806
0.000481461
0.015466
0.000482019
0.0154524
0.000481334
0.0154398
0.000476518
0.015428
0.000467892
0.000448222
0.015417
0.00124203
-0.0130652
-1.03444e-08
0.00244082
-0.0128628
0.00359531
-0.0123436
0.00470594
-0.0115643
0.00577877
-0.0107452
0.00682108
-0.00991184
0.00783521
-0.00900187
0.00882844
-0.00814286
0.0097975
-0.00724865
0.0107353
-0.00636131
0.0116265
-0.00548476
0.0124541
-0.00464842
0.0131996
-0.00386754
0.0138514
-0.00317067
0.0144062
-0.00256807
0.0148689
-0.00206257
0.0152496
-0.00164878
0.0155609
-0.00131366
0.0158157
-0.0010465
0.0160258
-0.000834992
0.0162015
-0.000672322
0.0163519
-0.000556493
0.0164854
-0.000491947
0.0166103
-0.000486036
0.016735
-0.000538617
0.0168599
-0.000625222
0.0169792
-0.00066715
0.0170896
-0.000644044
0.0171882
-0.000570237
0.0172733
-0.000469583
0.017344
-0.000355492
0.0174007
-0.000241371
0.0174444
-0.000130203
0.0174763
-2.80152e-05
0.0174976
6.75985e-05
0.01751
0.00015107
0.0175148
0.000225943
0.0175135
0.000289925
0.0175075
0.000343845
0.017498
0.00038861
0.0174861
0.00042495
0.0174727
0.000453527
0.0174585
0.000473864
0.017444
0.000486757
0.0174297
0.000495843
0.0174158
0.000495921
0.0174022
0.000494914
0.0173891
0.000489617
0.0173763
0.000480703
0.000460766
0.0173637
0.00137539
-0.0144406
-1.06881e-08
0.00269915
-0.0141866
0.00396934
-0.0136138
0.00518593
-0.0127809
0.00635437
-0.0119137
0.00748181
-0.0110393
0.00857183
-0.0100919
0.00963356
-0.00920459
0.010668
-0.00828314
0.0116738
-0.00736702
0.012641
-0.006452
0.0135561
-0.00556352
0.0144006
-0.00471208
0.0151594
-0.00392943
0.0158225
-0.00323119
0.0163883
-0.0026284
0.0168626
-0.00212303
0.0172559
-0.00170698
0.0175809
-0.0013715
0.0178504
-0.00110445
0.0180762
-0.000898176
0.0182692
-0.000749465
0.0184393
-0.000662041
0.0185961
-0.000642803
0.0187493
-0.000691836
0.0188989
-0.000774834
0.0190386
-0.000806861
0.0191666
-0.000772082
0.0192805
-0.000684062
0.0193789
-0.00056802
0.0194614
-0.000437966
0.0195284
-0.000308385
0.019581
-0.000182798
0.0196208
-6.77795e-05
0.019649
3.93513e-05
0.0196676
0.000132516
0.0196779
0.000215627
0.0196816
0.000286244
0.01968
0.000345369
0.0196745
0.000394103
0.0196661
0.000433366
0.0196556
0.000464031
0.0196438
0.000485715
0.0196311
0.000499382
0.0196179
0.00050906
0.0196046
0.000509289
0.0195909
0.000508568
0.0195772
0.000503363
0.0195632
0.000494653
0.00047489
0.0195491
0.00152645
-0.015967
-1.10355e-08
0.00299218
-0.0156523
0.0043944
-0.015016
0.00573261
-0.0141191
0.00701165
-0.0131927
0.00823834
-0.012266
0.009417
-0.0112706
0.0105578
-0.0103453
0.0116647
-0.00939006
0.0127407
-0.00844303
0.0137819
-0.00749318
0.0147796
-0.00656124
0.0157181
-0.00565062
0.0165817
-0.00479304
0.0173564
-0.00400583
0.0180339
-0.00330597
0.0186142
-0.00270329
0.0191039
-0.00219669
0.0195138
-0.00178142
0.0198567
-0.00144731
0.0201454
-0.00118689
0.0203922
-0.000996284
0.0206088
-0.000878601
0.0208061
-0.000840121
0.0209954
-0.000881143
0.0211758
-0.000955201
0.0213407
-0.000971753
0.02149
-0.0009214
0.0216222
-0.000816271
0.0217366
-0.000682399
0.0218331
-0.000534467
0.0219125
-0.00038779
0.0219759
-0.000246225
0.0220252
-0.000117109
0.0220619
2.63208e-06
0.022088
0.000106414
0.0221051
0.000198575
0.0221148
0.000276553
0.0221186
0.000341564
0.0221178
0.000394931
0.0221133
0.000437804
0.0221061
0.00047124
0.0220969
0.000494956
0.0220862
0.000510106
0.0220741
0.000521082
0.0220613
0.000522138
0.0220475
0.000522325
0.0220331
0.000517775
0.022018
0.000509752
0.000490577
0.0220023
0.00169713
-0.0176642
-1.1384e-08
0.00332365
-0.0172788
0.00487591
-0.0165682
0.00635296
-0.0155962
0.00775906
-0.0145988
0.00910064
-0.0136076
0.0103825
-0.0125524
0.0116151
-0.0115779
0.0128046
-0.0105796
0.0139572
-0.00959566
0.015074
-0.00860992
0.0161518
-0.00763906
0.0171795
-0.00667833
0.0181435
-0.00575704
0.0190287
-0.00489101
0.0198224
-0.00409966
0.0205181
-0.00339905
0.0211173
-0.00279589
0.0216271
-0.0022912
0.0220586
-0.00187881
0.0224248
-0.00155305
0.0227388
-0.0013103
0.0230138
-0.00115358
0.0232622
-0.0010886
0.023497
-0.00111592
0.0237158
-0.00117399
0.0239118
-0.00116771
0.0240871
-0.00109669
0.0242415
-0.000970683
0.0243751
-0.000816045
0.0244884
-0.000647748
0.0245827
-0.000482061
0.0246592
-0.000322809
0.0247202
-0.000178035
0.0247672
-4.43666e-05
0.0248024
7.1164e-05
0.0248276
0.000173396
0.0248445
0.000259672
0.0248546
0.000331467
0.0248592
0.000390341
0.0248593
0.000437665
0.0248558
0.000474708
0.0248495
0.000501295
0.0248409
0.000518737
0.0248302
0.000531787
0.0248179
0.000534382
0.0248041
0.000536124
0.0247891
0.000532796
0.0247729
0.000525942
0.000507768
0.0247557
0.00188963
-0.0195538
-1.17313e-08
0.00369781
-0.019087
0.00542004
-0.0182905
0.00705494
-0.0172311
0.0086062
-0.0161501
0.0100799
-0.0150812
0.0114811
-0.0139536
0.0128204
-0.0129173
0.0141054
-0.0118645
0.0153444
-0.0108347
0.0165424
-0.00980788
0.0177013
-0.00879793
0.0188155
-0.00779252
0.0198753
-0.00681684
0.0208672
-0.00588299
0.0217772
-0.00500964
0.022594
-0.0042158
0.023313
-0.00351495
0.0239365
-0.00291463
0.0244721
-0.0024145
0.0249316
-0.00201253
0.0253281
-0.00170679
0.0256756
-0.0015011
0.0259881
-0.00140105
0.0262798
-0.00140766
0.0265466
-0.00144073
0.0267809
-0.0014021
0.026988
-0.00130378
0.0271694
-0.00115209
0.0273264
-0.000972975
0.0274599
-0.00078132
0.027572
-0.000594151
0.0276644
-0.000415203
0.0277394
-0.000253009
0.0277988
-0.000103795
0.0278451
2.49201e-05
0.0278799
0.000138517
0.0279053
0.000234282
0.0279228
0.000313975
0.0279337
0.000379427
0.0279392
0.00043225
0.02794
0.000473915
0.0279369
0.00050434
0.0279307
0.000524988
0.0279215
0.000540955
0.02791
0.000545852
0.0278963
0.000549828
0.0278808
0.000548311
0.0278636
0.000543129
0.000526384
0.027845
0.00210644
-0.0216602
-1.20744e-08
0.0041195
-0.0211001
0.00603381
-0.0202048
0.00784757
-0.0190448
0.00956397
-0.0178665
0.0111888
-0.016706
0.0127272
-0.015492
0.01419
-0.0143801
0.0155856
-0.0132601
0.0169238
-0.0121729
0.0182124
-0.0110965
0.0194575
-0.010043
0.0206587
-0.00899373
0.0218116
-0.00796972
0.0229062
-0.00697759
0.0239295
-0.006033
0.0248686
-0.00515483
0.025714
-0.00436037
0.0264623
-0.00366294
0.0271167
-0.00306892
0.0276858
-0.00258157
0.0281814
-0.00220238
0.0286175
-0.00193728
0.0290091
-0.00179258
0.0293716
-0.00177023
0.029698
-0.00176704
0.0299798
-0.00168398
0.030226
-0.00154994
0.0304403
-0.00136643
0.0306255
-0.00115817
0.0307836
-0.000939448
0.0309173
-0.000727768
0.0310286
-0.000526573
0.0311204
-0.000344789
0.0311947
-0.000178114
0.0312541
-3.44848e-05
0.0313006
9.20732e-05
0.0313361
0.000198813
0.0313622
0.000287806
0.0313805
0.000361165
0.031392
0.000420743
0.0313977
0.000468218
0.0313984
0.000503591
0.031395
0.000528465
0.0313876
0.000548277
0.0313772
0.000556302
0.0313638
0.000563241
0.0313479
0.000564166
0.0313298
0.000561197
0.000546345
0.0313099
0.00235036
-0.0240106
-1.24104e-08
0.00459417
-0.0233439
0.00672515
-0.0223358
0.0087411
-0.0210608
0.0106447
-0.0197701
0.0124416
-0.0185029
0.0141371
-0.0171876
0.015742
-0.0159849
0.0172653
-0.0147834
0.0187181
-0.0136258
0.0201102
-0.0124885
0.0214505
-0.0113833
0.0227434
-0.0102866
0.0239896
-0.00921597
0.0251843
-0.00817224
0.0263175
-0.00716617
0.0273767
-0.00621412
0.0283509
-0.00533456
0.0292317
-0.00454369
0.030017
-0.00385421
0.030711
-0.00327556
0.0313228
-0.0028142
0.0318652
-0.00247972
0.032353
-0.00228038
0.0328027
-0.00221993
0.0332026
-0.00216693
0.0335431
-0.00202444
0.0338372
-0.00184407
0.0340918
-0.00162101
0.0343114
-0.00137777
0.0344993
-0.00112735
0.0346589
-0.000887403
0.0347932
-0.00066081
0.0349051
-0.000456734
0.0349972
-0.000270208
0.0350722
-0.000109519
0.0351323
3.19691e-05
0.0351797
0.000151505
0.035216
0.000251498
0.0352428
0.000334354
0.0352613
0.000402174
0.0352727
0.000456837
0.0352779
0.00049842
0.0352777
0.000528666
0.0352726
0.000553353
0.0352635
0.000565416
0.0352506
0.00057612
0.0352346
0.000580181
0.0352158
0.000580023
0.000567577
0.0351945
0.00262458
-0.0266351
-1.27358e-08
0.00512801
-0.0258473
0.00750308
-0.0247108
0.00974716
-0.0233049
0.0118626
-0.0218855
0.0138546
-0.0204949
0.0157291
-0.0190621
0.0174966
-0.0177525
0.019167
-0.0164538
0.0207521
-0.0152108
0.0222631
-0.0139995
0.0237113
-0.0128316
0.0251048
-0.0116801
0.0264488
-0.01056
0.0277437
-0.00946714
0.0289844
-0.00840684
0.0301612
-0.00739092
0.0312632
-0.00643657
0.0322799
-0.00556041
0.0332047
-0.00477901
0.0340368
-0.00410761
0.0347811
-0.00355857
0.035448
-0.00314655
0.0360508
-0.00288325
0.0366062
-0.0027753
0.0370961
-0.00265682
0.0375084
-0.0024368
0.0378614
-0.00219701
0.0381652
-0.0019248
0.0384267
-0.00163925
0.0386507
-0.00135138
0.0388418
-0.00107849
0.0390035
-0.000822574
0.0391396
-0.00059284
0.0392529
-0.000383498
0.0393465
-0.000203096
0.0394227
-4.42588e-05
0.0394839
9.02947e-05
0.0395321
0.000203337
0.0395689
0.000297582
0.0395957
0.000375383
0.0396137
0.000438822
0.039624
0.000488057
0.0396277
0.000524969
0.0396254
0.000555686
0.039618
0.000572808
0.039606
0.000588171
0.03959
0.000596144
0.0395706
0.000599469
0.000590012
0.0395481
0.00293269
-0.0295678
-1.30471e-08
0.00572802
-0.0286426
0.00837778
-0.0273606
0.0108789
-0.025806
0.0132334
-0.02424
0.0154463
-0.0227078
0.0175239
-0.0211397
0.019477
-0.0197056
0.0213158
-0.0182927
0.023053
-0.016948
0.0247011
-0.0156475
0.0262731
-0.0144036
0.0277797
-0.0131867
0.0292302
-0.0120104
0.0306296
-0.0108666
0.0319782
-0.00975537
0.0332706
-0.00868338
0.0344986
-0.00766455
0.0356516
-0.00671337
0.0367206
-0.00584808
0.0377005
-0.00508753
0.0385917
-0.00444974
0.0394004
-0.00395526
0.0401378
-0.0036206
0.040819
-0.00345656
0.0414176
-0.00325538
0.0419174
-0.00293657
0.042342
-0.00262163
0.0427057
-0.0022885
0.0430181
-0.00195164
0.0432859
-0.00161919
0.0435149
-0.00130753
0.0437098
-0.00101743
0.0438748
-0.000757862
0.0440134
-0.000522039
0.0441289
-0.000318654
0.0442242
-0.000139517
0.0443017
1.27416e-05
0.0443638
0.000141284
0.0444122
0.000249152
0.0444486
0.000338964
0.0444744
0.000413016
0.0444909
0.000471555
0.0444993
0.000516611
0.0445003
0.000554667
0.0444951
0.000578003
0.0444843
0.000599039
0.0444686
0.000611807
0.0444487
0.000619381
0.000613574
0.0444251
0.00327877
-0.0328466
-1.33405e-08
0.00640211
-0.031766
0.0093608
-0.0303193
0.0121513
-0.0285965
0.0147752
-0.0268639
0.0172377
-0.0251703
0.0195453
-0.0234473
0.0217091
-0.0218693
0.0237401
-0.0203237
0.0256516
-0.0188596
0.0274573
-0.0174532
0.0291715
-0.0161178
0.0308074
-0.0148226
0.032377
-0.0135801
0.0338897
-0.0123792
0.0353504
-0.0112161
0.0367593
-0.0100922
0.038112
-0.00901728
0.0394004
-0.00800177
0.0406154
-0.00706303
0.0417493
-0.00622141
0.0427984
-0.00549884
0.0437645
-0.0049214
0.0446552
-0.00451133
0.0454834
-0.00428473
0.0462109
-0.00398292
0.0468157
-0.0035413
0.0473268
-0.00313282
0.0477631
-0.00272472
0.048137
-0.0023256
0.0484577
-0.00193983
0.0487324
-0.00158225
0.0489669
-0.00125197
0.0491665
-0.000957416
0.0493351
-0.000690616
0.0494767
-0.000460254
0.0495944
-0.000257242
0.0496912
-8.40528e-05
0.0497696
6.29063e-05
0.0498317
0.000187029
0.0498794