/*--------------------------------*- C++ -*----------------------------------*\
  =========                 |
  \\      /  F ield         | OpenFOAM: The Open Source CFD Toolbox
   \\    /   O peration     | Website:  https://openfoam.org
    \\  /    A nd           | Version:  10
     \\/     M anipulation  |
\*---------------------------------------------------------------------------*/
FoamFile
{
    format      ascii;
    class       volVectorField;
    location    "433";
    object      U;
}
// * * * * * * * * * * * * * * * * * * * * * * * * * * * * * * * * * * * * * //

dimensions      [0 1 -1 0 0 0 0];

internalField   nonuniform List<vector> 
13320
(
(2.82291 3.08792 0)
(4.50037 9.16784 1.97445e-15)
(7.81561 13.6754 1.65262e-15)
(11.6085 15.874 -8.62571e-17)
(15.1282 16.3197 -2.51641e-15)
(18.0696 15.7221 2.44127e-15)
(20.4029 14.6062 0)
(22.1828 13.2946 5.08767e-15)
(23.5253 11.9513 -3.066e-16)
(24.5216 10.6524 2.73982e-15)
(25.2432 9.43272 -1.51259e-16)
(25.746 8.30082 -9.45982e-15)
(26.0738 7.25045 -2.98148e-16)
(26.2572 6.27473 4.879e-15)
(26.3196 5.36271 0)
(26.2768 4.50633 0)
(26.1454 3.69693 4.72227e-15)
(25.9385 2.92715 -2.80764e-16)
(25.6603 2.19881 4.53395e-15)
(25.3093 1.50583 4.29717e-15)
(24.8844 0.856881 -1.31083e-16)
(24.3868 0.25843 -5.11228e-16)
(23.8214 -0.282391 -1.86707e-15)
(23.2002 -0.757529 -7.87066e-15)
(22.5385 -1.16142 1.17611e-16)
(21.8928 -1.48442 -7.74956e-15)
(21.3289 -1.72511 -7.9265e-15)
(20.8491 -1.90506 1.32139e-16)
(20.4272 -2.04832 8.70388e-15)
(20.0439 -2.16717 -9.21793e-15)
(19.6873 -2.26757 0)
(19.3488 -2.35273 -7.76658e-17)
(19.0235 -2.42443 -5.72253e-21)
(18.7081 -2.48399 8.31294e-17)
(18.4001 -2.53261 8.57889e-17)
(18.0978 -2.57121 -8.84451e-17)
(17.7997 -2.6007 -2.86854e-15)
(17.5042 -2.62184 2.99792e-15)
(17.21 -2.6352 3.03365e-15)
(16.9157 -2.64129 -2.43665e-21)
(16.6193 -2.64049 1.62518e-15)
(16.3186 -2.63292 1.88125e-21)
(16.0112 -2.61855 0)
(15.6934 -2.59716 -2.74569e-17)
(15.3609 -2.56797 9.30187e-16)
(15.0032 -2.52927 1.86938e-15)
(14.6211 -2.47869 -9.69515e-16)
(14.1494 -2.40855 -7.69918e-18)
(13.6805 -2.30707 -4.99863e-16)
(12.6853 -2.06907 -4.22126e-18)
(4.52709 2.48963 3.27524e-16)
(6.25253 7.2279 -5.47847e-16)
(9.5371 10.7629 -9.96652e-16)
(13.4157 12.6917 1.92114e-15)
(17.0407 13.2702 3.77014e-15)
(20.0159 12.9906 -1.86117e-15)
(22.2926 12.2685 -1.85072e-15)
(23.9886 11.3565 -3.77322e-15)
(25.2472 10.3838 1.13116e-16)
(26.1796 9.41116 1.11903e-16)
(26.8681 8.46513 -1.10081e-16)
(27.3705 7.55187 -2.45733e-19)
(27.724 6.67359 0)
(27.9533 5.83108 0)
(28.0755 5.02028 0)
(28.1009 4.23824 0)
(28.0351 3.48409 -3.19813e-15)
(27.8822 2.75814 -9.67534e-17)
(27.6446 2.05961 -2.98889e-15)
(27.3235 1.39275 -2.88252e-15)
(26.9208 0.760386 8.66686e-17)
(26.4381 0.169271 3.33095e-16)
(25.8803 -0.37038 -6.7744e-21)
(25.2588 -0.848935 -8.56898e-21)
(24.5886 -1.26085 0)
(23.9232 -1.59544 4.82415e-15)
(23.3332 -1.85037 -5.15225e-15)
(22.8287 -2.04614 -5.39466e-15)
(22.3829 -2.20439 -1.13334e-14)
(21.9771 -2.33599 1.19619e-14)
(21.6007 -2.44648 -6.34017e-15)
(21.2454 -2.53937 6.65354e-15)
(20.9056 -2.61681 -5.43974e-17)
(20.5777 -2.68046 5.6816e-17)
(20.2592 -2.73179 3.78761e-15)
(19.948 -2.77182 0)
(19.6426 -2.80162 -2.04459e-15)
(19.3412 -2.8219 -2.18532e-15)
(19.0427 -2.83323 2.26172e-15)
(18.7455 -2.83609 -4.53338e-15)
(18.4477 -2.83066 -1.16979e-15)
(18.1473 -2.81685 1.20598e-15)
(17.8421 -2.79426 1.24234e-15)
(17.5287 -2.76221 0)
(17.2037 -2.71881 0)
(16.8583 -2.66125 -1.33203e-15)
(16.4934 -2.58277 -2.1724e-17)
(16.0645 -2.47597 1.41865e-15)
(15.6411 -2.2887 3.77654e-16)
(14.9695 -2.02231 0)
(6.47721 1.99791 -2.08685e-16)
(7.64203 5.94694 0)
(9.95435 9.28755 -6.58426e-16)
(12.9772 11.5836 -1.42945e-15)
(16.1456 12.7383 -1.38085e-15)
(19.0429 12.96 0)
(21.4541 12.5642 -2.52826e-19)
(23.3741 11.8167 2.75565e-15)
(24.8671 10.9039 -1.37253e-15)
(26.0164 9.92951 2.64746e-19)
(26.8951 8.95315 -2.70579e-15)
(27.5634 7.99928 5.53334e-15)
(28.0637 7.07921 -3.32431e-16)
(28.4264 6.19603 1.64471e-16)
(28.6736 5.34724 -1.62566e-16)
(28.8195 4.53014 5.68247e-21)
(28.8707 3.74187 3.15098e-16)
(28.8278 2.97954 -1.53373e-16)
(28.691 2.24421 0)
(28.4611 1.53851 2.31165e-15)
(28.139 0.867409 -1.39221e-16)
(27.7252 0.238675 1.33796e-16)
(27.2241 -0.337284 3.847e-16)
(26.6464 -0.850468 2.0858e-15)
(26.0077 -1.29445 0)
(25.3601 -1.6568 3.79211e-15)
(24.7755 -1.93402 3.99033e-15)
(24.27 -2.14679 -4.24775e-15)
(23.821 -2.3181 4.57319e-15)
(23.411 -2.46017 -4.83169e-15)
(23.0303 -2.57938 1.01731e-14)
(22.6711 -2.67968 -5.42589e-15)
(22.3282 -2.76344 2.88458e-15)
(21.9979 -2.83248 0)
(21.6777 -2.88834 -6.09185e-15)
(21.3657 -2.93211 0)
(21.0601 -2.96483 1.6445e-15)
(20.7594 -2.98724 -5.32549e-17)
(20.4624 -2.99989 -1.7079e-15)
(20.1677 -3.00315 5.69083e-17)
(19.8737 -2.99713 -5.8683e-17)
(19.5783 -2.98157 -3.02165e-17)
(19.2798 -2.95583 -9.63521e-16)
(18.9755 -2.91883 -1.05404e-15)
(18.6627 -2.86803 5.57023e-16)
(18.335 -2.79998 5.3781e-16)
(17.995 -2.70606 0)
(17.6136 -2.57713 -7.91033e-21)
(17.2587 -2.36882 -4.47446e-18)
(16.7648 -2.08171 -2.87391e-16)
(8.29043 1.62082 1.9475e-17)
(9.07913 4.90661 -2.66319e-16)
(10.7337 7.904 9.87855e-16)
(13.1186 10.2305 -9.50753e-16)
(15.8656 11.6486 -1.15947e-15)
(18.5827 12.1927 1.09582e-15)
(20.98 12.0722 1.10561e-15)
(22.9665 11.5283 -1.24279e-15)
(24.5552 10.7547 -1.10293e-15)
(25.8028 9.87374 -1.91638e-15)
(26.7734 8.95788 2.03952e-15)
(27.525 8.04326 -2.15449e-15)
(28.1012 7.14809 -2.13112e-15)
(28.5346 6.28052 -2.2393e-15)
(28.8493 5.44087 8.27426e-21)
(29.0609 4.62801 2.5677e-16)
(29.179 3.84061 -1.26263e-16)
(29.2071 3.07682 -1.97993e-15)
(29.1456 2.33706 0)
(28.9934 1.62338 -3.78937e-15)
(28.7477 0.940526 0)
(28.4068 0.296467 -1.11065e-16)
(27.9736 -0.297732 -1.37208e-20)
(27.4568 -0.831145 1.02319e-16)
(26.8705 -1.29607 0)
(26.2634 -1.67799 -9.90132e-17)
(25.7057 -1.97138 3.49764e-15)
(25.2175 -2.1967 3.7264e-15)
(24.7807 -2.37787 -1.19725e-16)
(24.3797 -2.52804 -6.3268e-17)
(24.0064 -2.654 -4.1964e-15)
(23.6537 -2.75989 -6.99689e-17)
(23.3168 -2.84826 -2.27088e-15)
(22.9926 -2.92103 -2.44948e-15)
(22.6785 -2.9798 5.10302e-15)
(22.3729 -3.02569 0)
(22.074 -3.05974 -4.30149e-17)
(21.7807 -3.08269 4.45451e-17)
(21.4916 -3.09503 0)
(21.2057 -3.09706 1.47334e-15)
(20.9214 -3.0888 8.81336e-16)
(20.6373 -3.06986 7.55382e-16)
(20.3517 -3.03937 0)
(20.0629 -2.99598 8.75603e-16)
(19.769 -2.93685 -8.96374e-16)
(19.4661 -2.85827 -4.44733e-16)
(19.1588 -2.75155 0)
(18.8294 -2.60943 -8.67197e-21)
(18.5365 -2.40024 0)
(18.1682 -2.13858 2.38224e-16)
(9.91213 1.32843 3.15555e-17)
(10.4557 4.06705 2.04151e-16)
(11.6284 6.69414 -4.50641e-16)
(13.4527 8.93761 9.00422e-16)
(15.741 10.5246 1.69799e-15)
(18.1899 11.3564 -7.97181e-16)
(20.4942 11.5207 0)
(22.4973 11.201 0)
(24.1531 10.5831 1.85294e-15)
(25.4829 9.80297 1.84793e-15)
(26.5343 8.94981 -1.1493e-16)
(27.3592 8.07342 2.27777e-16)
(28.0006 7.20107 -2.25307e-16)
(28.492 6.3465 3.78172e-15)
(28.8591 5.51387 -7.92903e-21)
(29.1196 4.70422 -1.83923e-15)
(29.285 3.91756 -1.70468e-15)
(29.3615 3.1529 3.45254e-15)
(29.3517 2.41074 -1.02763e-16)
(29.2553 1.69304 1.61348e-15)
(29.0697 1.00433 0)
(28.7924 0.352145 0)
(28.4234 -0.252879 2.80166e-16)
(27.9685 -0.799563 -1.263e-15)
(27.44 -1.27933 2.68511e-15)
(26.8824 -1.67608 9.00314e-21)
(26.362 -1.98241 -2.91811e-15)
(25.9007 -2.21816 -2.00432e-16)
(25.4844 -2.40768 1.06114e-16)
(25.0999 -2.56465 0)
(24.7404 -2.69618 0)
(24.3997 -2.80661 1.97292e-15)
(24.0739 -2.89863 0)
(23.76 -2.97426 2.21647e-15)
(23.456 -3.03515 6.22724e-21)
(23.1602 -3.08249 -1.44886e-16)
(22.8714 -3.11728 -1.19975e-15)
(22.5883 -3.14027 7.74792e-17)
(22.31 -3.15192 0)
(22.0354 -3.15246 -1.31659e-15)
(21.7635 -3.14184 -6.76586e-16)
(21.4929 -3.11956 -1.34497e-15)
(21.2227 -3.08465 -8.89049e-17)
(20.9518 -3.03561 -6.82229e-16)
(20.6794 -2.96956 3.7144e-16)
(20.4036 -2.88301 7.57857e-16)
(20.1305 -2.76853 3.97423e-16)
(19.8503 -2.62127 -7.9481e-16)
(19.611 -2.42243 0)
(19.3338 -2.18268 -2.00525e-16)
(11.3649 1.09859 0)
(11.7508 3.39081 4.99845e-17)
(12.5798 5.6598 3.38635e-16)
(13.9396 7.73969 0)
(15.7805 9.39177 -7.73469e-16)
(17.9105 10.4434 9.70891e-17)
(20.0572 10.8722 5.89701e-16)
(22.0269 10.7864 2.95793e-16)
(23.7196 10.3434 1.38689e-15)
(25.1145 9.68224 -1.58597e-15)
(26.2369 8.90568 0)
(27.1287 8.07715 1.96804e-16)
(27.8301 7.23412 1.17128e-15)
(28.3741 6.39696 -1.15848e-15)
(28.7875 5.57441 -1.71386e-15)
(29.0894 4.77017 1.50059e-15)
(29.2929 3.98595 -5.4948e-20)
(29.406 3.22166 -2.90433e-15)
(29.433 2.47841 -1.78064e-16)
(29.3752 1.75842 1.74744e-16)
(29.2316 1.06616 -6.86148e-16)
(29.0009 0.408827 3.3675e-16)
(28.6829 -0.203278 0)
(28.2822 -0.759125 1.28747e-15)
(27.8079 -1.24994 -2.49609e-15)
(27.2998 -1.65834 9.9686e-21)
(26.8195 -1.97519 0)
(26.3893 -2.21953 3.00205e-15)
(25.9979 -2.41594 -9.62149e-17)
(25.6342 -2.57848 0)
(25.2925 -2.71455 -1.06245e-16)
(24.9678 -2.82862 1.99951e-15)
(24.6563 -2.9235 -1.15761e-16)
(24.3559 -3.0013 -6.01907e-17)
(24.0647 -3.06371 -1.93402e-15)
(23.7814 -3.11195 0)
(23.505 -3.14701 1.06627e-15)
(23.2344 -3.16963 -1.16741e-15)
(22.9689 -3.18025 7.06344e-17)
(22.7077 -3.17905 1.23296e-15)
(22.45 -3.16593 -7.43336e-17)
(22.195 -3.14037 6.08451e-16)
(21.9421 -3.10134 0)
(21.6909 -3.04742 6.34187e-16)
(21.4418 -2.97599 3.02575e-16)
(21.1946 -2.88421 -3.07731e-16)
(20.9557 -2.76664 -6.31623e-21)
(20.7206 -2.62086 -1.05195e-17)
(20.5267 -2.43818 1.06215e-17)
(20.3158 -2.22386 1.71924e-16)
(12.6725 0.91572 -4.70058e-17)
(12.9551 2.84409 -3.52552e-16)
(13.5426 4.78657 -3.41237e-16)
(14.5391 6.66166 0)
(15.9735 8.28491 -7.61239e-16)
(17.7628 9.47633 -5.92793e-16)
(19.6978 10.1316 -6.84038e-16)
(21.5819 10.2791 0)
(23.277 10.0289 -2.754e-15)
(24.7189 9.50755 0)
(25.9036 8.82461 0)
(26.8582 8.05593 0)
(27.6165 7.25015 -1.36949e-15)
(28.2106 6.43574 1.18901e-15)
(28.6678 5.62686 1.34388e-15)
(29.0082 4.83052 1.65747e-16)
(29.246 4.0505 1.30574e-15)
(29.3906 3.28804 1.28423e-15)
(29.4476 2.54488 0)
(29.4193 1.82369 1.08062e-15)
(29.3064 1.12902 -4.54263e-16)
(29.1086 0.467985 -2.97332e-16)
(28.827 -0.149264 0)
(28.4665 -0.711942 -1.4354e-16)
(28.0358 -1.21114 1.40557e-16)
(27.5709 -1.62858 -2.31897e-15)
(27.1276 -1.95387 -2.65406e-15)
(26.7274 -2.20514 1.66369e-16)
(26.3613 -2.407 -2.81684e-15)
(26.0194 -2.57389 2.96445e-15)
(25.6969 -2.71341 0)
(25.3894 -2.83013 -1.51711e-15)
(25.094 -2.92701 -1.05132e-16)
(24.8086 -3.00621 0)
(24.5317 -3.06945 0)
(24.2624 -3.11798 -1.74421e-15)
(23.9998 -3.15278 -1.07715e-15)
(23.7431 -3.17458 6.14892e-17)
(23.4918 -3.18379 -6.30632e-17)
(23.2453 -3.1806 0)
(23.0033 -3.1649 6.59924e-17)
(22.7651 -3.13618 -1.34654e-16)
(22.5309 -3.09353 3.42924e-17)
(22.3009 -3.03573 3.48866e-17)
(22.0761 -2.96069 -2.83277e-16)
(21.8577 -2.86653 3.05215e-16)
(21.6518 -2.74992 -1.81605e-17)
(21.457 -2.61057 2.93247e-16)
(21.3006 -2.4463 -4.61346e-18)
(21.1398 -2.25943 4.65961e-18)
(13.8536 0.768435 5.99318e-21)
(14.0678 2.39951 9.90194e-16)
(14.4884 4.05383 0)
(15.2108 5.70917 0)
(16.3009 7.23841 6.0364e-16)
(17.7528 8.48666 -4.87038e-20)
(19.438 9.31354 -6.06781e-16)
(21.1849 9.677 0)
(22.841 9.62912 1.21698e-15)
(24.3057 9.26777 -1.06556e-15)
(25.5421 8.69853 -1.2176e-15)
(26.5559 8.00548 -1.51814e-16)
(27.3708 7.24793 1.21088e-15)
(28.0149 6.46335 -1.20441e-15)
(28.5154 5.67261 1.19517e-15)
(28.8934 4.88713 0)
(29.1641 4.11336 0)
(29.3383 3.35417 0)
(29.4223 2.61227 -1.13067e-15)
(29.4196 1.89083 -2.07887e-15)
(29.3317 1.19465 -1.3576e-16)
(29.1594 0.530836 0)
(28.9046 -0.090586 1.30776e-16)
(28.5728 -0.658912 -1.28623e-16)
(28.1734 -1.1649 0)
(27.7408 -1.58959 0)
(27.3271 -1.92154 2.41062e-15)
(26.9523 -2.17821 -1.51526e-16)
(26.6086 -2.3842 -1.60752e-16)
(26.2866 -2.55425 -2.71155e-15)
(25.982 -2.69613 1.77428e-16)
(25.6911 -2.81455 1.57121e-15)
(25.4112 -2.91253 -1.53406e-15)
(25.1407 -2.99231 -9.91803e-17)
(24.8782 -3.05564 -1.73832e-15)
(24.6231 -3.10378 3.47256e-15)
(24.3745 -3.13773 1.51502e-22)
(24.132 -3.15821 1.77095e-15)
(23.8953 -3.16566 -5.66107e-17)
(23.664 -3.16027 -3.25169e-21)
(23.4381 -3.14197 5.8913e-17)
(23.2174 -3.11037 -4.79564e-16)
(23.0024 -3.06477 0)
(22.794 -3.0043 3.08968e-17)
(22.5935 -2.9276 -6.25523e-17)
(22.403 -2.83379 -2.21432e-16)
(22.2278 -2.72149 -2.71225e-16)
(22.0677 -2.59196 1.60687e-17)
(21.9419 -2.4466 8.0747e-18)
(21.8192 -2.28649 -8.14423e-18)
(14.9233 0.648539 3.81515e-17)
(15.0913 2.03581 -5.41057e-16)
(15.3974 3.44212 -1.39555e-16)
(15.9192 4.88171 6.88942e-17)
(16.733 6.27859 0)
(17.8754 7.51193 5.43978e-16)
(19.2929 8.44475 6.82984e-16)
(20.8585 8.98874 -1.36378e-15)
(22.4298 9.13859 1.22893e-15)
(23.8849 8.95127 1.091e-15)
(25.1559 8.5158 -1.64575e-19)
(26.2229 7.91682 2.71374e-16)
(27.0939 7.22166 -2.70557e-16)
(27.7899 6.4768 0)
(28.3356 5.71071 -1.06994e-15)
(28.7524 4.94019 -1.06145e-15)
(29.0564 4.1753 0)
(29.2597 3.42115 -2.59485e-16)
(29.37 2.68175 2.55658e-16)
(29.3914 1.961 2.26271e-15)
(29.3264 1.26408 4.92796e-16)
(29.1762 0.598184 -1.47274e-20)
(28.9433 -0.0267374 4.73743e-16)
(28.6337 -0.599997 -1.16402e-16)
(28.2571 -1.11206 -2.29113e-16)
(27.8471 -1.54306 1.18686e-16)
(27.4543 -1.88052 -1.28149e-16)
(27.0979 -2.14145 -4.38947e-15)
(26.7715 -2.35039 2.3322e-15)
(26.4654 -2.52251 1.54025e-16)
(26.1758 -2.66573 0)
(25.8991 -2.78487 1.34803e-15)
(25.633 -2.88307 1.39703e-15)
(25.3758 -2.96261 0)
(25.1265 -3.02529 1.48506e-15)
(24.8844 -3.0724 -1.52525e-15)
(24.649 -3.10494 7.81172e-16)
(24.42 -3.12365 -1.05057e-21)
(24.1973 -3.12901 0)
(23.9809 -3.12126 0)
(23.7708 -3.10044 -4.21993e-16)
(23.5673 -3.06633 4.28319e-16)
(23.3711 -3.01855 -5.42639e-17)
(23.1836 -2.9567 -2.54559e-21)
(23.0063 -2.88019 5.54584e-17)
(22.8415 -2.7891 0)
(22.6933 -2.6836 0)
(22.5622 -2.56583 2.12306e-16)
(22.4606 -2.43886 2.13003e-17)
(22.3665 -2.30332 -7.15221e-18)
(15.8943 0.549924 3.49567e-17)
(16.0302 1.73643 -3.3143e-17)
(16.2579 2.93253 3.84813e-16)
(16.6365 4.1729 1.26434e-16)
(17.237 5.41845 0)
(18.1158 6.58735 7.44985e-16)
(19.2678 7.55919 1.24379e-15)
(20.6234 8.23438 -1.19273e-19)
(22.066 8.56091 -1.73453e-15)
(23.4724 8.55071 -9.09575e-20)
(24.7526 8.26472 7.39777e-16)
(25.8605 7.77855 0)
(26.7843 7.16238 0)
(27.5335 6.4699 0)
(28.1275 5.73736 -9.65864e-16)
(28.586 4.98777 7.18992e-16)
(28.9257 4.23561 2.37692e-16)
(29.1596 3.48898 0)
(29.2967 2.7537 -3.98012e-20)
(29.3422 2.03478 -1.14568e-15)
(29.2995 1.33795 1.12656e-15)
(29.1703 0.670592 0)
(28.9575 0.042692 0)
(28.667 -0.535056 2.1274e-16)
(28.3087 -1.05275 -1.88147e-15)
(27.9158 -1.48959 0)
(27.5377 -1.83205 -2.09022e-15)
(27.1938 -2.09662 2.23459e-15)
(26.8791 -2.30783 -2.10987e-15)
(26.5844 -2.4811 -1.39349e-16)
(26.3057 -2.62481 1.46484e-16)
(26.0399 -2.74383 -1.22261e-15)
(25.7846 -2.84144 -1.26633e-15)
(25.5383 -2.92 0)
(25.3001 -2.98133 0)
(25.0693 -3.02679 1.72302e-16)
(24.8456 -3.05739 -1.7622e-16)
(24.6289 -3.07393 -6.29502e-16)
(24.419 -3.07693 -8.24346e-16)
(24.2163 -3.06676 9.31097e-17)
(24.021 -3.04361 -1.88939e-16)
(23.8336 -3.0075 1.43529e-16)
(23.6551 -2.95843 -4.8386e-17)
(23.4869 -2.8965 0)
(23.3307 -2.82187 1.96996e-16)
(23.1883 -2.73539 2.47962e-17)
(23.063 -2.6383 -2.49109e-17)
(22.955 -2.5331 -1.99966e-16)
(22.8718 -2.42325 0)
(22.7982 -2.30975 1.00763e-16)
(16.7774 0.468113 0)
(16.8904 1.48851 -6.12944e-17)
(17.0641 2.50765 -8.90124e-16)
(17.3423 3.57126 0)
(17.7836 4.66288 0)
(18.4478 5.73495 -9.13949e-16)
(19.3591 6.69268 -1.82632e-15)
(20.4925 7.44285 -7.92732e-20)
(21.7728 7.91059 6.7997e-16)
(23.0902 8.06669 2.25977e-16)
(24.3469 7.93757 0)
(25.4755 7.58008 0)
(26.443 7.0599 -8.91782e-16)
(27.2435 6.43449 -8.85883e-16)
(27.8877 5.74672 6.59488e-16)
(28.3915 5.02604 2.4739e-20)
(28.7705 4.29206 4.32639e-16)
(29.038 3.55654 -1.10885e-20)
(29.204 2.82775 1.48427e-15)
(29.275 2.11221 0)
(29.2552 1.41652 -8.26313e-16)
(29.1471 0.748443 0)
(28.9541 0.118077 -1.99446e-16)
(28.6819 -0.463809 -1.84631e-20)
(28.3402 -0.986901 1.72636e-15)
(27.9615 -1.42936 0)
(27.5948 -1.77657 1.90506e-15)
(27.2602 -2.04446 2.11758e-20)
(26.9533 -2.25758 1.67473e-15)
(26.6666 -2.43155 -2.01903e-15)
(26.3956 -2.57522 -2.25175e-15)
(26.1375 -2.69356 1.38342e-16)
(25.8901 -2.78998 -3.06505e-21)
(25.6521 -2.86695 -1.32778e-15)
(25.4226 -2.92637 1.36307e-15)
(25.201 -2.96966 -1.55112e-16)
(24.9871 -2.99791 6.33543e-16)
(24.7808 -3.01197 3.22785e-16)
(24.5822 -3.0125 1.14882e-15)
(24.3918 -2.99998 -8.32832e-17)
(24.2099 -2.9748 4.21836e-16)
(24.0371 -2.9373 -8.53209e-17)
(23.8746 -2.88785 8.61486e-17)
(23.7236 -2.82706 3.47444e-16)
(23.5856 -2.75569 -1.74807e-16)
(23.4621 -2.67515 -4.39329e-17)
(23.3553 -2.58734 2.20341e-16)
(23.2646 -2.49436 1.54525e-16)
(23.195 -2.40029 1.10406e-16)
(23.1353 -2.30561 -8.87703e-17)
(17.5816 0.399771 5.97942e-17)
(17.6779 1.2818 -5.69252e-17)
(17.8142 2.15256 7.71894e-16)
(18.0223 3.06287 1.08459e-16)
(18.3479 4.00891 -6.41699e-16)
(18.8445 4.96762 2.11438e-16)
(19.5506 5.87302 6.32404e-16)
(20.4695 6.6459 1.04666e-15)
(21.5676 7.21001 4.17457e-16)
(22.7612 7.50823 1.24684e-15)
(23.9583 7.53248 -8.27975e-16)
(25.0806 7.31358 0)
(26.0758 6.90466 1.63764e-15)
(26.9208 6.36161 8.13098e-16)
(27.6144 5.73153 4.03333e-16)
(28.1657 5.04969 -1.9995e-15)
(28.5874 4.34103 0)
(28.8922 3.62159 3.92525e-16)
(29.0905 2.90265 -1.55443e-15)
(29.1895 2.19272 1.15301e-15)
(29.1945 1.49966 7.59221e-16)
(29.1089 0.831863 -3.74256e-16)
(28.9363 0.199698 -3.68133e-16)
(28.6828 -0.385926 0)
(28.3575 -0.914234 0)
(27.9923 -1.36222 0)
(27.6355 -1.71411 -1.93983e-16)
(27.3084 -1.98522 -1.9131e-20)
(27.0077 -2.20009 2.17949e-16)
(26.727 -2.37451 -9.15523e-21)
(26.4617 -2.5178 -8.30699e-21)
(26.2094 -2.63507 0)
(25.9681 -2.72994 7.77331e-16)
(25.7365 -2.80497 1.332e-15)
(25.5138 -2.86216 -1.09146e-15)
(25.2997 -2.90303 -1.11535e-15)
(25.0939 -2.92873 -5.68295e-16)
(24.8964 -2.94024 -1.44491e-16)
(24.7077 -2.93834 -4.39965e-16)
(24.5279 -2.92369 0)
(24.3578 -2.89695 7.51289e-17)
(24.1979 -2.85874 -7.58459e-17)
(24.0493 -2.80982 -2.29381e-16)
(23.9131 -2.75122 -3.84855e-16)
(23.7904 -2.68417 -1.93337e-16)
(23.6821 -2.61036 -1.11316e-21)
(23.5896 -2.53198 -1.16655e-16)
(23.5116 -2.4506 -1.55625e-16)
(23.4515 -2.37047 -7.77374e-17)
(23.4006 -2.29148 7.80507e-17)
(18.3146 0.34233 5.56054e-17)
(18.3984 1.10837 -5.30078e-17)
(18.5084 1.85466 -4.10902e-16)
(18.6677 2.6338 -2.0191e-16)
(18.9106 3.4483 3.97883e-16)
(19.2809 4.29046 1.96371e-16)
(19.8196 5.11861 -3.9092e-16)
(20.5479 5.87423 -7.75355e-16)
(21.4585 6.48677 -3.85929e-16)
(22.5043 6.89222 -7.68082e-16)
(23.6084 7.05413 7.64577e-16)
(24.6931 6.97518 0)
(25.6938 6.68873 -2.64448e-15)
(26.5706 6.24251 3.75159e-16)
(27.3083 5.6839 0)
(27.9068 5.05231 1.47502e-15)
(28.3735 4.37776 0)
(28.7191 3.68082 0)
(28.9532 2.97626 1.78929e-15)
(29.0837 2.27509 -7.07899e-16)
(29.1163 1.58677 -1.04947e-15)
(29.0553 0.920664 6.9058e-16)
(28.9049 0.287628 -3.40172e-16)
(28.6712 -0.301147 -2.80924e-20)
(28.3631 -0.834395 3.27456e-16)
(28.0116 -1.28783 3.35112e-16)
(27.6647 -1.64442 -7.14064e-16)
(27.3447 -1.91874 -1.13466e-15)
(27.0493 -2.13534 0)
(26.7738 -2.3101 -9.43031e-21)
(26.5132 -2.45282 1.7458e-15)
(26.2658 -2.56884 2.27008e-16)
(26.0296 -2.66194 -2.34774e-16)
(25.8035 -2.73483 9.62807e-16)
(25.5869 -2.78962 0)
(25.3793 -2.82794 2.00526e-15)
(25.1808 -2.85108 -3.8226e-16)
(24.9913 -2.86012 -2.58604e-16)
(24.8113 -2.85603 -6.56672e-21)
(24.6412 -2.83969 1.32414e-16)
(24.4816 -2.81199 0)
(24.3331 -2.77385 -2.69374e-16)
(24.1965 -2.72637 2.71065e-16)
(24.0727 -2.67087 0)
(23.9624 -2.60887 1.36607e-16)
(23.866 -2.54212 1.36894e-16)
(23.784 -2.4728 1.36915e-16)
(23.7149 -2.40204 1.19675e-16)
(23.661 -2.33389 8.52634e-18)
(23.6152 -2.2678 -5.9856e-17)
(18.983 0.29378 0)
(19.0572 0.961991 -1.97731e-16)
(19.1486 1.60359 0)
(19.2737 2.27128 0)
(19.4578 2.97024 3.7058e-16)
(19.7353 3.7014 -3.6552e-16)
(20.1433 4.44054 7.26602e-16)
(20.7099 5.14945 0)
(21.4461 5.77077 1.07411e-15)
(22.3317 6.24246 -7.12053e-16)
(23.3169 6.51528 3.54317e-16)
(24.3327 6.56677 -1.05619e-15)
(25.3119 6.4071 1.04955e-15)
(26.2022 6.06933 0)
(26.9739 5.59572 0)
(27.6157 5.02683 1.366e-15)
(28.1274 4.39657 0)
(28.5159 3.72997 3.34642e-16)
(28.7891 3.04559 -2.97937e-15)
(28.9544 2.35732 0)
(29.018 1.67666 0)
(28.9845 1.01425 -6.38844e-16)
(28.8587 0.381685 -3.14922e-16)
(28.6469 -0.209386 3.09813e-16)
(28.3575 -0.747112 -6.07724e-16)
(28.0209 -1.20582 -9.31294e-16)
(27.6843 -1.56711 -9.88262e-16)
(27.3717 -1.84465 6.95206e-16)
(27.0817 -2.06303 -1.45967e-15)
(26.8111 -2.23813 1.90715e-15)
(26.5551 -2.3802 0)
(26.3123 -2.49488 6.17464e-16)
(26.081 -2.58613 4.25204e-16)
(25.8602 -2.65683 -1.08786e-15)
(25.6493 -2.7092 8.86661e-16)
(25.448 -2.74502 -9.0151e-16)
(25.2564 -2.76572 -2.28596e-16)
(25.0746 -2.77256 2.3143e-16)
(24.9029 -2.76667 0)
(24.7419 -2.74916 -1.18003e-16)
(24.592 -2.72116 2.37729e-16)
(24.4537 -2.68385 -1.19541e-16)
(24.3277 -2.63857 0)
(24.2145 -2.58682 0)
(24.1143 -2.53027 -6.02835e-17)
(24.0268 -2.47042 6.02949e-17)
(23.9528 -2.40965 -1.204e-16)
(23.8898 -2.34842 -1.20057e-16)
(23.8398 -2.29037 0)
(23.7968 -2.23476 5.98436e-17)
(19.5927 0.252527 0)
(19.6593 0.837751 1.84565e-16)
(19.7372 1.39098 -3.57663e-16)
(19.8381 1.96423 -1.05331e-15)
(19.9806 2.56337 3.45433e-16)
(20.191 3.19359 -1.02131e-15)
(20.4999 3.84211 3.91234e-20)
(20.9355 4.48661 3.34661e-16)
(21.5188 5.08591 -6.65247e-16)
(22.2479 5.58586 -6.61111e-16)
(23.0981 5.93577 1.31572e-15)
(24.0188 6.09771 2.61457e-15)
(24.948 6.05982 6.49771e-16)
(25.8285 5.83657 -6.45139e-16)
(26.6192 5.45944 -1.32157e-19)
(27.296 4.96578 -2.53648e-15)
(27.8498 4.39104 -1.25633e-15)
(28.2815 3.76393 1.8648e-15)
(28.5959 3.10679 -9.48957e-20)
(28.7991 2.43669 0)
(28.8968 1.76752 -1.80075e-15)
(28.8941 1.11153 1.18518e-15)
(28.7958 0.481321 1.35401e-20)
(28.6083 -0.110785 2.04142e-20)
(28.34 -0.652265 -2.82287e-16)
(28.0199 -1.11589 1.15165e-15)
(27.6949 -1.48177 1.21701e-15)
(27.3902 -1.76257 1.59857e-15)
(27.1063 -1.98277 1.00296e-15)
(26.8408 -2.1583 1.39276e-15)
(26.5898 -2.29967 0)
(26.3517 -2.41302 -7.46667e-16)
(26.1255 -2.50243 1.15378e-15)
(25.9101 -2.57095 1.96702e-16)
(25.705 -2.621 -5.99531e-16)
(25.5102 -2.65449 0)
(25.3255 -2.67302 4.10097e-16)
(25.1513 -2.67802 -2.07122e-16)
(24.9878 -2.67083 -9.60572e-21)
(24.8356 -2.65276 -2.10283e-16)
(24.6948 -2.62514 0)
(24.566 -2.58935 2.86535e-21)
(24.4494 -2.54689 3.18999e-16)
(24.3451 -2.49933 -1.0644e-16)
(24.2532 -2.44829 -1.5955e-16)
(24.173 -2.3951 5.30915e-17)
(24.1048 -2.342 0)
(24.0463 -2.28918 0)
(23.9988 -2.23939 1.30812e-17)
(23.9574 -2.19232 -6.53777e-17)
(20.1487 0.217307 0)
(20.2092 0.731719 3.44491e-16)
(20.2769 1.21003 1.66904e-16)
(20.3606 1.70327 6.54858e-16)
(20.4736 2.21697 -6.43787e-16)
(20.6357 2.75801 6.34227e-16)
(20.8711 3.32056 0)
(21.2046 3.8933 0)
(21.66 4.4493 6.18288e-16)
(22.2476 4.94709 -6.14426e-16)
(22.959 5.33917 -2.44431e-15)
(23.7671 5.5841 -1.82176e-15)
(24.6208 5.65345 1.20755e-15)
(25.4661 5.54297 1.79866e-15)
(26.2555 5.26935 5.94834e-16)
(26.9547 4.86195 1.17927e-15)
(27.5441 4.35429 -1.16862e-15)
(28.0166 3.77687 7.01579e-20)
(28.3726 3.15524 1.71613e-15)
(28.6157 2.50972 -1.13077e-15)
(28.7504 1.85685 2.23351e-15)
(28.7815 1.21084 1.10218e-15)
(28.7138 0.585536 -5.43331e-16)
(28.5536 -0.00582181 -5.34861e-16)
(28.3088 -0.549933 7.87712e-16)
(28.0074 -1.01788 1.06896e-15)
(27.6957 -1.3881 7.70315e-21)
(27.4002 -1.67213 5.88236e-16)
(27.1233 -1.89414 0)
(26.8634 -2.07019 -3.17856e-16)
(26.6179 -2.21092 3.28608e-16)
(26.3852 -2.32298 -6.77206e-16)
(26.1644 -2.41062 -6.95541e-16)
(25.9548 -2.4771 -1.42256e-15)
(25.7559 -2.52501 0)
(25.5678 -2.55643 3.64446e-16)
(25.3903 -2.57315 -3.67834e-16)
(25.2238 -2.57679 -1.85332e-16)
(25.0686 -2.56885 -1.86473e-16)
(24.9248 -2.55083 3.74679e-16)
(24.7928 -2.52423 -1.87925e-16)
(24.6726 -2.49055 3.76486e-16)
(24.5644 -2.45134 -2.82463e-16)
(24.468 -2.40814 -9.40629e-17)
(24.3831 -2.36248 9.38158e-17)
(24.3087 -2.31554 -1.86946e-16)
(24.2451 -2.26917 0)
(24.19 -2.2236 -9.23392e-17)
(24.1441 -2.18066 0)
(24.1038 -2.14045 4.56776e-17)
(20.6556 0.187105 8.41519e-17)
(20.7108 0.640749 -1.60714e-16)
(20.7709 1.05528 3.11247e-16)
(20.842 1.48062 0)
(20.9339 1.92151 5.99596e-16)
(21.0613 2.38511 5.90278e-16)
(21.2428 2.86958 -5.84999e-16)
(21.4989 3.37054 -1.15716e-15)
(21.8517 3.87176 -1.14898e-15)
(22.3172 4.34434 0)
(22.8996 4.74952 1.13511e-15)
(23.586 5.04645 0)
(24.346 5.20089 5.61199e-16)
(25.1321 5.19288 -5.57307e-16)
(25.8977 5.02332 -5.53317e-16)
(26.602 4.70969 1.03635e-19)
(27.2161 4.27954 8.65611e-20)
(27.7241 3.76239 5.38596e-16)
(28.12 3.18557 -5.32755e-16)
(28.4035 2.57218 2.10709e-15)
(28.5771 1.94149 -1.5609e-15)
(28.6446 1.30991 0)
(28.6104 0.692813 0)
(28.4804 0.104607 -4.98093e-16)
(28.2621 -0.440515 1.22241e-16)
(27.982 -0.911841 1.07845e-20)
(27.6856 -1.28593 -1.03938e-15)
(27.4008 -1.57304 7.79054e-21)
(27.132 -1.79682 -5.61466e-16)
(26.8787 -1.97347 5.80439e-16)
(26.6394 -2.11366 -8.96901e-16)
(26.4127 -2.2245 3.07103e-16)
(26.1979 -2.31051 0)
(25.9946 -2.37515 3.21112e-16)
(25.8025 -2.42118 -6.49648e-16)
(25.6214 -2.45089 -8.50199e-21)
(25.4516 -2.46624 6.59813e-16)
(25.293 -2.46902 3.31673e-16)
(25.1459 -2.46091 -1.66484e-16)
(25.0105 -2.44354 1.66885e-16)
(24.8868 -2.4185 1.67062e-16)
(24.7746 -2.38738 -1.67003e-16)
(24.674 -2.35169 -1.66725e-16)
(24.5844 -2.31284 2.49349e-16)
(24.5054 -2.27231 1.82209e-21)
(24.4361 -2.2311 8.22734e-17)
(24.3762 -2.19063 -4.0831e-17)
(24.3238 -2.15116 4.04802e-17)
(24.2794 -2.11393 1.00165e-17)
(24.2399 -2.07923 -4.98514e-17)
(21.1172 0.161109 -7.84788e-17)
(21.168 0.562306 2.99628e-16)
(21.2219 0.922285 -5.80029e-16)
(21.2837 1.28987 0)
(21.3604 1.66881 5.57737e-16)
(21.4626 2.06583 -1.09767e-15)
(21.6049 2.48129 5.43473e-16)
(21.8031 2.9148 1.61195e-15)
(22.0763 3.35742 5.33353e-16)
(22.4412 3.79047 2.11823e-15)
(22.909 4.18539 -2.10669e-15)
(23.4786 4.50697 0)
(24.1335 4.71991 -5.70728e-20)
(24.842 4.79663 -1.03585e-15)
(25.5617 4.72405 -1.02887e-15)
(26.2512 4.50625 0)
(26.8751 4.16124 0)
(27.4095 3.71416 1.00306e-15)
(27.8408 3.19187 -9.92762e-16)
(28.1633 2.61911 -9.8188e-16)
(28.3764 2.01752 0)
(28.4821 1.4058 -9.57429e-16)
(28.4838 0.801056 1.41546e-15)
(28.3869 0.219118 -4.64284e-16)
(28.1979 -0.324805 5.69729e-16)
(27.9419 -0.798129 -4.61307e-16)
(27.6631 -1.17532 -9.60956e-16)
(27.3906 -1.46519 -4.98136e-16)
(27.1314 -1.69063 -1.02914e-15)
(26.8859 -1.86789 0)
(26.6537 -2.00769 0)
(26.4338 -2.11741 0)
(26.2259 -2.20199 0)
(26.0295 -2.26504 5.79075e-16)
(25.8446 -2.30954 0)
(25.6711 -2.33795 2.94615e-16)
(25.5091 -2.35242 6.3333e-21)
(25.3585 -2.35488 -2.96777e-16)
(25.2196 -2.34715 -2.97275e-16)
(25.0923 -2.33096 -3.8794e-21)
(24.9765 -2.30795 2.97044e-16)
(24.8719 -2.27969 -2.96334e-16)
(24.7781 -2.24761 0)
(24.6946 -2.21306 1.46905e-16)
(24.6209 -2.17731 0)
(24.5558 -2.14123 -7.24252e-17)
(24.4991 -2.1059 0)
(24.4492 -2.07159 -7.09986e-17)
(24.4062 -2.03914 -5.26043e-17)
(24.3677 -2.00894 -1.74121e-17)
(21.5373 0.138662 -1.46219e-16)
(21.584 0.494341 7.52992e-21)
(21.633 0.807463 5.3976e-16)
(21.6876 1.12575 -5.28067e-16)
(21.753 1.45195 -5.18171e-16)
(21.837 1.79207 -1.01917e-15)
(21.9505 2.14751 0)
(22.1059 2.52006 -9.96628e-16)
(22.3185 2.90534 9.88553e-16)
(22.6036 3.2921 -5.95537e-20)
(22.9746 3.66076 2.36688e-21)
(23.438 3.98424 0)
(23.9882 4.23034 9.6585e-16)
(24.6067 4.36935 -9.60843e-16)
(25.2625 4.3797 1.90985e-15)
(25.917 4.25316 -9.48595e-16)
(26.5331 3.99634 0)
(27.0809 3.62686 9.33119e-16)
(27.5397 3.16823 -1.84839e-15)
(27.8974 2.64503 -1.34277e-20)
(28.149 2.08035 4.92251e-20)
(28.2936 1.49488 2.09145e-20)
(28.333 0.907546 8.79801e-16)
(28.2715 0.335773 8.65764e-16)
(28.1147 -0.204062 1.06222e-16)
(27.8854 -0.677474 0)
(27.6266 -1.05665 -4.44269e-16)
(27.3686 -1.34872 4.58402e-16)
(27.1205 -1.57561 -7.02122e-21)
(26.8842 -1.75337 0)
(26.66 -1.89297 -4.94967e-16)
(26.448 -2.00171 1.01021e-15)
(26.2476 -2.08507 -1.54232e-15)
(26.0589 -2.14686 5.22017e-16)
(25.8818 -2.19021 2.63981e-16)
(25.7163 -2.21779 -2.64909e-16)
(25.5624 -2.23187 0)
(25.42 -2.23455 6.13217e-21)
(25.2892 -2.22772 -5.30883e-16)
(25.1698 -2.21317 2.77953e-21)
(25.0615 -2.19254 -1.32074e-16)
(24.9638 -2.16731 -7.68054e-22)
(24.8764 -2.13888 1.30766e-16)
(24.7984 -2.10846 0)
(24.7294 -2.07713 0)
(24.6682 -2.04564 1.29966e-21)
(24.6145 -2.01481 0)
(24.5669 -1.98491 6.2315e-17)
(24.5253 -1.95652 7.68127e-17)
(24.488 -1.93008 -1.52151e-17)
(21.9189 0.11923 0)
(21.9621 0.43519 1.29771e-16)
(22.0068 0.707892 -5.0163e-16)
(22.0558 0.983963 9.80557e-16)
(22.1127 1.2652 4.80693e-16)
(22.1832 1.55678 5.68449e-20)
(22.2756 1.86055 3.19051e-20)
(22.3993 2.17931 1.84558e-15)
(22.5662 2.5114 -9.14961e-16)
(22.7895 2.85051 -9.08131e-16)
(23.0819 3.18403 -3.55194e-20)
(23.4535 3.49266 -8.97863e-16)
(23.9064 3.75033 8.93723e-16)
(24.4319 3.92865 -8.89497e-16)
(25.0111 4.00308 -8.84713e-16)
(25.6134 3.95673 8.79276e-16)
(26.2035 3.78539 -1.74688e-15)
(26.7492 3.49719 -1.73281e-15)
(27.2242 3.10952 2.5764e-15)
(27.6104 2.6444 -8.50361e-16)
(27.8972 2.12485 0)
(28.0799 1.57286 0)
(28.1577 1.00889 -1.63879e-15)
(28.1334 0.452031 -4.03315e-16)
(28.0112 -0.0800794 4.94822e-16)
(27.8113 -0.551065 -7.96837e-16)
(27.575 -0.930688 2.05298e-15)
(27.3335 -1.2241 -4.21656e-16)
(27.0982 -1.45204 -7.38676e-21)
(26.8725 -1.6302 -4.41562e-16)
(26.6577 -1.76955 1.35053e-15)
(26.4543 -1.87765 4.57982e-16)
(26.2625 -1.95999 -4.64717e-16)
(26.0822 -2.02083 4.70566e-16)
(25.9134 -2.06345 -2.37627e-16)
(25.7562 -2.09067 -4.76427e-16)
(25.6107 -2.10489 7.14339e-16)
(25.4765 -2.10829 -7.13224e-16)
(25.3538 -2.10283 9.48401e-16)
(25.242 -2.09028 -2.36187e-16)
(25.1409 -2.07227 2.35002e-16)
(25.0498 -2.05021 1.16774e-16)
(24.9682 -2.02541 0)
(24.8953 -1.99891 -1.1492e-16)
(24.8306 -1.97164 1.1377e-16)
(24.7731 -1.94426 1.00537e-21)
(24.7222 -1.91741 0)
(24.6769 -1.89134 0)
(24.6369 -1.8665 4.04346e-17)
(24.601 -1.84329 1.33123e-17)
(22.2652 0.102376 2.52905e-16)
(22.305 0.383496 -3.61565e-16)
(22.346 0.621193 -4.65507e-16)
(22.3904 0.860971 -4.54483e-16)
(22.4406 1.10377 -2.34121e-20)
(22.501 1.35397 3.86271e-20)
(22.5777 1.61352 0)
(22.6778 1.88555 -1.70605e-15)
(22.8106 2.1699 8.45355e-16)
(22.9865 2.46341 8.38717e-16)