/*--------------------------------*- C++ -*----------------------------------*\
  =========                 |
  \\      /  F ield         | OpenFOAM: The Open Source CFD Toolbox
   \\    /   O peration     | Website:  https://openfoam.org
    \\  /    A nd           | Version:  8
     \\/     M anipulation  |
\*---------------------------------------------------------------------------*/
FoamFile
{
    version     2.0;
    format      ascii;
    class       volVectorField;
    location    "0.05";
    object      U;
}
// * * * * * * * * * * * * * * * * * * * * * * * * * * * * * * * * * * * * * //

dimensions      [0 1 -1 0 0 0 0];

internalField   nonuniform List<vector> 
115664
(
(14.9998 2.22509e-06 -5.54279e-21)
(14.9996 1.37536e-05 -1.93407e-20)
(14.9996 1.61644e-05 -5.18585e-20)
(14.9996 2.405e-05 9.18881e-21)
(14.9996 3.21318e-05 1.03395e-19)
(14.9995 4.07248e-05 -7.37077e-20)
(14.9995 4.86942e-05 -2.10346e-21)
(14.9995 5.70444e-05 1.70182e-20)
(14.9995 6.52493e-05 4.38816e-20)
(14.9995 7.40402e-05 -6.01413e-20)
(14.9995 8.22141e-05 -1.373e-21)
(14.9995 9.0647e-05 7.89781e-20)
(14.9995 9.96021e-05 4.60613e-20)
(14.9995 0.000108142 4.39758e-20)
(14.9995 0.000117189 3.60403e-20)
(14.9995 0.000125742 5.5797e-20)
(14.9995 0.000134549 -3.89124e-20)
(14.9995 0.000143936 6.45312e-20)
(14.9995 0.000152668 -4.52654e-20)
(14.9995 0.000161514 -6.39598e-20)
(14.9995 0.000170311 -1.09926e-19)
(14.9995 0.000179547 -4.49535e-20)
(14.9995 0.000188166 -4.47393e-20)
(14.9995 0.000197289 -2.48219e-20)
(14.9995 0.000205915 2.06072e-20)
(14.9995 0.000215131 4.41604e-20)
(14.9995 0.000223892 -6.74593e-20)
(14.9995 0.000232561 8.78639e-20)
(14.9995 0.000241463 -5.92934e-22)
(14.9995 0.000250232 4.36004e-20)
(14.9995 0.00025914 4.22069e-20)
(14.9995 0.00026761 5.08099e-22)
(14.9995 0.00027618 4.15493e-20)
(14.9995 0.00028482 4.21134e-20)
(14.9995 0.000292857 -4.17007e-20)
(14.9995 0.000301353 4.6023e-22)
(14.9995 0.000309487 -6.29698e-20)
(14.9995 0.000317663 3.99414e-20)
(14.9995 0.000326157 -1.70018e-20)
(14.9995 0.000333927 7.8485e-20)
(14.9995 0.000342101 -7.75024e-20)
(14.9995 0.00034987 6.1327e-20)
(14.9995 0.000357381 1.45014e-20)
(14.9996 0.000365014 -3.59102e-22)
(14.9996 0.000372671 3.68312e-20)
(14.9996 0.00037992 1.21722e-20)
(14.9996 0.000387565 3.54115e-20)
(14.9996 0.000394857 -5.85898e-20)
(14.9996 0.000401665 -3.46481e-20)
(14.9996 0.000408846 8.19344e-20)
(14.9996 0.000415575 2.43386e-20)
(14.9996 0.000422484 6.5165e-20)
(14.9996 0.000429028 6.40291e-20)
(14.9996 0.000435848 -2.44036e-20)
(14.9996 0.000442199 -2.47683e-20)
(14.9996 0.000448409 -3.01975e-20)
(14.9996 0.000454582 -5.91952e-20)
(14.9996 0.000460802 2.47912e-20)
(14.9996 0.000466515 2.85919e-20)
(14.9997 0.000472504 -2.79555e-20)
(14.9997 0.000478257 2.73374e-20)
(14.9997 0.000483532 -2.01827e-22)
(14.9997 0.000489114 2.60351e-20)
(14.9997 0.000494332 -2.03517e-22)
(14.9997 0.000499595 2.47216e-20)
(14.9997 0.000504719 -4.96116e-20)
(14.9997 0.000509462 0)
(14.9997 0.000514577 -2.25875e-20)
(14.9997 0.000519235 2.19404e-20)
(14.9997 0.00052371 2.12683e-20)
(14.9997 0.000528066 4.65296e-20)
(14.9997 0.000532298 -2.58354e-20)
(14.9998 0.000536325 -3.87963e-20)
(14.9998 0.000540247 4.49853e-20)
(14.9998 0.000544314 -5.25788e-20)
(14.9998 0.000548077 2.61157e-20)
(14.9998 0.000551388 5.96912e-20)
(14.9998 0.000555134 -1.06731e-20)
(14.9998 0.000558358 0)
(14.9998 0.000561532 0)
(14.9998 0.000564341 0)
(14.9998 0.00056738 -1.31214e-20)
(14.9998 0.000570164 0)
(14.9998 0.000572922 -1.50563e-20)
(14.9999 0.000575244 5.35561e-20)
(14.9999 0.000577453 2.08995e-20)
(14.9999 0.000579874 -9.06835e-20)
(14.9999 0.000581834 1.80518e-20)
(14.9999 0.000583759 1.887e-20)
(14.9999 0.000585516 -2.70892e-20)
(14.9999 0.00058727 -6.86621e-21)
(14.9999 0.000588882 6.16129e-21)
(14.9999 0.000590177 5.37482e-21)
(14.9999 0.000591366 4.99394e-20)
(14.9999 0.000592338 5.8681e-20)
(15 0.000593305 -2.41041e-20)
(15 0.000594019 -5.48644e-20)
(15 0.000594759 0)
(15 0.000595178 1.0799e-21)
(15 0.000595515 2.7541e-20)
(15 0.000595738 -3.52847e-22)
(15 0.000595848 -2.64397e-20)
(15 0.000595874 0)
(15 0.000595579 5.50056e-20)
(15 0.000595309 -1.30468e-20)
(15.0001 0.000594785 -2.34415e-20)
(15.0001 0.000594256 -9.44269e-21)
(15.0001 0.000593507 -2.74099e-20)
(15.0001 0.000592651 -3.35696e-20)
(15.0001 0.000591474 1.37859e-20)
(15.0001 0.000590153 7.52164e-21)
(15.0001 0.000588827 2.73949e-20)
(15.0001 0.000587331 -9.15275e-21)
(15.0001 0.000585797 2.74455e-20)
(15.0001 0.000583795 -2.1114e-20)
(15.0001 0.000582006 -1.5799e-20)
(15.0002 0.0005801 -3.92658e-20)
(15.0002 0.00057775 1.28552e-20)
(15.0002 0.000575371 6.77991e-20)
(15.0002 0.000572731 -4.10996e-20)
(15.0002 0.000570322 -2.69443e-20)
(15.0002 0.000567539 3.08807e-20)
(15.0002 0.000564701 2.69976e-20)
(15.0002 0.00056133 9.96397e-21)
(15.0002 0.000558398 -8.89362e-20)
(15.0002 0.000555 1.85215e-20)
(15.0002 0.000551291 7.56767e-21)
(15.0003 0.000547724 -5.33652e-20)
(15.0003 0.000544046 6.76321e-20)
(15.0003 0.000540155 5.29933e-21)
(15.0003 0.000536132 -2.64603e-20)
(15.0003 0.000531982 -1.83576e-20)
(15.0003 0.00052764 4.95113e-20)
(15.0003 0.000522824 -5.02924e-20)
(15.0003 0.000518386 2.28691e-20)
(15.0003 0.000513549 2.63403e-20)
(15.0003 0.000508564 2.60687e-20)
(15.0003 0.00050362 -5.28164e-20)
(15.0003 0.000498294 -7.93519e-20)
(15.0004 0.00049328 2.53616e-22)
(15.0004 0.000487766 2.58165e-20)
(15.0004 0.000482001 0)
(15.0004 0.000476514 2.9958e-20)
(15.0004 0.000470496 0)
(15.0004 0.000464519 -2.57429e-20)
(15.0004 0.000458497 3.22426e-20)
(15.0004 0.000452321 -7.28485e-21)
(15.0004 0.00044565 3.32576e-20)
(15.0004 0.000439257 2.54254e-20)
(15.0004 0.000432476 -6.93174e-20)
(15.0004 0.000425874 -1.50287e-20)
(15.0004 0.000418791 1.09662e-20)
(15.0004 0.000412089 6.15029e-20)
(15.0005 0.000404872 -1.23577e-20)
(15.0005 0.000397276 0)
(15.0005 0.000390084 1.34199e-20)
(15.0005 0.000382455 6.38406e-20)
(15.0005 0.000374839 6.31219e-20)
(15.0005 0.000367342 -6.40204e-20)
(15.0005 0.000359562 1.61499e-20)
(15.0005 0.000351344 4.24612e-22)
(15.0005 0.00034354 2.36915e-20)
(15.0005 0.000334961 -2.39757e-20)
(15.0005 0.000326703 4.82308e-20)
(15.0005 0.000318478 2.91355e-21)
(15.0005 0.000309856 -9.03729e-20)
(15.0005 0.000301706 -2.29699e-20)
(15.0005 0.000292904 -2.12661e-20)
(15.0005 0.00028416 -5.39766e-22)
(15.0005 0.000275509 5.95507e-22)
(15.0005 0.000266376 2.23429e-20)
(15.0005 0.000257374 7.35392e-25)
(15.0005 0.000248213 -1.38387e-19)
(15.0005 0.000239285 7.27962e-20)
(15.0005 0.000230241 -7.29887e-20)
(15.0005 0.000220691 6.9693e-20)
(15.0005 0.000211756 -7.05338e-20)
(15.0005 0.000202267 6.17741e-21)
(15.0005 0.000193301 7.00366e-20)
(15.0005 0.000183649 -6.62236e-21)
(15.0005 0.00017445 -4.96731e-20)
(15.0005 0.000165176 4.99318e-20)
(15.0005 0.000156003 1.98842e-20)
(15.0005 0.000146096 -2.85646e-20)
(15.0005 0.000136794 -1.19864e-19)
(15.0005 0.000127744 6.02875e-20)
(15.0005 0.000118129 -4.92958e-20)
(15.0005 0.000109043 2.9313e-20)
(15.0005 9.94734e-05 6.99644e-20)
(15.0005 9.04504e-05 -3.2506e-20)
(15.0005 8.16891e-05 1.19634e-20)
(15.0005 7.22247e-05 5.04051e-20)
(15.0005 6.33921e-05 -6.91914e-20)
(15.0005 5.43828e-05 5.2688e-20)
(15.0005 4.58115e-05 3.18426e-20)
(15.0005 3.65345e-05 6.55669e-20)
(15.0005 2.77203e-05 -5.02237e-20)
(15.0005 1.91162e-05 -5.85622e-20)
(15.0005 1.51593e-05 6.47407e-20)
(15.0003 2.49816e-06 -5.60301e-20)
(14.9988 3.68298e-06 2.87498e-20)
(14.9987 1.91058e-05 -4.84107e-20)
(14.9987 6.16772e-05 -7.71183e-21)
(14.9987 8.00173e-05 -7.4706e-20)
(14.9987 9.99723e-05 6.97996e-20)
(14.9986 0.0001193 -3.76042e-20)
(14.9986 0.000139617 -6.1539e-20)
(14.9986 0.000161844 1.84534e-21)
(14.9986 0.000184527 1.39577e-20)
(14.9986 0.000208815 2.7889e-21)
(14.9986 0.000232948 -3.51993e-20)
(14.9986 0.000257665 1.67933e-20)
(14.9985 0.000283182 4.6112e-20)
(14.9985 0.000308541 -2.86224e-20)
(14.9985 0.000334955 1.09694e-19)
(14.9985 0.000360863 9.02518e-21)
(14.9985 0.000387275 -6.41779e-20)
(14.9985 0.000414439 -8.48778e-21)
(14.9985 0.000440953 3.87012e-20)
(14.9985 0.000467804 -1.62087e-22)
(14.9985 0.000494521 -1.923e-20)
(14.9985 0.000521953 -6.52246e-20)
(14.9985 0.000548517 -4.50883e-20)
(14.9985 0.00057576 -1.36302e-22)
(14.9985 0.000602318 -1.99591e-20)
(14.9985 0.000629632 3.98649e-20)
(14.9985 0.000656495 1.6382e-21)
(14.9985 0.000683214 1.16971e-21)
(14.9985 0.000709913 -2.22904e-20)
(14.9985 0.000736465 -2.09191e-20)
(14.9985 0.000763059 2.0705e-20)
(14.9985 0.00078914 1.05856e-21)
(14.9985 0.000815385 -6.47506e-20)
(14.9985 0.000841511 1.69932e-19)
(14.9985 0.000866789 2.23135e-20)
(14.9986 0.00089251 4.11937e-20)
(14.9986 0.000917462 -4.45759e-20)
(14.9986 0.000942467 -7.84561e-22)
(14.9986 0.000967872 4.07134e-20)
(14.9986 0.000992049 1.00803e-19)
(14.9986 0.00101674 6.29795e-20)
(14.9986 0.00104063 -8.26028e-21)
(14.9986 0.00106411 3.80502e-20)
(14.9986 0.00108752 0)
(14.9987 0.00111079 1.35762e-20)
(14.9987 0.00113339 -2.3888e-20)
(14.9987 0.00115638 8.33284e-20)
(14.9987 0.00117846 -4.62191e-20)
(14.9987 0.00119983 -8.30645e-20)
(14.9987 0.0012216 2.38081e-20)
(14.9988 0.00124276 3.42372e-20)
(14.9988 0.00126364 1.69787e-20)
(14.9988 0.00128385 1.13879e-19)
(14.9988 0.00130446 5.70152e-20)
(14.9988 0.00132406 -2.65394e-22)
(14.9989 0.00134339 1.91102e-20)
(14.9989 0.00136251 -2.46994e-20)
(14.9989 0.00138121 -5.05009e-20)
(14.9989 0.0013992 8.27853e-20)
(14.9989 0.0014174 5.66049e-20)
(14.999 0.00143486 2.07627e-21)
(14.999 0.00145166 0)
(14.999 0.00146864 2.63189e-20)
(14.999 0.00148485 -2.56468e-20)
(14.9991 0.00150084 5.06688e-20)
(14.9991 0.00151637 1.45795e-22)
(14.9991 0.00153148 -1.86242e-22)
(14.9991 0.00154659 -4.87542e-20)
(14.9992 0.00156089 -5.23558e-20)
(14.9992 0.00157475 1.09388e-23)
(14.9992 0.00158814 5.23592e-20)
(14.9992 0.00160136 5.28312e-20)
(14.9993 0.00161398 -2.64016e-20)
(14.9993 0.00162606 1.1356e-20)
(14.9993 0.00163824 -2.64863e-20)
(14.9993 0.00164972 -4.42828e-20)
(14.9994 0.00166048 1.69302e-20)
(14.9994 0.00167153 2.67236e-20)
(14.9994 0.00168161 4.24106e-20)
(14.9994 0.00169135 -1.48085e-20)
(14.9995 0.00170037 4.10475e-20)
(14.9995 0.00170944 1.34964e-20)
(14.9995 0.00171798 -6.68791e-20)
(14.9995 0.00172623 -2.71913e-20)
(14.9996 0.0017336 2.71716e-20)
(14.9996 0.00174066 4.84696e-20)
(14.9996 0.00174763 -6.19874e-24)
(14.9996 0.00175399 2.73505e-20)
(14.9997 0.00175982 6.72052e-23)
(14.9997 0.00176525 -3.51968e-20)
(14.9997 0.00177062 -3.44773e-20)
(14.9998 0.00177524 -6.13747e-20)
(14.9998 0.00177927 4.95883e-20)
(14.9998 0.00178288 5.5331e-20)
(14.9998 0.00178613 1.21897e-20)
(14.9999 0.00178928 1.00302e-20)
(14.9999 0.00179157 -3.04191e-20)
(14.9999 0.00179371 -2.78281e-20)
(15 0.00179497 -8.90341e-24)
(15 0.00179604 2.7511e-20)
(15 0.00179672 2.75551e-20)
(15 0.00179702 -8.58951e-24)
(15.0001 0.00179712 -2.78764e-20)
(15.0001 0.00179634 -5.5773e-20)
(15.0001 0.00179541 2.12814e-20)
(15.0002 0.00179362 2.37016e-20)
(15.0002 0.00179172 -3.25148e-20)
(15.0002 0.00178945 -5.18133e-23)
(15.0002 0.00178677 2.154e-20)
(15.0003 0.00178348 5.53971e-20)
(15.0003 0.00177943 -6.31446e-20)
(15.0003 0.00177532 -2.75369e-20)
(15.0004 0.0017708 -5.22245e-23)
(15.0004 0.00176574 9.98818e-21)
(15.0004 0.00176006 6.21017e-21)
(15.0004 0.00175428 2.27622e-20)
(15.0005 0.00174818 -2.75492e-20)
(15.0005 0.00174117 1.29217e-20)
(15.0005 0.00173388 2.47671e-22)
(15.0005 0.00172602 -1.42981e-20)
(15.0006 0.00171821 6.97889e-20)
(15.0006 0.00170967 -2.15689e-22)
(15.0006 0.00170077 -5.43675e-20)
(15.0007 0.00169087 -4.44505e-20)
(15.0007 0.00168125 9.70478e-23)
(15.0007 0.00167089 6.42074e-20)
(15.0007 0.0016598 -1.93288e-20)
(15.0008 0.00164881 2.70916e-20)
(15.0008 0.00163724 4.13642e-20)
(15.0008 0.00162505 -4.82271e-20)
(15.0008 0.00161267 -5.37975e-20)
(15.0009 0.00159979 7.68429e-20)
(15.0009 0.00158645 5.28067e-20)
(15.0009 0.00157226 -2.3906e-20)
(15.0009 0.00155806 -2.99037e-22)
(15.001 0.0015434 -5.17122e-22)
(15.001 0.00152827 -2.65746e-20)
(15.001 0.00151287 -7.98289e-20)
(15.001 0.00149667 1.51149e-21)
(15.0011 0.00148064 8.31387e-20)
(15.0011 0.0014639 5.50994e-20)
(15.0011 0.00144638 -3.57289e-21)
(15.0011 0.00142905 -2.38401e-22)
(15.0012 0.00141097 5.33371e-21)
(15.0012 0.00139243 0)
(15.0012 0.00137364 6.60321e-21)
(15.0012 0.00135456 2.60593e-20)
(15.0012 0.0013344 2.51395e-20)
(15.0013 0.00131462 -5.09419e-20)
(15.0013 0.00129413 -9.27753e-21)
(15.0013 0.00127331 2.48146e-20)
(15.0013 0.00125183 1.13231e-20)
(15.0013 0.00123074 4.85625e-20)
(15.0014 0.00120887 -3.71668e-20)
(15.0014 0.00118603 4.97087e-20)
(15.0014 0.00116356 -3.8964e-20)
(15.0014 0.00114036 6.45871e-20)
(15.0014 0.00111697 -6.53399e-20)
(15.0014 0.00109348 1.69778e-20)
(15.0015 0.00106952 4.01761e-20)
(15.0015 0.00104468 5.94936e-20)
(15.0015 0.00102034 2.37717e-20)
(15.0015 0.000994673 1.84481e-20)
(15.0015 0.000969385 2.44594e-20)
(15.0015 0.00094411 2.27664e-20)
(15.0015 0.00091798 -6.73273e-20)
(15.0016 0.000892275 -6.80465e-20)
(15.0016 0.000865626 2.38229e-20)
(15.0016 0.000838803 -2.31884e-20)
(15.0016 0.000812107 5.76802e-22)
(15.0016 0.000784815 -2.38135e-20)
(15.0016 0.000757516 -1.38776e-19)
(15.0016 0.000730008 1.04408e-21)
(15.0016 0.000702422 7.09497e-20)
(15.0016 0.000674627 4.92586e-20)
(15.0016 0.000646289 4.22579e-20)
(15.0016 0.000618701 -1.17647e-19)
(15.0016 0.000590315 4.85191e-20)
(15.0016 0.000562597 2.71118e-20)
(15.0016 0.000533873 4.95172e-20)
(15.0016 0.000505852 4.13994e-20)
(15.0016 0.000477613 -2.87994e-20)
(15.0016 0.000449661 -2.08371e-20)
(15.0016 0.000420925 -6.89208e-20)
(15.0016 0.000392921 -5.79625e-20)
(15.0016 0.00036538 -2.21573e-20)
(15.0016 0.000337191 -6.56474e-20)
(15.0016 0.000310045 1.73427e-20)
(15.0016 0.000282627 -1.79776e-20)
(15.0016 0.000255959 1.91455e-20)
(15.0016 0.000229787 -1.42379e-21)
(15.0016 0.000203275 -3.58912e-20)
(15.0015 0.000178315 3.10078e-20)
(15.0015 0.000153619 1.14136e-19)
(15.0015 0.000130638 -1.29148e-20)
(15.0015 0.000108431 -3.06959e-21)
(15.0015 8.5598e-05 -8.07028e-20)
(15.0015 6.47272e-05 7.05941e-20)
(15.0014 2.31045e-05 -1.81158e-20)
(15.0013 4.43158e-06 -1.07332e-19)
(14.998 1.28624e-06 4.63232e-20)
(14.9979 1.5065e-06 7.83838e-21)
(14.9979 7.94133e-05 2.33559e-20)
(14.9978 0.00011355 -4.08796e-20)
(14.9978 0.00014966 -2.7845e-20)
(14.9978 0.000182624 8.59549e-20)
(14.9977 0.000217735 -1.70052e-20)
(14.9977 0.000254781 0)
(14.9977 0.000292699 -8.7002e-20)
(14.9976 0.000332765 1.1545e-19)
(14.9976 0.00037333 -8.94823e-20)
(14.9976 0.000414896 1.76749e-20)
(14.9976 0.000456977 1.68215e-20)
(14.9976 0.000499408 -6.13114e-20)
(14.9975 0.000543286 4.32479e-20)
(14.9975 0.000586848 1.96205e-20)
(14.9975 0.000630924 -9.14843e-20)
(14.9975 0.000675846 -8.99187e-20)
(14.9975 0.000720294 2.6051e-20)
(14.9975 0.000765254 2.65371e-20)
(14.9975 0.000810284 8.99268e-20)
(14.9975 0.000855777 2.01014e-20)
(14.9975 0.000900857 2.54806e-20)
(14.9975 0.0009464 -4.5507e-20)
(14.9975 0.000991208 2.07014e-20)
(14.9975 0.00103668 -8.92787e-20)
(14.9975 0.00108185 8.89794e-20)
(14.9975 0.00112666 2.0617e-20)
(14.9975 0.00117135 2.13929e-20)
(14.9975 0.00121603 -2.11852e-20)
(14.9975 0.00126043 -4.39906e-20)
(14.9975 0.00130455 6.50557e-20)
(14.9975 0.00134868 -1.07883e-19)
(14.9975 0.00139253 -6.56467e-20)
(14.9976 0.00143544 8.70109e-20)
(14.9976 0.00147876 8.31827e-20)
(14.9976 0.00152099 4.12209e-20)
(14.9976 0.0015631 -2.26405e-20)
(14.9976 0.00160545 1.7347e-20)
(14.9976 0.00164654 -7.97062e-20)
(14.9977 0.00168769 1.02051e-19)
(14.9977 0.00172825 2.35652e-20)
(14.9977 0.00176809 3.84048e-20)
(14.9977 0.00180794 3.79372e-20)
(14.9978 0.0018472 0)
(14.9978 0.00188545 -2.38247e-20)
(14.9978 0.00192385 1.10924e-20)
(14.9978 0.00196128 6.07726e-20)
(14.9979 0.00199794 -4.90291e-20)
(14.9979 0.00203449 -3.47666e-20)
(14.9979 0.00207043 4.38828e-20)
(14.998 0.00210596 -5.84223e-20)
(14.998 0.00214016 -4.1307e-20)
(14.998 0.00217467 8.98597e-20)
(14.9981 0.00220808 2.49332e-20)
(14.9981 0.00224111 3.14764e-20)
(14.9981 0.00227329 6.63553e-20)
(14.9982 0.00230497 4.68609e-21)
(14.9982 0.00233587 -5.09636e-20)
(14.9982 0.00236645 5.40432e-20)
(14.9983 0.00239615 7.97023e-20)
(14.9983 0.00242489 2.74063e-20)
(14.9983 0.00245349 2.57578e-20)
(14.9984 0.00248129 1.82803e-22)
(14.9984 0.00250833 -7.71102e-20)
(14.9985 0.00253464 4.96229e-20)
(14.9985 0.00256042 2.61309e-20)
(14.9985 0.00258564 2.36242e-20)
(14.9986 0.00260997 -4.93217e-20)
(14.9986 0.00263356 -3.12689e-23)
(14.9987 0.00265648 5.06126e-21)
(14.9987 0.002679 -2.63998e-20)
(14.9987 0.00270069 -3.3547e-20)
(14.9988 0.0027213 4.61069e-20)
(14.9988 0.00274151 4.55998e-20)
(14.9989 0.00276121 -1.79729e-20)
(14.9989 0.00277996 -1.7272e-20)
(14.999 0.00279815 -6.01228e-20)
(14.999 0.00281541 1.11653e-20)
(14.999 0.00283211 -1.48797e-20)
(14.9991 0.00284764 -5.46569e-20)
(14.9991 0.00286296 6.83269e-20)
(14.9992 0.00287751 1.58264e-21)
(14.9992 0.00289143 -5.49874e-20)
(14.9993 0.00290404 -9.1087e-23)
(14.9993 0.00291623 6.66984e-23)
(14.9994 0.00292787 -3.77757e-20)
(14.9994 0.00293883 2.76752e-20)
(14.9995 0.00294887 4.69136e-20)
(14.9995 0.00295817 7.94811e-21)
(14.9995 0.00296694 7.10084e-21)
(14.9996 0.00297469 3.68556e-23)
(14.9996 0.00298174 -3.36617e-20)
(14.9997 0.00298804 -5.11009e-20)
(14.9997 0.00299372 -2.81155e-20)
(14.9998 0.00299893 8.42929e-20)
(14.9998 0.00300285 2.54874e-20)
(14.9999 0.00300622 -2.81709e-20)
(14.9999 0.00300858 2.70432e-20)
(15 0.00301059 4.18233e-22)
(15 0.00301175 -2.86054e-20)
(15.0001 0.00301205 1.11194e-21)
(15.0001 0.00301201 0)
(15.0002 0.00301095 2.60937e-21)
(15.0002 0.00300934 -2.48298e-20)
(15.0003 0.00300642 -4.09709e-21)
(15.0003 0.00300303 3.30281e-20)
(15.0004 0.00299902 -3.93981e-20)
(15.0004 0.00299424 -2.80663e-20)
(15.0005 0.00298875 1.78642e-24)
(15.0005 0.00298223 -2.3891e-23)
(15.0005 0.00297516 5.60726e-20)
(15.0006 0.00296734 2.78626e-20)
(15.0006 0.00295858 -2.78944e-20)
(15.0007 0.00294913 2.79316e-20)
(15.0007 0.0029391 3.94246e-20)
(15.0008 0.00292864 -5.57653e-20)
(15.0008 0.00291683 -4.24096e-20)
(15.0009 0.00290438 1.39616e-20)
(15.0009 0.00289113 6.99451e-20)
(15.001 0.00287765 1.51815e-20)
(15.001 0.00286297 -4.36072e-20)
(15.0011 0.0028477 0)
(15.0011 0.00283146 2.76063e-20)
(15.0012 0.00281464 4.5671e-20)
(15.0012 0.00279682 -2.74661e-20)
(15.0012 0.00277846 -2.72935e-20)
(15.0013 0.00275968 2.73887e-20)
(15.0013 0.00273976 -4.24414e-20)
(15.0014 0.00271898 -2.71207e-20)
(15.0014 0.00269776 2.72126e-20)
(15.0015 0.00267582 5.03476e-20)
(15.0015 0.0026531 -7.51162e-20)
(15.0015 0.00262945 -2.12768e-21)
(15.0016 0.00260519 -2.39149e-20)
(15.0016 0.00258035 2.59391e-20)
(15.0017 0.00255474 -5.34737e-20)
(15.0017 0.00252831 2.67663e-20)
(15.0018 0.00250102 5.47419e-20)
(15.0018 0.00247355 2.89662e-20)
(15.0018 0.00244506 -2.34935e-20)
(15.0019 0.00241561 -2.59896e-20)
(15.0019 0.0023858 8.34237e-20)
(15.0019 0.00235515 -2.53413e-22)
(15.002 0.00232394 -2.59585e-20)
(15.002 0.0022918 0)
(15.0021 0.00225924 6.71936e-20)
(15.0021 0.00222548 -6.85432e-20)
(15.0021 0.002192 0)
(15.0022 0.00215709 3.55537e-20)
(15.0022 0.00212171 -3.62001e-20)
(15.0022 0.00208563 2.55846e-20)
(15.0023 0.0020494 1.1641e-20)
(15.0023 0.00201231 5.12979e-20)
(15.0023 0.00197415 -3.54762e-22)
(15.0023 0.00193609 -7.80141e-20)
(15.0024 0.00189692 2.46543e-20)
(15.0024 0.00185707 -9.61079e-20)
(15.0024 0.00181716 6.53067e-20)
(15.0025 0.00177646 -4.13775e-20)
(15.0025 0.00173505 -2.43953e-20)
(15.0025 0.00169364 -4.20189e-20)
(15.0025 0.00165084 1.82884e-20)
(15.0025 0.00160823 6.85702e-20)
(15.0026 0.00156541 -2.137e-20)
(15.0026 0.00152137 -1.14909e-19)
(15.0026 0.00147769 -8.92949e-20)
(15.0026 0.00143293 6.84281e-20)
(15.0026 0.0013878 -9.15705e-20)
(15.0027 0.00134259 0)
(15.0027 0.00129701 -6.96574e-20)
(15.0027 0.00125104 -2.34176e-20)
(15.0027 0.00120496 9.16295e-20)
(15.0027 0.00115866 -4.75115e-20)
(15.0027 0.00111189 7.34296e-20)
(15.0027 0.00106468 -9.19467e-20)
(15.0027 0.00101809 4.89229e-20)
(15.0027 0.000970604 6.95677e-20)
(15.0027 0.000923503 7.04273e-20)
(15.0027 0.000875846 6.979e-20)
(15.0027 0.000828565 6.51318e-21)
(15.0027 0.00078124 1.38148e-21)
(15.0027 0.000734339 -3.03017e-20)
(15.0027 0.000686795 2.95408e-20)
(15.0027 0.00064002 0)
(15.0027 0.000593661 -6.97665e-20)
(15.0027 0.000546804 9.94388e-20)
(15.0027 0.000501349 -5.04728e-20)
(15.0027 0.000456093 -2.802e-20)
(15.0026 0.000411219 1.64917e-20)
(15.0026 0.00036716 -1.33463e-19)
(15.0026 0.00032341 2.05003e-20)
(15.0026 0.000281671 6.30167e-20)
(15.0025 0.000240511 1.27356e-20)
(15.0025 0.00020108 2.15009e-21)
(15.0025 0.000163628 -3.12972e-20)
(15.0024 0.000123377 1.87209e-20)
(15.0024 8.60054e-05 -4.46283e-21)
(15.0024 1.06002e-05 -7.88222e-20)
(15.0023 2.98886e-06 3.26117e-20)
(14.9972 -1.61282e-06 -3.54242e-20)
(14.9971 -1.03547e-05 3.88569e-20)
(14.997 8.11411e-05 0)
(14.997 0.000134084 0)
(14.9969 0.000187399 -1.3549e-20)
(14.9969 0.000236393 -1.60094e-20)
(14.9968 0.000286932 -2.72745e-20)
(14.9968 0.000338942 -1.08192e-20)
(14.9967 0.000392293 -2.93159e-20)
(14.9967 0.000448134 3.93909e-20)
(14.9967 0.000504862 -2.40524e-20)
(14.9966 0.000563075 -1.87974e-20)
(14.9966 0.000621928 -2.63899e-20)
(14.9966 0.000681674 1.47042e-22)
(14.9965 0.000742864 -8.97384e-20)
(14.9965 0.000803985 6.28901e-20)
(14.9965 0.000865733 1.88392e-20)
(14.9965 0.000928492 2.68476e-20)
(14.9965 0.000991127 -6.47089e-20)
(14.9965 0.00105428 2.64426e-20)
(14.9965 0.0011173 -9.12612e-20)
(14.9965 0.00118109 7.47065e-22)
(14.9965 0.00124461 1.90577e-20)
(14.9965 0.00130876 -2.39858e-20)
(14.9965 0.00137196 4.42306e-20)
(14.9965 0.00143583 6.19255e-22)
(14.9965 0.00149933 -8.62898e-20)
(14.9965 0.0015626 -4.48733e-20)
(14.9965 0.00162551 2.16463e-20)
(14.9965 0.00168866 8.1632e-23)
(14.9965 0.00175141 0)
(14.9965 0.00181367 4.33633e-20)
(14.9965 0.00187575 6.47835e-20)
(14.9965 0.00193758 -4.24332e-20)
(14.9966 0.00199855 -4.48078e-20)
(14.9966 0.00205955 -4.2323e-20)
(14.9966 0.0021196 -4.1095e-20)
(14.9966 0.00217939 -4.15674e-20)
(14.9967 0.00223902 5.38586e-21)
(14.9967 0.00229727 -8.03051e-20)
(14.9967 0.0023555 -6.35381e-20)
(14.9967 0.00241282 1.60344e-20)
(14.9968 0.00246938 1.50545e-20)
(14.9968 0.00252589 2.37198e-20)
(14.9968 0.00258161 3.82782e-20)
(14.9969 0.00263598 -3.21395e-22)
(14.9969 0.00269031 2.44153e-20)
(14.997 0.00274344 7.27932e-20)
(14.997 0.00279587 3.57929e-20)
(14.997 0.00284765 -2.45431e-20)
(14.9971 0.00289871 3.43803e-20)
(14.9971 0.00294892 -1.83675e-20)
(14.9972 0.0029981 -2.47193e-20)
(14.9972 0.00304694 -2.56011e-20)
(14.9973 0.00309444 2.54597e-20)
(14.9973 0.00314142 3.81791e-20)
(14.9973 0.00318706 -2.56187e-20)
(14.9974 0.00323223 5.60061e-20)
(14.9974 0.0032764 -4.00575e-21)
(14.9975 0.0033198 -8.41853e-20)
(14.9975 0.00336214 -2.60436e-20)
(14.9976 0.00340339 2.59977e-20)
(14.9977 0.00344402 2.62973e-20)
(14.9977 0.00348352 7.89137e-20)
(14.9978 0.00352211 -2.59205e-20)
(14.9978 0.00355984 -5.33052e-20)
(14.9979 0.00359645 2.03242e-21)
(14.9979 0.00363218 2.39518e-20)
(14.998 0.00366706 -2.66355e-20)
(14.998 0.00370094 2.242e-20)
(14.9981 0.00373376 5.38192e-20)
(14.9982 0.00376557 4.25152e-20)
(14.9982 0.00379655 -7.45952e-20)
(14.9983 0.00382617 -4.69876e-20)
(14.9983 0.00385488 2.71697e-20)
(14.9984 0.00388299 9.02084e-21)
(14.9985 0.0039099 2.72949e-20)
(14.9985 0.00393566 1.05656e-20)
(14.9986 0.00396024 -3.24224e-20)
(14.9986 0.00398414 3.43238e-21)
(14.9987 0.00400667 -5.72356e-20)
(14.9988 0.00402846 4.12806e-20)
(14.9988 0.00404911 -1.42195e-20)
(14.9989 0.00406892 -8.35727e-20)
(14.999 0.00408716 1.60507e-20)
(14.999 0.00410472 5.59264e-20)
(14.9991 0.00412121 5.46647e-23)
(14.9992 0.00413676 1.83707e-20)
(14.9992 0.00415121 -2.79705e-20)
(14.9993 0.00416457 -7.65076e-20)
(14.9994 0.00417681 7.33394e-21)
(14.9994 0.00418807 5.69884e-24)
(14.9995 0.00419843 2.83226e-20)
(14.9996 0.00420753 2.8401e-20)
(14.9996 0.00421555 1.55467e-20)
(14.9997 0.00422273 2.1441e-20)
(14.9998 0.00422836 -2.57516e-20)
(14.9998 0.00423318 -2.85752e-20)
(14.9999 0.00423668 -2.85923e-20)
(15 0.00423968 -2.8193e-20)
(15 0.00424133 8.55698e-20)
(15.0001 0.00424163 2.86037e-20)
(15.0002 0.00424142 -3.0464e-20)
(15.0002 0.0042399 -2.85957e-20)
(15.0003 0.00423755 -3.19347e-20)
(15.0004 0.00423365 3.27253e-20)
(15.0004 0.00422889 -6.70073e-20)
(15.0005 0.00422304 -2.84451e-20)
(15.0006 0.00421591 9.18867e-20)
(15.0006 0.00420788 5.68031e-20)
(15.0007 0.00419884 -4.87878e-20)
(15.0008 0.00418866 -1.06473e-20)
(15.0008 0.00417737 -8.17347e-23)
(15.0009 0.00416495 6.69238e-23)
(15.001 0.00415157 5.65426e-20)
(15.001 0.00413709 -1.19292e-20)
(15.0011 0.00412189 -4.07407e-20)
(15.0012 0.0041051 -1.48113e-20)
(15.0012 0.00408743 4.24114e-20)
(15.0013 0.00406858 5.60557e-20)
(15.0014 0.00404896 0)
(15.0014 0.00402792 -2.80009e-20)
(15.0015 0.00400616 -1.0727e-20)
(15.0016 0.00398318 0)
(15.0016 0.003959 -1.86268e-20)
(15.0017 0.00393356 -1.9372e-20)
(15.0018 0.00390748 -2.00918e-20)
(15.0018 0.00388044 -2.77162e-20)
(15.0019 0.00385198 -2.14138e-20)
(15.0019 0.00382263 2.7448e-20)
(15.002 0.00379221 -2.7573e-20)
(15.0021 0.00376067 1.28796e-22)
(15.0021 0.00372807 3.01435e-20)
(15.0022 0.00369455 2.50189e-20)
(15.0022 0.00366009 2.12044e-22)
(15.0023 0.00362443 -5.34073e-20)
(15.0024 0.00358784 -2.69107e-20)
(15.0024 0.00355027 0)
(15.0025 0.00351148 -3.19629e-23)
(15.0025 0.00347202 -2.52985e-21)
(15.0026 0.00343137 -6.04741e-20)
(15.0026 0.00338957 8.86094e-20)
(15.0027 0.00334692 3.09726e-20)
(15.0027 0.00330318 -1.1698e-19)
(15.0028 0.0032589 0)
(15.0028 0.00321317 2.64272e-20)
(15.0029 0.00316682 7.54615e-21)
(15.0029 0.00311904 9.11239e-21)
(15.003 0.00307083 2.57816e-20)
(15.003 0.00302147 -3.60617e-20)
(15.0031 0.00297117 0)
(15.0031 0.00292004 2.58103e-20)
(15.0032 0.00286817 -1.25678e-20)
(15.0032 0.00281548 1.30275e-20)
(15.0033 0.00276147 -8.96959e-20)
(15.0033 0.00270733 4.00685e-20)
(15.0033 0.00265169 -3.97493e-22)
(15.0034 0.00259515 -4.04476e-20)
(15.0034 0.00253846 2.45005e-20)
(15.0035 0.00248088 -2.49172e-20)
(15.0035 0.00242226 -2.43885e-20)
(15.0035 0.00236352 9.21077e-20)
(15.0036 0.00230323 2.35104e-20)
(15.0036 0.00224267 2.01534e-20)
(15.0036 0.00218173 -6.86757e-20)
(15.0036 0.00211968 -9.23813e-20)
(15.0037 0.00205755 6.94648e-20)
(15.0037 0.00199442 -2.31019e-20)
(15.0037 0.00193088 4.76391e-22)
(15.0037 0.00186704 2.2786e-20)
(15.0037 0.00180256 0)
(15.0038 0.00173753 9.43976e-20)
(15.0038 0.00167262 -4.7525e-20)
(15.0038 0.0016072 -4.78004e-20)
(15.0038 0.00154139 -9.60368e-20)
(15.0038 0.00147504 -2.58978e-20)
(15.0038 0.00140927 7.00486e-20)
(15.0038 0.00134233 -4.84566e-20)
(15.0038 0.00127589 -2.15353e-20)
(15.0038 0.00120902 -4.81693e-20)
(15.0038 0.00114281 -7.76961e-20)
(15.0038 0.00107628 7.7304e-20)
(15.0038 0.00101012 8.09839e-22)
(15.0038 0.000943643 -8.81475e-22)
(15.0038 0.000878059 5.01262e-20)
(15.0038 0.00081296 6.8228e-20)
(15.0038 0.000747555 2.92224e-20)
(15.0037 0.000683495 1.05396e-20)
(15.0037 0.000620149 -4.7136e-20)
(15.0037 0.000557229 -5.00401e-20)
(15.0037 0.000495591 1.41115e-21)
(15.0036 0.000434599 6.50991e-20)
(15.0036 0.000375904 -9.50703e-20)
(15.0035 0.000318261 4.70224e-20)
(15.0035 0.000261877 2.28443e-22)
(15.0035 0.000207246 0)
(15.0034 0.000148827 -1.85161e-20)
(15.0034 9.24931e-05 -4.07883e-20)
(15.0033 1.35059e-06 1.24014e-20)
(15.0032 8.69548e-07 4.16259e-20)
(14.9964 -4.27078e-06 -4.59825e-20)
(14.9963 -9.02281e-06 -5.61172e-20)
(14.9962 8.07866e-05 0)
(14.9961 0.00014989 3.96296e-20)
(14.996 0.000218215 1.34064e-20)
(14.996 0.000282759 -2.5338e-20)
(14.9959 0.000348445 -4.21576e-20)
(14.9959 0.000415228 -1.50926e-20)
(14.9958 0.00048362 1.0713e-20)
(14.9958 0.000554945 -4.48143e-20)
(14.9957 0.000627583 6.11505e-20)
(14.9957 0.000702024 -2.77278e-20)
(14.9956 0.000777514 6.20232e-20)
(14.9956 0.000854303 -1.66042e-22)
(14.9956 0.000932544 2.72312e-20)
(14.9955 0.00101132 -1.87053e-20)
(14.9955 0.00109078 9.03648e-20)
(14.9955 0.00117111 6.36362e-20)
(14.9955 0.0012517 -1.78781e-20)
(14.9955 0.00133327 -1.47913e-21)
(14.9954 0.00141473 -2.48787e-20)
(14.9954 0.0014967 -2.01638e-20)
(14.9954 0.00157883 -4.53765e-20)
(14.9954 0.00166144 -1.98054e-20)
(14.9954 0.00174318 -4.5662e-20)
(14.9954 0.00182554 8.63797e-20)
(14.9954 0.00190771 -2.36836e-20)
(14.9954 0.00198968 -4.47922e-20)
(14.9955 0.00207113 -4.44697e-20)
(14.9955 0.00215309 -6.55338e-20)
(14.9955 0.00223428 -2.20471e-20)
(14.9955 0.00231505 0)
(14.9955 0.00239554 -6.52365e-20)
(14.9955 0.00247564 -4.33562e-20)
(14.9956 0.00255499 2.37372e-21)
(14.9956 0.0026342 -1.9544e-20)
(14.9956 0.0027123 -4.20492e-20)
(14.9957 0.00279005 -6.44522e-20)
(14.9957 0.00286723 -4.15734e-20)
(14.9957 0.00294315 8.1832e-20)
(14.9958 0.00301885 -6.84197e-21)
(14.9958 0.00309377 -6.37401e-20)
(14.9958 0.0031675 -1.56892e-20)
(14.9959 0.00324089 3.53924e-22)
(14.9959 0.00331352 -3.15195e-22)
(14.996 0.00338439 -3.75874e-20)
(14.996 0.00345495 3.70399e-20)
(14.9961 0.00352453 -3.65088e-20)
(14.9961 0.00359284 3.60309e-20)
(14.9962 0.00366044 3.42345e-22)
(14.9962 0.00372716 2.45854e-20)
(14.9963 0.00379253 3.52351e-20)
(14.9963 0.00385698 8.33142e-21)
(14.9964 0.00392064 -7.92056e-21)
(14.9964 0.00398274 7.46442e-21)
(14.9965 0.00404407 3.20085e-20)
(14.9966 0.00410396 -3.14032e-20)
(14.9966 0.00416288 -3.12859e-20)
(14.9967 0.00422063 5.65029e-20)
(14.9968 0.00427731 0)
(14.9968 0.00433274 -2.91213e-20)
(14.9969 0.00438707 -5.69181e-20)
(14.997 0.00444016 2.77864e-20)
(14.997 0.00449172 -2.71248e-20)
(14.9971 0.00454238 5.29652e-20)
(14.9972 0.00459191 2.66386e-20)
(14.9972 0.00463985 2.52899e-20)
(14.9973 0.00468659 -2.63135e-21)
(14.9974 0.0047322 -2.69267e-20)
(14.9975 0.00477678 -4.62062e-20)
(14.9975 0.0048199 2.24998e-20)
(14.9976 0.0048613 2.14798e-20)
(14.9977 0.00490178 6.55441e-21)
(14.9978 0.00494095 -2.02068e-20)
(14.9978 0.00497873 -1.14958e-20)
(14.9979 0.00501532 -1.86351e-20)
(14.998 0.00505054 -1.81742e-20)
(14.9981 0.00508438 4.51113e-20)
(14.9982 0.00511676 -5.55806e-20)
(14.9982 0.00514812 -2.09915e-22)
(14.9983 0.00517795 2.81691e-20)
(14.9984 0.0052063 -2.80985e-20)
(14.9985 0.00523331 2.71932e-20)