/*--------------------------------*- C++ -*----------------------------------*\
  =========                 |
  \\      /  F ield         | OpenFOAM: The Open Source CFD Toolbox
   \\    /   O peration     | Website:  https://openfoam.org
    \\  /    A nd           | Version:  8
     \\/     M anipulation  |
\*---------------------------------------------------------------------------*/
FoamFile
{
    version     2.0;
    format      ascii;
    class       volScalarField;
    location    "0.2";
    object      nuTilda;
}
// * * * * * * * * * * * * * * * * * * * * * * * * * * * * * * * * * * * * * //

dimensions      [0 2 -1 0 0 0 0];

internalField   nonuniform List<scalar> 
62184
(
0.0162379
0.0162408
0.0162439
0.016247
0.0162503
0.0162537
0.0162572
0.0162609
0.0162647
0.0162686
0.0162727
0.016277
0.0162814
0.0162861
0.0162909
0.0162959
0.0163011
0.0163065
0.0163122
0.0163182
0.0163244
0.0163309
0.0163376
0.0163448
0.0163522
0.01636
0.0163682
0.0163769
0.0163859
0.0163955
0.0164056
0.0164162
0.0164274
0.0164393
0.0164519
0.0164653
0.0164795
0.0164947
0.0165108
0.0165281
0.0165466
0.0165665
0.0165878
0.016611
0.016636
0.0166632
0.0166929
0.0167254
0.0167611
0.0168007
0.0168448
0.0168941
0.0169498
0.0170133
0.0170862
0.0171714
0.0172712
0.0173945
0.0175347
0.0177695
0.0177229
0.0199891
0.0116155
0.0116173
0.0116192
0.0116211
0.0116231
0.0116252
0.0116274
0.0116296
0.0116319
0.0116344
0.0116369
0.0116395
0.0116422
0.0116451
0.0116481
0.0116512
0.0116544
0.0116578
0.0116613
0.011665
0.0116689
0.0116729
0.0116772
0.0116817
0.0116864
0.0116913
0.0116965
0.011702
0.0117078
0.0117139
0.0117204
0.0117273
0.0117346
0.0117424
0.0117506
0.0117595
0.0117689
0.011779
0.0117898
0.0118015
0.0118141
0.0118277
0.0118425
0.0118586
0.0118762
0.0118955
0.0119168
0.0119403
0.0119665
0.0119959
0.012029
0.0120667
0.0121099
0.0121601
0.0122192
0.0122896
0.0123757
0.0124826
0.0126226
0.0128029
0.0130961
0.0133635
0.0205956
0.0205986
0.0206017
0.0206049
0.0206082
0.0206117
0.0206153
0.020619
0.0206229
0.020627
0.0206312
0.0206356
0.0206402
0.0206449
0.0206499
0.0206551
0.0206606
0.0206663
0.0206723
0.0206786
0.0206852
0.0206921
0.0206994
0.020707
0.0207151
0.0207236
0.0207326
0.0207421
0.0207522
0.0207629
0.0207742
0.0207863
0.0207992
0.0208129
0.0208276
0.0208433
0.0208602
0.0208784
0.020898
0.0209192
0.0209422
0.0209672
0.0209945
0.0210243
0.0210572
0.0210934
0.0211336
0.0211784
0.0212286
0.0212852
0.0213496
0.0214234
0.0215088
0.0216087
0.0217271
0.0218695
0.0220445
0.0222632
0.0225477
0.0229178
0.0234719
0.0241049
0.0313838
0.031388
0.0313924
0.0313969
0.0314016
0.0314065
0.0314116
0.0314169
0.0314224
0.0314281
0.0314341
0.0314403
0.0314468
0.0314536
0.0314607
0.0314681
0.0314758
0.0314839
0.0314924
0.0315013
0.0315107
0.0315205
0.0315309
0.0315418
0.0315532
0.0315654
0.0315782
0.0315917
0.0316061
0.0316213
0.0316374
0.0316546
0.031673
0.0316926
0.0317135
0.0317359
0.03176
0.031786
0.0318139
0.0318442
0.031877
0.0319127
0.0319516
0.0319943
0.0320411
0.0320929
0.0321502
0.032214
0.0322856
0.0323662
0.0324577
0.0325623
0.032683
0.0328238
0.0329898
0.0331882
0.0334292
0.0337269
0.0341039
0.0345847
0.0352592
0.0359561
0.0424173
0.0424226
0.042428
0.0424336
0.0424395
0.0424456
0.0424519
0.0424585
0.0424653
0.0424724
0.0424798
0.0424876
0.0424956
0.0425041
0.0425129
0.0425221
0.0425317
0.0425418
0.0425523
0.0425634
0.0425751
0.0425873
0.0426002
0.0426137
0.042628
0.0426431
0.042659
0.0426759
0.0426937
0.0427127
0.0427328
0.0427542
0.0427771
0.0428014
0.0428275
0.0428554
0.0428854
0.0429177
0.0429525
0.0429901
0.0430309
0.0430753
0.0431237
0.0431766
0.0432348
0.0432989
0.0433699
0.0434489
0.0435372
0.0436366
0.0437492
0.0438775
0.044025
0.0441961
0.0443966
0.0446342
0.0449195
0.0452666
0.0456961
0.0462304
0.0469441
0.0476155
0.0531902
0.0531962
0.0532024
0.0532088
0.0532155
0.0532225
0.0532297
0.0532372
0.0532451
0.0532532
0.0532617
0.0532706
0.0532798
0.0532894
0.0532995
0.05331
0.0533211
0.0533326
0.0533447
0.0533574
0.0533707
0.0533847
0.0533995
0.053415
0.0534313
0.0534486
0.0534668
0.0534861
0.0535066
0.0535283
0.0535513
0.0535759
0.053602
0.0536299
0.0536597
0.0536917
0.053726
0.0537629
0.0538027
0.0538457
0.0538923
0.0539429
0.0539981
0.0540584
0.0541246
0.0541976
0.0542782
0.0543678
0.0544678
0.05458
0.0547067
0.0548507
0.0550154
0.0552054
0.0554265
0.0556862
0.0559942
0.0563633
0.0568104
0.0573541
0.05805
0.0586612
0.0633839
0.0633904
0.0633971
0.0634041
0.0634113
0.0634188
0.0634266
0.0634347
0.0634432
0.063452
0.0634612
0.0634707
0.0634807
0.0634911
0.063502
0.0635134
0.0635253
0.0635378
0.0635509
0.0635646
0.063579
0.0635941
0.06361
0.0636268
0.0636445
0.0636631
0.0636828
0.0637037
0.0637258
0.0637492
0.0637741
0.0638006
0.0638288
0.0638588
0.063891
0.0639255
0.0639625
0.0640022
0.0640451
0.0640914
0.0641415
0.0641959
0.0642552
0.0643199
0.0643909
0.0644689
0.0645551
0.0646506
0.064757
0.064876
0.06501
0.0651616
0.0653343
0.0655322
0.0657608
0.0660268
0.0663385
0.0667066
0.0671441
0.0676652
0.0683078
0.0688506
0.0727937
0.0728004
0.0728074
0.0728146
0.0728221
0.0728299
0.072838
0.0728464
0.0728551
0.0728642
0.0728737
0.0728836
0.072894
0.0729047
0.072916
0.0729278
0.0729401
0.072953
0.0729666
0.0729807
0.0729957
0.0730113
0.0730278
0.0730451
0.0730634
0.0730827
0.0731031
0.0731247
0.0731475
0.0731717
0.0731974
0.0732247
0.0732539
0.0732849
0.0733181
0.0733537
0.0733918
0.0734328
0.0734769
0.0735245
0.073576
0.0736319
0.0736927
0.0737591
0.0738317
0.0739114
0.0739992
0.0740964
0.0742043
0.0743248
0.0744598
0.074612
0.0747844
0.0749807
0.0752058
0.0754651
0.0757657
0.0761157
0.0765246
0.0770027
0.0775734
0.0780514
0.0813035
0.0813102
0.0813172
0.0813244
0.0813319
0.0813397
0.0813478
0.0813562
0.081365
0.0813741
0.0813836
0.0813935
0.0814038
0.0814146
0.0814259
0.0814377
0.0814501
0.081463
0.0814765
0.0814907
0.0815056
0.0815213
0.0815378
0.0815551
0.0815734
0.0815927
0.081613
0.0816346
0.0816574
0.0816815
0.0817072
0.0817345
0.0817635
0.0817945
0.0818275
0.0818629
0.0819008
0.0819416
0.0819854
0.0820327
0.0820838
0.0821392
0.0821993
0.0822649
0.0823365
0.082415
0.0825013
0.0825965
0.082702
0.0828193
0.0829503
0.0830973
0.0832629
0.0834503
0.0836634
0.0839068
0.0841857
0.0845063
0.0848752
0.0852995
0.0857923
0.0862125
0.088868
0.0888745
0.0888813
0.0888883
0.0888957
0.0889033
0.0889111
0.0889194
0.0889279
0.0889368
0.0889461
0.0889557
0.0889658
0.0889763
0.0889873
0.0889988
0.0890108
0.0890234
0.0890366
0.0890504
0.0890649
0.0890802
0.0890962
0.0891131
0.0891309
0.0891496
0.0891694
0.0891903
0.0892125
0.0892359
0.0892608
0.0892873
0.0893155
0.0893455
0.0893775
0.0894117
0.0894484
0.0894878
0.0895301
0.0895757
0.0896249
0.0896782
0.089736
0.0897989
0.0898674
0.0899424
0.0900247
0.0901153
0.0902153
0.0903261
0.0904494
0.090587
0.0907411
0.0909145
0.0911101
0.0913315
0.0915827
0.0918679
0.0921917
0.0925586
0.0929752
0.0933442
0.0954969
0.0955031
0.0955096
0.0955163
0.0955233
0.0955306
0.0955381
0.095546
0.0955541
0.0955626
0.0955714
0.0955807
0.0955903
0.0956003
0.0956108
0.0956217
0.0956332
0.0956452
0.0956578
0.0956709
0.0956847
0.0956993
0.0957145
0.0957306
0.0957475
0.0957653
0.0957841
0.095804
0.0958251
0.0958473
0.095871
0.0958961
0.0959228
0.0959512
0.0959815
0.0960139
0.0960486
0.0960857
0.0961256
0.0961686
0.0962149
0.096265
0.0963192
0.0963781
0.0964422
0.0965122
0.0965887
0.0966727
0.0967652
0.0968673
0.0969804
0.097106
0.097246
0.0974023
0.0975774
0.0977739
0.0979947
0.0982427
0.0985207
0.0988318
0.0991786
0.0995019
0.10124
0.101246
0.101252
0.101258
0.101265
0.101271
0.101278
0.101286
0.101294
0.101301
0.10131
0.101318
0.101327
0.101337
0.101347
0.101357
0.101368
0.101379
0.101391
0.101403
0.101416
0.10143
0.101444
0.101459
0.101475
0.101491
0.101509
0.101527
0.101547
0.101568
0.10159
0.101613
0.101638
0.101665
0.101693
0.101723
0.101755
0.101789
0.101826
0.101866
0.101909
0.101955
0.102005
0.102059
0.102118
0.102182
0.102252
0.102328
0.102412
0.102504
0.102606
0.102718
0.102843
0.102981
0.103135
0.103306
0.103496
0.103708
0.103943
0.104202
0.104488
0.10477
0.106172
0.106177
0.106183
0.106189
0.106195
0.106201
0.106208
0.106215
0.106222
0.106229
0.106237
0.106245
0.106253
0.106262
0.106271
0.10628
0.10629
0.106301
0.106312
0.106323
0.106335
0.106348
0.106361
0.106375
0.106389
0.106405
0.106421
0.106438
0.106456
0.106475
0.106495
0.106517
0.10654
0.106564
0.10659
0.106617
0.106647
0.106678
0.106712
0.106748
0.106787
0.106829
0.106874
0.106923
0.106976
0.107034
0.107097
0.107165
0.10724
0.107322
0.107412
0.107511
0.10762
0.10774
0.107873
0.108019
0.108181
0.10836
0.108556
0.10877
0.109003
0.109249
0.110383
0.110388
0.110393
0.110398
0.110404
0.110409
0.110415
0.110422
0.110428
0.110435
0.110442
0.110449
0.110457
0.110465
0.110473
0.110482
0.110491
0.110501
0.110511
0.110521
0.110532
0.110544
0.110556
0.110568
0.110582
0.110596
0.11061
0.110626
0.110642
0.11066
0.110678
0.110698
0.110719
0.110741
0.110764
0.110789
0.110816
0.110844
0.110874
0.110907
0.110942
0.11098
0.11102
0.111064
0.111111
0.111163
0.111218
0.111279
0.111345
0.111417
0.111496
0.111582
0.111676
0.11178
0.111893
0.112017
0.112154
0.112303
0.112465
0.11264
0.11283
0.113044
0.113965
0.113969
0.113974
0.113979
0.113984
0.113989
0.113995
0.114
0.114006
0.114013
0.114019
0.114026
0.114033
0.11404
0.114047
0.114055
0.114064
0.114072
0.114081
0.114091
0.114101
0.114111
0.114122
0.114134
0.114146
0.114158
0.114172
0.114186
0.114201
0.114217
0.114233
0.114251
0.11427
0.114289
0.114311
0.114333
0.114357
0.114382
0.11441
0.114439
0.11447
0.114504
0.11454
0.114579
0.114621
0.114666
0.114715
0.114768
0.114826
0.114888
0.114956
0.115031
0.115112
0.1152
0.115296
0.115401
0.115515
0.115638
0.115772
0.115915
0.116069
0.116255
0.117008
0.117013
0.117017
0.117021
0.117026
0.117031
0.117036
0.117041
0.117046
0.117052
0.117058
0.117064
0.11707
0.117077
0.117084
0.117091
0.117098
0.117106
0.117115
0.117123
0.117132
0.117142
0.117151
0.117162
0.117173
0.117184
0.117196
0.117209
0.117222
0.117237
0.117252
0.117267
0.117284
0.117302
0.117321
0.117341
0.117362
0.117385
0.117409
0.117435
0.117463
0.117493
0.117525
0.117559
0.117596
0.117636
0.117679
0.117725
0.117775
0.117829
0.117888
0.117952
0.118021
0.118096
0.118177
0.118265
0.11836
0.118462
0.118571
0.118688
0.118813
0.118974
0.119597
0.119601
0.119605
0.119609
0.119613
0.119617
0.119622
0.119627
0.119632
0.119637
0.119642
0.119648
0.119653
0.119659
0.119665
0.119672
0.119679
0.119686
0.119693
0.119701
0.119709
0.119718
0.119727
0.119736
0.119746
0.119756
0.119767
0.119779
0.119791
0.119803
0.119817
0.119831
0.119846
0.119862
0.119879
0.119897
0.119916
0.119936
0.119958
0.119981
0.120005
0.120031
0.12006
0.12009
0.120122
0.120157
0.120194
0.120235
0.120278
0.120325
0.120375
0.12043
0.120489
0.120552
0.120621
0.120694
0.120773
0.120857
0.120947
0.121042
0.121144
0.121284
0.121804
0.121808
0.121811
0.121815
0.121819
0.121823
0.121827
0.121831
0.121835
0.12184
0.121845
0.12185
0.121855
0.12186
0.121866
0.121872
0.121878
0.121885
0.121891
0.121898
0.121906
0.121913
0.121921
0.12193
0.121939
0.121948
0.121958
0.121968
0.121979
0.12199
0.122002
0.122015
0.122029
0.122043
0.122058
0.122074
0.122091
0.122109
0.122128
0.122148
0.12217
0.122193
0.122218
0.122244
0.122273
0.122303
0.122336
0.122371
0.122408
0.122449
0.122492
0.122539
0.122589
0.122642
0.1227
0.122762
0.122827
0.122897
0.122971
0.123048
0.123131
0.123254
0.123692
0.123696
0.123699
0.123702
0.123706
0.123709
0.123713
0.123717
0.123721
0.123725
0.12373
0.123734
0.123739
0.123744
0.123749
0.123754
0.12376
0.123766
0.123772
0.123778
0.123785
0.123792
0.123799
0.123806
0.123814
0.123823
0.123832
0.123841
0.123851
0.123861
0.123872
0.123883
0.123895
0.123908
0.123921
0.123936
0.123951
0.123967
0.123984
0.124002
0.124021
0.124041
0.124063
0.124086
0.124111
0.124138
0.124166
0.124197
0.124229
0.124264
0.124301
0.124341
0.124383
0.124429
0.124477
0.124529
0.124584
0.124641
0.124702
0.124766
0.124834
0.124942
0.125316
0.125318
0.125321
0.125324
0.125328
0.125331
0.125334
0.125338
0.125342
0.125345
0.125349
0.125353
0.125358
0.125362
0.125367
0.125372
0.125377
0.125382
0.125388
0.125393
0.125399
0.125406
0.125412
0.125419
0.125426
0.125434
0.125442
0.12545
0.125459
0.125468
0.125478
0.125488
0.125499
0.12551
0.125522
0.125535
0.125548
0.125563
0.125578
0.125594
0.125611
0.125629
0.125648
0.125668
0.12569
0.125713
0.125738
0.125765
0.125793
0.125823
0.125855
0.125889
0.125925
0.125964
0.126004
0.126048
0.126093
0.126141
0.126191
0.126244
0.1263
0.126395
0.126717
0.12672
0.126723
0.126726
0.126728
0.126732
0.126735
0.126738
0.126741
0.126745
0.126748
0.126752
0.126756
0.12676
0.126764
0.126769
0.126773
0.126778
0.126783
0.126788
0.126794
0.126799
0.126805
0.126812
0.126818
0.126825
0.126832
0.12684
0.126848
0.126856
0.126865
0.126874
0.126883
0.126894
0.126904
0.126916
0.126928
0.12694
0.126954
0.126968
0.126983
0.126999
0.127016
0.127034
0.127053
0.127074
0.127095
0.127118
0.127143
0.127168
0.127196
0.127225
0.127256
0.127289
0.127324
0.12736
0.127398
0.127438
0.12748
0.127523
0.12757
0.127654
0.127935
0.127937
0.12794
0.127942
0.127945
0.127948
0.12795
0.127953
0.127956
0.12796
0.127963
0.127966
0.12797
0.127974
0.127978
0.127982
0.127986
0.12799
0.127995
0.127999
0.128004
0.12801
0.128015
0.128021
0.128026
0.128033
0.128039
0.128046
0.128053
0.128061
0.128068
0.128077
0.128085
0.128095
0.128104
0.128114
0.128125
0.128136
0.128148
0.128161
0.128174
0.128189
0.128204
0.128219
0.128236
0.128254
0.128273
0.128293
0.128314
0.128337
0.12836
0.128386
0.128412
0.12844
0.128469
0.1285
0.128532
0.128566
0.1286
0.128636
0.128675
0.128751
0.128997
0.128999
0.129002
0.129004
0.129006
0.129009
0.129012
0.129014
0.129017
0.12902
0.129023
0.129026
0.129029
0.129033
0.129036
0.12904
0.129044
0.129048
0.129052
0.129056
0.129061
0.129066
0.12907
0.129076
0.129081
0.129087
0.129092
0.129099
0.129105
0.129112
0.129119
0.129126
0.129134
0.129142
0.129151
0.12916
0.12917
0.12918
0.129191
0.129202
0.129214
0.129226
0.12924
0.129254
0.129269
0.129284
0.129301
0.129318
0.129337
0.129356
0.129377
0.129398
0.129421
0.129445
0.12947
0.129496
0.129523
0.129551
0.12958
0.12961
0.129643
0.12971
0.129929
0.129931
0.129933
0.129935
0.129938
0.12994
0.129942
0.129945
0.129947
0.12995
0.129953
0.129956
0.129959
0.129962
0.129965
0.129968
0.129972
0.129976
0.129979
0.129983
0.129988
0.129992
0.129996
0.130001
0.130006
0.130011
0.130016
0.130022
0.130028
0.130034
0.13004
0.130047
0.130054
0.130062
0.130069
0.130078
0.130086
0.130095
0.130105
0.130115
0.130126
0.130137
0.130148
0.130161
0.130174
0.130188
0.130202
0.130218
0.130234
0.130251
0.130268
0.130287
0.130307
0.130327
0.130348
0.130371
0.130393
0.130417
0.130441
0.130466
0.130494
0.130555
0.130751
0.130752
0.130754
0.130756
0.130759
0.130761
0.130763
0.130765
0.130768
0.13077
0.130773
0.130775
0.130778
0.130781
0.130784
0.130787
0.13079
0.130793
0.130797
0.130801
0.130804
0.130808
0.130812
0.130817
0.130821
0.130826
0.130831
0.130836
0.130841
0.130847
0.130852
0.130859
0.130865
0.130872
0.130879
0.130886
0.130894
0.130902
0.130911
0.13092
0.130929
0.130939
0.130949
0.13096
0.130972
0.130984
0.130997
0.13101
0.131024
0.131039
0.131055
0.131071
0.131088
0.131105
0.131124
0.131142
0.131162
0.131182
0.131202
0.131223
0.131247
0.131302
0.131478
0.13148
0.131482
0.131484
0.131486
0.131488
0.13149
0.131492
0.131494
0.131496
0.131499
0.131501
0.131504
0.131506
0.131509
0.131512
0.131515
0.131518
0.131521
0.131524
0.131528
0.131531
0.131535
0.131539
0.131543
0.131547
0.131552
0.131556
0.131561
0.131566
0.131572
0.131577
0.131583
0.131589
0.131595
0.131602
0.131609
0.131616
0.131624
0.131632
0.131641
0.13165
0.131659
0.131669
0.131679
0.13169
0.131701
0.131713
0.131725
0.131738
0.131751
0.131765
0.13178
0.131795
0.131811
0.131827
0.131843
0.13186
0.131878
0.131895
0.131915
0.131966
0.132126
0.132127
0.132129
0.132131
0.132132
0.132134
0.132136
0.132138
0.13214
0.132142
0.132144
0.132147
0.132149
0.132151
0.132154
0.132157
0.132159
0.132162
0.132165
0.132168
0.132171
0.132175
0.132178
0.132182
0.132185
0.132189
0.132193
0.132198
0.132202
0.132207
0.132211
0.132216
0.132222
0.132227
0.132233
0.132239
0.132245
0.132252
0.132259
0.132266
0.132274
0.132282
0.13229
0.132299
0.132308
0.132317
0.132327
0.132337
0.132348
0.13236
0.132371
0.132384
0.132396
0.132409
0.132423
0.132437
0.132451
0.132465
0.13248
0.132495
0.132512
0.132558
0.132704
0.132705
0.132707
0.132708
0.13271
0.132712
0.132714
0.132715
0.132717
0.132719
0.132721
0.132723
0.132726
0.132728
0.13273
0.132733
0.132735
0.132738
0.13274
0.132743
0.132746
0.132749
0.132752
0.132756
0.132759
0.132763
0.132766
0.13277
0.132774
0.132778
0.132783
0.132787
0.132792
0.132797
0.132802
0.132808
0.132814
0.13282
0.132826
0.132832
0.132839
0.132846
0.132854
0.132861
0.132869
0.132878
0.132887
0.132896
0.132905
0.132915
0.132925
0.132936
0.132947
0.132958
0.13297
0.132982
0.132994
0.133006
0.133019
0.133031
0.133046
0.133088
0.133222
0.133224
0.133225
0.133227
0.133228
0.13323
0.133231
0.133233
0.133235
0.133237
0.133239
0.133241
0.133243
0.133245
0.133247
0.133249
0.133251
0.133254
0.133256
0.133259
0.133262
0.133264
0.133267
0.13327
0.133273
0.133277
0.13328
0.133284
0.133287
0.133291
0.133295
0.133299
0.133304
0.133308
0.133313
0.133318
0.133323
0.133329
0.133334
0.13334
0.133346
0.133352
0.133359
0.133366
0.133373
0.133381
0.133388
0.133397
0.133405
0.133414
0.133423
0.133432
0.133441
0.133451
0.133461
0.133471
0.133482
0.133492
0.133503
0.133514
0.133527
0.133565
0.133689
0.13369
0.133692
0.133693
0.133695
0.133696
0.133698
0.133699
0.133701
0.133703
0.133704
0.133706
0.133708
0.13371
0.133712
0.133714
0.133716
0.133718
0.133721
0.133723
0.133726
0.133728
0.133731
0.133734
0.133736
0.133739
0.133743
0.133746
0.133749
0.133753
0.133756
0.13376
0.133764
0.133768
0.133773
0.133777
0.133782
0.133787
0.133792
0.133797
0.133802
0.133808
0.133814
0.13382
0.133827
0.133833
0.13384
0.133847
0.133855
0.133862
0.13387
0.133878
0.133887
0.133895
0.133904
0.133913
0.133922
0.133931
0.13394
0.133949
0.13396
0.133996
0.134111
0.134112
0.134113
0.134115
0.134116
0.134117
0.134119
0.13412
0.134122
0.134123
0.134125
0.134127
0.134128
0.13413
0.134132
0.134134
0.134136
0.134138
0.13414
0.134142
0.134145
0.134147
0.134149
0.134152
0.134155
0.134157
0.13416
0.134163
0.134166
0.13417
0.134173
0.134176
0.13418
0.134184
0.134188
0.134192
0.134196
0.1342
0.134205
0.13421
0.134215
0.13422
0.134225
0.134231
0.134236
0.134242
0.134248
0.134255
0.134261
0.134268
0.134275
0.134282
0.134289
0.134297
0.134304
0.134312
0.13432
0.134327
0.134335
0.134343
0.134353
0.134386
0.134493
0.134494
0.134495
0.134496
0.134498
0.134499
0.1345
0.134502
0.134503
0.134504
0.134506
0.134507
0.134509
0.134511
0.134512
0.134514
0.134516
0.134518
0.13452
0.134522
0.134524
0.134526
0.134529
0.134531
0.134533
0.134536
0.134539
0.134541
0.134544
0.134547
0.13455
0.134553
0.134557
0.13456
0.134564
0.134567
0.134571
0.134575
0.134579
0.134584
0.134588
0.134593
0.134598
0.134602
0.134608
0.134613
0.134618
0.134624
0.13463
0.134636
0.134642
0.134648
0.134654
0.134661
0.134667
0.134674
0.134681
0.134687
0.134694
0.134701
0.134709
0.13474
0.13484
0.134841
0.134842
0.134843
0.134844
0.134846
0.134847
0.134848
0.134849
0.134851
0.134852
0.134854
0.134855
0.134857
0.134858
0.13486
0.134862
0.134864
0.134865
0.134867
0.134869
0.134871
0.134873
0.134876
0.134878
0.13488
0.134883
0.134885
0.134888
0.13489
0.134893
0.134896
0.134899
0.134902
0.134906
0.134909
0.134912
0.134916
0.13492
0.134924
0.134928
0.134932
0.134936
0.13494
0.134945
0.13495
0.134955
0.13496
0.134965
0.13497
0.134975
0.134981
0.134986
0.134992
0.134998
0.135004
0.135009
0.135015
0.135021
0.135027
0.135034
0.135063
0.135156
0.135157
0.135158
0.13516
0.135161
0.135162
0.135163
0.135164
0.135165
0.135167
0.135168
0.135169
0.135171
0.135172
0.135174
0.135175
0.135177
0.135178
0.13518
0.135182
0.135184
0.135186
0.135188
0.13519
0.135192
0.135194
0.135196
0.135198
0.135201
0.135203
0.135206
0.135208
0.135211
0.135214
0.135217
0.13522
0.135223
0.135227
0.13523
0.135233
0.135237
0.135241
0.135245
0.135249
0.135253
0.135257
0.135261
0.135266
0.13527
0.135275
0.13528
0.135284
0.135289
0.135294
0.135299
0.135304
0.135309
0.135314
0.135319
0.135324
0.135331
0.135358
0.135446
0.135447
0.135448
0.135449
0.13545
0.135451
0.135452
0.135453
0.135454
0.135455
0.135456
0.135458
0.135459
0.13546
0.135462
0.135463
0.135465
0.135466
0.135468
0.135469
0.135471
0.135473
0.135475
0.135476
0.135478
0.13548
0.135482
0.135485
0.135487
0.135489
0.135491
0.135494
0.135496
0.135499
0.135502
0.135505
0.135507
0.13551
0.135513
0.135517
0.13552
0.135523
0.135527
0.13553
0.135534
0.135538
0.135542
0.135546
0.13555
0.135554
0.135558
0.135562
0.135566
0.135571
0.135575
0.135579
0.135584
0.135588
0.135592
0.135597
0.135602
0.135628
0.135711
0.135712
0.135712
0.135713
0.135714
0.135715
0.135716
0.135717
0.135718
0.13572
0.135721
0.135722
0.135723
0.135724
0.135726
0.135727
0.135728
0.13573
0.135731
0.135733
0.135734
0.135736
0.135738
0.135739
0.135741
0.135743
0.135745
0.135747
0.135749
0.135751
0.135753
0.135755
0.135758
0.13576
0.135763
0.135765
0.135768
0.13577
0.135773
0.135776
0.135779
0.135782
0.135785
0.135788
0.135792
0.135795
0.135799
0.135802
0.135806
0.135809
0.135813
0.135817
0.13582
0.135824
0.135828
0.135832
0.135836
0.135839
0.135843
0.135847
0.135852
0.135876
0.135954
0.135955
0.135956
0.135957
0.135958
0.135958
0.135959
0.13596
0.135961
0.135962
0.135964
0.135965
0.135966
0.135967
0.135968
0.135969
0.135971
0.135972
0.135973
0.135975
0.135976
0.135978
0.135979
0.135981
0.135983
0.135984
0.135986
0.135988
0.13599
0.135992
0.135994
0.135996
0.135998
0.136
0.136002
0.136005
0.136007
0.136009
0.136012
0.136014
0.136017
0.13602
0.136023
0.136026
0.136029
0.136032
0.136035
0.136038
0.136041
0.136044
0.136047
0.136051
0.136054
0.136057
0.136061
0.136064
0.136067
0.136071
0.136074
0.136077
0.136081
0.136104
0.136178
0.136179
0.13618
0.136181
0.136181
0.136182
0.136183
0.136184
0.136185
0.136186
0.136187
0.136188
0.136189
0.13619
0.136191
0.136193
0.136194
0.136195
0.136196
0.136198
0.136199
0.1362
0.136202
0.136203
0.136205
0.136206
0.136208
0.13621
0.136211
0.136213
0.136215
0.136217
0.136219
0.136221
0.136223
0.136225
0.136227
0.136229
0.136232
0.136234
0.136236
0.136239
0.136241
0.136244
0.136247
0.136249
0.136252
0.136255
0.136258
0.136261
0.136263
0.136266
0.136269
0.136272
0.136275
0.136278
0.136281
0.136284
0.136286
0.136289
0.136293
0.136314
0.136385
0.136386
0.136386
0.136387
0.136388
0.136389
0.13639
0.13639
0.136391
0.136392
0.136393
0.136394
0.136395
0.136396
0.136397
0.136398
0.136399
0.136401
0.136402
0.136403
0.136404
0.136406
0.136407
0.136408
0.13641
0.136411
0.136413
0.136414
0.136416
0.136417
0.136419
0.136421
0.136423
0.136424
0.136426
0.136428
0.13643
0.136432
0.136434
0.136436
0.136439
0.136441
0.136443
0.136445
0.136448
0.13645
0.136453
0.136455
0.136458
0.13646
0.136463
0.136465
0.136468
0.136471
0.136473
0.136476
0.136478
0.136481
0.136483
0.136485
0.136489
0.136509
0.136576
0.136577
0.136577
0.136578
0.136579
0.13658
0.13658
0.136581
0.136582
0.136583
0.136584
0.136585
0.136586
0.136587
0.136588
0.136589
0.13659
0.136591
0.136592
0.136593
0.136594
0.136595
0.136597
0.136598
0.136599
0.1366
0.136602
0.136603
0.136605
0.136606
0.136608
0.136609
0.136611
0.136613
0.136614
0.136616
0.136618
0.13662
0.136622
0.136624
0.136626
0.136628
0.13663
0.136632
0.136634
0.136636
0.136638
0.136641
0.136643
0.136645
0.136647
0.13665
0.136652
0.136654
0.136656
0.136659
0.136661
0.136663
0.136665
0.136667
0.13667
0.136689
0.136753
0.136754
0.136754
0.136755
0.136756
0.136756
0.136757
0.136758
0.136759
0.13676
0.13676
0.136761
0.136762
0.136763
0.136764
0.136765
0.136766
0.136767
0.136768
0.136769
0.13677
0.136771
0.136772
0.136773
0.136775
0.136776
0.136777
0.136778
0.13678
0.136781
0.136783
0.136784
0.136786
0.136787
0.136789
0.13679
0.136792
0.136794
0.136795
0.136797
0.136799
0.136801
0.136803
0.136804
0.136806
0.136808
0.13681
0.136812
0.136814
0.136816
0.136818
0.13682
0.136822
0.136824
0.136826
0.136828
0.13683
0.136832
0.136834
0.136835
0.136838
0.136856
0.136917
0.136918
0.136919
0.136919
0.13692
0.136921
0.136921
0.136922
0.136923
0.136923
0.136924
0.136925
0.136926
0.136927
0.136927
0.136928
0.136929
0.13693
0.136931
0.136932
0.136933
0.136934
0.136935
0.136936
0.136937
0.136939
0.13694
0.136941
0.136942
0.136944
0.136945
0.136946
0.136948
0.136949
0.13695
0.136952
0.136953
0.136955
0.136956
0.136958
0.13696
0.136961
0.136963
0.136965
0.136966
0.136968
0.13697
0.136972
0.136973
0.136975
0.136977
0.136979
0.136981
0.136982
0.136984
0.136986
0.136987
0.136989
0.13699
0.136992
0.136994
0.137012
0.13707
0.137071
0.137071
0.137072
0.137072
0.137073
0.137074
0.137074
0.137075
0.137076
0.137076
0.137077
0.137078
0.137079
0.13708
0.13708
0.137081
0.137082
0.137083
0.137084
0.137085
0.137086
0.137087
0.137088
0.137089
0.13709
0.137091
0.137092
0.137093
0.137094
0.137096
0.137097
0.137098
0.137099
0.137101
0.137102
0.137103
0.137105
0.137106
0.137108
0.137109
0.137111
0.137112
0.137114
0.137115
0.137117
0.137118
0.13712
0.137122
0.137123
0.137125
0.137126
0.137128
0.137129
0.137131
0.137132
0.137134
0.137135
0.137136
0.137138
0.13714
0.137156
0.137212
0.137213
0.137213
0.137214
0.137214
0.137215
0.137216
0.137216
0.137217
0.137218
0.137218
0.137219
0.13722
0.13722
0.137221
0.137222
0.137223
0.137224
0.137224
0.137225
0.137226
0.137227
0.137228
0.137229
0.13723
0.137231
0.137232
0.137233
0.137234
0.137235
0.137236
0.137237
0.137238
0.137239
0.137241
0.137242
0.137243
0.137244
0.137246
0.137247
0.137248
0.13725
0.137251
0.137252
0.137254
0.137255
0.137257
0.137258
0.137259
0.137261
0.137262
0.137264
0.137265
0.137266
0.137268
0.137269
0.13727
0.137271
0.137272
0.137274
0.137275
0.137291
0.137345
0.137345
0.137346
0.137346
0.137347
0.137348
0.137348
0.137349
0.137349
0.13735
0.137351
0.137351
0.137352
0.137353
0.137353
0.137354
0.137355
0.137355
0.137356
0.137357
0.137358
0.137359
0.137359
0.13736
0.137361
0.137362
0.137363
0.137364
0.137365
0.137366
0.137367
0.137368
0.137369
0.13737
0.137371
0.137372
0.137374
0.137375
0.137376
0.137377
0.137378
0.137379
0.137381
0.137382
0.137383
0.137384
0.137386
0.137387
0.137388
0.137389
0.137391
0.137392
0.137393
0.137394
0.137395
0.137397
0.137398
0.137399
0.1374
0.137401
0.137402
0.137417
0.137469
0.137469
0.13747
0.13747
0.137471
0.137471
0.137472
0.137472
0.137473
0.137473
0.137474
0.137475
0.137475
0.137476
0.137477
0.137477
0.137478
0.137479
0.137479
0.13748
0.137481
0.137482
0.137482
0.137483
0.137484
0.137485
0.137486
0.137487
0.137487
0.137488
0.137489
0.13749
0.137491
0.137492
0.137493
0.137494
0.137495
0.137496
0.137497
0.137499
0.1375
0.137501
0.137502
0.137503
0.137504
0.137505
0.137506
0.137507
0.137509
0.13751
0.137511
0.137512
0.137513
0.137514
0.137515
0.137516
0.137517
0.137518
0.137518
0.137519
0.137521
0.137535
0.137585
0.137585
0.137586
0.137586
0.137586
0.137587
0.137587
0.137588
0.137589
0.137589
0.13759
0.13759
0.137591
0.137591
0.137592
0.137593
0.137593
0.137594
0.137595
0.137595
0.137596
0.137597
0.137597
0.137598
0.137599
0.1376
0.1376
0.137601
0.137602
0.137603
0.137604
0.137605
0.137606
0.137606
0.137607
0.137608
0.137609
0.13761
0.137611
0.137612
0.137613
0.137614
0.137615
0.137616
0.137617
0.137618
0.137619
0.13762
0.137621
0.137622
0.137623
0.137624
0.137625
0.137626
0.137627
0.137628
0.137628
0.137629
0.13763
0.137631
0.137632
0.137645
0.137693
0.137694
0.137694
0.137694
0.137695
0.137695
0.137696
0.137696
0.137697
0.137697
0.137698
0.137698
0.137699
0.137699
0.1377
0.137701
0.137701
0.137702
0.137702
0.137703
0.137704
0.137704
0.137705
0.137706
0.137706
0.137707
0.137708
0.137709
0.137709
0.13771
0.137711
0.137712
0.137713
0.137713
0.137714
0.137715
0.137716
0.137717
0.137718
0.137719
0.13772
0.13772
0.137721
0.137722
0.137723
0.137724
0.137725
0.137726
0.137727
0.137728
0.137728
0.137729
0.13773
0.137731
0.137732
0.137732
0.137733
0.137734
0.137734
0.137735
0.137736
0.137749
0.137795
0.137795
0.137796
0.137796
0.137797
0.137797
0.137797
0.137798
0.137798
0.137799
0.137799
0.1378
0.1378
0.137801
0.137801
0.137802
0.137803
0.137803
0.137804
0.137804
0.137805
0.137805
0.137806
0.137807
0.137807
0.137808
0.137809
0.137809
0.13781
0.137811
0.137812
0.137812
0.137813
0.137814
0.137815
0.137815
0.137816
0.137817
0.137818
0.137819
0.137819
0.13782
0.137821
0.137822
0.137823
0.137823
0.137824
0.137825
0.137826
0.137827
0.137827
0.137828
0.137829
0.137829
0.13783
0.137831
0.137831
0.137832
0.137832
0.137833
0.137834
0.137846
0.137891
0.137891
0.137891
0.137892
0.137892
0.137893
0.137893
0.137893
0.137894
0.137894
0.137895
0.137895
0.137896
0.137896
0.137897
0.137897
0.137898
0.137898
0.137899
0.137899
0.1379
0.1379
0.137901
0.137902
0.137902
0.137903
0.137903
0.137904
0.137905
0.137905
0.137906
0.137907
0.137907
0.137908
0.137909
0.13791
0.13791
0.137911
0.137912
0.137912
0.137913
0.137914
0.137915
0.137915
0.137916
0.137917
0.137917
0.137918
0.137919
0.13792
0.13792
0.137921
0.137921
0.137922
0.137923
0.137923
0.137924
0.137924
0.137925
0.137925
0.137926
0.137938
0.13798
0.137981
0.137981
0.137982
0.137982
0.137982
0.137983
0.137983
0.137984
0.137984
0.137984
0.137985
0.137985
0.137986
0.137986
0.137987
0.137987
0.137988
0.137988
0.137989
0.137989
0.13799
0.13799
0.137991
0.137991
0.137992
0.137993
0.137993
0.137994
0.137994
0.137995
0.137996
0.137996
0.137997
0.137997
0.137998
0.137999
0.137999
0.138
0.138001
0.138001
0.138002
0.138003
0.138003
0.138004
0.138005
0.138005
0.138006
0.138006
0.138007
0.138008
0.138008
0.138009
0.138009
0.13801
0.13801
0.138011
0.138011
0.138011
0.138012
0.138012
0.138024
0.138065
0.138065
0.138066
0.138066
0.138067
0.138067
0.138067
0.138068
0.138068
0.138068
0.138069
0.138069
0.13807
0.13807
0.138071
0.138071
0.138071
0.138072
0.138072
0.138073
0.138073
0.138074
0.138074
0.138075
0.138075
0.138076
0.138076
0.138077
0.138077
0.138078
0.138079
0.138079
0.13808
0.13808
0.138081
0.138081
0.138082
0.138083
0.138083
0.138084
0.138084
0.138085
0.138086
0.138086
0.138087
0.138087
0.138088
0.138088
0.138089
0.13809
0.13809
0.138091
0.138091
0.138091
0.138092