/*--------------------------------*- C++ -*----------------------------------*\
  =========                 |
  \\      /  F ield         | OpenFOAM: The Open Source CFD Toolbox
   \\    /   O peration     | Website:  https://openfoam.org
    \\  /    A nd           | Version:  8
     \\/     M anipulation  |
\*---------------------------------------------------------------------------*/
FoamFile
{
    version     2.0;
    format      ascii;
    class       volScalarField;
    location    "0.19";
    object      nut;
}
// * * * * * * * * * * * * * * * * * * * * * * * * * * * * * * * * * * * * * //

dimensions      [0 2 -1 0 0 0 0];

internalField   nonuniform List<scalar> 
112642
(
2.7892e-08
2.79001e-08
2.78815e-08
2.78764e-08
2.78733e-08
2.78713e-08
2.787e-08
2.78691e-08
2.78684e-08
2.78678e-08
2.78673e-08
2.7867e-08
2.78666e-08
2.78664e-08
2.78661e-08
2.78659e-08
2.78657e-08
2.78655e-08
2.78654e-08
2.78653e-08
2.78651e-08
2.7865e-08
2.78649e-08
2.78648e-08
2.78647e-08
2.78647e-08
2.78646e-08
2.78645e-08
2.78644e-08
2.78644e-08
2.78643e-08
2.78643e-08
2.78642e-08
2.78642e-08
2.78641e-08
2.78641e-08
2.7864e-08
2.7864e-08
2.7864e-08
2.78639e-08
2.78639e-08
2.78639e-08
2.78638e-08
2.78638e-08
2.78638e-08
2.78638e-08
2.78637e-08
2.78637e-08
2.78637e-08
2.78637e-08
2.78636e-08
2.78636e-08
2.78636e-08
2.78636e-08
2.78636e-08
2.78635e-08
2.78635e-08
2.78635e-08
2.78635e-08
2.78635e-08
2.78635e-08
2.78635e-08
2.78634e-08
2.78634e-08
2.78634e-08
2.78634e-08
2.78634e-08
2.78634e-08
2.78634e-08
2.78634e-08
2.78634e-08
2.78634e-08
2.78634e-08
2.78633e-08
2.78633e-08
2.78633e-08
2.78633e-08
2.78633e-08
2.78633e-08
2.78633e-08
2.78633e-08
2.78633e-08
2.78633e-08
2.78633e-08
2.78633e-08
2.78633e-08
2.78633e-08
2.78633e-08
2.78633e-08
2.78633e-08
2.78633e-08
2.78633e-08
2.78633e-08
2.78633e-08
2.78633e-08
2.78633e-08
2.78633e-08
2.78633e-08
2.78633e-08
2.78633e-08
2.78633e-08
2.78633e-08
2.78633e-08
2.78633e-08
2.78633e-08
2.78633e-08
2.78633e-08
2.78633e-08
2.78633e-08
2.78633e-08
2.78633e-08
2.78633e-08
2.78633e-08
2.78633e-08
2.78633e-08
2.78634e-08
2.78634e-08
2.78634e-08
2.78634e-08
2.78634e-08
2.78634e-08
2.78634e-08
2.78634e-08
2.78634e-08
2.78634e-08
2.78635e-08
2.78635e-08
2.78635e-08
2.78635e-08
2.78635e-08
2.78635e-08
2.78635e-08
2.78636e-08
2.78636e-08
2.78636e-08
2.78636e-08
2.78636e-08
2.78636e-08
2.78637e-08
2.78637e-08
2.78637e-08
2.78637e-08
2.78638e-08
2.78638e-08
2.78638e-08
2.78638e-08
2.78639e-08
2.78639e-08
2.78639e-08
2.7864e-08
2.7864e-08
2.7864e-08
2.78641e-08
2.78641e-08
2.78641e-08
2.78642e-08
2.78642e-08
2.78643e-08
2.78643e-08
2.78644e-08
2.78644e-08
2.78645e-08
2.78645e-08
2.78646e-08
2.78647e-08
2.78647e-08
2.78648e-08
2.78649e-08
2.7865e-08
2.78651e-08
2.78652e-08
2.78653e-08
2.78654e-08
2.78655e-08
2.78657e-08
2.78658e-08
2.7866e-08
2.78661e-08
2.78663e-08
2.78665e-08
2.78667e-08
2.7867e-08
2.78673e-08
2.78676e-08
2.78679e-08
2.78683e-08
2.78688e-08
2.78693e-08
2.78699e-08
2.78707e-08
2.78716e-08
2.78727e-08
2.78741e-08
2.78759e-08
2.78783e-08
2.78818e-08
2.78874e-08
2.78962e-08
2.79292e-08
2.79155e-08
2.79233e-08
2.79678e-08
2.79213e-08
2.79054e-08
2.78961e-08
2.78903e-08
2.78865e-08
2.78837e-08
2.78815e-08
2.78797e-08
2.78783e-08
2.78771e-08
2.78761e-08
2.78752e-08
2.78745e-08
2.78738e-08
2.78733e-08
2.78727e-08
2.78723e-08
2.78718e-08
2.78715e-08
2.78711e-08
2.78708e-08
2.78705e-08
2.78702e-08
2.787e-08
2.78697e-08
2.78695e-08
2.78693e-08
2.78691e-08
2.7869e-08
2.78688e-08
2.78686e-08
2.78685e-08
2.78683e-08
2.78682e-08
2.78681e-08
2.7868e-08
2.78679e-08
2.78678e-08
2.78677e-08
2.78676e-08
2.78675e-08
2.78674e-08
2.78673e-08
2.78672e-08
2.78671e-08
2.78671e-08
2.7867e-08
2.78669e-08
2.78669e-08
2.78668e-08
2.78667e-08
2.78667e-08
2.78666e-08
2.78666e-08
2.78665e-08
2.78665e-08
2.78664e-08
2.78664e-08
2.78663e-08
2.78663e-08
2.78663e-08
2.78662e-08
2.78662e-08
2.78662e-08
2.78661e-08
2.78661e-08
2.78661e-08
2.7866e-08
2.7866e-08
2.7866e-08
2.7866e-08
2.78659e-08
2.78659e-08
2.78659e-08
2.78659e-08
2.78659e-08
2.78659e-08
2.78658e-08
2.78658e-08
2.78658e-08
2.78658e-08
2.78658e-08
2.78658e-08
2.78658e-08
2.78658e-08
2.78658e-08
2.78658e-08
2.78657e-08
2.78657e-08
2.78657e-08
2.78657e-08
2.78657e-08
2.78657e-08
2.78657e-08
2.78657e-08
2.78657e-08
2.78658e-08
2.78658e-08
2.78658e-08
2.78658e-08
2.78658e-08
2.78658e-08
2.78658e-08
2.78658e-08
2.78658e-08
2.78658e-08
2.78658e-08
2.78659e-08
2.78659e-08
2.78659e-08
2.78659e-08
2.78659e-08
2.7866e-08
2.7866e-08
2.7866e-08
2.7866e-08
2.7866e-08
2.78661e-08
2.78661e-08
2.78661e-08
2.78662e-08
2.78662e-08
2.78662e-08
2.78663e-08
2.78663e-08
2.78663e-08
2.78664e-08
2.78664e-08
2.78665e-08
2.78665e-08
2.78666e-08
2.78666e-08
2.78667e-08
2.78667e-08
2.78668e-08
2.78668e-08
2.78669e-08
2.7867e-08
2.7867e-08
2.78671e-08
2.78672e-08
2.78672e-08
2.78673e-08
2.78674e-08
2.78675e-08
2.78676e-08
2.78677e-08
2.78678e-08
2.78679e-08
2.7868e-08
2.78681e-08
2.78682e-08
2.78683e-08
2.78685e-08
2.78686e-08
2.78688e-08
2.78689e-08
2.78691e-08
2.78692e-08
2.78694e-08
2.78696e-08
2.78698e-08
2.787e-08
2.78702e-08
2.78704e-08
2.78707e-08
2.7871e-08
2.78712e-08
2.78715e-08
2.78719e-08
2.78722e-08
2.78726e-08
2.7873e-08
2.78735e-08
2.78739e-08
2.78745e-08
2.7875e-08
2.78757e-08
2.78763e-08
2.78771e-08
2.78779e-08
2.78789e-08
2.78799e-08
2.78811e-08
2.78825e-08
2.78841e-08
2.7886e-08
2.78883e-08
2.7891e-08
2.78944e-08
2.78986e-08
2.79039e-08
2.79111e-08
2.79217e-08
2.79381e-08
2.79657e-08
2.80476e-08
2.79699e-08
2.7943e-08
2.80288e-08
2.79579e-08
2.7933e-08
2.79182e-08
2.7909e-08
2.79028e-08
2.78982e-08
2.78946e-08
2.78916e-08
2.78893e-08
2.78873e-08
2.78856e-08
2.78842e-08
2.78829e-08
2.78818e-08
2.78809e-08
2.788e-08
2.78792e-08
2.78785e-08
2.78779e-08
2.78773e-08
2.78768e-08
2.78763e-08
2.78758e-08
2.78754e-08
2.7875e-08
2.78746e-08
2.78743e-08
2.78739e-08
2.78736e-08
2.78734e-08
2.78731e-08
2.78728e-08
2.78726e-08
2.78724e-08
2.78722e-08
2.7872e-08
2.78718e-08
2.78716e-08
2.78714e-08
2.78713e-08
2.78711e-08
2.7871e-08
2.78708e-08
2.78707e-08
2.78706e-08
2.78704e-08
2.78703e-08
2.78702e-08
2.78701e-08
2.787e-08
2.78699e-08
2.78698e-08
2.78697e-08
2.78696e-08
2.78695e-08
2.78695e-08
2.78694e-08
2.78693e-08
2.78692e-08
2.78692e-08
2.78691e-08
2.7869e-08
2.7869e-08
2.78689e-08
2.78689e-08
2.78688e-08
2.78688e-08
2.78687e-08
2.78687e-08
2.78686e-08
2.78686e-08
2.78686e-08
2.78685e-08
2.78685e-08
2.78685e-08
2.78684e-08
2.78684e-08
2.78684e-08
2.78684e-08
2.78683e-08
2.78683e-08
2.78683e-08
2.78683e-08
2.78683e-08
2.78683e-08
2.78683e-08
2.78682e-08
2.78682e-08
2.78682e-08
2.78682e-08
2.78682e-08
2.78682e-08
2.78682e-08
2.78682e-08
2.78682e-08
2.78682e-08
2.78682e-08
2.78682e-08
2.78683e-08
2.78683e-08
2.78683e-08
2.78683e-08
2.78683e-08
2.78683e-08
2.78683e-08
2.78684e-08
2.78684e-08
2.78684e-08
2.78684e-08
2.78685e-08
2.78685e-08
2.78685e-08
2.78686e-08
2.78686e-08
2.78686e-08
2.78687e-08
2.78687e-08
2.78688e-08
2.78688e-08
2.78689e-08
2.78689e-08
2.7869e-08
2.7869e-08
2.78691e-08
2.78692e-08
2.78692e-08
2.78693e-08
2.78694e-08
2.78694e-08
2.78695e-08
2.78696e-08
2.78697e-08
2.78698e-08
2.78699e-08
2.787e-08
2.78701e-08
2.78702e-08
2.78703e-08
2.78704e-08
2.78705e-08
2.78706e-08
2.78707e-08
2.78709e-08
2.7871e-08
2.78712e-08
2.78713e-08
2.78715e-08
2.78716e-08
2.78718e-08
2.7872e-08
2.78722e-08
2.78724e-08
2.78726e-08
2.78728e-08
2.7873e-08
2.78733e-08
2.78735e-08
2.78738e-08
2.78741e-08
2.78743e-08
2.78747e-08
2.7875e-08
2.78753e-08
2.78757e-08
2.78761e-08
2.78765e-08
2.7877e-08
2.78775e-08
2.7878e-08
2.78785e-08
2.78791e-08
2.78797e-08
2.78804e-08
2.78812e-08
2.7882e-08
2.78828e-08
2.78838e-08
2.78848e-08
2.78859e-08
2.78872e-08
2.78886e-08
2.78902e-08
2.78919e-08
2.78939e-08
2.78962e-08
2.78988e-08
2.7902e-08
2.79057e-08
2.79101e-08
2.79157e-08
2.79226e-08
2.79313e-08
2.79429e-08
2.79599e-08
2.7986e-08
2.80291e-08
2.81537e-08
2.80036e-08
2.79588e-08
2.80849e-08
2.79923e-08
2.79595e-08
2.79398e-08
2.79274e-08
2.7919e-08
2.79127e-08
2.79076e-08
2.79035e-08
2.79003e-08
2.78975e-08
2.78952e-08
2.78932e-08
2.78914e-08
2.78899e-08
2.78885e-08
2.78873e-08
2.78862e-08
2.78852e-08
2.78843e-08
2.78835e-08
2.78828e-08
2.78821e-08
2.78814e-08
2.78808e-08
2.78803e-08
2.78798e-08
2.78793e-08
2.78788e-08
2.78784e-08
2.7878e-08
2.78776e-08
2.78773e-08
2.78769e-08
2.78766e-08
2.78763e-08
2.7876e-08
2.78758e-08
2.78755e-08
2.78753e-08
2.7875e-08
2.78748e-08
2.78746e-08
2.78744e-08
2.78742e-08
2.7874e-08
2.78739e-08
2.78737e-08
2.78735e-08
2.78734e-08
2.78732e-08
2.78731e-08
2.7873e-08
2.78728e-08
2.78727e-08
2.78726e-08
2.78725e-08
2.78724e-08
2.78723e-08
2.78722e-08
2.78721e-08
2.7872e-08
2.78719e-08
2.78718e-08
2.78717e-08
2.78717e-08
2.78716e-08
2.78715e-08
2.78715e-08
2.78714e-08
2.78713e-08
2.78713e-08
2.78712e-08
2.78712e-08
2.78711e-08
2.78711e-08
2.7871e-08
2.7871e-08
2.7871e-08
2.78709e-08
2.78709e-08
2.78709e-08
2.78709e-08
2.78708e-08
2.78708e-08
2.78708e-08
2.78708e-08
2.78708e-08
2.78707e-08
2.78707e-08
2.78707e-08
2.78707e-08
2.78707e-08
2.78707e-08
2.78707e-08
2.78707e-08
2.78707e-08
2.78707e-08
2.78708e-08
2.78708e-08
2.78708e-08
2.78708e-08
2.78708e-08
2.78708e-08
2.78709e-08
2.78709e-08
2.78709e-08
2.7871e-08
2.7871e-08
2.7871e-08
2.78711e-08
2.78711e-08
2.78712e-08
2.78712e-08
2.78713e-08
2.78713e-08
2.78714e-08
2.78714e-08
2.78715e-08
2.78716e-08
2.78716e-08
2.78717e-08
2.78718e-08
2.78719e-08
2.7872e-08
2.7872e-08
2.78721e-08
2.78722e-08
2.78723e-08
2.78724e-08
2.78725e-08
2.78727e-08
2.78728e-08
2.78729e-08
2.7873e-08
2.78732e-08
2.78733e-08
2.78735e-08
2.78736e-08
2.78738e-08
2.78739e-08
2.78741e-08
2.78743e-08
2.78745e-08
2.78747e-08
2.78749e-08
2.78751e-08
2.78753e-08
2.78755e-08
2.78758e-08
2.7876e-08
2.78763e-08
2.78766e-08
2.78769e-08
2.78772e-08
2.78775e-08
2.78778e-08
2.78782e-08
2.78785e-08
2.78789e-08
2.78794e-08
2.78798e-08
2.78803e-08
2.78807e-08
2.78813e-08
2.78818e-08
2.78824e-08
2.78831e-08
2.78837e-08
2.78845e-08
2.78852e-08
2.78861e-08
2.78869e-08
2.78879e-08
2.78889e-08
2.789e-08
2.78912e-08
2.78925e-08
2.7894e-08
2.78955e-08
2.78973e-08
2.78992e-08
2.79014e-08
2.79038e-08
2.79066e-08
2.79098e-08
2.79135e-08
2.79178e-08
2.79229e-08
2.79291e-08
2.79368e-08
2.79463e-08
2.79583e-08
2.79741e-08
2.79968e-08
2.80317e-08
2.80885e-08
2.82509e-08
2.80306e-08
2.79786e-08
2.81361e-08
2.80252e-08
2.79851e-08
2.79608e-08
2.79455e-08
2.7935e-08
2.7927e-08
2.79206e-08
2.79154e-08
2.79113e-08
2.79078e-08
2.79048e-08
2.79022e-08
2.78999e-08
2.7898e-08
2.78962e-08
2.78947e-08
2.78933e-08
2.7892e-08
2.78909e-08
2.78898e-08
2.78888e-08
2.78879e-08
2.78871e-08
2.78863e-08
2.78856e-08
2.7885e-08
2.78843e-08
2.78837e-08
2.78832e-08
2.78827e-08
2.78822e-08
2.78817e-08
2.78813e-08
2.78809e-08
2.78805e-08
2.78801e-08
2.78798e-08
2.78794e-08
2.78791e-08
2.78788e-08
2.78786e-08
2.78783e-08
2.7878e-08
2.78778e-08
2.78775e-08
2.78773e-08
2.78771e-08
2.78769e-08
2.78767e-08
2.78765e-08
2.78763e-08
2.78762e-08
2.7876e-08
2.78758e-08
2.78757e-08
2.78755e-08
2.78754e-08
2.78753e-08
2.78751e-08
2.7875e-08
2.78749e-08
2.78748e-08
2.78747e-08
2.78746e-08
2.78745e-08
2.78744e-08
2.78743e-08
2.78742e-08
2.78741e-08
2.78741e-08
2.7874e-08
2.78739e-08
2.78739e-08
2.78738e-08
2.78737e-08
2.78737e-08
2.78736e-08
2.78736e-08
2.78735e-08
2.78735e-08
2.78735e-08
2.78734e-08
2.78734e-08
2.78734e-08
2.78733e-08
2.78733e-08
2.78733e-08
2.78733e-08
2.78733e-08
2.78733e-08
2.78733e-08
2.78733e-08
2.78733e-08
2.78733e-08
2.78733e-08
2.78733e-08
2.78733e-08
2.78733e-08
2.78733e-08
2.78733e-08
2.78734e-08
2.78734e-08
2.78734e-08
2.78735e-08
2.78735e-08
2.78735e-08
2.78736e-08
2.78736e-08
2.78737e-08
2.78737e-08
2.78738e-08
2.78738e-08
2.78739e-08
2.7874e-08
2.7874e-08
2.78741e-08
2.78742e-08
2.78743e-08
2.78743e-08
2.78744e-08
2.78745e-08
2.78746e-08
2.78747e-08
2.78748e-08
2.7875e-08
2.78751e-08
2.78752e-08
2.78753e-08
2.78755e-08
2.78756e-08
2.78758e-08
2.78759e-08
2.78761e-08
2.78763e-08
2.78764e-08
2.78766e-08
2.78768e-08
2.7877e-08
2.78772e-08
2.78774e-08
2.78776e-08
2.78779e-08
2.78781e-08
2.78784e-08
2.78786e-08
2.78789e-08
2.78792e-08
2.78795e-08
2.78798e-08
2.78801e-08
2.78804e-08
2.78808e-08
2.78812e-08
2.78816e-08
2.7882e-08
2.78824e-08
2.78829e-08
2.78833e-08
2.78839e-08
2.78844e-08
2.7885e-08
2.78856e-08
2.78862e-08
2.78869e-08
2.78876e-08
2.78884e-08
2.78892e-08
2.789e-08
2.7891e-08
2.7892e-08
2.7893e-08
2.78942e-08
2.78954e-08
2.78967e-08
2.78981e-08
2.78996e-08
2.79013e-08
2.79032e-08
2.79052e-08
2.79074e-08
2.79099e-08
2.79127e-08
2.79158e-08
2.79193e-08
2.79234e-08
2.79281e-08
2.79336e-08
2.79401e-08
2.79479e-08
2.79576e-08
2.79696e-08
2.79847e-08
2.80045e-08
2.80327e-08
2.80757e-08
2.81448e-08
2.83394e-08
2.80645e-08
2.8001e-08
2.81848e-08
2.80566e-08
2.801e-08
2.79815e-08
2.79635e-08
2.79509e-08
2.79413e-08
2.79336e-08
2.79273e-08
2.79223e-08
2.7918e-08
2.79144e-08
2.79112e-08
2.79085e-08
2.79061e-08
2.7904e-08
2.79021e-08
2.79003e-08
2.78988e-08
2.78974e-08
2.78961e-08
2.78949e-08
2.78938e-08
2.78928e-08
2.78919e-08
2.7891e-08
2.78902e-08
2.78894e-08
2.78887e-08
2.7888e-08
2.78874e-08
2.78868e-08
2.78862e-08
2.78857e-08
2.78852e-08
2.78847e-08
2.78843e-08
2.78838e-08
2.78834e-08
2.7883e-08
2.78827e-08
2.78823e-08
2.7882e-08
2.78817e-08
2.78814e-08
2.78811e-08
2.78808e-08
2.78805e-08
2.78803e-08
2.788e-08
2.78798e-08
2.78796e-08
2.78794e-08
2.78792e-08
2.7879e-08
2.78788e-08
2.78786e-08
2.78784e-08
2.78783e-08
2.78781e-08
2.7878e-08
2.78778e-08
2.78777e-08
2.78776e-08
2.78774e-08
2.78773e-08
2.78772e-08
2.78771e-08
2.7877e-08
2.78769e-08
2.78768e-08
2.78767e-08
2.78766e-08
2.78766e-08
2.78765e-08
2.78764e-08
2.78763e-08
2.78763e-08
2.78762e-08
2.78762e-08
2.78761e-08
2.78761e-08
2.7876e-08
2.7876e-08
2.7876e-08
2.78759e-08
2.78759e-08
2.78759e-08
2.78759e-08
2.78759e-08
2.78758e-08
2.78758e-08
2.78758e-08
2.78758e-08
2.78758e-08
2.78758e-08
2.78758e-08
2.78759e-08
2.78759e-08
2.78759e-08
2.78759e-08
2.7876e-08
2.7876e-08
2.7876e-08
2.78761e-08
2.78761e-08
2.78762e-08
2.78762e-08
2.78763e-08
2.78763e-08
2.78764e-08
2.78765e-08
2.78765e-08
2.78766e-08
2.78767e-08
2.78768e-08
2.78769e-08
2.7877e-08
2.78771e-08
2.78772e-08
2.78773e-08
2.78774e-08
2.78775e-08
2.78776e-08
2.78778e-08
2.78779e-08
2.78781e-08
2.78782e-08
2.78784e-08
2.78785e-08
2.78787e-08
2.78789e-08
2.78791e-08
2.78793e-08
2.78795e-08
2.78797e-08
2.78799e-08
2.78802e-08
2.78804e-08
2.78806e-08
2.78809e-08
2.78812e-08
2.78815e-08
2.78818e-08
2.78821e-08
2.78824e-08
2.78827e-08
2.78831e-08
2.78834e-08
2.78838e-08
2.78842e-08
2.78846e-08
2.78851e-08
2.78855e-08
2.7886e-08
2.78865e-08
2.78871e-08
2.78876e-08
2.78882e-08
2.78888e-08
2.78895e-08
2.78902e-08
2.78909e-08
2.78917e-08
2.78925e-08
2.78934e-08
2.78943e-08
2.78953e-08
2.78964e-08
2.78975e-08
2.78987e-08
2.79e-08
2.79014e-08
2.79029e-08
2.79045e-08
2.79062e-08
2.7908e-08
2.79101e-08
2.79123e-08
2.79148e-08
2.79175e-08
2.79205e-08
2.79239e-08
2.79277e-08
2.79319e-08
2.79369e-08
2.79426e-08
2.79493e-08
2.79572e-08
2.79666e-08
2.79782e-08
2.79927e-08
2.80108e-08
2.80344e-08
2.80676e-08
2.81181e-08
2.81981e-08
2.8423e-08
2.81028e-08
2.80194e-08
2.82312e-08
2.80869e-08
2.80342e-08
2.80019e-08
2.79812e-08
2.79667e-08
2.79555e-08
2.79465e-08
2.79392e-08
2.79333e-08
2.79283e-08
2.7924e-08
2.79203e-08
2.79171e-08
2.79143e-08
2.79118e-08
2.79095e-08
2.79075e-08
2.79057e-08
2.7904e-08
2.79025e-08
2.79011e-08
2.78998e-08
2.78986e-08
2.78975e-08
2.78964e-08
2.78955e-08
2.78946e-08
2.78937e-08
2.78929e-08
2.78922e-08
2.78915e-08
2.78908e-08
2.78902e-08
2.78896e-08
2.7889e-08
2.78885e-08
2.7888e-08
2.78875e-08
2.7887e-08
2.78866e-08
2.78862e-08
2.78858e-08
2.78854e-08
2.7885e-08
2.78847e-08
2.78843e-08
2.7884e-08
2.78837e-08
2.78834e-08
2.78832e-08
2.78829e-08
2.78826e-08
2.78824e-08
2.78822e-08
2.78819e-08
2.78817e-08
2.78815e-08
2.78813e-08
2.78811e-08
2.7881e-08
2.78808e-08
2.78806e-08
2.78805e-08
2.78803e-08
2.78802e-08
2.78801e-08
2.78799e-08
2.78798e-08
2.78797e-08
2.78796e-08
2.78795e-08
2.78794e-08
2.78793e-08
2.78792e-08
2.78791e-08
2.7879e-08
2.7879e-08
2.78789e-08
2.78788e-08
2.78788e-08
2.78787e-08
2.78787e-08
2.78786e-08
2.78786e-08
2.78785e-08
2.78785e-08
2.78785e-08
2.78785e-08
2.78784e-08
2.78784e-08
2.78784e-08
2.78784e-08
2.78784e-08
2.78784e-08
2.78784e-08
2.78784e-08
2.78785e-08
2.78785e-08
2.78785e-08
2.78785e-08
2.78786e-08
2.78786e-08
2.78787e-08
2.78787e-08
2.78788e-08
2.78788e-08
2.78789e-08
2.78789e-08
2.7879e-08
2.78791e-08
2.78792e-08
2.78792e-08
2.78793e-08
2.78794e-08
2.78795e-08
2.78796e-08
2.78798e-08
2.78799e-08
2.788e-08
2.78801e-08
2.78803e-08
2.78804e-08
2.78806e-08
2.78807e-08
2.78809e-08
2.78811e-08
2.78813e-08
2.78814e-08
2.78816e-08
2.78818e-08
2.78821e-08
2.78823e-08
2.78825e-08
2.78828e-08
2.7883e-08
2.78833e-08
2.78835e-08
2.78838e-08
2.78841e-08
2.78844e-08
2.78848e-08
2.78851e-08
2.78854e-08
2.78858e-08
2.78862e-08
2.78866e-08
2.7887e-08
2.78874e-08
2.78879e-08
2.78884e-08
2.78888e-08
2.78894e-08
2.78899e-08
2.78905e-08
2.78911e-08
2.78917e-08
2.78924e-08
2.78931e-08
2.78938e-08
2.78946e-08
2.78954e-08
2.78963e-08
2.78972e-08
2.78982e-08
2.78992e-08
2.79003e-08
2.79015e-08
2.79028e-08
2.79041e-08
2.79055e-08
2.7907e-08
2.79086e-08
2.79104e-08
2.79122e-08
2.79143e-08
2.79165e-08
2.79189e-08
2.79215e-08
2.79244e-08
2.79276e-08
2.79311e-08
2.79351e-08
2.79396e-08
2.79446e-08
2.79504e-08
2.79571e-08
2.79649e-08
2.79741e-08
2.79851e-08
2.79986e-08
2.80154e-08
2.80364e-08
2.80636e-08
2.81016e-08
2.81591e-08
2.82493e-08
2.85021e-08
2.8134e-08
2.80416e-08
2.82742e-08
2.81162e-08
2.80579e-08
2.80219e-08
2.79988e-08
2.79823e-08
2.79696e-08
2.79594e-08
2.79511e-08
2.79443e-08
2.79386e-08
2.79337e-08
2.79294e-08
2.79257e-08
2.79225e-08
2.79196e-08
2.7917e-08
2.79147e-08
2.79126e-08
2.79106e-08
2.79089e-08
2.79072e-08
2.79058e-08
2.79044e-08
2.79031e-08
2.79019e-08
2.79008e-08
2.78997e-08
2.78988e-08
2.78978e-08
2.7897e-08
2.78962e-08
2.78954e-08
2.78947e-08
2.7894e-08
2.78933e-08
2.78927e-08
2.78921e-08
2.78915e-08
2.7891e-08
2.78905e-08
2.789e-08
2.78895e-08
2.78891e-08
2.78887e-08
2.78883e-08
2.78879e-08
2.78875e-08
2.78872e-08
2.78868e-08
2.78865e-08
2.78862e-08
2.78859e-08
2.78856e-08
2.78854e-08
2.78851e-08
2.78849e-08
2.78846e-08
2.78844e-08
2.78842e-08
2.7884e-08
2.78838e-08
2.78836e-08
2.78834e-08
2.78833e-08
2.78831e-08
2.78829e-08
2.78828e-08
2.78827e-08
2.78825e-08
2.78824e-08
2.78823e-08
2.78822e-08
2.7882e-08
2.78819e-08
2.78818e-08
2.78818e-08
2.78817e-08
2.78816e-08
2.78815e-08
2.78814e-08
2.78814e-08
2.78813e-08
2.78813e-08
2.78812e-08
2.78812e-08
2.78812e-08
2.78811e-08
2.78811e-08
2.78811e-08
2.78811e-08
2.7881e-08
2.7881e-08
2.7881e-08
2.7881e-08
2.78811e-08
2.78811e-08
2.78811e-08
2.78811e-08
2.78811e-08
2.78812e-08
2.78812e-08
2.78813e-08
2.78813e-08
2.78814e-08
2.78814e-08
2.78815e-08
2.78816e-08
2.78816e-08
2.78817e-08
2.78818e-08
2.78819e-08
2.7882e-08
2.78821e-08
2.78822e-08
2.78823e-08
2.78824e-08
2.78826e-08
2.78827e-08
2.78829e-08
2.7883e-08
2.78832e-08
2.78833e-08
2.78835e-08
2.78837e-08
2.78839e-08
2.78841e-08
2.78843e-08
2.78845e-08
2.78848e-08
2.7885e-08
2.78852e-08
2.78855e-08
2.78858e-08
2.78861e-08
2.78863e-08
2.78866e-08
2.7887e-08
2.78873e-08
2.78876e-08
2.7888e-08
2.78884e-08
2.78887e-08
2.78892e-08
2.78896e-08
2.789e-08
2.78905e-08
2.7891e-08
2.78915e-08
2.7892e-08
2.78925e-08
2.78931e-08
2.78937e-08
2.78943e-08
2.7895e-08
2.78957e-08
2.78964e-08
2.78972e-08
2.7898e-08
2.78989e-08
2.78998e-08
2.79007e-08
2.79017e-08
2.79028e-08
2.79039e-08
2.79051e-08
2.79064e-08
2.79077e-08
2.79091e-08
2.79107e-08
2.79123e-08
2.7914e-08
2.79159e-08
2.79179e-08
2.792e-08
2.79224e-08
2.79249e-08
2.79276e-08
2.79307e-08
2.7934e-08
2.79376e-08
2.79417e-08
2.79463e-08
2.79514e-08
2.79572e-08
2.79638e-08
2.79715e-08
2.79804e-08
2.79909e-08
2.80034e-08
2.80188e-08
2.80378e-08
2.80616e-08
2.80923e-08
2.81348e-08
2.81988e-08
2.82982e-08
2.85746e-08
2.81714e-08
2.80645e-08
2.83163e-08
2.81443e-08
2.8081e-08
2.80416e-08
2.80161e-08
2.79978e-08
2.79836e-08
2.79722e-08
2.79629e-08
2.79553e-08
2.79489e-08
2.79433e-08
2.79385e-08
2.79344e-08
2.79308e-08
2.79275e-08
2.79245e-08
2.79219e-08
2.79195e-08
2.79173e-08
2.79153e-08
2.79135e-08
2.79118e-08
2.79102e-08
2.79087e-08
2.79074e-08
2.79061e-08
2.79049e-08
2.79038e-08
2.79028e-08
2.79018e-08
2.79009e-08
2.79e-08
2.78992e-08
2.78984e-08
2.78977e-08
2.7897e-08
2.78963e-08
2.78956e-08
2.7895e-08
2.78945e-08
2.78939e-08
2.78934e-08
2.78929e-08
2.78924e-08
2.78919e-08
2.78915e-08
2.78911e-08
2.78907e-08
2.78903e-08
2.78899e-08
2.78896e-08
2.78892e-08
2.78889e-08
2.78886e-08
2.78883e-08
2.7888e-08
2.78878e-08
2.78875e-08
2.78873e-08
2.7887e-08
2.78868e-08
2.78866e-08
2.78864e-08
2.78862e-08
2.7886e-08
2.78859e-08
2.78857e-08
2.78855e-08
2.78854e-08
2.78852e-08
2.78851e-08
2.7885e-08
2.78848e-08
2.78847e-08
2.78846e-08
2.78845e-08
2.78844e-08
2.78843e-08
2.78842e-08
2.78841e-08
2.78841e-08
2.7884e-08
2.7884e-08
2.78839e-08
2.78838e-08
2.78838e-08
2.78838e-08
2.78837e-08
2.78837e-08
2.78837e-08
2.78837e-08
2.78837e-08
2.78837e-08
2.78837e-08
2.78837e-08
2.78837e-08
2.78837e-08
2.78838e-08
2.78838e-08
2.78838e-08
2.78839e-08
2.78839e-08
2.7884e-08
2.7884e-08
2.78841e-08
2.78842e-08
2.78843e-08
2.78843e-08
2.78844e-08
2.78845e-08
2.78846e-08
2.78848e-08
2.78849e-08
2.7885e-08
2.78851e-08
2.78853e-08
2.78854e-08
2.78856e-08
2.78857e-08
2.78859e-08
2.78861e-08
2.78863e-08
2.78865e-08
2.78867e-08
2.78869e-08
2.78872e-08
2.78874e-08
2.78876e-08
2.78879e-08
2.78882e-08
2.78885e-08
2.78887e-08
2.78891e-08
2.78894e-08
2.78897e-08
2.789e-08
2.78904e-08
2.78908e-08
2.78912e-08
2.78916e-08
2.7892e-08
2.78924e-08
2.78929e-08
2.78934e-08
2.78939e-08
2.78944e-08
2.78949e-08
2.78955e-08
2.78961e-08
2.78967e-08
2.78974e-08
2.78981e-08
2.78988e-08
2.78995e-08
2.79003e-08
2.79012e-08
2.7902e-08
2.79029e-08
2.79039e-08
2.79049e-08
2.7906e-08
2.79072e-08
2.79084e-08
2.79096e-08
2.7911e-08
2.79124e-08
2.79139e-08
2.79155e-08
2.79173e-08
2.79191e-08
2.79211e-08
2.79231e-08
2.79254e-08
2.79278e-08
2.79305e-08
2.79333e-08
2.79364e-08
2.79399e-08
2.79436e-08
2.79477e-08
2.79523e-08
2.79575e-08
2.79633e-08
2.79698e-08
2.79772e-08
2.79859e-08
2.79959e-08
2.80076e-08
2.80216e-08
2.80387e-08
2.80599e-08
2.80864e-08
2.81204e-08
2.81672e-08
2.82373e-08
2.83449e-08
2.86452e-08
2.821e-08
2.80883e-08
2.83564e-08
2.81718e-08
2.81036e-08
2.80611e-08
2.80333e-08
2.80132e-08
2.79975e-08
2.79849e-08
2.79747e-08
2.79663e-08
2.79591e-08
2.7953e-08
2.79477e-08
2.79431e-08
2.7939e-08
2.79354e-08
2.79321e-08
2.79291e-08
2.79264e-08
2.7924e-08
2.79218e-08
2.79197e-08
2.79178e-08
2.79161e-08
2.79144e-08
2.79129e-08
2.79115e-08
2.79102e-08
2.79089e-08
2.79078e-08
2.79067e-08
2.79056e-08
2.79047e-08
2.79037e-08
2.79029e-08
2.7902e-08
2.79012e-08
2.79005e-08
2.78998e-08
2.78991e-08
2.78984e-08
2.78978e-08
2.78972e-08
2.78967e-08
2.78961e-08
2.78956e-08
2.78951e-08
2.78947e-08
2.78942e-08
2.78938e-08
2.78934e-08
2.7893e-08
2.78926e-08
2.78922e-08
2.78919e-08
2.78916e-08
2.78912e-08
2.78909e-08
2.78907e-08
2.78904e-08
2.78901e-08
2.78899e-08
2.78896e-08
2.78894e-08
2.78892e-08
2.7889e-08
2.78888e-08
2.78886e-08
2.78884e-08
2.78882e-08
2.78881e-08
2.78879e-08
2.78878e-08
2.78876e-08
2.78875e-08
2.78874e-08
2.78873e-08
2.78871e-08
2.7887e-08
2.7887e-08
2.78869e-08
2.78868e-08
2.78867e-08
2.78866e-08
2.78866e-08
2.78865e-08
2.78865e-08
2.78864e-08
2.78864e-08
2.78864e-08
2.78864e-08
2.78863e-08
2.78863e-08
2.78863e-08
2.78863e-08
2.78864e-08
2.78864e-08
2.78864e-08
2.78864e-08
2.78865e-08
2.78865e-08
2.78866e-08
2.78866e-08
2.78867e-08
2.78867e-08
2.78868e-08
2.78869e-08
2.7887e-08
2.78871e-08
2.78872e-08
2.78873e-08
2.78874e-08
2.78875e-08
2.78877e-08
2.78878e-08
2.7888e-08
2.78881e-08
2.78883e-08
2.78885e-08
2.78887e-08
2.78888e-08
2.7889e-08
2.78893e-08
2.78895e-08
2.78897e-08
2.789e-08
2.78902e-08
2.78905e-08
2.78908e-08
2.78911e-08
2.78914e-08
2.78917e-08
2.7892e-08
2.78924e-08
2.78927e-08
2.78931e-08
2.78935e-08
2.78939e-08
2.78943e-08
2.78947e-08
2.78952e-08
2.78956e-08
2.78961e-08
2.78967e-08
2.78972e-08
2.78977e-08
2.78983e-08
2.78989e-08
2.78996e-08
2.79003e-08
2.7901e-08
2.79017e-08
2.79024e-08
2.79033e-08
2.79041e-08
2.7905e-08
2.79059e-08
2.79069e-08
2.79079e-08
2.7909e-08
2.79101e-08
2.79113e-08
2.79126e-08
2.79139e-08
2.79154e-08
2.79169e-08
2.79185e-08
2.79201e-08
2.79219e-08
2.79238e-08
2.79259e-08
2.79281e-08
2.79304e-08
2.79329e-08
2.79356e-08
2.79386e-08
2.79417e-08
2.79452e-08
2.7949e-08
2.79532e-08
2.79578e-08
2.79629e-08
2.79687e-08
2.79751e-08
2.79823e-08
2.79906e-08
2.80001e-08
2.80112e-08
2.80242e-08
2.80396e-08
2.80584e-08
2.80816e-08
2.81107e-08
2.8148e-08
2.81989e-08
2.82746e-08
2.83902e-08
2.8712e-08
2.82498e-08
2.8107e-08
2.83956e-08
2.81985e-08
2.81258e-08
2.80802e-08
2.80503e-08
2.80285e-08
2.80114e-08
2.79976e-08
2.79864e-08
2.79772e-08
2.79694e-08
2.79627e-08
2.79568e-08
2.79517e-08
2.79473e-08
2.79433e-08
2.79396e-08
2.79364e-08
2.79334e-08
2.79307e-08
2.79283e-08
2.7926e-08
2.79239e-08
2.79219e-08
2.79201e-08
2.79185e-08
2.79169e-08
2.79154e-08
2.79141e-08
2.79128e-08
2.79116e-08
2.79104e-08
2.79093e-08
2.79083e-08
2.79073e-08
2.79064e-08
2.79056e-08
2.79047e-08
2.79039e-08
2.79032e-08
2.79025e-08
2.79018e-08
2.79011e-08
2.79005e-08
2.78999e-08
2.78993e-08
2.78988e-08
2.78983e-08
2.78978e-08
2.78973e-08
2.78968e-08
2.78964e-08
2.7896e-08
2.78956e-08
2.78952e-08
2.78948e-08
2.78945e-08
2.78941e-08
2.78938e-08
2.78935e-08
2.78932e-08
2.78929e-08
2.78927e-08
2.78924e-08
2.78922e-08
2.7892e-08
2.78917e-08
2.78915e-08
2.78913e-08
2.78911e-08
2.78909e-08
2.78908e-08
2.78906e-08
2.78905e-08
2.78903e-08
2.78902e-08
2.789e-08
2.78899e-08
2.78898e-08
2.78897e-08
2.78896e-08
2.78895e-08
2.78894e-08
2.78894e-08
2.78893e-08
2.78892e-08
2.78892e-08
2.78891e-08
2.78891e-08
2.78891e-08
2.7889e-08
2.7889e-08
2.7889e-08
2.7889e-08
2.7889e-08
2.7889e-08
2.7889e-08
2.78891e-08
2.78891e-08
2.78891e-08
2.78892e-08
2.78893e-08
2.78893e-08
2.78894e-08
2.78895e-08
2.78895e-08
2.78896e-08
2.78897e-08
2.78898e-08
2.789e-08
2.78901e-08
2.78902e-08
2.78904e-08
2.78905e-08
2.78907e-08
2.78908e-08
2.7891e-08
2.78912e-08
2.78914e-08
2.78916e-08
2.78918e-08
2.7892e-08
2.78923e-08
2.78925e-08
2.78928e-08
2.7893e-08
2.78933e-08
2.78936e-08
2.78939e-08
2.78942e-08
2.78946e-08
2.78949e-08
2.78953e-08
2.78957e-08
2.78961e-08
2.78965e-08
2.78969e-08
2.78974e-08
2.78978e-08
2.78983e-08
2.78988e-08
2.78993e-08
2.78999e-08
2.79004e-08
2.7901e-08
2.79017e-08
2.79023e-08
2.7903e-08
2.79037e-08
2.79044e-08
2.79052e-08
2.7906e-08
2.79069e-08
2.79077e-08
2.79087e-08
2.79097e-08
2.79107e-08
2.79118e-08
2.79129e-08
2.79141e-08
2.79154e-08
2.79167e-08
2.79181e-08
2.79195e-08
2.79211e-08
2.79228e-08
2.79245e-08
2.79264e-08
2.79283e-08
2.79305e-08
2.79327e-08
2.79351e-08
2.79377e-08
2.79404e-08
2.79434e-08
2.79467e-08
2.79502e-08
2.7954e-08
2.79582e-08
2.79628e-08
2.79679e-08
2.79735e-08
2.79799e-08
2.79869e-08
2.79948e-08
2.80039e-08
2.80143e-08
2.80264e-08
2.80406e-08
2.80574e-08
2.80778e-08
2.81031e-08
2.81347e-08
2.81751e-08
2.82298e-08
2.8311e-08
2.84338e-08
2.87766e-08
2.82808e-08
2.81288e-08
2.8432e-08
2.82246e-08
2.81477e-08
2.80991e-08
2.80671e-08
2.80436e-08
2.80251e-08
2.80102e-08
2.79981e-08
2.79881e-08
2.79797e-08
2.79723e-08
2.7966e-08
2.79605e-08
2.79556e-08
2.79512e-08
2.79472e-08
2.79437e-08
2.79405e-08
2.79375e-08
2.79348e-08
2.79323e-08
2.793e-08
2.79279e-08
2.79259e-08
2.79241e-08
2.79223e-08
2.79207e-08
2.79192e-08
2.79178e-08
2.79165e-08
2.79152e-08
2.7914e-08
2.79129e-08
2.79119e-08
2.79108e-08
2.79099e-08
2.7909e-08
2.79081e-08
2.79073e-08
2.79065e-08
2.79057e-08
2.7905e-08
2.79043e-08
2.79037e-08
2.7903e-08
2.79025e-08
2.79019e-08
2.79013e-08
2.79008e-08
2.79003e-08
2.78998e-08
2.78994e-08
2.78989e-08
2.78985e-08
2.78981e-08
2.78977e-08
2.78973e-08
2.7897e-08
2.78967e-08
2.78963e-08
2.7896e-08
2.78958e-08
2.78955e-08
2.78952e-08
2.7895e-08
2.78947e-08
2.78945e-08
2.78943e-08
2.7894e-08
2.78938e-08
2.78937e-08
2.78935e-08
2.78933e-08
2.78931e-08
2.7893e-08
2.78928e-08
2.78927e-08
2.78926e-08
2.78925e-08
2.78924e-08
2.78923e-08
2.78922e-08
2.78921e-08
2.7892e-08
2.78919e-08
2.78919e-08
2.78918e-08
2.78918e-08
2.78918e-08
2.78917e-08
2.78917e-08
2.78917e-08
2.78917e-08
2.78917e-08
2.78917e-08
2.78918e-08
2.78918e-08
2.78918e-08
2.78919e-08
2.78919e-08
2.7892e-08
2.7892e-08
2.78921e-08
2.78922e-08
2.78923e-08
2.78924e-08
2.78925e-08
2.78926e-08
2.78928e-08
2.78929e-08
2.7893e-08
2.78932e-08
2.78933e-08
2.78935e-08
2.78937e-08
2.78939e-08
2.78941e-08
2.78943e-08
2.78945e-08
2.78948e-08
2.7895e-08
2.78953e-08
2.78955e-08
2.78958e-08
2.78961e-08
2.78964e-08
2.78968e-08
2.78971e-08
2.78975e-08
2.78978e-08
2.78982e-08
2.78986e-08
2.7899e-08
2.78995e-08
2.78999e-08
2.79004e-08
2.79009e-08
2.79014e-08
2.79019e-08
2.79025e-08
2.7903e-08
2.79036e-08
2.79043e-08
2.79049e-08
2.79056e-08
2.79063e-08
2.7907e-08
2.79078e-08
2.79086e-08
2.79095e-08
2.79104e-08
2.79113e-08
2.79123e-08
2.79133e-08
2.79144e-08
2.79155e-08
2.79167e-08
2.79179e-08
2.79192e-08
2.79206e-08
2.7922e-08
2.79236e-08
2.79252e-08
2.79269e-08
2.79287e-08
2.79306e-08
2.79326e-08
2.79348e-08
2.79371e-08
2.79395e-08
2.79422e-08
2.7945e-08
2.7948e-08
2.79513e-08
2.79548e-08
2.79586e-08
2.79628e-08
2.79674e-08
2.79724e-08
2.7978e-08
2.79841e-08
2.7991e-08
2.79987e-08
2.80073e-08
2.80171e-08
2.80284e-08
2.80415e-08
2.80569e-08
2.8075e-08
2.8097e-08
2.81243e-08
2.81583e-08
2.82016e-08
2.82601e-08
2.83464e-08
2.84761e-08
2.8836e-08
2.83168e-08
2.8152e-08
2.84681e-08
2.82499e-08
2.81691e-08
2.81178e-08
2.80837e-08
2.80586e-08
2.80388e-08
2.80228e-08
2.80098e-08
2.7999e-08
2.79899e-08
2.7982e-08
2.79751e-08
2.79692e-08
2.79639e-08
2.79591e-08
2.79548e-08
2.7951e-08
2.79475e-08
2.79443e-08
2.79413e-08
2.79386e-08
2.79361e-08
2.79338e-08
2.79317e-08
2.79297e-08
2.79278e-08
2.7926e-08
2.79244e-08
2.79229e-08
2.79214e-08
2.792e-08
2.79188e-08
2.79175e-08
2.79164e-08
2.79153e-08
2.79143e-08
2.79133e-08
2.79123e-08
2.79114e-08
2.79106e-08
2.79097e-08
2.7909e-08
2.79082e-08
2.79075e-08
2.79068e-08
2.79062e-08
2.79055e-08
2.79049e-08
2.79044e-08
2.79038e-08
2.79033e-08
2.79028e-08
2.79023e-08
2.79018e-08
2.79014e-08
2.7901e-08
2.79006e-08
2.79002e-08
2.78998e-08
2.78995e-08
2.78992e-08
2.78988e-08
2.78985e-08