/*--------------------------------*- C++ -*----------------------------------*\
  =========                 |
  \\      /  F ield         | OpenFOAM: The Open Source CFD Toolbox
   \\    /   O peration     | Website:  https://openfoam.org
    \\  /    A nd           | Version:  8
     \\/     M anipulation  |
\*---------------------------------------------------------------------------*/
FoamFile
{
    version     2.0;
    format      ascii;
    class       volScalarField;
    location    "0.19";
    object      p;
}
// * * * * * * * * * * * * * * * * * * * * * * * * * * * * * * * * * * * * * //

dimensions      [0 2 -2 0 0 0 0];

internalField   nonuniform List<scalar> 
112642
(
4.61635
4.57906
4.5427
4.50715
4.47242
4.43772
4.40263
4.36701
4.33087
4.29424
4.25714
4.21958
4.1816
4.1432
4.10439
4.06516
4.02553
3.98553
3.94516
3.90444
3.86337
3.822
3.78031
3.73834
3.69608
3.65357
3.6108
3.56779
3.52455
3.4811
3.43745
3.39359
3.34954
3.30531
3.26089
3.21631
3.17156
3.12665
3.0816
3.03642
2.9911
2.94566
2.9001
2.85442
2.80865
2.76277
2.71681
2.67076
2.62461
2.57838
2.53207
2.4857
2.43924
2.39273
2.34614
2.29948
2.25276
2.20597
2.15912
2.11221
2.06524
2.0182
1.9711
1.92394
1.87673
1.82946
1.78213
1.73476
1.68733
1.63984
1.59231
1.54472
1.49708
1.44938
1.40163
1.35383
1.30596
1.25806
1.21009
1.16207
1.11399
1.06586
1.01767
0.969425
0.921113
0.872734
0.824317
0.775822
0.727267
0.678647
0.62996
0.581219
0.532401
0.483513
0.434554
0.385534
0.336434
0.287255
0.238003
0.188676
0.139265
0.0897792
0.0402099
-0.00944537
-0.0591819
-0.108998
-0.158913
-0.208919
-0.259017
-0.309199
-0.359493
-0.409882
-0.460372
-0.510969
-0.561653
-0.612467
-0.663384
-0.714399
-0.765534
-0.816786
-0.868163
-0.919649
-0.97126
-1.02299
-1.07486
-1.12684
-1.17896
-1.2312
-1.28358
-1.33608
-1.38872
-1.44149
-1.49438
-1.54741
-1.60059
-1.6539
-1.70734
-1.76093
-1.81466
-1.86854
-1.92254
-1.97671
-2.03104
-2.0855
-2.14014
-2.19493
-2.24988
-2.30499
-2.36027
-2.41572
-2.47134
-2.52713
-2.5831
-2.63923
-2.69552
-2.75199
-2.80862
-2.86542
-2.92237
-2.97947
-3.03672
-3.09412
-3.15166
-3.20936
-3.26718
-3.32515
-3.38325
-3.44148
-3.49986
-3.55838
-3.61703
-3.67584
-3.73478
-3.79389
-3.85314
-3.91251
-3.97206
-4.03173
-4.09155
-4.15148
-4.21156
-4.27175
-4.33204
-4.39243
-4.45294
-4.51354
-4.57422
-4.63502
-4.69595
-4.75703
-4.81824
-4.8796
-4.9411
-5.00268
-5.06427
-5.12582
-5.18768
-5.25056
-5.3148
-5.38091
4.63863
4.60153
4.56511
4.52938
4.49466
4.46012
4.42537
4.39015
4.35439
4.31809
4.28131
4.24404
4.20633
4.16816
4.12957
4.09056
4.05113
4.0113
3.97109
3.93049
3.88956
3.84827
3.80667
3.76476
3.72255
3.68007
3.63731
3.59428
3.55103
3.50755
3.46383
3.4199
3.37577
3.33144
3.28692
3.2422
3.19732
3.15226
3.10705
3.06169
3.01618
2.97055
2.92478
2.87888
2.83287
2.78676
2.74054
2.69422
2.6478
2.60129
2.55469
2.50801
2.46124
2.41439
2.36746
2.32046
2.27339
2.22624
2.17902
2.13173
2.08437
2.03695
1.98946
1.9419
1.89429
1.8466
1.79887
1.75107
1.70321
1.65529
1.60731
1.55927
1.51118
1.46302
1.41481
1.36654
1.31821
1.26982
1.22138
1.17286
1.1243
1.07566
1.02697
0.978221
0.929404
0.880518
0.831579
0.782567
0.73349
0.684345
0.635135
0.585855
0.536506
0.487079
0.437585
0.388017
0.338373
0.288655
0.238847
0.188978
0.139007
0.088976
0.0388445
-0.0113601
-0.0616539
-0.112035
-0.162505
-0.213074
-0.263729
-0.314482
-0.365331
-0.416282
-0.467334
-0.51849
-0.569744
-0.621118
-0.672594
-0.724183
-0.775882
-0.827704
-0.87964
-0.9317
-0.983874
-1.03617
-1.0886
-1.14115
-1.19382
-1.24663
-1.29956
-1.35261
-1.40579
-1.45911
-1.51256
-1.56613
-1.61983
-1.67368
-1.72766
-1.78177
-1.83603
-1.89042
-1.94496
-1.99964
-2.05447
-2.10945
-2.16458
-2.21986
-2.27531
-2.33091
-2.38668
-2.4426
-2.4987
-2.55496
-2.61138
-2.66796
-2.7247
-2.7816
-2.83868
-2.8959
-2.95327
-3.01077
-3.06843
-3.12623
-3.18417
-3.24224
-3.30043
-3.35876
-3.41722
-3.47579
-3.5345
-3.59333
-3.6523
-3.71139
-3.77062
-3.83
-3.8895
-3.94913
-4.00889
-4.06878
-4.12878
-4.18893
-4.24915
-4.30951
-4.36995
-4.43047
-4.4911
-4.55178
-4.61257
-4.67348
-4.73447
-4.79558
-4.85682
-4.91818
-4.9796
-5.04101
-5.10244
-5.16391
-5.22585
-5.28913
-5.35391
-5.42039
4.65997
4.62322
4.58691
4.55089
4.51599
4.48145
4.44699
4.4121
4.3767
4.34076
4.30428
4.26732
4.22987
4.19197
4.15362
4.11483
4.07561
4.03598
3.99594
3.95552
3.91471
3.87356
3.83205
3.79023
3.74809
3.70567
3.66295
3.61995
3.57669
3.53319
3.48945
3.44548
3.40129
3.35688
3.31227
3.26747
3.22247
3.1773
3.13195
3.08643
3.04077
2.99496
2.94901
2.90292
2.85671
2.81036
2.76391
2.71735
2.67069
2.6239
2.57703
2.53005
2.48299
2.43583
2.38858
2.34126
2.29384
2.24634
2.19877
2.15112
2.10339
2.05559
2.00772
1.95978
1.91177
1.86369
1.81554
1.76733
1.71905
1.67071
1.62229
1.57383
1.52529
1.47668
1.42801
1.37928
1.33048
1.28161
1.23269
1.1837
1.13464
1.08551
1.03633
0.98707
0.93775
0.88835
0.838898
0.789373
0.739769
0.690108
0.64036
0.590556
0.540666
0.490708
0.440673
0.390565
0.340373
0.290106
0.239752
0.18933
0.138809
0.0882215
0.0375368
-0.013227
-0.0640824
-0.115022
-0.166054
-0.217178
-0.268402
-0.319709
-0.371132
-0.422637
-0.474258
-0.525974
-0.57779
-0.629733
-0.681771
-0.733929
-0.786188
-0.83858
-0.891085
-0.943708
-0.996448
-1.04931
-1.1023
-1.15541
-1.20864
-1.262
-1.31548
-1.36907
-1.42281
-1.47667
-1.53064
-1.58475
-1.63899
-1.69336
-1.74787
-1.8025
-1.85727
-1.91219
-1.96723
-2.02242
-2.07774
-2.13322
-2.18885
-2.24461
-2.30054
-2.35662
-2.41285
-2.46925
-2.52579
-2.58251
-2.63936
-2.69638
-2.75356
-2.81089
-2.86837
-2.926
-2.98376
-3.04166
-3.09969
-3.15787
-3.21618
-3.2746
-3.33315
-3.39181
-3.4506
-3.5095
-3.56852
-3.62765
-3.68691
-3.74628
-3.80578
-3.86541
-3.92515
-3.98499
-4.04497
-4.10505
-4.16526
-4.22555
-4.28596
-4.34643
-4.407
-4.46763
-4.52836
-4.58915
-4.65002
-4.71099
-4.77207
-4.83323
-4.89451
-4.95583
-5.01718
-5.0785
-5.13976
-5.20136
-5.26368
-5.32752
-5.39294
-5.45996
4.68038
4.64423
4.60831
4.57196
4.53677
4.50214
4.46779
4.43317
4.39812
4.36252
4.32639
4.28972
4.25256
4.21493
4.17683
4.13828
4.09929
4.05987
4.02003
3.97978
3.93915
3.89813
3.85676
3.81505
3.77301
3.73066
3.688
3.64505
3.60182
3.55832
3.51457
3.47059
3.42637
3.3819
3.33724
3.29237
3.24728
3.20201
3.15655
3.11092
3.06511
3.01915
2.97303
2.92678
2.88037
2.83382
2.78716
2.74038
2.69347
2.64644
2.5993
2.55205
2.5047
2.45724
2.4097
2.36205
2.31431
2.26648
2.21856
2.17056
2.12248
2.07431
2.02607
1.97775
1.92934
1.88087
1.83232
1.7837
1.735
1.68624
1.6374
1.58849
1.53951
1.49046
1.44133
1.39214
1.34287
1.29353
1.24413
1.19465
1.14511
1.09549
1.04581
0.99604
0.946212
0.896306
0.846335
0.796286
0.746166
0.695968
0.645693
0.595352
0.544927
0.494427
0.443846
0.393189
0.342449
0.291629
0.240726
0.189741
0.138666
0.0875125
0.036271
-0.015057
-0.0664756
-0.117982
-0.169583
-0.221275
-0.273064
-0.324942
-0.376928
-0.429012
-0.481194
-0.533483
-0.585872
-0.638378
-0.690987
-0.743717
-0.796548
-0.849507
-0.902573
-0.95577
-1.00907
-1.0625
-1.11605
-1.16971
-1.22351
-1.27742
-1.33145
-1.3856
-1.43987
-1.49426
-1.54878
-1.60342
-1.6582
-1.71309
-1.76812
-1.82328
-1.87856
-1.93398
-1.98953
-2.04522
-2.10105
-2.15701
-2.21312
-2.26938
-2.32576
-2.38231
-2.43901
-2.49586
-2.55286
-2.61001
-2.66731
-2.72474
-2.78233
-2.84007
-2.89795
-2.95595
-3.0141
-3.07237
-3.13077
-3.1893
-3.24795
-3.30671
-3.36559
-3.42457
-3.48366
-3.54288
-3.6022
-3.66161
-3.72115
-3.7808
-3.84055
-3.90042
-3.96039
-4.02046
-4.08063
-4.14089
-4.20126
-4.26172
-4.32225
-4.38285
-4.44352
-4.50427
-4.56506
-4.62593
-4.68689
-4.74792
-4.80905
-4.87027
-4.93153
-4.99283
-5.05411
-5.11536
-5.17669
-5.2385
-5.30139
-5.36605
-5.43194
-5.49961
4.70009
4.6651
4.62967
4.59322
4.55777
4.5229
4.48859
4.45419
4.41946
4.3842
4.34841
4.31207
4.27522
4.23787
4.20005
4.16175
4.12301
4.08381
4.04418
4.00413
3.96368
3.92283
3.88161
3.84003
3.7981
3.75582
3.71324
3.67035
3.62716
3.58369
3.53995
3.49596
3.45171
3.40722
3.36251
3.31758
3.27242
3.22706
3.1815
3.13576
3.08983
3.04372
2.99745
2.95103
2.90444
2.8577
2.81083
2.76382
2.71667
2.66941
2.622
2.57449
2.52685
2.4791
2.43125
2.38329
2.33522
2.28705
2.23879
2.19043
2.14199
2.09346
2.04484
1.99613
1.94734
1.89847
1.84951
1.80047
1.75136
1.70217
1.65289
1.60353
1.55411
1.50459
1.45501
1.40534
1.3556
1.30578
1.25589
1.20592
1.15588
1.10575
1.05555
1.00528
0.954936
0.904503
0.854004
0.803421
0.752766
0.702027
0.651211
0.600318
0.549344
0.498285
0.447151
0.395931
0.34463
0.293241
0.241768
0.190213
0.138567
0.0868401
0.0350215
-0.0168872
-0.0688819
-0.120971
-0.173149
-0.225427
-0.277796
-0.330262
-0.382829
-0.435497
-0.488262
-0.541137
-0.59411
-0.647202
-0.700393
-0.7537
-0.807118
-0.860661
-0.914307
-0.968072
-1.02196
-1.07596
-1.13008
-1.18432
-1.23867
-1.29315
-1.34773
-1.40245
-1.45727
-1.51222
-1.56728
-1.62247
-1.67778
-1.73321
-1.78877
-1.84445
-1.90026
-1.9562
-2.01226
-2.06846
-2.12479
-2.18125
-2.23785
-2.29459
-2.35146
-2.40849
-2.46565
-2.52295
-2.5804
-2.63798
-2.69571
-2.75358
-2.81158
-2.86972
-2.92799
-2.98637
-3.0449
-3.10355
-3.1623
-3.22117
-3.28015
-3.33925
-3.39845
-3.45774
-3.51715
-3.57665
-3.63626
-3.69596
-3.75577
-3.81567
-3.87567
-3.93577
-3.99596
-4.05625
-4.11661
-4.17705
-4.23757
-4.29817
-4.35882
-4.41954
-4.48031
-4.54114
-4.60201
-4.66296
-4.72396
-4.78505
-4.8462
-4.90743
-4.96866
-5.02991
-5.0911
-5.15231
-5.21374
-5.27603
-5.33956
-5.40505
-5.47141
-5.53901
4.71941
4.6857
4.6509
4.61466
4.57905
4.54397
4.50958
4.47531
4.44085
4.40595
4.3705
4.33451
4.29798
4.26094
4.2234
4.18538
4.1469
4.10794
4.06855
4.02872
3.98846
3.94778
3.90672
3.86528
3.82347
3.7813
3.73881
3.69598
3.65286
3.60943
3.56572
3.52172
3.47747
3.43296
3.38821
3.34323
3.29801
3.25257
3.20692
3.16107
3.11503
3.06879
3.02236
2.97577
2.92901
2.88208
2.83501
2.78777
2.7404
2.69289
2.64523
2.59745
2.54952
2.50148
2.45331
2.40504
2.35664
2.30813
2.25953
2.21082
2.16201
2.1131
2.06409
2.015
1.96581
1.91653
1.86717
1.81771
1.76816
1.71853
1.66881
1.619
1.56911
1.51914
1.46907
1.41894
1.3687
1.3184
1.268
1.21753
1.16697
1.11633
1.06562
1.01482
0.963935
0.912965
0.861928
0.810796
0.759591
0.708296
0.656925
0.605463
0.553927
0.502296
0.450591
0.398793
0.346911
0.294947
0.242885
0.190745
0.13851
0.0861935
0.033778
-0.0187182
-0.0713099
-0.123996
-0.17677
-0.229649
-0.282613
-0.335685
-0.388848
-0.442118
-0.495482
-0.54896
-0.60253
-0.656222
-0.710017
-0.76392
-0.817937
-0.872068
-0.926313
-0.980671
-1.03515
-1.08973
-1.14445
-1.19926
-1.2542
-1.30924
-1.3644
-1.41969
-1.47508
-1.53058
-1.58621
-1.64195
-1.69781
-1.75379
-1.80989
-1.8661
-1.92245
-1.97891
-2.0355
-2.09222
-2.14905
-2.20603
-2.26313
-2.32036
-2.37772
-2.43522
-2.49286
-2.55063
-2.60852
-2.66655
-2.72471
-2.78301
-2.84142
-2.89997
-2.95863
-3.0174
-3.0763
-3.13531
-3.19441
-3.25363
-3.31294
-3.37237
-3.43188
-3.49149
-3.55118
-3.61098
-3.67086
-3.73084
-3.79091
-3.85106
-3.91129
-3.97161
-4.03202
-4.09251
-4.15306
-4.21367
-4.27434
-4.33508
-4.39586
-4.45667
-4.51752
-4.57843
-4.63937
-4.70036
-4.76142
-4.82252
-4.8837
-4.94489
-5.00609
-5.06721
-5.12833
-5.18958
-5.25127
-5.31407
-5.37829
-5.44445
-5.51125
-5.57862
4.73812
4.70574
4.67195
4.63614
4.60048
4.56519
4.53068
4.49645
4.46222
4.42762
4.39254
4.35691
4.32073
4.284
4.24678
4.20905
4.17084
4.13216
4.093
4.05339
4.01334
3.97287
3.93197
3.8907
3.84902
3.80698
3.76459
3.72186
3.6788
3.63542
3.59174
3.54778
3.50353
3.45902
3.41424
3.36922
3.32396
3.27845
3.23272
3.18677
3.14061
3.09425
3.04768
3.00094
2.95401
2.9069
2.85961
2.81217
2.76457
2.71681
2.66889
2.62084
2.57264
2.5243
2.47583
2.42724
2.37851
2.32967
2.28072
2.23165
2.18246
2.13319
2.08379
2.03431
1.98471
1.93503
1.88524
1.83536
1.78538
1.7353
1.68513
1.63487
1.58451
1.53406
1.48352
1.43289
1.38216
1.33135
1.28045
1.22946
1.17838
1.12722
1.07596
1.02462
0.973198
0.921684
0.870087
0.818397
0.766629
0.714766
0.662824
0.610787
0.558666
0.506462
0.454155
0.401781
0.349297
0.296738
0.244078
0.191336
0.138497
0.0855748
0.0325531
-0.0205504
-0.0737611
-0.127045
-0.180446
-0.233927
-0.28751
-0.341196
-0.394973
-0.448858
-0.502838
-0.55693
-0.61112
-0.665422
-0.719828
-0.774345
-0.82898
-0.88372
-0.938568
-0.993536
-1.04862
-1.1038
-1.15911
-1.21452
-1.27005
-1.32568
-1.38143
-1.43728
-1.49326
-1.54934
-1.60553
-1.66184
-1.71825
-1.77479
-1.83145
-1.8882
-1.94509
-2.00208
-2.05921
-2.11645
-2.17381
-2.23128
-2.2889
-2.34662
-2.40448
-2.46247
-2.52057
-2.5788
-2.63716
-2.69565
-2.75425
-2.81296
-2.8718
-2.93075
-2.98981
-3.04896
-3.10824
-3.1676
-3.22707
-3.28662
-3.34626
-3.40601
-3.46583
-3.52573
-3.58572
-3.64579
-3.70595
-3.76617
-3.82649
-3.88688
-3.94734
-4.00787
-4.06848
-4.12915
-4.18988
-4.25064
-4.31147
-4.37233
-4.43322
-4.49412
-4.55507
-4.61603
-4.67703
-4.73807
-4.79915
-4.86028
-4.92142
-4.98257
-5.04366
-5.10471
-5.16578
-5.22715
-5.28921
-5.35264
-5.41763
-5.48435
-5.5511
-5.61826
4.75582
4.72512
4.69251
4.65743
4.62195
4.58653
4.55183
4.51757
4.48349
4.44917
4.41444
4.37918
4.34336
4.30699
4.27008
4.23266
4.19474
4.15632
4.11743
4.07806
4.03825
3.99797
3.95729
3.91617
3.87467
3.83276
3.79049
3.74786
3.70489
3.66159
3.61797
3.57404
3.52982
3.48531
3.44053
3.39548
3.35018
3.30462
3.25882
3.21278
3.16652
3.12004
3.07335
3.02644
2.97936
2.93207
2.88459
2.83694
2.78911
2.74111
2.69294
2.64462
2.59615
2.54752
2.49875
2.44984
2.4008
2.35162
2.3023
2.25289
2.20334
2.15368
2.10391
2.05402
2.00403
1.95392
1.90371
1.8534
1.80297
1.75245
1.70183
1.65109
1.60026
1.54934
1.4983
1.44718
1.39595
1.34463
1.29321
1.24169
1.19008
1.13838
1.08658
1.0347
0.98272
0.930642
0.878479
0.826219
0.773879
0.721431
0.668907
0.616281
0.563568
0.510762
0.457862
0.404875
0.351791
0.298616
0.245346
0.191987
0.138531
0.0849879
0.0313475
-0.0223846
-0.0762127
-0.130131
-0.184152
-0.238266
-0.292477
-0.346791
-0.401194
-0.455715
-0.510321
-0.565041
-0.619861
-0.674794
-0.729825
-0.784966
-0.840227
-0.895585
-0.951062
-1.00665
-1.06234
-1.11814
-1.17405
-1.23007
-1.2862
-1.34244
-1.39878
-1.45523
-1.51178
-1.56845
-1.62522
-1.6821
-1.73909
-1.79619
-1.85339
-1.91071
-1.96814
-2.02569
-2.08334
-2.1411
-2.199
-2.257
-2.31512
-2.37334
-2.4317
-2.49017
-2.54875
-2.60745
-2.66628
-2.72522
-2.78425
-2.8434
-2.90266
-2.96201
-3.02146
-3.08101
-3.14065
-3.20037
-3.26018
-3.32007
-3.38005
-3.4401
-3.50022
-3.56041
-3.62068
-3.68103
-3.74143
-3.80191
-3.86245
-3.92306
-3.98374
-4.04447
-4.10525
-4.16611
-4.22698
-4.2879
-4.34883
-4.40982
-4.47079
-4.5318
-4.5928
-4.65385
-4.71489
-4.77596
-4.83707
-4.89819
-4.95928
-5.02034
-5.08134
-5.14231
-5.20341
-5.26502
-5.32763
-5.39177
-5.4574
-5.52442
-5.59099
-5.65734
4.77252
4.74368
4.71249
4.6784
4.64335
4.60795
4.57312
4.53876
4.50474
4.47064
4.43623
4.40134
4.36589
4.32988
4.29333
4.25623
4.21861
4.18049
4.14186
4.10276
4.06318
4.02315
3.98266
3.94174
3.90041
3.85866
3.81654
3.77403
3.73117
3.68796
3.64441
3.60054
3.55635
3.51187
3.46709
3.42202
3.37669
3.3311
3.28523
3.23912
3.19276
3.14618
3.09936
3.05232
3.00507
2.95761
2.90994
2.8621
2.81405
2.76582
2.7174
2.66883
2.62007
2.57117
2.52208
2.47286
2.4235
2.37398
2.32433
2.27455
2.22464
2.1746
2.12444
2.07416
2.02375
1.97324
1.9226
1.87185
1.82098
1.77
1.71891
1.66771
1.6164
1.56498
1.51346
1.46182
1.41009
1.35824
1.30629
1.25425
1.20209
1.14985
1.0975
1.04505
0.992505
0.939854
0.887113
0.834274
0.781338
0.728307
0.675179
0.621949
0.568633
0.515212
0.461704
0.408093
0.354388
0.300593
0.246692
0.192702
0.138615
0.0844361
0.0301567
-0.0242094
-0.0786763
-0.133242
-0.187897
-0.242659
-0.29751
-0.352471
-0.407524
-0.462679
-0.517937
-0.573297
-0.628761
-0.684338
-0.740009
-0.795796
-0.85169
-0.90768
-0.963799
-1.02001
-1.07634
-1.13276
-1.18929
-1.24593
-1.30267
-1.35952
-1.41647
-1.47352
-1.53067
-1.58793
-1.64529
-1.70276
-1.76032
-1.81799
-1.87577
-1.93365
-1.99163
-2.04973
-2.10793
-2.16623
-2.22464
-2.28317
-2.3418
-2.40054
-2.4594
-2.51835
-2.57743
-2.63659
-2.69588
-2.75526
-2.81475
-2.87432
-2.934
-2.99376
-3.05361
-3.11353
-3.17355
-3.23362
-3.29379
-3.35401
-3.41431
-3.47466
-3.53508
-3.59557
-3.65611
-3.7167
-3.77736
-3.83807
-3.89883
-3.95966
-4.02052
-4.08143
-4.14238
-4.20339
-4.2644
-4.32544
-4.3865
-4.44755
-4.50863
-4.56968
-4.63077
-4.69185
-4.75294
-4.81404
-4.87512
-4.9362
-4.99726
-5.05822
-5.11913
-5.18008
-5.24132
-5.30332
-5.36652
-5.43134
-5.4975
-5.56452
-5.63072
-5.69608
4.78799
4.76119
4.73177
4.69891
4.66462
4.62939
4.59451
4.56004
4.52602
4.49207
4.45795
4.42339
4.38832
4.35269
4.31649
4.27972
4.24244
4.20462
4.16629
4.12746
4.08815
4.04836
4.00811
3.9674
3.92626
3.8847
3.84273
3.80037
3.75763
3.71453
3.67106
3.62726
3.58313
3.53868
3.49392
3.44885
3.4035
3.35787
3.31196
3.26578
3.21934
3.17266
3.12572
3.07855
3.03116
2.98353
2.9357
2.88764
2.83938
2.79092
2.74228
2.69344
2.64442
2.59523
2.54585
2.49632
2.44663
2.39679
2.34679
2.29665
2.24638
2.19596
2.14541
2.09472
2.04391
1.99297
1.9419
1.89072
1.8394
1.78796
1.7364
1.68472
1.63292
1.58101
1.52898
1.47684
1.42458
1.3722
1.31972
1.26713
1.21443
1.16162
1.10871
1.05568
1.00256
0.94933
0.895997
0.842561
0.789024
0.735387
0.681648
0.627805
0.573862
0.519824
0.465681
0.411438
0.357102
0.302657
0.248123
0.193482
0.13875
0.0839161
0.0289946
-0.0260355
-0.0811523
-0.136373
-0.191693
-0.247105
-0.302621
-0.358238
-0.413951
-0.469765
-0.525683
-0.581704
-0.637828
-0.694057
-0.750386
-0.80683
-0.863371
-0.920023
-0.976775
-1.03364
-1.0906
-1.14767
-1.20484
-1.2621
-1.31947
-1.37694
-1.43451
-1.49217
-1.54993
-1.6078
-1.66576
-1.72381
-1.78196
-1.84022
-1.89856
-1.95702
-2.01557
-2.07422
-2.13296
-2.19181
-2.25077
-2.30981
-2.36896
-2.42821
-2.48758
-2.54703
-2.60658
-2.66623
-2.72597
-2.78581
-2.84573
-2.90575
-2.96583
-3.02601
-3.08624
-3.14655
-3.20694
-3.26737
-3.32788
-3.38843
-3.44905
-3.50971
-3.57042
-3.6312
-3.69199
-3.75284
-3.81374
-3.87467
-3.93566
-3.99666
-4.05771
-4.11879
-4.17989
-4.24101
-4.30215
-4.36329
-4.42444
-4.48557
-4.5467
-4.60783
-4.66895
-4.73007
-4.79115
-4.85226
-4.91333
-4.97434
-5.0353
-5.0962
-5.15704
-5.21805
-5.27955
-5.34206
-5.4059
-5.47141
-5.53776
-5.60461
-5.66999
-5.73413
4.80218
4.77756
4.75014
4.71883
4.68552
4.6508
4.61598
4.58143
4.54736
4.5135
4.47958
4.44536
4.41066
4.3754
4.33958
4.30318
4.26623
4.22874
4.19073
4.15219
4.11316
4.07363
4.03363
3.99316
3.95224
3.91087
3.86908
3.82688
3.78428
3.7413
3.69794
3.65423
3.61016
3.56576
3.52103
3.47597
3.43061
3.38495
3.33901
3.29278
3.24628
3.19949
3.15245
3.10516
3.05762
3.00984
2.96182
2.91359
2.86513
2.81645
2.76756
2.71847
2.66919
2.61972
2.57007
2.52022
2.47021
2.42004
2.3697
2.3192
2.26856
2.21776
2.16682
2.11574
2.06451
2.01315
1.96165
1.91001
1.85825
1.80634
1.7543
1.70215
1.64985
1.59743
1.5449
1.49223
1.43944
1.38653
1.3335
1.28035
1.22709
1.17371
1.12022
1.06662
1.0129
0.959075
0.905144
0.851091
0.796948
0.742685
0.688319
0.633848
0.579273
0.524589
0.469808
0.414918
0.359923
0.30483
0.249632
0.194331
0.138937
0.0834385
0.027843
-0.027848
-0.0836438
-0.139536
-0.195523
-0.251617
-0.307806
-0.364095
-0.420486
-0.476982
-0.533566
-0.59027
-0.647063
-0.703965
-0.760971
-0.818075
-0.875289
-0.932604
-0.990021
-1.04754
-1.10516
-1.16287
-1.22069
-1.27861
-1.33661
-1.39471
-1.45291
-1.51119
-1.56958
-1.62806
-1.68662
-1.74528
-1.80403
-1.86288
-1.92182
-1.98084
-2.03996
-2.09918
-2.15848
-2.21788
-2.27737
-2.33695
-2.39662
-2.4564
-2.51625
-2.5762
-2.63624
-2.69637
-2.75658
-2.81687
-2.87723
-2.93767
-2.99818
-3.05876
-3.11939
-3.18008
-3.24082
-3.30164
-3.36247
-3.42336
-3.48428
-3.54525
-3.60626
-3.66731
-3.72837
-3.78946
-3.85059
-3.91174
-3.97291
-4.03411
-4.09532
-4.15655
-4.21778
-4.27903
-4.34026
-4.40149
-4.4627
-4.5239
-4.58507
-4.64624
-4.70737
-4.76849
-4.82958
-4.89065
-4.95166
-5.01262
-5.07347
-5.13426
-5.19514
-5.2563
-5.31819
-5.38128
-5.44579
-5.51169
-5.57813
-5.64442
-5.70863
-5.77144
4.81489
4.79268
4.76744
4.73793
4.70594
4.67195
4.63742
4.60287
4.56875
4.53491
4.50117
4.46722
4.43286
4.39799
4.36255
4.32654
4.28995
4.25281
4.21512
4.17691
4.13818
4.09895
4.0592
4.01898
3.9783
3.93715
3.89555
3.85353
3.81109
3.76825
3.72501
3.68139
3.63741
3.59307
3.54838
3.50335
3.458
3.41234
3.36636
3.32009
3.27351
3.22666
3.17952
3.13212
3.08445
3.03651
2.98833
2.93992
2.89126
2.84237
2.79327
2.74394
2.69439
2.64465
2.59471
2.54456
2.49424
2.44373
2.39306
2.34221
2.2912
2.24003
2.18869
2.13721
2.08556
2.03377
1.98183
1.92975
1.87753
1.82515
1.77264
1.71998
1.66719
1.61426
1.5612
1.50801
1.45467
1.40122
1.34763
1.29392
1.24009
1.18612
1.13205
1.07785
1.02354
0.969094
0.914546
0.859881
0.805097
0.750206
0.695202
0.640084
0.584862
0.52952
0.474084
0.418526
0.36287
0.3071
0.251228
0.195251
0.139176
0.0829966
0.0267179
-0.0296649
-0.0861417
-0.142728
-0.199401
-0.256189
-0.313066
-0.370051
-0.427132
-0.484314
-0.541601
-0.598986
-0.65647
-0.714066
-0.77175
-0.829547
-0.887435
-0.945436
-1.00353
-1.06172
-1.12001
-1.17839
-1.23687
-1.29543
-1.35409
-1.41284
-1.47168
-1.53061
-1.58962
-1.64872
-1.70791
-1.76718
-1.82654
-1.88598
-1.94552
-2.00513
-2.06483
-2.1246
-2.18447
-2.24443
-2.30445
-2.36458
-2.42478
-2.48508
-2.54544
-2.60588
-2.66641
-2.72701
-2.78768
-2.84842
-2.90923
-2.97009
-3.03102
-3.09201
-3.15304
-3.21411
-3.27522
-3.33637
-3.39756
-3.45877
-3.52
-3.58126
-3.64255
-3.70386
-3.76518
-3.82652
-3.88787
-3.94922
-4.01059
-4.07196
-4.13333
-4.19469
-4.25606
-4.31739
-4.37871
-4.44001
-4.50129
-4.56251
-4.62372
-4.68488
-4.74603
-4.80713
-4.86819
-4.92919
-4.99013
-5.05098
-5.11175
-5.17251
-5.23344
-5.29488
-5.35724
-5.42096
-5.48601
-5.55216
-5.6183
-5.68377
-5.74657
-5.80756
4.82621
4.80645
4.78351
4.75604
4.72569
4.69273
4.65872
4.62432
4.59019
4.55636
4.52273
4.489
4.45498
4.42048
4.38544
4.34982
4.31361
4.27683
4.2395
4.20163
4.16322
4.12428
4.08483
4.04489
4.00445
3.96353
3.92216
3.88033
3.83806
3.79537
3.75226
3.70877
3.66488
3.62061
3.57598
3.53099
3.48567
3.44001
3.39402
3.3477
3.30108
3.25416
3.20694
3.15943
3.11164
3.06357
3.01525
2.96665
2.91781
2.86872
2.81939
2.76982
2.72003
2.67001
2.61979
2.56935
2.51872
2.46789
2.41688
2.36568
2.3143
2.26275
2.21103
2.15913
2.10708
2.05486
2.00248
1.94994
1.89725
1.84441
1.7914
1.73825
1.68495
1.6315
1.57791
1.52418
1.4703
1.41629
1.36214
1.30785
1.25343
1.19888
1.1442
1.08939
1.03446
0.979405
0.924221
0.868923
0.813502
0.757954
0.702305
0.646517
0.590634
0.534624
0.478507
0.422272
0.365934
0.309474
0.252915
0.196242
0.139472
0.0825917
0.0256157
-0.0314736
-0.0886525
-0.145943
-0.203329
-0.260823
-0.318404
-0.376108
-0.433889
-0.491787
-0.549778
-0.607867
-0.666064
-0.724356
-0.782746
-0.841247
-0.899831
-0.958524
-1.0173
-1.07618
-1.13516
-1.19421
-1.25337
-1.31261
-1.37193
-1.43134
-1.49083
-1.55041
-1.61007
-1.6698
-1.72962
-1.78952
-1.84949
-1.90955
-1.96967
-2.02988
-2.09017
-2.15052
-2.21096
-2.27148
-2.33206
-2.39272
-2.45345
-2.51426
-2.57514
-2.63609
-2.69709
-2.75818
-2.81931
-2.88051
-2.94175
-3.00305
-3.06438
-3.12577
-3.18719
-3.24863
-3.3101
-3.3716
-3.43312
-3.49466
-3.55621
-3.61776
-3.67932
-3.74088
-3.80246
-3.86403
-3.92559
-3.98714
-4.04869
-4.11023
-4.17174
-4.23323
-4.29469
-4.35613
-4.41752
-4.47887
-4.54018
-4.60144
-4.66265
-4.72381
-4.78492
-4.846
-4.90701
-4.96793
-5.02875
-5.0895
-5.15017
-5.21095
-5.27205
-5.33385
-5.39674
-5.46105
-5.52648
-5.59264
-5.6581
-5.72242
-5.78362
-5.84268
4.83606
4.81874
4.79821
4.77301
4.74453
4.71296
4.67973
4.64568
4.61165
4.57783
4.54427
4.51073
4.47699
4.44286
4.40821
4.37299
4.33719
4.3008
4.26384
4.22632
4.18824
4.14964
4.1105
4.07083
4.03066
3.99
3.94885
3.90723
3.86515
3.82264
3.77969
3.73631
3.69254
3.64836
3.6038
3.55888
3.51359
3.46794
3.42195
3.37562
3.32896
3.28198
3.2347
3.18709
3.1392
3.091
3.04253
2.99378
2.94477
2.89547
2.84593
2.79613
2.7461
2.69583
2.64532
2.5946
2.54366
2.49252
2.44117
2.38962
2.33788
2.28595
2.23383
2.18154
2.12906
2.07641
2.02359
1.97059
1.91743
1.8641
1.81061
1.75695
1.70314
1.64916
1.59503
1.54075
1.48632
1.43174
1.37701
1.32214
1.26713
1.21197
1.15669
1.10125
1.0457
0.990003
0.934176
0.878232
0.822145
0.765946
0.709617
0.653162
0.596592
0.5399
0.483088
0.426164
0.369119
0.311961
0.254691
0.197307
0.139825
0.082227
0.0245295
-0.0332726
-0.0911812
-0.149188
-0.207303
-0.265517
-0.323832
-0.382252
-0.440771
-0.499383
-0.558108
-0.616917
-0.675837
-0.734853
-0.79396
-0.853175
-0.912473
-0.971878
-1.03137
-1.09094
-1.15062
-1.21037
-1.27021
-1.33013
-1.39013
-1.45021
-1.51038
-1.57062
-1.63093
-1.69131
-1.75177
-1.8123
-1.8729
-1.93357
-1.99431
-2.05512
-2.116
-2.17694
-2.23795
-2.29903
-2.36017
-2.42138
-2.48264
-2.54397
-2.60536
-2.66681
-2.72831
-2.78986
-2.85146
-2.91311
-2.97479
-3.03651
-3.09825
-3.16004
-3.22184
-3.28366
-3.34548
-3.40732
-3.46917
-3.53102
-3.59287
-3.6547
-3.71653
-3.77835
-3.84015
-3.90195
-3.96371
-4.02547
-4.08718
-4.14886
-4.2105
-4.27211
-4.33367
-4.39519
-4.45664
-4.51804
-4.57937
-4.64063
-4.70184
-4.76299
-4.82407
-4.88507
-4.94599
-5.00681
-5.06754
-5.12817
-5.18881
-5.24966
-5.31102
-5.37326
-5.43669
-5.50145
-5.5671
-5.63286
-5.69736
-5.76018
-5.81953
-5.87663
4.8445
4.82961
4.81154
4.78872
4.76234
4.73241
4.70033
4.66687
4.63308
4.59933
4.56584
4.53245
4.49896
4.46515
4.43089
4.39608
4.36069
4.3247
4.28814
4.25099
4.21327
4.17499
4.13618
4.09681
4.05693
4.01654
3.97563
3.93424
3.89238
3.85005
3.80727
3.76405
3.72039
3.67633
3.63186
3.58701
3.54177
3.49615
3.45018
3.40385
3.35716
3.31015
3.2628
3.21513
3.16713
3.11882
3.07022
3.02132
2.97214
2.92266
2.87292
2.82291
2.77262
2.7221
2.67133
2.62032
2.56909
2.51762
2.46594
2.41405
2.36194
2.30963
2.25712
2.20442
2.15152
2.09845
2.04517
1.99172
1.93808
1.88427
1.83028
1.77611
1.72177
1.66726
1.61259
1.55776
1.50275
1.4476
1.39228
1.33682
1.28119
1.22543
1.16951
1.11346
1.05725
1.00091
0.944425
0.887813
0.831058
0.774177
0.717164
0.66002
0.602753
0.545354
0.487841
0.430202
0.372437
0.314552
0.256566
0.198448
0.140238
0.0819005
0.0234753
-0.0350703
-0.0937214
-0.152472
-0.211323
-0.270285
-0.329343
-0.388507
-0.447768
-0.507127
-0.566592
-0.626146
-0.685808
-0.745553
-0.805412
-0.865343
-0.92538
-0.9855
-1.04572
-1.10601
-1.1664
-1.22685
-1.28741
-1.34802
-1.40872
-1.46948
-1.53032
-1.59124
-1.65221
-1.71325
-1.77437
-1.83554
-1.89678
-1.95808
-2.01944
-2.08086
-2.14234
-2.20388
-2.26547
-2.32712
-2.38881
-2.45057
-2.51237
-2.57423
-2.63614
-2.69808
-2.76008
-2.8221
-2.88416
-2.94626
-3.00837
-3.07051
-3.13267
-3.19484
-3.25702
-3.3192
-3.38138
-3.44354
-3.50572
-3.56787
-3.63
-3.69211
-3.7542
-3.81626
-3.8783
-3.94029
-4.00226
-4.06417
-4.12605
-4.18787
-4.24963
-4.31134
-4.37299
-4.43456
-4.49606
-4.55749
-4.61883
-4.6801
-4.74131
-4.80241
-4.86342
-4.92434
-4.98517
-5.04589
-5.10649
-5.16705
-5.22771
-5.28871
-5.3504
-5.41313
-5.47703
-5.54211
-5.60757
-5.67268
-5.73593
-5.79705
-5.85437
-5.90929
4.85162
4.83903
4.82337
4.80304
4.77894
4.75096
4.72029
4.68772
4.65437
4.62081
4.58741
4.55412
4.52086
4.48736
4.45345
4.41906
4.38408
4.34852
4.31235
4.27559
4.23825
4.20033
4.16185
4.12281
4.08323
4.04312
4.00248
3.96134
3.9197
3.87757
3.83499
3.79193
3.74843
3.7045
3.66014
3.61537
3.57021
3.52464
3.47869
3.43238
3.38568
3.33864
3.29125
3.24351
3.19543
3.14702
3.09831
3.04926
2.99993
2.95027
2.90034
2.85012
2.79961
2.74884
2.69781
2.64652
2.59498
2.54321
2.4912
2.43896
2.3865
2.33381
2.28091
2.2278
2.17449
2.12097
2.06725
2.01333
1.95922
1.90491
1.85041
1.79574
1.74086
1.68581
1.63059
1.57519
1.51961
1.46387
1.40796
1.35188
1.29564
1.23926
1.18269
1.12599
1.06913
1.01213
0.954977
0.897676
0.840245
0.782658
0.724951
0.667098
0.609116
0.551001
0.492759
0.434385
0.375889
0.31727
0.258532
0.199669
0.14071
0.0816231
0.0224347
-0.0368629
-0.0962684
-0.155784
-0.215399
-0.275121
-0.334944
-0.394871
-0.454888
-0.515022
-0.575236
-0.63556
-0.695972
-0.756479
-0.817083
-0.877767
-0.938559
-0.999414
-1.06037
-1.1214
-1.1825
-1.24369
-1.30496
-1.36629
-1.42769
-1.48916
-1.5507
-1.61229
-1.67394
-1.73566
-1.79743
-1.85926
-1.92114
-1.98309
-2.04507
-2.10711
-2.16919
-2.23134
-2.29351
-2.35574
-2.418
-2.48031
-2.54266
-2.60504
-2.66747
-2.72991
-2.79239
-2.8549
-2.91741
-2.97995
-3.04249
-3.10506
-3.16761
-3.23017
-3.29272
-3.35526
-3.41777
-3.48027
-3.54276
-3.6052
-3.66761
-3.72999
-3.79232
-3.85461
-3.91685
-3.97905
-4.04119
-4.10326
-4.16527
-4.22722
-4.28909
-4.35089
-4.4126
-4.47421
-4.53575
-4.59719
-4.65855
-4.71979
-4.78095
-4.842
-4.90295
-4.96377
-5.02449
-5.08507
-5.1456
-5.20613
-5.26685
-5.32811
-5.39019
-5.45338
-5.51766
-5.58279
-5.64783
-5.71187
-5.77359
-5.83277
-5.88805
-5.94079
4.85759
4.84709
4.83378
4.81593
4.79425
4.76842
4.73947
4.70808
4.67544
4.6422
4.60896
4.57582
4.54272
4.50949
4.47593
4.44193
4.40737
4.37223
4.33648
4.30012
4.26317
4.22563
4.18751
4.1488
4.10955
4.06974
4.0294
3.98852
3.94712
3.90523
3.86285
3.81998
3.77665
3.73287
3.68864
3.64398
3.5989
3.5534
3.5075
3.46121
3.41453
3.36748
3.32005
3.27227
3.22412
3.17563
3.1268
3.07764
3.02815
2.97834
2.92821
2.87779
2.82707
2.77606
2.72478
2.67321
2.62139
2.56931
2.51696
2.46439
2.41156
2.35851
2.30522
2.2517
2.19797
2.14401
2.08984
2.03545
1.98085
1.92605
1.87104
1.81584
1.76044
1.70484
1.64905
1.59307
1.53692
1.48057
1.42405
1.36736
1.31049
1.25345
1.19625
1.13888
1.08136
1.02367
0.965833
0.907845
0.849702
0.791415
0.732984
0.674406
0.615693
0.556836
0.497856
0.438728
0.379484
0.320102
0.260601
0.200975
0.141246
0.0813891
0.021426
-0.0386536
-0.0988316
-0.159132
-0.219524
-0.280031
-0.340635
-0.401345
-0.462151
-0.523055
-0.584059
-0.645154
-0.706343
-0.767629
-0.828997
-0.890458
-0.952005
-1.01363
-1.07533
-1.13711
-1.19897
-1.2609
-1.32289
-1.38494
-1.44707
-1.50926
-1.57149
-1.63379
-1.69613
-1.75854
-1.82098
-1.88348
-1.94602
-2.00861
-2.07123
-2.1339
-2.1966
-2.25933
-2.32212
-2.38491
-2.44776
-2.51062
-2.57351
-2.63643
-2.69936
-2.76231
-2.82528
-2.88825
-2.95124
-3.01422
-3.07719
-3.14016
-3.20311
-3.26605
-3.32897
-3.39185
-3.45471
-3.51752
-3.58031
-3.64304
-3.70572
-3.76834
-3.8309
-3.89341
-3.95586
-4.01822
-4.08052
-4.14274
-4.20487
-4.26692
-4.32888
-4.39074
-4.45251
-4.51416
-4.5757
-4.63715
-4.69847
-4.75969
-4.82079
-4.88177
-4.94263
-5.00335
-5.06394
-5.12441
-5.18487
-5.24542
-5.30633
-5.36788
-5.43037
-5.49398
-5.55842
-5.62333
-5.68758
-5.75033
-5.81023
-5.86736
-5.92047
-5.97123
4.8625
4.8539
4.84275
4.82734
4.80814
4.78465
4.75766
4.72777
4.69608
4.66339
4.63042
4.59745
4.56453
4.53153
4.49829
4.46466