/*--------------------------------*- C++ -*----------------------------------*\
  =========                 |
  \\      /  F ield         | OpenFOAM: The Open Source CFD Toolbox
   \\    /   O peration     | Website:  https://openfoam.org
    \\  /    A nd           | Version:  8
     \\/     M anipulation  |
\*---------------------------------------------------------------------------*/
FoamFile
{
    version     2.0;
    format      ascii;
    class       surfaceScalarField;
    location    "0.19";
    object      phi;
}
// * * * * * * * * * * * * * * * * * * * * * * * * * * * * * * * * * * * * * //

dimensions      [0 3 -1 0 0 0 0];

internalField   nonuniform List<scalar> 
225079
(
-0.00369394
0.0264918
-0.00853671
0.0708394
-0.01214
0.1152
-0.0169225
0.15958
-0.021699
0.203974
-0.0252823
0.248382
-0.028869
0.291585
-0.0324582
0.335988
-0.0360488
0.379189
-0.0396401
0.42479
-0.0420325
0.466791
-0.0456253
0.511192
-0.0492186
0.555592
-0.0528124
0.597593
-0.0540068
0.640794
-0.0576013
0.685194
-0.0611962
0.727194
-0.0635914
0.770394
-0.0659869
0.812395
-0.0671827
0.854395
-0.0707785
0.897595
-0.0719746
0.938395
-0.0743708
0.980395
-0.0755671
1.0224
-0.0779635
1.0632
-0.07916
1.104
-0.0815565
1.146
-0.0827532
1.1844
-0.0839499
1.2252
-0.0863465
1.266
-0.0875435
1.3044
-0.0887403
1.344
-0.0899374
1.3824
-0.0899346
1.4208
-0.0911318
1.4592
-0.0911291
1.4964
-0.0923265
1.5348
-0.0935237
1.572
-0.0935212
1.608
-0.0947187
1.644
-0.0947163
1.68
-0.0947138
1.716
-0.0947116
1.7496
-0.0947092
1.7856
-0.0947068
1.8192
-0.0947044
1.8528
-0.094702
1.8864
-0.0934998
1.9188
-0.0934974
1.9512
-0.0934951
1.9836
-0.0922928
2.0136
-0.0922905
2.046
-0.0910882
2.0748
-0.0904859
2.10564
-0.0896439
2.13468
-0.0886817
2.16336
-0.0877197
2.19168
-0.0867577
2.2194
-0.0855558
2.24652
-0.0843539
2.27304
-0.0831523
2.2992
-0.0818305
2.32464
-0.0803889
2.34948
-0.0789473
2.37384
-0.0775056
2.3976
-0.0759442
2.42076
-0.0742626
2.4432
-0.072701
2.46528
-0.0710195
2.48664
-0.0692182
2.50728
-0.0674168
2.52744
-0.0654955
2.54688
-0.0635742
2.56572
-0.0615328
2.58396
-0.0594914
2.6016
-0.0575703
2.61864
-0.055409
2.63484
-0.0532478
2.65044
-0.0510867
2.66556
-0.0488057
2.67984
-0.0466446
2.69364
-0.0444835
2.7066
-0.0420825
2.71884
-0.0398016
2.73072
-0.0374007
2.74164
-0.0349999
2.75196
-0.032599
2.76168
-0.0301983
2.77068
-0.0277976
2.77896
-0.0252768
2.78652
-0.0227561
2.79348
-0.0202355
2.79972
-0.0177149
2.80536
-0.0150745
2.81004
-0.012674
2.81436
-0.0100936
2.8178
-0.00753722
2.82058
-0.00496876
2.82266
-0.00240062
2.82404
0.000167806
2.82475
0.0027359
2.82475
0.00530428
2.82404
0.00787235
2.82266
0.0104285
2.82058
0.0130086
2.8178
0.0154087
2.81436
0.0180488
2.81004
0.0205687
2.80536
0.0230887
2.79972
0.0256085
2.79348
0.0281283
2.78652
0.0305282
2.77896
0.0329281
2.77068
0.0353278
2.76168
0.0377275
2.75196
0.0401273
2.74164
0.0424069
2.73072
0.0448065
2.71884
0.046966
2.7066
0.0491255
2.69364
0.051405
2.67984
0.0535644
2.66556
0.0557237
2.65044
0.0578829
2.63484
0.0598022
2.61864
0.0618413
2.6016
0.0638803
2.58396
0.0657994
2.56572
0.0677185
2.54688
0.0695174
2.52744
0.0713164
2.50728
0.0729952
2.48664
0.074554
2.46528
0.0762326
2.4432
0.0777915
2.42076
0.07923
2.3976
0.0806687
2.37384
0.0821073
2.34948
0.0834258
2.32464
0.0846244
2.2992
0.0858228
2.27304
0.0870212
2.24652
0.0879796
2.2194
0.0889379
2.19168
0.0898962
2.16336
0.0907346
2.13468
0.0913329
2.10564
0.0925311
2.0748
0.0925292
2.046
0.0937275
2.0136
0.0937257
1.9836
0.0937238
1.9512
0.0949221
1.9188
0.0949201
1.8864
0.0949181
1.8528
0.0949161
1.8192
0.094914
1.7856
0.094912
1.7496
0.0949098
1.716
0.0949076
1.68
0.0937051
1.644
0.0937025
1.608
0.0924996
1.572
0.0912968
1.5348
0.0912938
1.4964
0.0900906
1.4592
0.0900874
1.4208
0.0888839
1.3824
0.0876802
1.344
0.0864766
1.3044
0.0840725
1.266
0.0828686
1.2252
0.0816647
1.1844
0.0792606
1.146
0.0780566
1.104
0.0756524
1.0632
0.0744483
1.0224
0.0720441
0.980405
0.0708399
0.938404
0.0672352
0.897605
0.0660307
0.854405
0.0636259
0.812405
0.0612207
0.770405
0.057615
0.727206
0.0540089
0.685206
0.0528026
0.640806
0.0491955
0.597607
0.0455877
0.555608
0.0419792
0.511208
0.0395704
0.466809
0.0359605
0.42481
0.0323504
0.37921
0.0287396
0.33601
0.0251272
0.291612
0.0215122
0.248415
0.0166914
0.20402
0.0118726
0.159618
0.00827245
0.115199
0.00352474
0.0707475
0.0263227
-0.00491692
0.0314018
-0.00978723
0.0757035
-0.0133674
0.118774
-0.0181495
0.164358
-0.0217213
0.207543
-0.0240994
0.250757
-0.0288781
0.296361
-0.0324604
0.339568
-0.0360442
0.382771
-0.0396293
0.428374
-0.0432154
0.470376
-0.0468022
0.514777
-0.0479903
0.556779
-0.0515782
0.601179
-0.0551667
0.644381
-0.0575557
0.687581
-0.0599451
0.729582
-0.0623348
0.772783
-0.0647248
0.814783
-0.0683148
0.857984
-0.0695055
0.898784
-0.0730958
0.941984
-0.0742868
0.981585
-0.0766776
1.02479
-0.0778689
1.06439
-0.0802599
1.10639
-0.0814512
1.14719
-0.0838425
1.18679
-0.0850339
1.22639
-0.0850257
1.26599
-0.0862174
1.30559
-0.0874091
1.34519
-0.0886008
1.38359
-0.0897927
1.42199
-0.0909848
1.46039
-0.0921769
1.49759
-0.0921693
1.53479
-0.0921617
1.57199
-0.0933542
1.60919
-0.0933469
1.64399
-0.0945394
1.68119
-0.0933324
1.71479
-0.0945251
1.75079
-0.0945182
1.78559
-0.0945111
1.81919
-0.0945043
1.85279
-0.0944975
1.88639
-0.093291
1.91759
-0.0932842
1.95119
-0.0920778
1.98239
-0.0932707
2.01479
-0.0908649
2.04359
-0.0908584
2.07479
-0.090252
2.10503
-0.0894059
2.13383
-0.0885597
2.16251
-0.0874737
2.19059
-0.0863881
2.21831
-0.0853022
2.24543
-0.0842167
2.27195
-0.0828912
2.29787
-0.0815659
2.32331
-0.0801205
2.34803
-0.0787954
2.37251
-0.0772306
2.39603
-0.0756655
2.41919
-0.0741006
2.44163
-0.0724161
2.46359
-0.0706115
2.48483
-0.068807
2.50547
-0.0670027
2.52563
-0.0650781
2.54495
-0.063274
2.56391
-0.06135
2.58203
-0.0593061
2.59955
-0.0571421
2.61648
-0.0550984
2.6328
-0.0530547
2.6484
-0.0507712
2.66328
-0.0486079
2.67768
-0.0463246
2.69136
-0.0440416
2.70432
-0.0417584
2.71656
-0.0393557
2.72832
-0.0370728
2.73936
-0.0346703
2.74956
-0.0322678
2.75928
-0.0297451
2.76816
-0.0273432
2.77656
-0.0249406
2.78412
-0.0224188
2.79096
-0.0198969
2.7972
-0.0173753
2.80284
-0.0148536
2.80752
-0.0123319
2.81184
-0.00973829
2.81521
-0.00718114
2.81802
-0.00461203
2.82009
-0.00205518
2.82149
0.000513788
2.82218
0.00308248
2.82218
0.00563929
2.82149
0.00820784
2.8201
0.0107644
2.81802
0.0133564
2.81521
0.0158764
2.81184
0.0183963
2.80752
0.0209164
2.80284
0.0234361
2.7972
0.025956
2.79096
0.0283551
2.78412
0.0307548
2.77656
0.0332738
2.76816
0.035673
2.75928
0.0380721
2.74956
0.0403508
2.73936
0.0427498
2.72832
0.0450282
2.71656
0.0473069
2.70432
0.0495851
2.69136
0.0517433
2.67768
0.0540214
2.66328
0.0560592
2.6484
0.058097
2.6328
0.0602544
2.61648
0.0622919
2.59956
0.0642093
2.58204
0.0660066
2.56392
0.0679232
2.54496
0.0697203
2.52564
0.071517
2.50548
0.0733135
2.48485
0.0749902
2.46361
0.0765464
2.44165
0.0781023
2.41921
0.0796586
2.39605
0.0809745
2.37253
0.0824101
2.34805
0.0837258
2.32333
0.0850412
2.29789
0.0861167
2.27197
0.0871918
2.24545
0.0882672
2.21833
0.0893421
2.19061
0.0901769
2.16253
0.0910117
2.13385
0.0916063
2.10505
0.0916007
2.07481
0.0939958
2.04361
0.0927896
2.01481
0.093984
1.98241
0.0939779
1.95121
0.0951722
1.91761
0.095166
1.88641
0.0951597
1.85281
0.0951531
1.81921
0.0951466
1.78561
0.0939395
1.75081
0.0951327
1.71481
0.0939252
1.68121
0.0939178
1.64401
0.0927101
1.60921
0.0927022
1.57201
0.0926943
1.53481
0.0914858
1.49761
0.0902772
1.46041
0.0890684
1.42201
0.0878592
1.38361
0.0866499
1.34521
0.0854407
1.30561
0.0854315
1.26601
0.0842219
1.22641
0.081812
1.18681
0.0806023
1.14721
0.0781921
1.10642
0.0769823
1.06441
0.0745721
1.02482
0.073362
0.981615
0.069751
0.942016
0.0685406
0.898816
0.0649291
0.858017
0.0625178
0.814817
0.0601059
0.772818
0.0576936
0.729619
0.0552807
0.68762
0.051667
0.644421
0.0480525
0.601222
0.0468382
0.556823
0.0432222
0.514825
0.0396056
0.470426
0.035988
0.428428
0.0323699
0.382828
0.0287509
0.33963
0.0239295
0.296434
0.0215079
0.250837
0.0178828
0.207646
0.0130645
0.164438
0.00945313
0.118812
0.00471602
0.0754857
0.0310432
-0.0048643
0.0362651
-0.0085965
0.0794332
-0.0133922
0.123568
-0.0169799
0.167944
-0.0205475
0.211109
-0.025318
0.255526
-0.0288897
0.299932
-0.0324653
0.343143
-0.0360426
0.386348
-0.038422
0.430752
-0.0432015
0.475155
-0.0455829
0.517158
-0.0491646
0.56036
-0.0527466
0.604761
-0.0551297
0.646763
-0.0575131
0.689964
-0.0610965
0.733165
-0.0634807
0.775166
-0.065865
0.817167
-0.0670501
0.859168
-0.0706345
0.902368
-0.07182
0.943169
-0.0754049
0.985169
-0.0765906
1.02597
-0.0789761
1.06677
-0.0801621
1.10757
-0.081348
1.14837
-0.0825342
1.18797
-0.0837205
1.22757
-0.0861063
1.26837
-0.0872925
1.30677
-0.0884789
1.34637
-0.0896653
1.38477
-0.0908521
1.42317
-0.0908389
1.46037
-0.0920257
1.49878
-0.092013
1.53478
-0.0932
1.57318
-0.0931874
1.60918
-0.094375
1.64518
-0.093163
1.67998
-0.0943508
1.71598
-0.0943387
1.75078
-0.0943265
1.78558
-0.0943152
1.81918
-0.0943034
1.85278
-0.0930924
1.88518
-0.0942805
1.91878
-0.0930697
1.94998
-0.0930586
1.98238
-0.0918479
2.01358
-0.0918367
2.04358
-0.0918262
2.07478
-0.090016
2.10322
-0.0891652
2.13298
-0.0881953
2.16154
-0.0872256
2.18962
-0.0862553
2.21734
-0.0850458
2.24422
-0.0838362
2.27074
-0.0825071
2.29654
-0.0811781
2.32198
-0.0799692
2.34682
-0.0784001
2.37094
-0.0769517
2.39459
-0.0753833
2.41763
-0.0736955
2.43995
-0.0720069
2.46191
-0.0703194
2.48315
-0.0686317
2.50379
-0.066704
2.52371
-0.0648969
2.54315
-0.0628496
2.56187
-0.0609229
2.58011
-0.0589962
2.59763
-0.0569493
2.61443
-0.054783
2.63063
-0.0526173
2.64623
-0.0504509
2.66111
-0.0482856
2.67551
-0.0459999
2.68907
-0.0437144
2.70203
-0.041429
2.71427
-0.0391444
2.72603
-0.0367398
2.73695
-0.034335
2.74715
-0.0319308
2.75687
-0.0295267
2.76575
-0.0270024
2.77403
-0.0244791
2.78159
-0.0220756
2.78855
-0.0195522
2.79467
-0.0170291
2.80031
-0.014506
2.805
-0.0119836
2.80932
-0.0094014
2.81263
-0.00684344
2.81546
-0.00427361
2.81752
-0.00170351
2.81892
0.000866062
2.81961
0.00343532
2.81961
0.00600404
2.81892
0.00857305
2.81753
0.0111299
2.81546
0.0137105
2.81263
0.0162309
2.80932
0.0187507
2.805
0.0212704
2.80032
0.0237898
2.79468
0.0261891
2.78856
0.0287087
2.7816
0.0312271
2.77404
0.0336258
2.76576
0.0360244
2.75688
0.0384223
2.74716
0.0408205
2.73696
0.0430986
2.72604
0.0453759
2.71428
0.0476531
2.70204
0.04993
2.68909
0.0520874
2.67553
0.0542434
2.66113
0.0564003
2.64625
0.0585565
2.63065
0.0605919
2.61445
0.0625076
2.59765
0.0644232
2.58013
0.0664582
2.56189
0.0682533
2.54317
0.0701678
2.52373
0.0718421
2.50381
0.0735166
2.48317
0.07519
2.46193
0.0768642
2.43997
0.0784177
2.41765
0.0798511
2.39461
0.0814038
2.37097
0.0825967
2.34685
0.0839095
2.32201
0.0852221
2.29657
0.086414
2.27077
0.0876063
2.24425
0.0885574
2.21738
0.0895093
2.18966
0.090461
2.16158
0.0912916
2.13302
0.0930829
2.10326
0.0930738
2.07482
0.0930638
2.04362
0.0942543
2.01362
0.0942443
1.98242
0.0954345
1.95002
0.0942234
1.91882
0.0954132
1.88522
0.095402
1.85282
0.0953914
1.81922
0.0953794
1.78562
0.0953675
1.75082
0.0941553
1.71602
0.0953434
1.68002
0.0941307
1.64522
0.0941177
1.60922
0.092904
1.57323
0.0928908
1.53483
0.0916766
1.49883
0.0916625
1.46043
0.0904482
1.42323
0.0892334
1.38483
0.0880185
1.34643
0.0868032
1.30683
0.0843875
1.26843
0.0831723
1.22763
0.081957
1.18803
0.0807413
1.14843
0.0795257
1.10763
0.0771093
1.06683
0.0758933
1.02603
0.0722762
0.985233
0.0710599
0.943233
0.0674419
0.902434
0.0662249
0.859234
0.0638066
0.817235
0.0613881
0.775236
0.0577681
0.733239
0.0553482
0.690039
0.0529275
0.646841
0.0493053
0.604844
0.0456826
0.560445
0.0432595
0.517247
0.0384343
0.475251
0.0360097
0.430852
0.0323839
0.386453
0.0287571
0.343256
0.0251279
0.300063
0.0202973
0.255667
0.016667
0.211276
0.0130512
0.168053
0.00824856
0.123613
0.00474664
0.0789871
0.0357855
-0.00362477
0.0398824
-0.00854145
0.0843438
-0.0133606
0.128381
-0.0169601
0.171539
-0.0217316
0.215877
-0.0253021
0.259094
-0.0288711
0.303499
-0.0324431
0.346713
-0.0360166
0.389919
-0.0395916
0.434326
-0.0419681
0.47753
-0.0455448
0.520733
-0.049122
0.563936
-0.0515002
0.607138
-0.0550782
0.65034
-0.0574569
0.692342
-0.0598361
0.735543
-0.0622155
0.777544
-0.0657946
0.820745
-0.0681744
0.861547
-0.069355
0.903548
-0.071735
0.945548
-0.0741151
0.987548
-0.0752959
1.02715
-0.0776765
1.06915
-0.0788576
1.10875
-0.0812382
1.15075
-0.0824193
1.18915
-0.0848
1.22995
-0.0859812
1.26955
-0.0871625
1.30795
-0.0871441
1.34635
-0.0883258
1.38595
-0.089507
1.42436
-0.0906885
1.46156
-0.0906707
1.49876
-0.093052
1.53716
-0.0930343
1.57316
-0.0930169
1.60916
-0.0929996
1.64516
-0.0941819
1.68116
-0.0941652
1.71596
-0.0941487
1.75076
-0.0941318
1.78556
-0.0941152
1.81916
-0.094099
1.85276
-0.0940827
1.88516
-0.0928673
1.91756
-0.0928516
1.94996
-0.0928356
1.98236
-0.091621
2.01236
-0.0916057
2.04356
-0.0903905
2.07356
-0.0897757
2.10261
-0.0889216
2.13213
-0.0879472
2.16057
-0.087093
2.18877
-0.0858795
2.21613
-0.0847856
2.24313
-0.0835725
2.26953
-0.082359
2.29533
-0.0810258
2.32065
-0.0795733
2.34537
-0.0781216
2.36949
-0.0766689
2.39313
-0.074977
2.41593
-0.0735254
2.43849
-0.0718345
2.46022
-0.0700227
2.48134
-0.0682116
2.50198
-0.0664013
2.5219
-0.0645913
2.54134
-0.0626609
2.55994
-0.0606114
2.57806
-0.0585614
2.59558
-0.0565128
2.61238
-0.0544632
2.62858
-0.0522945
2.64406
-0.0502466
2.65906
-0.0479578
2.67322
-0.0456697
2.68678
-0.0433826
2.69974
-0.0412156
2.7121
-0.0388083
2.72362
-0.0364012
2.73454
-0.033995
2.74475
-0.031589
2.75447
-0.0291832
2.76335
-0.0266577
2.77151
-0.0242524
2.77919
-0.0217274
2.78603
-0.0192026
2.79215
-0.016678
2.79779
-0.0141544
2.80247
-0.0115103
2.80667
-0.0090472
2.81016
-0.00647566
2.81289
-0.00391707
2.81497
-0.0013467
2.81635
0.0012235
2.81704
0.00379333
2.81704
0.00636298
2.81635
0.00892042
2.81497
0.0114889
2.81289
0.0139498
2.81017
0.0165897
2.80668
0.0191102
2.80248
0.0216296
2.7978
0.0241487
2.79216
0.0266677
2.78604
0.0290664
2.7792
0.0315848
2.77152
0.033983
2.76336
0.0363809
2.75448
0.0387786
2.74477
0.0411754
2.73457
0.0435719
2.72365
0.0457287
2.71213
0.0480054
2.69977
0.050281
2.68681
0.0525558
2.67325
0.0545915
2.65909
0.0567464
2.64409
0.0587803
2.62861
0.0608151
2.61241
0.0628484
2.59562
0.0648823
2.5781
0.066795
2.55998
0.0685881
2.54138
0.070381
2.52194
0.0721729
2.50202
0.0739639
2.48138
0.0756359
2.46026
0.0770671
2.43854
0.0787379
2.41598
0.0801679
2.39318
0.0815988
2.36954
0.0830289
2.34542
0.0843381
2.3207
0.085527
2.29539
0.0867163
2.26959
0.0877847
2.24319
0.0889734
2.21619
0.0898013
2.18883
0.090749
2.16063
0.091577
2.13219
0.092164
2.10267
0.0933505
2.07363
0.0933368
2.04363
0.094524
2.01243
0.0945092
1.98243
0.0944948
1.95003
0.0956806
1.91763
0.0956651
1.88524
0.0956497
1.85284
0.0956337
1.81924
0.0956171
1.78564
0.0956008
1.75084
0.0955843
1.71604
0.0943663
1.68124
0.0943486
1.64524
0.0943306
1.60924
0.0943122
1.57325
0.0918924
1.53725
0.0918735
1.49885
0.0906537
1.46165
0.0894333
1.42445
0.0882135
1.38605
0.0881935
1.34645
0.086973
1.30805
0.0857523
1.26965
0.0833309
1.23005
0.0821098
1.18925
0.079688
1.15085
0.078467
1.10885
0.076045
1.06925
0.0748233
1.02725
0.0724005
0.987656
0.0699775
0.945656
0.0687551
0.903657
0.0663314
0.861658
0.0627065
0.820861
0.0602816
0.777662
0.0578563
0.735664
0.05543
0.692466
0.0518024
0.650469
0.0493748
0.607272
0.0457459
0.564074
0.0421163
0.520877
0.0396868
0.47768
0.0360561
0.434483
0.0324249
0.390085
0.0287928
0.346889
0.0251587
0.303697
0.0215256
0.2593
0.0166938
0.216108
0.0130834
0.171664
0.00828996
0.128408
0.00357355
0.0837042
0.039365
-0.00481591
0.0446985
-0.00969185
0.0892182
-0.0133249
0.132013
-0.0169331
0.175146
-0.0205128
0.219456
-0.0252838
0.263864
-0.0288512
0.307065
-0.0324202
0.350281
-0.03599
0.393489
-0.0395613
0.437896
-0.0431334
0.481101
-0.046706
0.524305
-0.0490797
0.566309
-0.0526529
0.61071
-0.0550271
0.652713
-0.0586008
0.695915
-0.0609753
0.737917
-0.0633502
0.779919
-0.0645257
0.82192
-0.0680998
0.86512
-0.0704749
0.905922
-0.0728501
0.947923
-0.0740259
0.988724
-0.0764013
1.02952
-0.0775775
1.07033
-0.0799531
1.11113
-0.0811289
1.15193
-0.0823053
1.19033
-0.0834812
1.23113
-0.084657
1.27073
-0.0858333
1.30913
-0.0882092
1.34873
-0.0893851
1.38713
-0.0893621
1.42433
-0.0905385
1.46273
-0.091715
1.49993
-0.0916922
1.53713
-0.0916701
1.57314
-0.0928469
1.61034
-0.0928247
1.64514
-0.0928024
1.68114
-0.0939797
1.71714
-0.0939579
1.75074
-0.0939365
1.78554
-0.093915
1.81914
-0.0926948
1.85154
-0.092674
1.88514
-0.0938529
1.91874
-0.0926326
1.94874
-0.0914129
1.98114
-0.0913923
2.01234
-0.0901731
2.04234
-0.0901539
2.07355
-0.0895347
2.10199
-0.0886758
2.13127
-0.0878171
2.15971
-0.0867187
2.18767
-0.0856211
2.21503
-0.084523
2.24203
-0.083306
2.26831
-0.0820884
2.29411
-0.0807518
2.31931
-0.0792956
2.34392
-0.0779588
2.36816
-0.076383
2.39156
-0.0748075
2.41436
-0.0731123
2.4368
-0.0714174
2.45852
-0.0697234
2.47964
-0.0680289
2.50028
-0.0662148
2.52008
-0.0641618
2.53928
-0.062349
2.55812
-0.0604148
2.57612
-0.0583634
2.59353
-0.0563106
2.61033
-0.0541398
2.62641
-0.0519676
2.64189
-0.0497965
2.65689
-0.0476257
2.67105
-0.0453361
2.68449
-0.0430459
2.69745
-0.040756
2.70981
-0.0383464
2.72122
-0.0360579
2.73226
-0.0336498
2.74234
-0.0312411
2.75206
-0.0287136
2.76082
-0.0264263
2.76922
-0.0237795
2.77654
-0.0213729
2.78362
-0.0188475
2.78962
-0.0163215
2.79526
-0.0137968
2.79995
-0.0112714
2.80415
-0.00867538
2.80757
-0.00612763
2.81034
-0.00355528
2.81239
-0.000984193
2.81378
0.00158666
2.81447
0.00415707
2.81447
0.00672724
2.81378
0.00929614
2.8124
0.0118417
2.81035
0.0144349
2.80758
0.0169547
2.80416
0.0194753
2.79996
0.0219945
2.79528
0.0245144
2.78964
0.026913
2.78364
0.0295513
2.77656
0.0318292
2.76925
0.0343468
2.76085
0.0367431
2.75209
0.0391401
2.74237
0.0414167
2.73229
0.043812
2.72125
0.046087
2.70985
0.0483617
2.69749
0.0506369
2.68453
0.0527908
2.6711
0.0549444
2.65694
0.0570968
2.64194
0.0592506
2.62646
0.0612822
2.61038
0.0633153
2.59358
0.0652253
2.57619
0.0670167
2.55819
0.0690479
2.53935
0.0708377
2.52015
0.0725071
2.50035
0.0741771
2.47971
0.0758459
2.45859
0.0775144
2.43687
0.0790625
2.41443
0.0806102
2.39164
0.0819168
2.36824
0.0833439
2.344
0.0846506
2.3194
0.0858361
2.2942
0.0870222
2.2684
0.088087
2.24212
0.0891524
2.21512
0.0902167
2.18776
0.0910406
2.1598
0.0918641
2.13137
0.0924472
2.10209
0.0924303
2.07365
0.0936131
2.04245
0.0935943
2.01245
0.0947764
1.98125
0.0959576
1.94885
0.0947376
1.91885
0.094718
1.88526
0.0958989
1.85166
0.0958779
1.81926
0.0958571
1.78566
0.0958354
1.75086
0.0946125
1.71726
0.09459
1.68126
0.0945673
1.64527
0.0933433
1.61047
0.0933204
1.57327
0.0932966
1.53727
0.0920716
1.50007
0.0908464
1.46287
0.0908218
1.42447
0.0895957
1.38728
0.0871693
1.34888
0.0859433
1.30928
0.0847166
1.27088
0.0834898
1.23128
0.0822635
1.19048
0.0810364
1.15208
0.0786088
1.11128
0.0773818
1.07048
0.0749537
1.02968
0.0737258
0.988884
0.0712969
0.948085
0.0688674
0.906087
0.0652364
0.865289
0.064007
0.82209
0.0615763
0.780093
0.0591447
0.738096
0.0555117
0.696099
0.053079
0.652902
0.0494445
0.610906
0.0470109
0.566508
0.0433757
0.524512
0.0397402
0.481315
0.0361045
0.438118
0.0324683
0.393721
0.0288317
0.350524
0.0251938
0.307334
0.0203574
0.264136
0.016728
0.219737
0.0131208
0.175269
0.0095321
0.131995
0.00478825
0.0884475
0.0441473
-0.00481891
0.0495098
-0.00846308
0.0928566
-0.0132998
0.136845
-0.018112
0.179955
-0.0216984
0.223039
-0.0252718
0.267435
-0.0288379
0.310629
-0.0324036
0.353845
-0.0371687
0.398252
-0.0395368
0.440263
-0.0431047
0.484668
-0.045474
0.526673
-0.0490426
0.569876
-0.0514122
0.613079
-0.054981
0.656281
-0.0573508
0.698283
-0.0597206
0.740285
-0.0632896
0.783486
-0.0656595
0.824289
-0.0668304
0.86629
-0.0692006
0.908291
-0.0715705
0.950292
-0.0739406
0.991093
-0.0763106
1.03189
-0.0774814
1.0715
-0.0798516
1.1135
-0.0810223
1.1531
-0.0833926
1.1927
-0.0845636
1.2323
-0.0857346
1.2719
-0.0869057
1.3103
-0.0880762
1.3499
-0.0880481
1.3871
-0.0892192
1.4255
-0.0903902
1.4639
-0.0915614
1.5011
-0.0915336
1.53711
-0.0927051
1.57431
-0.0926774
1.61031
-0.0938491
1.64631
-0.0938224
1.68111
-0.0937951
1.71711
-0.0937688
1.75071
-0.0937418
1.78551
-0.0937158
1.81911
-0.0936895
1.85151
-0.0936639
1.88512
-0.0924385
1.91752
-0.0924133
1.94872
-0.0923882
1.98112
-0.0911642
2.01112
-0.0911396
2.04232
-0.0899151
2.07232
-0.0892921
2.10136
-0.0884287
2.1304
-0.0874455
2.15873
-0.0864634
2.18669
-0.0854799
2.21405
-0.0842584
2.24081
-0.0830364
2.26709
-0.0818163
2.29289
-0.0804748
2.31797
-0.0791346
2.34258
-0.0775538
2.36658
-0.0759752
2.38998
-0.0745158
2.4129
-0.072936
2.43522
-0.0712374
2.45682
-0.0695391
2.47794
-0.0676021
2.49834
-0.0657855
2.51827
-0.0639673
2.53747
-0.0620314
2.55619
-0.0599758
2.57407
-0.0579196
2.59147
-0.0558647
2.60827
-0.0538103
2.62435
-0.051756
2.63983
-0.0494623
2.6546
-0.0471699
2.66876
-0.0449958
2.68232
-0.0428231
2.69528
-0.0404118
2.7074
-0.0381209
2.71892
-0.0355905
2.72973
-0.0332993
2.74005
-0.0308895
2.74965
-0.0284801
2.75841
-0.0259512
2.76669
-0.0235426
2.77413
-0.0208944
2.78097
-0.0184866
2.78722
-0.0159603
2.79274
-0.0134322
2.79742
-0.0109078
2.80162
-0.00832048
2.80498
-0.00574785
2.80777
-0.00318752
2.80983
-0.00061569
2.8112
0.00195584
2.8119
0.00452684
2.8119
0.00709755
2.81121
0.00965576
2.80984
0.0122257
2.80778
0.0148048
2.805
0.017327
2.80164
0.0198454
2.79744
0.0223655
2.79276
0.0247642
2.78724
0.0274025
2.78101
0.0298003
2.77417
0.0323177
2.76673
0.0347147
2.75845
0.0371112
2.74969
0.0393862
2.74009
0.041902
2.72977
0.0441773
2.71898
0.0465721
2.70746
0.0487254
2.69534
0.0508772
2.68238
0.0531507
2.66882
0.0554228
2.65467
0.0574543
2.63991
0.0594855
2.62443
0.0615161
2.60835
0.0635454
2.59155
0.0655751
2.57416
0.0674844
2.55628
0.0692712
2.53756
0.0710597
2.51836
0.0729678
2.49844
0.0746343
2.47804
0.0763004
2.45693
0.0778449
2.43533
0.0792701
2.41301
0.0808159
2.39009
0.0823593
2.36669
0.0836632
2.34269
0.0849657
2.3181
0.0861497
2.29302
0.0873314
2.26722
0.0885136
2.24094
0.0894534
2.21418
0.0903948
2.18682
0.0913347
2.15886
0.0921542
2.13055
0.0927341
2.10151
0.0939122
2.07247
0.09389
2.04247
0.0950682
2.01127
0.0950451
1.98127
0.0950216
1.94888
0.0961978
1.91768
0.0961735
1.88528
0.0961481
1.85168
0.0961229
1.81928
0.0960964
1.78569
0.0960703
1.75089
0.096043
1.71729
0.0960161
1.68129
0.0947871
1.64649
0.0947586
1.6105
0.0935288
1.5745
0.0934998
1.5373
0.0922693
1.5013
0.0910384
1.46411
0.0898074
1.42571
0.0897772
1.38731
0.088545
1.35011
0.0873134
1.31051
0.0860814
1.27211
0.0848493
1.23251
0.0824159
1.19291
0.0811828
1.15331
0.0787489
1.11372
0.0775155
1.07172
0.0750806
1.03212
0.0726457
0.99132
0.0702101
0.950521
0.0677745
0.908523
0.0665396
0.866525
0.0641027
0.824527
0.0604641
0.783732
0.0580262
0.740534
0.0555879
0.698538
0.0519477
0.656542
0.0495087
0.613346
0.0458681
0.570149
0.0434287
0.526952
0.0397879
0.484957
0.0373484
0.440558
0.0325057
0.398563
0.0288643
0.354166
0.0252226
0.310976
0.0215852
0.267774
0.017957
0.223366
0.0131493
0.180078
0.00835946
0.136785
0.00479148
0.0920156
0.0489457
-0.00362112
0.0531323
-0.0084461
0.0976811
-0.01208
0.140478
-0.0168944
0.184769
-0.0216854
0.22783
-0.0252613
0.27101
-0.0288269
0.314195
-0.0323899
0.357408
-0.0359521
0.401814
-0.0395154
0.443826
-0.0418801
0.487032
-0.0454442
0.530237
-0.0490085
0.57344
-0.0525727
0.616643
-0.0549378
0.658646
-0.0573031
0.700648
-0.0608671
0.743849
-0.0620331
0.784652
-0.0655972
0.827852
-0.067962
0.868655
-0.0703268
0.910655
-0.0714928
0.951457
-0.0738573
0.993457
-0.0750232
1.03306
-0.0785871
1.07506
-0.0785537
1.11346
-0.0809184
1.15546
-0.0820838
1.19386
-0.0832496
1.23346
-0.0844153
1.27306
-0.0867795
1.31266
-0.0867461
1.34987
-0.0891108
1.38947
-0.0902765
1.42667
-0.0902432
1.46387
-0.09021
1.50107
-0.0913759
1.53827
-0.0925419
1.57547
-0.0925091
1.61027
-0.092477
1.64628
-0.0936434
1.68228
-0.0924119
1.71588
-0.0935787
1.75188
-0.0935473
1.78548
-0.0923164
1.81788
-0.0934846
1.85268
-0.0934531
1.88508
-0.0922235
1.91629
-0.0921933
1.94869
-0.0921633
1.98109
-0.0921336
2.01109
-0.090905
2.04109
-0.0896766
2.07109
-0.089048
2.10073
-0.08806
2.12942
-0.0871921
2.15786
-0.0862046
2.1857
-0.0850984
2.21294
-0.0839925
2.2397
-0.082766
2.26586
-0.0815399
2.29167
-0.0801952
2.31663
-0.0787298
2.34111
-0.0772669
2.36511
-0.0758023
2.38851
-0.0742191
2.41132
-0.0725174
2.43352
-0.070935
2.45524
-0.0691131
2.47612
-0.0674114
2.49664
-0.0654704
2.51633
-0.0636507
2.53565
-0.0615905
2.55413
-0.0596517
2.57213
-0.0577133
2.58953
-0.0555355
2.60609
-0.0534768
2.6223
-0.0512998
2.63766
-0.0491232
2.65242
-0.0469471
2.66658
-0.0447725
2.68014
-0.0423572
2.69287
-0.0400637
2.70511
-0.0376494
2.71651
-0.0353555
2.72743
-0.0329433
2.73763
-0.0305315
2.74724
-0.0281203
2.756
-0.0255882
2.76416
-0.0231792
2.77172
-0.0206493
2.77844
-0.0181199
2.78469
-0.015591
2.79021
-0.0130639
2.79489
-0.010416
2.79897
-0.00794974
2.80252
-0.00538678
2.80521
-0.00281361
2.80726
-0.000241029
2.80863
0.00233119
2.80933
0.00490282
2.80933
0.00747409
2.80864
0.0100448
2.80727
0.0126017
2.80522
0.0150632
2.80254
0.0177032
2.799
0.0202239
2.79492
0.0227427
2.79024
0.0252611
2.78473
0.0277789
2.77849
0.0301777
2.77177
0.0326931
2.76421
0.0350895
2.75605
0.0374853
2.7473
0.0398806
2.7377
0.0421541
2.7275
0.0445471
2.71658
0.0468209
2.70518
0.0492128
2.69295
0.0513655
2.68023
0.0535164
2.66667
0.0556667
2.65252
0.0578165
2.63776
0.0598446
2.6224
0.0619934
2.6062
0.0639016
2.58965
0.0658092
2.57225
0.0678352
2.55425
0.0696218
2.53577
0.0715267
2.51646
0.073191
2.49678
0.0749748
2.47626
0.076518
2.45538
0.0781819
2.43366
0.0797241
2.41147
0.0811446
2.38867
0.0825669
2.36527
0.0839865
2.34127
0.0852865
2.3168
0.086465
2.29184
0.0876429
2.26604
0.0887015
2.23988
0.0897595
2.21312
0.0906959
2.18589
0.0915116
2.15805
0.0924471
2.12961
0.0930218
2.10093
0.0941965
2.0713
0.0953708
2.0413
0.0953435
2.0113
0.0953157
1.9813
0.0952875
1.9489
0.0964598
1.91651
0.0964296
1.88531
0.0951988
1.85291
0.0963689
1.81811
0.0963381
1.78572
0.0951048
1.75212
0.0962735
1.71612
0.0950393
1.68253
0.0950067
1.64653
0.0949729
1.61053
0.0937375
1.57573
0.0925017
1.53854
0.0924668
1.50134
0.0924316
1.46414
0.0911949
1.42694
0.0887565
1.38975
0.0887205
1.35015
0.0862808
1.31295
0.085043
1.27335
0.083805
1.23375
0.0825661
1.19415
0.080126
1.15575
0.080088
1.11375
0.076446
1.07536
0.0752064
1.03336
0.0727644
0.993762
0.071524
0.951762
0.0690813
0.910965
0.0666382
0.868968
0.0629936
0.828172
0.0617511
0.784974
0.0581052
0.74418
0.0556608
0.700982
0.0532157
0.658987
0.049569
0.616992
0.0459227
0.573795
0.0422763
0.530598
0.0398313
0.487401
0.0361853
0.444203
0.0325386
0.402209
0.0288923
0.357812
0.0252469
0.314621
0.0216076
0.271412
0.0167782
0.228194
0.0119695
0.184885
0.00837717
0.140375
0.00359132
0.0968009
0.0525298
-0.0048182
0.0579433
-0.00963464
0.102492
-0.0132578
0.144097
-0.0168749
0.188383
-0.0204715
0.231424
-0.0240505
0.274587
-0.0288156
0.318958
-0.0323767
0.360967
-0.0359358
0.405372
-0.0394952
0.447384
-0.0430549
0.490591
-0.0466148
0.533796
-0.0489759
0.5758
-0.0513368
0.619002
-0.0548964
0.662204
-0.0572569
0.703008
-0.0596174
0.746208
-0.0631766
0.78821
-0.0643377
0.829013
-0.0678962
0.872212
-0.0690573
0.911816
-0.0726151
0.955014
-0.0737763
0.994617
-0.0761355
1.03542
-0.0772957
1.07622
-0.0796552
1.11582
-0.0808156
1.15662
-0.0819761
1.19502
-0.0843348
1.23582
-0.0854952
1.27422
-0.0854567
1.31262
-0.0878157
1.35222
-0.0877765
1.38943
-0.0889368
1.42783
-0.090097
1.46503
-0.0912581
1.50223
-0.0912189
1.53823
-0.0911805
1.57543
-0.0923419
1.61144
-0.0935019
1.64744
-0.0922659
1.68104
-0.0934269
1.71704
-0.0933901
1.75184
-0.0933526
1.78544
-0.0933163
1.81785
-0.0932793
1.85265
-0.0920444
1.88385
-0.0932068
1.91745
-0.0919725
1.94745
-0.0907384
1.97985
-0.0907036
2.01105
-0.090668
2.04106
-0.0894358
2.06986
-0.0888013
2.1001
-0.0879294
2.12854
-0.0870566
2.15698
-0.0859445
2.18459
-0.0849537
2.21195
-0.0837223
2.23847
-0.0826111
2.26475
-0.0811418
2.2902
-0.0797928
2.31528
-0.0784441
2.33976
-0.0770947
2.36376
-0.075507
2.38693
-0.0739198
2.40973
-0.0723331
2.43193
-0.0705068
2.45341
-0.0688023
2.47442
-0.066977
2.49482
-0.0651521
2.5145
-0.0632091
2.5337
-0.0613851
2.5523
-0.0594431
2.57019
-0.0572603
2.58735
-0.0553192
2.60415
-0.0531386
2.62012
-0.0509586
2.63548
-0.0487806
2.65024
-0.0466001
2.6644
-0.0443032
2.67785
-0.0420052
2.69057
-0.0397078
2.70281
-0.0374124
2.71421
-0.034996
2.72502
-0.0325817
2.73522
-0.0301679
2.74482
-0.0276331
2.75346
-0.0252219
2.76175
-0.0226883
2.76919
-0.0202766
2.77603
-0.0177472
2.78216
-0.0152167
2.78768
-0.0126883
2.79236
-0.010159
2.79645
-0.00755975
2.79992
-0.00499708
2.80264
-0.00243345
2.8047
0.000139948
2.80606
0.00271287
2.80676
0.00528516
2.80676
0.00785698
2.80607
0.0104145
2.80471
0.0129731
2.80266
0.015567
2.79994
0.0180868
2.79648
0.0206077
2.7924
0.0231263
2.78772
0.025646
2.78221
0.0280433
2.77609
0.0305587
2.76925
0.0329565
2.76182
0.0354706
2.75354
0.0378656
2.7449
0.0402601
2.7353
0.0426524
2.72511
0.0449256
2.71431
0.0471967
2.70291
0.0494671
2.69068
0.0517386
2.67796
0.0538863
2.66453
0.0560365
2.65037
0.0581845
2.63561
0.0603319
2.62025
0.0622386
2.6043
0.0643833
2.5875
0.0662888
2.57034
0.0680721
2.55247
0.0699765
2.53387
0.0717586
2.51467
0.0735402
2.495
0.0752025
2.4746
0.0769829
2.4536
0.0785226
2.43212
0.0800617
2.40993
0.0816002
2.38713
0.0828965
2.36397
0.0841937
2.33998
0.0854903
2.3155
0.0869065
2.29042
0.0879604
2.26499
0.0891339
2.23871
0.090068
2.21219
0.0911204
2.18483
0.0919318
2.15724
0.0927441
2.1288
0.0933131
2.10036
0.0944846
2.07012
0.0944519
2.04133
0.0944198
2.01133
0.0955884
1.98013
0.0967566
1.94774
0.0955205
1.91774
0.0966875
1.88414
0.0966515
1.85295
0.0966163
1.81815
0.0965792
1.78576
0.0965427
1.75216
0.0953033
1.71736
0.0964674
1.68136
0.0952261
1.64777
0.0939863
1.61177
0.0939465
1.57577
0.0939056
1.53858
0.0926646
1.50258
0.0914223
1.46538
0.0901796
1.42819
0.0901374
1.38979
0.0876926
1.35259
0.0876506
1.31299
0.0864068
1.27459
0.0839604
1.2362
0.082716
1.1954
0.0814711
1.157
0.0790244
1.1162
0.0777782
1.0766
0.07533
1.03581
0.0740841
0.995008
0.0704327
0.955414
0.0691855
0.912213
0.0655338
0.87262
0.0642853
0.829421
0.0606333
0.788626
0.0581826