/*--------------------------------*- C++ -*----------------------------------*\
  =========                 |
  \\      /  F ield         | OpenFOAM: The Open Source CFD Toolbox
   \\    /   O peration     | Website:  https://openfoam.org
    \\  /    A nd           | Version:  8
     \\/     M anipulation  |
\*---------------------------------------------------------------------------*/
FoamFile
{
    version     2.0;
    format      ascii;
    class       volVectorField;
    location    "0.19";
    object      U;
}
// * * * * * * * * * * * * * * * * * * * * * * * * * * * * * * * * * * * * * //

dimensions      [0 1 -1 0 0 0 0];

internalField   nonuniform List<vector> 
112642
(
(14.9995 5.50825e-06 -1.14726e-20)
(14.9991 0.000115489 -3.92469e-20)
(14.9992 0.000169175 -1.01885e-19)
(14.9992 0.00016731 1.74462e-20)
(14.9992 0.000173631 1.91723e-19)
(14.9992 0.000170307 -1.35335e-19)
(14.9992 0.000174042 -3.86049e-21)
(14.9992 0.000178499 3.12923e-20)
(14.9991 0.000185875 8.09286e-20)
(14.9991 0.000195074 -1.11113e-19)
(14.9991 0.000204298 -2.54352e-21)
(14.9991 0.000214643 1.46376e-19)
(14.9991 0.000226624 8.55399e-20)
(14.9991 0.000238896 8.18142e-20)
(14.9991 0.000252418 6.70877e-20)
(14.9991 0.000265314 1.04318e-19)
(14.9991 0.000279288 -7.27226e-20)
(14.9991 0.000294659 1.20972e-19)
(14.9991 0.000309168 -8.50759e-20)
(14.9991 0.000324164 -1.20377e-19)
(14.9991 0.000339151 -2.07336e-19)
(14.9991 0.00035541 -8.49836e-20)
(14.9991 0.000370544 -8.47409e-20)
(14.9991 0.000386856 -4.71906e-20)
(14.9991 0.000402387 3.90551e-20)
(14.9991 0.000419187 8.40554e-20)
(14.9991 0.000435224 -1.28716e-19)
(14.9991 0.000451236 1.6774e-19)
(14.9991 0.000467771 -1.1264e-21)
(14.9991 0.000484115 8.34779e-20)
(14.9991 0.000500877 8.0921e-20)
(14.9991 0.000516858 9.75803e-22)
(14.9991 0.000533155 7.9874e-20)
(14.9991 0.000549652 8.10663e-20)
(14.9991 0.000565131 -8.0383e-20)
(14.9991 0.000581528 8.88708e-22)
(14.9991 0.000597321 -1.21526e-19)
(14.9991 0.00061324 7.72981e-20)
(14.9991 0.000629838 -3.31471e-20)
(14.9991 0.000645093 1.52279e-19)
(14.9991 0.000661161 -1.50554e-19)
(14.9991 0.000676492 1.19057e-19)
(14.9991 0.000691402 2.84551e-20)
(14.9991 0.000706552 -6.93315e-22)
(14.9991 0.000721794 7.18786e-20)
(14.9992 0.000736296 2.40171e-20)
(14.9992 0.000751614 6.92455e-20)
(14.9992 0.000766303 -1.14432e-19)
(14.9992 0.000780105 -6.78926e-20)
(14.9992 0.00079464 1.60164e-19)
(14.9992 0.000808354 4.75066e-20)
(14.9992 0.00082244 1.28054e-19)
(14.9992 0.000835869 1.25927e-19)
(14.9992 0.000849874 -4.77395e-20)
(14.9993 0.000863006 -4.85033e-20)
(14.9993 0.000875891 -5.95435e-20)
(14.9993 0.000888753 -1.16823e-19)
(14.9993 0.000901729 4.86674e-20)
(14.9993 0.000913755 5.65266e-20)
(14.9993 0.000926347 -5.53242e-20)
(14.9993 0.0009385 5.41417e-20)
(14.9993 0.000949739 -4.00729e-22)
(14.9994 0.000961607 5.16635e-20)
(14.9994 0.000972771 -3.99624e-22)
(14.9994 0.000984044 4.91569e-20)
(14.9994 0.000995059 -9.84394e-20)
(14.9994 0.00100534 0)
(14.9994 0.00101638 -4.50593e-20)
(14.9994 0.00102654 4.38159e-20)
(14.9995 0.00103636 4.25186e-20)
(14.9995 0.00104596 9.27579e-20)
(14.9995 0.00105535 -5.13959e-20)
(14.9995 0.00106436 -7.78084e-20)
(14.9995 0.00107318 8.99353e-20)
(14.9995 0.00108232 -1.04905e-19)
(14.9996 0.00109088 5.21518e-20)
(14.9996 0.00109856 1.1983e-19)
(14.9996 0.00110713 -2.11148e-20)
(14.9996 0.0011147 0)
(14.9996 0.00112217 0)
(14.9996 0.00112895 0)
(14.9997 0.00113619 -2.65675e-20)
(14.9997 0.00114296 0)
(14.9997 0.00114969 -3.01248e-20)
(14.9997 0.00115557 1.07935e-19)
(14.9997 0.00116123 4.25093e-20)
(14.9997 0.00116734 -1.83318e-19)
(14.9998 0.00117255 3.63498e-20)
(14.9998 0.0011777 3.80566e-20)
(14.9998 0.00118254 -5.48909e-20)
(14.9998 0.00118739 -1.40474e-20)
(14.9998 0.00119197 1.26208e-20)
(14.9999 0.00119594 1.10238e-20)
(14.9999 0.0011997 1.01564e-19)
(14.9999 0.00120305 1.19655e-19)
(14.9999 0.00120641 -4.91132e-20)
(14.9999 0.00120927 -1.12066e-19)
(15 0.00121221 0)
(15 0.00121452 2.24083e-21)
(15 0.00121667 5.64574e-20)
(15 0.00121861 -7.16733e-22)
(15 0.00122033 -5.43272e-20)
(15 0.00122191 0)
(15.0001 0.00122285 1.13318e-19)
(15.0001 0.00122387 -2.70598e-20)
(15.0001 0.00122439 -4.83696e-20)
(15.0001 0.00122493 -1.96458e-20)
(15.0001 0.00122505 -5.6767e-20)
(15.0002 0.00122498 -6.96979e-20)
(15.0002 0.00122427 2.88061e-20)
(15.0002 0.00122328 1.57383e-20)
(15.0002 0.00122232 5.70588e-20)
(15.0002 0.00122102 -1.92061e-20)
(15.0003 0.00121967 5.73342e-20)
(15.0003 0.00121736 -4.44338e-20)
(15.0003 0.00121552 -3.29622e-20)
(15.0003 0.00121346 -8.25521e-20)
(15.0003 0.00121049 2.71828e-20)
(15.0004 0.00120748 1.42566e-19)
(15.0004 0.00120394 -8.68508e-20)
(15.0004 0.00120091 -5.69138e-20)
(15.0004 0.00119711 6.57561e-20)
(15.0004 0.0011932 5.72257e-20)
(15.0005 0.00118818 2.09262e-20)
(15.0005 0.00118408 -1.89669e-19)
(15.0005 0.001179 3.97231e-20)
(15.0005 0.00117323 1.58903e-20)
(15.0005 0.00116776 -1.14136e-19)
(15.0006 0.00116204 1.45479e-19)
(15.0006 0.00115583 1.10837e-20)
(15.0006 0.00114933 -5.69031e-20)
(15.0006 0.00114254 -4.01486e-20)
(15.0006 0.00113532 1.07183e-19)
(15.0007 0.00112707 -1.09078e-19)
(15.0007 0.00111962 5.01837e-20)
(15.0007 0.00111132 5.71814e-20)
(15.0007 0.00110269 5.67113e-20)
(15.0007 0.00109415 -1.15464e-19)
(15.0008 0.00108479 -1.73657e-19)
(15.0008 0.00107613 5.52717e-22)
(15.0008 0.00106639 5.66248e-20)
(15.0008 0.00105613 0)
(15.0008 0.00104649 6.63622e-20)
(15.0008 0.00103573 0)
(15.0009 0.00102507 -5.70001e-20)
(15.0009 0.00101434 7.19212e-20)
(15.0009 0.0010033 -1.65555e-20)
(15.0009 0.000991171 7.45496e-20)
(15.0009 0.000979685 5.68874e-20)
(15.001 0.000967363 -1.56192e-19)
(15.001 0.00095543 -3.34648e-20)
(15.001 0.000942441 2.50834e-20)
(15.001 0.000930269 1.39494e-19)
(15.001 0.000916925 -2.83806e-20)
(15.001 0.000902699 0)
(15.0011 0.000889353 3.09723e-20)
(15.0011 0.000874964 1.46522e-19)
(15.0011 0.000860552 1.453e-19)
(15.0011 0.000846315 -1.47814e-19)
(15.0011 0.000831419 3.76475e-20)
(15.0011 0.000815461 9.88149e-22)
(15.0011 0.000800415 5.50933e-20)
(15.0012 0.000783534 -5.59499e-20)
(15.0012 0.000767391 1.12941e-19)
(15.0012 0.000751275 6.51347e-21)
(15.0012 0.000734226 -2.13444e-19)
(15.0012 0.000718229 -5.43684e-20)
(15.0012 0.000700723 -5.08489e-20)
(15.0012 0.000683314 -1.2919e-21)
(15.0013 0.000666142 1.4309e-21)
(15.0013 0.000647759 5.37699e-20)
(15.0013 0.000629732 9.52267e-24)
(15.0013 0.000611249 -3.36646e-19)
(15.0013 0.000593289 1.78199e-19)
(15.0013 0.000575055 -1.79533e-19)
(15.0013 0.000555523 1.72078e-19)
(15.0013 0.000537483 -1.75077e-19)
(15.0013 0.000518057 1.5609e-20)
(15.0013 0.00049996 1.75787e-19)
(15.0014 0.000480016 -1.6881e-20)
(15.0014 0.000461437 -1.2621e-19)
(15.0014 0.000442576 1.27657e-19)
(15.0014 0.000424068 5.11015e-20)
(15.0014 0.000403837 -7.4049e-20)
(15.0014 0.000385285 -3.12652e-19)
(15.0014 0.000367754 1.58539e-19)
(15.0014 0.000348795 -1.30608e-19)
(15.0014 0.000331279 7.83612e-20)
(15.0014 0.000313142 1.88644e-19)
(15.0014 0.000296585 -8.85409e-20)
(15.0014 0.000280712 3.29489e-20)
(15.0014 0.000263022 1.40082e-19)
(15.0014 0.00024697 -1.9417e-19)
(15.0014 0.000231213 1.49222e-19)
(15.0014 0.000215576 9.10117e-20)
(15.0014 0.000201196 1.89798e-19)
(15.0014 0.000181638 -1.48392e-19)
(15.0015 0.000163359 -1.78267e-19)
(15.0016 9.52044e-05 2.04333e-19)
(15.0008 7.32609e-06 -1.8152e-19)
(14.9976 -8.98053e-05 5.85075e-20)
(14.9974 -0.00064037 -9.8387e-20)
(14.9975 -0.00077555 -1.44763e-20)
(14.9975 -0.000657892 -1.42865e-19)
(14.9975 -0.000557308 1.29765e-19)
(14.9975 -0.000408132 -7.05878e-20)
(14.9974 -0.000297947 -1.13529e-19)
(14.9974 -0.000189478 3.4527e-21)
(14.9974 -9.59892e-05 2.45488e-20)
(14.9973 -6.75367e-06 5.23961e-21)
(14.9973 7.63036e-05 -6.29726e-20)
(14.9973 0.000154272 3.00096e-20)
(14.9973 0.000231156 8.71149e-20)
(14.9972 0.000303038 -5.57949e-20)
(14.9972 0.000375295 2.06148e-19)
(14.9972 0.000443996 2.03189e-20)
(14.9972 0.000511892 -1.20355e-19)
(14.9972 0.000579526 -1.92523e-20)
(14.9971 0.000644295 7.07091e-20)
(14.9971 0.000708519 -3.13416e-22)
(14.9971 0.000771609 -3.52799e-20)
(14.9971 0.000834723 -1.23417e-19)
(14.9971 0.000895701 -8.6435e-20)
(14.9971 0.000957161 -2.59695e-22)
(14.9971 0.00101669 -3.69939e-20)
(14.9971 0.00107704 7.40251e-20)
(14.9971 0.00113625 3.16617e-21)
(14.9971 0.00119488 4.84776e-21)
(14.9971 0.00125318 -4.43226e-20)
(14.9971 0.00131115 -3.92022e-20)
(14.9971 0.0013688 3.88536e-20)
(14.9971 0.00142552 2.05515e-21)
(14.9971 0.0014823 -1.24411e-19)
(14.9972 0.00153879 3.27595e-19)
(14.9972 0.0015934 4.22593e-20)
(14.9972 0.00164877 8.01263e-20)
(14.9972 0.00170238 -8.46974e-20)
(14.9972 0.00175596 -1.53465e-21)
(14.9972 0.00181 7.94557e-20)
(14.9973 0.00186152 1.95937e-19)
(14.9973 0.0019137 1.22199e-19)
(14.9973 0.00196432 -1.42326e-20)
(14.9973 0.00201386 7.4587e-20)
(14.9974 0.00206323 0)
(14.9974 0.00211216 2.76249e-20)
(14.9974 0.00215971 -4.60303e-20)
(14.9974 0.00220793 1.62156e-19)
(14.9975 0.00225438 -9.20252e-20)
(14.9975 0.00229936 -1.61993e-19)
(14.9975 0.00234512 4.6079e-20)
(14.9976 0.00238968 6.76747e-20)
(14.9976 0.0024338 3.54134e-20)
(14.9976 0.00247665 2.23644e-19)
(14.9977 0.00252038 1.12072e-19)
(14.9977 0.00256224 -5.27753e-22)
(14.9977 0.00260373 3.62256e-20)
(14.9978 0.00264492 -4.82051e-20)
(14.9978 0.0026854 -9.87104e-20)
(14.9979 0.00272464 1.63757e-19)
(14.9979 0.00276437 1.12581e-19)
(14.9979 0.00280272 4.87512e-21)
(14.998 0.00283986 0)
(14.998 0.00287739 5.2478e-20)
(14.9981 0.00291345 -5.11891e-20)
(14.9981 0.00294907 1.00519e-19)
(14.9982 0.0029838 2.92818e-22)
(14.9982 0.00301772 -3.73915e-22)
(14.9983 0.00305164 -9.70148e-20)
(14.9983 0.00308396 -1.03614e-19)
(14.9983 0.00311542 2.20902e-23)
(14.9984 0.00314596 1.03839e-19)
(14.9984 0.00317619 1.04902e-19)
(14.9985 0.00320526 -5.24773e-20)
(14.9985 0.00323326 2.37231e-20)
(14.9986 0.00326152 -5.27608e-20)
(14.9986 0.00328841 -8.88481e-20)
(14.9987 0.00331392 3.43173e-20)
(14.9987 0.00334004 5.34121e-20)
(14.9988 0.00336425 8.53457e-20)
(14.9988 0.00338782 -3.01269e-20)
(14.9989 0.00341 8.27633e-20)
(14.999 0.00343233 2.75268e-20)
(14.999 0.00345363 -1.34836e-19)
(14.9991 0.0034744 -5.47179e-20)
(14.9991 0.00349342 5.47372e-20)
(14.9992 0.00351187 9.84689e-20)
(14.9992 0.00353018 -1.27287e-23)
(14.9993 0.0035473 5.52868e-20)
(14.9993 0.00356339 1.3844e-22)
(14.9994 0.00357871 -7.15995e-20)
(14.9994 0.00359397 -7.02034e-20)
(14.9995 0.00360773 -1.24894e-19)
(14.9996 0.00362033 1.00592e-19)
(14.9996 0.00363213 1.12641e-19)
(14.9997 0.00364323 2.54278e-20)
(14.9997 0.00365415 2.10001e-20)
(14.9998 0.00366334 -6.23084e-20)
(14.9999 0.00367228 -5.69235e-20)
(14.9999 0.00367945 -1.92401e-23)
(15 0.00368624 5.63042e-20)
(15 0.00369225 5.66528e-20)
(15.0001 0.0036975 -1.7082e-23)
(15.0001 0.00370237 -5.73674e-20)
(15.0002 0.00370546 -1.14922e-19)
(15.0003 0.0037083 4.39489e-20)
(15.0003 0.00370936 4.89693e-20)
(15.0004 0.00371024 -6.72723e-20)
(15.0004 0.00371038 -1.07561e-22)
(15.0005 0.00370969 4.46374e-20)
(15.0006 0.00370777 1.15063e-19)
(15.0006 0.00370427 -1.31407e-19)
(15.0007 0.00370066 -5.73563e-20)
(15.0007 0.00369622 -1.09801e-22)
(15.0008 0.00369065 2.09695e-20)
(15.0009 0.0036838 1.27597e-20)
(15.0009 0.00367676 4.79536e-20)
(15.001 0.0036691 -5.78114e-20)
(15.001 0.00365958 2.73255e-20)
(15.0011 0.00364949 1.4633e-22)
(15.0012 0.0036383 -3.03599e-20)
(15.0012 0.00362727 1.47629e-19)
(15.0013 0.00361476 -4.60798e-22)
(15.0014 0.00360154 -1.15196e-19)
(15.0014 0.00358622 -9.46769e-20)
(15.0015 0.00357151 2.08823e-22)
(15.0015 0.0035552 1.37516e-19)
(15.0016 0.00353729 -4.16512e-20)
(15.0017 0.00351954 5.78937e-20)
(15.0017 0.00350046 8.94732e-20)
(15.0018 0.00347997 -1.03896e-19)
(15.0018 0.00345899 -1.15555e-19)
(15.0019 0.00343686 1.65881e-19)
(15.0019 0.00341365 1.13803e-19)
(15.002 0.00338855 -5.21799e-20)
(15.0021 0.00336335 -6.56039e-22)
(15.0021 0.00333717 -4.97011e-22)
(15.0022 0.00330991 -5.83389e-20)
(15.0022 0.00328207 -1.74303e-19)
(15.0023 0.0032525 3.97945e-21)
(15.0024 0.00322329 1.82973e-19)
(15.0024 0.00319259 1.21296e-19)
(15.0025 0.00316018 -8.58548e-21)
(15.0025 0.00312821 -5.30901e-22)
(15.0026 0.00309462 1.25508e-20)
(15.0026 0.00306002 0)
(15.0027 0.00302488 1.54497e-20)
(15.0027 0.00298907 5.78093e-20)
(15.0028 0.00295083 5.58825e-20)
(15.0029 0.00291341 -1.13553e-19)
(15.0029 0.00287426 -2.16451e-20)
(15.003 0.00283433 5.55908e-20)
(15.003 0.00279274 2.64136e-20)
(15.0031 0.00275185 1.11382e-19)
(15.0031 0.00270893 -8.49724e-20)
(15.0032 0.00266353 1.12618e-19)
(15.0032 0.00261863 -8.96076e-20)
(15.0033 0.00257167 1.48284e-19)
(15.0033 0.00252377 -1.50471e-19)
(15.0034 0.00247524 4.01396e-20)
(15.0034 0.002425 9.35573e-20)
(15.0034 0.00237239 1.398e-19)
(15.0035 0.00232031 5.49247e-20)
(15.0035 0.00226468 4.4272e-20)
(15.0036 0.00220937 5.68875e-20)
(15.0036 0.00215372 5.30493e-20)
(15.0037 0.00209556 -1.59333e-19)
(15.0037 0.00203808 -1.61673e-19)
(15.0037 0.00197791 5.61326e-20)
(15.0038 0.00191706 -5.70558e-20)
(15.0038 0.00185606 1.39982e-21)
(15.0039 0.00179348 -5.91684e-20)
(15.0039 0.00173031 -3.36971e-19)
(15.0039 0.00166643 2.56965e-21)
(15.004 0.00160191 1.76552e-19)
(15.004 0.00153639 1.22327e-19)
(15.004 0.00146904 1.02842e-19)
(15.0041 0.00140266 -2.93967e-19)
(15.0041 0.00133332 1.22478e-19)
(15.0041 0.00126444 7.02081e-20)
(15.0041 0.00119196 1.26494e-19)
(15.0042 0.00111926 1.03602e-19)
(15.0042 0.0010443 -7.59393e-20)
(15.0042 0.000967897 -5.28279e-20)
(15.0042 0.000886739 -1.79343e-19)
(15.0043 0.000804542 -1.56241e-19)
(15.0043 0.000720568 -5.74984e-20)
(15.0043 0.000631029 -1.74863e-19)
(15.0043 0.00054141 4.54262e-20)
(15.0043 0.000445442 -4.76048e-20)
(15.0043 0.000348498 5.13167e-20)
(15.0044 0.000247268 -3.97026e-21)
(15.0044 0.000141559 -9.80725e-20)
(15.0044 3.41216e-05 8.98773e-20)
(15.0044 -8.29101e-05 3.26428e-19)
(15.0044 -0.000199928 -4.02922e-20)
(15.0044 -0.000338474 -9.02018e-21)
(15.0044 -0.000444303 -2.40378e-19)
(15.0044 -0.000529993 2.17647e-19)
(15.0046 -0.000369083 -5.77265e-20)
(15.0043 -4.18722e-05 -3.50589e-19)
(14.9958 -9.4941e-05 9.12509e-20)
(14.9957 -0.000279725 1.55605e-20)
(14.9957 -0.00112762 4.61577e-20)
(14.9958 -0.000931654 -7.79661e-20)
(14.9958 -0.000859292 -5.19821e-20)
(14.9958 -0.000626744 1.55931e-19)
(14.9957 -0.000459078 -3.01294e-20)
(14.9957 -0.000285219 0)
(14.9956 -0.000138754 -1.56536e-19)
(14.9956 4.20889e-06 2.08531e-19)
(14.9955 0.00013581 -1.6163e-19)
(14.9955 0.00026233 3.16044e-20)
(14.9954 0.00038464 3.01323e-20)
(14.9954 0.000501562 -1.10968e-19)
(14.9953 0.000618745 7.86419e-20)
(14.9953 0.000731346 3.54742e-20)
(14.9953 0.000842275 -1.67007e-19)
(14.9953 0.000952541 -1.64484e-19)
(14.9952 0.00105955 4.79415e-20)
(14.9952 0.00116583 4.89061e-20)
(14.9952 0.00127043 1.65536e-19)
(14.9952 0.00137449 3.69655e-20)
(14.9952 0.00147649 4.71825e-20)
(14.9952 0.00157844 -8.42667e-20)
(14.9952 0.00167798 3.8358e-20)
(14.9952 0.00177793 -1.65922e-19)
(14.9952 0.0018768 1.65656e-19)
(14.9952 0.00197462 3.84646e-20)
(14.9952 0.00207182 3.99964e-20)
(14.9952 0.00216891 -3.96914e-20)
(14.9952 0.00226516 -8.24222e-20)
(14.9952 0.00236097 1.22178e-19)
(14.9952 0.0024566 -2.0311e-19)
(14.9952 0.00255159 -1.23693e-19)
(14.9953 0.00264459 1.6433e-19)
(14.9953 0.00273822 1.57042e-19)
(14.9953 0.00282942 7.79447e-20)
(14.9953 0.00292013 -4.30759e-20)
(14.9954 0.00301091 3.27092e-20)
(14.9954 0.00309897 -1.51456e-19)
(14.9954 0.00318669 1.94429e-19)
(14.9955 0.00327306 4.51223e-20)
(14.9955 0.00335759 7.3319e-20)
(14.9956 0.00344202 7.2541e-20)
(14.9956 0.00352499 0)
(14.9957 0.00360576 -4.58768e-20)
(14.9957 0.00368665 2.16641e-20)
(14.9957 0.00376547 1.17056e-19)
(14.9958 0.0038427 -9.47673e-20)
(14.9959 0.00391965 -6.70427e-20)
(14.9959 0.0039954 8.45519e-20)
(14.996 0.00407043 -1.13106e-19)
(14.996 0.00414294 -7.97519e-20)
(14.9961 0.00421625 1.74259e-19)
(14.9961 0.0042876 4.8549e-20)
(14.9962 0.00435846 6.10935e-20)
(14.9963 0.00442784 1.28685e-19)
(14.9963 0.00449647 8.87494e-21)
(14.9964 0.0045638 -9.96954e-20)
(14.9965 0.00463068 1.05556e-19)
(14.9965 0.00469594 1.5598e-19)
(14.9966 0.00475946 5.35157e-20)
(14.9967 0.00482276 5.0616e-20)
(14.9968 0.00488454 3.57487e-22)
(14.9968 0.00494484 -1.51378e-19)
(14.9969 0.00500373 9.73886e-20)
(14.997 0.00506159 5.15786e-20)
(14.9971 0.00511832 4.64939e-20)
(14.9971 0.00517336 -9.74016e-20)
(14.9972 0.00522695 -6.17128e-23)
(14.9973 0.00527921 1.0164e-20)
(14.9974 0.00533075 -5.24018e-20)
(14.9975 0.0053807 -6.67533e-20)
(14.9975 0.00542853 9.16484e-20)
(14.9976 0.00547565 9.07552e-20)
(14.9977 0.00552183 -3.57891e-20)
(14.9978 0.0055662 -3.44457e-20)
(14.9979 0.00560948 -1.20113e-19)
(14.998 0.005651 2.23413e-20)
(14.9981 0.00569146 -2.98114e-20)
(14.9981 0.00572967 -1.09595e-19)
(14.9982 0.00576751 1.37194e-19)
(14.9983 0.00580388 3.09013e-21)
(14.9984 0.00583908 -1.10635e-19)
(14.9985 0.00587167 -1.84081e-22)
(14.9986 0.00590354 1.35212e-22)
(14.9987 0.0059343 -7.63587e-20)
(14.9988 0.00596381 5.59394e-20)
(14.9989 0.0059915 9.48253e-20)
(14.999 0.00601776 1.62265e-20)
(14.9991 0.00604303 1.45347e-20)
(14.9992 0.00606627 7.59055e-23)
(14.9993 0.00608817 -6.85954e-20)
(14.9994 0.00610858 -1.03864e-19)
(14.9995 0.00612778 -5.73059e-20)
(14.9995 0.00614612 1.7201e-19)
(14.9996 0.00616182 5.18877e-20)
(14.9997 0.00617647 -5.76288e-20)
(14.9998 0.00618907 5.51828e-20)
(14.9999 0.00620101 1.07412e-21)
(15 0.00621119 -5.84943e-20)
(15.0001 0.00621964 2.05216e-21)
(15.0002 0.00622745 0)
(15.0003 0.00623319 5.12506e-21)
(15.0004 0.00623786 -5.14896e-20)
(15.0005 0.00623986 -8.1941e-21)
(15.0006 0.00624094 6.80431e-20)
(15.0007 0.00624078 -8.10243e-20)
(15.0008 0.00623905 -5.82194e-20)
(15.0009 0.0062359 3.92283e-24)
(15.001 0.00623062 -4.95338e-23)
(15.0011 0.00622423 1.16802e-19)
(15.0013 0.0062163 5.81298e-20)
(15.0014 0.00620639 -5.828e-20)
(15.0015 0.00619509 5.84426e-20)
(15.0016 0.00618256 8.22249e-20)
(15.0017 0.0061692 -1.17044e-19)
(15.0018 0.00615302 -8.95779e-20)
(15.0019 0.00613554 2.98222e-20)
(15.002 0.00611644 1.47094e-19)
(15.0021 0.0060969 3.16404e-20)
(15.0022 0.00607487 -9.18415e-20)
(15.0023 0.00605164 0)
(15.0024 0.00602639 5.86169e-20)
(15.0025 0.00599984 9.66875e-20)
(15.0026 0.00597117 -5.85172e-20)
(15.0027 0.0059413 -5.82529e-20)
(15.0028 0.00591045 5.8551e-20)
(15.0029 0.00587708 -8.99097e-20)
(15.003 0.00584175 -5.8182e-20)
(15.0031 0.00580543 5.84756e-20)
(15.0032 0.00576747 1.0786e-19)
(15.0033 0.00572774 -1.6091e-19)
(15.0034 0.00568598 -5.15126e-21)
(15.0035 0.00564283 -5.06295e-20)
(15.0036 0.00559843 5.56703e-20)
(15.0037 0.00555234 -1.15578e-19)
(15.0038 0.00550447 5.82577e-20)
(15.0039 0.00545476 1.18773e-19)
(15.004 0.00540466 6.26689e-20)
(15.004 0.00535238 -5.20879e-20)
(15.0041 0.00529801 -5.70454e-20)
(15.0042 0.00524283 1.82809e-19)
(15.0043 0.00518582 -5.52352e-22)
(15.0044 0.00512754 -5.73581e-20)
(15.0045 0.00506711 0)
(15.0046 0.00500563 1.47691e-19)
(15.0047 0.00494136 -1.5103e-19)
(15.0048 0.00487754 0)
(15.0049 0.00481025 7.87362e-20)
(15.005 0.00474163 -8.03776e-20)
(15.005 0.00467109 5.75512e-20)
(15.0051 0.00459975 2.53886e-20)
(15.0052 0.004526 1.14213e-19)
(15.0053 0.00444921 -7.9474e-22)
(15.0054 0.00437202 -1.75589e-19)
(15.0055 0.00429152 5.6257e-20)
(15.0055 0.00420859 -2.16949e-19)
(15.0056 0.00412487 1.48874e-19)
(15.0057 0.00403829 -9.424e-20)
(15.0058 0.00394943 -5.63082e-20)
(15.0059 0.00385967 -9.63338e-20)
(15.0059 0.00376599 4.15577e-20)
(15.006 0.00367202 1.58808e-19)
(15.0061 0.00357708 -4.90786e-20)
(15.0061 0.00347867 -2.6861e-19)
(15.0062 0.00338075 -2.08636e-19)
(15.0063 0.00327988 1.60892e-19)
(15.0063 0.00317775 -2.15831e-19)
(15.0064 0.00307503 0)
(15.0065 0.00297126 -1.6592e-19)
(15.0065 0.002866 -5.5829e-20)
(15.0066 0.00276017 2.20434e-19)
(15.0066 0.0026531 -1.14767e-19)
(15.0067 0.00254419 1.78263e-19)
(15.0068 0.00243328 -2.24597e-19)
(15.0068 0.00232246 1.20145e-19)
(15.0069 0.0022077 1.71826e-19)
(15.0069 0.00209203 1.74968e-19)
(15.0069 0.00197254 1.74434e-19)
(15.007 0.00185114 1.65406e-20)
(15.007 0.00172618 3.49987e-21)
(15.0071 0.00159873 -7.74121e-20)
(15.0071 0.00146522 7.60535e-20)
(15.0071 0.00132912 0)
(15.0071 0.00118934 -1.81908e-19)
(15.0072 0.00104232 2.61903e-19)
(15.0072 0.000894813 -1.34196e-19)
(15.0072 0.000740161 -7.55712e-20)
(15.0072 0.00058183 4.43973e-20)
(15.0073 0.000419758 -3.652e-19)
(15.0073 0.000251369 5.64041e-20)
(15.0073 8.10468e-05 1.75914e-19)
(15.0073 -0.000105772 3.68254e-20)
(15.0073 -0.000288478 6.15567e-21)
(15.0073 -0.000499928 -9.17813e-20)
(15.0073 -0.000612381 5.59844e-20)
(15.0074 -0.000734828 -1.38555e-20)
(15.0076 -3.51136e-05 -2.53503e-19)
(15.0075 -2.86717e-05 1.07404e-19)
(14.9943 -1.44218e-05 -6.83549e-20)
(14.9941 0.000555348 7.62789e-20)
(14.9941 -0.000937191 0)
(14.9941 -0.00074719 0)
(14.9942 -0.000787888 -2.5151e-20)
(14.9941 -0.000533614 -2.89027e-20)
(14.9941 -0.000352702 -4.84716e-20)
(14.994 -0.000143878 -1.90551e-20)
(14.9939 3.14626e-05 -5.19325e-20)
(14.9938 0.000207091 6.97482e-20)
(14.9938 0.000369853 -4.25628e-20)
(14.9937 0.000529258 -3.35529e-20)
(14.9936 0.00068363 -4.68306e-20)
(14.9936 0.000834751 2.62673e-22)
(14.9935 0.000985598 -1.6039e-19)
(14.9935 0.00113278 1.12884e-19)
(14.9934 0.00127847 3.40947e-20)
(14.9934 0.00142389 4.79871e-20)
(14.9933 0.00156676 -1.17015e-19)
(14.9933 0.00170886 4.74309e-20)
(14.9933 0.00184887 -1.6533e-19)
(14.9933 0.00198904 1.35574e-21)
(14.9932 0.00212727 3.51143e-20)
(14.9932 0.00226593 -4.3295e-20)
(14.9932 0.00240166 8.08404e-20)
(14.9932 0.00253782 1.13374e-21)
(14.9932 0.00267284 -1.59361e-19)
(14.9932 0.00280713 -8.2499e-20)
(14.9932 0.00294039 4.042e-20)
(14.9932 0.00307414 1.50482e-22)
(14.9933 0.00320706 0)
(14.9933 0.0033392 8.03045e-20)
(14.9933 0.00347095 1.20803e-19)
(14.9933 0.00360226 -7.88646e-20)
(14.9934 0.00373193 -8.46994e-20)
(14.9934 0.00386153 -7.89502e-20)
(14.9934 0.0039891 -7.6808e-20)
(14.9935 0.00411595 -7.78349e-20)
(14.9935 0.00424215 1.13849e-20)
(14.9936 0.00436543 -1.50958e-19)
(14.9936 0.00448827 -1.20292e-19)
(14.9937 0.0046091 2.96369e-20)
(14.9937 0.00472805 2.78482e-20)
(14.9938 0.00484673 4.55132e-20)
(14.9938 0.00496356 7.26109e-20)
(14.9939 0.00507747 -6.09965e-22)
(14.994 0.00519112 4.70328e-20)
(14.994 0.00530226 1.38757e-19)
(14.9941 0.00541192 6.83309e-20)
(14.9942 0.00552023 -4.74702e-20)
(14.9942 0.00562716 6.58233e-20)
(14.9943 0.00573253 -3.41285e-20)
(14.9944 0.00583603 -4.79962e-20)
(14.9945 0.00593911 -4.97506e-20)
(14.9946 0.00603984 4.95419e-20)
(14.9947 0.00613988 7.2999e-20)
(14.9947 0.00623758 -4.99716e-20)
(14.9948 0.00633467 1.08711e-19)
(14.9949 0.00643013 -7.18161e-21)
(14.995 0.00652431 -1.63513e-19)
(14.9951 0.00661661 -5.10324e-20)
(14.9952 0.00670694 5.1004e-20)
(14.9953 0.00679619 5.16442e-20)
(14.9954 0.0068833 1.54617e-19)
(14.9955 0.00696871 -5.10304e-20)
(14.9956 0.00705246 -1.0503e-19)
(14.9957 0.00713405 4.45958e-21)
(14.9958 0.00721394 4.68802e-20)
(14.996 0.00729221 -5.26642e-20)
(14.9961 0.00736856 4.402e-20)
(14.9962 0.00744289 1.06651e-19)
(14.9963 0.0075153 8.37408e-20)
(14.9964 0.00758616 -1.47884e-19)
(14.9965 0.00765442 -9.31875e-20)
(14.9966 0.007721 5.40874e-20)
(14.9968 0.00778648 1.81664e-20)
(14.9969 0.00784973 5.44606e-20)
(14.997 0.00791074 2.12406e-20)
(14.9971 0.00796957 -6.46143e-20)
(14.9972 0.00802714 6.69735e-21)
(14.9974 0.00808209 -1.14598e-19)
(14.9975 0.00813568 8.28782e-20)
(14.9976 0.00818711 -2.85838e-20)
(14.9978 0.00823696 -1.68095e-19)
(14.9979 0.00828376 3.22919e-20)
(14.998 0.00832932 1.12751e-19)
(14.9981 0.0083728 1.10856e-22)
(14.9983 0.00841452 3.7027e-20)
(14.9984 0.00845412 -5.65867e-20)
(14.9985 0.00849161 -1.54836e-19)
(14.9987 0.00852693 1.50316e-20)
(14.9988 0.00856035 1.19059e-23)
(14.9989 0.00859207 5.75757e-20)
(14.9991 0.00862129 5.78069e-20)
(14.9992 0.00864843 3.09659e-20)
(14.9994 0.00867393 4.32332e-20)
(14.9995 0.00869631 -5.23298e-20)
(14.9996 0.00871714 -5.84503e-20)
(14.9998 0.00873533 -5.85561e-20)
(14.9999 0.00875254 -5.74685e-20)
(15.0001 0.00876701 1.75957e-19)
(15.0002 0.00877875 5.87842e-20)
(15.0003 0.00878954 -6.22974e-20)
(15.0005 0.00879767 -5.89073e-20)
(15.0006 0.00880423 -6.54576e-20)
(15.0008 0.00880762 6.71557e-20)
(15.0009 0.00880932 -1.37666e-19)
(15.001 0.00880885 -5.89228e-20)
(15.0012 0.00880576 1.90077e-19)
(15.0013 0.00880088 1.17985e-19)
(15.0015 0.00879395 -1.0202e-19)
(15.0016 0.0087847 -2.33195e-20)
(15.0018 0.00877315 -1.64651e-22)
(15.0019 0.00875927 1.35003e-22)
(15.002 0.00874345 1.18312e-19)
(15.0022 0.00872532 -2.43419e-20)
(15.0023 0.00870578 -8.48462e-20)
(15.0025 0.00868292 -3.18331e-20)
(15.0026 0.00865828 8.85905e-20)
(15.0028 0.00863123 1.18254e-19)
(15.0029 0.00860264 0)
(15.0031 0.00857112 -5.92645e-20)
(15.0032 0.0085381 -2.35496e-20)
(15.0033 0.00850259 0)
(15.0035 0.00846446 -3.87794e-20)
(15.0036 0.00842368 -4.04118e-20)
(15.0038 0.0083815 -4.1996e-20)
(15.0039 0.0083372 -5.92652e-20)
(15.0041 0.0082898 -4.49315e-20)
(15.0042 0.00824044 5.89046e-20)
(15.0043 0.0081887 -5.92673e-20)
(15.0045 0.00813449 2.70701e-22)
(15.0046 0.00807794 6.60833e-20)
(15.0048 0.0080194 5.30012e-20)
(15.0049 0.00795878 4.48836e-22)
(15.005 0.00789556 -1.1358e-19)
(15.0052 0.00783035 -5.84964e-20)
(15.0053 0.00776302 0)
(15.0054 0.00769307 -6.81829e-23)
(15.0056 0.00762164 -4.29816e-21)
(15.0057 0.00754767 -1.29974e-19)
(15.0058 0.00747117 1.9199e-19)
(15.006 0.00739274 6.68734e-20)
(15.0061 0.00731191 -2.55376e-19)
(15.0062 0.00722979 0)
(15.0064 0.00714427 5.85705e-20)
(15.0065 0.00705723 1.53435e-20)
(15.0066 0.00696672 1.88016e-20)
(15.0067 0.00687498 5.75946e-20)
(15.0069 0.00678031 -7.92061e-20)
(15.007 0.00668307 0)
(15.0071 0.00658347 5.81158e-20)
(15.0072 0.00648158 -2.66804e-20)
(15.0073 0.00637717 2.77693e-20)
(15.0075 0.00626898 -2.01937e-19)
(15.0076 0.00615969 8.94186e-20)
(15.0077 0.00604596 -8.8742e-22)
(15.0078 0.00592913 -9.0771e-20)
(15.0079 0.00581108 5.63143e-20)
(15.008 0.0056899 -5.74148e-20)
(15.0081 0.00556542 -5.63868e-20)
(15.0082 0.00543973 2.11546e-19)
(15.0083 0.00530971 5.47239e-20)
(15.0084 0.00517831 4.5003e-20)
(15.0085 0.00504548 -1.58776e-19)
(15.0086 0.00490952 -2.15051e-19)
(15.0087 0.00477292 1.61802e-19)
(15.0088 0.00463361 -5.2745e-20)
(15.0089 0.00449302 1.11057e-21)
(15.009 0.00435127 5.4343e-20)
(15.0091 0.00420773 0)
(15.0092 0.00406231 2.23727e-19)
(15.0093 0.00391674 -1.1323e-19)
(15.0093 0.00376898 -1.14506e-19)
(15.0094 0.00361936 -2.31349e-19)
(15.0095 0.00346715 -6.21201e-20)
(15.0095 0.00331452 1.7132e-19)
(15.0096 0.00315664 -1.18817e-19)
(15.0097 0.00299779 -5.36636e-20)
(15.0097 0.00283463 -1.19606e-19)
(15.0098 0.00266974 -1.93717e-19)
(15.0098 0.00249993 1.94085e-19)
(15.0099 0.00232664 2.05215e-21)
(15.0099 0.00214744 -2.24986e-21)
(15.01 0.00196532 1.29028e-19)
(15.01 0.0017791 1.77453e-19)
(15.01 0.00158585 7.62685e-20)
(15.0101 0.00139135 2.73673e-20)
(15.0101 0.00119152 -1.25972e-19)
(15.0101 0.000987298 -1.35143e-19)
(15.0102 0.000782082 3.85116e-21)
(15.0102 0.00057036 1.79649e-19)
(15.0102 0.00035733 -2.64885e-19)
(15.0102 0.000123553 1.3263e-19)
(15.0101 -9.53971e-05 6.55554e-22)
(15.0102 -0.000343196 0)
(15.0102 -0.000409029 -5.63893e-20)
(15.0104 -0.000540143 -1.28239e-19)
(15.0106 0.000593023 4.08177e-20)
(15.0105 3.74383e-05 1.38727e-19)
(14.9927 0.000123914 -8.77635e-20)
(14.9924 0.00114596 -1.10358e-19)
(14.9924 -0.000631902 0)
(14.9925 -0.000518122 7.71225e-20)
(14.9925 -0.000679778 2.53398e-20)
(14.9925 -0.000426534 -4.65157e-20)
(14.9924 -0.00024529 -7.58154e-20)
(14.9923 -5.74478e-06 -2.67777e-20)
(14.9922 0.000197092 1.92087e-20)
(14.9921 0.00040468 -7.96732e-20)
(14.992 0.00059851 1.08872e-19)
(14.9919 0.000789005 -4.94861e-20)
(14.9918 0.000975228 1.10889e-19)
(14.9917 0.00115926 -2.97257e-22)
(14.9917 0.00134271 4.87888e-20)
(14.9916 0.00152432 -3.37174e-20)
(14.9915 0.00170427 1.62781e-19)
(14.9915 0.001884 1.15032e-19)
(14.9914 0.00206196 -3.25206e-20)
(14.9914 0.00224027 -2.6828e-21)
(14.9913 0.00241656 -4.5008e-20)
(14.9913 0.00259249 -3.69781e-20)
(14.9913 0.0027674 -8.28566e-20)
(14.9913 0.00294251 -3.6526e-20)
(14.9913 0.00311481 -8.37341e-20)
(14.9913 0.0032876 1.59366e-19)
(14.9913 0.00345956 -4.32594e-20)
(14.9913 0.00363092 -8.26221e-20)
(14.9913 0.00380084 -8.21823e-20)
(14.9913 0.00397193 -1.21731e-19)
(14.9913 0.00414151 -4.13038e-20)
(14.9913 0.00431049 0)
(14.9914 0.004479 -1.21885e-19)
(14.9914 0.004647 -8.08678e-20)
(14.9914 0.00481357 5.31573e-21)
(14.9915 0.00497991 -3.61532e-20)
(14.9915 0.00514397 -7.88874e-20)
(14.9916 0.00530728 -1.21587e-19)
(14.9916 0.00546919 -7.82993e-20)
(14.9917 0.00562849 1.54427e-19)
(14.9917 0.00578701 -1.37518e-20)
(14.9918 0.0059438 -1.21153e-19)
(14.9919 0.00609798 -2.93949e-20)
(14.9919 0.00625131 6.72416e-22)
(14.992 0.00640291 -5.99718e-22)
(14.9921 0.00655081 -7.17213e-20)
(14.9922 0.00669793 7.07923e-20)
(14.9923 0.00684299 -6.98871e-20)
(14.9923 0.00698548 6.90764e-20)
(14.9924 0.00712652 6.56897e-22)
(14.9925 0.00726588 4.75831e-20)
(14.9926 0.00740275 6.78368e-20)
(14.9927 0.007538 1.57506e-20)
(14.9928 0.00767203 -1.4976e-20)
(14.993 0.00780332 1.41106e-20)
(14.9931 0.00793352 6.19358e-20)
(14.9932 0.00806126 -6.08379e-20)
(14.9933 0.00818748 -6.06835e-20)
(14.9934 0.00831179 1.10045e-19)
(14.9935 0.00843431 0)
(14.9937 0.00855465 -5.66951e-20)
(14.9938 0.00867305 -1.1096e-19)
(14.9939 0.00878919 5.42428e-20)
(14.9941 0.00890243 -5.30258e-20)
(14.9942 0.00901403 1.03687e-19)
(14.9943 0.00912347 5.24638e-20)
(14.9945 0.00922988 4.96593e-20)
(14.9946 0.00933395 -5.36928e-21)
(14.9947 0.00943591 -5.32107e-20)
(14.9949 0.00953595 -9.11619e-20)
(14.995 0.00963317 4.44648e-20)
(14.9952 0.00972707 4.25208e-20)
(14.9953 0.00981935 1.30612e-20)
(14.9955 0.00990916 -4.01359e-20)
(14.9956 0.00999636 -2.28722e-20)
(14.9958 0.0100813 -3.71453e-20)
(14.9959 0.0101638 -3.62908e-20)
(14.9961 0.0102437 9.01415e-20)
(14.9963 0.0103208 -1.11108e-19)
(14.9964 0.010396 -4.21877e-22)
(14.9966 0.0104684 5.64442e-20)
(14.9967 0.0105379 -5.63676e-20)
(14.9969 0.010605 5.49496e-20)
(14.9971 0.0106703 -5.20528e-20)
(14.9972 0.0107323 -1.15946e-23)
(14.9974 0.0107916 -5.69837e-20)
(14.9976 0.0108483 2.14573e-20)