/*--------------------------------*- C++ -*----------------------------------*\
  =========                 |
  \\      /  F ield         | OpenFOAM: The Open Source CFD Toolbox
   \\    /   O peration     | Website:  https://openfoam.org
    \\  /    A nd           | Version:  8
     \\/     M anipulation  |
\*---------------------------------------------------------------------------*/
FoamFile
{
    version     2.0;
    format      ascii;
    class       volVectorField;
    location    "0.00878";
    object      U;
}
// * * * * * * * * * * * * * * * * * * * * * * * * * * * * * * * * * * * * * //

dimensions      [0 1 -1 0 0 0 0];

internalField   nonuniform List<vector> 
109092
(
(15 -4.01167e-07 3.38039e-25)
(15 -2.25142e-09 7.45982e-24)
(15 -3.32681e-07 3.87689e-23)
(15 -9.26821e-07 -1.11998e-23)
(15 -1.61456e-06 -1.915e-22)
(15 -2.19969e-06 1.92705e-22)
(15 -2.65169e-06 7.24267e-24)
(15 -3.08445e-06 -7.41847e-23)
(15 -3.53599e-06 -2.32489e-22)
(15 -4.01192e-06 3.80029e-22)
(15 -4.44384e-06 1.0011e-23)
(15 -4.8526e-06 -6.54648e-22)
(15 -5.26598e-06 -4.29124e-22)
(15 -5.64537e-06 -4.52031e-22)
(15 -6.01818e-06 -4.04905e-22)
(15 -6.36651e-06 -6.77809e-22)
(15 -6.69602e-06 5.06404e-22)
(15 -7.03148e-06 -8.95373e-22)
(15 -7.33203e-06 6.62674e-22)
(15 -7.61378e-06 9.81783e-22)
(15 -7.88484e-06 1.76155e-21)
(15 -8.15131e-06 7.48452e-22)
(15 -8.38686e-06 7.69669e-22)
(15 -8.62358e-06 4.40078e-22)
(15 -8.83391e-06 -3.74247e-22)
(15 -9.04749e-06 -8.20813e-22)
(15 -9.23927e-06 1.27873e-21)
(15 -9.41163e-06 -1.69168e-21)
(15 -9.58028e-06 1.15663e-23)
(15 -9.73743e-06 -8.61474e-22)
(15 -9.88534e-06 -8.41819e-22)
(15 -1.00102e-05 -1.02078e-23)
(15 -1.01271e-05 -8.39048e-22)
(15 -1.02356e-05 -8.53579e-22)
(15 -1.03182e-05 8.4649e-22)
(15 -1.04029e-05 -9.34754e-24)
(15 -1.04701e-05 1.27755e-21)
(15 -1.05295e-05 -8.08767e-22)
(15 -1.05895e-05 3.43259e-22)
(15 -1.0621e-05 -1.57626e-21)
(15 -1.0654e-05 1.5479e-21)
(15 -1.06698e-05 -1.21639e-21)
(15 -1.067e-05 -2.85294e-22)
(15 -1.06658e-05 7.00331e-24)
(15 -1.06559e-05 -7.11274e-22)
(15 -1.06284e-05 -2.32444e-22)
(15 -1.06041e-05 -6.68862e-22)
(15 -1.05642e-05 1.09303e-21)
(15 -1.0506e-05 6.3763e-22)
(15 -1.04503e-05 -1.48766e-21)
(15 -1.0378e-05 -4.3551e-22)
(15 -1.03042e-05 -1.14709e-21)
(15 -1.02165e-05 -1.10854e-21)
(15 -1.0129e-05 4.15924e-22)
(15 -1.00259e-05 4.14656e-22)
(15 -9.91468e-06 4.95333e-22)
(15 -9.79755e-06 9.5212e-22)
(15 -9.67628e-06 -3.91671e-22)
(15 -9.54059e-06 -4.41144e-22)
(15 -9.40505e-06 4.21921e-22)
(15 -9.26084e-06 -4.03316e-22)
(15 -9.10354e-06 2.90474e-24)
(15 -8.94732e-06 -3.65956e-22)
(15 -8.78075e-06 2.81271e-24)
(15 -8.61111e-06 -3.29867e-22)
(15 -8.43528e-06 6.4589e-22)
(15 -8.24949e-06 0)
(15 -8.06602e-06 2.76627e-22)
(15 -7.87219e-06 -2.60551e-22)
(15 -7.67207e-06 -2.4461e-22)
(15 -7.46723e-06 -5.20469e-22)
(15 -7.25771e-06 2.80636e-22)
(15 -7.04238e-06 4.02075e-22)
(15 -6.82311e-06 -4.5248e-22)
(15 -6.60273e-06 5.1201e-22)
(15 -6.37626e-06 -2.44517e-22)
(15 -6.14193e-06 -5.30618e-22)
(15 -5.91011e-06 9.46566e-23)
(15 -5.67057e-06 0)
(15 -5.4283e-06 0)
(15 -5.18059e-06 0)
(15 -4.93301e-06 8.97742e-23)
(15 -4.68142e-06 0)
(15 -4.42784e-06 9.8158e-23)
(15 -4.16938e-06 -3.17198e-22)
(15 -3.90834e-06 -1.08988e-22)
(15 -3.6476e-06 4.6367e-22)
(15 -3.38261e-06 -8.94188e-23)
(15 -3.11603e-06 -8.60444e-23)
(15 -2.84765e-06 1.08167e-22)
(15 -2.57795e-06 2.12165e-23)
(15 -2.30691e-06 -1.62477e-23)
(15 -2.03359e-06 -1.16703e-23)
(15 -1.75934e-06 -1.25838e-22)
(15 -1.48371e-06 -1.1735e-22)
(15 -1.20775e-06 4.40839e-23)
(15 -9.3081e-07 7.07551e-23)
(15 -6.53416e-07 0)
(15 -3.75698e-07 3.11607e-24)
(15 -9.75207e-08 -3.7319e-24)
(15 1.80332e-07 3.62467e-24)
(15 4.58493e-07 -2.04389e-23)
(15 7.36188e-07 0)
(15 1.01351e-06 7.70367e-23)
(15 1.29039e-06 -8.71259e-24)
(15 1.56625e-06 -5.44555e-23)
(15 1.84179e-06 -1.68832e-23)
(15 2.11591e-06 -8.03783e-23)
(15 2.38909e-06 -1.07714e-22)
(15 2.65995e-06 4.39371e-23)
(15 2.92944e-06 2.72385e-23)
(15 3.19762e-06 1.21987e-22)
(15 3.46399e-06 -4.08283e-23)
(15 3.72874e-06 1.42969e-22)
(15 3.98919e-06 -1.11439e-22)
(15 4.24998e-06 -9.74952e-23)
(15 4.50816e-06 -2.45778e-22)
(15 4.7614e-06 8.31645e-23)
(15 5.01266e-06 4.83639e-22)
(15 5.25987e-06 -3.03657e-22)
(15 5.50723e-06 -2.11028e-22)
(15 5.74911e-06 2.4757e-22)
(15 5.98826e-06 2.31327e-22)
(15 6.21961e-06 9.17022e-23)
(15 6.45353e-06 -8.21861e-22)
(15 6.67953e-06 1.76435e-22)
(15 6.8994e-06 7.83138e-23)
(15 7.11817e-06 -5.54015e-22)
(15 7.333e-06 7.21662e-22)
(15 7.54199e-06 6.09975e-23)
(15 7.74628e-06 -3.02809e-22)
(15 7.94583e-06 -2.12491e-22)
(15 8.13908e-06 5.9903e-22)
(15 8.32189e-06 -6.25805e-22)
(15 8.50708e-06 2.89695e-22)
(15 8.68226e-06 3.46529e-22)
(15 8.85122e-06 3.51563e-22)
(15 9.01713e-06 -7.28121e-22)
(15 9.17263e-06 -1.12044e-21)
(15 9.32926e-06 3.67572e-24)
(15 9.47273e-06 3.81328e-22)
(15 9.6075e-06 0)
(15 9.74245e-06 4.5973e-22)
(15 9.86293e-06 0)
(15 9.97925e-06 -4.10978e-22)
(15 1.00897e-05 5.23055e-22)
(15 1.0192e-05 -1.19673e-22)
(15 1.02786e-05 5.57649e-22)
(15 1.03655e-05 4.33392e-22)
(15 1.04383e-05 -1.19768e-21)
(15 1.05097e-05 -2.63868e-22)
(15 1.05645e-05 1.94391e-22)
(15 1.06218e-05 1.1052e-21)
(15 1.06607e-05 -2.24473e-22)
(15 1.0684e-05 0)
(15 1.07106e-05 2.48771e-22)
(15 1.07194e-05 1.19389e-21)
(15 1.07226e-05 1.18944e-21)
(15 1.07213e-05 -1.21494e-21)
(15 1.07044e-05 3.08345e-22)
(15 1.06704e-05 8.14049e-24)
(15 1.06378e-05 4.5575e-22)
(15 1.05767e-05 -4.62171e-22)
(15 1.05161e-05 9.30498e-22)
(15 1.04477e-05 5.58709e-23)
(15 1.03619e-05 -1.74016e-21)
(15 1.02782e-05 -4.40974e-22)
(15 1.01685e-05 -4.06595e-22)
(15 1.00503e-05 -1.02487e-23)
(15 9.92434e-06 1.12107e-23)
(15 9.77518e-06 4.15929e-22)
(15 9.61678e-06 2.36567e-26)
(15 9.44688e-06 -2.50407e-21)
(15 9.27329e-06 1.29516e-21)
(15 9.08024e-06 -1.27162e-21)
(15 8.86534e-06 1.18477e-21)
(15 8.65373e-06 -1.16789e-21)
(15 8.41566e-06 9.93913e-23)
(15 8.17878e-06 1.0859e-21)
(15 7.9109e-06 -9.88895e-23)
(15 7.63844e-06 -7.07807e-22)
(15 7.35529e-06 6.77299e-22)
(15 7.05333e-06 2.5511e-22)
(15 6.71641e-06 -3.43317e-22)
(15 6.38553e-06 -1.34123e-21)
(15 6.03585e-06 6.23008e-22)
(15 5.66167e-06 -4.64929e-22)
(15 5.28096e-06 2.50051e-22)
(15 4.86622e-06 5.29748e-22)
(15 4.45614e-06 -2.15964e-22)
(15 4.02287e-06 6.87443e-23)
(15 3.5455e-06 2.42096e-22)
(15 3.09268e-06 -2.72676e-22)
(15 2.65886e-06 1.63494e-22)
(15 2.20578e-06 7.47725e-23)
(15 1.61891e-06 1.08673e-22)
(15 9.28792e-07 -5.45722e-23)
(15 3.32828e-07 -3.88714e-23)
(15 7.90684e-10 2.20849e-23)
(15 4.03422e-07 -3.01457e-24)
(15.0002 -9.65286e-07 -3.49363e-24)
(15.0001 -2.54971e-06 3.8251e-23)
(15 -7.93364e-07 8.50116e-24)
(15 -1.18634e-06 1.39066e-22)
(15.0001 -2.99407e-06 -1.8838e-22)
(15.0001 -5.14989e-06 1.37711e-22)
(15.0001 -6.92638e-06 2.94805e-22)
(15.0001 -8.33274e-06 -1.11116e-23)
(15.0001 -9.627e-06 -1.00537e-22)
(15.0001 -1.10031e-05 -2.38809e-23)
(15.0001 -1.23603e-05 3.43027e-22)
(15.0001 -1.36466e-05 -1.84868e-22)
(15.0001 -1.4893e-05 -5.64616e-22)
(15.0001 -1.6074e-05 3.84076e-22)
(15.0001 -1.7229e-05 -1.59076e-21)
(15.0001 -1.83302e-05 -1.42269e-22)
(15.0001 -1.93715e-05 1.05927e-21)
(15.0001 -2.03903e-05 1.49469e-22)
(15.0001 -2.13479e-05 -7.04227e-22)
(15.0001 -2.22583e-05 3.0821e-24)
(15.0001 -2.31226e-05 3.78076e-22)
(15.0001 -2.39587e-05 1.32354e-21)
(15.0001 -2.4729e-05 9.39103e-22)
(15.0001 -2.54761e-05 2.90444e-24)
(15.0001 -2.6164e-05 4.333e-22)
(15.0001 -2.68292e-05 -8.79967e-22)
(15.0001 -2.74567e-05 -3.66107e-23)
(15.0001 -2.803e-05 -2.49718e-23)
(15.0001 -2.85644e-05 5.06471e-22)
(15.0001 -2.90691e-05 4.80182e-22)
(15.0001 -2.95332e-05 -4.7714e-22)
(15.0001 -2.9954e-05 -2.43775e-23)
(15.0001 -3.03441e-05 1.49422e-21)
(15.0001 -3.0699e-05 -3.91723e-21)
(15.0001 -3.10021e-05 -5.15123e-22)
(15.0001 -3.12815e-05 -9.42916e-22)
(15 -3.15158e-05 1.0215e-21)
(15 -3.17216e-05 1.77409e-23)
(15 -3.19128e-05 -9.14868e-22)
(15 -3.20438e-05 -2.2505e-21)
(15 -3.21581e-05 -1.39512e-21)
(15 -3.22319e-05 1.90241e-22)
(15 -3.2267e-05 -8.22211e-22)
(15 -3.22758e-05 0)
(15 -3.22597e-05 -2.80215e-22)
(15 -3.22041e-05 5.03109e-22)
(15 -3.21357e-05 -1.72168e-21)
(15 -3.20241e-05 9.25573e-22)
(15 -3.18749e-05 1.66504e-21)
(15 -3.17139e-05 -4.73041e-22)
(15 -3.15212e-05 -6.56988e-22)
(15 -3.13021e-05 -3.0184e-22)
(15 -3.10503e-05 -2.12367e-21)
(15 -3.07886e-05 -1.04303e-21)
(15 -3.04883e-05 4.69043e-24)
(15 -3.01657e-05 -3.5399e-22)
(15 -2.98224e-05 4.31159e-22)
(15 -2.9454e-05 8.6246e-22)
(15 -2.9058e-05 -1.35428e-21)
(15 -2.86493e-05 -8.94748e-22)
(15 -2.82132e-05 -1.80483e-23)
(15 -2.7752e-05 0)
(15 -2.72789e-05 -3.83895e-22)
(15 -2.67808e-05 3.63451e-22)
(15 -2.62656e-05 -7.13603e-22)
(15 -2.57304e-05 -1.9149e-24)
(15 -2.51779e-05 2.37971e-24)
(15 -2.4613e-05 6.27548e-22)
(15 -2.40252e-05 6.70795e-22)
(15 -2.342e-05 -1.24094e-25)
(15 -2.27986e-05 -6.29051e-22)
(15 -2.21647e-05 -6.13065e-22)
(15 -2.15138e-05 2.95807e-22)
(15 -2.0847e-05 -8.63139e-23)
(15 -2.01725e-05 2.7528e-22)
(15 -1.94816e-05 4.23437e-22)
(15 -1.87748e-05 -1.43363e-22)
(15 -1.80631e-05 -2.45018e-22)
(15 -1.73346e-05 -3.52268e-22)
(15 -1.65952e-05 1.04444e-22)
(15 -1.58432e-05 -3.06568e-22)
(15 -1.50852e-05 -8.19934e-23)
(15 -1.43168e-05 4.56376e-22)
(15 -1.35405e-05 1.82253e-22)
(15 -1.27526e-05 -1.71113e-22)
(15 -1.19573e-05 -2.45314e-22)
(15 -1.11571e-05 2.13592e-26)
(15 -1.03491e-05 -1.38541e-22)
(15 -9.53394e-06 -1.50959e-25)
(15 -8.71313e-06 1.28936e-22)
(15 -7.88886e-06 1.1182e-22)
(15 -7.05811e-06 1.89492e-22)
(15 -6.22268e-06 -1.69943e-22)
(15 -5.38346e-06 -1.4344e-22)
(15 -4.54125e-06 3.46425e-23)
(15 -3.69713e-06 4.39868e-23)
(15 -2.85001e-06 2.09956e-23)
(15 -2.00121e-06 2.6829e-23)
(15 -1.15112e-06 -1.62172e-25)
(15 -3.0017e-07 -2.4508e-23)
(15 5.50418e-07 2.78178e-23)
(15 1.40132e-06 1.61113e-25)
(15 2.25133e-06 -3.016e-23)
(15 3.09994e-06 -8.26978e-23)
(15 3.94684e-06 8.08276e-23)
(15 4.79063e-06 7.5323e-23)
(15 5.63251e-06 -6.78596e-23)
(15 6.47134e-06 1.4557e-26)
(15 7.30632e-06 9.56927e-23)
(15 8.13655e-06 2.17405e-22)
(15 8.96021e-06 -2.52964e-22)
(15 9.78039e-06 -1.30505e-22)
(15 1.05949e-05 -8.05061e-26)
(15 1.14021e-05 3.53847e-23)
(15 1.22015e-05 7.62368e-23)
(15 1.2996e-05 1.05263e-22)
(15 1.3783e-05 -1.85591e-22)
(15 1.45582e-05 7.28377e-23)
(15 1.53256e-05 4.01985e-23)
(15 1.60825e-05 -9.4503e-23)
(15 1.68334e-05 5.62687e-22)
(15 1.75716e-05 -1.56952e-24)
(15 1.82989e-05 -4.96353e-22)
(15 1.90092e-05 -4.04771e-22)
(15 1.97146e-05 8.36772e-25)
(15 2.0404e-05 6.25818e-22)
(15 2.1077e-05 -1.88942e-22)
(15 2.17423e-05 3.0018e-22)
(15 2.23915e-05 4.3988e-22)
(15 2.30238e-05 -5.54679e-22)
(15 2.36435e-05 -6.58222e-22)
(15 2.42469e-05 9.52623e-22)
(15 2.48328e-05 6.86865e-22)
(15 2.53958e-05 -3.03827e-22)
(15 2.59464e-05 -3.86451e-24)
(15 2.64796e-05 -2.32153e-23)
(15 2.69926e-05 -3.69448e-22)
(15 2.74886e-05 -1.17057e-21)
(15 2.79595e-05 8.08341e-24)
(15 2.84186e-05 1.26553e-21)
(15 2.88524e-05 8.63405e-22)
(15 2.92587e-05 -4.4278e-23)
(15 2.96523e-05 -3.83961e-24)
(15 3.00183e-05 7.70905e-23)
(15 3.03591e-05 0)
(15 3.06791e-05 1.03792e-22)
(15 3.09768e-05 4.67553e-22)
(15 3.12357e-05 4.59271e-22)
(15 3.14849e-05 -9.46066e-22)
(15 3.17012e-05 -1.64063e-22)
(15 3.18911e-05 4.75683e-22)
(15 3.20491e-05 2.09737e-22)
(15 3.21954e-05 9.37567e-22)
(15 3.2304e-05 -7.3329e-22)
(15 3.23692e-05 1.00575e-21)
(15 3.24217e-05 -7.8881e-22)
(15 3.24346e-05 1.32818e-21)
(15 3.24226e-05 -1.35751e-21)
(15 3.23842e-05 3.50472e-22)
(15 3.2307e-05 8.47918e-22)
(15 3.21892e-05 1.26182e-21)
(15 3.20548e-05 5.12839e-22)
(15 3.18601e-05 3.94499e-22)
(15 3.16508e-05 5.32673e-22)
(15.0001 3.1413e-05 4.97591e-22)
(15.0001 3.11299e-05 -1.46959e-21)
(15.0001 3.08233e-05 -1.48649e-21)
(15.0001 3.04647e-05 5.21221e-22)
(15.0001 3.0071e-05 -5.03254e-22)
(15.0001 2.96465e-05 1.25031e-23)
(15.0001 2.91787e-05 -5.12832e-22)
(15.0001 2.86703e-05 -2.97427e-21)
(15.0001 2.81322e-05 2.21485e-23)
(15.0001 2.75551e-05 1.48751e-21)
(15.0001 2.69237e-05 1.01798e-21)
(15.0001 2.62546e-05 8.57904e-22)
(15.0001 2.55628e-05 -2.34122e-21)
(15.0001 2.48116e-05 9.42285e-22)
(15.0001 2.40372e-05 5.12717e-22)
(15.0001 2.31969e-05 9.05913e-22)
(15.0001 2.23284e-05 7.28537e-22)
(15.0001 2.14138e-05 -4.86984e-22)
(15.0001 2.04519e-05 -3.34781e-22)
(15.0001 1.9429e-05 -1.04932e-21)
(15.0001 1.83836e-05 -8.32669e-22)
(15.0001 1.72785e-05 -2.94448e-22)
(15.0001 1.61195e-05 -8.04663e-22)
(15.0001 1.49347e-05 1.93351e-22)
(15.0001 1.36843e-05 -1.80587e-22)
(15.0001 1.23942e-05 1.69846e-22)
(15.0001 1.10329e-05 -1.10678e-23)
(15.0001 9.65299e-06 -2.3435e-22)
(15.0001 8.3555e-06 1.69173e-22)
(15.0001 6.94561e-06 4.9234e-22)
(15.0001 5.16368e-06 -4.27716e-23)
(15.0001 3.00015e-06 -7.41627e-24)
(15 1.18616e-06 -1.33681e-22)
(15 7.93978e-07 7.33688e-23)
(15.0001 2.56159e-06 -1.26581e-23)
(15.0002 9.71146e-07 -1.14866e-23)
(15.0003 -9.08472e-07 -4.94216e-24)
(15.0002 -4.97799e-06 -5.79907e-24)
(15.0001 -3.93539e-06 -2.89887e-23)
(15.0001 -2.74101e-06 8.4628e-23)
(15.0001 -4.01749e-06 8.16545e-23)
(15.0001 -7.20266e-06 -3.33966e-22)
(15.0001 -1.06184e-05 8.52794e-23)
(15.0001 -1.34086e-05 0)
(15.0001 -1.56956e-05 6.51723e-22)
(15.0001 -1.79334e-05 -1.01589e-21)
(15.0001 -2.02033e-05 9.00532e-22)
(15.0001 -2.24028e-05 -1.99602e-22)
(15.0001 -2.45014e-05 -2.09982e-22)
(15.0001 -2.65062e-05 8.40643e-22)
(15.0001 -2.84564e-05 -6.40737e-22)
(15.0001 -3.0322e-05 -3.10892e-22)
(15.0001 -3.20931e-05 1.53963e-21)
(15.0001 -3.38043e-05 1.59459e-21)
(15.0001 -3.54255e-05 -4.82841e-22)
(15.0001 -3.69764e-05 -5.11419e-22)
(15.0001 -3.84575e-05 -1.79557e-21)
(15.0001 -3.98681e-05 -4.14461e-22)
(15.0001 -4.12015e-05 -5.36653e-22)
(15.0001 -4.24737e-05 9.82128e-22)
(15.0001 -4.36566e-05 -4.5649e-22)
(15.0001 -4.47871e-05 1.99247e-21)
(15.0001 -4.58577e-05 -2.00992e-21)
(15.0001 -4.68426e-05 -4.7277e-22)
(15.0001 -4.77587e-05 -4.94478e-22)
(15.0001 -4.8627e-05 4.93015e-22)
(15.0001 -4.94198e-05 1.02045e-21)
(15.0001 -5.01559e-05 -1.51635e-21)
(15.0001 -5.08336e-05 2.52181e-21)
(15.0001 -5.14493e-05 1.52902e-21)
(15.0001 -5.19884e-05 -2.02502e-21)
(15.0001 -5.24835e-05 -1.91754e-21)
(15.0001 -5.29023e-05 -9.44826e-22)
(15.0001 -5.32677e-05 5.22621e-22)
(15.0001 -5.35949e-05 -3.84636e-22)
(15.0001 -5.38433e-05 1.78561e-21)
(15.0001 -5.4042e-05 -2.27236e-21)
(15.0001 -5.41908e-05 -5.2618e-22)
(15.0001 -5.42741e-05 -8.33094e-22)
(15.0001 -5.43167e-05 -8.12661e-22)
(15.0001 -5.43061e-05 0)
(15.0001 -5.42298e-05 5.0793e-22)
(15.0001 -5.41193e-05 -2.52172e-22)
(15.0001 -5.39495e-05 -1.23997e-21)
(15.0001 -5.37261e-05 1.0009e-21)
(15.0001 -5.34631e-05 6.78239e-22)
(15.0001 -5.3156e-05 -8.25288e-22)
(15 -5.28041e-05 1.11339e-21)
(15 -5.23923e-05 7.43741e-22)
(15 -5.1954e-05 -1.63794e-21)
(15 -5.14647e-05 -4.58448e-22)
(15 -5.0938e-05 -5.42772e-22)
(15 -5.03644e-05 -1.09712e-21)
(15 -4.97528e-05 -5.55461e-23)
(15 -4.9102e-05 8.61433e-22)
(15 -4.84161e-05 -8.6673e-22)
(15 -4.76904e-05 -1.2589e-21)
(15 -4.69233e-05 -4.04144e-22)
(15 -4.61286e-05 -3.95736e-22)
(15 -4.52991e-05 -2.50003e-24)
(15 -4.44336e-05 1.06518e-21)
(15 -4.3535e-05 -6.44194e-22)
(15 -4.26085e-05 -3.59931e-22)
(15 -4.16517e-05 -2.85124e-22)
(15 -4.06643e-05 6.08307e-22)
(15 -3.96462e-05 3.4717e-25)
(15 -3.86018e-05 -9.33197e-23)
(15 -3.75348e-05 3.1039e-22)
(15 -3.64402e-05 4.12304e-22)
(15 -3.53161e-05 -4.70808e-22)
(15 -3.41715e-05 -4.45893e-22)
(15 -3.30071e-05 1.47922e-22)
(15 -3.18183e-05 1.33376e-22)
(15 -3.06089e-05 4.89147e-22)
(15 -2.93782e-05 -1.33804e-22)
(15 -2.81296e-05 9.14252e-23)
(15 -2.68586e-05 4.38481e-22)
(15 -2.55748e-05 -4.85074e-22)
(15 -2.42744e-05 -8.21492e-23)
(15 -2.29594e-05 3.72915e-22)
(15 -2.16252e-05 2.62552e-25)
(15 -2.02792e-05 -7.71481e-26)
(15 -1.89221e-05 1.72469e-22)
(15 -1.75537e-05 -1.41841e-22)
(15 -1.61724e-05 -2.57539e-22)
(15 -1.47817e-05 3.27003e-24)
(15 -1.33821e-05 9.35282e-24)
(15 -1.19731e-05 1.50122e-25)
(15 -1.05571e-05 6.47704e-23)
(15 -9.13433e-06 1.72239e-22)
(15 -7.70646e-06 6.18048e-23)
(15 -6.27411e-06 -1.51865e-22)
(15 -4.83699e-06 -7.26391e-23)
(15 -3.39674e-06 2.72297e-23)
(15 -1.95454e-06 -5.31922e-23)
(15 -5.11224e-07 3.81663e-23)
(15 9.32101e-07 3.0133e-23)
(15 2.3753e-06 -3.70588e-23)
(15 3.81734e-06 0)
(15 5.2573e-06 -3.37669e-23)
(15 6.69404e-06 -8.4975e-23)
(15 8.12586e-06 2.7686e-23)
(15 9.55312e-06 5.31085e-23)
(15 1.09752e-05 -4.93364e-23)
(15 1.23905e-05 -9.99579e-23)
(15 1.37986e-05 3.17916e-26)
(15 1.51972e-05 -8.63953e-26)
(15 1.65867e-05 2.67854e-22)
(15 1.79669e-05 1.4509e-22)
(15 1.9334e-05 -1.56336e-22)
(15 2.06897e-05 1.67559e-22)
(15 2.20343e-05 2.17243e-22)
(15 2.33669e-05 -3.79789e-22)
(15 2.46803e-05 -3.41638e-22)
(15 2.59788e-05 1.41134e-22)
(15 2.72608e-05 5.26921e-22)
(15 2.85298e-05 9.40135e-23)
(15 2.97764e-05 -3.51223e-22)
(15 3.1005e-05 0)
(15 3.22121e-05 2.65626e-22)
(15 3.33985e-05 4.2506e-22)
(15 3.45604e-05 -2.8609e-22)
(15 3.57025e-05 -2.95314e-22)
(15 3.68239e-05 3.06818e-22)
(15 3.79158e-05 -4.29362e-22)
(15 3.89799e-05 -3.25271e-22)
(15 4.00214e-05 3.36632e-22)
(15 4.10365e-05 6.12512e-22)
(15 4.20208e-05 -9.28047e-22)
(15 4.29744e-05 -5.80103e-23)
(15 4.38976e-05 -2.75329e-22)
(15 4.47927e-05 3.42456e-22)
(15 4.56548e-05 -7.55934e-22)
(15 4.64806e-05 4.01921e-22)
(15 4.72716e-05 8.15723e-22)
(15 4.8035e-05 4.30033e-22)
(15 4.87568e-05 -4.03697e-22)
(15 4.94388e-05 -4.28129e-22)
(15 5.00854e-05 1.37792e-21)
(15 5.06929e-05 -4.13031e-24)
(15 5.12623e-05 -4.54168e-22)
(15 5.17846e-05 0)
(15 5.22695e-05 1.1756e-21)
(15 5.27031e-05 -1.22325e-21)
(15 5.31103e-05 0)
(15.0001 5.34575e-05 6.58497e-22)
(15.0001 5.37598e-05 -6.82093e-22)
(15.0001 5.40179e-05 5.03161e-22)
(15.0001 5.42363e-05 2.14176e-22)
(15.0001 5.44009e-05 1.00129e-21)
(15.0001 5.45062e-05 -7.07803e-24)
(15.0001 5.45772e-05 -1.58306e-21)
(15.0001 5.45824e-05 5.16278e-22)
(15.0001 5.45342e-05 -1.98799e-21)
(15.0001 5.44454e-05 1.37968e-21)
(15.0001 5.4291e-05 -8.77142e-22)
(15.0001 5.40866e-05 -5.29079e-22)
(15.0001 5.38324e-05 -9.05286e-22)
(15.0001 5.34993e-05 3.90187e-22)
(15.0001 5.3128e-05 1.50037e-21)
(15.0001 5.27032e-05 -4.62273e-22)
(15.0001 5.22022e-05 -2.53775e-21)
(15.0001 5.16571e-05 -1.96341e-21)
(15.0001 5.10353e-05 1.5089e-21)
(15.0001 5.03514e-05 -2.01051e-21)
(15.0001 4.96091e-05 0)
(15.0001 4.88101e-05 -1.51952e-21)
(15.0001 4.79356e-05 -5.0334e-22)
(15.0001 4.70132e-05 1.96704e-21)
(15.0001 4.6022e-05 -1.00641e-21)
(15.0001 4.49449e-05 1.53262e-21)
(15.0001 4.38078e-05 -1.89138e-21)
(15.0001 4.26182e-05 9.85462e-22)
(15.0001 4.13392e-05 1.36908e-21)
(15.0001 3.9999e-05 1.34853e-21)
(15.0001 3.85813e-05 1.29452e-21)
(15.0001 3.70932e-05 1.15767e-22)
(15.0001 3.55354e-05 2.37026e-23)
(15.0001 3.39073e-05 -4.96185e-22)
(15.0001 3.21894e-05 4.58308e-22)
(15.0001 3.04116e-05 0)
(15.0001 2.85394e-05 -9.48373e-22)
(15.0001 2.65825e-05 1.24908e-21)
(15.0001 2.45712e-05 -5.76649e-22)
(15.0001 2.2466e-05 -2.89417e-22)
(15.0001 2.02597e-05 1.50461e-22)
(15.0001 1.79832e-05 -1.06362e-21)
(15.0001 1.57393e-05 1.38445e-22)
(15.0001 1.34463e-05 3.53971e-22)
(15.0001 1.0648e-05 5.79679e-23)
(15.0001 7.2204e-06 7.47735e-24)
(15.0001 4.02413e-06 -8.18582e-23)
(15.0001 2.74625e-06 3.41129e-23)
(15.0001 3.95195e-06 -4.86611e-24)
(15.0002 5.0033e-06 -5.20194e-23)
(15.0003 9.142e-07 3.05133e-24)
(15.0005 -1.12445e-06 4.24072e-24)
(15.0003 -6.22195e-06 -2.60913e-23)
(15.0001 -7.82511e-06 0)
(15.0001 -6.00059e-06 0)
(15.0001 -5.50815e-06 4.33838e-23)
(15.0002 -8.39312e-06 6.71739e-23)
(15.0002 -1.31264e-05 1.45083e-22)
(15.0002 -1.76264e-05 7.11303e-23)
(15.0002 -2.12413e-05 2.26717e-22)
(15.0002 -2.4444e-05 -3.58278e-22)
(15.0002 -2.76039e-05 2.50267e-22)
(15.0002 -3.07339e-05 2.17855e-22)
(15.0002 -3.374e-05 3.39426e-22)
(15.0002 -3.66246e-05 -2.06409e-24)
(15.0002 -3.9405e-05 1.35886e-21)
(15.0002 -4.20622e-05 -1.0179e-21)
(15.0002 -4.46015e-05 -3.2346e-22)
(15.0002 -4.70403e-05 -4.84078e-22)
(15.0002 -4.93691e-05 1.22239e-21)
(15.0002 -5.15904e-05 -5.1808e-22)
(15.0002 -5.37009e-05 1.85247e-21)
(15.0002 -5.57203e-05 -1.55969e-23)
(15.0002 -5.7638e-05 -4.10096e-22)
(15.0002 -5.94685e-05 5.22189e-22)
(15.0002 -6.11759e-05 -9.8452e-22)
(15.0002 -6.27981e-05 -1.39825e-23)
(15.0001 -6.43314e-05 1.98005e-21)
(15.0001 -6.57592e-05 1.0354e-21)
(15.0001 -6.70822e-05 -5.07633e-22)
(15.0001 -6.83403e-05 -1.90716e-24)
(15.0001 -6.94972e-05 0)
(15.0001 -7.05627e-05 -1.01789e-21)
(15.0001 -7.15437e-05 -1.52662e-21)
(15.0001 -7.24382e-05 9.93859e-22)
(15.0001 -7.32387e-05 1.06176e-21)
(15.0001 -7.39611e-05 9.83499e-22)
(15.0001 -7.45908e-05 9.49531e-22)
(15.0001 -7.51426e-05 9.53986e-22)
(15.0001 -7.56224e-05 -1.43788e-22)
(15.0001 -7.60011e-05 1.81028e-21)
(15.0001 -7.63091e-05 1.42987e-21)
(15.0001 -7.65386e-05 -3.40841e-22)
(15.0001 -7.66842e-05 -3.14397e-22)
(15.0001 -7.67701e-05 -5.24988e-22)
(15.0001 -7.67801e-05 -8.11876e-22)
(15.0001 -7.66978e-05 6.69565e-24)
(15.0001 -7.65596e-05 -5.19563e-22)
(15.0001 -7.6342e-05 -1.47249e-21)
(15.0001 -7.60551e-05 -7.11385e-22)
(15.0001 -7.57008e-05 4.99418e-22)
(15.0001 -7.52848e-05 -6.58121e-22)
(15.0001 -7.47984e-05 2.99426e-22)
(15.0001 -7.42464e-05 4.7793e-22)
(15.0001 -7.36384e-05 4.85008e-22)
(15.0001 -7.29619e-05 -4.73443e-22)
(15.0001 -7.22301e-05 -6.27324e-22)
(15.0001 -7.14294e-05 4.57474e-22)
(15.0001 -7.05792e-05 -9.43489e-22)
(15.0001 -6.96733e-05 3.19062e-23)
(15 -6.87117e-05 1.33246e-21)
(15 -6.76955e-05 4.25104e-22)
(15 -6.66245e-05 -4.14425e-22)
(15 -6.55067e-05 -4.0847e-22)
(15 -6.43376e-05 -1.15472e-21)
(15 -6.31199e-05 3.82947e-22)
(15 -6.1858e-05 7.63507e-22)
(15 -6.05481e-05 -7.06664e-23)
(15 -5.91949e-05 -2.80702e-22)
(15 -5.78021e-05 3.49531e-22)
(15 -5.63669e-05 -2.40726e-22)
(15 -5.48917e-05 -6.61572e-22)
(15 -5.33767e-05 -4.13353e-22)
(15 -5.1827e-05 8.08991e-22)
(15 -5.02374e-05 4.72215e-22)
(15 -4.86132e-05 -2.89052e-22)
(15 -4.69623e-05 -1.39738e-22)
(15 -4.52768e-05 -2.67663e-22)
(15 -4.35585e-05 -1.4768e-22)
(15 -4.18108e-05 1.92112e-22)
(15 -4.00375e-05 7.01085e-23)
(15 -3.82357e-05 3.64516e-22)
(15 -3.64107e-05 -3.68906e-22)
(15 -3.45612e-05 1.55457e-22)
(15 -3.26903e-05 5.72889e-22)
(15 -3.07947e-05 -1.55115e-22)
(15 -2.88814e-05 -3.36758e-22)
(15 -2.69496e-05 5.9402e-26)
(15 -2.50014e-05 -1.48307e-22)
(15 -2.30362e-05 1.34195e-22)
(15 -2.10567e-05 3.84324e-22)
(15 -1.90628e-05 2.44236e-23)
(15 -1.70574e-05 8.07113e-26)
(15 -1.50419e-05 -8.74251e-23)
(15 -1.30159e-05 -7.53182e-23)
(15 -1.09816e-05 -1.96592e-22)
(15 -8.94071e-06 -1.46791e-22)
(15 -6.89327e-06 9.04228e-23)
(15 -4.84187e-06 2.78962e-23)
(15 -2.78739e-06 1.64364e-23)
(15 -7.31121e-07 5.82677e-23)
(15 1.32543e-06 7.65222e-23)
(15 3.38152e-06 2.07005e-23)
(15 5.43575e-06 1.97514e-23)
(15 7.48674e-06 -4.27718e-23)
(15 9.53364e-06 -8.71151e-24)
(15 1.15738e-05 2.35645e-23)
(15 1.36073e-05 -7.81145e-23)
(15 1.56323e-05 -9.11429e-23)
(15 1.76466e-05 2.77314e-22)
(15 1.96507e-05 2.2818e-22)
(15 2.16432e-05 -2.67987e-22)
(15 2.36212e-05 -1.56546e-22)
(15 2.55847e-05 8.69154e-26)
(15 2.7531e-05 -2.87542e-26)
(15 2.94609e-05 3.43456e-22)
(15 3.13721e-05 -2.60383e-23)
(15 3.32655e-05 -2.30586e-22)
(15 3.5134e-05 -1.58107e-22)
(15 3.6981e-05 2.76696e-22)
(15 3.88033e-05 4.5554e-22)
(15 4.06024e-05 0)
(15 4.23728e-05 -2.49915e-22)
(15 4.41174e-05 -1.48255e-22)
(15 4.58325e-05 0)
(15 4.75146e-05 -1.42002e-22)
(15 4.91619e-05 -1.57828e-22)
(15 5.07826e-05 -1.74023e-22)
(15 5.23684e-05 -3.14022e-22)
(15 5.39142e-05 -2.06983e-22)
(15 5.54252e-05 3.33055e-22)
(15 5.68963e-05 -3.44972e-22)
(15 5.83271e-05 1.3858e-24)
(15 5.97154e-05 4.42903e-22)
(15 6.10641e-05 3.01201e-22)
(15 6.23693e-05 2.60349e-24)
(15 6.36263e-05 -6.91014e-22)
(15 6.48391e-05 -3.98999e-22)
(15 6.6003e-05 0)
(15 6.71155e-05 -4.48579e-25)
(15 6.81812e-05 -3.39021e-24)
(15 6.91919e-05 -9.1231e-22)
(15.0001 7.01479e-05 1.4038e-21)
(15.0001 7.10479e-05 4.92571e-22)
(15.0001 7.18922e-05 -1.96218e-21)
(15.0001 7.26869e-05 0)
(15.0001 7.34125e-05 4.76341e-22)
(15.0001 7.40827e-05 1.07612e-22)
(15.0001 7.46842e-05 1.39379e-22)
(15.0001 7.52296e-05 4.90027e-22)
(15.0001 7.57092e-05 -6.67553e-22)
(15.0001 7.61184e-05 0)
(15.0001 7.64657e-05 5.13413e-22)
(15.0001 7.67455e-05 -2.27422e-22)
(15.0001 7.69558e-05 2.41324e-22)
(15.0001 7.70866e-05 -1.83319e-21)
(15.0001 7.71614e-05 8.15978e-22)
(15.0001 7.71438e-05 -8.17677e-24)
(15.0001 7.705e-05 -8.44453e-22)
(15.0001 7.68966e-05 5.29387e-22)
(15.0001 7.66591e-05 -5.4264e-22)
(15.0001 7.6343e-05 -5.35307e-22)
(15.0001 7.59562e-05 2.01741e-21)
(15.0001 7.54682e-05 5.22873e-22)
(15.0001 7.4908e-05 4.3401e-22)
(15.0001 7.427e-05 -1.52292e-21)
(15.0001 7.35391e-05 -2.05922e-21)
(15.0001 7.27301e-05 1.54701e-21)
(15.0001 7.18269e-05 -5.0632e-22)
(15.0001 7.08373e-05 1.05455e-23)
(15.0001 6.9763e-05 5.08692e-22)
(15.0001 6.85973e-05 0)
(15.0001 6.73302e-05 2.06294e-21)
(15.0001 6.59982e-05 -1.02926e-21)
(15.0001 6.45614e-05 -1.02435e-21)
(15.0002 6.30187e-05 -2.02929e-21)
(15.0002 6.13872e-05 -5.36225e-22)
(15.0002 5.96703e-05 1.43016e-21)
(15.0002 5.78301e-05 -9.6659e-22)
(15.0002 5.59027e-05 -4.19199e-22)
(15.0002 5.38734e-05 -9.07165e-22)
(15.0002 5.17533e-05 -1.41136e-21)
(15.0002 4.95223e-05 1.34878e-21)
(15.0002 4.7184e-05 1.34798e-23)
(15.0002 4.47359e-05 -1.39286e-23)
(15.0002 4.21872e-05 7.4543e-22)
(15.0002 3.95207e-05 9.46825e-22)
(15.0002 3.67309e-05 3.75722e-22)
(15.0002 3.38369e-05 1.24515e-22)
(15.0002 3.08212e-05 -4.98358e-22)
(15.0002 2.76817e-05 -4.71708e-22)
(15.0002 2.45127e-05 1.16203e-23)
(15.0002 2.13015e-05 4.55906e-22)
(15.0002 1.76763e-05 -5.55751e-22)
(15.0002 1.31615e-05 2.23688e-22)
(15.0002 8.41166e-06 8.59045e-25)
(15.0001 5.51939e-06 0)
(15.0001 6.02227e-06 -3.6503e-23)
(15.0001 7.86342e-06 -4.54663e-23)
(15.0003 6.25553e-06 7.51631e-24)
(15.0005 1.1317e-06 4.35425e-24)
(15.0006 -1.2176e-06 7.93859e-24)
(15.0004 -6.76929e-06 3.79467e-23)
(15.0002 -1.14823e-05 0)
(15.0002 -1.07955e-05 -9.21919e-23)
(15.0002 -8.61306e-06 -4.65363e-23)
(15.0002 -9.80381e-06 1.16461e-22)
(15.0002 -1.47266e-05 2.38152e-22)
(15.0002 -2.08077e-05 1.02063e-22)
(15.0002 -2.60921e-05 -8.75859e-23)
(15.0002 -3.05123e-05 4.21651e-22)
(15.0002 -3.46203e-05 -6.54791e-22)
(15.0002 -3.86691e-05 3.32948e-22)
(15.0002 -4.26042e-05 -8.18298e-22)
(15.0002 -4.63992e-05 2.3915e-24)
(15.0002 -5.00363e-05 -4.22264e-22)
(15.0002 -5.35285e-05 3.09776e-22)
(15.0002 -5.68664e-05 -1.58409e-21)
(15.0002 -6.00535e-05 -1.17222e-21)
(15.0002 -6.3105e-05 3.4463e-22)
(15.0002 -6.60389e-05 2.95328e-23)
(15.0002 -6.88251e-05 5.11618e-22)
(15.0002 -7.14739e-05 4.30233e-22)
(15.0002 -7.40056e-05 9.87134e-22)
(15.0002 -7.64115e-05 4.42405e-22)
(15.0002 -7.86689e-05 1.03062e-21)
(15.0002 -8.08074e-05 -1.98538e-21)
(15.0002 -8.28367e-05 5.43993e-22)
(15.0002 -8.47345e-05 1.04604e-21)
(15.0002 -8.64953e-05 1.04588e-21)
(15.0002 -8.81726e-05 1.55496e-21)
(15.0002 -8.97114e-05 5.29392e-22)
(15.0002 -9.11345e-05 0)
(15.0002 -9.24466e-05 1.55511e-21)
(15.0002 -9.36438e-05 1.02501e-21)
(15.0002 -9.47277e-05 -7.6752e-23)
(15.0002 -9.57059e-05 4.46788e-22)
(15.0002 -9.65635e-05 9.79359e-22)
(15.0001 -9.73183e-05 1.5025e-21)
(15.0001 -9.79676e-05 9.52495e-22)
(15.0001 -9.84996e-05 -1.85656e-21)
(15.0001 -9.89354e-05 1.85519e-22)
(15.0001 -9.92759e-05 1.43104e-21)
(15.0001 -9.95014e-05 3.25529e-22)
(15.0001 -9.96408e-05 -7.61915e-24)
(15.0001 -9.96861e-05 6.67306e-24)
(15.0001 -9.96106e-05 7.87808e-22)
(15.0001 -9.9454e-05 -7.63701e-22)
(15.0001 -9.92079e-05 7.39929e-22)
(15.0001 -9.88601e-05 -7.17045e-22)
(15.0001 -9.84294e-05 -6.65098e-24)
(15.0001 -9.79152e-05 -4.98519e-22)
(15.0001 -9.73045e-05 -6.60017e-22)
(15.0001 -9.66153e-05 -1.21777e-22)
(15.0001 -9.58449e-05 1.09388e-22)
(15.0001 -9.4987e-05 -9.63921e-23)
(15.0001 -9.40542e-05 -5.46178e-22)
(15.0001 -9.30382e-05 5.22087e-22)
(15.0001 -9.19476e-05 5.06091e-22)
(15.0001 -9.07853e-05 -9.2983e-22)
(15.0001 -8.95495e-05 0)
(15.0001 -8.8243e-05 4.31105e-22)
(15.0001 -8.68706e-05 8.15789e-22)
(15.0001 -8.54274e-05 -3.84972e-22)
(15.0001 -8.39144e-05 3.62712e-22)
(15 -8.23435e-05 -6.82299e-22)
(15 -8.07127e-05 -3.86824e-22)
(15 -7.90162e-05 -3.0045e-22)
(15 -7.72611e-05 9.22359e-23)
(15 -7.54534e-05 3.57706e-22)
(15 -7.35937e-05 4.77489e-22)
(15 -7.1679e-05 -2.20511e-22)
(15 -6.97059e-05 -1.9909e-22)
(15 -6.7689e-05 -1.36105e-22)
(15 -6.56251e-05 1.64872e-22)
(15 -6.35139e-05 -1.00096e-25)
(15 -6.13598e-05 1.30809e-22)
(15 -5.91638e-05 1.16656e-22)
(15 -5.6925e-05 -3.64397e-22)
(15 -5.46478e-05 5.04706e-22)
(15 -5.23355e-05 7.54351e-25)
(15 -4.99876e-05 -2.30746e-22)
(15 -4.76032e-05 2.18772e-22)
(15 -4.51881e-05 -6.76676e-23)
(15 -4.27464e-05 4.4852e-23)
(15 -4.02739e-05 1.91144e-26)
(15 -3.77733e-05 1.72618e-22)
(15 -3.52486e-05 7.9332e-24)
(15 -3.27032e-05 -1.49137e-22)
(15 -3.0134e-05 7.55474e-23)
(15 -2.75462e-05 9.29157e-23)
(15 -2.49394e-05 -1.93292e-22)
(15 -2.2317e-05 -2.38297e-22)
(15 -1.9681e-05 8.92235e-23)
(15 -1.70309e-05 -7.76599e-23)
(15 -1.43697e-05 -6.50933e-23)
(15 -1.17002e-05 5.34723e-23)
(15 -9.02179e-06 1.07232e-22)
(15 -6.33807e-06 0)
(15 -3.65042e-06 6.99743e-23)
(15 -9.60121e-07 -1.36697e-22)
(15 1.73066e-06 -7.12411e-23)
(15 4.42075e-06 1.40358e-22)
(15 7.10806e-06 -5.5982e-25)
(15 9.79119e-06 1.32872e-22)
(15 1.24689e-05 -6.38367e-23)
(15 1.51374e-05 -1.27643e-22)
(15 1.77975e-05 -9.17896e-25)
(15 2.04464e-05 1.35747e-22)
(15 2.30809e-05 -1.04787e-22)
(15 2.57016e-05 3.83284e-23)
(15 2.83066e-05 2.89564e-22)
(15 3.08923e-05 9.26878e-23)
(15 3.34594e-05 -1.52561e-22)
(15 3.60023e-05 -1.71322e-22)
(15 3.85245e-05 0)
(15 4.10223e-05 -1.97968e-26)
(15 4.34919e-05 2.39512e-23)
(15 4.59305e-05 3.54488e-23)
(15 4.83423e-05 9.52961e-23)
(15 5.07232e-05 1.12822e-22)
(15 5.30675e-05 -7.43524e-23)
(15 5.53759e-05 5.37902e-25)
(15 5.76491e-05 -4.90974e-25)
(15 5.98837e-05 -4.18872e-23)
(15 6.20752e-05 -1.33681e-22)
(15 6.42248e-05 -3.00455e-22)
(15 6.63312e-05 8.3626e-25)
(15 6.83903e-05 5.04496e-22)
(15 7.0402e-05 2.02991e-22)
(15 7.23698e-05 0)
(15 7.42791e-05 5.93274e-22)
(15 7.61331e-05 2.58737e-22)
(15 7.7935e-05 -2.78419e-22)
(15 7.96842e-05 -3.0365e-22)
(15 8.13745e-05 -7.82703e-22)
(15 8.29989e-05 2.13528e-24)
(15.0001 8.45633e-05 7.74427e-22)