/*--------------------------------*- C++ -*----------------------------------*\
  =========                 |
  \\      /  F ield         | OpenFOAM: The Open Source CFD Toolbox
   \\    /   O peration     | Website:  https://openfoam.org
    \\  /    A nd           | Version:  9
     \\/     M anipulation  |
\*---------------------------------------------------------------------------*/
FoamFile
{
    format      ascii;
    class       volScalarField;
    location    "0.005";
    object      alphat;
}
// * * * * * * * * * * * * * * * * * * * * * * * * * * * * * * * * * * * * * //

dimensions      [1 -1 -1 0 0 0 0];

internalField   nonuniform List<scalar> 
8420
(
0.0163603
0.0163605
0.0163607
0.0163608
0.016361
0.0163611
0.0163612
0.0163613
0.0163615
0.0163616
0.0163617
0.0163618
0.0163619
0.016362
0.0163621
0.0163622
0.0163623
0.0163623
0.0163624
0.0163625
0.0163626
0.0163626
0.0163627
0.0163628
0.0163628
0.0163629
0.0163629
0.0163629
0.0163629
0.016363
0.016363
0.016363
0.0163629
0.0163628
0.0163851
0.0163843
0.0163834
0.0163825
0.0163816
0.0163806
0.0163797
0.0163787
0.0163776
0.0163766
0.0163755
0.0163744
0.0163733
0.0163722
0.0163711
0.0163699
0.0163687
0.0163676
0.0163666
0.0163657
0.016365
0.0163643
0.0163637
0.0163632
0.0163628
0.0163625
0.0163623
0.0163622
0.0163625
0.0163625
0.0163624
0.0163622
0.0163619
0.0163617
0.0163658
0.0163653
0.0163647
0.0163641
0.0163635
0.0163629
0.0163624
0.0163618
0.0163612
0.0163606
0.0163601
0.0163595
0.0163591
0.0163588
0.0163585
0.0163583
0.0163582
0.0163583
0.0163585
0.0163585
0.0163584
0.0163582
0.016358
0.0163578
0.0163576
0.0163573
0.0163571
0.0163568
0.0163565
0.0163562
0.0163559
0.0163555
0.0163551
0.0163548
0.0163641
0.016364
0.0163639
0.0163637
0.0163635
0.0163633
0.0163631
0.0163628
0.0163626
0.0163623
0.0163619
0.0163616
0.0163612
0.0163608
0.0163604
0.01636
0.0163596
0.0163591
0.0163586
0.0163581
0.0163576
0.0163571
0.0163566
0.0163561
0.0163555
0.016355
0.0163544
0.0163539
0.0163533
0.0163528
0.0163522
0.0163517
0.0163513
0.016351
0.0163234
0.0163232
0.016323
0.0163228
0.0163226
0.0163224
0.0163222
0.0163219
0.0163217
0.0163215
0.0163213
0.0163211
0.0163209
0.0163207
0.0163205
0.0163203
0.0163201
0.0163199
0.0163197
0.0163195
0.0163193
0.0163191
0.0163189
0.0163187
0.0163185
0.0163183
0.0163181
0.0163179
0.0163177
0.0163176
0.0163174
0.0163172
0.016317
0.0163168
0.0163065
0.0163069
0.0163073
0.0163074
0.0163073
0.0163072
0.016307
0.0163068
0.0163066
0.0163063
0.016306
0.0163056
0.0163052
0.0163048
0.0163044
0.0163039
0.0163035
0.016303
0.0163025
0.016302
0.0163014
0.0163009
0.0163003
0.0162997
0.0162991
0.0162985
0.0162979
0.0162973
0.0162967
0.016296
0.0162954
0.0162948
0.0162942
0.0162936
0.0162625
0.0162628
0.0162631
0.0162635
0.0162638
0.0162642
0.0162645
0.0162649
0.0162653
0.0162656
0.016266
0.0162664
0.0162668
0.0162672
0.0162676
0.016268
0.0162684
0.0162689
0.0162693
0.0162698
0.0162702
0.0162707
0.0162711
0.0162716
0.0162721
0.0162722
0.0162722
0.0162721
0.0162719
0.0162717
0.0162715
0.0162712
0.0162709
0.0162706
0.0162464
0.016247
0.0162475
0.0162481
0.0162487
0.0162492
0.0162498
0.0162504
0.0162506
0.0162505
0.0162504
0.0162502
0.01625
0.0162498
0.0162495
0.0162491
0.0162488
0.0162484
0.016248
0.0162477
0.0162475
0.0162475
0.0162479
0.0162484
0.016249
0.0162495
0.0162501
0.0162506
0.0162512
0.0162518
0.0162523
0.0162529
0.0162535
0.0162541
0.0162218
0.0162224
0.016223
0.0162236
0.0162242
0.0162248
0.0162254
0.016226
0.0162267
0.0162273
0.0162279
0.0162286
0.0162292
0.0162296
0.0162298
0.0162297
0.0162296
0.0162294
0.0162292
0.0162289
0.0162288
0.016229
0.0162297
0.0162303
0.016231
0.0162316
0.0162323
0.016233
0.0162336
0.0162343
0.016235
0.0162356
0.0162363
0.016237
0.0161933
0.016194
0.0161947
0.0161954
0.0161961
0.0161968
0.0161975
0.0161982
0.0161989
0.0161996
0.0162003
0.016201
0.0162017
0.0162024
0.0162031
0.0162038
0.0162046
0.0162053
0.016206
0.0162068
0.0162075
0.0162083
0.0162091
0.0162098
0.0162106
0.0162114
0.0162122
0.016213
0.0162138
0.0162146
0.0162153
0.0162161
0.0162169
0.0162177
0.0162185
0.0161689
0.0161697
0.0161706
0.0161714
0.0161723
0.0161732
0.016174
0.0161749
0.0161758
0.0161766
0.0161775
0.0161784
0.0161793
0.0161802
0.016181
0.0161819
0.0161828
0.0161837
0.0161846
0.0161855
0.0161865
0.0161874
0.0161883
0.0161892
0.0161901
0.016191
0.016192
0.0161929
0.0161938
0.0161948
0.0161957
0.0161966
0.0161976
0.0161985
0.0161994
0.0161437
0.0161447
0.0161457
0.0161467
0.0161477
0.0161487
0.0161497
0.0161508
0.0161518
0.0161528
0.0161538
0.0161549
0.0161559
0.016157
0.016158
0.0161591
0.0161601
0.0161612
0.0161622
0.0161633
0.0161644
0.0161654
0.0161665
0.0161676
0.0161687
0.0161698
0.0161709
0.016172
0.016173
0.0161741
0.0161753
0.0161764
0.0161775
0.0161786
0.0161797
0.0161168
0.016118
0.0161192
0.0161204
0.0161215
0.0161227
0.0161239
0.0161251
0.0161263
0.0161275
0.0161287
0.01613
0.0161312
0.0161324
0.0161336
0.0161349
0.0161361
0.0161374
0.0161386
0.0161399
0.0161411
0.0161424
0.0161436
0.0161449
0.0161462
0.0161475
0.0161488
0.01615
0.0161513
0.0161526
0.0161539
0.0161552
0.0161565
0.0161578
0.0161591
0.0160881
0.0160895
0.0160909
0.0160923
0.0160936
0.016095
0.0160964
0.0160978
0.0160992
0.0161006
0.016102
0.0161035
0.0161049
0.0161063
0.0161078
0.0161092
0.0161107
0.0161121
0.0161136
0.0161151
0.0161165
0.016118
0.0161195
0.016121
0.0161225
0.016124
0.0161255
0.016127
0.0161285
0.01613
0.0161315
0.0161331
0.0161346
0.0161361
0.0161377
0.0160573
0.0160589
0.0160605
0.0160621
0.0160637
0.0160654
0.016067
0.0160686
0.0160703
0.0160719
0.0160736
0.0160752
0.0160769
0.0160786
0.0160802
0.0160819
0.0160836
0.0160853
0.016087
0.0160888
0.0160905
0.0160922
0.0160939
0.0160957
0.0160974
0.0160992
0.016101
0.0161027
0.0161045
0.0161063
0.016108
0.0161098
0.0161116
0.0161134
0.0161152
0.0160243
0.0160261
0.016028
0.0160298
0.0160317
0.0160336
0.0160355
0.0160374
0.0160393
0.0160412
0.0160431
0.016045
0.016047
0.0160489
0.0160509
0.0160529
0.0160548
0.0160568
0.0160588
0.0160608
0.0160628
0.0160648
0.0160669
0.0160689
0.0160709
0.016073
0.016075
0.0160771
0.0160792
0.0160812
0.0160833
0.0160854
0.0160875
0.0160896
0.0160917
0.0159885
0.0159906
0.0159928
0.0159949
0.0159971
0.0159993
0.0160014
0.0160036
0.0160059
0.0160081
0.0160103
0.0160126
0.0160148
0.0160171
0.0160194
0.0160216
0.0160239
0.0160263
0.0160286
0.0160309
0.0160332
0.0160356
0.0160379
0.0160403
0.0160427
0.016045
0.0160474
0.0160498
0.0160522
0.0160547
0.0160571
0.0160595
0.0160619
0.0160644
0.0160669
0.0159494
0.0159519
0.0159544
0.0159569
0.0159594
0.0159619
0.0159644
0.0159669
0.0159695
0.0159721
0.0159747
0.0159773
0.0159799
0.0159825
0.0159851
0.0159878
0.0159905
0.0159931
0.0159958
0.0159985
0.0160012
0.016004
0.0160067
0.0160095
0.0160122
0.016015
0.0160178
0.0160205
0.0160233
0.0160262
0.016029
0.0160319
0.0160347
0.0160376
0.0160405
0.0159064
0.0159092
0.0159121
0.015915
0.0159179
0.0159208
0.0159237
0.0159266
0.0159296
0.0159326
0.0159356
0.0159386
0.0159416
0.0159447
0.0159477
0.0159508
0.0159539
0.015957
0.0159601
0.0159632
0.0159664
0.0159696
0.0159727
0.0159759
0.0159791
0.0159824
0.0159856
0.0159889
0.0159922
0.0159955
0.0159988
0.0160021
0.0160055
0.0160088
0.0160122
0.0158587
0.0158619
0.0158652
0.0158685
0.0158719
0.0158752
0.0158786
0.015882
0.0158855
0.0158889
0.0158924
0.0158959
0.0158994
0.0159029
0.0159065
0.01591
0.0159136
0.0159172
0.0159208
0.0159245
0.0159282
0.0159318
0.0159356
0.0159393
0.0159431
0.0159469
0.0159507
0.0159545
0.0159583
0.0159622
0.015966
0.0159699
0.0159738
0.0159777
0.0159816
0.0158054
0.0158092
0.015813
0.0158168
0.0158206
0.0158245
0.0158284
0.0158324
0.0158364
0.0158403
0.0158444
0.0158484
0.0158525
0.0158566
0.0158607
0.0158649
0.015869
0.0158732
0.0158774
0.0158817
0.015886
0.0158903
0.0158947
0.0158991
0.0159035
0.0159079
0.0159123
0.0159168
0.0159212
0.0159257
0.0159302
0.0159348
0.0159393
0.0159438
0.0159484
0.0157458
0.0157501
0.0157545
0.015759
0.0157634
0.0157679
0.0157724
0.015777
0.0157816
0.0157862
0.0157909
0.0157956
0.0158003
0.0158051
0.0158099
0.0158147
0.0158196
0.0158245
0.0158295
0.0158344
0.0158395
0.0158445
0.0158496
0.0158547
0.0158598
0.015865
0.0158701
0.0158753
0.0158806
0.0158858
0.0158911
0.0158964
0.0159017
0.015907
0.0159123
0.0156792
0.0156842
0.0156893
0.0156944
0.0156996
0.0157048
0.01571
0.0157153
0.0157206
0.015726
0.0157314
0.0157369
0.0157424
0.0157479
0.0157535
0.0157592
0.0157649
0.0157706
0.0157764
0.0157822
0.0157881
0.015794
0.0157999
0.0158058
0.0158118
0.0158178
0.0158239
0.01583
0.0158361
0.0158422
0.0158484
0.0158545
0.0158607
0.015867
0.0158732
0.0156048
0.0156106
0.0156165
0.0156224
0.0156284
0.0156344
0.0156405
0.0156466
0.0156528
0.015659
0.0156653
0.0156717
0.0156781
0.0156846
0.0156911
0.0156977
0.0157043
0.015711
0.0157178
0.0157246
0.0157314
0.0157383
0.0157452
0.0157521
0.0157591
0.0157661
0.0157732
0.0157803
0.0157874
0.0157946
0.0158018
0.015809
0.0158163
0.0158235
0.0158308
0.0155218
0.0155286
0.0155353
0.0155422
0.0155491
0.0155561
0.0155631
0.0155702
0.0155774
0.0155846
0.0155919
0.0155993
0.0156068
0.0156144
0.015622
0.0156297
0.0156374
0.0156452
0.015653
0.0156609
0.0156689
0.0156769
0.015685
0.0156931
0.0157013
0.0157095
0.0157177
0.015726
0.0157343
0.0157427
0.0157511
0.0157596
0.015768
0.0157765
0.015785
0.0154292
0.015437
0.0154448
0.0154527
0.0154607
0.0154688
0.0154769
0.0154852
0.0154935
0.0155019
0.0155104
0.015519
0.0155278
0.0155365
0.0155454
0.0155543
0.0155633
0.0155724
0.0155815
0.0155908
0.0156
0.0156094
0.0156188
0.0156282
0.0156378
0.0156474
0.015657
0.0156667
0.0156764
0.0156862
0.015696
0.0157059
0.0157158
0.0157257
0.0157356
0.0153255
0.0153345
0.0153435
0.0153526
0.0153619
0.0153712
0.0153806
0.0153902
0.0153998
0.0154096
0.0154196
0.0154296
0.0154397
0.0154499
0.0154602
0.0154705
0.015481
0.0154916
0.0155022
0.015513
0.0155238
0.0155347
0.0155456
0.0155567
0.0155678
0.015579
0.0155902
0.0156015
0.0156129
0.0156243
0.0156358
0.0156473
0.0156589
0.0156705
0.0156821
0.0152094
0.0152196
0.0152301
0.0152406
0.0152513
0.0152621
0.015273
0.015284
0.0152953
0.0153066
0.0153181
0.0153297
0.0153414
0.0153532
0.0153652
0.0153773
0.0153894
0.0154017
0.0154141
0.0154266
0.0154392
0.0154519
0.0154647
0.0154776
0.0154905
0.0155036
0.0155167
0.0155299
0.0155432
0.0155565
0.01557
0.0155834
0.0155969
0.0156105
0.0156241
0.0150792
0.015091
0.015103
0.0151152
0.0151275
0.0151399
0.0151526
0.0151654
0.0151784
0.0151915
0.0152048
0.0152183
0.0152318
0.0152456
0.0152594
0.0152734
0.0152876
0.0153018
0.0153162
0.0153308
0.0153454
0.0153602
0.0153751
0.0153901
0.0154052
0.0154204
0.0154358
0.0154512
0.0154667
0.0154823
0.015498
0.0155137
0.0155295
0.0155454
0.0155613
0.0149332
0.0149469
0.0149607
0.0149747
0.0149889
0.0150032
0.0150178
0.0150327
0.0150477
0.0150629
0.0150782
0.0150938
0.0151095
0.0151254
0.0151415
0.0151577
0.0151741
0.0151907
0.0152074
0.0152243
0.0152414
0.0152585
0.0152759
0.0152934
0.015311
0.0153287
0.0153466
0.0153646
0.0153827
0.0154009
0.0154192
0.0154376
0.0154561
0.0154746
0.0154932
0.0147696
0.0147852
0.0148011
0.0148172
0.0148335
0.0148501
0.014867
0.0148841
0.0149014
0.0149189
0.0149367
0.0149546
0.0149728
0.0149912
0.0150098
0.0150286
0.0150477
0.0150669
0.0150863
0.0151059
0.0151257
0.0151457
0.0151659
0.0151862
0.0152067
0.0152274
0.0152483
0.0152693
0.0152904
0.0153116
0.015333
0.0153545
0.0153761
0.0153977
0.0154195
0.0145861
0.014604
0.0146223
0.0146407
0.0146595
0.0146786
0.014698
0.0147177
0.0147376
0.0147578
0.0147783
0.014799
0.01482
0.0148413
0.0148628
0.0148845
0.0149065
0.0149288
0.0149513
0.0149741
0.014997
0.0150203
0.0150437
0.0150674
0.0150913
0.0151154
0.0151396
0.0151641
0.0151888
0.0152136
0.0152385
0.0152636
0.0152888
0.0153142
0.0153395
0.0143807
0.0144012
0.014422
0.0144432
0.0144647
0.0144867
0.0145089
0.0145315
0.0145544
0.0145776
0.0146011
0.014625
0.0146492
0.0146737
0.0146985
0.0147236
0.014749
0.0147748
0.0148008
0.0148272
0.0148538
0.0148807
0.0149079
0.0149354
0.0149632
0.0149912
0.0150195
0.015048
0.0150768
0.0151057
0.0151348
0.0151641
0.0151936
0.0152231
0.0152528
0.0141512
0.0141745
0.0141983
0.0142224
0.014247
0.0142721
0.0142975
0.0143233
0.0143496
0.0143762
0.0144032
0.0144306
0.0144583
0.0144865
0.014515
0.014544
0.0145733
0.014603
0.014633
0.0146635
0.0146943
0.0147254
0.014757
0.0147889
0.0148211
0.0148537
0.0148865
0.0149197
0.0149532
0.0149869
0.0150209
0.0150551
0.0150895
0.0151241
0.0151587
0.0138954
0.0139218
0.0139488
0.0139763
0.0140043
0.0140328
0.0140618
0.0140912
0.0141211
0.0141515
0.0141823
0.0142136
0.0142454
0.0142777
0.0143104
0.0143436
0.0143773
0.0144115
0.0144461
0.0144811
0.0145167
0.0145527
0.0145891
0.014626
0.0146634
0.0147011
0.0147393
0.0147779
0.0148168
0.0148561
0.0148957
0.0149356
0.0149758
0.0150161
0.0150566
0.0136116
0.0136414
0.0136718
0.0137029
0.0137346
0.0137668
0.0137996
0.013833
0.013867
0.0139015
0.0139366
0.0139722
0.0140085
0.0140453
0.0140826
0.0141206
0.0141591
0.0141983
0.014238
0.0142783
0.0143191
0.0143606
0.0144026
0.0144452
0.0144884
0.0145321
0.0145763
0.0146211
0.0146663
0.014712
0.0147581
0.0148046
0.0148514
0.0148984
0.0149457
0.0132982
0.0133317
0.0133658
0.0134006
0.0134362
0.0134725
0.0135094
0.013547
0.0135853
0.0136243
0.013664
0.0137044
0.0137455
0.0137872
0.0138297
0.0138729
0.0139168
0.0139614
0.0140068
0.0140529
0.0140997
0.0141472
0.0141955
0.0142445
0.0142943
0.0143447
0.0143958
0.0144476
0.0145001
0.0145531
0.0146067
0.0146608
0.0147154
0.0147702
0.0148253
0.0129543
0.0129915
0.0130295
0.0130683
0.013108
0.0131485
0.0131897
0.0132318
0.0132748
0.0133185
0.0133631
0.0134085
0.0134548
0.0135019
0.0135499
0.0135987
0.0136485
0.0136991
0.0137507
0.0138031
0.0138565
0.0139108
0.013966
0.0140222
0.0140793
0.0141373
0.0141962
0.014256
0.0143167
0.0143781
0.0144403
0.0145031
0.0145666
0.0146305
0.0146947
0.0125798
0.0126207
0.0126626
0.0127055
0.0127493
0.0127941
0.0128399
0.0128866
0.0129343
0.012983
0.0130327
0.0130834
0.0131351
0.0131879
0.0132417
0.0132966
0.0133526
0.0134097
0.0134679
0.0135272
0.0135877
0.0136494
0.0137123
0.0137763
0.0138416
0.013908
0.0139756
0.0140444
0.0141143
0.0141853
0.0142573
0.0143302
0.0144039
0.0144782
0.014553
0.0121753
0.0122199
0.0122656
0.0123125
0.0123604
0.0124095
0.0124597
0.0125111
0.0125636
0.0126173
0.0126722
0.0127283
0.0127856
0.0128443
0.0129041
0.0129653
0.0130279
0.0130918
0.013157
0.0132237
0.0132919
0.0133615
0.0134326
0.0135053
0.0135794
0.0136552
0.0137324
0.0138112
0.0138915
0.0139732
0.0140563
0.0141406
0.014226
0.0143124
0.0143994
0.0117424
0.0117904
0.0118398
0.0118905
0.0119424
0.0119956
0.0120501
0.012106
0.0121633
0.0122219
0.0122819
0.0123434
0.0124064
0.0124709
0.0125369
0.0126045
0.0126738
0.0127447
0.0128173
0.0128916
0.0129678
0.0130458
0.0131257
0.0132075
0.0132913
0.0133771
0.0134649
0.0135546
0.0136464
0.0137401
0.0138356
0.0139329
0.0140317
0.0141318
0.0142328
0.0112837
0.0113349
0.0113875
0.0114416
0.0114972
0.0115543
0.0116128
0.011673
0.0117347
0.011798
0.011863
0.0119297
0.0119981
0.0120683
0.0121404
0.0122144
0.0122903
0.0123682
0.0124483
0.0125304
0.0126148
0.0127015
0.0127906
0.012882
0.012976
0.0130725
0.0131715
0.0132732
0.0133776
0.0134845
0.0135939
0.0137056
0.0138195
0.0139352
0.0140524
0.0108026
0.0108565
0.0109119
0.010969
0.0110278
0.0110883
0.0111504
0.0112144
0.0112801
0.0113477
0.0114173
0.0114888
0.0115623
0.011638
0.0117158
0.0117959
0.0118783
0.0119631
0.0120504
0.0121404
0.012233
0.0123284
0.0124268
0.0125281
0.0126326
0.0127403
0.0128513
0.0129657
0.0130836
0.0132048
0.0133295
0.0134573
0.0135881
0.0137216
0.0138571
0.0103035
0.0103594
0.0104172
0.0104766
0.010538
0.0106012
0.0106664
0.0107336
0.0108028
0.0108742
0.0109477
0.0110235
0.0111016
0.0111822
0.0112653
0.011351
0.0114394
0.0115307
0.011625
0.0117224
0.011823
0.011927
0.0120346
0.0121459
0.012261
0.0123802
0.0125036
0.0126313
0.0127634
0.0129
0.0130412
0.0131867
0.0133363
0.0134896
0.0136459
0.00979122
0.00984853
0.00990778
0.00996899
0.0100322
0.0100976
0.010165
0.0102347
0.0103067
0.010381
0.0104578
0.0105372
0.0106192
0.010704
0.0107917
0.0108824
0.0109762
0.0110734
0.011174
0.0112783
0.0113865
0.0114986
0.0116151
0.011736
0.0118617
0.0119923
0.0121281
0.0122694
0.0124164
0.0125692
0.0127279
0.0128925
0.0130627
0.013238
0.0134178
0.00927199
0.00932976
0.00938962
0.00945163
0.00951586
0.00958236
0.00965122
0.00972252
0.00979636
0.00987282
0.00995202
0.0100341
0.0101191
0.0102072
0.0102986
0.0103935
0.0104919
0.0105941
0.0107003
0.0108108
0.0109257
0.0110453
0.01117
0.0113
0.0114357
0.0115774
0.0117255
0.0118804
0.0120424
0.0122118
0.0123889
0.0125738
0.0127662
0.0129659
0.0131718
0.00875309
0.00881011
0.00886941
0.00893105
0.00899511
0.00906166
0.0091308
0.00920263
0.00927723
0.00935474
0.00943527
0.00951896
0.00960595
0.0096964
0.00979049
0.00988841
0.00999037
0.0100966
0.0102074
0.010323
0.0104437
0.0105698
0.0107018
0.0108401
0.010985
0.0111371
0.0112969
0.011465
0.0116418
0.011828
0.0120239
0.01223
0.0124462
0.0126722
0.012907
0.00824418
0.00829876
0.00835584
0.00841549
0.0084778
0.00854288
0.00861081
0.0086817
0.00875567
0.00883285
0.00891337
0.00899738
0.00908504
0.00917654
0.00927207
0.00937185
0.00947613
0.00958518
0.00969929
0.00981881
0.00994411
0.0100756
0.0102138
0.0103591
0.0105122
0.0106737
0.0108443
0.0110247
0.0112158
0.0114184
0.0116332
0.011861
0.012102
0.0123562
0.0126227
0.00775925
0.0078088
0.00786115
0.00791638
0.00797462
0.00803595
0.00810051
0.0081684
0.00823976
0.0083147
0.00839339
0.00847597
0.00856263
0.00865356
0.00874897
0.0088491
0.00895422
0.00906463
0.00918067
0.00930273
0.00943122
0.00956666
0.00970959
0.00986065
0.0100205
0.0101901
0.0103702
0.0105618
0.0107661
0.0109843
0.0112175
0.011467
0.0117334
0.0120173
0.0123181
0.0073197
0.00736026
0.00740398
0.00745101
0.00750149
0.00755556
0.00761339
0.00767508
0.00774077
0.00781061
0.00788476
0.00796337
0.00804664
0.00813475
0.00822793
0.00832641
0.00843047
0.00854044
0.00865667
0.00877957
0.00890962
0.00904737
0.00919347
0.00934863
0.00951372
0.00968971
0.00987772
0.0100791
0.0102952
0.0105277
0.0107783
0.0110489
0.0113409
0.0116555
0.0119927
0.00695234
0.00698048
0.00701133
0.0070453
0.00708284
0.00712438
0.00717027
0.00722074
0.00727598
0.00733615
0.00740144
0.00747207
0.00754822
0.00763007
0.00771784
0.00781175
0.00791208
0.00801913
0.00813326
0.00825487
0.00838446
0.0085226
0.00866998
0.00882742
0.00899586
0.00917647
0.00937057
0.00957974
0.00980584
0.010051
0.0103175
0.0106081
0.0109252
0.0112709
0.0116464
0.00664068
0.00666047
0.00668221
0.00670616
0.00673259
0.00676181
0.00679415
0.00683004
0.00687001
0.00691475
0.00696501
0.00702146
0.00708458
0.00715465
0.0072319
0.0073166
0.00740901
0.00750939
0.00761804
0.00773535
0.00786175
0.0079978
0.00814418
0.00830171
0.00847142
0.00865457
0.00885267
0.00906759
0.00930156
0.00955724
0.00983773
0.0101466
0.0104875
0.0108641
0.0112791
0.00635924
0.00637297
0.00638814
0.00640496
0.00642363
0.00644439
0.00646749
0.00649325
0.00652206
0.00655436
0.00659067
0.0066316
0.00667785
0.00673036
0.00679026
0.00685869
0.00693648
0.00702409
0.00712186
0.00723012
0.00734923
0.00747962
0.00762187
0.00777673
0.00794518
0.00812848
0.00832827
0.00854661
0.00878608
0.00904988
0.0093419
0.00966679
0.0100298
0.0104363
0.0108912
0.00609715
0.00610601
0.0061159
0.00612703
0.0061396
0.00615377
0.00616979
0.00618788
0.00620836
0.00623156
0.00625785
0.00628769
0.00632163
0.00636034
0.00640465
0.00645554
0.00651422
0.00658221
0.00666131
0.00675301
0.00685815
0.00697717
0.00711051
0.00725871
0.00742252
0.00760304
0.00780182
0.00802099
0.00826336
0.00853262
0.00883342
0.0091716
0.00955412
0.00998874
0.0104834
0.00584924
0.00585408
0.00585961
0.00586602
0.00587347
0.00588213
0.00589221
0.00590391
0.00591749
0.00593322
0.00595143
0.00597249
0.00599685
0.00602503
0.00605766
0.00609548
0.00613943
0.00619067
0.00625068
0.00632133
0.00640495
0.00650417
0.00662093
0.00675605
0.00691009
0.00708371
0.00727809
0.0074951
0.00773753
0.00800936
0.00831594
0.00866427
0.00906327
0.00952348
0.0100566
0.00561194
0.00561367
0.00561576
0.00561834
0.00562158
0.00562562
0.00563065
0.00563687
0.0056445
0.00565377
0.00566498
0.00567847
0.00569463
0.0057139
0.00573681
0.00576399
0.0057962
0.00583435
0.0058796
0.00593339
0.00599762
0.00607474
0.00616798
0.00628113
0.00641723
0.00657749
0.00676256
0.00697356
0.0072128
0.0074841
0.00779325
0.00814832
0.00856026
0.00904281
0.00961217
0.00538208
0.0053816
0.00538129
0.00538103
0.00538103
0.00538143
0.00538239
0.00538407
0.00538666
0.00539039
0.00539551
0.00540234
0.00541122
0.00542257
0.00543687
0.00545466
0.00547663
0.00550357
0.00553643
0.00557642
0.00562505
0.00568427
0.00575671
0.00584591
0.00595663
0.00609426
0.00626227
0.00646167
0.00669355
0.00696087
0.00726922
0.00762741
0.00804836
0.00854937
0.00915192
0.00515645
0.00515479
0.00515304
0.00515104
0.00514889
0.00514674
0.00514471
0.00514293
0.00514157
0.00514082
0.0051409
0.00514206
0.00514463
0.00514896
0.00515555
0.00516487
0.00517755
0.00519433
0.00521606
0.00524381
0.00527887
0.0053229
0.00537805
0.00544718
0.00553432
0.00564511
0.00578693
0.00596612
0.00618465
0.00644373
0.00674766
0.00710525
0.00753105
0.00804609
0.00867785
0.00493183
0.00492994
0.00492769
0.00492509
0.00492195
0.00491843
0.00491462
0.00491062
0.00490655
0.00490255
0.0048988
0.00489549
0.00489292
0.0048914
0.00489135
0.00489319
0.00489751
0.00490504
0.00491654
0.00493302
0.00495566
0.00498593
0.0050257
0.00507742
0.0051444
0.00523137
0.00534525
0.00549573
0.00569205
0.005937
0.00623236
0.00658548
0.00701184
0.00753613
0.00819227
0.00470528
0.00470401
0.0047022
0.00469987
0.00469689
0.00469316
0.0046888
0.00468385
0.0046784
0.00467254
0.00466637
0.00466003
0.00465374
0.00464775
0.00464239
0.00463803
0.00463523
0.00463464
0.00463692
0.00464305
0.00465419
0.00467166
0.00469721
0.00473299
0.0047819
0.00484791
0.00493686
0.00505765
0.00522329
0.00544562
0.0057271
0.00607167
0.00649424
0.00702273
0.00769778
0.0044744
0.00447442
0.00447381
0.00447254
0.00447058
0.00446772
0.00446392
0.00445925
0.00445372
0.00444737
0.00444024
0.00443241
0.004424
0.00441516
0.00440614
0.00439723
0.00438887
0.00438159
0.00437603
0.00437308
0.00437383
0.00437948
0.00439177
0.00441266
0.00444479
0.00449165
0.00455821
0.004652
0.00478516
0.00497566
0.00523589
0.00556726
0.00598162
0.00650919
0.00719717
0.0042375
0.00423926
0.00424038
0.00424079
0.00424044
0.00423926
0.00423701
0.00423364
0.00422918
0.0042236
0.0042169
0.00420907
0.00420014
0.00419017
0.0041793
0.00416769
0.00415566
0.00414358
0.004132
0.00412165
0.0041135
0.00410872
0.00410895
0.00411601
0.00413245
0.00416145
0.00420738
0.00427667
0.00437963
0.00453389
0.00476335
0.00507566
0.00547724
0.00599872
0.00669337
0.0039936
0.00399737
0.00400053
0.00400301
0.00400474
0.00400563
0.00400562
0.00400438
0.0040019
0.00399814
0.00399303
0.00398651
0.00397853
0.00396906
0.00395811
0.00394573
0.00393206
0.00391732
0.00390189
0.0038863
0.00387133
0.00385802
0.00384781
0.00384249
0.0038445
0.00385684
0.00388358
0.00393034
0.00400583
0.00412507
0.00431517
0.00460048
0.00498423
0.00549443
0.00618941
0.00374244
0.00374828
0.00375361
0.00375833
0.00376238
0.00376565
0.00376806
0.00376949
0.00376965
0.00376846
0.00376583
0.00376166
0.00375583
0.00374824
0.00373879
0.00372741
0.00371409
0.00369888
0.00368193
0.00366356
0.00364427
0.00362487
0.00360653
0.00359088
0.00358016
0.00357731
0.00358622
0.0036121
0.00366253
0.00374995
0.00389805
0.00414577
0.00450571
0.00499926
0.00568829
0.00348434
0.00349218
0.00349961
0.00350656
0.00351296
0.0035187
0.00352369
0.00352781
0.00353096
0.00353278
0.00353321
0.0035321
0.00352929
0.00352463
0.00351793
0.00350903
0.00349779
0.00348409
0.00346789
0.00344923
0.00342834
0.00340569
0.00338208
0.0033588
0.00333779
0.00332178
0.00331452
0.00332106
0.00334837
0.0034071
0.00351656
0.00371662
0.00404482
0.00451609
0.0051927
0.00322018
0.00322979
0.00323913
0.00324813
0.00325673
0.00326483
0.00327234
0.00327914
0.00328513
0.00329015
0.00329389
0.0032962
0.00329692
0.00329586
0.00329278
0.00328744
0.00327961
0.00326904
0.00325551
0.00323885
0.00321899
0.00319602
0.00317032
0.0031427
0.00311458
0.00308825
0.00306715
0.00305616
0.00306201
0.00309439
0.00316932
0.00331947
0.00360458
0.0040476
0.00470381
0.00295125
0.0029623
0.00297322
0.00298397
0.00299447
0.00300466
0.00301445
0.00302374
0.00303241
0.00304033
0.00304736
0.00305317
0.00305758
0.0030604
0.00306138
0.00306026
0.00305671
0.00305041
0.00304103
0.0030282
0.00301162
0.00299104
0.0029664
0.00293795
0.00290645
0.00287347
0.00284182
0.0028159
0.00280221
0.00281004
0.00285347
0.00295862
0.00318812
0.00359623
0.00422361
0.00267926
0.00269131
0.0027034
0.00271547
0.00272747
0.00273935
0.00275102
0.00276241
0.00277343
0.00278394
0.00279382
0.0028029
0.00281089
0.00281756
0.00282268
0.00282597
0.00282712
0.00282575
0.00282143
0.0028137
0.00280208
0.00278608
0.00276525
0.00273931
0.0027083
0.00267293
0.00263495
0.00259786
0.00256749
0.00255279
0.00256694
0.00263164
0.00279969
0.00316463
0.00375679
0.00240629
0.00241885
0.00243158
0.00244445
0.00245744
0.00247048
0.00248352
0.00249651
0.00250936
0.00252197
0.00253424
0.00254602
0.00255716
0.00256737
0.00257638
0.00258395
0.00258977
0.00259347
0.0025946
0.00259266
0.00258705
0.00257712
0.00256218
0.00254152
0.00251456
0.00248108
0.00244164
0.00239829
0.00235553
0.00232144
0.00230871
0.00233661
0.00244544
0.00275547
0.00330575
0.00213481
0.00214731
0.00216011
0.0021732
0.00218655
0.00220015
0.00221394
0.00222788
0.00224192
0.002256
0.00227002
0.00228387
0.00229743
0.00231053
0.00232293
0.00233432
0.00234443
0.00235293
0.0023594
0.00236334
0.00236414
0.00236108
0.0023533
0.00233987
0.00231975
0.00229196
0.00225589
0.00221191
0.00216253
0.00211398
0.00207802
0.00207322
0.00213225
0.00237169
0.0028733
0.00186763
0.0018795
0.00189177
0.00190444
0.00191751
0.00193096
0.00194478
0.00195895
0.00197343
0.00198819
0.00200316
0.00201828
0.00203346
0.00204856
0.00206345
0.00207793
0.00209163
0.0021043
0.00211557
0.002125
0.002132
0.00213588
0.00213578
0.0021306
0.00211912
0.00209985
0.00207128
0.00203225
0.00198291
0.0019267
0.0018731
0.00184007
0.00185859
0.00201699
0.00246176
0.0016078
0.00161851
0.00162969
0.00164133
0.00165345
0.00166607
0.00167917
0.00169277
0.00170686
0.00172142
0.00173644
0.00175188
0.00176768
0.00178378
0.00180009
0.00181646
0.00183274
0.00184859
0.00186373
0.00187779
0.00189027
0.00190056
0.00190785
0.00191109
0.00190899
0.00189987
0.00188172
0.00185227
0.00180957
0.00175371
0.0016902
0.00163431
0.00161562
0.00169694
0.00207381
0.00135841
0.00136754
0.00137714
0.00138724
0.00139784
0.00140898
0.00142068
0.00143296
0.00144583
0.0014593
0.0014734
0.00148812
0.00150346
0.00151939
0.00153587
0.00155285
0.00157024
0.0015879
0.00160556
0.00162293
0.00163964
0.00165519
0.00166891
0.00167987
0.00168689
0.00168833
0.00168204
0.00166525
0.00163459
0.00158715
0.00152337
0.00145292
0.00140204
0.00142144
0.00171345
0.00112225
0.00112954
0.00113726
0.00114545
0.00115413
0.00116332
0.00117308
0.00118341
0.00119437
0.00120598
0.00121828
0.0012313
0.00124508
0.00125963
0.00127498
0.00129113
0.00130808
0.00132578
0.00134416
0.00136305
0.00138215
0.00140118
0.00141962
0.00143678
0.00145166
0.00146286
0.00146839
0.0014655
0.0014503
0.00141792
0.0013641
0.00129082
0.00121845
0.00120108
0.00138327
0.000901494
0.000906869
0.000912611
0.000918747
0.000925305
0.000932318
0.000939821
0.000947851
0.000956448
0.000965655
0.000975521
0.000986096
0.000997434
0.00100959
0.00102263
0.0010366
0.00105156
0.00106755
0.00108462
0.00110276
0.00112193
0.00114195
0.00116258
0.00118341
0.00120378
0.00122266
0.00123846
0.0012488
0.00125005
0.00123677
0.00120167
0.00113871
0.00105678
0.00100354
0.00108398
0.00069741
0.000700982
0.000704836
0.000708992
0.000713472
0.000718307
0.00072353
0.000729185
0.000735294
0.000741902
0.000749057
0.000756813
0.000765227
0.000774365
0.000784301
0.000795117
0.0008069
0.000819747
0.000833764
0.000849051
0.000865717
0.00088385
0.000903452
0.000924427
0.00094658
0.000969428
0.00099204
0.00101278
0.00102882
0.0010354
0.00102442
0.000984072
0.000908624
0.000826757
0.00082002
0.000510002
0.000512035
0.000514261
0.00051669
0.00051933
0.00052221
0.000525362
0.000528859
0.000532664
0.000536825
0.000541379
0.000546369
0.000551846
0.000557864
0.000564489
0.000571798
0.000579877
0.000588827
0.000598767
0.000609832
0.000622183
0.000635999
0.00065148
0.000668843
0.000688226
0.000709751
0.000733359
0.000758592
0.000784162
0.000807194
0.000820996
0.000811835
0.000762377
0.000675116
0.000607282
0.000336945
0.000337803
0.000338773
0.000339854
0.000341026
0.000342326
0.00034378
0.000345563
0.000347496
0.000349644
0.000352031
0.000354684
0.000357636
0.000360924
0.000364592
0.000368694
0.00037329
0.000378455
0.00038428
0.000390871
0.000398364
0.00040692
0.000416741
0.000428079
0.000441252
0.000456635
0.00047466
0.000495842
0.000520703
0.000549767
0.000581377
0.000604918
0.000598784
0.000541918
0.000460038
0.000175826
0.000175886
0.000176004
0.00017618
0.000176387
0.000176642
0.000176929
0.000177505
0.000178115
0.000178833
0.00017967
0.00018064
0.000181759
0.000183048
0.000184528
0.000186229
0.000188183
0.000190433
0.000193027
0.000196028
0.00019951
0.000203572
0.000208341
0.000213982
0.00022071
0.000228808
0.000238705
0.000250918
0.000266175
0.000286038
0.000313418
0.000350344
0.000390835
0.000392096
0.000319931
1.39164e-06
1.38058e-06
1.36963e-06
1.35784e-06
1.34072e-06
1.32862e-06
1.37617e-06
1.34107e-06
1.34206e-06
1.34497e-06
1.35023e-06
1.35836e-06
1.36986e-06
1.38519e-06
1.40469e-06
1.4287e-06
1.45765e-06
1.49226e-06
1.53358e-06
1.58339e-06
1.6511e-06
1.73828e-06
1.84568e-06
1.97995e-06
2.15075e-06
2.37245e-06
2.66876e-06
3.07603e-06
3.65499e-06
4.54048e-06
6.04392e-06
8.64414e-06
1.20996e-05
1.50969e-05
0.000106442
0.016362
0.016358
0.0163533
0.0163513
0.0163503
0.0163477
0.0163435
0.0163389
0.0163355
0.0163332
0.0163318
0.016331
0.016331
0.0163326
0.0163333
0.0163336
0.0163336
0.0163335
0.0163331
0.0163326
0.0163321
0.0163316
0.0163312
0.0163309
0.0163306
0.0163304
0.0163302
0.0163301
0.0163299
0.0163298
0.0163298
0.0163297
0.0163297
0.0163297
0.0163297
0.0163297
0.0163297
0.0163297
0.0163297
0.0163296
0.0163296