/*--------------------------------*- C++ -*----------------------------------*\
  =========                 |
  \\      /  F ield         | OpenFOAM: The Open Source CFD Toolbox
   \\    /   O peration     | Website:  https://openfoam.org
    \\  /    A nd           | Version:  9
     \\/     M anipulation  |
\*---------------------------------------------------------------------------*/
FoamFile
{
    format      ascii;
    class       volScalarField;
    location    "0.005";
    object      nut;
}
// * * * * * * * * * * * * * * * * * * * * * * * * * * * * * * * * * * * * * //

dimensions      [0 2 -1 0 0 0 0];

internalField   nonuniform List<scalar> 
6352
(
0.0131909
0.0128214
0.0126917
0.0126873
0.0127383
0.0128086
0.012884
0.0129573
0.0130255
0.013088
0.013145
0.013197
0.0132444
0.0132876
0.0133272
0.0133634
0.0133966
0.0134272
0.0134554
0.0134815
0.0135057
0.0135281
0.013549
0.0135682
0.0135856
0.0130807
0.0127172
0.012584
0.0125755
0.0126249
0.0126961
0.0127718
0.0128469
0.0129175
0.0129826
0.0130426
0.0130979
0.0131488
0.0131955
0.0132384
0.0132779
0.0133143
0.0133479
0.0133789
0.0134077
0.0134345
0.0134595
0.0134828
0.0135046
0.013525
0.0125956
0.0124632
0.0124532
0.0125022
0.0125751
0.0126542
0.0127316
0.0128042
0.0128712
0.0129331
0.012991
0.0130449
0.0130949
0.0131412
0.013184
0.0132236
0.0132602
0.0132943
0.0133259
0.0133553
0.0133828
0.0134085
0.0134326
0.0134551
0.0124575
0.0123315
0.0123221
0.0123711
0.0124448
0.0125258
0.012606
0.0126819
0.0127523
0.0128173
0.0128774
0.0129337
0.0129866
0.013036
0.013082
0.0131248
0.0131646
0.0132016
0.013236
0.0132682
0.0132983
0.0133264
0.0133528
0.0133777
0.0123062
0.01219
0.0121833
0.0122328
0.0123072
0.0123898
0.0124723
0.012551
0.0126246
0.0126929
0.012756
0.0128147
0.01287
0.0129223
0.0129713
0.0130172
0.0130601
0.0131002
0.0131376
0.0131727
0.0132055
0.0132362
0.0132651
0.0132923
0.0121408
0.012038
0.0120359
0.0120869
0.0121623
0.0122463
0.0123308
0.0124121
0.0124886
0.0125599
0.0126262
0.0126879
0.0127455
0.0127998
0.0128516
0.0129004
0.0129464
0.0129895
0.01303
0.0130679
0.0131036
0.0131371
0.0131687
0.0131984
0.0119632
0.0118759
0.0118799
0.0119331
0.0120096
0.0120948
0.012181
0.0122645
0.0123436
0.0124177
0.012487
0.0125516
0.012612
0.0126687
0.0127225
0.0127739
0.0128227
0.0128688
0.0129123
0.0129532
0.0129918
0.0130281
0.0130624
0.0130948
0.0117747
0.0117043
0.0117155
0.0117714
0.0118491
0.0119354
0.0120229
0.0121082
0.0121895
0.0122662
0.0123382
0.0124056
0.0124688
0.0125282
0.0125843
0.0126376
0.0126888
0.0127376
0.012784
0.0128278
0.0128693
0.0129085
0.0129456
0.0129807
0.011577
0.011524
0.0115428
0.0116016
0.0116805
0.0117676
0.0118562
0.011943
0.0120262
0.012105
0.0121794
0.0122494
0.0123153
0.0123773
0.0124359
0.0124915
0.0125446
0.0125957
0.0126446
0.0126912
0.0127355
0.0127775
0.0128174
0.0128552
0.011372
0.0113358
0.0113621
0.0114238
0.0115037
0.0115913
0.0116807
0.0117685
0.0118532
0.0119339
0.0120104
0.0120828
0.0121511
0.0122157
0.0122767
0.0123346
0.0123898
0.0124428
0.0124939
0.012543
0.01259
0.0126347
0.0126772
0.0127177
0.0111614
0.0111407
0.0111738
0.011238
0.0113185
0.0114063
0.0114959
0.0115844
0.0116702
0.0117524
0.0118308
0.0119052
0.0119758
0.0120427
0.0121061
0.0121664
0.0122238
0.0122787
0.0123317
0.0123828
0.0124322
0.0124794
0.0125246
0.0125677
0.010947
0.0109399
0.0109787
0.0110445
0.011125
0.0112123
0.0113017
0.0113904
0.0114768
0.0115601
0.0116399
0.0117161
0.0117887
0.0118577
0.0119234
0.011986
0.0120457
0.0121027
0.0121575
0.0122104
0.0122617
0.0123113
0.0123589
0.0124046
0.0107346
0.0107775
0.0108439
0.0109235
0.0110095
0.0110979
0.0111861
0.0112725
0.0113564
0.0114372
0.0115148
0.011589
0.01166
0.0117278
0.0117925
0.0118543
0.0119135
0.0119703
0.012025
0.012078
0.0121295
0.0121794
0.0122276
0.010526
0.0105713
0.010637
0.0107146
0.0107984
0.0108848
0.0109716
0.0110573
0.011141
0.0112222
0.0113006
0.0113761
0.0114486
0.0115181
0.0115847
0.0116486
0.0117099
0.0117687
0.0118253
0.0118799
0.0119329
0.0119846
0.012035
0.0103159
0.0103616
0.0104251
0.0104994
0.0105798
0.0106633
0.0107476
0.0108316
0.0109142
0.010995
0.0110735
0.0111495
0.0112229
0.0112937
0.0113619
0.0114274
0.0114905
0.0115512
0.0116096
0.011666
0.0117206
0.0117737
0.0118256
0.0101062
0.0101503
0.01021
0.0102797
0.0103554
0.0104346
0.0105154
0.0105964
0.0106768
0.0107561
0.0108337
0.0109094
0.010983
0.0110543
0.0111234
0.0111901
0.0112546
0.0113168
0.0113768
0.0114348
0.0114909
0.0115453
0.0115983
0.00989921
0.00993977
0.00999415
0.0100578
0.0101276
0.0102011
0.0102769
0.0103537
0.0104306
0.0105071
0.0105826
0.0106568
0.0107295
0.0108004
0.0108695
0.0109366
0.0110017
0.0110649
0.011126
0.0111852
0.0112426
0.0112982
0.0113523
0.00973292
0.0097805
0.00983682
0.00989925
0.00996588
0.0100353
0.0101064
0.0101784
0.0102507
0.0103227
0.0103941
0.0104645
0.0105338
0.0106017
0.0106681
0.0107329
0.010796
0.0108574
0.0109172
0.0109752
0.0110316
0.0110865
0.00953238
0.00957227
0.00962028
0.00967431
0.00973278
0.0097945
0.00985852
0.00992408
0.00999059
0.0100575
0.0101245
0.0101912
0.0102574
0.0103227
0.010387
0.0104501
0.0105121
0.0105726
0.0106318
0.0106896
0.010746
0.0108009
0.00934161
0.00937319
0.00941222
0.00945705
0.00950642
0.00955933
0.00961499
0.00967273
0.00973199
0.00979231
0.00985328
0.00991457
0.00997587
0.0100369
0.0100975
0.0101575
0.0102167
0.010275
0.0103323
0.0103885
0.0104436
0.0104976
0.00918683
0.00921661
0.00925188
0.00929161
0.009335
0.00938137
0.00943018
0.00948092
0.00953319
0.00958661
0.00964086
0.00969565
0.00975072
0.00980584
0.00986083
0.0099155
0.00996974
0.0100234
0.0100764
0.0101287
0.0101802
0.00901535
0.00903652
0.00906259
0.0090928
0.00912652
0.00916324
0.0092025
0.00924392
0.00928713
0.00933182
0.0093777
0.0094245
0.00947198
0.00951994
0.00956817
0.00961652
0.00966484
0.00971299
0.00976086
0.00980837
0.00985546
0.00886026
0.00887398
0.00889186
0.00891332
0.00893793
0.0089653
0.00899511
0.00902705
0.00906084
0.00909623
0.00913297
0.00917084
0.00920964
0.00924916
0.00928924
0.00932972
0.00937047
0.00941135
0.00945226
0.0094931
0.00953382
0.00872897
0.0087402
0.00875437
0.00877116
0.00879028
0.00881152
0.00883465
0.00885947
0.0088858
0.00891345
0.00894225
0.00897203
0.00900264
0.00903391
0.00906574
0.00909798
0.00913052
0.00916325
0.00919609
0.00922895
0.00859811
0.00860511
0.00861422
0.00862522
0.00863795
0.00865228
0.00866808
0.00868523
0.0087036
0.00872308
0.00874355
0.00876489
0.00878698
0.00880971
0.00883298
0.00885669
0.00888073
0.00890502
0.00892947
0.00895401
0.00848187
0.00848834
0.00849599
0.0085047
0.0085144
0.00852502
0.00853651
0.0085488
0.00856184
0.00857556
0.0085899
0.00860478
0.00862013
0.00863589
0.00865198
0.00866833
0.00868488
0.00870156
0.00871832
0.00836226
0.008369
0.00837611
0.00838352
0.00839124
0.00839926
0.00840758
0.00841619
0.0084251
0.00843429
0.00844374
0.00845343
0.00846333
0.0084734
0.00848363
0.00849397
0.00850436
0.00851478
0.00852517
0.00824729
0.00825631
0.008265
0.00827335
0.00828139
0.00828914
0.00829664
0.00830393
0.00831105
0.00831801
0.00832485
0.00833158
0.00833818
0.00834475
0.00835125
0.00835765
0.00836394
0.00837009
0.00812603
0.00813829
0.00814965
0.00816012
0.00816972
0.00817853
0.00818661
0.00819402
0.0082009
0.0082074
0.00821353
0.00821927
0.00822465
0.00822966
0.00823432
0.00823866
0.00824269
0.00797439
0.00799232
0.00800877
0.00802376
0.00803735
0.00804963
0.00806068
0.00807057
0.00807956
0.0080878
0.00809528
0.00810202
0.00810804
0.00811338
0.00811807
0.00812215
0.00812566
0.00781708
0.0078398
0.00786067
0.00787974
0.00789704
0.00791268
0.00792672
0.00793954
0.00795126
0.00796186
0.00797135
0.00797976
0.00798714
0.00799353
0.00799902
0.00800365
0.00763242
0.00765965
0.00768475
0.00770771
0.00772859
0.00774772
0.00776541
0.00778158
0.00779619
0.00780927
0.00782085
0.007831
0.00783978
0.00784727
0.00785355
0.00737861
0.00741211
0.00744307
0.00747149
0.00749798
0.00752265
0.00754534
0.007566
0.00758461
0.00760119
0.00761578
0.00762847
0.00763933
0.00764845
0.00765592
0.00711269
0.00714861
0.00718272
0.00721466
0.00724421
0.00727127
0.00729575
0.00731765
0.00733701
0.00735388
0.00736831
0.0073804
0.00739025
0.00739796
0.00679921
0.00683763
0.00687334
0.00690609
0.0069358
0.00696239
0.00698585
0.00700619
0.00702347
0.00703774
0.00704909
0.00705781
0.0070647
0.00639452
0.00643487
0.00647189
0.00650541
0.00653528
0.00656146
0.00658393
0.00660264
0.00661766
0.0066293
0.00663863
0.00664624
0.0066519
0.00597713
0.00601243
0.00604368
0.0060707
0.00609341
0.00611178
0.00612582
0.00613703
0.00614616
0.00615277
0.00615657
0.00615744
0.00550032
0.00552628
0.00554744
0.00556375
0.00557648
0.005587
0.00559468
0.00559898
0.00559974
0.00559408
0.00558234
0.0049619
0.00497549
0.00498672
0.00499517
0.00500025
0.00500144
0.00499636
0.00498519
0.00496871
0.00494834
0.00437727
0.00438337
0.00438608
0.00438405
0.00437588
0.00436247
0.00434283
0.004316
0.00428086
0.00379398
0.0037943
0.00378711
0.00377164
0.00374774
0.00371477
0.00367197
0.00361882
0.00324932
0.0032422
0.00322521
0.00319897
0.00316299
0.00311708
0.00306057
0.00299331
0.00272441
0.00269743
0.00266083
0.00261424
0.00255712
0.00248865
0.00240861
0.00216659
0.00211287
0.00204885
0.00197372
0.00188736
0.0016685
0.00159934
0.00151885
0.0014263
0.00125092
0.00115616
0.00104894
0.0135993
0.0135995
0.0135996
0.0135997
0.0135998
0.0135999
0.0136
0.0136
0.0136
0.0136
0.0136
0.0136
0.0136
0.0135999
0.0135999
0.0135998
0.0135997
0.0135996
0.0135995
0.0135994
0.0135409
0.0135411
0.0135412
0.0135413
0.0135414
0.0135415
0.0135416
0.0135416
0.0135416
0.0135416
0.0135416
0.0135415
0.0135415
0.0135414
0.0135413
0.0135412
0.0135411
0.0135409
0.0135408
0.0135406
0.0134724
0.0134726
0.0134727
0.0134729
0.013473
0.0134731
0.0134731
0.0134732
0.0134732
0.0134731
0.0134731
0.013473
0.0134729
0.0134728
0.0134727
0.0134725
0.0134724
0.0134722
0.013472
0.0134718
0.0133963
0.0133966
0.0133967
0.0133969
0.013397
0.0133971
0.0133972
0.0133972
0.0133972
0.0133971
0.0133971
0.013397
0.0133968
0.0133967
0.0133965
0.0133963
0.0133961
0.0133959
0.0133956
0.0133953
0.0133124
0.0133127
0.0133129
0.013313
0.0133132
0.0133132
0.0133133
0.0133133
0.0133133
0.0133132
0.0133131
0.013313
0.0133128
0.0133127
0.0133125
0.0133122
0.0133119
0.0133116
0.0133113
0.013311
0.0132201
0.0132203
0.0132205
0.0132207
0.0132209
0.0132209
0.013221
0.013221
0.0132209
0.0132209
0.0132207
0.0132206
0.0132204
0.0132202
0.0132199
0.0132196
0.0132193
0.0132189
0.0132185
0.0132181
0.013118
0.0131183
0.0131186
0.0131187
0.0131189
0.013119
0.013119
0.013119
0.0131189
0.0131188
0.0131187
0.0131185
0.0131182
0.0131179
0.0131176
0.0131172
0.0131168
0.0131164
0.0131159
0.0131154
0.0130054
0.0130058
0.013006
0.0130062
0.0130064
0.0130064
0.0130065
0.0130064
0.0130063
0.0130062
0.013006
0.0130058
0.0130055
0.0130051
0.0130047
0.0130043
0.0130038
0.0130033
0.0130027
0.0130021
0.0128814
0.0128818
0.0128821
0.0128823
0.0128824
0.0128825
0.0128825
0.0128825
0.0128823
0.0128822
0.0128819
0.0128816
0.0128813
0.0128809
0.0128804
0.0128799
0.0128793
0.0128787
0.012878
0.0128773
0.0127455
0.0127458
0.0127462
0.0127464
0.0127465
0.0127466
0.0127466
0.0127465
0.0127464
0.0127461
0.0127458
0.0127455
0.012745
0.0127445
0.012744
0.0127434
0.0127427
0.0127419
0.0127411
0.0127403
0.0125968
0.0125972
0.0125975
0.0125978
0.0125979
0.012598
0.012598
0.0125978
0.0125977
0.0125974
0.012597
0.0125966
0.0125961
0.0125955
0.0125948
0.0125941
0.0125933
0.0125924
0.0125914
0.0125904
0.0124349
0.0124354
0.0124358
0.012436
0.0124362
0.0124362
0.0124361
0.012436
0.0124357
0.0124354
0.012435
0.0124344
0.0124338
0.0124331
0.0124323
0.0124315
0.0124305
0.0124295
0.0124284
0.0124272
0.0122592
0.0122597
0.0122601
0.0122604
0.0122605
0.0122605
0.0122604
0.0122602
0.0122599
0.0122595
0.012259
0.0122583
0.0122576
0.0122568
0.0122558
0.0122548
0.0122537
0.0122525
0.0122512
0.0122498
0.0120677
0.0120683
0.0120687
0.012069
0.0120691
0.0120691
0.012069
0.0120687
0.0120684
0.0120679
0.0120673
0.0120665
0.0120657
0.0120647
0.0120636
0.0120624
0.0120611
0.0120597
0.0120582
0.0120566
0.0118592
0.0118598
0.0118602
0.0118605
0.0118607
0.0118606
0.0118605
0.0118602
0.0118597
0.0118592
0.0118584
0.0118576
0.0118566
0.0118555
0.0118542
0.0118528
0.0118513
0.0118497
0.011848
0.0118461
0.0116324
0.011633
0.0116335
0.0116338
0.011634
0.0116339
0.0116337
0.0116334
0.0116328
0.0116321
0.0116313
0.0116303
0.0116292
0.0116279
0.0116265
0.0116249
0.0116232
0.0116214
0.0116194
0.0116173
0.0113864
0.0113871
0.0113876
0.0113879
0.0113881
0.011388
0.0113877
0.0113873
0.0113867
0.0113859
0.011385
0.0113838
0.0113825
0.0113811
0.0113795
0.0113777
0.0113758
0.0113737
0.0113715
0.0113691
0.0111205
0.0111213
0.0111218
0.0111222
0.0111222
0.0111221
0.0111219
0.0111214
0.0111207
0.0111198
0.0111187
0.0111174
0.011116
0.0111144
0.0111126
0.0111106
0.0111085
0.0111061
0.0111037
0.011101
0.0108346
0.0108354
0.010836
0.0108364
0.0108364
0.0108363
0.010836
0.0108354
0.0108346
0.0108337
0.0108325
0.0108311
0.0108295
0.0108277
0.0108257
0.0108235
0.0108211
0.0108186
0.0108159
0.010813
0.0105304
0.0105313
0.0105319
0.0105322
0.0105323
0.0105321
0.0105317
0.0105311
0.0105303
0.0105292
0.0105279
0.0105263
0.0105246
0.0105226
0.0105204
0.010518
0.0105155
0.0105127
0.0105097
0.0105065
0.0102113
0.0102122
0.0102128
0.0102132
0.0102132
0.010213
0.0102126
0.0102119
0.0102109
0.0102098
0.0102083
0.0102066
0.0102047
0.0102026
0.0102002
0.0101976
0.0101948
0.0101918
0.0101886
0.0101852
0.00988371
0.00988462
0.00988524
0.00988556
0.00988552
0.00988528
0.00988477
0.00988399
0.00988294
0.00988163
0.00988005
0.00987823
0.00987615
0.00987384
0.00987128
0.00986849
0.00986547
0.00986223
0.00985877
0.0098551
0.00955803
0.00955889
0.00955945
0.00955971
0.0095596
0.00955926
0.00955864
0.00955773
0.00955654
0.00955508
0.00955334
0.00955134
0.00954907
0.00954655
0.00954378
0.00954076
0.00953751
0.00953402
0.0095303
0.00952637
0.00924823
0.009249
0.00924946
0.00924947
0.00924927
0.0092488
0.00924802
0.00924694
0.00924557
0.00924392
0.00924198
0.00923976
0.00923727
0.00923452
0.0092315
0.00922823
0.00922471
0.00922094
0.00921695
0.00921272
0.00896814
0.00896877
0.00896908
0.00896898
0.00896864
0.00896798
0.00896701
0.00896573
0.00896415
0.00896226
0.00896009
0.00895763
0.00895488
0.00895186
0.00894858
0.00894502
0.00894121
0.00893715
0.00893285
0.0089283
0.00872775
0.00872823
0.00872827
0.00872806
0.00872753
0.00872667
0.00872549
0.00872398
0.00872216
0.00872003
0.0087176
0.00871488
0.00871186
0.00870856
0.00870498
0.00870112
0.00869701
0.00869263
0.008688
0.00868312
0.00853091
0.00853122
0.00853113
0.00853073
0.00852999
0.0085289
0.00852747
0.00852572
0.00852364
0.00852123
0.00851852
0.00851549
0.00851217
0.00850855
0.00850464
0.00850045
0.00849598
0.00849125
0.00848626
0.00848102
0.00837363
0.00837377
0.00837357
0.00837299
0.00837205
0.00837076
0.00836912
0.00836714
0.00836483
0.00836218
0.00835921
0.00835592
0.00835231
0.0083484
0.00834419
0.00833968
0.00833489
0.00832981
0.00832447
0.00831886
0.00824487
0.00824485
0.00824453
0.00824381
0.00824272
0.00824126
0.00823943
0.00823724
0.00823471
0.00823184
0.00822863
0.00822509
0.00822124
0.00821706
0.00821257
0.00820778
0.00820269
0.00819731
0.00819165
0.00818572
0.00812741
0.00812737
0.008127
0.00812624
0.00812507
0.00812353
0.0081216
0.0081193
0.00811663
0.00811361
0.00811024
0.00810653
0.0081025
0.00809814
0.00809346
0.00808848
0.00808321
0.00807764
0.00807178
0.00806565
0.00800589
0.0080059
0.00800561
0.00800492
0.00800383
0.00800234
0.00800047
0.00799822
0.00799561
0.00799263
0.00798929
0.00798561
0.00798159
0.00797724
0.00797256
0.00796758
0.00796229
0.00795671
0.00795085
0.00794471
0.00785658
0.00785679
0.00785659
0.00785606
0.00785514
0.00785383
0.00785213
0.00785007
0.00784763
0.00784484
0.0078417
0.00783822
0.0078344
0.00783026
0.0078258
0.00782103
0.00781597
0.00781061
0.00780498
0.00779907
0.00765939
0.00765978
0.00765965
0.00765926
0.00765854
0.00765745
0.00765598
0.00765415
0.00765197
0.00764944
0.00764657
0.00764337
0.00763985
0.00763602
0.00763188
0.00762745
0.00762273
0.00761774
0.00761248
0.00760696
0.0074013
0.00740177
0.00740168
0.00740135
0.00740078
0.00739995
0.00739877
0.00739725
0.00739539
0.00739322
0.00739073
0.00738793
0.00738483
0.00738145
0.00737779
0.00737386
0.00736967
0.00736522
0.00736054
0.00735563
0.00706802
0.00706861
0.00706859
0.00706836
0.00706791
0.00706725
0.00706638
0.00706532
0.00706396
0.00706231
0.00706037
0.00705817
0.0070557
0.00705297
0.00705
0.00704679
0.00704335
0.0070397
0.00703584
0.00703178
0.00665396
0.00665434
0.00665429
0.00665407
0.00665368
0.00665311
0.00665238
0.00665149
0.00665043
0.00664922
0.00664785
0.00664631
0.00664455
0.00664259
0.00664042
0.00663806
0.00663552
0.00663281
0.00662993
0.0066269
0.00615416
0.00615401
0.00615375
0.00615337
0.00615289
0.00615229
0.00615159
0.00615079
0.00614989
0.00614889
0.0061478
0.00614662
0.00614535
0.006144
0.00614258
0.00614109
0.00613954
0.00613793
0.00613626
0.00613455
0.00557076
0.00557035
0.00556992
0.00556947
0.005569
0.0055685
0.00556798
0.00556743
0.00556685
0.00556624
0.00556561
0.00556496
0.00556428
0.00556358
0.00556286
0.00556213
0.00556137
0.00556061
0.00555983
0.00555905
0.00493131
0.00493067
0.00493007
0.00492951
0.00492898
0.00492847
0.00492799
0.00492754
0.00492711
0.0049267
0.00492632
0.00492596
0.00492562
0.00492532
0.00492503
0.00492478
0.00492455
0.00492435
0.00492419
0.00492406
0.0042487
0.00424739
0.00424623
0.00424521
0.00424431
0.00424353
0.00424285
0.00424229
0.00424183
0.00424146
0.00424119
0.00424102
0.00424094
0.00424095
0.00424122
0.00424173
0.00424249
0.00424349
0.00424473
0.00424621
0.00357123
0.00356916
0.00356735
0.0035658
0.00356449
0.00356339
0.00356251
0.00356183
0.00356135
0.00356105
0.00356093
0.00356108
0.00356169
0.00356275
0.00356421
0.00356605
0.00356824
0.00357078
0.00357363
0.00357678
0.00293364
0.00293091
0.00292861
0.00292671
0.00292519
0.00292403
0.00292321
0.00292272
0.00292254
0.00292286
0.00292394
0.0029257
0.00292807
0.002931
0.00293441
0.00293828
0.00294242
0.00294676
0.00295128
0.00295597
0.00233663
0.00233319
0.00233041
0.00232825
0.0023267
0.00232571
0.00232526
0.00232544
0.00232692
0.00232954
0.00233314
0.00233745
0.00234216
0.00234723
0.00235265
0.00235839
0.00236443
0.00237073
0.0023773
0.0023841
0.00181099
0.00180728
0.00180444
0.00180244
0.00180123
0.00180076
0.00180137
0.00180366
0.00180734
0.00181186
0.00181693
0.00182249
0.00182849
0.0018349
0.00184167
0.00184876
0.00185615
0.0018638
0.00187169
0.0018798
0.0013442
0.00134018
0.00133733
0.00133556
0.00133481
0.00133529
0.00133796
0.00134224
0.00134729
0.00135303
0.00135937
0.00136622
0.00137353
0.00138123
0.00138927
0.00139761
0.00140621
0.00141503
0.00142406
0.00143326
0.000943964
0.000938408
0.000935251
0.000933765
0.000933752
0.0009369
0.00094168
0.000947485
0.000954125
0.00096144
0.000969287
0.000977542
0.000986104
0.000994922
0.00100396
0.00101318
0.00102255
0.00103206
0.00104167
0.00105137
0.000601325
0.00060269
0.000607158
0.000613149
0.00062045
0.00062884
0.000637982
0.000647615
0.000657545
0.00066762
0.00067727
0.000686403
0.000695624
0.000704905
0.00071422
0.000723547
0.000732869
0.000742182
0.000452723
0.00046334
0.000473764
0.000483857
0.000493426
0.00050213
0.000510467
0.000518133
0.0135992
0.013599
0.0135987
0.0135985
0.0135983
0.0135402
0.0135398
0.0135394
0.0135391
0.0135388
0.0134713
0.0134707
0.0134702
0.0134697
0.0134692
0.0133947
0.013394
0.0133933
0.0133926
0.013392
0.0133102
0.0133093
0.0133084
0.0133076
0.0133067
0.0132171
0.013216
0.0132149
0.0132138
0.0132127
0.0131142
0.0131128
0.0131114
0.0131101
0.0131088
0.0130007
0.0129989
0.0129972
0.0129956
0.012994
0.0128755
0.0128734
0.0128714
0.0128694
0.0128674
0.0127382
0.0127357
0.0127332
0.0127307
0.0127284
0.012588
0.0125849
0.0125819
0.0125789
0.012576
0.0124243
0.0124206
0.0124169
0.0124134
0.0124099
0.0122464
0.0122419
0.0122375
0.0122332
0.012229
0.0120526
0.0120473
0.0120421
0.0120369
0.012032
0.0118415
0.0118353
0.0118291
0.0118231
0.0118172
0.011612
0.0116047
0.0115976
0.0115906
0.0115838
0.0113631
0.0113547
0.0113465
0.0113385
0.0113306
0.0110943
0.0110847
0.0110754
0.0110663
0.0110574
0.0108054
0.0107947
0.0107842
0.0107739
0.010764
0.0104982
0.0104863
0.0104746
0.0104633
0.0104523
0.0101761
0.010163
0.0101502
0.0101377
0.0101257
0.00984532
0.00983093
0.00981698
0.00980348
0.00979044
0.00951583
0.00950016
0.00948502
0.0094704
0.00945629
0.00920137
0.00918433
0.0091679
0.00915206
0.00913683
0.0089161
0.00889759
0.00887977
0.00886264
0.0088462
0.00867001
0.00864993
0.00863065
0.00861215
0.00859443
0.00846688
0.00844511
0.00842424
0.00840426
0.00838515
0.00830368
0.0082802
0.00825774
0.0082363
0.00821585
0.00816959
0.00814459
0.00812077
0.0080981
0.00807655
0.00804889
0.00802296
0.00799842
0.00797526
0.00795343
0.00792786
0.007902
0.00787772
0.00785492
0.00783351
0.00778272
0.00775767
0.00773418
0.00771218
0.00769161
0.0075916
0.00756827
0.00754659
0.00752649
0.0075079
0.00734188
0.00732133
0.00730254
0.00728544
0.00726992
0.00702036
0.00700376
0.006989
0.00697597
0.00696454
0.00661835
0.00660673
0.00659705
0.00658917
0.0065829
0.00612988
0.00612368
0.00611895
0.00611561
0.00611358
0.00555697
0.00555532
0.00555535
0.00555939
0.00556674
0.00492387
0.00492858
0.00493792
0.00495093
0.00496591
0.0042506
0.00426336
0.00428005
0.00429863
0.00431891
0.00358525
0.00360385
0.00362479
0.00364783
0.00367279
0.00296847
0.00299271
0.00302011
0.00305046
0.00308308
0.00240181
0.00243508
0.00247109
0.00250908
0.00254847
0.00190027
0.0019384
0.00197924
0.00202182
0.00206554
0.00145562
0.00149728
0.00154161
0.00158747
0.00163422
0.00107393
0.00111644
0.00116196
0.00120909
0.00125712
0.00076289
0.00080211
0.000843913
0.000887711
0.000933264
0.000534491
0.000566061
0.000595691
0.00062635
0.000661139
0.000352425
0.000369291
0.000383948
0.000402391
0.000426929
0.000181532
0.000185258
0.000202292
0.0135982
0.013598
0.0135979
0.0135978
0.0135977
0.0135976
0.0135975
0.0135975
0.0135976
0.0135977
0.013598
0.0135984
0.0135989
0.0135997
0.0136007
0.0136019
0.0136034
0.0136051
0.0136072
0.0136097
0.0136125
0.0136158
0.0136195
0.0136237
0.0136285
0.0136338
0.0136398
0.0136466
0.0136541
0.0136625
0.0136719
0.0136823
0.0136938
0.0137065
0.0137204
0.0137356
0.0137522
0.0137701
0.0137894
0.0138099
0.0138317
0.0138547
0.0138794
0.0139058
0.0139325
0.0139571
0.0139788
0.0140156
0.0140385
0.014019
0.0135382
0.0135379
0.0135377
0.0135374
0.0135371
0.0135369
0.0135367
0.0135365
0.0135364
0.0135363
0.0135364
0.0135367
0.0135371
0.0135378
0.0135388
0.0135401
0.0135418
0.0135439
0.0135464
0.0135495
0.0135531
0.0135573
0.0135622
0.0135677
0.0135739
0.0135808
0.0135884
0.013597
0.0136064
0.0136169
0.0136285
0.0136412
0.0136551
0.0136702
0.0136867
0.0137046
0.013724
0.0137447
0.0137669
0.0137903
0.0138148
0.01384
0.0138662
0.0138938
0.0139231
0.0139503
0.0139736
0.0140085
0.0140333
0.01402
0.0134683
0.0134679
0.0134674
0.013467
0.0134665
0.013466
0.0134655
0.0134651
0.0134648
0.0134646
0.0134645
0.0134646
0.0134651
0.0134658
0.013467
0.0134686
0.0134706
0.0134732
0.0134765
0.0134804
0.0134851
0.0134906
0.0134968
0.0135039
0.0135119
0.0135209
0.0135308
0.0135418
0.0135539
0.0135672
0.0135817
0.0135976
0.0136147
0.0136331
0.0136528
0.0136738
0.0136962
0.0137201
0.0137453
0.0137718
0.0137993
0.0138274
0.0138558
0.0138846
0.0139146
0.0139444
0.0139704
0.0140027
0.0140272
0.0140216
0.0133907
0.01339
0.0133893
0.0133886
0.0133878
0.0133871
0.0133863
0.0133857
0.0133851
0.0133846
0.0133844
0.0133844
0.0133848
0.0133856
0.013387
0.0133889
0.0133914
0.0133946
0.0133986
0.0134036
0.0134094
0.0134161
0.0134239
0.0134326
0.0134425
0.0134536
0.0134659
0.0134796
0.0134948
0.0135114
0.0135295
0.0135491
0.0135701
0.0135926
0.0136163
0.0136413
0.0136676
0.013695
0.0137235
0.0137529
0.0137832
0.0138143
0.0138456
0.0138767
0.0139074
0.0139391
0.0139684
0.0139987
0.0140215
0.0140218
0.0133051
0.0133042
0.0133033
0.0133022
0.0133012
0.0133001
0.013299
0.0132981
0.0132973
0.0132967
0.0132963
0.0132963
0.0132968
0.0132979
0.0132996
0.0133021
0.0133053
0.0133095
0.0133147
0.013321
0.0133283
0.0133369
0.0133466
0.0133577
0.01337
0.0133838
0.0133991
0.013416
0.0134346
0.0134549
0.0134769
0.0135007
0.0135261
0.0135531
0.0135814
0.0136109
0.0136415
0.0136729
0.0137049
0.0137376
0.0137707
0.0138043
0.0138383
0.0138717
0.0139036
0.0139345
0.0139663
0.0139962
0.0140174
0.0140212
0.0132108
0.0132096
0.0132082
0.0132068
0.0132053
0.0132038
0.0132024
0.0132011
0.0131999
0.0131991
0.0131987
0.0131986
0.0131993
0.0132008
0.013203
0.0132062
0.0132105
0.0132158
0.0132225
0.0132305
0.0132398
0.0132506
0.0132629
0.0132766
0.0132921
0.0133092
0.0133281
0.013349
0.0133718
0.0133965
0.0134232
0.0134518
0.0134821
0.0135141
0.0135473
0.0135816
0.0136167
0.0136523
0.013688
0.0137239
0.0137599
0.013796
0.0138323
0.013868
0.0139015
0.0139317
0.0139646
0.0139956
0.0140146
0.0140202
0.0131065
0.0131048
0.0131029
0.0131009
0.0130989
0.0130969
0.013095
0.0130933
0.0130918
0.0130908
0.0130902
0.0130902
0.0130912
0.0130931
0.0130961
0.0131002
0.0131057
0.0131127
0.0131212
0.0131314
0.0131432
0.0131567
0.0131719
0.013189
0.0132081
0.0132292
0.0132525
0.0132779
0.0133056
0.0133355
0.0133676
0.0134017
0.0134376
0.0134751
0.0135138
0.0135533
0.0135932
0.0136332
0.0136728
0.013712
0.0137507
0.0137891
0.0138274
0.0138653
0.0139005
0.0139308
0.0139633
0.0139974
0.0140129
0.0140187
0.0129912
0.0129889
0.0129864
0.0129838
0.0129812
0.0129786
0.0129761
0.0129739
0.012972
0.0129707
0.0129701
0.01297
0.0129714
0.012974
0.012978
0.0129834
0.0129905
0.0129994
0.0130103
0.013023
0.0130378
0.0130546
0.0130735
0.0130946
0.013118
0.0131439
0.0131722
0.013203
0.0132364
0.0132723
0.0133104
0.0133507
0.0133928
0.0134364
0.0134809
0.013526
0.0135711
0.0136157
0.0136594
0.0137018
0.0137431
0.0137835
0.0138236
0.0138633
0.0139003
0.0139308
0.0139623
0.0139994
0.0140121
0.0140171
0.0128641
0.012861
0.0128577
0.0128543
0.0128509
0.0128476
0.0128444
0.0128416
0.0128393
0.0128377
0.012837
0.0128372
0.0128391
0.0128426
0.0128477
0.0128547
0.0128639
0.0128753
0.012889
0.012905
0.0129233
0.0129441
0.0129673
0.0129932
0.0130217
0.0130531
0.0130873
0.0131244
0.0131644
0.0132069
0.013252
0.0132992
0.0133481
0.0133983
0.0134492
0.0135002
0.0135506
0.0135999
0.0136476
0.0136933
0.0137371
0.0137793
0.0138208
0.013862
0.0139007
0.0139313
0.0139617
0.0140012
0.0140123
0.0140154
0.0127244
0.0127203
0.0127161
0.0127117
0.0127073
0.0127031
0.0126991
0.0126956
0.0126928
0.0126909
0.0126901
0.0126908
0.0126934
0.012698
0.0127046
0.0127137
0.0127255
0.0127398
0.0127569
0.0127767
0.0127993
0.0128247
0.0128531
0.0128845
0.0129191
0.012957
0.0129981
0.0130424
0.0130897
0.0131399
0.0131927
0.0132475
0.0133038
0.0133611
0.0134187
0.0134759
0.0135318
0.0135859
0.0136376
0.0136864
0.0137325
0.0137763
0.0138189
0.0138612
0.0139014
0.0139321
0.0139615
0.0140016
0.0140143
0.0140136
0.0125712
0.012566
0.0125606
0.012555
0.0125494
0.012544
0.012539
0.0125347
0.0125313
0.0125292
0.0125284
0.0125297
0.0125332
0.0125392
0.0125478
0.0125595
0.0125743
0.0125923
0.0126134
0.0126378
0.0126654
0.0126963
0.0127307
0.0127686
0.0128103
0.0128556
0.0129045
0.0129571
0.0130129
0.0130716
0.0131329
0.013196
0.0132604
0.0133253
0.0133899
0.0134533
0.0135148
0.0135737
0.0136292
0.013681
0.0137292
0.0137743
0.0138177
0.0138608
0.0139024
0.0139333
0.0139616
0.0140016
0.014015
0.0140119
0.012404
0.0123973
0.0123904
0.0123833
0.0123763
0.0123696
0.0123634
0.0123581
0.0123541
0.0123517
0.0123509
0.012353
0.0123577
0.0123655
0.0123767
0.0123915
0.01241
0.0124323
0.0124582
0.0124878
0.0125213
0.0125586
0.0126
0.0126455
0.0126952
0.0127491
0.012807
0.0128689
0.0129341
0.0130024
0.013073
0.0131452
0.0132182
0.0132911
0.0133629
0.0134328
0.0134998
0.0135631
0.0136223
0.0136769
0.013727
0.0137732
0.0138171
0.0138607
0.0139036
0.0139346
0.013962
0.0140013
0.0140151
0.0140104
0.0122219
0.0122135
0.0122047
0.0121958
0.0121871
0.0121788
0.0121713
0.0121649
0.0121602
0.0121576
0.012157
0.01216
0.0121664
0.0121766
0.0121909
0.0122095
0.0122324
0.0122595
0.0122909
0.0123267
0.0123669
0.0124116
0.012461
0.0125151
0.012574
0.0126377
0.0127058
0.0127781
0.012854
0.0129327
0.0130136
0.0130955
0.0131776
0.0132588
0.013338
0.0134142
0.0134866
0.0135544
0.013617
0.013674
0.0137257
0.0137728
0.013817
0.0138609
0.0139049
0.013936
0.0139625
0.014001
0.014015
0.014009
0.0120234
0.0120128
0.012002
0.0119911
0.0119804
0.0119703
0.0119613
0.0119539
0.0119486
0.011946
0.0119457
0.0119501
0.0119587
0.0119719
0.01199
0.0120131
0.012041
0.0120739
0.0121117
0.0121545
0.0122024
0.0122556
0.0123141
0.012378
0.0124473
0.0125219
0.0126014
0.0126852
0.0127728
0.0128631
0.0129549
0.0130473
0.0131389
0.0132287
0.0133153
0.0133978
0.0134754
0.0135472
0.0136129
0.0136722
0.0137253
0.013773
0.0138174
0.0138613
0.0139062
0.0139374
0.0139631
0.0140007
0.0140147
0.0140078
0.011807
0.0117941
0.0117809
0.0117677
0.0117549
0.0117429
0.0117325
0.011724
0.0117183
0.0117158
0.0117164
0.0117227
0.0117342
0.0117512
0.0117738
0.0118021
0.0118359
0.0118754
0.0119205
0.0119713
0.012028
0.0120906
0.0121594
0.0122344
0.0123154
0.0124022
0.0124943
0.0125909
0.0126912
0.0127939
0.0128976
0.0130009
0.0131024
0.0132009
0.0132949
0.0133836
0.013466
0.0135416
0.01361
0.0136712
0.0137254
0.0137736
0.013818
0.0138618
0.0139074
0.0139388
0.0139637
0.0140004
0.0140145
0.0140067
0.0115717
0.0115562
0.0115404
0.0115247
0.0115097
0.0114959
0.011484
0.0114748
0.011469
0.0114668
0.0114695
0.0114783
0.0114933
0.0115146
0.0115424
0.0115766
0.0116172
0.0116641
0.0117174
0.0117772
0.0118437
0.0119171
0.0119974
0.0120847
0.0121787
0.0122791
0.012385
0.0124957
0.0126097
0.0127257
0.012842
0.0129567
0.0130684
0.0131756
0.0132769
0.0133714
0.0134583
0.0135373
0.0136081
0.0136709
0.013726
0.0137745
0.0138188
0.0138623
0.0139087
0.0139401
0.0139643
0.0140001
0.0140142
0.0140059
0.0113166
0.0112982
0.0112796
0.0112613
0.011244
0.0112284
0.0112152
0.0112055
0.0112
0.0111984
0.011204
0.0112162
0.0112355
0.0112621
0.0112959
0.0113369
0.011385
0.0114402
0.0115027
0.0115725
0.01165
0.0117353
0.0118285
0.0119294
0.0120378
0.0121531
0.0122743
0.0124002
0.0125291
0.0126592
0.0127886
0.0129151
0.013037
0.0131528
0.0132612
0.0133611
0.0134522