/*--------------------------------*- C++ -*----------------------------------*\
  =========                 |
  \\      /  F ield         | OpenFOAM: The Open Source CFD Toolbox
   \\    /   O peration     | Website:  https://openfoam.org
    \\  /    A nd           | Version:  9
     \\/     M anipulation  |
\*---------------------------------------------------------------------------*/
FoamFile
{
    format      ascii;
    class       volScalarField;
    location    "0.005";
    object      nut;
}
// * * * * * * * * * * * * * * * * * * * * * * * * * * * * * * * * * * * * * //

dimensions      [0 2 -1 0 0 0 0];

internalField   nonuniform List<scalar> 
5071
(
0.0140305
0.0140309
0.0140314
0.0140316
0.0140318
0.014032
0.0140322
0.0140323
0.0140325
0.0140326
0.0140327
0.0140328
0.0140328
0.0140329
0.0140329
0.014033
0.014033
0.014033
0.014033
0.014033
0.0140329
0.0140329
0.0140328
0.0140327
0.0140325
0.0140321
0.0140319
0.0140448
0.0140445
0.0140441
0.0140437
0.0140433
0.0140428
0.0140422
0.0140417
0.0140411
0.0140405
0.0140398
0.0140392
0.0140385
0.0140378
0.0140371
0.0140364
0.0140358
0.0140353
0.014035
0.0140348
0.014035
0.0140349
0.0140345
0.014034
0.0140333
0.0140324
0.0140316
0.0140252
0.014025
0.0140248
0.0140246
0.0140244
0.0140242
0.014024
0.0140237
0.0140235
0.0140233
0.014023
0.0140228
0.0140227
0.0140229
0.0140229
0.0140228
0.0140226
0.0140224
0.0140222
0.0140219
0.0140215
0.0140212
0.0140207
0.0140203
0.0140199
0.0140197
0.0140196
0.0140088
0.0140091
0.0140094
0.0140097
0.01401
0.0140104
0.0140105
0.0140104
0.0140103
0.0140101
0.0140098
0.0140095
0.0140092
0.0140088
0.0140083
0.0140078
0.0140073
0.0140068
0.0140062
0.0140056
0.014005
0.0140044
0.0140038
0.0140034
0.0140031
0.014003
0.0140028
0.0139696
0.0139698
0.01397
0.0139702
0.0139704
0.0139706
0.0139708
0.0139709
0.0139711
0.0139713
0.0139715
0.0139717
0.0139719
0.0139722
0.0139724
0.0139726
0.0139728
0.013973
0.0139733
0.0139735
0.0139738
0.013974
0.0139743
0.0139745
0.0139748
0.0139751
0.0139754
0.0139606
0.0139611
0.0139615
0.013962
0.0139625
0.013963
0.0139634
0.0139639
0.0139644
0.0139649
0.0139654
0.0139659
0.0139664
0.0139669
0.0139673
0.0139678
0.0139679
0.013968
0.0139679
0.0139678
0.0139677
0.0139675
0.0139673
0.0139671
0.0139668
0.0139666
0.0139665
0.0139455
0.013946
0.0139464
0.0139469
0.0139473
0.0139478
0.0139482
0.0139487
0.0139491
0.0139496
0.01395
0.0139505
0.0139509
0.0139514
0.0139518
0.0139523
0.0139527
0.0139532
0.0139536
0.0139541
0.0139546
0.013955
0.0139555
0.013956
0.0139565
0.0139569
0.0139574
0.0139313
0.0139318
0.0139324
0.0139329
0.0139334
0.0139339
0.0139344
0.0139349
0.0139355
0.013936
0.0139365
0.013937
0.0139376
0.0139381
0.0139386
0.0139392
0.0139397
0.0139403
0.0139408
0.0139414
0.0139419
0.0139424
0.013943
0.0139436
0.0139441
0.0139447
0.0139452
0.0139156
0.0139162
0.0139168
0.0139174
0.013918
0.0139186
0.0139192
0.0139198
0.0139205
0.0139211
0.0139217
0.0139223
0.0139229
0.0139236
0.0139242
0.0139248
0.0139254
0.0139261
0.0139267
0.0139273
0.013928
0.0139286
0.0139292
0.0139299
0.0139305
0.0139312
0.0139318
0.013899
0.0138997
0.0139004
0.0139011
0.0139018
0.0139025
0.0139032
0.0139039
0.0139047
0.0139054
0.0139061
0.0139068
0.0139075
0.0139083
0.013909
0.0139097
0.0139105
0.0139112
0.0139119
0.0139127
0.0139134
0.0139142
0.0139149
0.0139157
0.0139164
0.0139172
0.013918
0.0138818
0.0138826
0.0138835
0.0138843
0.0138851
0.0138859
0.0138868
0.0138876
0.0138884
0.0138893
0.0138901
0.013891
0.0138918
0.0138927
0.0138935
0.0138944
0.0138952
0.0138961
0.013897
0.0138978
0.0138987
0.0138996
0.0139005
0.0139013
0.0139022
0.0139031
0.013904
0.0138641
0.0138651
0.013866
0.013867
0.0138679
0.0138689
0.0138699
0.0138708
0.0138718
0.0138728
0.0138738
0.0138747
0.0138757
0.0138767
0.0138777
0.0138787
0.0138797
0.0138807
0.0138817
0.0138827
0.0138837
0.0138848
0.0138858
0.0138868
0.0138878
0.0138889
0.0138899
0.0138458
0.0138469
0.013848
0.0138491
0.0138502
0.0138513
0.0138524
0.0138535
0.0138547
0.0138558
0.0138569
0.0138581
0.0138592
0.0138604
0.0138615
0.0138627
0.0138638
0.013865
0.0138661
0.0138673
0.0138685
0.0138697
0.0138708
0.013872
0.0138732
0.0138744
0.0138756
0.0138267
0.0138279
0.0138292
0.0138304
0.0138317
0.013833
0.0138343
0.0138355
0.0138368
0.0138381
0.0138394
0.0138408
0.0138421
0.0138434
0.0138447
0.013846
0.0138474
0.0138487
0.0138501
0.0138514
0.0138528
0.0138541
0.0138555
0.0138568
0.0138582
0.0138596
0.013861
0.0138065
0.0138079
0.0138093
0.0138108
0.0138122
0.0138137
0.0138152
0.0138166
0.0138181
0.0138196
0.0138211
0.0138226
0.0138241
0.0138256
0.0138271
0.0138287
0.0138302
0.0138317
0.0138333
0.0138348
0.0138364
0.0138379
0.0138395
0.0138411
0.0138426
0.0138442
0.0138458
0.0137831
0.0137848
0.0137864
0.013788
0.0137897
0.0137913
0.013793
0.0137947
0.0137964
0.0137981
0.0137998
0.0138015
0.0138032
0.0138049
0.0138067
0.0138084
0.0138101
0.0138119
0.0138137
0.0138154
0.0138172
0.013819
0.0138208
0.0138226
0.0138244
0.0138262
0.013828
0.0138298
0.0137593
0.0137611
0.013763
0.0137649
0.0137668
0.0137687
0.0137706
0.0137725
0.0137744
0.0137764
0.0137783
0.0137803
0.0137822
0.0137842
0.0137862
0.0137882
0.0137902
0.0137922
0.0137942
0.0137963
0.0137983
0.0138003
0.0138024
0.0138045
0.0138065
0.0138086
0.0138107
0.0138128
0.0137332
0.0137353
0.0137374
0.0137396
0.0137417
0.0137439
0.0137461
0.0137483
0.0137505
0.0137527
0.013755
0.0137572
0.0137595
0.0137617
0.013764
0.0137663
0.0137686
0.0137709
0.0137732
0.0137756
0.0137779
0.0137803
0.0137827
0.013785
0.0137874
0.0137898
0.0137922
0.0137946
0.0137047
0.0137071
0.0137095
0.013712
0.0137145
0.0137169
0.0137194
0.0137219
0.0137245
0.013727
0.0137296
0.0137322
0.0137348
0.0137374
0.01374
0.0137426
0.0137453
0.0137479
0.0137506
0.0137533
0.013756
0.0137587
0.0137614
0.0137641
0.0137669
0.0137697
0.0137724
0.0137752
0.0136734
0.0136762
0.0136789
0.0136817
0.0136845
0.0136874
0.0136902
0.0136931
0.013696
0.0136989
0.0137019
0.0137048
0.0137078
0.0137108
0.0137138
0.0137168
0.0137198
0.0137229
0.013726
0.0137291
0.0137322
0.0137353
0.0137384
0.0137416
0.0137448
0.013748
0.0137512
0.0137544
0.0136387
0.0136418
0.013645
0.0136482
0.0136514
0.0136546
0.0136579
0.0136612
0.0136645
0.0136679
0.0136712
0.0136746
0.013678
0.0136815
0.0136849
0.0136884
0.0136919
0.0136954
0.013699
0.0137025
0.0137061
0.0137097
0.0137134
0.0137171
0.0137207
0.0137244
0.0137282
0.0137319
0.0136
0.0136035
0.0136072
0.0136108
0.0136145
0.0136182
0.013622
0.0136257
0.0136295
0.0136334
0.0136373
0.0136412
0.0136451
0.013649
0.013653
0.013657
0.0136611
0.0136651
0.0136692
0.0136734
0.0136776
0.0136818
0.013686
0.0136902
0.0136945
0.0136988
0.0137031
0.0137074
0.0135567
0.0135608
0.0135649
0.0135691
0.0135733
0.0135776
0.0135819
0.0135862
0.0135906
0.013595
0.0135995
0.013604
0.0136085
0.0136131
0.0136177
0.0136223
0.013627
0.0136317
0.0136365
0.0136413
0.0136462
0.013651
0.0136559
0.0136609
0.0136658
0.0136708
0.0136758
0.0136808
0.0135084
0.0135131
0.0135178
0.0135226
0.0135275
0.0135324
0.0135373
0.0135423
0.0135473
0.0135524
0.0135576
0.0135627
0.013568
0.0135732
0.0135786
0.013584
0.0135894
0.0135949
0.0136005
0.0136061
0.0136117
0.0136173
0.013623
0.0136287
0.0136345
0.0136402
0.013646
0.0136519
0.0134545
0.0134598
0.0134653
0.0134708
0.0134763
0.013482
0.0134877
0.0134934
0.0134992
0.0135051
0.013511
0.013517
0.0135231
0.0135292
0.0135354
0.0135417
0.013548
0.0135544
0.0135608
0.0135673
0.0135738
0.0135803
0.0135869
0.0135936
0.0136002
0.013607
0.0136137
0.0136204
0.0133941
0.0134003
0.0134065
0.0134129
0.0134192
0.0134257
0.0134323
0.0134389
0.0134456
0.0134524
0.0134592
0.0134662
0.0134732
0.0134803
0.0134875
0.0134948
0.0135021
0.0135095
0.013517
0.0135245
0.0135321
0.0135397
0.0135474
0.0135551
0.0135628
0.0135706
0.0135785
0.0135863
0.0133264
0.0133335
0.0133406
0.0133479
0.0133552
0.0133627
0.0133702
0.0133779
0.0133856
0.0133934
0.0134013
0.0134094
0.0134176
0.0134258
0.0134342
0.0134426
0.0134511
0.0134597
0.0134684
0.0134772
0.013486
0.0134948
0.0135038
0.0135127
0.0135218
0.0135309
0.01354
0.0135492
0.0132503
0.0132584
0.0132666
0.0132749
0.0132834
0.0132919
0.0133006
0.0133094
0.0133183
0.0133274
0.0133366
0.013346
0.0133555
0.013365
0.0133747
0.0133845
0.0133944
0.0134044
0.0134145
0.0134246
0.0134349
0.0134452
0.0134556
0.0134661
0.0134766
0.0134872
0.0134979
0.0135086
0.0131645
0.0131737
0.0131832
0.0131927
0.0132025
0.0132123
0.0132224
0.0132325
0.0132428
0.0132534
0.0132641
0.0132749
0.0132859
0.013297
0.0133082
0.0133196
0.0133311
0.0133428
0.0133545
0.0133664
0.0133783
0.0133904
0.0134025
0.0134147
0.013427
0.0134394
0.0134518
0.0134643
0.0130674
0.013078
0.0130889
0.0130999
0.0131111
0.0131225
0.0131341
0.0131458
0.0131578
0.01317
0.0131824
0.0131949
0.0132077
0.0132206
0.0132337
0.0132469
0.0132603
0.0132739
0.0132876
0.0133014
0.0133154
0.0133294
0.0133436
0.0133579
0.0133723
0.0133868
0.0134013
0.0134159
0.0129574
0.0129696
0.0129821
0.0129948
0.0130077
0.0130208
0.0130341
0.0130478
0.0130617
0.0130758
0.0130901
0.0131047
0.0131195
0.0131345
0.0131498
0.0131652
0.0131808
0.0131966
0.0132126
0.0132288
0.0132451
0.0132616
0.0132782
0.0132949
0.0133117
0.0133287
0.0133457
0.0133628
0.0128325
0.0128466
0.0128609
0.0128755
0.0128903
0.0129055
0.0129209
0.0129367
0.0129528
0.0129691
0.0129858
0.0130027
0.0130199
0.0130373
0.0130551
0.013073
0.0130913
0.0131097
0.0131284
0.0131473
0.0131664
0.0131857
0.0132051
0.0132248
0.0132445
0.0132644
0.0132844
0.0133045
0.0126906
0.0127067
0.0127231
0.0127399
0.0127571
0.0127745
0.0127923
0.0128106
0.0128292
0.0128481
0.0128674
0.0128871
0.012907
0.0129273
0.012948
0.0129689
0.0129902
0.0130117
0.0130336
0.0130557
0.0130781
0.0131007
0.0131236
0.0131466
0.0131698
0.0131932
0.0132167
0.0132403
0.012529
0.0125475
0.0125664
0.0125857
0.0126054
0.0126255
0.0126461
0.0126672
0.0126887
0.0127106
0.012733
0.0127558
0.012779
0.0128026
0.0128266
0.012851
0.0128758
0.012901
0.0129266
0.0129525
0.0129788
0.0130053
0.0130322
0.0130593
0.0130866
0.0131141
0.0131418
0.0131696
0.0123452
0.0123663
0.012388
0.0124102
0.0124328
0.012456
0.0124797
0.012504
0.0125288
0.0125541
0.01258
0.0126064
0.0126333
0.0126608
0.0126887
0.0127172
0.0127461
0.0127756
0.0128055
0.0128358
0.0128667
0.0128979
0.0129295
0.0129614
0.0129936
0.0130261
0.0130587
0.0130915
0.0121359
0.0121601
0.0121848
0.0122102
0.0122362
0.0122628
0.01229
0.012318
0.0123466
0.0123758
0.0124057
0.0124362
0.0124674
0.0124992
0.0125317
0.0125648
0.0125986
0.012633
0.012668
0.0127036
0.0127398
0.0127765
0.0128137
0.0128514
0.0128895
0.0129278
0.0129664
0.0130052
0.0118979
0.0119253
0.0119536
0.0119825
0.0120122
0.0120426
0.0120738
0.0121059
0.0121387
0.0121723
0.0122067
0.0122419
0.012278
0.0123148
0.0123525
0.012391
0.0124304
0.0124705
0.0125115
0.0125532
0.0125957
0.0126389
0.0126828
0.0127273
0.0127723
0.0128178
0.0128635
0.0129095
0.0116277
0.0116588
0.0116907
0.0117236
0.0117573
0.0117919
0.0118275
0.0118641
0.0119016
0.0119401
0.0119796
0.0120201
0.0120616
0.0121042
0.0121478
0.0121924
0.0122381
0.0122849
0.0123328
0.0123816
0.0124315
0.0124824
0.0125342
0.0125868
0.0126401
0.012694
0.0127484
0.012803
0.0113221
0.011357
0.0113929
0.01143
0.011468
0.0115072
0.0115475
0.011589
0.0116316
0.0116755
0.0117206
0.0117669
0.0118145
0.0118633
0.0119136
0.0119651
0.0120181
0.0120725
0.0121282
0.0121854
0.0122439
0.0123038
0.0123649
0.0124271
0.0124904
0.0125545
0.0126192
0.0126843
0.0109782
0.011017
0.0110571
0.0110985
0.0111411
0.011185
0.0112303
0.0112769
0.011325
0.0113746
0.0114256
0.0114782
0.0115324
0.0115882
0.0116458
0.011705
0.0117661
0.011829
0.0118937
0.0119603
0.0120288
0.0120992
0.0121712
0.0122449
0.0123201
0.0123964
0.0124736
0.0125513
0.010594
0.0106367
0.0106809
0.0107266
0.0107738
0.0108225
0.0108728
0.0109248
0.0109785
0.0110339
0.0110912
0.0111504
0.0112115
0.0112747
0.0113401
0.0114077
0.0114776
0.0115499
0.0116247
0.011702
0.0117818
0.0118642
0.0119491
0.0120363
0.0121255
0.0122165
0.0123088
0.0124019
0.0101685
0.0102148
0.0102629
0.0103127
0.0103643
0.0104177
0.0104729
0.01053
0.0105892
0.0106505
0.0107141
0.0107799
0.0108482
0.010919
0.0109925
0.0110688
0.0111481
0.0112305
0.0113162
0.0114053
0.0114979
0.011594
0.0116936
0.0117966
0.0119025
0.0120111
0.0121217
0.0122335
0.00970228
0.00975169
0.0098031
0.00985655
0.00991209
0.00996976
0.0100294
0.0100914
0.0101557
0.0102226
0.010292
0.0103643
0.0104395
0.0105178
0.0105994
0.0106845
0.0107735
0.0108664
0.0109636
0.0110654
0.0111719
0.0112832
0.0113994
0.0115205
0.011646
0.0117755
0.0119081
0.0120427
0.00919778
0.00924944
0.00930328
0.00935955
0.00941825
0.00947942
0.00954283
0.00960885
0.00967765
0.00974935
0.00982413
0.00990217
0.0099837
0.010069
0.0101582
0.0102519
0.0103502
0.0104536
0.0105624
0.0106772
0.0107983
0.0109261
0.0110607
0.0112022
0.0113503
0.0115044
0.0116634
0.0118258
0.00866081
0.00871306
0.00876799
0.00882567
0.00888616
0.00894954
0.00901547
0.00908437
0.00915644
0.00923186
0.00931084
0.0093936
0.00948044
0.00957167
0.00966766
0.00976886
0.00987577
0.00998893
0.010109
0.0102366
0.0103725
0.0105173
0.0106715
0.0108355
0.0110091
0.0111918
0.0113822
0.0115781
0.00810548
0.00815513
0.00820805
0.00826428
0.00832388
0.00838694
0.00845337
0.00852304
0.00859638
0.00867361
0.00875496
0.0088407
0.00893116
0.00902672
0.00912786
0.00923512
0.00934917
0.00947077
0.0096008
0.00974026
0.00989024
0.0100518
0.0102261
0.0104139
0.0106156
0.0108308
0.0110579
0.0112943
0.00756466
0.00760486
0.00764942
0.00769823
0.00775131
0.00780885
0.00787103
0.00793724
0.00800799
0.00808345
0.00816383
0.00824944
0.00834064
0.00843783
0.00854152
0.00865238
0.00877122
0.00889899
0.00903686
0.00918622
0.00934863
0.00952582
0.0097196
0.00993163
0.0101631
0.0104142
0.0106836
0.0109681
0.00711556
0.00713116
0.00715412
0.00718314
0.00721752
0.00725759
0.00730414
0.00735733
0.00741711
0.00748327
0.00755574
0.00763491
0.00772122
0.00781501
0.00791663
0.00802679
0.00814642
0.00827663
0.0084188
0.00857472
0.00874651
0.00893663
0.00914787
0.00938308
0.0096448
0.00993438
0.0102512
0.0105921
0.00686897
0.00686024
0.00685269
0.00684622
0.00684134
0.00683952
0.00684359
0.00685864
0.00688792
0.00692831
0.00697707
0.00703503
0.00710374
0.00718364
0.00727374
0.00737467
0.00748757
0.0076135
0.00775375
0.0079105
0.0080864
0.00828463
0.00850915
0.00876441
0.00905487
0.00938394
0.00975261
0.0101584
0.00672374
0.00670111
0.00667806
0.00665501
0.00663258
0.00661158
0.0065929
0.00657726
0.00656473
0.0065542
0.00654684
0.00654692
0.00656433
0.0066073
0.00666506
0.00673715
0.00682685
0.00693519
0.00706135
0.00720811
0.00737867
0.00757634
0.00780641
0.00807512
0.00838948
0.008756
0.0091786
0.00965702
0.0066514
0.00662393
0.00659422
0.00656246
0.00652889
0.00649388
0.00645781
0.00642115
0.0063845
0.00634874
0.00631481
0.00628435
0.00625899
0.00623895
0.00622362
0.00621814
0.00624197
0.00630514
0.00639054
0.00650379
0.00665087
0.00683138
0.00705259
0.0073223
0.00765036
0.00804747
0.00852211
0.00907853
0.00659422
0.006573
0.00654823
0.00651968
0.0064872
0.00645066
0.00640999
0.00636524
0.00631664
0.00626468
0.00621012
0.00615395
0.00609723
0.00604138
0.0059885
0.00594176
0.0059047
0.0058781
0.00586316
0.00588124
0.00596885
0.00609714
0.0062808
0.0065275
0.00684897
0.00726117
0.00777846
0.00841159
0.00647047
0.00646477
0.00645547
0.00644205
0.00642405
0.00640092
0.00637215
0.00633721
0.0062955
0.00624665
0.00619036
0.00612652
0.00605542
0.00597792
0.00589551
0.00581046
0.00572574
0.00564504
0.00557363
0.00551892
0.00548693
0.00548133
0.00556582
0.00574175
0.00601645
0.00641328
0.00695351
0.00765555
0.00620143
0.0062155
0.00622697
0.00623532
0.00623998
0.00624039
0.00623555
0.00622481
0.0062071
0.0061814
0.00614659
0.00610132
0.00604416
0.00597409
0.00589042
0.00579298
0.00568274
0.00556254
0.00543725
0.00531393
0.00520197
0.00511385
0.00506737
0.00507535
0.0052194
0.00553728
0.00605767
0.00680236
0.00572943
0.00576221
0.00579393
0.00582424
0.00585265
0.0058786
0.00590137
0.00592021
0.00593415
0.005942
0.00594245
0.0059334
0.005913
0.00587894
0.00582895
0.0057599
0.00566817
0.00555194
0.00541072
0.00524685
0.00506835
0.00488948
0.00473148
0.00462176
0.00459908
0.00470859
0.00512972
0.00587536
0.00501871
0.00506548
0.00511273
0.00516031
0.00520792
0.00525519
0.00530163
0.00534678
0.00538995
0.00543024
0.00546654
0.00549728
0.00552064
0.00553427
0.00553552
0.00552017
0.00548358
0.00542009
0.00532438
0.00518891
0.00500718
0.00478187
0.0045321
0.00429151
0.00411179
0.00405953
0.004223
0.00486677
0.00404795
0.0041014
0.00415659
0.00421352
0.00427209
0.00433215
0.00439359
0.0044562
0.00451959
0.00458332
0.00464671
0.00470881
0.00476857
0.00482426
0.00487374
0.00491402
0.0049413
0.00495025
0.00493401
0.00488169
0.00477971
0.0046147
0.00437084
0.00405814
0.0037355
0.00349987
0.00347192
0.00381492
0.00281605
0.00286393
0.00291441
0.00296771
0.00302394
0.00308321
0.00314566
0.00321132
0.00328014
0.00335207
0.00342694
0.00350448
0.00358425
0.00366549
0.00374727
0.00382832
0.00390697
0.00398053
0.00404236
0.00408129
0.00408976
0.00405187
0.00394275
0.0037237
0.0033695
0.00298625
0.0027359
0.00280561
0.00146355
0.00148487
0.00150801
0.00153316
0.00156046
0.00159008
0.00162225
0.0016572
0.00169518
0.00173658
0.00178187
0.00183176
0.0018872
0.00194965
0.00202133
0.00210545
0.00220661
0.0023306
0.002466
0.00258732
0.00270171
0.00279828
0.00285834
0.00284557
0.00268677
0.00235581
0.00201476
0.00191427
0.000339597
0.000342442
0.00034593
0.000350113
0.000354997
0.000360623
0.000367053
0.000374344
0.000382577
0.000391855
0.000402301
0.000414086
0.000427435
0.000442702
0.000460356
0.000480756
0.000502307
0.000511667
0.000528125
0.00052646
0.000536847
0.000546969
0.000551619
0.000527582
0.000468905
0.00041991
0.00048968
0.00105156
0.014032
0.0140246
0.0140237
0.0140218
0.014017
0.0140124
0.01401
0.0140093
0.0140102
0.0140108
0.0140108
0.0140104
0.0140096
0.0140086
0.0140078
0.0140071
0.0140065
0.0140059
0.0140055
0.0140051
0.0140047
0.0140044
0.014004
0.0140037
0.0140034
0.0140031
0.0140028
0.0140026
0.0140024
0.0140022
0.0140021
0.0140019
0.0140018
0.0140017
0.0140015
0.0140013
0.0140011
0.0140007
0.0140001
0.0139992
0.0139982
0.013998
0.0139994
0.0139996
0.0139995
0.0139999
0.014
0.0139999
0.0139998
0.0139996
0.013999
0.0139976
0.013998
0.0140009
0.0140015
0.014001
0.0139996
0.0139969
0.0139968
0.013997
0.0140313
0.0140247
0.0140179
0.0140124
0.0140118
0.0140101
0.0140099
0.0140094
0.0140086
0.0140076
0.0140065
0.0140053
0.0140042
0.0140031
0.0140021
0.0140012
0.014001
0.0140014
0.0140021
0.0140029
0.0140038
0.0140042
0.0140042
0.0140039
0.0140034
0.0140029
0.0140022
0.0140015
0.0140008
0.014
0.0139994
0.0140002
0.0140016
0.014002
0.0140018
0.0140014
0.0140008
0.0140001
0.0139993
0.0139984
0.0139977
0.0139973
0.0139971
0.0139963
0.013996
0.0139961
0.013996
0.0139959
0.0139958
0.0139956
0.0139952
0.0139949
0.0139961
0.0139995
0.0139987
0.0139969
0.0139955
0.0139934
0.0139932
0.0139937
0.0140197
0.0140179
0.0140122
0.0140095
0.0140057
0.0140037
0.0140015
0.0140006
0.0140011
0.014
0.0139992
0.0139985
0.0139991
0.0139992
0.0139988
0.0139987
0.0139989
0.0139994
0.014
0.0140003
0.0140001
0.0139994
0.0139983
0.0139971
0.0139968
0.0139967
0.0139966
0.0139966
0.0139967
0.0139972
0.0139979
0.0139985
0.0139986
0.0139978
0.0139967
0.0139959
0.0139953
0.0139947
0.013994
0.0139934
0.0139929
0.0139926
0.0139923
0.0139919
0.0139918
0.0139919
0.0139918
0.0139918
0.0139918
0.0139919
0.013992
0.0139922
0.013994
0.013997
0.0139945
0.0139934
0.0139915
0.0139897
0.0139894
0.0139902
0.0140021
0.0139985
0.0139953
0.0139926
0.0139904
0.0139888
0.0139893
0.0139899
0.0139906
0.0139912
0.0139919
0.0139927
0.0139936
0.0139945
0.0139954
0.0139963
0.0139969
0.0139972
0.0139973
0.013997
0.0139965
0.0139958
0.0139951
0.0139946
0.0139943
0.0139941
0.0139938
0.0139936
0.0139935
0.0139934
0.013993
0.0139924
0.0139919
0.0139912
0.0139905
0.01399
0.0139895
0.013989
0.0139885
0.0139882
0.0139879
0.0139876
0.0139875
0.0139874
0.0139874
0.0139874
0.0139875
0.0139876
0.0139879
0.0139881
0.0139884
0.0139892
0.0139913
0.0139921
0.0139903
0.0139896
0.0139872
0.0139856
0.0139854
0.0139864
0.0139757
0.0139767
0.0139777
0.0139787
0.0139797
0.0139808
0.013982
0.0139832
0.0139844
0.0139856
0.0139867
0.0139878
0.013989
0.0139901
0.0139911
0.0139918
0.0139922
0.0139921
0.0139918
0.0139913
0.0139907
0.0139901
0.0139894
0.0139888
0.0139881
0.0139875
0.0139871
0.0139869
0.0139867
0.0139864
0.013986
0.0139855
0.0139851
0.0139846
0.0139842
0.0139838
0.0139835
0.0139832
0.0139829
0.0139827
0.0139826
0.0139826
0.0139826
0.0139826
0.0139827
0.0139828
0.0139831
0.0139834
0.0139837
0.013984
0.0139845
0.0139855
0.0139869
0.0139869
0.0139856
0.0139847
0.0139826
0.0139812
0.0139812
0.0139822
0.0139669
0.0139685
0.0139702
0.0139718
0.0139733
0.0139747
0.0139761
0.0139774
0.0139787
0.0139799
0.013981
0.0139819
0.0139826
0.0139831
0.0139833
0.0139833
0.0139831
0.0139827
0.0139822
0.0139817
0.0139813
0.0139809
0.0139806
0.0139803
0.01398
0.0139797
0.0139796
0.0139794
0.0139793
0.013979
0.0139787
0.0139785
0.0139782
0.0139779
0.0139777
0.0139775
0.0139774
0.0139773
0.0139772
0.0139772
0.0139773
0.0139773
0.0139774
0.0139775
0.0139777
0.0139781
0.0139784
0.0139788
0.0139792
0.0139796
0.0139802
0.0139812
0.0139819
0.0139815
0.0139806
0.0139795
0.0139777
0.0139765
0.0139766
0.0139777
0.013958
0.0139597
0.0139612
0.0139627
0.0139641
0.0139655
0.0139667
0.0139678
0.0139688
0.0139697
0.0139704
0.013971
0.0139714
0.0139717
0.0139719
0.013972
0.013972
0.013972
0.013972
0.0139719
0.0139719
0.0139718
0.0139718
0.0139718
0.0139717
0.0139717
0.0139717
0.0139716
0.0139716
0.0139715
0.0139714
0.0139713
0.0139712
0.0139712
0.0139711
0.0139712
0.0139712
0.0139713
0.0139714
0.0139715
0.0139716
0.0139718
0.013972
0.0139723
0.0139726
0.0139731
0.0139735
0.0139739
0.0139742
0.0139747
0.0139755
0.0139761
0.0139764
0.013976
0.0139751
0.013974
0.0139724
0.0139715
0.0139716
0.0139727
0.0139458
0.0139476
0.0139492
0.0139508
0.0139522
0.0139535
0.0139548
0.0139559
0.0139569
0.0139578
0.0139586
0.0139592
0.0139598
0.0139604
0.0139608
0.0139612
0.0139615
0.0139618
0.0139621
0.0139623
0.0139625
0.0139627
0.0139629
0.0139631
0.0139633
0.0139634
0.0139635
0.0139637
0.0139638
0.0139639
0.0139639
0.013964
0.0139642
0.0139643
0.0139645
0.0139646
0.0139648
0.013965
0.0139652
0.0139655
0.0139657
0.013966
0.0139663
0.0139668
0.0139672
0.0139677
0.0139681
0.0139684
0.0139689
0.0139695
0.0139701
0.0139705
0.0139704
0.0139701
0.0139692
0.0139681
0.0139668
0.0139661
0.0139663
0.0139674
0.0139325
0.0139344
0.0139362
0.0139379
0.0139395
0.0139409
0.0139423
0.0139436
0.0139447
0.0139458
0.0139468
0.0139477
0.0139485
0.0139492
0.0139499
0.0139506
0.0139511
0.0139517
0.0139522
0.0139527
0.0139531
0.0139535
0.0139539
0.0139543
0.0139546
0.0139549
0.0139552
0.0139555
0.0139558
0.0139561
0.0139564
0.0139566
0.0139569
0.0139572
0.0139575
0.0139578
0.0139581
0.0139585
0.0139588
0.0139591
0.0139595
0.0139599
0.0139604
0.0139609
0.0139614
0.0139618
0.0139622
0.0139626
0.0139631
0.0139637
0.0139641
0.0139642
0.0139641
0.0139637
0.0139629
0.0139618
0.0139608
0.0139602
0.0139605
0.0139616
0.0139188
0.0139209
0.0139229
0.0139247
0.0139265
0.0139282
0.0139297
0.0139312
0.0139325
0.0139338
0.013935
0.0139361
0.0139372
0.0139382
0.0139391
0.0139399
0.0139407
0.0139415
0.0139422
0.0139429
0.0139435
0.0139441
0.0139447
0.0139453
0.0139458
0.0139463
0.0139468
0.0139472
0.0139477
0.0139482
0.0139486
0.013949
0.0139495
0.0139499
0.0139503
0.0139507
0.0139511
0.0139515
0.013952
0.0139525
0.013953
0.0139535
0.013954
0.0139545
0.013955
0.0139554
0.0139558
0.0139563
0.0139569
0.0139573
0.0139575
0.0139576
0.0139574
0.013957
0.0139562
0.0139552
0.0139543
0.013954
0.0139543
0.0139553
0.013905
0.0139073
0.0139094
0.0139115
0.0139135
0.0139153
0.0139171
0.0139188
0.0139204
0.0139218
0.0139232
0.0139246
0.0139258
0.013927
0.0139281
0.0139292
0.0139302
0.0139312
0.0139321
0.013933
0.0139338
0.0139346
0.0139353
0.0139361
0.0139368
0.0139374
0.0139381
0.0139387
0.0139393
0.0139399
0.0139405
0.0139411
0.0139416
0.0139422
0.0139427
0.0139432
0.0139437
0.0139443
0.0139449
0.0139455
0.013946
0.0139466
0.0139471
0.0139476
0.013948
0.0139485
0.013949
0.0139495
0.01395
0.0139502
0.0139504
0.0139504
0.0139502
0.0139497
0.013949
0.0139481
0.0139474
0.0139472
0.0139476
0.0139485
0.013891
0.0138935
0.0138959
0.0138982
0.0139003
0.0139024
0.0139044
0.0139063
0.013908
0.0139097
0.0139113
0.0139129
0.0139143
0.0139157
0.013917
0.0139183
0.0139195
0.0139207
0.0139218
0.0139228
0.0139238
0.0139248
0.0139257
0.0139266
0.0139275
0.0139283
0.0139291
0.0139299
0.0139306
0.0139313
0.013932
0.0139327
0.0139334
0.013934
0.0139346
0.0139353
0.013936
0.0139366
0.0139373
0.0139379
0.0139385
0.0139391
0.0139396
0.0139401
0.0139406
0.0139411
0.0139416
0.0139421
0.0139424
0.0139426
0.0139427
0.0139427
0.0139425
0.0139419
0.0139412
0.0139405
0.01394
0.0139399
0.0139404
0.0139412
0.0138769
0.0138795
0.0138821
0.0138846
0.013887
0.0138893
0.0138915
0.0138935
0.0138955
0.0138974
0.0138992
0.0139009
0.0139026
0.0139042
0.0139057
0.0139071
0.0139085
0.0139099
0.0139111
0.0139124
0.0139135
0.0139147
0.0139157
0.0139168
0.0139178
0.0139187
0.0139197
0.0139205
0.0139214
0.0139222
0.0139231
0.0139238
0.0139246
0.0139254
0.0139262
0.0139269
0.0139277
0.0139284
0.0139291
0.0139298
0.0139304
0.0139309
0.0139315
0.013932
0.0139326
0.0139331
0.0139336
0.0139339
0.0139342
0.0139344
0.0139345
0.0139344
0.0139341
0.0139336
0.013933
0.0139324
0.0139321
0.0139321
0.0139326
0.0139334
0.0138624
0.0138653
0.0138681
0.0138708
0.0138734
0.0138758
0.0138782
0.0138805
0.0138827
0.0138848
0.0138868
0.0138887
0.0138905
0.0138923
0.013894
0.0138956
0.0138971
0.0138986
0.0139001
0.0139014
0.0139028
0.013904
0.0139052
0.0139064
0.0139075
0.0139086
0.0139097
0.0139107
0.0139117
0.0139126
0.0139136
0.0139145
0.0139154
0.0139163
0.0139172
0.013918
0.0139188
0.0139195
0.0139202
0.0139209
0.0139215
0.0139221
0.0139227
0.0139233
0.0139239
0.0139244
0.0139248
0.0139251
0.0139254
0.0139256
0.0139256
0.0139255
0.0139252
0.0139247
0.0139242
0.0139238
0.0139236
0.0139237
0.0139241
0.0139249
0.0138474
0.0138505
0.0138535
0.0138564
0.0138592
0.0138619
0.0138645
0.013867
0.0138693
0.0138716
0.0138738
0.0138759
0.0138779
0.0138798
0.0138817
0.0138835
0.0138852
0.0138868
0.0138884
0.0138899
0.0138914
0.0138928
0.0138942
0.0138955
0.0138967
0.0138979
0.0138991
0.0139003
0.0139014
0.0139025
0.0139036
0.0139046
0.0139056
0.0139065
0.0139074
0.0139083
0.0139091
0.0139099
0.0139106
0.0139113
0.013912
0.0139127
0.0139133
0.0139139
0.0139145
0.0139149
0.0139153
0.0139156
0.0139159
0.0139161
0.0139161
0.0139159
0.0139156
0.0139152
0.0139148
0.0139145
0.0139144
0.0139146
0.0139151
0.0139158
0.0138317
0.013835
0.0138382
0.0138414
0.0138444
0.0138473
0.0138501
0.0138527
0.0138553
0.0138578
0.0138601
0.0138624
0.0138646
0.0138667
0.0138687
0.0138707
0.0138725
0.0138743
0.0138761
0.0138777
0.0138793
0.0138809
0.0138824
0.0138839
0.0138853
0.0138866
0.013888
0.0138892
0.0138905
0.0138917
0.0138928
0.0138939
0.0138949
0.0138959
0.0138969
0.0138978
0.0138986
0.0138995
0.0139003
0.013901
0.0139018
0.0139025
0.0139031
0.0139037
0.0139042
0.0139047
0.0139051
0.0139054
0.0139057
0.0139058
0.0139058
0.0139056
0.0139054
0.013905
0.0139048
0.0139046
0.0139046
0.0139048
0.0139053
0.0139059
0.013815
0.0138185
0.013822
0.0138254
0.0138286
0.0138317
0.0138347
0.0138376
0.0138404
0.013843
0.0138456
0.0138481
0.0138505
0.0138527
0.0138549
0.0138571
0.0138591
0.0138611
0.013863
0.0138648
0.0138666
0.0138683
0.01387
0.0138715
0.0138731
0.0138746
0.013876
0.0138774
0.0138787
0.01388
0.0138812
0.0138823
0.0138834
0.0138845
0.0138855
0.0138864
0.0138874
0.0138883
0.0138891
0.0138899
0.0138907
0.0138914
0.0138921
0.0138927
0.0138932
0.0138937
0.0138941
0.0138944
0.0138947
0.0138948
0.0138947
0.0138946
0.0138944
0.0138941
0.013894
0.0138939
0.013894
0.0138942
0.0138947
0.0138953
0.0137971
0.0138009
0.0138047
0.0138083
0.0138118
0.0138152
0.0138184
0.0138215
0.0138245
0.0138274
0.0138302
0.0138329
0.0138354
0.0138379
0.0138403
0.0138426
0.0138449
0.013847
0.0138491
0.0138511
0.013853
0.0138548
0.0138566
0.0138583
0.01386
0.0138616
0.0138631
0.0138646
0.013866
0.0138673
0.0138686
0.0138698
0.013871
0.0138721
0.0138732
0.0138742
0.0138752
0.0138762
0.0138771
0.013878
0.0138787
0.0138795
0.0138801
0.0138807
0.0138813
0.0138818
0.0138822
0.0138825
0.0138828
0.0138828
0.0138828
0.0138827
0.0138826
0.0138825
0.0138824
0.0138824
0.0138825
0.0138829
0.0138833
0.0138839
0.0137781
0.0137822
0.0137863
0.0137902
0.013794
0.0137976
0.0138011
0.0138044
0.0138077
0.0138108
0.0138138
0.0138167
0.0138194
0.0138221
0.0138247
0.0138272
0.0138296
0.0138319
0.0138341
0.0138363
0.0138383
0.0138403
0.0138422
0.0138441
0.0138458
0.0138475
0.0138491
0.0138507
0.0138522
0.0138536
0.013855
0.0138563
0.0138575
0.0138588
0.0138599
0.0138611
0.0138621
0.0138631
0.0138641
0.013865
0.0138658
0.0138665
0.0138672
0.0138679
0.0138685
0.013869
0.0138694
0.0138697
0.0138699
0.01387
0.01387
0.01387
0.01387
0.0138699
0.0138699
0.01387
0.0138702
0.0138706
0.013871
0.0138716
0.0137578
0.0137622
0.0137666
0.0137708
0.0137748
0.0137787
0.0137825
0.0137861
0.0137896
0.0137929
0.0137961
0.0137992
0.0138022
0.0138051
0.0138079
0.0138106
0.0138131
0.0138156
0.013818
0.0138203
0.0138225
0.0138246
0.0138266
0.0138286
0.0138305
0.0138323
0.013834
0.0138357
0.0138373
0.0138388
0.0138403
0.0138417
0.0138431
0.0138444
0.0138457
0.0138468
0.0138479
0.013849
0.01385
0.0138509
0.0138518
0.0138526
0.0138534
0.013854
0.0138546
0.0138552
0.0138556
0.0138559
0.0138561
0.0138562
0.0138563
0.0138563
0.0138564
0.0138564
0.0138565
0.0138567
0.0138569
0.0138573
0.0138577
0.0137357
0.0137406
0.0137453
0.0137498
0.0137542
0.0137584
0.0137624
0.0137663
0.01377
0.0137736
0.0137771
0.0137804
0.0137836
0.0137867
0.0137897
0.0137925
0.0137953
0.0137979
0.0138005
0.0138029
0.0138053
0.0138076
0.0138098
0.0138119
0.0138139
0.0138158
0.0138177
0.0138195
0.0138212
0.0138229
0.0138245
0.013826
0.0138275
0.0138289
0.0138302
0.0138314
0.0138326
0.0138337
0.0138348
0.0138358
0.0138367
0.0138376
0.0138384
0.0138391
0.0138397
0.0138402
0.0138406
0.013841
0.0138412
0.0138414
0.0138416
0.0138417
0.0138418
0.0138419
0.0138421
0.0138423