/*--------------------------------*- C++ -*----------------------------------*\
  =========                 |
  \\      /  F ield         | OpenFOAM: The Open Source CFD Toolbox
   \\    /   O peration     | Website:  https://openfoam.org
    \\  /    A nd           | Version:  9
     \\/     M anipulation  |
\*---------------------------------------------------------------------------*/
FoamFile
{
    format      ascii;
    class       volScalarField;
    location    "0.005";
    object      nuTilda;
}
// * * * * * * * * * * * * * * * * * * * * * * * * * * * * * * * * * * * * * //

dimensions      [0 2 -1 0 0 0 0];

internalField   nonuniform List<scalar> 
6352
(
0.0131909
0.0128214
0.0126917
0.0126873
0.0127383
0.0128086
0.012884
0.0129573
0.0130255
0.013088
0.013145
0.013197
0.0132444
0.0132877
0.0133272
0.0133634
0.0133966
0.0134272
0.0134554
0.0134815
0.0135057
0.0135281
0.013549
0.0135682
0.0135856
0.0130807
0.0127172
0.012584
0.0125755
0.0126249
0.0126961
0.0127718
0.0128469
0.0129175
0.0129826
0.0130426
0.0130979
0.0131488
0.0131955
0.0132384
0.0132779
0.0133143
0.0133479
0.0133789
0.0134077
0.0134345
0.0134595
0.0134828
0.0135046
0.013525
0.0125956
0.0124632
0.0124532
0.0125022
0.0125751
0.0126542
0.0127316
0.0128042
0.0128712
0.0129331
0.012991
0.0130449
0.0130949
0.0131412
0.013184
0.0132236
0.0132603
0.0132943
0.0133259
0.0133553
0.0133828
0.0134085
0.0134326
0.0134551
0.0124575
0.0123315
0.0123221
0.0123711
0.0124448
0.0125258
0.012606
0.0126819
0.0127523
0.0128173
0.0128774
0.0129337
0.0129866
0.0130361
0.0130821
0.0131248
0.0131646
0.0132016
0.0132361
0.0132682
0.0132983
0.0133264
0.0133529
0.0133777
0.0123062
0.01219
0.0121833
0.0122328
0.0123072
0.0123898
0.0124723
0.012551
0.0126246
0.0126929
0.012756
0.0128147
0.01287
0.0129223
0.0129713
0.0130172
0.0130601
0.0131002
0.0131376
0.0131727
0.0132055
0.0132362
0.0132651
0.0132923
0.0121408
0.012038
0.0120359
0.0120869
0.0121623
0.0122463
0.0123308
0.0124121
0.0124886
0.0125599
0.0126262
0.0126879
0.0127455
0.0127998
0.0128516
0.0129004
0.0129464
0.0129895
0.01303
0.0130679
0.0131036
0.0131371
0.0131687
0.0131984
0.0119632
0.0118759
0.0118799
0.0119331
0.0120096
0.0120948
0.012181
0.0122645
0.0123436
0.0124177
0.012487
0.0125516
0.012612
0.0126687
0.0127225
0.0127739
0.0128227
0.0128688
0.0129123
0.0129532
0.0129918
0.0130281
0.0130624
0.0130948
0.0117747
0.0117043
0.0117155
0.0117714
0.0118491
0.0119354
0.0120229
0.0121082
0.0121895
0.0122662
0.0123382
0.0124056
0.0124688
0.0125282
0.0125843
0.0126376
0.0126888
0.0127376
0.012784
0.0128278
0.0128693
0.0129085
0.0129456
0.0129807
0.0115771
0.011524
0.0115428
0.0116016
0.0116805
0.0117676
0.0118563
0.011943
0.0120262
0.012105
0.0121794
0.0122494
0.0123153
0.0123773
0.0124359
0.0124915
0.0125446
0.0125957
0.0126446
0.0126912
0.0127355
0.0127775
0.0128174
0.0128552
0.011372
0.0113358
0.0113621
0.0114238
0.0115037
0.0115913
0.0116807
0.0117685
0.0118532
0.0119339
0.0120104
0.0120828
0.0121511
0.0122157
0.0122767
0.0123346
0.0123898
0.0124428
0.0124939
0.012543
0.01259
0.0126347
0.0126773
0.0127178
0.0111614
0.0111407
0.0111738
0.011238
0.0113185
0.0114063
0.0114959
0.0115844
0.0116702
0.0117524
0.0118308
0.0119052
0.0119758
0.0120427
0.0121061
0.0121664
0.0122238
0.0122788
0.0123317
0.0123829
0.0124322
0.0124794
0.0125246
0.0125677
0.010947
0.0109399
0.0109787
0.0110446
0.011125
0.0112123
0.0113017
0.0113904
0.0114768
0.0115601
0.0116399
0.0117161
0.0117887
0.0118577
0.0119234
0.011986
0.0120457
0.0121027
0.0121575
0.0122104
0.0122617
0.0123113
0.0123589
0.0124046
0.0107346
0.0107775
0.0108439
0.0109235
0.0110095
0.0110979
0.0111861
0.0112725
0.0113564
0.0114372
0.0115148
0.011589
0.01166
0.0117278
0.0117925
0.0118544
0.0119135
0.0119703
0.012025
0.012078
0.0121295
0.0121794
0.0122276
0.010526
0.0105713
0.010637
0.0107146
0.0107984
0.0108848
0.0109716
0.0110573
0.011141
0.0112222
0.0113006
0.0113761
0.0114486
0.0115181
0.0115847
0.0116486
0.0117099
0.0117687
0.0118253
0.0118799
0.0119329
0.0119847
0.012035
0.0103159
0.0103616
0.0104251
0.0104994
0.0105798
0.0106633
0.0107476
0.0108316
0.0109142
0.010995
0.0110735
0.0111495
0.0112229
0.0112937
0.0113619
0.0114275
0.0114905
0.0115512
0.0116096
0.011666
0.0117206
0.0117737
0.0118256
0.0101063
0.0101503
0.01021
0.0102797
0.0103555
0.0104346
0.0105154
0.0105964
0.0106768
0.0107561
0.0108337
0.0109094
0.010983
0.0110543
0.0111234
0.0111901
0.0112546
0.0113168
0.0113768
0.0114348
0.0114909
0.0115453
0.0115983
0.00989923
0.00993979
0.00999416
0.0100578
0.0101276
0.0102011
0.0102769
0.0103537
0.0104306
0.0105071
0.0105826
0.0106569
0.0107295
0.0108005
0.0108695
0.0109366
0.0110017
0.0110649
0.011126
0.0111852
0.0112426
0.0112983
0.0113523
0.00973293
0.00978051
0.00983684
0.00989927
0.00996589
0.0100353
0.0101064
0.0101784
0.0102507
0.0103227
0.0103941
0.0104645
0.0105338
0.0106017
0.0106681
0.0107329
0.010796
0.0108574
0.0109172
0.0109752
0.0110316
0.0110865
0.0095324
0.00957228
0.00962029
0.00967432
0.0097328
0.00979451
0.00985853
0.00992409
0.0099906
0.0100576
0.0101246
0.0101913
0.0102574
0.0103227
0.010387
0.0104502
0.0105121
0.0105726
0.0106319
0.0106896
0.010746
0.0108009
0.00934163
0.0093732
0.00941223
0.00945706
0.00950643
0.00955935
0.009615
0.00967274
0.009732
0.00979232
0.0098533
0.00991458
0.00997588
0.0100369
0.0100975
0.0101575
0.0102167
0.010275
0.0103323
0.0103885
0.0104436
0.0104976
0.00918685
0.00921663
0.00925189
0.00929162
0.00933501
0.00938139
0.00943019
0.00948094
0.0095332
0.00958663
0.00964088
0.00969566
0.00975073
0.00980586
0.00986084
0.00991551
0.00996976
0.0100234
0.0100765
0.0101287
0.0101802
0.00901537
0.00903653
0.00906261
0.00909282
0.00912654
0.00916326
0.00920252
0.00924394
0.00928715
0.00933184
0.00937771
0.00942451
0.009472
0.00951996
0.00956819
0.00961654
0.00966486
0.00971301
0.00976088
0.00980838
0.00985547
0.00886027
0.008874
0.00889187
0.00891334
0.00893794
0.00896532
0.00899513
0.00902706
0.00906086
0.00909624
0.00913298
0.00917086
0.00920965
0.00924918
0.00928926
0.00932974
0.00937049
0.00941137
0.00945228
0.00949312
0.00953383
0.00872899
0.00874022
0.00875439
0.00877117
0.0087903
0.00881154
0.00883466
0.00885949
0.00888581
0.00891347
0.00894227
0.00897205
0.00900265
0.00903393
0.00906575
0.00909799
0.00913053
0.00916327
0.0091961
0.00922897
0.00859813
0.00860513
0.00861424
0.00862524
0.00863797
0.0086523
0.0086681
0.00868525
0.00870362
0.0087231
0.00874357
0.00876491
0.008787
0.00880973
0.008833
0.00885671
0.00888075
0.00890504
0.00892949
0.00895403
0.00848188
0.00848835
0.00849601
0.00850472
0.00851442
0.00852504
0.00853653
0.00854882
0.00856186
0.00857558
0.00858992
0.0086048
0.00862015
0.00863591
0.008652
0.00866835
0.0086849
0.00870157
0.00871833
0.00836228
0.00836902
0.00837612
0.00838354
0.00839126
0.00839928
0.0084076
0.00841621
0.00842512
0.00843431
0.00844376
0.00845345
0.00846334
0.00847342
0.00848365
0.00849399
0.00850438
0.00851479
0.00852519
0.00824731
0.00825633
0.00826502
0.00827337
0.00828141
0.00828916
0.00829666
0.00830395
0.00831107
0.00831803
0.00832487
0.0083316
0.0083382
0.00834477
0.00835127
0.00835767
0.00836396
0.00837011
0.00812605
0.00813831
0.00814967
0.00816014
0.00816974
0.00817855
0.00818663
0.00819404
0.00820092
0.00820742
0.00821355
0.00821929
0.00822467
0.00822968
0.00823434
0.00823868
0.00824271
0.00797441
0.00799234
0.00800879
0.00802378
0.00803738
0.00804965
0.0080607
0.00807059
0.00807958
0.00808782
0.0080953
0.00810204
0.00810806
0.0081134
0.00811809
0.00812217
0.00812568
0.00781711
0.00783982
0.00786069
0.00787976
0.00789707
0.0079127
0.00792674
0.00793956
0.00795128
0.00796188
0.00797137
0.00797978
0.00798716
0.00799356
0.00799904
0.00800367
0.00763244
0.00765968
0.00768478
0.00770773
0.00772861
0.00774774
0.00776544
0.0077816
0.00779621
0.00780929
0.00782088
0.00783102
0.0078398
0.00784729
0.00785358
0.00737863
0.00741213
0.00744309
0.00747151
0.00749801
0.00752267
0.00754537
0.00756603
0.00758464
0.00760121
0.0076158
0.00762849
0.00763935
0.00764847
0.00765594
0.00711272
0.00714863
0.00718274
0.00721468
0.00724424
0.0072713
0.00729577
0.00731768
0.00733703
0.0073539
0.00736834
0.00738043
0.00739027
0.00739798
0.00679924
0.00683766
0.00687337
0.00690612
0.00693583
0.00696242
0.00698588
0.00700622
0.00702349
0.00703777
0.00704912
0.00705783
0.00706473
0.00639456
0.0064349
0.00647192
0.00650544
0.00653531
0.0065615
0.00658396
0.00660267
0.00661769
0.00662933
0.00663866
0.00664627
0.00665193
0.00597717
0.00601247
0.00604372
0.00607074
0.00609345
0.00611182
0.00612586
0.00613707
0.0061462
0.0061528
0.00615661
0.00615748
0.00550036
0.00552632
0.00554749
0.00556379
0.00557652
0.00558705
0.00559472
0.00559902
0.00559978
0.00559413
0.00558238
0.00496195
0.00497554
0.00498678
0.00499523
0.0050003
0.00500149
0.00499641
0.00498525
0.00496877
0.0049484
0.00437734
0.00438345
0.00438615
0.00438413
0.00437595
0.00436254
0.00434291
0.00431607
0.00428094
0.00379408
0.0037944
0.00378721
0.00377174
0.00374784
0.00371488
0.00367207
0.00361893
0.00324945
0.00324233
0.00322534
0.0031991
0.00316313
0.00311722
0.00306072
0.00299347
0.0027246
0.00269762
0.00266103
0.00261445
0.00255734
0.00248888
0.00240885
0.00216689
0.00211319
0.00204918
0.00197408
0.00188775
0.00166901
0.0015999
0.00151947
0.001427
0.00125183
0.00115723
0.00105023
0.0135993
0.0135995
0.0135996
0.0135997
0.0135998
0.0135999
0.0136
0.0136
0.0136
0.0136
0.0136
0.0136
0.0136
0.0135999
0.0135999
0.0135998
0.0135997
0.0135996
0.0135995
0.0135994
0.0135409
0.0135411
0.0135412
0.0135413
0.0135414
0.0135415
0.0135416
0.0135416
0.0135416
0.0135416
0.0135416
0.0135415
0.0135415
0.0135414
0.0135413
0.0135412
0.0135411
0.0135409
0.0135408
0.0135406
0.0134724
0.0134726
0.0134728
0.0134729
0.013473
0.0134731
0.0134731
0.0134732
0.0134732
0.0134732
0.0134731
0.013473
0.0134729
0.0134728
0.0134727
0.0134725
0.0134724
0.0134722
0.013472
0.0134718
0.0133963
0.0133966
0.0133968
0.0133969
0.013397
0.0133971
0.0133972
0.0133972
0.0133972
0.0133971
0.0133971
0.013397
0.0133969
0.0133967
0.0133965
0.0133963
0.0133961
0.0133959
0.0133956
0.0133953
0.0133124
0.0133127
0.0133129
0.013313
0.0133132
0.0133132
0.0133133
0.0133133
0.0133133
0.0133132
0.0133131
0.013313
0.0133129
0.0133127
0.0133125
0.0133122
0.013312
0.0133117
0.0133113
0.013311
0.0132201
0.0132203
0.0132206
0.0132207
0.0132209
0.0132209
0.013221
0.013221
0.0132209
0.0132209
0.0132207
0.0132206
0.0132204
0.0132202
0.0132199
0.0132196
0.0132193
0.0132189
0.0132185
0.0132181
0.013118
0.0131183
0.0131186
0.0131188
0.0131189
0.013119
0.013119
0.013119
0.0131189
0.0131188
0.0131187
0.0131185
0.0131182
0.0131179
0.0131176
0.0131173
0.0131168
0.0131164
0.0131159
0.0131154
0.0130054
0.0130058
0.013006
0.0130062
0.0130064
0.0130064
0.0130065
0.0130064
0.0130063
0.0130062
0.013006
0.0130058
0.0130055
0.0130051
0.0130047
0.0130043
0.0130038
0.0130033
0.0130027
0.0130021
0.0128814
0.0128818
0.0128821
0.0128823
0.0128825
0.0128825
0.0128825
0.0128825
0.0128824
0.0128822
0.0128819
0.0128816
0.0128813
0.0128809
0.0128804
0.0128799
0.0128793
0.0128787
0.012878
0.0128773
0.0127455
0.0127459
0.0127462
0.0127464
0.0127465
0.0127466
0.0127466
0.0127465
0.0127464
0.0127461
0.0127458
0.0127455
0.0127451
0.0127446
0.012744
0.0127434
0.0127427
0.0127419
0.0127411
0.0127403
0.0125968
0.0125972
0.0125975
0.0125978
0.0125979
0.012598
0.012598
0.0125979
0.0125977
0.0125974
0.012597
0.0125966
0.0125961
0.0125955
0.0125948
0.0125941
0.0125933
0.0125924
0.0125914
0.0125904
0.012435
0.0124354
0.0124358
0.012436
0.0124362
0.0124362
0.0124362
0.012436
0.0124358
0.0124354
0.012435
0.0124345
0.0124338
0.0124331
0.0124323
0.0124315
0.0124305
0.0124295
0.0124284
0.0124272
0.0122592
0.0122597
0.0122601
0.0122604
0.0122605
0.0122605
0.0122604
0.0122602
0.0122599
0.0122595
0.012259
0.0122584
0.0122576
0.0122568
0.0122559
0.0122548
0.0122537
0.0122525
0.0122512
0.0122498
0.0120677
0.0120683
0.0120687
0.012069
0.0120691
0.0120691
0.012069
0.0120688
0.0120684
0.0120679
0.0120673
0.0120665
0.0120657
0.0120647
0.0120636
0.0120624
0.0120611
0.0120597
0.0120582
0.0120566
0.0118592
0.0118598
0.0118603
0.0118606
0.0118607
0.0118607
0.0118605
0.0118602
0.0118598
0.0118592
0.0118584
0.0118576
0.0118566
0.0118555
0.0118542
0.0118528
0.0118513
0.0118497
0.011848
0.0118461
0.0116324
0.0116331
0.0116335
0.0116338
0.011634
0.0116339
0.0116337
0.0116334
0.0116328
0.0116322
0.0116313
0.0116303
0.0116292
0.0116279
0.0116265
0.0116249
0.0116232
0.0116214
0.0116194
0.0116173
0.0113864
0.0113871
0.0113876
0.011388
0.0113881
0.011388
0.0113877
0.0113873
0.0113867
0.0113859
0.011385
0.0113838
0.0113826
0.0113811
0.0113795
0.0113777
0.0113758
0.0113737
0.0113715
0.0113691
0.0111206
0.0111213
0.0111218
0.0111222
0.0111223
0.0111222
0.0111219
0.0111214
0.0111207
0.0111198
0.0111187
0.0111175
0.011116
0.0111144
0.0111126
0.0111106
0.0111085
0.0111062
0.0111037
0.0111011
0.0108346
0.0108355
0.010836
0.0108364
0.0108364
0.0108363
0.010836
0.0108354
0.0108347
0.0108337
0.0108325
0.0108311
0.0108295
0.0108277
0.0108257
0.0108235
0.0108211
0.0108186
0.0108159
0.010813
0.0105304
0.0105313
0.0105319
0.0105323
0.0105323
0.0105321
0.0105317
0.0105311
0.0105303
0.0105292
0.0105279
0.0105263
0.0105246
0.0105226
0.0105204
0.0105181
0.0105155
0.0105127
0.0105097
0.0105066
0.0102113
0.0102122
0.0102129
0.0102132
0.0102132
0.010213
0.0102126
0.0102119
0.010211
0.0102098
0.0102083
0.0102067
0.0102047
0.0102026
0.0102002
0.0101977
0.0101949
0.0101918
0.0101886
0.0101852
0.00988373
0.00988463
0.00988525
0.00988558
0.00988553
0.00988529
0.00988478
0.009884
0.00988295
0.00988164
0.00988007
0.00987824
0.00987617
0.00987385
0.00987129
0.0098685
0.00986548
0.00986224
0.00985878
0.00985511
0.00955804
0.00955891
0.00955947
0.00955972
0.00955961
0.00955928
0.00955866
0.00955775
0.00955656
0.00955509
0.00955336
0.00955135
0.00954909
0.00954657
0.00954379
0.00954078
0.00953752
0.00953403
0.00953032
0.00952638
0.00924825
0.00924902
0.00924947
0.00924949
0.00924929
0.00924881
0.00924803
0.00924696
0.00924559
0.00924393
0.00924199
0.00923978
0.00923729
0.00923453
0.00923152
0.00922824
0.00922472
0.00922096
0.00921696
0.00921273
0.00896815
0.00896879
0.00896909
0.008969
0.00896866
0.008968
0.00896703
0.00896575
0.00896416
0.00896228
0.00896011
0.00895764
0.0089549
0.00895188
0.00894859
0.00894504
0.00894123
0.00893717
0.00893286
0.00892832
0.00872777
0.00872825
0.00872829
0.00872808
0.00872755
0.00872669
0.0087255
0.008724
0.00872218
0.00872005
0.00871762
0.0087149
0.00871188
0.00870858
0.008705
0.00870114
0.00869702
0.00869265
0.00868801
0.00868314
0.00853093
0.00853124
0.00853115
0.00853075
0.00853001
0.00852892
0.00852749
0.00852574
0.00852365
0.00852125
0.00851853
0.00851551
0.00851218
0.00850856
0.00850466
0.00850047
0.008496
0.00849127
0.00848628
0.00848104
0.00837365
0.00837379
0.00837358
0.00837301
0.00837207
0.00837078
0.00836914
0.00836716
0.00836485
0.0083622
0.00835923
0.00835594
0.00835233
0.00834842
0.00834421
0.0083397
0.00833491
0.00832983
0.00832449
0.00831888
0.00824489
0.00824487
0.00824455
0.00824383
0.00824274
0.00824128
0.00823945
0.00823726
0.00823473
0.00823186
0.00822865
0.00822511
0.00822126
0.00821708
0.00821259
0.0082078
0.00820271
0.00819733
0.00819167
0.00818574
0.00812743
0.00812739
0.00812702
0.00812626
0.00812509
0.00812355
0.00812162
0.00811932
0.00811665
0.00811363
0.00811026
0.00810655
0.00810252
0.00809816
0.00809348
0.0080885
0.00808323
0.00807766
0.0080718
0.00806567
0.00800592
0.00800592
0.00800563
0.00800494
0.00800385
0.00800236
0.00800049
0.00799824
0.00799563
0.00799265
0.00798931
0.00798563
0.00798161
0.00797726
0.00797258
0.0079676
0.00796231
0.00795673
0.00795087
0.00794473
0.0078566
0.00785681
0.00785661
0.00785609
0.00785516
0.00785385
0.00785216
0.00785009
0.00784766
0.00784486
0.00784172
0.00783824
0.00783442
0.00783028
0.00782582
0.00782106
0.00781599
0.00781063
0.007805
0.00779909
0.00765941
0.0076598
0.00765967
0.00765928
0.00765856
0.00765747
0.007656
0.00765418
0.00765199
0.00764946
0.00764659
0.00764339
0.00763987
0.00763604
0.0076319
0.00762747
0.00762276
0.00761776
0.0076125
0.00760698
0.00740133
0.0074018
0.00740171
0.00740138
0.0074008
0.00739997
0.00739879
0.00739727
0.00739542
0.00739324
0.00739075
0.00738796
0.00738486
0.00738148
0.00737781
0.00737388
0.00736969
0.00736525
0.00736057
0.00735565
0.00706805
0.00706864
0.00706862
0.00706838
0.00706793
0.00706728
0.00706641
0.00706534
0.00706398
0.00706233
0.0070604
0.0070582
0.00705573
0.007053
0.00705003
0.00704682
0.00704338
0.00703973
0.00703586
0.00703181
0.00665399
0.00665437
0.00665433
0.0066541
0.00665371
0.00665314
0.00665241
0.00665152
0.00665046
0.00664925
0.00664788
0.00664634
0.00664458
0.00664262
0.00664045
0.00663809
0.00663555
0.00663284
0.00662996
0.00662693
0.0061542
0.00615405
0.00615379
0.00615341
0.00615292
0.00615233
0.00615163
0.00615083
0.00614992
0.00614892
0.00614783
0.00614665
0.00614539
0.00614404
0.00614262
0.00614113
0.00613957
0.00613796
0.0061363
0.00613459
0.0055708
0.00557039
0.00556997
0.00556952
0.00556905
0.00556855
0.00556802
0.00556747
0.00556689
0.00556629
0.00556566
0.005565
0.00556433
0.00556363
0.00556291
0.00556217
0.00556142
0.00556065
0.00555988
0.00555909
0.00493137
0.00493073
0.00493013
0.00492957
0.00492903
0.00492853
0.00492805
0.0049276
0.00492717
0.00492676
0.00492638
0.00492602
0.00492568
0.00492537
0.00492509
0.00492483
0.00492461
0.00492441
0.00492425
0.00492412
0.00424878
0.00424747
0.00424631
0.00424529
0.00424439
0.0042436
0.00424293
0.00424237
0.0042419
0.00424154
0.00424127
0.0042411
0.00424102
0.00424103
0.00424129
0.00424181
0.00424257
0.00424357
0.0042448
0.00424628
0.00357134
0.00356927
0.00356746
0.00356591
0.0035646
0.0035635
0.00356262
0.00356194
0.00356146
0.00356116
0.00356104
0.00356119
0.0035618
0.00356286
0.00356432
0.00356616
0.00356835
0.00357088
0.00357373
0.00357689
0.0029338
0.00293107
0.00292877
0.00292687
0.00292535
0.00292419
0.00292338
0.00292289
0.00292271
0.00292302
0.0029241
0.00292586
0.00292824
0.00293116
0.00293458
0.00293844
0.00294258
0.00294692
0.00295144
0.00295614
0.00233689
0.00233345
0.00233067
0.00232851
0.00232696
0.00232597
0.00232552
0.0023257
0.00232718
0.0023298
0.0023334
0.00233771
0.00234241
0.00234749
0.00235291
0.00235865
0.00236468
0.00237098
0.00237755
0.00238434
0.00181142
0.00180771
0.00180487
0.00180287
0.00180166
0.0018012
0.00180181
0.00180409
0.00180777
0.00181229
0.00181735
0.00182291
0.00182891
0.00183532
0.00184208
0.00184917
0.00185656
0.00186421
0.0018721
0.0018802
0.00134498
0.00134096
0.00133812
0.00133636
0.00133561
0.00133609
0.00133875
0.00134302
0.00134807
0.0013538
0.00136013
0.00136698
0.00137428
0.00138197
0.00139
0.00139833
0.00140692
0.00141574
0.00142476
0.00143395
0.000945555
0.000940017
0.000936872
0.000935391
0.000935377
0.000938514
0.000943278
0.000949064
0.000955682
0.000962973
0.000970795
0.000979025
0.000987561
0.000996354
0.00100537
0.00101456
0.00102391
0.00103339
0.00104297
0.00105265
0.00060513
0.000606482
0.000610898
0.000616821
0.00062404
0.000632339
0.000641386
0.000650922
0.000660758
0.00067074
0.000680305
0.000689361
0.000698506
0.000707714
0.000716958
0.000726216
0.000735473
0.000744722
0.000459208
0.000469562
0.000479741
0.00048961
0.000498978
0.000507507
0.000515685
0.000523211
0.0135992
0.013599
0.0135987
0.0135985
0.0135983
0.0135402
0.0135398
0.0135395
0.0135391
0.0135388
0.0134713
0.0134707
0.0134702
0.0134697
0.0134692
0.0133947
0.013394
0.0133933
0.0133926
0.013392
0.0133102
0.0133093
0.0133084
0.0133076
0.0133067
0.0132171
0.013216
0.0132149
0.0132138
0.0132127
0.0131142
0.0131128
0.0131114
0.0131101
0.0131088
0.0130007
0.0129989
0.0129972
0.0129956
0.012994
0.0128756
0.0128735
0.0128714
0.0128694
0.0128674
0.0127383
0.0127357
0.0127332
0.0127308
0.0127284
0.012588
0.0125849
0.0125819
0.012579
0.0125761
0.0124243
0.0124206
0.012417
0.0124134
0.0124099
0.0122464
0.0122419
0.0122376
0.0122333
0.0122291
0.0120526
0.0120473
0.0120421
0.012037
0.012032
0.0118415
0.0118353
0.0118291
0.0118231
0.0118173
0.011612
0.0116047
0.0115976
0.0115906
0.0115838
0.0113631
0.0113547
0.0113465
0.0113385
0.0113307
0.0110943
0.0110847
0.0110754
0.0110663
0.0110574
0.0108054
0.0107947
0.0107842
0.010774
0.010764
0.0104983
0.0104863
0.0104746
0.0104633
0.0104523
0.0101762
0.010163
0.0101502
0.0101377
0.0101257
0.00984533
0.00983094
0.00981699
0.0098035
0.00979045
0.00951584
0.00950018
0.00948503
0.00947041
0.00945631
0.00920139
0.00918435
0.00916791
0.00915208
0.00913684
0.00891612
0.00889761
0.00887979
0.00886266
0.00884622
0.00867002
0.00864995
0.00863067
0.00861217
0.00859445
0.0084669
0.00844513
0.00842426
0.00840428
0.00838517
0.0083037
0.00828022
0.00825776
0.00823632
0.00821587
0.00816961
0.00814461
0.00812079
0.00809812
0.00807657
0.00804891
0.00802298
0.00799844
0.00797528
0.00795345
0.00792788
0.00790202
0.00787774
0.00785495
0.00783353
0.00778274
0.00775769
0.0077342
0.0077122
0.00769163
0.00759162
0.00756829
0.00754661
0.00752652
0.00750792
0.0073419
0.00732135
0.00730257
0.00728546
0.00726994
0.00702039
0.00700379
0.00698903
0.00697599
0.00696457
0.00661838
0.00660676
0.00659708
0.0065892
0.00658293
0.00612992
0.00612372
0.00611899
0.00611564
0.00611361
0.00555702
0.00555536
0.00555539
0.00555943
0.00556679
0.00492393
0.00492864
0.00493798
0.00495099
0.00496597
0.00425068
0.00426344
0.00428012
0.00429871
0.00431899
0.00358536
0.00360396
0.0036249
0.00364793
0.00367289
0.00296863
0.00299287
0.00302027
0.00305061
0.00308323
0.00240206
0.00243531
0.00247132
0.0025093
0.00254869
0.00190066
0.00193878
0.0019796
0.00202217
0.00206587
0.00145629
0.00149791
0.0015422
0.00158803
0.00163475
0.00107515
0.00111757
0.00116301
0.00121006
0.00125802
0.000765297
0.000804291
0.000845887
0.000889497
0.000934882
0.000539285
0.000570359
0.000599587
0.000629885
0.000664318
0.000362706
0.000378761
0.000392775
0.000410499
0.00043421
0.000210803
0.000213961
0.000228166
0.0135982
0.013598
0.0135979
0.0135978
0.0135977
0.0135976
0.0135975
0.0135975
0.0135976
0.0135977
0.013598
0.0135984
0.0135989
0.0135997
0.0136007
0.0136019
0.0136034
0.0136051
0.0136073
0.0136097
0.0136125
0.0136158
0.0136195
0.0136237
0.0136285
0.0136338
0.0136398
0.0136466
0.0136541
0.0136625
0.0136719
0.0136823
0.0136938
0.0137065
0.0137204
0.0137356
0.0137522
0.0137701
0.0137894
0.0138099
0.0138317
0.0138548
0.0138795
0.0139058
0.0139325
0.0139571
0.0139788
0.0140156
0.0140385
0.014019
0.0135382
0.0135379
0.0135377
0.0135374
0.0135371
0.0135369
0.0135367
0.0135365
0.0135364
0.0135363
0.0135364
0.0135367
0.0135371
0.0135379
0.0135388
0.0135401
0.0135418
0.0135439
0.0135464
0.0135495
0.0135531
0.0135573
0.0135622
0.0135677
0.0135739
0.0135808
0.0135885
0.013597
0.0136064
0.0136169
0.0136285
0.0136412
0.0136551
0.0136702
0.0136867
0.0137047
0.013724
0.0137447
0.0137669
0.0137903
0.0138148
0.0138401
0.0138662
0.0138938
0.0139231
0.0139504
0.0139736
0.0140085
0.0140333
0.01402
0.0134683
0.0134679
0.0134674
0.013467
0.0134665
0.013466
0.0134656
0.0134652
0.0134648
0.0134646
0.0134645
0.0134647
0.0134651
0.0134659
0.013467
0.0134686
0.0134706
0.0134732
0.0134765
0.0134804
0.0134851
0.0134906
0.0134968
0.0135039
0.013512
0.0135209
0.0135308
0.0135418
0.0135539
0.0135672
0.0135817
0.0135976
0.0136147
0.0136331
0.0136528
0.0136738
0.0136962
0.0137201
0.0137453
0.0137718
0.0137993
0.0138274
0.0138558
0.0138846
0.0139146
0.0139445
0.0139704
0.0140027
0.0140272
0.0140216
0.0133907
0.01339
0.0133893
0.0133886
0.0133879
0.0133871
0.0133863
0.0133857
0.0133851
0.0133846
0.0133844
0.0133844
0.0133848
0.0133856
0.013387
0.0133889
0.0133914
0.0133946
0.0133986
0.0134036
0.0134094
0.0134161
0.0134239
0.0134327
0.0134425
0.0134536
0.0134659
0.0134796
0.0134948
0.0135114
0.0135295
0.0135491
0.0135702
0.0135926
0.0136163
0.0136413
0.0136676
0.013695
0.0137235
0.0137529
0.0137832
0.0138143
0.0138456
0.0138767
0.0139074
0.0139391
0.0139684
0.0139987
0.0140215
0.0140218
0.0133052
0.0133042
0.0133033
0.0133022
0.0133012
0.0133001
0.0132991
0.0132981
0.0132973
0.0132967
0.0132963
0.0132963
0.0132968
0.0132979
0.0132996
0.0133021
0.0133054
0.0133095
0.0133147
0.013321
0.0133284
0.0133369
0.0133467
0.0133577
0.01337
0.0133838
0.0133991
0.013416
0.0134346
0.0134549
0.013477
0.0135007
0.0135261
0.0135531
0.0135814
0.013611
0.0136415
0.0136729
0.0137049
0.0137376
0.0137707
0.0138043
0.0138383
0.0138717
0.0139036
0.0139345
0.0139663
0.0139962
0.0140174
0.0140212
0.0132109
0.0132096
0.0132082
0.0132068
0.0132053
0.0132038
0.0132024
0.0132011
0.0132
0.0131991
0.0131987
0.0131986
0.0131993
0.0132008
0.0132031
0.0132063
0.0132105
0.0132158
0.0132225
0.0132305
0.0132399
0.0132506
0.0132629
0.0132767
0.0132921
0.0133092
0.0133281
0.013349
0.0133718
0.0133965
0.0134232
0.0134518
0.0134821
0.0135141
0.0135473
0.0135816
0.0136167
0.0136523
0.0136881
0.0137239
0.0137599
0.013796
0.0138323
0.013868
0.0139015
0.0139317
0.0139646
0.0139956
0.0140146
0.0140202
0.0131065
0.0131048
0.0131029
0.0131009
0.0130989
0.013097
0.013095
0.0130933
0.0130918
0.0130908
0.0130902
0.0130902
0.0130912
0.0130931
0.0130961
0.0131002
0.0131057
0.0131127
0.0131212
0.0131314
0.0131432
0.0131567
0.0131719
0.013189
0.0132081
0.0132292
0.0132525
0.0132779
0.0133056
0.0133356
0.0133676
0.0134017
0.0134376
0.0134751
0.0135138
0.0135533
0.0135932
0.0136332
0.0136729
0.013712
0.0137507
0.0137891
0.0138274
0.0138653
0.0139005
0.0139309
0.0139633
0.0139974
0.0140129
0.0140188
0.0129912
0.0129889
0.0129864
0.0129838
0.0129812
0.0129786
0.0129761
0.0129739
0.012972
0.0129707
0.0129701
0.0129701
0.0129715
0.012974
0.012978
0.0129834
0.0129905
0.0129994
0.0130103
0.013023
0.0130378
0.0130546
0.0130735
0.0130946
0.013118
0.0131439
0.0131722
0.013203
0.0132364
0.0132723
0.0133104
0.0133507
0.0133928
0.0134364
0.0134809
0.013526
0.0135711
0.0136157
0.0136594
0.0137018
0.0137431
0.0137835
0.0138236
0.0138633
0.0139003
0.0139308
0.0139623
0.0139994
0.0140121
0.0140171
0.0128641
0.012861
0.0128577
0.0128544
0.0128509
0.0128476
0.0128444
0.0128416
0.0128393
0.0128377
0.012837
0.0128372
0.0128391
0.0128426
0.0128477
0.0128547
0.0128639
0.0128753
0.012889
0.012905
0.0129233
0.0129441
0.0129673
0.0129932
0.0130217
0.0130531
0.0130873
0.0131244
0.0131644
0.0132069
0.013252
0.0132992
0.0133481
0.0133983
0.0134492
0.0135002
0.0135506
0.0136
0.0136476
0.0136933
0.0137371
0.0137793
0.0138208
0.013862
0.0139007
0.0139313
0.0139617
0.0140012
0.0140123
0.0140154
0.0127244
0.0127203
0.0127161
0.0127117
0.0127073
0.0127031
0.0126991
0.0126956
0.0126928
0.0126909
0.0126901
0.0126908
0.0126934
0.012698
0.0127046
0.0127137
0.0127255
0.0127398
0.0127569
0.0127767
0.0127993
0.0128247
0.0128531
0.0128845
0.0129191
0.012957
0.0129981
0.0130424
0.0130897
0.0131399
0.0131927
0.0132475
0.0133038
0.0133611
0.0134187
0.0134759
0.0135318
0.0135859
0.0136376
0.0136864
0.0137325
0.0137763
0.0138189
0.0138612
0.0139014
0.0139321
0.0139615
0.0140016
0.0140143
0.0140136
0.0125712
0.012566
0.0125606
0.012555
0.0125494
0.012544
0.012539
0.0125347
0.0125313
0.0125292
0.0125284
0.0125297
0.0125332
0.0125392
0.0125478
0.0125595
0.0125743
0.0125923
0.0126134
0.0126378
0.0126654
0.0126963
0.0127307
0.0127686
0.0128103
0.0128556
0.0129046
0.0129571
0.0130129
0.0130716
0.0131329
0.013196
0.0132604
0.0133253
0.0133899
0.0134533
0.0135148
0.0135737
0.0136292
0.013681
0.0137292
0.0137743
0.0138177
0.0138608
0.0139024
0.0139333
0.0139616
0.0140016
0.014015
0.0140119
0.012404
0.0123973
0.0123904
0.0123833
0.0123763
0.0123696
0.0123634
0.0123581
0.0123541
0.0123517
0.0123509
0.012353
0.0123577
0.0123655
0.0123767
0.0123915
0.0124101
0.0124323
0.0124582
0.0124878
0.0125213
0.0125586
0.0126
0.0126455
0.0126952
0.0127491
0.012807
0.0128689
0.0129342
0.0130024
0.013073
0.0131453
0.0132182
0.0132911
0.0133629
0.0134328
0.0134998
0.0135632
0.0136223
0.0136769
0.013727
0.0137732
0.0138171
0.0138607
0.0139036
0.0139346
0.013962
0.0140013
0.0140151
0.0140104
0.0122219
0.0122135
0.0122047
0.0121959
0.0121871
0.0121788
0.0121713
0.0121649
0.0121602
0.0121576
0.012157
0.01216
0.0121664
0.0121766
0.0121909
0.0122095
0.0122324
0.0122595
0.012291
0.0123267
0.0123669
0.0124116
0.012461
0.0125151
0.012574
0.0126377
0.0127058
0.0127781
0.012854
0.0129327
0.0130136
0.0130955
0.0131776
0.0132588
0.013338
0.0134142
0.0134866
0.0135544
0.013617
0.0136741
0.0137257
0.0137728
0.013817
0.0138609
0.0139049
0.013936
0.0139625
0.014001
0.014015
0.014009
0.0120234
0.0120128
0.012002
0.0119911
0.0119804
0.0119703
0.0119613
0.0119539
0.0119486
0.011946
0.0119457
0.0119501
0.0119587
0.0119719
0.01199
0.0120131
0.0120411
0.0120739
0.0121118
0.0121546
0.0122025
0.0122556
0.0123141
0.012378
0.0124473
0.0125219
0.0126014
0.0126852
0.0127728
0.0128631
0.0129549
0.0130473
0.0131389
0.0132287
0.0133153
0.0133978
0.0134754
0.0135472
0.0136129
0.0136722
0.0137253
0.013773
0.0138174
0.0138613
0.0139062
0.0139374
0.0139631
0.0140007
0.0140147
0.0140078
0.011807
0.0117941
0.0117809
0.0117677
0.0117549
0.0117429
0.0117325
0.011724
0.0117183
0.0117158
0.0117164
0.0117227
0.0117342
0.0117512
0.0117738
0.0118021
0.011836
0.0118754
0.0119205
0.0119713
0.012028
0.0120906
0.0121594
0.0122344
0.0123154
0.0124022
0.0124943
0.0125909
0.0126912
0.0127939
0.0128976
0.0130009
0.0131025
0.0132009
0.0132949
0.0133836
0.013466
0.0135416
0.01361
0.0136712
0.0137254
0.0137736
0.013818
0.0138618
0.0139074
0.0139388
0.0139637
0.0140004
0.0140145
0.0140067
0.0115717
0.0115562
0.0115404
0.0115247
0.0115097
0.0114959
0.011484
0.0114748
0.011469
0.0114668
0.0114696
0.0114783
0.0114933
0.0115146
0.0115424
0.0115766
0.0116172
0.0116641
0.0117174
0.0117772
0.0118437
0.0119171
0.0119974
0.0120847
0.0121787
0.0122791
0.0123851
0.0124957
0.0126097
0.0127257
0.012842
0.0129567
0.0130684
0.0131756
0.0132769
0.0133714
0.0134583
0.0135373
0.0136081
0.0136709
0.013726
0.0137745
0.0138188
0.0138623
0.0139087
0.0139401
0.0139643
0.0140001
0.0140142
0.0140059
0.0113166
0.0112982
0.0112796
0.0112613
0.011244
0.0112284
0.0112153
0.0112055
0.0112
0.0111984
0.011204
0.0112162
0.0112355
0.0112621
0.0112959
0.0113369
0.011385
0.0114402
0.0115027
0.0115725
0.01165
0.0117353
0.0118285
0.0119294
0.0120379
0.0121531
0.0122744
0.0124002
0.0125291
0.0126592
0.0127886
0.0129151
0.013037
0.0131528
0.0132612
0.0133612
0.0134522