/*--------------------------------*- C++ -*----------------------------------*\
  =========                 |
  \\      /  F ield         | OpenFOAM: The Open Source CFD Toolbox
   \\    /   O peration     | Website:  https://openfoam.org
    \\  /    A nd           | Version:  9
     \\/     M anipulation  |
\*---------------------------------------------------------------------------*/
FoamFile
{
    format      ascii;
    class       surfaceScalarField;
    location    "0.005";
    object      phi;
}
// * * * * * * * * * * * * * * * * * * * * * * * * * * * * * * * * * * * * * //

dimensions      [1 0 -1 0 0 0 0];

internalField   nonuniform List<scalar> 
9994
(
-0.28948
0.00128753
-0.28939
0.00127659
-0.289295
0.00126567
-0.289194
0.00125476
-0.289088
0.00124388
-0.288976
0.00123302
-0.288857
0.00122219
-0.288732
0.00121138
-0.288599
0.00120059
-0.288459
0.00118983
-0.28831
0.0011791
-0.288152
0.00116839
-0.287985
0.00115771
-0.287807
0.00114706
-0.287619
0.00113647
-0.28742
0.00112598
-0.287209
0.00111589
-0.286986
0.00110585
-0.286748
0.0010958
-0.286497
0.00108577
-0.28623
0.00107577
-0.285947
0.00106577
-0.285646
0.00105573
-0.285325
0.00104569
-0.284985
0.00103582
-0.284624
0.00102575
0.00101297
-0.284238
-0.279335
0.00129919
-0.279345
0.00128586
-0.279351
0.00127241
-0.279355
0.00125882
-0.279357
0.00124508
-0.279355
0.00123118
-0.27935
0.0012171
-0.279341
0.00120284
-0.279329
0.00118837
-0.279313
0.00117368
-0.279292
0.0011588
-0.279268
0.00114385
-0.279239
0.00112863
-0.279205
0.00111306
-0.279166
0.00109715
-0.279121
0.00108093
-0.279069
0.00106463
-0.279011
0.0010479
-0.278946
0.00103067
-0.278873
0.00101291
-0.278792
0.000994593
-0.278702
0.000975673
-0.278602
0.000956111
-0.278493
0.000935791
-0.278371
0.000914474
-0.278237
0.000891704
0.000867155
-0.278091
-0.262162
0.00129671
-0.26216
0.00128376
-0.262159
0.00127081
-0.262158
0.00125785
-0.262157
0.00124492
-0.262158
0.00123213
-0.262161
0.00121932
-0.262164
0.00120649
-0.262169
0.00119365
-0.262177
0.0011808
-0.262186
0.00116798
-0.262197
0.00115535
-0.262211
0.00114271
-0.262228
0.00113001
-0.262248
0.00111728
-0.262272
0.00110451
-0.262299
0.00109171
-0.26233
0.00107888
-0.262365
0.00106603
-0.262406
0.00105314
-0.262451
0.00104021
-0.262503
0.00102722
-0.262561
0.00101418
-0.262626
0.00100107
-0.262699
0.000987771
-0.262782
0.000974116
0.000959035
-0.262874
-0.246971
0.00128027
-0.246954
0.00126605
-0.246935
0.0012518
-0.246914
0.00123755
-0.246893
0.00122331
-0.24687
0.0012092
-0.246846
0.00119506
-0.24682
0.0011809
-0.246793
0.00116673
-0.246765
0.00115255
-0.246735
0.00113836
-0.246704
0.00112418
-0.246671
0.00111
-0.246637
0.00109583
-0.246602
0.00108167
-0.246565
0.00106752
-0.246526
0.0010534
-0.246487
0.00103931
-0.246446
0.00102526
-0.246404
0.00101126
-0.246361
0.000997302
-0.246317
0.000983376
-0.246273
0.000969482
-0.246227
0.000955662
-0.246181
0.000941955
-0.246135
0.00092825
0.000914143
-0.246091
-0.232767
0.0012834
-0.23277
0.00126874
-0.232772
0.0012541
-0.232774
0.00123946
-0.232775
0.00122484
-0.232776
0.00121024
-0.232777
0.00119565
-0.232777
0.00118107
-0.232777
0.00116652
-0.232776
0.00115199
-0.232776
0.00113749
-0.232774
0.00112301
-0.232773
0.00110856
-0.232771
0.00109415
-0.232769
0.00107982
-0.232767
0.00106558
-0.232765
0.00105136
-0.232763
0.00103717
-0.232761
0.00102301
-0.232759
0.00100889
-0.232756
0.000994793
-0.232753
0.000980735
-0.232751
0.000966722
-0.232748
0.000952737
-0.232745
0.000938704
-0.232741
0.000924523
0.000909914
-0.232737
-0.219057
0.00127404
-0.219047
0.0012583
-0.219035
0.00124259
-0.219023
0.00122691
-0.219009
0.00121127
-0.218994
0.00119566
-0.218979
0.00118009
-0.218962
0.00116458
-0.218945
0.00114911
-0.218927
0.0011337
-0.218907
0.00111834
-0.218888
0.00110305
-0.218867
0.00108783
-0.218845
0.00107269
-0.218823
0.00105766
-0.2188
0.00104277
-0.218777
0.00102795
-0.218753
0.0010132
-0.218729
0.000998541
-0.218704
0.000983968
-0.218678
0.000969489
-0.218653
0.000955105
-0.218627
0.00094081
-0.218601
0.0009266
-0.218574
0.000912485
-0.218548
0.000898417
0.000884256
-0.218523
-0.206439
0.00126989
-0.206433
0.00125296
-0.206427
0.00123608
-0.206419
0.00121923
-0.20641
0.00120242
-0.2064
0.00118566
-0.206389
0.00116895
-0.206377
0.0011523
-0.206364
0.0011357
-0.206349
0.00111916
-0.206333
0.00110269
-0.206317
0.00108629
-0.206299
0.00106996
-0.20628
0.00105371
-0.20626
0.00103754
-0.206238
0.00102146
-0.206216
0.00100546
-0.206192
0.00098955
-0.206167
0.000973736
-0.206141
0.000958018
-0.206114
0.0009424
-0.206086
0.000926886
-0.206057
0.000911484
-0.206026
0.000896196
-0.205995
0.000881009
-0.205962
0.000865924
0.000850964
-0.205929
-0.194265
0.00125979
-0.194254
0.00124147
-0.194241
0.0012232
-0.194227
0.00120498
-0.194211
0.00118683
-0.194194
0.00116874
-0.194176
0.00115072
-0.194156
0.00113278
-0.194135
0.00111492
-0.194113
0.00109715
-0.19409
0.00107946
-0.194066
0.00106187
-0.19404
0.00104438
-0.194014
0.00102699
-0.193986
0.00100972
-0.193957
0.000992553
-0.193927
0.000975505
-0.193896
0.000958578
-0.193864
0.000941776
-0.193831
0.000925102
-0.193797
0.000908561
-0.193762
0.000892155
-0.193727
0.000875886
-0.19369
0.000859759
-0.193653
0.000843791
-0.193615
0.000827995
0.000812414
-0.193577
-0.182999
0.00124943
-0.182987
0.00122945
-0.182974
0.00120953
-0.182958
0.00118969
-0.182941
0.00116991
-0.182923
0.00115022
-0.182903
0.00113061
-0.182881
0.00111109
-0.182858
0.00109167
-0.182833
0.00107235
-0.182807
0.00105315
-0.182779
0.00103405
-0.18275
0.00101508
-0.182719
0.000996228
-0.182687
0.000977508
-0.182653
0.000958923
-0.182618
0.000940479
-0.182581
0.000922179
-0.182544
0.000904029
-0.182505
0.000886033
-0.182464
0.000868195
-0.182423
0.000850521
-0.18238
0.000833016
-0.182336
0.000815683
-0.18229
0.000798522
-0.182244
0.000781544
0.000764792
-0.182196
-0.172304
0.00123571
-0.172288
0.00121388
-0.172271
0.00119212
-0.172252
0.00117045
-0.172231
0.00114888
-0.172208
0.00112741
-0.172183
0.00110604
-0.172157
0.00108479
-0.172129
0.00106367
-0.172099
0.00104267
-0.172068
0.0010218
-0.172035
0.00100108
-0.172
0.00098051
-0.171964
0.000960091
-0.171927
0.000939834
-0.171887
0.000919742
-0.171847
0.000899824
-0.171805
0.000880083
-0.171761
0.000860525
-0.171716
0.000841155
-0.17167
0.00082198
-0.171622
0.000803002
-0.171574
0.000784227
-0.171524
0.000765659
-0.171472
0.00074731
-0.17142
0.000729194
0.000711359
-0.171367
-0.162331
0.00121985
-0.162313
0.0011959
-0.162293
0.00117204
-0.16227
0.00114829
-0.162246
0.00112466
-0.16222
0.00110115
-0.162192
0.00107777
-0.162161
0.00105453
-0.162129
0.00103144
-0.162095
0.0010085
-0.162059
0.000985737
-0.162021
0.000963142
-0.161981
0.000940728
-0.16194
0.000918501
-0.161896
0.00089647
-0.161851
0.000874641
-0.161804
0.000853021
-0.161756
0.000831617
-0.161706
0.000810435
-0.161654
0.000789481
-0.161601
0.000768761
-0.161546
0.000748282
-0.16149
0.000728048
-0.161432
0.000708066
-0.161373
0.000688341
-0.161313
0.000668887
0.000649759
-0.161252
-0.152922
0.00120102
-0.152901
0.00117472
-0.152877
0.00114854
-0.152852
0.00112249
-0.152824
0.00109658
-0.152793
0.00107082
-0.152761
0.00104523
-0.152726
0.0010198
-0.152689
0.000994559
-0.15265
0.000969508
-0.152609
0.000944658
-0.152566
0.000920018
-0.152521
0.000895597
-0.152474
0.000871404
-0.152425
0.000847448
-0.152374
0.000823736
-0.152321
0.000800278
-0.152266
0.00077708
-0.15221
0.000754151
-0.152152
0.000731497
-0.152093
0.000709125
-0.152031
0.000687042
-0.151968
0.000665254
-0.151904
0.000643768
-0.151838
0.000622593
-0.151771
0.000601748
0.00058129
-0.151703
-0.14411
0.00117939
-0.144085
0.00115048
-0.144059
0.00112172
-0.144029
0.00109311
-0.143997
0.00106468
-0.143963
0.00103642
-0.143926
0.00100837
-0.143887
0.000980519
-0.143845
0.00095289
-0.143801
0.000925491
-0.143755
0.000898335
-0.143706
0.000871432
-0.143655
0.000844793
-0.143602
0.000818428
-0.143547
0.000792348
-0.14349
0.000766562
-0.143431
0.00074108
-0.14337
0.000715911
-0.143307
0.000691064
-0.143242
0.000666548
-0.143175
0.00064237
-0.143107
0.000618539
-0.143036
0.000595061
-0.142964
0.000571945
-0.142891
0.000549199
-0.142816
0.000526843
0.000504939
-0.14274
-0.135815
0.0011547
-0.135788
0.00112294
-0.135757
0.00109135
-0.135724
0.00105995
-0.135688
0.00102876
-0.13565
0.000997782
-0.135608
0.000967044
-0.135564
0.000936555
-0.135518
0.000906328
-0.135469
0.000876378
-0.135417
0.000846717
-0.135363
0.000817359
-0.135306
0.000788316
-0.135248
0.000759601
-0.135186
0.000731225
-0.135123
0.000703201
-0.135058
0.000675539
-0.13499
0.000648251
-0.13492
0.000621346
-0.134848
0.000594835
-0.134775
0.000568728
-0.134699
0.000543033
-0.134622
0.000517759
-0.134543
0.000492915
-0.134462
0.000468512
-0.13438
0.000444571
0.000421161
-0.134296
-0.128028
0.00112693
-0.127997
0.00109206
-0.127963
0.00105739
-0.127926
0.00102295
-0.127886
0.000988756
-0.127843
0.000954823
-0.127798
0.000921168
-0.127749
0.000887808
-0.127697
0.00085476
-0.127643
0.000822038
-0.127586
0.000789659
-0.127526
0.000757639
-0.127464
0.000725991
-0.127399
0.000694732
-0.127332
0.000663874
-0.127262
0.000633431
-0.12719
0.000603418
-0.127115
0.000573846
-0.127039
0.000544729
-0.12696
0.000516077
-0.126879
0.000487903
-0.126796
0.000460216
-0.126711
0.000433029
-0.126625
0.000406349
-0.126537
0.00038019
-0.126447
0.000354575
0.000329579
-0.126355
-0.120734
0.00113447
-0.120703
0.00109601
-0.120668
0.00105778
-0.120631
0.0010198
-0.12059
0.000982086
-0.120546
0.000944659
-0.120499
0.000907539
-0.120448
0.000870745
-0.120395
0.000834297
-0.120338
0.000798214
-0.120279
0.000762514
-0.120216
0.000727215
-0.120151
0.000692335
-0.120083
0.000657892
-0.120012
0.000623903
-0.119938
0.000590385
-0.119862
0.000557353
-0.119784
0.000524824
-0.119703
0.000492813
-0.119619
0.000461335
-0.119534
0.000430404
-0.119446
0.000400033
-0.119356
0.000370235
-0.119264
0.000341023
-0.11917
0.000312408
-0.119074
0.000284406
-0.118976
0.00025704
0.000230393
-0.118877
-0.11385
0.00110404
-0.113816
0.00106196
-0.113778
0.00102014
-0.113737
0.000978616
-0.113692
0.000937398
-0.113644
0.000896514
-0.113592
0.000855985
-0.113537
0.000815834
-0.113479
0.000776083
-0.113418
0.000736753
-0.113353
0.000697865
-0.113285
0.000659441
-0.113215
0.000621502
-0.113141
0.000584068
-0.113064
0.000547159
-0.112984
0.000510796
-0.112902
0.000474996
-0.112817
0.00043978
-0.112729
0.000405166
-0.112639
0.000371171
-0.112547
0.000337813
-0.112452
0.000305107
-0.112354
0.000273069
-0.112255
0.000241715
-0.112154
0.000211059
-0.112051
0.000181118
-0.111945
0.000151919
0.000123549
-0.111839
-0.107371
0.00107075
-0.107334
0.00102483
-0.107293
0.000979216
-0.107248
0.000933933
-0.1072
0.000889006
-0.107148
0.000844459
-0.107092
0.000800318
-0.107033
0.000756607
-0.10697
0.000713351
-0.106904
0.000670574
-0.106834
0.000628301
-0.106761
0.000586556
-0.106685
0.000545363
-0.106606
0.000504746
-0.106523
0.00046473
-0.106438
0.000425337
-0.10635
0.00038659
-0.106258
0.000348513
-0.106164
0.000311127
-0.106068
0.000274454
-0.105968
0.000238515
-0.105867
0.000203331
-0.105762
0.000168919
-0.105656
0.0001353
-0.105547
0.00010249
-0.105437
7.05099e-05
-0.105324
3.93914e-05
9.22574e-06
-0.10521
-0.101272
0.00103469
-0.101232
0.000984752
-0.101188
0.00093516
-0.10114
0.000885941
-0.101088
0.000837122
-0.101032
0.00078873
-0.100973
0.000740791
-0.100909
0.000693334
-0.100842
0.000646385
-0.100772
0.000599971
-0.100698
0.000554121
-0.10062
0.000508862
-0.100539
0.000464222
-0.100454
0.00042023
-0.100366
0.000376912
-0.100275
0.000334298
-0.100181
0.000292416
-0.100084
0.000251291
-0.0999838
0.000210953
-0.0998808
0.000171427
-0.099775
0.00013274
-0.0996666
9.49165e-05
-0.0995557
5.79809e-05
-0.0994423
2.19564e-05
-0.0993267
-1.31342e-05
-0.0992089
-4.72669e-05
-0.0990891
-8.04051e-05
-0.000112451
-0.0989674
-0.095526
0.000996029
-0.0954832
0.000941931
-0.0954362
0.00088822
-0.0953852
0.000834921
-0.0953302
0.000782063
-0.0952711
0.000729673
-0.0952081
0.000677781
-0.0951412
0.000626415
-0.0950704
0.000575604
-0.0949958
0.00052538
-0.0949175
0.000475774
-0.0948354
0.000426816
-0.0947497
0.000378539
-0.0946605
0.000330977
-0.0945677
0.000284162
-0.0944716
0.000238127
-0.0943721
0.000192908
-0.0942693
0.000148537
-0.0941634
0.000105049
-0.0940544
6.24766e-05
-0.0939426
2.08526e-05
-0.0938278
-1.9791e-05
-0.0937104
-5.9423e-05
-0.0935905
-9.80137e-05
-0.0934681
-0.000135534
-0.0933434
-0.000171954
-0.0932166
-0.00020723
-0.000241258
-0.0930878
-0.0901104
0.000955009
-0.0900651
0.000896667
-0.0900156
0.000838744
-0.089962
0.000781267
-0.0899042
0.000724264
-0.0898422
0.000667762
-0.0897763
0.00061179
-0.0897062
0.00055638
-0.0896322
0.000501563
-0.0895542
0.000447371
-0.0894722
0.000393839
-0.0893864
0.000341003
-0.0892968
0.0002889
-0.0892034
0.000237569
-0.0891063
0.000187049
-0.0890055
0.000137382
-0.0889012
8.86072e-05
-0.0887934
4.07684e-05
-0.0886823
-6.09289e-06
-0.0885679
-5.19342e-05
-0.0884503
-9.67137e-05
-0.0883297
-0.00014039
-0.0882062
-0.000182923
-0.08808
-0.000224274
-0.0879511
-0.000264404
-0.0878198
-0.000303275
-0.0876862
-0.000340835
-0.000376973
-0.0875505
-0.0850029
0.000911961
-0.0849556
0.000849347
-0.0849041
0.000787179
-0.0848483
0.00072548
-0.0847883
0.000664275
-0.0847241
0.00060359
-0.0846558
0.000543454
-0.0845833
0.000483897
-0.0845067
0.000424953
-0.084426
0.000366656
-0.0843412
0.000309044
-0.0842523
0.000252158
-0.0841595
0.00019604
-0.0840626
0.000140736
-0.0839619
8.62922e-05
-0.0838573
3.2759e-05
-0.0837488
-1.98129e-05
-0.0836367
-7.1371e-05
-0.0835209
-0.000121862
-0.0834016
-0.000171231
-0.0832789
-0.000219425
-0.0831529
-0.000266388
-0.0830238
-0.000312069
-0.0828916
-0.000356416
-0.0827567
-0.000399378
-0.082619
-0.000440904
-0.0824789
-0.000480933
-0.000519341
-0.0823366
-0.0801838
0.000867285
-0.0801349
0.000800447
-0.0800818
0.000734067
-0.0800245
0.000668164
-0.079963
0.000602757
-0.0798973
0.000537869
-0.0798273
0.000473527
-0.0797532
0.000409759
-0.0796748
0.000346599
-0.0795923
0.000284083
-0.0795055
0.000222251
-0.0794145
0.00016115
-0.0793192
0.000100826
-0.0792198
4.1335e-05
-0.0791163
-1.72684e-05
-0.0790086
-7.49235e-05
-0.0788968
-0.000131567
-0.0787811
-0.000187133
-0.0786614
-0.000241553
-0.0785379
-0.000294757
-0.0784106
-0.000346674
-0.0782798
-0.000397233
-0.0781455
-0.000446363
-0.0780079
-0.000493996
-0.0778672
-0.000540065
-0.0777236
-0.000584503
-0.0775773
-0.000627232
-0.000668115
-0.0774285
-0.0756339
0.000821452
-0.075584
0.000750514
-0.0755299
0.000680031
-0.0754718
0.000610011
-0.0754095
0.000540466
-0.075343
0.000471414
-0.0752724
0.000402875
-0.0751975
0.000334875
-0.0751183
0.000267445
-0.0750349
0.000200621
-0.0749471
0.000134448
-0.0748549
6.89739e-05
-0.0747583
4.25472e-06
-0.0746574
-5.96482e-05
-0.074552
-0.000122667
-0.0744421
-0.00018473
-0.074328
-0.000245756
-0.0742094
-0.000305663
-0.0740866
-0.000364363
-0.0739596
-0.000421765
-0.0738285
-0.000477777
-0.0736934
-0.000532305
-0.0735545
-0.000585254
-0.073412
-0.000636533
-0.073266
-0.000686051
-0.0731168
-0.000733719
-0.0729646
-0.000779439
-0.000823055
-0.0728097
-0.0713353
0.000774982
-0.0712849
0.000700155
-0.0712306
0.000625756
-0.0711724
0.000551782
-0.0711102
0.000478235
-0.0710439
0.000405119
-0.0709735
0.000332449
-0.0708988
0.000260243
-0.0708199
0.000188529
-0.0707366
0.000117342
-0.0706489
4.67259e-05
-0.0705567
-2.32659e-05
-0.0704598
-9.25719e-05
-0.0703584
-0.000161121
-0.0702522
-0.000228834
-0.0701413
-0.000295619
-0.0700257
-0.000361381
-0.0699053
-0.000426013
-0.0697803
-0.000489405
-0.0696506
-0.000551437
-0.0695164
-0.00061199
-0.0693778
-0.000670938
-0.0692349
-0.000728156
-0.0690879
-0.000783521
-0.068937
-0.00083691
-0.0687825
-0.000888204
-0.0686247
-0.000937278
-0.00098395
-0.0684638
-0.0672711
0.000728434
-0.0672209
0.000650013
-0.0671672
0.00057197
-0.0671097
0.000494284
-0.0670484
0.00041694
-0.0669832
0.000339931
-0.066914
0.000263256
-0.0668407
0.000186926
-0.0667631
0.00011096
-0.0666811
3.53897e-05
-0.0665947
-3.97428e-05
-0.0665036
-0.000114383
-0.0664077
-0.000188462
-0.0663069
-0.0002619
-0.0662011
-0.000334602
-0.0660903
-0.00040646
-0.0659743
-0.000477355
-0.0658532
-0.000547154
-0.0657268
-0.000615716
-0.0655954
-0.000682888
-0.0654589
-0.000748512
-0.0653174
-0.000812424
-0.0651711
-0.000874456
-0.0650202
-0.000934443
-0.0648649
-0.00099222
-0.0647054
-0.00104763
-0.0645422
-0.0011005
-0.00115063
-0.0643755
-0.0634259
0.000682375
-0.0633766
0.000600742
-0.0633241
0.000519409
-0.0632681
0.000438333
-0.0632087
0.000357477
-0.0631456
0.000276815
-0.0630786
0.000196329
-0.0630077
0.000116015
-0.0629326
3.58817e-05
-0.0628532
-4.40486e-05
-0.0627692
-0.000123738
-0.0626805
-0.000203134
-0.0625868
-0.000282161
-0.0624879
-0.000360732
-0.0623838
-0.000438736
-0.0622742
-0.000516046
-0.062159
-0.000592517
-0.0620382
-0.000667984
-0.0619117
-0.000742267
-0.0617794
-0.000815174
-0.0616414
-0.000886496
-0.0614978
-0.000956019
-0.0613487
-0.00102352
-0.0611944
-0.00108878
-0.061035
-0.00115157
-0.060871
-0.00121169
-0.0607026
-0.00126891
-0.00132298
-0.0605302
-0.0597858
0.000637371
-0.0597381
0.000552988
-0.0596875
0.000468798
-0.0596339
0.00038473
-0.0595771
0.000300721
-0.059517
0.000216718
-0.0594534
0.000132684
-0.0593859
4.8592e-05
-0.0593145
-3.55656e-05
-0.0592388
-0.000119781
-0.0591585
-0.000204026
-0.0590734
-0.00028825
-0.0589831
-0.000372382
-0.0588875
-0.000456322
-0.0587863
-0.00053995
-0.0586793
-0.000623117
-0.0585661
-0.000705647
-0.0584468
-0.000787341
-0.0583211
-0.000867975
-0.0581889
-0.000947301
-0.0580504
-0.00102505
-0.0579054
-0.00110095
-0.0577543
-0.0011747
-0.057597
-0.00124601
-0.057434
-0.00131458
-0.0572656
-0.00138012
-0.0570921
-0.00144235
-0.00150095
-0.0569142
-0.0563384
0.000593952
-0.0562928
0.000507353
-0.0562448
0.000420812
-0.0561943
0.000334223
-0.0561411
0.000247491
-0.0560849
0.000160535
-0.0560255
7.32848e-05
-0.0559626
-1.43101e-05
-0.0558959
-0.000102284
-0.055825
-0.000190649
-0.0557496
-0.000279393
-0.0556694
-0.000368477
-0.055584
-0.000457833
-0.0554929
-0.000547363
-0.0553959
-0.000636932
-0.0552927
-0.000726373
-0.0551828
-0.000815481
-0.0550662
-0.000904016
-0.0549424
-0.000991702
-0.0548115
-0.00107823
-0.0546733
-0.00116326
-0.0545278
-0.00124642
-0.0543752
-0.00132734
-0.0542156
-0.00140563
-0.0540493
-0.00148088
-0.0538767
-0.00155271
-0.0536983
-0.00162074
-0.00168458
-0.0535147
-0.0530726
0.000552604
-0.0530297
0.000464379
-0.0529849
0.00037605
-0.0529382
0.000287474
-0.0528892
0.000198519
-0.0528377
0.000109063
-0.0527834
1.90028e-05
-0.052726
-7.17487e-05
-0.052665
-0.000163258
-0.0526001
-0.000255567
-0.0525308
-0.000348688
-0.0524567
-0.000442603
-0.0523773
-0.000537258
-0.0522921
-0.000632557
-0.0522006
-0.000728366
-0.0521025
-0.000824498
-0.0519973
-0.000920722
-0.0518845
-0.00101675
-0.051764
-0.00111226
-0.0516353
-0.00120686
-0.0514984
-0.00130013
-0.0513533
-0.00139159
-0.0511999
-0.00148076
-0.0510384
-0.00156711
-0.0508691
-0.00165012
-0.0506926
-0.00172927
-0.0505093
-0.00180406
-0.00187398
-0.0503199
-0.0499786
0.000513727
-0.0499387
0.000424511
-0.0498976
0.000335008
-0.0498552
0.000245033
-0.0498111
0.00015441
-0.049765
6.29748e-05
-0.0497166
-2.94212e-05
-0.0496654
-0.000122909
-0.0496111
-0.000217595
-0.0495531
-0.000313563
-0.0494909
-0.000410861
-0.049424
-0.000509504
-0.0493518
-0.000609461
-0.0492737
-0.000710657
-0.0491891
-0.000812959
-0.0490974
-0.000916176
-0.0489981
-0.00102005
-0.0488906
-0.00112427
-0.0487744
-0.00122842
-0.0486492
-0.00133206
-0.0485147
-0.00143464
-0.0483707
-0.00153558
-0.0482173
-0.00163424
-0.0480544
-0.00172993
-0.0478826
-0.00182197
-0.0477022
-0.00190967
-0.0475139
-0.00199235
-0.00206936
-0.0473185
-0.0470472
0.000477643
-0.0470108
0.000388093
-0.0469738
0.000298061
-0.0469361
0.000207314
-0.0468973
0.000115627
-0.0468571
2.27873e-05
-0.0468152
-7.14053e-05
-0.0467709
-0.000167134
-0.046724
-0.000264559
-0.0466737
-0.000363814
-0.0466196
-0.000464999
-0.0465609
-0.000568174
-0.046497
-0.000673352
-0.0464272
-0.000780487
-0.0463507
-0.00088947
-0.0462667
-0.00100012
-0.0461746
-0.00111216
-0.0460737
-0.00122524
-0.0459632
-0.00133891
-0.0458426
-0.00145262
-0.0457115
-0.00156571
-0.0455697
-0.00167745
-0.0454169
-0.00178702
-0.0452533
-0.00189355
-0.0450791
-0.00199611
-0.044895
-0.00209379
-0.0447017
-0.0021857
-0.00227099
-0.0445
-0.0442704
0.000444565
-0.0442376
0.000355349
-0.044205
0.000265447
-0.0441723
0.000174579
-0.0441391
8.24675e-05
-0.0441052
-1.11554e-05
-0.04407
-0.000106548
-0.0440332
-0.000203954
-0.0439942
-0.000303597
-0.0439523
-0.000405676
-0.043907
-0.000510357
-0.0438574
-0.000617765
-0.0438027
-0.000727972
-0.0437422
-0.000840987
-0.043675
-0.000956743
-0.0436
-0.00107508
-0.0435164
-0.00119574
-0.0434233
-0.00131835
-0.0433198
-0.00144241
-0.0432052
-0.00156727
-0.0430787
-0.00169216
-0.04294
-0.00181618
-0.0427887
-0.00193828
-0.0426249
-0.00205735
-0.0424488
-0.00217217
-0.0422611
-0.00228155
-0.0420625
-0.00238428
-0.00247925
-0.0418542
-0.0416405
0.000414616
-0.0416116
0.000326387
-0.0415834
0.000237272
-0.0415558
0.00014694
-0.0415283
5.50621e-05
-0.0415008
-3.86906e-05
-0.0414727
-0.000134639
-0.0414436
-0.000233097
-0.0414128
-0.000334361
-0.0413798
-0.00043871
-0.0413437
-0.000546391
-0.0413039
-0.000657614
-0.0412593
-0.000772534
-0.0412091
-0.00089124
-0.0411521
-0.00101373
-0.0410873
-0.00113991
-0.0410134
-0.00126956
-0.0409295
-0.00140229
-0.0408343
-0.00153758
-0.0407269
-0.00167471
-0.0406063
-0.00181277
-0.0404718
-0.00195067
-0.040323
-0.00208712
-0.0401596
-0.00222067
-0.039982
-0.00234978
-0.0397907
-0.00247285
-0.0395867
-0.00258829
-0.00269459
-0.0393714
-0.0391507
0.000387812
-0.0391255
0.000301198
-0.0391017
0.000213508
-0.0390792
0.000124363
-0.0390575
3.33787e-05
-0.0390363
-5.98329e-05
-0.0390153
-0.000155662
-0.0389939
-0.000254496
-0.0389716
-0.000356715
-0.0389476
-0.000462691
-0.0389212
-0.00057277
-0.0388915
-0.000687266
-0.0388576
-0.000806443
-0.0388184
-0.000930502
-0.0387726
-0.00105955
-0.0387189
-0.00119357
-0.038656
-0.00133241
-0.0385826
-0.00147575
-0.0384971
-0.00162305
-0.0383983
-0.00177354
-0.0382848
-0.0019262
-0.0381558
-0.00207971
-0.0380104
-0.0022325
-0.0378483
-0.00238277
-0.0376696
-0.0025285
-0.0374748
-0.00266761
-0.0372652
-0.00279795
-0.00291754
-0.0370422
-0.0367943
0.000364095
-0.0367728
0.000279678
-0.0367533
0.000194015
-0.0367356
0.00010668
-0.0367195
1.72358e-05
-0.0367046
-7.47637e-05
-0.0366904
-0.00016978
-0.0366767
-0.000268281
-0.0366626
-0.000370733
-0.0366477
-0.000477616
-0.0366311
-0.00058939
-0.0366119
-0.000706494
-0.036589
-0.000829327
-0.0365612
-0.000958237
-0.0365273
-0.00109347
-0.0364857
-0.00123515
-0.0364349
-0.00138324
-0.0363731
-0.00153752
-0.0362987
-0.00169749
-0.0362099
-0.00186238
-0.036105
-0.00203104
-0.0359828
-0.00220198
-0.035842
-0.00237331
-0.035682
-0.00254276
-0.0355026
-0.0027078
-0.0353046
-0.00286568
-0.035089
-0.00301355
-0.00314874
-0.0348578
-0.0345653
0.000343329
-0.0345473
0.000261636
-0.0345318
0.000178554
-0.0345188
9.36127e-05
-0.0345079
6.32344e-06
-0.0344988
-8.38104e-05
-0.0344913
-0.00017731
-0.0344848
-0.000274764
-0.0344788
-0.000376687
-0.0344728
-0.000483693
-0.0344658
-0.00059637
-0.034457
-0.000715302
-0.0344453
-0.000841046
-0.0344294
-0.000974116
-0.0344079
-0.001115
-0.0343791
-0.00126393
-0.0343412
-0.00142111
-0.0342923
-0.00158645
-0.0342302
-0.00175958
-0.0341528
-0.00193976
-0.034058
-0.0021258
-0.033944
-0.00231603
-0.033809
-0.00250823
-0.0336522
-0.00269964
-0.0334729
-0.00288703
-0.0332717
-0.00306686
-0.0330499
-0.00323535
-0.00338888
-0.0328098
-0.0324578
0.000325329
-0.032443
0.000246821
-0.0324313
0.000166812
-0.0324225
8.47956e-05
-0.0324164
2.5025e-07
-0.0324128
-8.74258e-05
-0.0324114
-0.000178753
-0.0324117
-0.000274378
-0.0324134
-0.000375011
-0.0324158
-0.000481322
-0.0324181
-0.000594039
-0.0324195
-0.000713916
-0.0324189
-0.000841701
-0.0324148
-0.000978127
-0.032406
-0.00112381
-0.0323906
-0.00127941
-0.0323664
-0.00144526
-0.0323313
-0.00162154
-0.0322828
-0.00180808
-0.0322183
-0.00200426
-0.0321352
-0.00220894
-0.0320309
-0.00242031
-0.0319033
-0.00263584
-0.0317507
-0.00285221
-0.0315723
-0.00306541
-0.0313683
-0.00327089
-0.03114
-0.00346364
-0.00363878
-0.0308901
-0.0304663
0.000309879
-0.0304544
0.000234946
-0.030446
0.000158435
-0.030441
7.98176e-05
-0.0304392
-1.53016e-06
-0.0304406
-8.60727e-05
-0.0304447
-0.000174599
-0.0304514
-0.000267749
-0.0304601
-0.000366306
-0.0304703
-0.00047107
-0.0304815
-0.000582922
-0.0304926
-0.000702777
-0.0305027
-0.000831598
-0.0305105
-0.000970338
-0.0305143
-0.00111995
-0.0305124
-0.00128132
-0.0305025
-0.00145515
-0.0304821
-0.00164195
-0.0304484
-0.00184185
-0.0303981
-0.00205449
-0.0303282
-0.00227886
-0.0302354
-0.00251314
-0.0301167
-0.00275451
-0.0299699
-0.00299906
-0.0297933
-0.00324192
-0.0295869
-0.0034773
-0.029352
-0.00369863
-0.00389924
-0.0290915
-0.028585
0.000296739
-0.0285758
0.0002257
-0.0285704
0.00015303
-0.0285687
7.81786e-05
-0.0285709
6.14197e-07
-0.0285765
-8.04028e-05
-0.0285856
-0.000165525
-0.0285978
-0.000255527
-0.0286129
-0.000351255
-0.0286303
-0.00045364
-0.0286495
-0.000563692
-0.0286698
-0.000682514
-0.0286901
-0.000811276
-0.0287092
-0.000951213
-0.0287256
-0.00110358
-0.0287373
-0.00126963
-0.028742
-0.00145048
-0.0287369
-0.00164705
-0.0287188
-0.00185993
-0.0286842
-0.00208914
-0.028629
-0.00233399
-0.0285494
-0.00259276
-0.0284415
-0.00286245
-0.0283019
-0.00313862
-0.0281285
-0.00341539
-0.0279202
-0.00368556
-0.0276783
-0.00394055
-0.00417134
-0.0274062
-0.0268087
0.000285661
-0.0268018
0.000218763
-0.026799
0.000150228
-0.0268003
7.95114e-05
-0.0268057
6.00291e-06
-0.0268151
-7.09871e-05
-0.0268284
-0.000152188
-0.0268455
-0.000238428
-0.0268662
-0.000330628
-0.02689
-0.000429819
-0.0269165
-0.000537151
-0.0269451
-0.000653897
-0.026975
-0.000781456
-0.0270048
-0.000921342
-0.0270333
-0.00107516
-0.0270583
-0.00124457
-0.0270776
-0.00143117
-0.0270883
-0.00163644
-0.0270867
-0.00186153
-0.0270688
-0.00210704
-0.02703
-0.00237275
-0.0269655
-0.0026573
-0.0268702
-0.00295768
-0.0267399
-0.00326895
-0.0265711
-0.00358422
-0.026362
-0.00389468
-0.0261132
-0.00418931
-0.0044558
-0.0258288
-0.0251318
0.000276405
-0.0251269
0.000213831
-0.0251263
0.000149644
-0.0251301
8.33062e-05
-0.0251382
1.41867e-05
-0.0251508
-5.84076e-05
-0.0251678
-0.000135239
-0.025189
-0.000217176
-0.0252145
-0.000305203
-0.0252438
-0.000400441
-0.0252768
-0.000504161
-0.0253129
-0.000617801
-0.0253514
-0.000742981
-0.0253912
-0.000881503
-0.025431
-0.00103534
-0.025469
-0.00120659
-0.0255028
-0.00139744
-0.0255292
-0.00160999
-0.0255446
-0.00184611
-0.0255445
-0.00210718
-0.0255235
-0.00239371
-0.0254759
-0.00270494
-0.0253954
-0.00303814
-0.0252764
-0.00338802
-0.0251139
-0.00374671
-0.0249049
-0.0041037
-0.0246492
-0.00444501
-0.00475413
-0.0243508
-0.0235487
0.000268729
-0.0235455
0.000210592
-0.0235467
0.000150916
-0.0235526
8.9148e-05
-0.023563
2.4661e-05
-0.0235782
-4.32362e-05
-0.0235981
-0.000115319
-0.0236228
-0.000192485
-0.0236523
-0.000275767
-0.0236864
-0.000366353
-0.0237249
-0.000465621
-0.0237675
-0.000575157
-0.0238137
-0.000696789
-0.0238626
-0.000832599
-0.023913
-0.000984933
-0.0239633
-0.00115638
-0.024011
-0.0013497
-0.0240532
-0.00156779
-0.0240859
-0.00181336
-0.0241044
-0.00208876
-0.0241025
-0.00239552
-0.0240737
-0.00273383
-0.0240102
-0.00310157
-0.0239049
-0.00349338
-0.0237511
-0.00390049
-0.0235441
-0.0043107
-0.0232823
-0.00470682
-0.00506651
-0.0229699
-0.022054
0.000262442
-0.0220521
0.000208754
-0.0220549
0.000153661
-0.0220624
9.66225e-05
-0.0220746
3.69328e-05
-0.0220918
-2.60311e-05
-0.0221141
-9.30614e-05
-0.0221415
-0.000165065
-0.0221742
-0.000243102
-0.0222121
-0.000328413
-0.0222553
-0.000422456
-0.0223035
-0.000526942
-0.0223564
-0.000643884
-0.0224134
-0.000775631
-0.0224734
-0.000924892
-0.022535
-0.00109474
-0.0225961
-0.00128861
-0.0226537
-0.00151018
-0.0227039
-0.00176322
-0.0227414
-0.00205123
-0.0227599
-0.00237705
-0.0227515
-0.00274223
-0.0227073
-0.00314576
-0.0226181
-0.00358262
-0.0224752
-0.00404334
-0.0222717
-0.00451419
-0.0220039
-0.0049746
-0.00539541
-0.021675
-0.0206422
0.000257271
-0.0206416
0.000208113
-0.0206456
0.000157636
-0.0206543
0.000105307
-0.0206679
5.05273e-05
-0.0206865
-7.35256e-06
-0.0207105
-6.91104e-05
-0.0207399
-0.000135647
-0.020775
-0.000208031
-0.0208159
-0.00028753
-0.0208627
-0.000375658
-0.0209154
-0.000474221
-0.0209739
-0.000585385
-0.0210378
-0.000711734
-0.0211064
-0.000856326
-0.0211784
-0.00102272
-0.021252
-0.00121499
-0.0213244
-0.00143773
-0.0213918
-0.00169584
-0.0214488
-0.0019942
-0.0214886
-0.00233725
-0.0215025
-0.00272836
-0.02148
-0.00316823
-0.0214099
-0.00365273
-0.0212813
-0.00417192
-0.0210847
-0.00471081
-0.0208134
-0.00524591
-0.0057391
-0.0204697
-0.0193084
0.000253307
-0.0193088
0.000208566
-0.0193138
0.000162642
-0.0193235
0.000115014
-0.0193381
6.5125e-05
-0.0193579
1.23671e-05
-0.0193829
-4.40153e-05
-0.0194137
-0.000104905
-0.0194504
-0.000171354
-0.0194933
-0.000244635
-0.0195426
-0.000326285
-0.0195987
-0.000418172
-0.0196615
-0.000522569
-0.019731
-0.000642263
-0.0198067
-0.00078062
-0.0198877
-0.000941649
-0.0199727
-0.00113008
-0.020059
-0.0013514
-0.020143
-0.00161178
-0.0202196
-0.00191767
-0.0202814
-0.00227541
-0.0203191
-0.00269066
-0.0203207
-0.0031666
-0.0202727
-0.00370079
-0.0201612
-0.00428335
-0.0199736
-0.00489844
-0.0196992
-0.00552033
-0.00610241
-0.0193359
-0.0180454
0.000251128
-0.0180475
0.000210624
-0.0180539
0.000169061
-0.0180649
0.000125972
-0.0180806
8.08481e-05
-0.0181014
3.31067e-05
-0.0181274
-1.79594e-05
-0.0181591
-7.31961e-05
-0.0181969
-0.000133621
-0.018241
-0.000200479
-0.018292
-0.000275299
-0.0183502
-0.000359962
-0.018416
-0.000456808
-0.0184895
-0.00056876
-0.0185707
-0.000699448
-0.018659
-0.000853279
-0.0187535
-0.00103558
-0.0188522
-0.00125275
-0.0189517
-0.00151226
-0.0190471
-0.00182228
-0.0191311
-0.00219135
-0.0191939
-0.0026279
-0.019222
-0.00313842
-0.0191996
-0.00372319
-0.01911
-0.00437293
-0.0189373
-0.0050712
-0.0186657
-0.00579192
-0.00647805
-0.01829
-0.0168412
0.000252245
-0.0168464
0.000215774
-0.0168556
0.000178345
-0.0168692
0.000139546
-0.0168873
9.89205e-05
-0.0169101