/*--------------------------------*- C++ -*----------------------------------*\
  =========                 |
  \\      /  F ield         | OpenFOAM: The Open Source CFD Toolbox
   \\    /   O peration     | Website:  https://openfoam.org
    \\  /    A nd           | Version:  9
     \\/     M anipulation  |
\*---------------------------------------------------------------------------*/
FoamFile
{
    format      ascii;
    class       volVectorField;
    location    "0.005";
    object      U;
}
// * * * * * * * * * * * * * * * * * * * * * * * * * * * * * * * * * * * * * //

dimensions      [0 1 -1 0 0 0 0];

internalField   nonuniform List<vector> 
8420
(
(24.3389 -1.50163 1.39448e-16)
(24.3323 -1.49792 -1.39479e-16)
(24.3255 -1.49444 0)
(24.3184 -1.4912 0)
(24.311 -1.48821 -1.3958e-16)
(24.3033 -1.48547 1.39615e-16)
(24.2953 -1.48301 0)
(24.287 -1.48083 0)
(24.2784 -1.47895 0)
(24.2695 -1.47737 0)
(24.2601 -1.47612 0)
(24.2505 -1.47521 0)
(24.2404 -1.47465 0)
(24.2299 -1.47446 6.99763e-17)
(24.219 -1.47465 -7.00007e-17)
(24.2077 -1.47524 -7.00265e-17)
(24.1959 -1.47626 -2.33171e-22)
(24.1836 -1.47771 7.00803e-17)
(24.1709 -1.47962 0)
(24.1576 -1.48201 0)
(24.1438 -1.48489 0)
(24.1295 -1.4883 0)
(24.1146 -1.49225 0)
(24.0991 -1.49677 3.51343e-17)
(24.0829 -1.50189 -7.03043e-17)
(24.0661 -1.50763 3.51706e-17)
(24.0485 -1.51402 0)
(24.0302 -1.52109 0)
(24.0112 -1.52887 1.76156e-17)
(23.992 -1.53739 -1.76264e-17)
(23.9719 -1.54669 0)
(23.9477 -1.55683 0)
(23.9182 -1.56783 0)
(23.9003 -1.57974 0)
(25.3635 -1.24975 -1.45934e-16)
(25.3643 -1.23597 7.29676e-17)
(25.3651 -1.22199 -7.29685e-17)
(25.3657 -1.2078 0)
(25.3661 -1.19339 0)
(25.3664 -1.17876 0)
(25.3666 -1.1639 -7.29755e-17)
(25.3666 -1.14878 -7.98524e-23)
(25.3664 -1.13341 -8.37492e-23)
(25.366 -1.11776 7.29846e-17)
(25.3655 -1.10183 0)
(25.3648 -1.0856 0)
(25.3639 -1.06906 0)
(25.3629 -1.0522 0)
(25.3616 -1.03501 7.30083e-17)
(25.3601 -1.01751 1.15607e-22)
(25.3583 -0.999886 1.2099e-22)
(25.3564 -0.982331 -3.65139e-17)
(25.3541 -0.964272 -3.65178e-17)
(25.3516 -0.94574 0)
(25.3489 -0.926724 0)
(25.3458 -0.907212 0)
(25.3424 -0.887187 0)
(25.3387 -0.866632 0)
(25.3347 -0.845526 3.65463e-17)
(25.3303 -0.823849 -3.65521e-17)
(25.3255 -0.801576 0)
(25.3203 -0.77868 0)
(25.3147 -0.755132 0)
(25.3087 -0.7309 9.14488e-18)
(25.3022 -0.705931 -9.14688e-18)
(25.2953 -0.680017 0)
(25.2876 -0.652357 0)
(25.2793 -0.62014 0)
(25.3884 -1.50936 -7.86187e-17)
(25.3884 -1.50063 0)
(25.3883 -1.49192 7.86241e-17)
(25.3884 -1.48323 -1.57253e-16)
(25.3884 -1.47455 1.57258e-16)
(25.3885 -1.46589 -7.86314e-17)
(25.3887 -1.45724 7.86336e-17)
(25.3889 -1.4486 -6.66241e-24)
(25.3892 -1.43998 -7.86375e-17)
(25.3896 -1.43139 0)
(25.3901 -1.42292 -7.86407e-17)
(25.3906 -1.41485 1.57284e-16)
(25.3913 -1.40647 -1.57286e-16)
(25.392 -1.3982 1.57287e-16)
(25.3929 -1.38984 -7.86436e-17)
(25.3939 -1.38146 0)
(25.395 -1.37304 3.93214e-17)
(25.3963 -1.36457 -3.93208e-17)
(25.3977 -1.35608 -3.932e-17)
(25.3992 -1.34754 3.93192e-17)
(25.401 -1.33891 -3.93182e-17)
(25.4029 -1.3302 3.9317e-17)
(25.405 -1.32142 0)
(25.4073 -1.31258 3.9314e-17)
(25.4099 -1.30366 -3.93121e-17)
(25.4127 -1.29466 0)
(25.4158 -1.28557 0)
(25.4192 -1.27638 0)
(25.4229 -1.26709 -1.96508e-17)
(25.4268 -1.25768 1.9649e-17)
(25.431 -1.24815 0)
(25.4357 -1.23849 4.91122e-18)
(25.4416 -1.2287 -4.91063e-18)
(25.4477 -1.21888 0)
(25.5856 -1.27961 0)
(25.5841 -1.26747 0)
(25.5826 -1.2553 0)
(25.5809 -1.24313 0)
(25.5792 -1.23094 0)
(25.5774 -1.21875 0)
(25.5755 -1.20656 0)
(25.5735 -1.19437 0)
(25.5715 -1.18218 8.43139e-17)
(25.5693 -1.16999 -8.43218e-17)
(25.5671 -1.15782 0)
(25.5647 -1.14567 4.21694e-17)
(25.5623 -1.13353 4.01223e-23)
(25.5597 -1.12141 -8.43566e-17)
(25.5571 -1.10931 -4.18598e-23)
(25.5543 -1.09724 4.21877e-17)
(25.5515 -1.0852 0)
(25.5485 -1.0732 0)
(25.5455 -1.06124 -4.2203e-17)
(25.5424 -1.04933 8.44166e-17)
(25.5392 -1.03747 -4.22137e-17)
(25.5358 -1.02567 0)
(25.5324 -1.01393 0)
(25.529 -1.00227 0)
(25.5254 -0.990684 -2.11183e-17)
(25.5217 -0.979191 2.11213e-17)
(25.518 -0.967795 2.11244e-17)
(25.5142 -0.956505 -2.11275e-17)
(25.5103 -0.945329 0)
(25.5063 -0.934265 0)
(25.5024 -0.923273 0)
(25.4982 -0.912344 0)
(25.4936 -0.901413 0)
(25.4894 -0.889759 0)
(25.7442 -1.43199 9.04542e-17)
(25.7443 -1.42023 -9.04569e-17)
(25.7443 -1.40846 -1.23642e-23)
(25.7444 -1.39667 9.04625e-17)
(25.7444 -1.38486 0)
(25.7445 -1.37303 0)
(25.7444 -1.36118 0)
(25.7444 -1.34931 0)
(25.7444 -1.33743 0)
(25.7443 -1.32552 0)
(25.7442 -1.31359 0)
(25.7442 -1.30164 0)
(25.744 -1.28967 0)
(25.7439 -1.27768 0)
(25.7438 -1.26566 0)
(25.7437 -1.25363 0)
(25.7435 -1.24156 -4.52514e-17)
(25.7434 -1.22948 4.5253e-17)
(25.7432 -1.21737 0)
(25.7431 -1.20523 0)
(25.7429 -1.19307 0)
(25.7427 -1.18088 0)
(25.7426 -1.16866 0)
(25.7424 -1.15642 0)
(25.7422 -1.14414 0)
(25.742 -1.13183 0)
(25.7419 -1.11949 0)
(25.7417 -1.10712 0)
(25.7416 -1.09471 0)
(25.7414 -1.08226 -1.13181e-17)
(25.7411 -1.06977 1.13185e-17)
(25.7409 -1.05724 -5.65944e-18)
(25.7413 -1.04466 5.65964e-18)
(25.7413 -1.032 0)
(25.8942 -1.30899 0)
(25.893 -1.29615 -9.71091e-17)
(25.8917 -1.28345 1.94231e-16)
(25.8903 -1.27095 -4.85612e-17)
(25.8889 -1.25845 -4.85649e-17)
(25.8874 -1.24598 -4.85688e-17)
(25.8858 -1.23355 -3.12449e-23)
(25.8841 -1.22114 4.85769e-17)
(25.8823 -1.20878 -4.85812e-17)
(25.8805 -1.19646 9.71713e-17)
(25.8786 -1.18418 3.48642e-23)
(25.8766 -1.17196 3.57141e-23)
(25.8746 -1.15979 3.65408e-23)
(25.8724 -1.14768 -4.86045e-17)
(25.8702 -1.13563 -4.86095e-17)
(25.868 -1.12365 4.86146e-17)
(25.8657 -1.11173 -4.86199e-17)
(25.8633 -1.09989 4.86251e-17)
(25.8608 -1.08812 -2.43153e-17)
(25.8583 -1.07643 4.86361e-17)
(25.8557 -1.06482 -2.43208e-17)
(25.8531 -1.0533 0)
(25.8504 -1.04187 -2.43266e-17)
(25.8476 -1.03052 2.43295e-17)
(25.8449 -1.01927 2.43324e-17)
(25.842 -1.00813 -2.43354e-17)
(25.8392 -0.997086 -1.21692e-17)
(25.8363 -0.986151 2.43414e-17)
(25.8334 -0.975324 -1.21722e-17)
(25.8305 -0.964607 1.21738e-17)
(25.8275 -0.953984 -6.08764e-18)
(25.8244 -0.943391 6.43693e-24)
(25.8211 -0.932543 -6.08919e-18)
(25.8185 -0.920276 0)
(26.1076 -1.37883 -2.23052e-23)
(26.1071 -1.3647 -2.37674e-23)
(26.1064 -1.35056 -2.53064e-23)
(26.1057 -1.33644 5.20495e-17)
(26.1049 -1.32233 -5.20525e-17)
(26.1039 -1.30823 5.20556e-17)
(26.1029 -1.29413 0)
(26.1018 -1.28006 0)
(26.1006 -1.26599 5.20658e-17)
(26.0993 -1.25194 -5.20694e-17)
(26.0979 -1.23791 0)
(26.0965 -1.2239 5.20771e-17)
(26.0949 -1.20991 -5.20811e-17)
(26.0933 -1.19594 0)
(26.0915 -1.18199 5.20895e-17)
(26.0897 -1.16807 -1.04188e-16)
(26.0878 -1.15418 5.20983e-17)
(26.0859 -1.14031 2.60514e-17)
(26.0838 -1.12646 2.35026e-23)
(26.0816 -1.11265 2.42624e-23)
(26.0793 -1.09887 -2.60588e-17)
(26.0769 -1.08514 0)
(26.0744 -1.07145 2.6064e-17)
(26.0718 -1.05787 -2.60667e-17)
(26.0691 -1.04462 -2.60696e-17)
(26.0663 -1.03119 3.91088e-17)
(26.0635 -1.01792 1.44481e-23)
(26.0605 -1.00461 -1.30394e-17)
(26.0575 -0.991378 0)
(26.0544 -0.978158 0)
(26.0511 -0.964989 0)
(26.0478 -0.951841 0)
(26.0447 -0.938673 0)
(26.0416 -0.925334 0)
(26.2601 -1.31193 5.58628e-17)
(26.2586 -1.29675 -1.11735e-16)
(26.2569 -1.28163 5.5872e-17)
(26.2551 -1.26656 0)
(26.2532 -1.25156 -5.58821e-17)
(26.2512 -1.2367 -4.49176e-23)
(26.249 -1.22214 5.58928e-17)
(26.2467 -1.2076 5.58986e-17)
(26.2443 -1.1931 -5.59047e-17)
(26.2418 -1.17864 -5.59112e-17)
(26.2392 -1.16424 5.59179e-17)
(26.2365 -1.14987 -5.59249e-17)
(26.2337 -1.13556 5.5932e-17)
(26.2307 -1.12132 -2.79697e-17)
(26.2277 -1.10715 5.59468e-17)
(26.2246 -1.09304 -5.59544e-17)
(26.2214 -1.07897 2.79811e-17)
(26.2181 -1.06488 0)
(26.2148 -1.05055 0)
(26.2113 -1.03617 0)
(26.2077 -1.02189 -2.79975e-17)
(26.204 -1.00775 -3.5393e-23)
(26.2002 -0.993766 -3.60316e-23)
(26.1962 -0.980061 1.40049e-17)
(26.1922 -0.966647 2.8014e-17)
(26.1881 -0.953311 -1.40091e-17)
(26.1839 -0.940074 0)
(26.1797 -0.926936 -1.40135e-17)
(26.1753 -0.913899 7.00783e-18)
(26.1709 -0.900964 7.00897e-18)
(26.1663 -0.888133 7.01011e-18)
(26.1617 -0.875408 -7.01125e-18)
(26.157 -0.862803 0)
(26.1526 -0.850362 0)
(26.4538 -1.33144 1.19798e-16)
(26.4522 -1.3144 -1.19809e-16)
(26.4504 -1.29741 1.19821e-16)
(26.4485 -1.28045 5.40199e-23)
(26.4464 -1.26354 -5.99224e-17)
(26.4441 -1.24668 5.99289e-17)
(26.4417 -1.22986 -5.99355e-17)
(26.4391 -1.21309 5.99425e-17)
(26.4364 -1.19638 -5.99497e-17)
(26.4335 -1.17972 0)
(26.4305 -1.16313 0)
(26.4273 -1.14671 0)
(26.4239 -1.13078 0)
(26.4204 -1.1146 -2.99949e-17)
(26.4167 -1.09864 -4.12904e-23)
(26.4129 -1.08263 6.00085e-17)
(26.409 -1.06672 -6.00183e-17)
(26.4049 -1.05081 6.00284e-17)
(26.4006 -1.03485 4.60306e-23)
(26.3963 -1.01841 4.71349e-23)
(26.3919 -1.00201 4.81373e-23)
(26.3873 -0.985771 -3.00353e-17)
(26.3827 -0.96975 0)
(26.3779 -0.954198 -1.5023e-17)
(26.373 -0.938754 3.00513e-17)
(26.3679 -0.923407 -3.00567e-17)
(26.3628 -0.908159 3.00623e-17)
(26.3575 -0.893014 -1.5034e-17)
(26.3522 -0.877972 -7.51843e-18)
(26.3467 -0.863035 7.51987e-18)
(26.341 -0.848208 0)
(26.3352 -0.833493 -3.76144e-18)
(26.3296 -0.8189 1.88109e-18)
(26.324 -0.804471 1.98906e-18)
(26.6243 -1.30449 -6.42715e-17)
(26.6221 -1.28591 6.42789e-17)
(26.6197 -1.26739 -1.28573e-16)
(26.6171 -1.24893 -6.83662e-23)
(26.6144 -1.23055 6.43029e-17)
(26.6114 -1.21224 0)
(26.6083 -1.19401 0)
(26.605 -1.17586 -3.21649e-17)
(26.6015 -1.1578 -4.24125e-23)
(26.5978 -1.13982 3.21747e-17)
(26.594 -1.12193 3.21798e-17)
(26.59 -1.10414 -3.2185e-17)
(26.5858 -1.08645 3.21905e-17)
(26.5815 -1.06885 -3.2196e-17)
(26.5769 -1.05134 -3.22018e-17)
(26.5722 -1.03394 6.44152e-17)
(26.5673 -1.01665 -6.44272e-17)
(26.5622 -0.999459 3.22198e-17)
(26.557 -0.98238 3.22261e-17)
(26.5516 -0.965414 5.92881e-23)
(26.5461 -0.948567 -3.22391e-17)
(26.5404 -0.93185 0)
(26.5347 -0.915264 -1.61263e-17)
(26.5288 -0.898814 1.61297e-17)
(26.5228 -0.8825 -1.61332e-17)
(26.5166 -0.86632 -3.31702e-23)
(26.5103 -0.850276 3.22807e-17)
(26.5039 -0.83437 -8.07197e-18)
(26.4974 -0.818606 1.7436e-23)
(26.4907 -0.802984 -1.61515e-17)
(26.4839 -0.787506 1.61553e-17)
(26.477 -0.772175 -1.21193e-17)
(26.4699 -0.756994 4.04075e-18)
(26.4628 -0.741979 0)
(26.4559 -0.727179 0)
(26.8202 -1.29877 -6.89116e-17)
(26.8175 -1.27795 6.89209e-17)
(26.8146 -1.2572 0)
(26.8115 -1.23652 3.44705e-17)
(26.8081 -1.21592 -3.44758e-17)
(26.8045 -1.1954 0)
(26.8007 -1.17496 0)
(26.7966 -1.15462 0)
(26.7923 -1.13437 -3.44992e-17)
(26.7879 -1.11422 3.45055e-17)
(26.7832 -1.09417 0)
(26.7782 -1.07423 0)
(26.7731 -1.0544 0)
(26.7678 -1.03469 -3.4533e-17)
(26.7622 -1.01509 3.45403e-17)
(26.7565 -0.995622 0)
(26.7506 -0.976275 0)
(26.7444 -0.957057 -3.45635e-17)
(26.7381 -0.937971 3.45715e-17)
(26.7316 -0.919019 0)
(26.7249 -0.900207 -1.72941e-17)
(26.718 -0.881536 1.72984e-17)
(26.7109 -0.863013 0)
(26.7037 -0.844641 0)
(26.6963 -0.826424 0)
(26.6887 -0.808365 0)
(26.6809 -0.790467 0)
(26.673 -0.772732 -8.66289e-18)
(26.665 -0.755164 8.66528e-18)
(26.6567 -0.737766 0)
(26.6484 -0.720539 0)
(26.6398 -0.703488 0)
(26.6311 -0.686617 2.16882e-18)
(26.6224 -0.66994 -1.08473e-18)
(26.6138 -0.653514 -1.13854e-18)
(27.0088 -1.26004 3.69515e-17)
(27.0053 -1.23712 3.69578e-17)
(27.0016 -1.2143 -3.69642e-17)
(26.9976 -1.19157 0)
(26.9933 -1.16895 -3.6978e-17)
(26.9888 -1.14644 3.69852e-17)
(26.9839 -1.12404 -3.69928e-17)
(26.9789 -1.10176 7.40011e-17)
(26.9736 -1.0796 -3.70086e-17)
(26.968 -1.05757 3.7017e-17)
(26.9622 -1.03568 -3.70254e-17)
(26.9561 -1.01393 3.70343e-17)
(26.9497 -0.992317 8.36516e-23)
(26.9432 -0.970855 8.61955e-23)
(26.9364 -0.949547 -3.70621e-17)
(26.9293 -0.928395 0)
(26.9221 -0.907406 1.85409e-17)
(26.9146 -0.886583 -1.8546e-17)
(26.9068 -0.865931 0)
(26.8989 -0.845453 1.85565e-17)
(26.8908 -0.825154 -3.71239e-17)
(26.8824 -0.805037 3.71349e-17)
(26.8738 -0.785106 -1.8573e-17)
(26.865 -0.765366 0)
(26.8561 -0.745819 0)
(26.8469 -0.726469 9.29525e-18)
(26.8376 -0.707319 -9.29822e-18)
(26.828 -0.688372 0)
(26.8183 -0.669632 -9.30436e-18)
(26.8085 -0.651101 9.30745e-18)
(26.7984 -0.632783 -4.65532e-18)
(26.7882 -0.614679 4.6569e-18)
(26.7777 -0.596796 0)
(26.7673 -0.579151 0)
(26.757 -0.561809 0)
(27.2136 -1.23695 3.96101e-17)
(27.2094 -1.21142 6.97845e-23)
(27.2048 -1.186 -3.96263e-17)
(27.2 -1.16069 0)
(27.1948 -1.13551 -3.9644e-17)
(27.1892 -1.11045 3.96532e-17)
(27.1834 -1.08553 0)
(27.1773 -1.06076 0)
(27.1708 -1.03613 0)
(27.1641 -1.01165 -3.9694e-17)
(27.157 -0.987332 -1.01995e-22)
(27.1497 -0.963181 7.94322e-17)
(27.142 -0.939201 -3.97276e-17)
(27.1341 -0.915399 0)
(27.1259 -0.89178 0)
(27.1174 -0.868349 0)
(27.1086 -0.845112 1.98885e-17)
(27.0996 -0.822074 -1.98949e-17)
(27.0903 -0.79924 0)
(27.0807 -0.776615 -1.99084e-17)
(27.0709 -0.754205 1.99153e-17)
(27.0608 -0.732013 0)
(27.0505 -0.710046 -1.99295e-17)
(27.04 -0.688306 1.99368e-17)
(27.0292 -0.666799 0)
(27.0182 -0.645529 9.97588e-18)
(27.007 -0.6245 -9.97965e-18)
(26.9955 -0.603716 0)
(26.9839 -0.58318 0)
(26.972 -0.562897 0)
(26.96 -0.542869 0)
(26.9477 -0.523102 -4.99978e-18)
(26.9352 -0.503601 5.00181e-18)
(26.9227 -0.484384 0)
(26.9103 -0.465523 0)
(27.4188 -1.19591 -4.246e-17)
(27.4136 -1.16773 0)
(27.4081 -1.1397 0)
(27.4021 -1.1118 4.24921e-17)
(27.3958 -1.08406 -4.25036e-17)
(27.3891 -1.05648 -4.25156e-17)
(27.3821 -1.02907 -1.11831e-22)
(27.3747 -1.00183 4.25406e-17)
(27.3669 -0.974779 0)
(27.3588 -0.947914 0)
(27.3503 -0.921244 2.12907e-17)
(27.3415 -0.894778 -2.12978e-17)
(27.3323 -0.868522 0)
(27.3229 -0.842483 0)
(27.313 -0.816667 2.13205e-17)
(27.3029 -0.791081 -4.26567e-17)
(27.2925 -0.765731 2.13364e-17)
(27.2817 -0.740624 -2.13447e-17)
(27.2706 -0.715764 2.1353e-17)
(27.2593 -0.691159 0)
(27.2476 -0.666814 0)
(27.2357 -0.642734 0)
(27.2235 -0.618925 0)
(27.211 -0.595392 0)
(27.1982 -0.57214 0)
(27.1852 -0.549174 -1.07082e-17)
(27.1719 -0.526499 1.07129e-17)
(27.1584 -0.50412 -1.07178e-17)
(27.1447 -0.482039 1.07227e-17)
(27.1307 -0.460263 0)
(27.1165 -0.438794 0)
(27.1021 -0.417638 -2.68448e-18)
(27.0874 -0.3968 2.68575e-18)
(27.0726 -0.376303 -1.34353e-18)
(27.058 -0.356224 1.39397e-18)
(27.6346 -1.15975 -9.10036e-17)
(27.6284 -1.12856 -1.1334e-22)
(27.6217 -1.09754 9.10568e-17)
(27.6146 -1.06669 1.25011e-22)
(27.6071 -1.03602 -2.27785e-17)
(27.5991 -1.00553 -2.27861e-17)
(27.5907 -0.97525 -2.2794e-17)
(27.5819 -0.945173 4.5604e-17)
(27.5727 -0.915311 -2.28103e-17)
(27.5631 -0.885672 -2.28189e-17)
(27.5531 -0.856266 2.28276e-17)
(27.5426 -0.8271 -2.28367e-17)
(27.5318 -0.798182 4.56919e-17)
(27.5206 -0.76952 -2.28554e-17)
(27.509 -0.741122 -2.28652e-17)
(27.4971 -0.712995 4.57501e-17)
(27.4847 -0.685148 -2.28851e-17)
(27.472 -0.657588 -2.28956e-17)
(27.459 -0.630322 4.58122e-17)
(27.4456 -0.603356 -1.14583e-17)
(27.4319 -0.576699 -2.29278e-17)
(27.4178 -0.550356 1.14694e-17)
(27.4035 -0.524334 -1.14752e-17)
(27.3888 -0.498641 2.29618e-17)
(27.3738 -0.473281 -2.29735e-17)
(27.3585 -0.448261 1.14926e-17)
(27.3429 -0.423587 -1.14987e-17)
(27.327 -0.399264 5.75233e-18)
(27.3109 -0.375297 -3.04478e-23)
(27.2945 -0.351693 -3.08569e-23)
(27.2778 -0.328455 1.15235e-17)
(27.2609 -0.305589 -8.64738e-18)
(27.2436 -0.283104 2.88407e-18)
(27.2264 -0.261021 1.44285e-18)
(27.2092 -0.239427 -1.49114e-18)
(27.8533 -1.11294 0)
(27.8459 -1.07864 0)
(27.838 -1.04453 2.43957e-17)
(27.8296 -1.01063 -2.44045e-17)
(27.8207 -0.976943 2.44138e-17)
(27.8113 -0.943483 -4.88465e-17)
(27.8014 -0.910257 2.4433e-17)
(27.7911 -0.877276 0)
(27.7803 -0.84455 0)
(27.769 -0.812087 0)
(27.7572 -0.779898 -2.44753e-17)
(27.745 -0.747991 2.44864e-17)
(27.7324 -0.716377 0)
(27.7193 -0.685064 0)
(27.7057 -0.654061 0)
(27.6918 -0.623378 0)
(27.6774 -0.593023 0)
(27.6626 -0.563005 0)
(27.6474 -0.533333 -1.22865e-17)
(27.6318 -0.504014 -6.46331e-23)
(27.6158 -0.475058 1.22999e-17)
(27.5995 -0.446472 0)
(27.5828 -0.418264 -1.2314e-17)
(27.5657 -0.390441 1.2321e-17)
(27.5483 -0.363013 0)
(27.5305 -0.335984 0)
(27.5124 -0.309363 -6.17158e-18)
(27.494 -0.283157 1.23507e-17)
(27.4752 -0.257371 3.78404e-23)
(27.4562 -0.232011 -1.2366e-17)
(27.4369 -0.207085 3.09343e-18)
(27.4173 -0.182598 6.19086e-18)
(27.3973 -0.15856 -1.5487e-18)
(27.3774 -0.134995 -7.7485e-19)
(27.3574 -0.111997 -7.97631e-19)
(28.0784 -1.06612 0)
(28.0697 -1.02846 0)
(28.0605 -0.991019 0)
(28.0507 -0.953819 -2.61508e-17)
(28.0403 -0.916868 2.61622e-17)
(28.0294 -0.880176 -2.61741e-17)
(28.0179 -0.843754 2.61861e-17)
(28.0059 -0.807613 2.61988e-17)
(27.9933 -0.771765 -2.62116e-17)
(27.9802 -0.73622 0)
(27.9666 -0.700988 0)
(27.9525 -0.666081 2.62525e-17)
(27.9378 -0.631509 -2.62667e-17)
(27.9227 -0.597283 0)
(27.9071 -0.563414 1.31482e-17)
(27.8909 -0.529912 -1.31557e-17)
(27.8743 -0.496788 0)
(27.8573 -0.464052 0)
(27.8397 -0.431714 0)
(27.8217 -0.399785 0)
(27.8033 -0.368275 0)
(27.7845 -0.337193 0)
(27.7652 -0.30655 0)
(27.7455 -0.276354 0)
(27.7254 -0.246616 6.61562e-18)
(27.7049 -0.217343 -6.6201e-18)
(27.684 -0.188546 0)
(27.6628 -0.160232 0)
(27.6412 -0.13241 0)
(27.6193 -0.105087 -3.31942e-18)
(27.5971 -0.0782712 -2.40933e-23)
(27.5744 -0.0519708 3.3239e-18)
(27.5515 -0.0261968 0)
(27.5285 -0.000975736 0)
(27.5055 0.023591 0)
(28.3057 -1.01246 -2.7981e-17)
(28.2957 -0.971342 2.79936e-17)
(28.285 -0.930485 0)
(28.2737 -0.889899 -2.80206e-17)
(28.2617 -0.849595 5.60693e-17)
(28.2492 -0.809587 1.29621e-22)
(28.236 -0.769885 -2.80641e-17)
(28.2222 -0.730501 0)
(28.2078 -0.691448 0)
(28.1928 -0.652737 -2.81118e-17)
(28.1772 -0.61438 -1.54486e-22)
(28.1611 -0.57639 2.81454e-17)
(28.1443 -0.538778 -1.40816e-17)
(28.127 -0.501557 -8.43767e-23)
(28.1092 -0.46474 2.81992e-17)
(28.0908 -0.428338 -1.41089e-17)
(28.0718 -0.392364 0)
(28.0523 -0.356831 -1.41283e-17)
(28.0323 -0.32175 1.41381e-17)
(28.0118 -0.287134 0)
(27.9907 -0.252995 0)
(27.9692 -0.219345 0)
(27.9472 -0.186197 -1.41795e-17)
(27.9247 -0.153563 7.09504e-18)
(27.9018 -0.121453 1.42011e-17)
(27.8784 -0.0898788 -1.42122e-17)
(27.8546 -0.0588525 7.11126e-18)
(27.8303 -0.0283845 0)
(27.8057 0.00151492 0)
(27.7807 0.0308355 -3.56259e-18)
(27.7553 0.0595673 3.56496e-18)
(27.7295 0.0877004 0)
(27.7033 0.115221 0)
(27.677 0.1421 0)
(27.6507 0.168229 0)
(28.5359 -0.957036 1.26336e-22)
(28.5244 -0.912339 -2.99889e-17)
(28.5122 -0.867932 0)
(28.4993 -0.823825 -3.00219e-17)
(28.4857 -0.780033 -1.51103e-22)
(28.4715 -0.736565 -1.57188e-22)
(28.4565 -0.693435 6.01501e-17)
(28.4409 -0.650656 -1.50468e-17)
(28.4246 -0.60824 -1.50565e-17)
(28.4076 -0.566199 0)
(28.39 -0.524549 -1.50766e-17)
(28.3718 -0.483301 1.50869e-17)
(28.3529 -0.442469 0)
(28.3333 -0.402068 -1.51085e-17)
(28.3131 -0.362113 3.02391e-17)
(28.2923 -0.322616 -1.51308e-17)
(28.2709 -0.283594 -1.51425e-17)
(28.2489 -0.24506 3.03084e-17)
(28.2263 -0.207031 -1.51662e-17)
(28.2031 -0.169521 -1.51785e-17)
(28.1793 -0.132545 3.03818e-17)
(28.155 -0.0961186 -7.60167e-18)
(28.1301 -0.0602569 -1.52157e-17)
(28.1046 -0.024975 7.61284e-18)
(28.0787 0.00971196 7.61804e-18)
(28.0522 0.0437893 -1.52465e-17)
(28.0252 0.0772426 7.62809e-18)
(27.9977 0.110057 7.63233e-18)
(27.9698 0.14222 -1.14549e-17)
(27.9414 0.173718 7.641e-18)
(27.9126 0.204536 -3.82275e-18)
(27.8834 0.234663 1.91256e-18)
(27.8537 0.264082 -1.91374e-18)
(27.8238 0.292758 0)
(27.7939 0.320577 0)
(28.7665 -0.89724 -3.21067e-17)
(28.7535 -0.848946 6.42513e-17)
(28.7398 -0.800968 -4.82178e-17)
(28.7253 -0.753316 -8.69387e-23)
(28.71 -0.706004 1.60931e-17)
(28.694 -0.659041 0)
(28.6773 -0.612442 1.61149e-17)
(28.6598 -0.566217 -1.61261e-17)
(28.6416 -0.520381 0)
(28.6227 -0.474948 -1.61497e-17)
(28.603 -0.429931 1.61618e-17)
(28.5826 -0.385345 0)
(28.5615 -0.341206 0)
(28.5397 -0.29753 -1.62002e-17)
(28.5172 -0.254332 -1.25494e-22)
(28.494 -0.211631 1.6227e-17)
(28.4701 -0.169443 0)
(28.4455 -0.127786 -1.62552e-17)
(28.4202 -0.0866791 1.62695e-17)
(28.3942 -0.0461403 0)
(28.3676 -0.0061889 8.14677e-18)
(28.3404 0.033156 -1.63048e-17)
(28.3125 0.071875 8.1578e-18)
(28.284 0.109949 -8.16212e-18)
(28.2548 0.147358 -7.87236e-23)
(28.2251 0.184082 -8.0148e-23)
(28.1948 0.220104 8.17578e-18)
(28.164 0.255404 4.09039e-18)
(28.1326 0.289963 -8.1858e-18)
(28.1006 0.323764 8.19103e-18)
(28.0682 0.356788 -4.09818e-18)
(28.0353 0.389019 0)
(28.0019 0.420436 -1.02596e-18)
(27.9682 0.451 5.13332e-19)
(27.9344 0.480587 5.19911e-19)
(28.997 -0.835735 -1.71954e-17)
(28.9826 -0.783854 0)
(28.9673 -0.732306 -1.72187e-17)
(28.9512 -0.681102 1.72307e-17)
(28.9343 -0.630252 1.72433e-17)
(28.9166 -0.579765 -1.72559e-17)
(28.8981 -0.529654 0)
(28.8789 -0.47993 0)
(28.8588 -0.430607 -1.72965e-17)
(28.8379 -0.381699 1.73105e-17)
(28.8162 -0.333221 0)
(28.7938 -0.285189 0)
(28.7705 -0.237619 0)
(28.7465 -0.19053 0)
(28.7216 -0.143941 0)
(28.696 -0.0978709 1.74028e-17)
(28.6696 -0.0523412 -8.70898e-18)
(28.6424 -0.00737346 -8.71498e-18)
(28.6145 0.0370096 8.72117e-18)
(28.5858 0.0807847 -1.74527e-17)
(28.5563 0.123928 8.73056e-18)
(28.5261 0.166415 0)
(28.4951 0.20822 0)
(28.4635 0.249319 0)
(28.4311 0.289686 -8.74975e-18)
(28.398 0.329294 1.31325e-17)
(28.3642 0.368119 4.87335e-23)
(28.3298 0.406136 -4.38309e-18)
(28.2947 0.443318 0)
(28.2591 0.479642 0)
(28.2228 0.515084 0)
(28.1859 0.54962 -2.19779e-18)
(28.1485 0.583223 3.29917e-18)
(28.1107 0.615848 -1.10058e-18)
(28.0728 0.647364 0)
(29.2258 -0.771953 0)
(29.2099 -0.716585 0)
(29.1931 -0.661559 -1.84465e-17)
(29.1755 -0.606881 -1.20462e-22)
(29.1571 -0.552557 1.84755e-17)
(29.1378 -0.498597 0)
(29.1177 -0.445009 0)
(29.0967 -0.391805 0)
(29.0749 -0.338998 0)
(29.0522 -0.286599 0)
(29.0286 -0.234626 0)
(29.0042 -0.183094 0)
(28.9789 -0.132023 0)
(28.9528 -0.0814308 -9.3129e-18)
(28.9257 -0.0313405 1.86411e-17)
(28.8978 0.0182249 -9.32688e-18)
(28.869 0.0672407 0)
(28.8393 0.115681 -9.33693e-18)
(28.8088 0.163517 9.34104e-18)
(28.7773 0.210721 0)
(28.745 0.257262 0)
(28.7119 0.303108 0)
(28.6778 0.348228 0)
(28.643 0.392587 0)
(28.6072 0.436153 0)
(28.5707 0.478891 0)
(28.5334 0.520767 0)
(28.4953 0.561746 0)
(28.4564 0.601795 0)
(28.4168 0.64088 0)
(28.3765 0.678968 0)
(28.3355 0.716026 0)
(28.2938 0.752021 1.17843e-18)
(28.2516 0.786897 -1.17942e-18)
(28.2092 0.820514 0)
(29.4518 -0.707563 0)
(29.4345 -0.648868 0)
(29.4164 -0.590505 0)
(29.3974 -0.532479 0)
(29.3775 -0.47479 -1.97961e-17)
(29.3568 -0.417445 -1.49257e-22)
(29.3352 -0.360449 1.98317e-17)
(29.3127 -0.303811 0)
(29.2893 -0.247541 0)
(29.265 -0.191652 0)
(29.2398 -0.136158 -9.95433e-18)
(29.2136 -0.0810763 1.99289e-17)
(29.1865 -0.0264263 -9.97289e-18)
(29.1584 0.0277698 0)
(29.1294 0.0814876 -9.98475e-18)
(29.0993 0.1347 -1.02757e-22)
(29.0683 0.187379 9.99216e-18)
(29.0363 0.239491 9.99647e-18)
(29.0033 0.291003 1.11798e-22)
(28.9692 0.341878 1.14853e-22)
(28.9342 0.392079 -1.00108e-17)
(28.8981 0.441564 0)
(28.8611 0.490293 0)
(28.823 0.53822 0)
(28.784 0.585303 -5.0174e-18)
(28.744 0.631494 1.00415e-17)
(28.703 0.676748 -5.02427e-18)
(28.6611 0.721019 0)
(28.6183 0.76426 0)
(28.5746 0.806426 2.518e-18)
(28.53 0.847471 -2.52006e-18)
(28.4846 0.88735 0)
(28.4384 0.926018 0)
(28.3916 0.963409 0)
(28.3444 0.99937 0)
(29.6734 -0.642919 -2.11341e-17)
(29.6549 -0.581132 4.23053e-17)
(29.6356 -0.519655 -2.11716e-17)
(29.6154 -0.458481 -2.11912e-17)
(29.5943 -0.397609 -1.6353e-22)
(29.5724 -0.337037 1.06156e-17)
(29.5496 -0.276766 1.06261e-17)
(29.5258 -0.216802 0)
(29.5011 -0.157151 0)
(29.4755 -0.0978226 -1.0659e-17)
(29.4488 -0.0388306 1.06696e-17)
(29.4212 0.0198088 -1.06765e-17)
(29.3925 0.0780756 1.06813e-17)
(29.3628 0.135946 0)
(29.332 0.193394 0)
(29.3002 0.250389 -1.06912e-17)
(29.2672 0.306895 1.06951e-17)
(29.233 0.362876 -1.06995e-17)
(29.1978 0.418289 1.0704e-17)
(29.1614 0.473091 -1.07092e-17)
(29.1238 0.527232 1.07145e-17)
(29.085 0.580661 0)
(29.045 0.633324 0)
(29.0039 0.685165 0)
(28.9616 0.736124 0)
(28.9181 0.786141 0)
(28.8734 0.835154 0)
(28.8277 0.883101 0)
(28.7808 0.929919 0)
(28.7329 0.975545 2.69545e-18)
(28.6839 1.01992 -2.69779e-18)
(28.6338 1.06298 0)
(28.5828 1.10466 0)
(28.5311 1.14488 0)
(28.4788 1.18348 0)
(29.8891 -0.579236 0)
(29.8697 -0.514659 0)
(29.8494 -0.450347 1.13412e-17)
(29.8282 -0.386286 -1.13523e-17)
(29.8063 -0.322464 0)
(29.7834 -0.258873 0)
(29.7597 -0.195509 0)
(29.735 -0.132369 1.13995e-17)
(29.7093 -0.0694553 -1.14118e-17)
(29.6827 -0.00677361 0)
(29.655 0.0556657 0)
(29.6263 0.117848 0)
(29.5964 0.179755 -1.14315e-17)
(29.5654 0.241361 1.14339e-17)
(29.5333 0.302639 0)
(29.4999 0.363554 0)
(29.4653 0.424066 0)
(29.4294 0.484132 0)
(29.3922 0.5437 0)
(29.3537 0.602717 0)
(29.3138 0.661123 0)
(29.2726 0.718852 0)
(29.2299 0.775835 0)
(29.1858 0.832 -5.74141e-18)
(29.1404 0.887269 5.74506e-18)
(29.0935 0.941563 0)
(29.0452 0.994799 0)
(28.9956 1.04689 0)
(28.9446 1.09776 0)
(28.8922 1.14732 0)
(28.8386 1.19548 0)
(28.7838 1.24216 0)
(28.7277 1.28728 0)
(28.6707 1.33074 0)
(28.6129 1.37234 0)
(30.0976 -0.517169 0)
(30.0773 -0.450167 0)
(30.0563 -0.383365 1.21506e-17)
(30.0345 -0.316738 -1.21632e-17)
(30.0119 -0.250264 0)
(29.9885 -0.183925 1.21893e-17)
(29.9642 -0.117707 1.06932e-22)
(29.939 -0.0515998 1.10357e-22)
(29.9128 0.0144023 1.13929e-22)
(29.8856 0.0802994 -1.22277e-17)
(29.8573 0.146087 0)
(29.8279 0.211754 -1.22298e-17)
(29.7973 0.277284 1.22312e-17)
(29.7656 0.342653 1.22332e-17)
(29.7325 0.407834 -1.22354e-17)
(29.6981 0.472787 0)
(29.6623 0.537471 0)
(29.6251 0.601833 6.12258e-18)
(29.5864 0.665815 -6.12459e-18)
(29.5462 0.729351 0)
(29.5044 0.792369 0)
(29.4609 0.854787 -6.1326e-18)
(29.4159 0.916518 6.13573e-18)
(29.3691 0.97747 -6.13936e-18)
(29.3207 1.03754 6.14311e-18)
(29.2706 1.09663 0)
(29.2187 1.15463 3.07594e-18)
(29.1652 1.21142 5.45248e-23)
(29.11 1.2669 -3.08091e-18)
(29.0533 1.32095 3.08373e-18)
(28.9949 1.37345 -4.62995e-18)
(28.9349 1.42429 1.54486e-18)
(28.8735 1.47335 7.73268e-19)
(28.8109 1.52052 -7.74116e-19)
(28.7472 1.56558 0)
(30.2973 -0.457618 -1.29904e-17)
(30.2766 -0.388608 2.6008e-17)
(30.2551 -0.319712 -1.30179e-17)
(30.233 -0.250892 0)
(30.2102 -0.182113 -1.30465e-17)
(30.1865 -0.113345 1.30611e-17)
(30.1621 -0.0445629 0)
(30.1367 0.0242553 0)
(30.1105 0.0931245 0)
(30.0832 0.162054 1.30839e-17)
(30.0548 0.231047 -1.30834e-17)
(30.0253 0.3001 0)
(29.9945 0.369201 0)
(29.9625 0.43833 0)
(29.9291 0.507459 0)
(29.8942 0.57655 6.54384e-18)
(29.8578 0.645558 -6.54488e-18)
(29.8198 0.714424 -6.54635e-18)
(29.7801 0.783083 6.54794e-18)
(29.7386 0.851457 6.55002e-18)
(29.6953 0.919459 -6.55223e-18)
(29.6502 0.986991 0)
(29.6031 1.05394 0)
(29.554 1.1202 0)
(29.5028 1.18564 0)
(29.4497 1.25012 0)
(29.3945 1.31351 0)
(29.3372 1.37564 0)
(29.2778 1.43639 -3.29224e-18)
(29.2165 1.49559 3.29513e-18)
(29.1532 1.55308 0)
(29.088 1.60872 -1.65089e-18)
(29.0209 1.66235 1.65267e-18)
(28.9523 1.71381 -4.1366e-19)
(28.8823 1.76285 4.0822e-19)
(30.4872 -0.401184 1.39164e-17)
(30.4662 -0.330623 0)
(30.4446 -0.260072 0)
(30.4225 -0.189476 0)
(30.3998 -0.118788 1.39788e-17)
(30.3764 -0.0479605 -1.39949e-17)
(30.3522 0.0230455 0)
(30.3272 0.0942648 -7.00118e-18)
(30.3014 0.165726 6.99981e-18)
(30.2745 0.237451 0)
(30.2466 0.309454 0)
(30.2175 0.381741 6.99688e-18)
(30.1872 0.454309 -1.39924e-17)
(30.1555 0.527144 6.99574e-18)
(30.1223 0.600224 -6.99563e-18)
(30.0876 0.673514 6.99562e-18)
(30.0512 0.746966 0)
(30.013 0.820521 0)
(29.9729 0.894104 0)
(29.9308 0.967629 6.99899e-18)
(29.8866 1.04099 -7.00058e-18)
(29.8402 1.11408 0)
(29.7916 1.18676 0)
(29.7406 1.2589 -3.50416e-18)
(29.6872 1.33032 3.50583e-18)
(29.6313 1.40086 0)
(29.5729 1.47033 0)
(29.5119 1.53856 3.51264e-18)
(29.4485 1.60533 -3.51537e-18)
(29.3826 1.67045 0)
(29.3142 1.7337 0)
(29.2435 1.79489 0)
(29.1704 1.85381 0)
(29.0954 1.91024 0)
(29.0186 1.9639 0)
(30.6662 -0.348448 1.15689e-22)
(30.6452 -0.276818 1.16663e-22)
(30.6239 -0.205078 -1.49422e-17)
(30.6021 -0.133157 0)
(30.5799 -0.060988 0)
(30.5571 0.0114912 0)
(30.5337 0.0843377 7.49297e-18)
(30.5096 0.157603 -7.49044e-18)
(30.4846 0.231333 0)
(30.4587 0.305565 0)
(30.4318 0.380328 0)
(30.4038 0.455643 -7.48183e-18)
(30.3745 0.531519 -7.61279e-23)
(30.3438 0.607955 7.47841e-18)
(30.3116 0.684936 0)
(30.2777 0.762435 -7.47608e-18)
(30.242 0.840409 7.47521e-18)
(30.2043 0.918797 0)
(30.1645 0.997525 7.47474e-18)
(30.1225 1.0765 -7.47493e-18)
(30.0781 1.15559 3.73788e-18)
(30.0312 1.23469 -3.73842e-18)
(29.9816 1.31363 3.73932e-18)
(29.9292 1.39223 -3.74038e-18)
(29.8739 1.4703 0)
(29.8157 1.54763 0)
(29.7545 1.624 3.74561e-18)
(29.6901 1.69914 -3.74791e-18)
(29.6227 1.77281 1.87536e-18)
(29.5522 1.84473 -1.87686e-18)
(29.4787 1.91464 1.87864e-18)
(29.4022 1.98226 -9.40234e-19)
(29.3229 2.04731 -9.41314e-19)
(29.241 2.10953 0)
(29.1567 2.16855 0)
(30.8336 -0.299774 0)
(30.8129 -0.227569 7.99446e-18)
(30.7921 -0.155123 -8.00361e-18)
(30.7711 -0.0823468 0)
(30.7497 -0.00915332 0)
(30.728 0.0645388 0)
(30.7057 0.138807 0)
(30.6829 0.213722 0)
(30.6594 0.289349 0)
(30.6351 0.365747 0)
(30.6098 0.442964 0)
(30.5834 0.521039 0)
(30.5558 0.600001 0)
(30.5268 0.679865 0)
(30.4962 0.760631 7.98905e-18)
(30.4639 0.842286 -7.98633e-18)
(30.4297 0.924795 0)
(30.3933 1.00811 0)
(30.3546 1.09214 0)
(30.3135 1.17681 0)
(30.2696 1.26199 0)
(30.2228 1.34752 0)
(30.173 1.43324 -3.98936e-18)
(30.1199 1.51893 3.98981e-18)
(30.0634 1.60436 3.99074e-18)
(30.0034 1.68928 -3.99189e-18)
(29.9398 1.77338 0)
(29.8723 1.85637 0)
(29.8012 1.93791 0)
(29.7262 2.01766 0)
(29.6475 2.09524 0)
(29.565 2.1703 0)
(29.479 2.24249 0)
(29.3897 2.31142 0)
(29.2975 2.37667 0)
(30.989 -0.255413 0)
(30.9689 -0.183123 -8.56335e-18)
(30.9489 -0.110454 1.71464e-17)
(30.9289 -0.0372985 -8.58308e-18)
(30.9087 0.0364517 0)
(30.8884 0.110899 8.5804e-18)
(30.8677 0.186144 -8.57494e-18)
(30.8467 0.262279 0)
(30.8251 0.339393 0)
(30.8028 0.417569 -8.55872e-18)
(30.7797 0.49688 8.55327e-18)
(30.7556 0.577388 -8.54803e-18)
(30.7304 0.659147 8.54273e-18)
(30.7037 0.742195 -4.26886e-18)
(30.6755 0.826556 4.26637e-18)
(30.6456 0.912235 0)
(30.6136 0.999217 0)
(30.5794 1.08746 0)
(30.5427 1.17691 -4.25797e-18)
(30.5033 1.26747 8.51262e-18)
(30.4608 1.35901 6.05747e-23)
(30.4151 1.45138 -4.25382e-18)
(30.3659 1.54437 0)
(30.3129 1.63776 0)
(30.2559 1.73127 0)
(30.1947 1.8246 -2.12661e-18)
(30.1292 1.91738 2.12704e-18)
(30.0592 2.00923 2.12781e-18)
(29.9845 2.09973 -2.12876e-18)
(29.9052 2.18842 0)