/*--------------------------------*- C++ -*----------------------------------*\
  =========                 |
  \\      /  F ield         | OpenFOAM: The Open Source CFD Toolbox
   \\    /   O peration     | Website:  https://openfoam.org
    \\  /    A nd           | Version:  8
     \\/     M anipulation  |
\*---------------------------------------------------------------------------*/
FoamFile
{
    version     2.0;
    format      ascii;
    class       volScalarField;
    location    "3.5";
    object      nut;
}
// * * * * * * * * * * * * * * * * * * * * * * * * * * * * * * * * * * * * * //

dimensions      [0 2 -1 0 0 0 0];

internalField   nonuniform List<scalar> 
248760
(
0.139974
0.139922
0.139869
0.139817
0.139764
0.139711
0.139658
0.139605
0.139552
0.139499
0.139446
0.139393
0.13934
0.139288
0.139235
0.139183
0.139131
0.139079
0.139027
0.138976
0.138924
0.138873
0.138823
0.138772
0.138722
0.138673
0.138623
0.138574
0.138526
0.138477
0.138429
0.138382
0.138335
0.138288
0.138242
0.138196
0.138151
0.138106
0.138062
0.138018
0.137974
0.137931
0.137888
0.137846
0.137805
0.137764
0.137723
0.137683
0.137643
0.137604
0.137566
0.137527
0.13749
0.137453
0.137416
0.13738
0.137344
0.137309
0.137274
0.13724
0.137206
0.137173
0.13714
0.137108
0.137076
0.137045
0.137014
0.136983
0.136954
0.136924
0.136895
0.136866
0.136838
0.13681
0.136783
0.136756
0.13673
0.136704
0.136678
0.136653
0.136628
0.136603
0.136579
0.136556
0.136532
0.13651
0.136487
0.136465
0.136443
0.136422
0.136401
0.13638
0.13636
0.13634
0.13632
0.136301
0.136282
0.136263
0.136245
0.136227
0.136209
0.136192
0.136175
0.136158
0.136142
0.136127
0.136112
0.136098
0.136085
0.136073
0.136062
0.136053
0.136045
0.136041
0.136039
0.136042
0.136049
0.136062
0.136083
0.136114
0.139974
0.139922
0.139869
0.139816
0.139763
0.13971
0.139657
0.139604
0.139551
0.139498
0.139445
0.139392
0.13934
0.139287
0.139234
0.139182
0.13913
0.139078
0.139026
0.138974
0.138923
0.138872
0.138821
0.138771
0.138721
0.138671
0.138621
0.138572
0.138523
0.138475
0.138427
0.13838
0.138332
0.138286
0.138239
0.138193
0.138148
0.138103
0.138058
0.138014
0.137971
0.137928
0.137885
0.137843
0.137801
0.13776
0.137719
0.137679
0.137639
0.1376
0.137561
0.137523
0.137485
0.137448
0.137411
0.137375
0.137339
0.137304
0.137269
0.137235
0.137201
0.137168
0.137135
0.137103
0.137071
0.137039
0.137008
0.136978
0.136948
0.136918
0.136889
0.13686
0.136832
0.136804
0.136777
0.13675
0.136723
0.136697
0.136671
0.136646
0.136621
0.136597
0.136573
0.136549
0.136526
0.136503
0.13648
0.136458
0.136436
0.136415
0.136393
0.136373
0.136352
0.136332
0.136312
0.136293
0.136274
0.136255
0.136237
0.136219
0.136201
0.136184
0.136167
0.13615
0.136134
0.136119
0.136104
0.13609
0.136077
0.136065
0.136054
0.136044
0.136037
0.136032
0.136031
0.136033
0.136041
0.136054
0.136075
0.136106
0.139974
0.139921
0.139869
0.139816
0.139763
0.13971
0.139657
0.139603
0.13955
0.139497
0.139444
0.139391
0.139338
0.139285
0.139232
0.13918
0.139128
0.139075
0.139024
0.138972
0.13892
0.138869
0.138818
0.138768
0.138717
0.138667
0.138618
0.138568
0.13852
0.138471
0.138423
0.138375
0.138328
0.138281
0.138234
0.138188
0.138143
0.138098
0.138053
0.138009
0.137965
0.137922
0.137879
0.137836
0.137795
0.137753
0.137712
0.137672
0.137632
0.137593
0.137554
0.137515
0.137477
0.13744
0.137403
0.137367
0.137331
0.137295
0.13726
0.137226
0.137192
0.137158
0.137125
0.137093
0.137061
0.137029
0.136998
0.136967
0.136937
0.136907
0.136878
0.136849
0.136821
0.136793
0.136765
0.136738
0.136711
0.136685
0.136659
0.136634
0.136609
0.136584
0.13656
0.136536
0.136513
0.13649
0.136467
0.136444
0.136423
0.136401
0.13638
0.136359
0.136338
0.136318
0.136298
0.136279
0.13626
0.136241
0.136222
0.136204
0.136186
0.136169
0.136152
0.136135
0.136119
0.136104
0.136089
0.136075
0.136061
0.136049
0.136038
0.136029
0.136022
0.136017
0.136015
0.136018
0.136025
0.136038
0.13606
0.136091
0.139974
0.139921
0.139868
0.139815
0.139762
0.139709
0.139655
0.139602
0.139549
0.139495
0.139442
0.139389
0.139336
0.139283
0.13923
0.139177
0.139125
0.139072
0.13902
0.138968
0.138917
0.138865
0.138814
0.138763
0.138713
0.138663
0.138613
0.138563
0.138514
0.138465
0.138417
0.138369
0.138321
0.138274
0.138228
0.138181
0.138135
0.13809
0.138045
0.138001
0.137956
0.137913
0.13787
0.137827
0.137785
0.137744
0.137702
0.137662
0.137622
0.137582
0.137543
0.137504
0.137466
0.137428
0.137391
0.137355
0.137318
0.137283
0.137247
0.137213
0.137179
0.137145
0.137112
0.137079
0.137046
0.137015
0.136983
0.136952
0.136922
0.136892
0.136862
0.136833
0.136805
0.136777
0.136749
0.136722
0.136695
0.136668
0.136642
0.136616
0.136591
0.136566
0.136542
0.136518
0.136494
0.136471
0.136448
0.136426
0.136404
0.136382
0.13636
0.136339
0.136319
0.136298
0.136278
0.136259
0.136239
0.13622
0.136202
0.136183
0.136165
0.136148
0.136131
0.136114
0.136098
0.136082
0.136067
0.136053
0.136039
0.136027
0.136016
0.136007
0.135999
0.135995
0.135993
0.135995
0.136003
0.136017
0.136038
0.136069
0.139974
0.139921
0.139868
0.139814
0.139761
0.139707
0.139654
0.1396
0.139547
0.139493
0.13944
0.139386
0.139333
0.13928
0.139227
0.139174
0.139121
0.139069
0.139016
0.138964
0.138912
0.13886
0.138809
0.138758
0.138707
0.138657
0.138607
0.138557
0.138507
0.138458
0.13841
0.138361
0.138313
0.138266
0.138219
0.138172
0.138126
0.13808
0.138035
0.13799
0.137946
0.137902
0.137859
0.137816
0.137773
0.137732
0.13769
0.137649
0.137609
0.137569
0.137529
0.13749
0.137452
0.137414
0.137376
0.137339
0.137303
0.137267
0.137231
0.137196
0.137162
0.137128
0.137094
0.137061
0.137029
0.136997
0.136965
0.136934
0.136903
0.136873
0.136843
0.136814
0.136785
0.136756
0.136728
0.136701
0.136674
0.136647
0.136621
0.136595
0.136569
0.136544
0.13652
0.136495
0.136471
0.136448
0.136425
0.136402
0.13638
0.136358
0.136336
0.136315
0.136294
0.136273
0.136253
0.136233
0.136214
0.136195
0.136176
0.136157
0.136139
0.136122
0.136104
0.136087
0.136071
0.136055
0.13604
0.136026
0.136012
0.136
0.135988
0.135979
0.135972
0.135967
0.135965
0.135968
0.135975
0.135989
0.136011
0.136042
0.139973
0.13992
0.139867
0.139813
0.13976
0.139706
0.139652
0.139599
0.139545
0.139491
0.139437
0.139384
0.13933
0.139277
0.139223
0.13917
0.139117
0.139064
0.139011
0.138959
0.138907
0.138855
0.138803
0.138752
0.138701
0.13865
0.138599
0.138549
0.138499
0.13845
0.138401
0.138352
0.138304
0.138256
0.138209
0.138162
0.138115
0.138069
0.138024
0.137979
0.137934
0.13789
0.137846
0.137803
0.13776
0.137717
0.137676
0.137634
0.137593
0.137553
0.137513
0.137474
0.137435
0.137397
0.137359
0.137322
0.137285
0.137248
0.137213
0.137177
0.137142
0.137108
0.137074
0.137041
0.137008
0.136975
0.136943
0.136912
0.136881
0.13685
0.13682
0.13679
0.136761
0.136733
0.136704
0.136676
0.136649
0.136622
0.136595
0.136569
0.136543
0.136518
0.136493
0.136469
0.136444
0.136421
0.136397
0.136374
0.136352
0.136329
0.136308
0.136286
0.136265
0.136244
0.136224
0.136204
0.136184
0.136164
0.136145
0.136127
0.136108
0.13609
0.136073
0.136056
0.136039
0.136023
0.136008
0.135993
0.13598
0.135967
0.135956
0.135946
0.135939
0.135934
0.135932
0.135935
0.135942
0.135956
0.135978
0.13601
0.139973
0.13992
0.139866
0.139812
0.139759
0.139705
0.139651
0.139597
0.139543
0.139488
0.139434
0.139381
0.139327
0.139273
0.139219
0.139166
0.139112
0.139059
0.139006
0.138953
0.138901
0.138848
0.138796
0.138745
0.138693
0.138642
0.138591
0.138541
0.13849
0.138441
0.138391
0.138342
0.138294
0.138245
0.138198
0.13815
0.138103
0.138057
0.138011
0.137965
0.13792
0.137875
0.137831
0.137787
0.137744
0.137702
0.137659
0.137618
0.137576
0.137536
0.137495
0.137456
0.137416
0.137378
0.137339
0.137302
0.137264
0.137228
0.137191
0.137156
0.13712
0.137085
0.137051
0.137017
0.136984
0.136951
0.136919
0.136887
0.136856
0.136825
0.136794
0.136764
0.136735
0.136706
0.136677
0.136649
0.136621
0.136593
0.136567
0.13654
0.136514
0.136488
0.136463
0.136438
0.136414
0.13639
0.136366
0.136343
0.13632
0.136297
0.136275
0.136253
0.136232
0.136211
0.13619
0.13617
0.13615
0.13613
0.136111
0.136092
0.136073
0.136055
0.136037
0.13602
0.136003
0.135987
0.135972
0.135957
0.135943
0.13593
0.135919
0.135909
0.135901
0.135896
0.135895
0.135897
0.135905
0.135919
0.135941
0.135974
0.139973
0.139919
0.139865
0.139811
0.139757
0.139703
0.139649
0.139594
0.13954
0.139486
0.139431
0.139377
0.139323
0.139269
0.139215
0.139161
0.139107
0.139054
0.139
0.138947
0.138894
0.138841
0.138789
0.138737
0.138685
0.138633
0.138582
0.138531
0.138481
0.13843
0.138381
0.138331
0.138282
0.138233
0.138185
0.138137
0.13809
0.138043
0.137996
0.13795
0.137905
0.13786
0.137815
0.137771
0.137727
0.137684
0.137641
0.137599
0.137557
0.137516
0.137475
0.137435
0.137396
0.137356
0.137318
0.137279
0.137242
0.137205
0.137168
0.137132
0.137096
0.137061
0.137026
0.136992
0.136958
0.136925
0.136892
0.13686
0.136828
0.136796
0.136766
0.136735
0.136705
0.136676
0.136647
0.136618
0.13659
0.136562
0.136535
0.136508
0.136482
0.136455
0.13643
0.136405
0.13638
0.136355
0.136331
0.136308
0.136285
0.136262
0.136239
0.136217
0.136195
0.136174
0.136153
0.136132
0.136112
0.136092
0.136073
0.136053
0.136034
0.136016
0.135998
0.135981
0.135963
0.135947
0.135931
0.135916
0.135902
0.135889
0.135877
0.135868
0.13586
0.135855
0.135853
0.135856
0.135864
0.135878
0.135901
0.135933
0.139973
0.139919
0.139865
0.13981
0.139756
0.139701
0.139647
0.139592
0.139537
0.139483
0.139428
0.139374
0.139319
0.139265
0.13921
0.139156
0.139102
0.139048
0.138994
0.138941
0.138887
0.138834
0.138781
0.138729
0.138676
0.138624
0.138573
0.138521
0.13847
0.138419
0.138369
0.138319
0.13827
0.138221
0.138172
0.138123
0.138076
0.138028
0.137981
0.137935
0.137889
0.137843
0.137798
0.137753
0.137709
0.137665
0.137622
0.137579
0.137537
0.137495
0.137454
0.137413
0.137373
0.137333
0.137294
0.137256
0.137217
0.13718
0.137142
0.137106
0.13707
0.137034
0.136999
0.136964
0.13693
0.136896
0.136863
0.13683
0.136798
0.136766
0.136735
0.136704
0.136673
0.136643
0.136614
0.136585
0.136556
0.136528
0.1365
0.136473
0.136446
0.13642
0.136394
0.136368
0.136343
0.136318
0.136294
0.13627
0.136246
0.136223
0.1362
0.136178
0.136156
0.136134
0.136113
0.136092
0.136071
0.136051
0.136031
0.136011
0.135992
0.135974
0.135955
0.135937
0.13592
0.135903
0.135887
0.135872
0.135858
0.135845
0.135833
0.135823
0.135815
0.13581
0.135808
0.135811
0.135819
0.135833
0.135856
0.13589
0.139973
0.139918
0.139864
0.139809
0.139755
0.1397
0.139645
0.13959
0.139535
0.13948
0.139425
0.13937
0.139315
0.13926
0.139205
0.139151
0.139096
0.139042
0.138988
0.138934
0.13888
0.138826
0.138773
0.13872
0.138667
0.138615
0.138562
0.138511
0.138459
0.138408
0.138357
0.138307
0.138257
0.138207
0.138158
0.138109
0.13806
0.138012
0.137965
0.137918
0.137871
0.137825
0.137779
0.137734
0.137689
0.137645
0.137601
0.137558
0.137515
0.137473
0.137431
0.13739
0.137349
0.137309
0.137269
0.13723
0.137191
0.137153
0.137115
0.137078
0.137041
0.137005
0.13697
0.136934
0.1369
0.136865
0.136832
0.136798
0.136766
0.136733
0.136702
0.13667
0.136639
0.136609
0.136579
0.13655
0.13652
0.136492
0.136464
0.136436
0.136409
0.136382
0.136355
0.136329
0.136304
0.136279
0.136254
0.13623
0.136206
0.136182
0.136159
0.136136
0.136113
0.136091
0.13607
0.136048
0.136027
0.136007
0.135986
0.135967
0.135947
0.135928
0.13591
0.135891
0.135874
0.135857
0.13584
0.135825
0.13581
0.135797
0.135785
0.135775
0.135767
0.135762
0.13576
0.135763
0.135771
0.135786
0.135809
0.135843
0.139973
0.139918
0.139863
0.139808
0.139753
0.139698
0.139643
0.139587
0.139532
0.139477
0.139421
0.139366
0.139311
0.139255
0.1392
0.139145
0.13909
0.139035
0.138981
0.138926
0.138872
0.138818
0.138764
0.138711
0.138657
0.138604
0.138552
0.138499
0.138447
0.138396
0.138344
0.138293
0.138243
0.138193
0.138143
0.138093
0.138044
0.137996
0.137948
0.1379
0.137853
0.137806
0.13776
0.137714
0.137669
0.137624
0.13758
0.137536
0.137492
0.13745
0.137407
0.137365
0.137324
0.137283
0.137243
0.137203
0.137164
0.137125
0.137087
0.137049
0.137012
0.136975
0.136939
0.136903
0.136868
0.136833
0.136799
0.136765
0.136732
0.136699
0.136667
0.136635
0.136603
0.136572
0.136542
0.136512
0.136483
0.136453
0.136425
0.136397
0.136369
0.136342
0.136315
0.136288
0.136262
0.136237
0.136211
0.136187
0.136162
0.136138
0.136115
0.136091
0.136069
0.136046
0.136024
0.136002
0.135981
0.13596
0.135939
0.135919
0.135899
0.13588
0.135861
0.135843
0.135825
0.135807
0.135791
0.135775
0.13576
0.135746
0.135734
0.135724
0.135716
0.13571
0.135709
0.135711
0.13572
0.135735
0.135759
0.135793
0.139973
0.139918
0.139862
0.139807
0.139752
0.139696
0.139641
0.139585
0.139529
0.139473
0.139418
0.139362
0.139306
0.139251
0.139195
0.139139
0.139084
0.139029
0.138974
0.138919
0.138864
0.13881
0.138755
0.138701
0.138647
0.138594
0.138541
0.138488
0.138435
0.138383
0.138331
0.13828
0.138228
0.138178
0.138127
0.138077
0.138028
0.137979
0.13793
0.137882
0.137834
0.137787
0.13774
0.137693
0.137647
0.137602
0.137557
0.137513
0.137469
0.137425
0.137382
0.13734
0.137298
0.137256
0.137216
0.137175
0.137135
0.137096
0.137057
0.137019
0.136981
0.136943
0.136907
0.13687
0.136835
0.136799
0.136764
0.13673
0.136696
0.136663
0.13663
0.136598
0.136566
0.136534
0.136503
0.136473
0.136443
0.136413
0.136384
0.136355
0.136327
0.136299
0.136272
0.136245
0.136219
0.136193
0.136167
0.136142
0.136117
0.136092
0.136068
0.136045
0.136021
0.135999
0.135976
0.135954
0.135932
0.135911
0.13589
0.135869
0.135849
0.135829
0.13581
0.135791
0.135773
0.135755
0.135738
0.135722
0.135707
0.135693
0.135681
0.13567
0.135662
0.135657
0.135655
0.135658
0.135666
0.135682
0.135706
0.135741
0.139972
0.139917
0.139862
0.139806
0.13975
0.139694
0.139638
0.139582
0.139526
0.13947
0.139414
0.139358
0.139302
0.139246
0.13919
0.139134
0.139078
0.139022
0.138967
0.138911
0.138856
0.138801
0.138746
0.138691
0.138637
0.138583
0.138529
0.138476
0.138423
0.13837
0.138317
0.138265
0.138214
0.138162
0.138111
0.138061
0.13801
0.137961
0.137911
0.137863
0.137814
0.137766
0.137719
0.137672
0.137625
0.137579
0.137533
0.137488
0.137444
0.1374
0.137356
0.137313
0.137271
0.137228
0.137187
0.137146
0.137105
0.137065
0.137026
0.136987
0.136949
0.136911
0.136873
0.136836
0.1368
0.136764
0.136729
0.136694
0.136659
0.136625
0.136592
0.136559
0.136526
0.136495
0.136463
0.136432
0.136401
0.136371
0.136342
0.136312
0.136284
0.136255
0.136228
0.1362
0.136173
0.136147
0.136121
0.136095
0.136069
0.136045
0.13602
0.135996
0.135972
0.135949
0.135926
0.135904
0.135881
0.13586
0.135838
0.135817
0.135797
0.135777
0.135757
0.135738
0.135719
0.135701
0.135684
0.135667
0.135652
0.135638
0.135625
0.135614
0.135606
0.135601
0.135599
0.135602
0.13561
0.135626
0.135651
0.135687
0.139972
0.139917
0.139861
0.139805
0.139749
0.139693
0.139636
0.13958
0.139523
0.139467
0.13941
0.139354
0.139297
0.139241
0.139184
0.139128
0.139071
0.139015
0.138959
0.138903
0.138847
0.138792
0.138737
0.138681
0.138627
0.138572
0.138518
0.138464
0.13841
0.138356
0.138303
0.138251
0.138198
0.138146
0.138095
0.138043
0.137993
0.137942
0.137892
0.137843
0.137794
0.137745
0.137697
0.137649
0.137602
0.137555
0.137509
0.137463
0.137418
0.137373
0.137329
0.137286
0.137242
0.1372
0.137157
0.137116
0.137075
0.137034
0.136994
0.136954
0.136915
0.136877
0.136839
0.136801
0.136764
0.136727
0.136691
0.136656
0.136621
0.136586
0.136552
0.136519
0.136486
0.136453
0.136421
0.13639
0.136359
0.136328
0.136298
0.136268
0.136239
0.13621
0.136181
0.136154
0.136126
0.136099
0.136072
0.136046
0.13602
0.135995
0.13597
0.135945
0.135921
0.135898
0.135874
0.135851
0.135829
0.135806
0.135785
0.135763
0.135742
0.135722
0.135702
0.135682
0.135663
0.135645
0.135627
0.13561
0.135595
0.13558
0.135567
0.135556
0.135548
0.135542
0.13554
0.135543
0.135552
0.135568
0.135594
0.135631
0.139972
0.139916
0.13986
0.139804
0.139747
0.139691
0.139634
0.139577
0.13952
0.139463
0.139406
0.139349
0.139292
0.139235
0.139178
0.139122
0.139065
0.139008
0.138952
0.138895
0.138839
0.138783
0.138727
0.138671
0.138616
0.138561
0.138506
0.138451
0.138397
0.138343
0.138289
0.138236
0.138183
0.13813
0.138078
0.138026
0.137974
0.137923
0.137873
0.137823
0.137773
0.137724
0.137675
0.137626
0.137579
0.137531
0.137484
0.137438
0.137392
0.137347
0.137302
0.137257
0.137213
0.13717
0.137127
0.137085
0.137043
0.137002
0.136961
0.136921
0.136881
0.136842
0.136803
0.136765
0.136727
0.13669
0.136653
0.136617
0.136581
0.136546
0.136512
0.136478
0.136444
0.136411
0.136378
0.136346
0.136314
0.136283
0.136252
0.136222
0.136192
0.136163
0.136134
0.136105
0.136077
0.13605
0.136023
0.135996
0.13597
0.135944
0.135918
0.135893
0.135869
0.135844
0.135821
0.135797
0.135774
0.135751
0.135729
0.135707
0.135686
0.135665
0.135645
0.135625
0.135605
0.135587
0.135569
0.135551
0.135535
0.135521
0.135507
0.135496
0.135488
0.135482
0.13548
0.135483
0.135492
0.135509
0.135535
0.135572
0.139972
0.139916
0.139859
0.139803
0.139746
0.139689
0.139632
0.139575
0.139517
0.13946
0.139403
0.139345
0.139288
0.13923
0.139173
0.139115
0.139058
0.139001
0.138944
0.138887
0.13883
0.138774
0.138717
0.138661
0.138605
0.138549
0.138493
0.138438
0.138383
0.138329
0.138274
0.13822
0.138167
0.138113
0.13806
0.138008
0.137956
0.137904
0.137853
0.137802
0.137752
0.137702
0.137652
0.137603
0.137554
0.137506
0.137459
0.137412
0.137365
0.137319
0.137273
0.137228
0.137184
0.13714
0.137096
0.137053
0.13701
0.136968
0.136927
0.136886
0.136846
0.136806
0.136766
0.136727
0.136689
0.136651
0.136614
0.136577
0.136541
0.136505
0.13647
0.136435
0.136401
0.136367
0.136334
0.136301
0.136269
0.136237
0.136206
0.136175
0.136144
0.136114
0.136085
0.136056
0.136027
0.135999
0.135971
0.135944
0.135917
0.135891
0.135865
0.135839
0.135814
0.13579
0.135765
0.135741
0.135718
0.135695
0.135672
0.13565
0.135628
0.135607
0.135586
0.135565
0.135546
0.135526
0.135508
0.135491
0.135474
0.135459
0.135446
0.135434
0.135425
0.13542
0.135418
0.135421
0.13543
0.135447
0.135474
0.135512
0.139972
0.139915
0.139859
0.139802
0.139744
0.139687
0.13963
0.139572
0.139514
0.139457
0.139399
0.139341
0.139283
0.139225
0.139167
0.139109
0.139051
0.138994
0.138936
0.138879
0.138821
0.138764
0.138707
0.13865
0.138594
0.138537
0.138481
0.138425
0.13837
0.138314
0.138259
0.138205
0.13815
0.138096
0.138043
0.13799
0.137937
0.137884
0.137832
0.137781
0.13773
0.137679
0.137629
0.137579
0.13753
0.137481
0.137433
0.137385
0.137337
0.137291
0.137244
0.137198
0.137153
0.137108
0.137064
0.13702
0.136977
0.136934
0.136892
0.136851
0.136809
0.136769
0.136729
0.136689
0.13665
0.136612
0.136574
0.136536
0.136499
0.136463
0.136427
0.136392
0.136357
0.136322
0.136288
0.136255
0.136222
0.13619
0.136158
0.136126
0.136095
0.136065
0.136035
0.136005
0.135976
0.135947
0.135919
0.135891
0.135864
0.135837
0.13581
0.135784
0.135759
0.135733
0.135708
0.135684
0.13566
0.135637
0.135613
0.135591
0.135568
0.135547
0.135525
0.135504
0.135484
0.135465
0.135446
0.135428
0.135411
0.135396
0.135382
0.135371
0.135362
0.135356
0.135354
0.135357
0.135367
0.135384
0.135411
0.135451
0.139972
0.139915
0.139858
0.1398
0.139743
0.139685
0.139627
0.139569
0.139511
0.139453
0.139395
0.139336
0.139278
0.13922
0.139161
0.139103
0.139045
0.138986
0.138928
0.13887
0.138812
0.138755
0.138697
0.13864
0.138582
0.138525
0.138469
0.138412
0.138356
0.1383
0.138244
0.138189
0.138134
0.138079
0.138025
0.137971
0.137918
0.137864
0.137812
0.137759
0.137708
0.137656
0.137605
0.137555
0.137505
0.137455
0.137406
0.137358
0.137309
0.137262
0.137215
0.137168
0.137122
0.137077
0.137032
0.136987
0.136943
0.1369
0.136857
0.136814
0.136773
0.136731
0.136691
0.13665
0.136611
0.136571
0.136533
0.136494
0.136457
0.13642
0.136383
0.136347
0.136311
0.136276
0.136242
0.136208
0.136174
0.136141
0.136109
0.136076
0.136045
0.136014
0.135983
0.135953
0.135923
0.135894
0.135865
0.135837
0.135809
0.135781
0.135754
0.135728
0.135701
0.135676
0.13565
0.135625
0.135601
0.135577
0.135553
0.13553
0.135507
0.135485
0.135463
0.135442
0.135421
0.135401
0.135382
0.135364
0.135347
0.135331
0.135317
0.135305
0.135296
0.13529
0.135288
0.135292
0.135301
0.135319
0.135347
0.135387
0.139972
0.139914
0.139857
0.139799
0.139741
0.139683
0.139625
0.139567
0.139508
0.13945
0.139391
0.139332
0.139273
0.139214
0.139156
0.139097
0.139038
0.138979
0.13892
0.138862
0.138803
0.138745
0.138687
0.138629
0.138571
0.138513
0.138456
0.138399
0.138342
0.138285
0.138229
0.138173
0.138117
0.138062
0.138007
0.137952
0.137898
0.137844
0.137791
0.137738
0.137685
0.137633
0.137581
0.13753
0.137479
0.137429
0.137379
0.13733
0.137281
0.137233
0.137185
0.137137
0.137091
0.137044
0.136999
0.136953
0.136909
0.136864
0.136821
0.136778
0.136735
0.136693
0.136651
0.13661
0.13657
0.13653
0.136491
0.136452
0.136413
0.136376
0.136338
0.136302
0.136265
0.13623
0.136194
0.13616
0.136125
0.136092
0.136058
0.136026
0.135993
0.135962
0.13593
0.1359
0.135869
0.135839
0.13581
0.135781
0.135753
0.135725
0.135697
0.13567
0.135643
0.135617
0.135591
0.135565
0.13554
0.135516
0.135492
0.135468
0.135445
0.135422
0.1354
0.135378
0.135357
0.135337
0.135317
0.135299
0.135281
0.135265
0.135251
0.135239
0.135229
0.135223
0.135221
0.135225
0.135235
0.135253
0.135281
0.135323
0.139971
0.139914
0.139856
0.139798
0.13974
0.139681
0.139623
0.139564
0.139505
0.139446
0.139387
0.139328
0.139268
0.139209
0.13915
0.13909
0.139031
0.138972
0.138912
0.138853
0.138794
0.138735
0.138676
0.138618
0.138559
0.138501
0.138443
0.138385
0.138328
0.13827
0.138213
0.138157
0.1381
0.138044
0.137988
0.137933
0.137878
0.137824
0.137769
0.137716
0.137662
0.137609
0.137557
0.137505
0.137453
0.137402
0.137352
0.137302
0.137252
0.137203
0.137154
0.137106
0.137059
0.137011
0.136965
0.136919
0.136873
0.136828
0.136784
0.13674
0.136697
0.136654
0.136612
0.13657
0.136529
0.136488
0.136448
0.136408
0.136369
0.136331
0.136293
0.136255
0.136218
0.136182
0.136146
0.136111
0.136076
0.136041
0.136007
0.135974
0.135941
0.135909
0.135877
0.135845
0.135814
0.135784
0.135754
0.135724
0.135695
0.135667
0.135638
0.135611
0.135583
0.135557
0.13553
0.135504
0.135479
0.135453
0.135429
0.135405
0.135381
0.135358
0.135335
0.135313
0.135291
0.135271
0.135251
0.135232
0.135214
0.135197
0.135183
0.13517
0.135161
0.135155
0.135153
0.135156
0.135166
0.135185
0.135214
0.135256
0.139971
0.139913
0.139855
0.139797
0.139738
0.13968
0.139621
0.139561
0.139502
0.139443
0.139383
0.139323
0.139264
0.139204
0.139144
0.139084
0.139024
0.138964
0.138904
0.138845
0.138785
0.138725
0.138666
0.138607
0.138548
0.138489
0.13843
0.138372
0.138313
0.138255
0.138198
0.13814
0.138083
0.138026
0.13797
0.137914
0.137858
0.137803
0.137748
0.137693
0.137639
0.137586
0.137532
0.137479
0.137427
0.137375
0.137324
0.137273
0.137223
0.137173
0.137123
0.137074
0.137026
0.136978
0.136931
0.136884
0.136838
0.136792
0.136747
0.136702
0.136658
0.136614
0.136571
0.136529
0.136487
0.136445
0.136405
0.136364
0.136324
0.136285
0.136246
0.136208
0.13617
0.136133
0.136097
0.136061
0.136025
0.13599
0.135955
0.135921
0.135888
0.135855
0.135822
0.13579
0.135758
0.135727
0.135697
0.135666
0.135637
0.135608
0.135579
0.13555
0.135523
0.135495
0.135468
0.135442
0.135416
0.13539
0.135365
0.13534
0.135316
0.135292
0.135269
0.135246
0.135224
0.135203
0.135183
0.135163
0.135145
0.135128
0.135114
0.135101
0.135091
0.135085
0.135083
0.135086
0.135097
0.135116
0.135146
0.135189
0.139971
0.139913
0.139855
0.139796
0.139737
0.139678
0.139618
0.139559
0.139499
0.139439
0.139379
0.139319
0.139259
0.139198
0.139138
0.139078
0.139017
0.138957
0.138896
0.138836
0.138776
0.138716
0.138656
0.138596
0.138536
0.138476
0.138417
0.138358
0.138299
0.13824
0.138182
0.138124
0.138066
0.138008
0.137951
0.137894
0.137838
0.137782
0.137726
0.137671
0.137616
0.137561
0.137507
0.137454
0.137401
0.137348
0.137296
0.137244
0.137193
0.137142
0.137092
0.137042
0.136993
0.136944
0.136896
0.136849
0.136802
0.136755
0.136709
0.136663
0.136619
0.136574
0.13653
0.136487
0.136444
0.136402
0.13636
0.136319
0.136279
0.136239
0.136199
0.13616
0.136122
0.136084
0.136047
0.13601
0.135973
0.135938
0.135902
0.135868
0.135833
0.1358
0.135766
0.135734
0.135701
0.13567
0.135638
0.135608
0.135577
0.135547
0.135518
0.135489
0.135461
0.135433
0.135405
0.135378
0.135351
0.135325
0.135299
0.135274
0.135249
0.135225
0.135201
0.135178
0.135156
0.135134
0.135113
0.135094
0.135075
0.135058
0.135043
0.13503
0.13502
0.135013
0.135012
0.135015
0.135026
0.135046
0.135076
0.13512
0.139971
0.139913
0.139854
0.139795
0.139735
0.139676
0.139616
0.139556
0.139496
0.139436
0.139375
0.139314
0.139254
0.139193
0.139132
0.139071
0.13901
0.138949
0.138888
0.138827
0.138766
0.138706
0.138645
0.138585
0.138524
0.138464
0.138404
0.138344
0.138284
0.138225
0.138166
0.138107
0.138048
0.13799
0.137932
0.137875
0.137817
0.137761
0.137704
0.137648
0.137592
0.137537
0.137482
0.137428
0.137374
0.13732
0.137267
0.137215
0.137163
0.137111
0.13706
0.13701
0.13696
0.13691
0.136861
0.136813
0.136765
0.136717
0.136671
0.136624
0.136579
0.136533
0.136489
0.136445
0.136401
0.136358
0.136316
0.136274
0.136232
0.136192
0.136151
0.136112
0.136072
0.136034
0.135996
0.135958
0.135921
0.135885
0.135849
0.135813
0.135778
0.135744
0.13571
0.135676
0.135643
0.135611
0.135579
0.135548
0.135517
0.135486
0.135456
0.135427
0.135398
0.135369
0.135341
0.135313
0.135286
0.135259
0.135233
0.135207
0.135182
0.135157
0.135133
0.135109
0.135086
0.135064
0.135043
0.135023
0.135004
0.134986
0.134971
0.134958
0.134947
0.134941
0.134939
0.134943
0.134954
0.134974
0.135005
0.135051
0.139971
0.139912
0.139853
0.139794
0.139734
0.139674
0.139614
0.139553
0.139493
0.139432
0.139371
0.13931
0.139249
0.139187
0.139126
0.139065
0.139003
0.138942
0.13888
0.138819
0.138757
0.138696
0.138634
0.138573
0.138512
0.138451
0.138391
0.13833
0.13827
0.13821
0.13815
0.13809
0.138031
0.137972
0.137913
0.137855
0.137797
0.137739
0.137682
0.137625
0.137568
0.137512
0.137457
0.137401
0.137347
0.137292
0.137239
0.137185
0.137132
0.13708
0.137028
0.136977
0.136926
0.136875
0.136826
0.136776
0.136728
0.136679
0.136632
0.136585
0.136538
0.136492
0.136447
0.136402
0.136357
0.136314
0.13627
0.136228
0.136185
0.136144
0.136103
0.136062
0.136022
0.135983
0.135944
0.135906
0.135868
0.135831
0.135794
0.135758
0.135722
0.135687
0.135652
0.135618
0.135585
0.135551
0.135519
0.135487
0.135455
0.135424
0.135393
0.135363
0.135333
0.135304
0.135276
0.135247
0.135219
0.135192
0.135165
0.135139
0.135113
0.135088
0.135063
0.135039
0.135016
0.134993
0.134971
0.134951
0.134931
0.134914
0.134898
0.134884
0.134874
0.134867
0.134865
0.134869
0.134881
0.134901
0.134933
0.13498
0.139971
0.139912
0.139852
0.139793
0.139732
0.139672
0.139612
0.139551
0.13949
0.139429
0.139367
0.139306
0.139244
0.139182
0.13912
0.139058
0.138996
0.138934
0.138872
0.13881
0.138748
0.138686
0.138624
0.138562
0.1385
0.138439
0.138377
0.138316
0.138255
0.138194
0.138134
0.138073
0.138013
0.137953
0.137894
0.137835
0.137776
0.137717
0.137659
0.137602
0.137544
0.137487
0.137431
0.137375
0.137319
0.137264
0.137209
0.137155
0.137101
0.137048
0.136996
0.136943
0.136892
0.13684
0.13679
0.13674
0.13669
0.136641
0.136592
0.136544
0.136497
0.13645
0.136404
0.136358
0.136313
0.136268
0.136224
0.136181
0.136138
0.136095
0.136053
0.136012
0.135971
0.135931
0.135892
0.135853
0.135814
0.135776
0.135739
0.135702
0.135665
0.135629
0.135594
0.135559
0.135525
0.135491
0.135458
0.135425
0.135393
0.135361
0.13533
0.135299
0.135268
0.135239
0.135209
0.13518
0.135152
0.135124
0.135097
0.13507
0.135043
0.135017
0.134992
0.134968
0.134944
0.134921
0.134898
0.134877
0.134858
0.134839
0.134823
0.13481
0.134799
0.134792
0.13479
0.134794
0.134806
0.134827
0.13486
0.134908
0.139971
0.139911
0.139851
0.139791
0.139731
0.13967
0.139609
0.139548
0.139487
0.139425
0.139363
0.139301
0.139239
0.139177
0.139114
0.139052
0.138989
0.138926
0.138864
0.138801
0.138738
0.138676
0.138613
0.138551
0.138488
0.138426
0.138364
0.138302
0.13824
0.138179
0.138117
0.138056
0.137995
0.137935
0.137875
0.137815
0.137755
0.137696
0.137637
0.137578
0.13752
0.137462
0.137405
0.137348
0.137292
0.137236
0.13718
0.137125
0.13707
0.137016
0.136963
0.13691
0.136857
0.136805
0.136753
0.136702
0.136652
0.136602
0.136553
0.136504
0.136456
0.136408
0.136361
0.136314
0.136268
0.136223
0.136178
0.136133
0.136089
0.136046
0.136004
0.135961
0.13592
0.135879
0.135838
0.135799
0.135759
0.135721
0.135682
0.135645
0.135607
0.135571
0.135535
0.135499
0.135464
0.13543
0.135396
0.135362
0.135329
0.135297
0.135265
0.135233
0.135202
0.135172
0.135142
0.135112
0.135083
0.135055
0.135027
0.134999
0.134972
0.134946
0.13492
0.134895
0.134871
0.134847
0.134824
0.134803
0.134783
0.134764
0.134748
0.134734
0.134723
0.134716
0.134714
0.134718
0.13473
0.134752
0.134786
0.134835
0.13997
0.139911
0.139851
0.13979
0.13973
0.139668
0.139607
0.139546
0.139484
0.139422
0.139359
0.139297
0.139234
0.139171
0.139108
0.139045
0.138982
0.138919
0.138855
0.138792
0.138729
0.138666
0.138602
0.138539
0.138476
0.138413
0.13835
0.138288
0.138225
0.138163
0.138101
0.138039
0.137977
0.137916
0.137855
0.137794
0.137734
0.137674
0.137614
0.137555
0.137496
0.137437
0.137379
0.137321
0.137264
0.137207
0.13715
0.137094
0.137039
0.136984
0.13693
0.136876
0.136822
0.136769
0.136717
0.136665
0.136613
0.136563
0.136512
0.136463
0.136414
0.136365
0.136317
0.136269
0.136222
0.136176
0.13613
0.136085
0.136041
0.135996
0.135953
0.13591
0.135868
0.135826
0.135785
0.135744
0.135704
0.135664
0.135625
0.135587
0.135549
0.135511
0.135475
0.135438
0.135403
0.135367
0.135333
0.135298
0.135265
0.135232
0.135199
0.135167
0.135135
0.135104
0.135073
0.135043
0.135014
0.134985
0.134956
0.134928
0.1349
0.134873
0.134847
0.134821
0.134796
0.134772
0.134749
0.134727
0.134707
0.134688
0.134671
0.134657
0.134646
0.134639
0.134637
0.134641
0.134654
0.134676
0.134711
0.134761
0.13997
0.13991
0.13985
0.139789
0.139728
0.139667
0.139605
0.139543
0.139481
0.139418
0.139355
0.139292
0.139229
0.139166
0.139102
0.139039
0.138975
0.138911
0.138847
0.138783
0.138719
0.138656
0.138592
0.138528
0.138464
0.1384
0.138337
0.138274
0.13821
0.138147
0.138084
0.138022
0.137959
0.137897
0.137835
0.137774
0.137713
0.137652
0.137591
0.137531
0.137471
0.137412
0.137353
0.137294
0.137236
0.137178
0.137121
0.137064
0.137007
0.136951
0.136896
0.136841
0.136787
0.136733