/*--------------------------------*- C++ -*----------------------------------*\
  =========                 |
  \\      /  F ield         | OpenFOAM: The Open Source CFD Toolbox
   \\    /   O peration     | Website:  https://openfoam.org
    \\  /    A nd           | Version:  8
     \\/     M anipulation  |
\*---------------------------------------------------------------------------*/
FoamFile
{
    version     2.0;
    format      ascii;
    class       volScalarField;
    location    "3.5";
    object      p;
}
// * * * * * * * * * * * * * * * * * * * * * * * * * * * * * * * * * * * * * //

dimensions      [0 2 -2 0 0 0 0];

internalField   nonuniform List<scalar> 
248760
(
0.0478923
0.0478527
0.0476691
0.0474053
0.047052
0.0466122
0.0460917
0.045494
0.0448227
0.0440813
0.0432733
0.0424018
0.0414698
0.0404803
0.0394362
0.0383402
0.0371949
0.036003
0.0347668
0.033489
0.0321717
0.0308174
0.0294283
0.0280065
0.0265542
0.0250734
0.0235663
0.0220347
0.0204805
0.0189057
0.0173121
0.0157014
0.0140754
0.0124356
0.0107838
0.00912157
0.00745034
0.00577161
0.00408681
0.00239731
0.000704442
-0.000990526
-0.00268637
-0.0043819
-0.00607599
-0.00776755
-0.00945554
-0.011139
-0.0128169
-0.0144885
-0.0161528
-0.0178089
-0.0194562
-0.0210939
-0.0227213
-0.0243377
-0.0259425
-0.0275351
-0.0291151
-0.0306817
-0.0322347
-0.0337734
-0.0352976
-0.0368068
-0.0383006
-0.0397787
-0.0412408
-0.0426866
-0.0441159
-0.0455284
-0.0469239
-0.0483021
-0.049663
-0.0510063
-0.052332
-0.0536398
-0.0549298
-0.0562017
-0.0574556
-0.0586912
-0.0599088
-0.061108
-0.062289
-0.0634517
-0.0645961
-0.0657222
-0.0668301
-0.0679196
-0.068991
-0.0700441
-0.071079
-0.0720958
-0.0730946
-0.0740752
-0.075038
-0.0759827
-0.0769097
-0.0778189
-0.0787104
-0.0795842
-0.0804406
-0.0812793
-0.0821008
-0.0829048
-0.0836917
-0.0844614
-0.0852141
-0.0859496
-0.0866684
-0.0873702
-0.0880553
-0.0887237
-0.0893755
-0.0900107
-0.0906295
-0.0912317
-0.0918165
-0.0923863
-0.092958
-0.0935238
0.0479046
0.0478642
0.047682
0.0474181
0.0470653
0.0466259
0.0461058
0.0455085
0.0448377
0.0440968
0.0432892
0.0424182
0.0414867
0.0404977
0.0394541
0.0383585
0.0372137
0.0360223
0.0347867
0.0335093
0.0321926
0.0308387
0.0294501
0.0280287
0.0265769
0.0250966
0.0235899
0.0220587
0.020505
0.0189306
0.0173374
0.0157271
0.0141014
0.012462
0.0108106
0.00914865
0.00747772
0.00579929
0.00411477
0.00242553
0.000732906
-0.000961835
-0.00265746
-0.0043528
-0.00604671
-0.00773811
-0.00942595
-0.0111093
-0.0127871
-0.0144586
-0.0161227
-0.0177788
-0.0194261
-0.0210637
-0.022691
-0.0243074
-0.0259122
-0.0275049
-0.0290848
-0.0306515
-0.0322045
-0.0337433
-0.0352675
-0.0367768
-0.0382707
-0.0397489
-0.0412111
-0.042657
-0.0440864
-0.045499
-0.0468946
-0.048273
-0.049634
-0.0509774
-0.0523032
-0.0536112
-0.0549013
-0.0561734
-0.0574274
-0.0586633
-0.059881
-0.0610804
-0.0622616
-0.0634245
-0.0645691
-0.0656954
-0.0668035
-0.0678932
-0.0689648
-0.0700181
-0.0710533
-0.0720703
-0.0730693
-0.0740502
-0.0750132
-0.0759583
-0.0768855
-0.077795
-0.0786868
-0.0795609
-0.0804175
-0.0812566
-0.0820784
-0.0828828
-0.08367
-0.08444
-0.085193
-0.085929
-0.0866481
-0.0873503
-0.0880359
-0.0887047
-0.089357
-0.0899926
-0.0906119
-0.0912145
-0.0917999
-0.0923704
-0.0929431
-0.0935078
0.0479254
0.0478853
0.047704
0.0474405
0.0470884
0.0466498
0.0461304
0.0455338
0.0448637
0.0441236
0.0433168
0.0424466
0.0415159
0.0405277
0.0394849
0.0383902
0.0372463
0.0360557
0.0348209
0.0335444
0.0322285
0.0308755
0.0294877
0.0280672
0.0266161
0.0251366
0.0236306
0.0221002
0.0205472
0.0189735
0.017381
0.0157713
0.0141462
0.0125075
0.0108566
0.00919517
0.00752475
0.00584679
0.00416271
0.00247388
0.000781637
-0.000912756
-0.00260807
-0.00430312
-0.00599678
-0.00768795
-0.00937561
-0.0110587
-0.0127365
-0.0144078
-0.0160719
-0.0177279
-0.0193752
-0.0210128
-0.0226402
-0.0242566
-0.0258615
-0.0274542
-0.0290343
-0.0306011
-0.0321543
-0.0336933
-0.0352178
-0.0367272
-0.0382213
-0.0396998
-0.0411623
-0.0426084
-0.0440382
-0.045451
-0.046847
-0.0482256
-0.049587
-0.0509308
-0.052257
-0.0535654
-0.0548559
-0.0561283
-0.0573828
-0.058619
-0.0598371
-0.061037
-0.0622186
-0.0633819
-0.064527
-0.0656537
-0.0667623
-0.0678525
-0.0689245
-0.0699783
-0.071014
-0.0720315
-0.073031
-0.0740124
-0.0749759
-0.0759214
-0.0768493
-0.0777592
-0.0786516
-0.0795262
-0.0803834
-0.081223
-0.0820454
-0.0828504
-0.0836382
-0.0844088
-0.0851624
-0.085899
-0.0866187
-0.0873215
-0.0880077
-0.0886771
-0.08933
-0.0899663
-0.0905862
-0.0911894
-0.0917753
-0.0923465
-0.0929197
-0.0934851
0.0479561
0.0479168
0.0477365
0.0474738
0.0471228
0.0466851
0.0461667
0.0455712
0.0449022
0.0441633
0.0433576
0.0424886
0.0415591
0.0405721
0.0395306
0.0384371
0.0372945
0.0361051
0.0348716
0.0335963
0.0322816
0.0309299
0.0295432
0.0281239
0.026674
0.0251957
0.0236908
0.0221615
0.0206096
0.0190369
0.0174454
0.0158367
0.0142125
0.0125746
0.0109246
0.00926398
0.00759431
0.00591706
0.00423365
0.00254544
0.000853771
-0.000840094
-0.00253492
-0.00422954
-0.00592281
-0.00761363
-0.00930098
-0.0109839
-0.0126613
-0.0143325
-0.0159965
-0.0176524
-0.0192996
-0.0209372
-0.0225646
-0.0241811
-0.0257861
-0.0273789
-0.0289591
-0.0305262
-0.0320795
-0.0336187
-0.0351434
-0.0366532
-0.0381476
-0.0396264
-0.0410892
-0.0425358
-0.0439658
-0.0453792
-0.0467755
-0.0481547
-0.0495165
-0.0508608
-0.0521874
-0.0534963
-0.0547873
-0.0560603
-0.0573152
-0.058552
-0.0597707
-0.0609711
-0.0621533
-0.0633172
-0.0644629
-0.0655903
-0.0666994
-0.0677902
-0.0688629
-0.0699174
-0.0709536
-0.0719719
-0.072972
-0.0739541
-0.0749183
-0.0758646
-0.0767931
-0.0777039
-0.0785969
-0.0794724
-0.0803303
-0.0811709
-0.081994
-0.0827998
-0.0835885
-0.08436
-0.0851145
-0.0858521
-0.0865727
-0.0872766
-0.0879637
-0.0886342
-0.0892881
-0.0899255
-0.0905465
-0.0911509
-0.0917379
-0.0923104
-0.0928848
-0.0934516
0.0479967
0.0479585
0.0477793
0.0475179
0.0471681
0.0467317
0.0462147
0.0456207
0.0449531
0.0442156
0.0434115
0.042544
0.0416161
0.0406307
0.0395908
0.038499
0.0373579
0.0361702
0.0349383
0.0336647
0.0323517
0.0310015
0.0296165
0.0281987
0.0267504
0.0252735
0.0237702
0.0222423
0.0206918
0.0191205
0.0175302
0.0159228
0.0142998
0.0126631
0.0110142
0.00935458
0.0076859
0.00600958
0.00432703
0.00263963
0.000948708
-0.000744471
-0.00243868
-0.00413273
-0.00582549
-0.00751587
-0.00920283
-0.0108854
-0.0125626
-0.0142335
-0.0158974
-0.0175532
-0.0192003
-0.0208379
-0.0224653
-0.0240819
-0.025687
-0.02728
-0.0288605
-0.0304277
-0.0319814
-0.0335209
-0.035046
-0.0365561
-0.038051
-0.0395302
-0.0409936
-0.0424406
-0.0438713
-0.0452851
-0.0466821
-0.0480618
-0.0494243
-0.0507692
-0.0520966
-0.0534061
-0.0546978
-0.0559716
-0.0572272
-0.0584648
-0.0596842
-0.0608855
-0.0620685
-0.0632332
-0.0643797
-0.0655079
-0.0666179
-0.0677096
-0.0687831
-0.0698385
-0.0708757
-0.0718948
-0.0728959
-0.073879
-0.0748441
-0.0757914
-0.0767209
-0.0776326
-0.0785267
-0.0794032
-0.0802622
-0.0811038
-0.081928
-0.082735
-0.0835247
-0.0842974
-0.085053
-0.0857918
-0.0865136
-0.0872187
-0.087907
-0.0885788
-0.089234
-0.0898727
-0.090495
-0.0911008
-0.0916892
-0.092263
-0.0928388
-0.0934073
0.048047
0.0480101
0.0478323
0.0475724
0.0472242
0.0467894
0.0462741
0.0456817
0.045016
0.0442803
0.0434781
0.0426125
0.0416865
0.0407031
0.0396652
0.0385754
0.0374363
0.0362506
0.0350208
0.0337492
0.0324381
0.0310899
0.0297069
0.0282911
0.0268446
0.0253697
0.0238681
0.022342
0.0207932
0.0192236
0.0176349
0.016029
0.0144076
0.0127723
0.0111247
0.00946642
0.00779895
0.00612377
0.00444229
0.00275589
0.00106588
-0.000626456
-0.00231989
-0.00401325
-0.00570539
-0.00739523
-0.00908171
-0.0107639
-0.0124407
-0.0141114
-0.015775
-0.0174307
-0.0190777
-0.0207154
-0.0223428
-0.0239595
-0.0255648
-0.0271581
-0.0287387
-0.0303063
-0.0318603
-0.0334003
-0.0349258
-0.0364365
-0.0379318
-0.0394117
-0.0408756
-0.0423233
-0.0437546
-0.0451692
-0.0465668
-0.0479474
-0.0493106
-0.0506564
-0.0519845
-0.0532949
-0.0545875
-0.0558621
-0.0571187
-0.0583572
-0.0595775
-0.0607798
-0.0619637
-0.0631295
-0.0642769
-0.0654062
-0.0665171
-0.06761
-0.0686845
-0.069741
-0.0707792
-0.0717995
-0.0728016
-0.0737859
-0.0747521
-0.0757006
-0.0766313
-0.0775442
-0.0784395
-0.0793173
-0.0801775
-0.0810204
-0.0818459
-0.0826542
-0.0834453
-0.0842194
-0.0849763
-0.0857165
-0.0864398
-0.0871464
-0.0878362
-0.0885096
-0.0891663
-0.0898067
-0.0904306
-0.0910381
-0.0916282
-0.0922039
-0.0927815
-0.0933519
0.0481067
0.0480714
0.0478952
0.0476371
0.0472907
0.0468578
0.0463444
0.0457542
0.0450905
0.044357
0.043557
0.0426937
0.04177
0.040789
0.0397534
0.0386659
0.0375293
0.036346
0.0351186
0.0338493
0.0325407
0.0311948
0.0298141
0.0284006
0.0269564
0.0254836
0.0239843
0.0224603
0.0209135
0.0193458
0.0177591
0.0161551
0.0145354
0.0129018
0.0112558
0.00959905
0.00793302
0.0062592
0.00457898
0.00289376
0.00120484
-0.000486496
-0.00217902
-0.00387155
-0.00556296
-0.00725215
-0.00893808
-0.0106197
-0.0122962
-0.0139665
-0.0156299
-0.0172855
-0.0189325
-0.0205701
-0.0221976
-0.0238144
-0.0254199
-0.0270134
-0.0285944
-0.0301624
-0.0317168
-0.0332573
-0.0347834
-0.0362946
-0.0377906
-0.0392711
-0.0407358
-0.0421843
-0.0436164
-0.0450318
-0.0464303
-0.0478117
-0.0491759
-0.0505226
-0.0518518
-0.0531632
-0.0544568
-0.0557325
-0.0569902
-0.0582298
-0.0594513
-0.0606546
-0.0618397
-0.0630066
-0.0641553
-0.0652857
-0.0663979
-0.0674919
-0.0685678
-0.0696255
-0.0706651
-0.0716866
-0.0726901
-0.0736757
-0.0746433
-0.0755931
-0.0765252
-0.0774395
-0.0783363
-0.0792154
-0.0800772
-0.0809214
-0.0817485
-0.0825582
-0.0833509
-0.0841265
-0.0848851
-0.0856268
-0.0863517
-0.0870599
-0.0877515
-0.0884264
-0.0890849
-0.0897269
-0.0903527
-0.0909619
-0.0915539
-0.0921312
-0.0927108
-0.0932829
0.0481755
0.0481421
0.0479677
0.0477117
0.0473674
0.0469367
0.0464256
0.0458377
0.0451765
0.0444455
0.0436481
0.0427873
0.0418663
0.040888
0.0398551
0.0387704
0.0376365
0.036456
0.0352313
0.0339648
0.0326589
0.0313158
0.0299378
0.0285269
0.0270853
0.0256151
0.0241182
0.0225966
0.0210523
0.0194869
0.0179024
0.0163005
0.0146828
0.0130512
0.011407
0.00975205
0.00808769
0.00641543
0.00473668
0.00305281
0.00136516
-0.000325024
-0.0020165
-0.00370808
-0.00539864
-0.00708708
-0.00877235
-0.0104535
-0.0121295
-0.0137995
-0.0154626
-0.017118
-0.0187648
-0.0204024
-0.02203
-0.023647
-0.0252527
-0.0268466
-0.0284279
-0.0299964
-0.0315513
-0.0330924
-0.034619
-0.036131
-0.0376277
-0.039109
-0.0405745
-0.0420239
-0.0434569
-0.0448733
-0.0462728
-0.0476553
-0.0490206
-0.0503684
-0.0516987
-0.0530113
-0.0543061
-0.055583
-0.0568419
-0.0580828
-0.0593056
-0.0605102
-0.0616967
-0.0628649
-0.064015
-0.0651468
-0.0662604
-0.0673558
-0.0684331
-0.0694923
-0.0705333
-0.0715563
-0.0725614
-0.0735484
-0.0745176
-0.0754689
-0.0764026
-0.0773185
-0.0782168
-0.0790976
-0.0799609
-0.0808069
-0.0816356
-0.082447
-0.0832414
-0.0840187
-0.0847791
-0.0855226
-0.0862493
-0.0869593
-0.0876527
-0.0883296
-0.08899
-0.0896339
-0.0902616
-0.0908728
-0.0914668
-0.092046
-0.0926277
-0.093202
0.0482533
0.0482221
0.0480497
0.0477961
0.0474541
0.0470259
0.0465174
0.0459322
0.0452737
0.0445455
0.0437509
0.0428931
0.0419751
0.0409998
0.03997
0.0388885
0.0377577
0.0365803
0.0353587
0.0340954
0.0327926
0.0314525
0.0300775
0.0286696
0.027231
0.0257637
0.0242696
0.0227508
0.0212091
0.0196463
0.0180643
0.0164648
0.0148495
0.01322
0.011578
0.00992502
0.00826254
0.00659205
0.00491496
0.00323264
0.00154641
-0.000142462
-0.00183274
-0.00352325
-0.00521284
-0.00690044
-0.00858498
-0.0102655
-0.011941
-0.0136105
-0.0152733
-0.0169285
-0.0185753
-0.0202129
-0.0218406
-0.0234577
-0.0250637
-0.0266579
-0.0282397
-0.0298086
-0.0313642
-0.0329059
-0.0344333
-0.035946
-0.0374436
-0.0389258
-0.0403923
-0.0418426
-0.0432767
-0.0446942
-0.0460949
-0.0474785
-0.048845
-0.0501941
-0.0515257
-0.0528396
-0.0541358
-0.055414
-0.0566744
-0.0579167
-0.059141
-0.060347
-0.061535
-0.0627048
-0.0638564
-0.0649897
-0.066105
-0.067202
-0.0682809
-0.0693416
-0.0703843
-0.071409
-0.0724157
-0.0734044
-0.0743753
-0.0753283
-0.0762636
-0.0771812
-0.0780813
-0.0789638
-0.079829
-0.0806767
-0.0815071
-0.0823204
-0.0831166
-0.0838957
-0.0846579
-0.0854032
-0.0861318
-0.0868437
-0.0875389
-0.0882177
-0.0888799
-0.0895258
-0.0901553
-0.0907685
-0.0913642
-0.0919457
-0.092529
-0.0931057
0.0483399
0.048311
0.048141
0.0478899
0.0475506
0.0471251
0.0466195
0.0460372
0.0453818
0.0446567
0.0438654
0.0430108
0.0420962
0.0411243
0.0400979
0.0390198
0.0378925
0.0367186
0.0355005
0.0342406
0.0329412
0.0316046
0.030233
0.0288285
0.0273931
0.025929
0.0244381
0.0229224
0.0213836
0.0198238
0.0182445
0.0166477
0.015035
0.013408
0.0117683
0.0101176
0.00845718
0.00678867
0.00511343
0.00343283
0.00174819
6.07812e-05
-0.00162816
-0.00331747
-0.00500599
-0.00669264
-0.00837636
-0.0100562
-0.0117311
-0.0134002
-0.0150626
-0.0167176
-0.0183643
-0.0200019
-0.0216297
-0.023247
-0.0248533
-0.0264479
-0.0280302
-0.0295997
-0.0311558
-0.0326983
-0.0342265
-0.03574
-0.0372386
-0.0387218
-0.0401893
-0.0416408
-0.0430761
-0.0444948
-0.0458967
-0.0472817
-0.0486496
-0.0500001
-0.0513331
-0.0526485
-0.0539462
-0.055226
-0.0564879
-0.0577318
-0.0589577
-0.0601654
-0.061355
-0.0625265
-0.0636798
-0.0648149
-0.0659318
-0.0670306
-0.0681113
-0.0691738
-0.0702183
-0.0712448
-0.0722532
-0.0732438
-0.0742165
-0.0751715
-0.0761086
-0.0770282
-0.0779301
-0.0788145
-0.0796816
-0.0805312
-0.0813636
-0.0821788
-0.082977
-0.0837581
-0.0845223
-0.0852697
-0.0860003
-0.0867142
-0.0874116
-0.0880923
-0.0887568
-0.0894047
-0.0900365
-0.0906517
-0.0912499
-0.0918331
-0.092419
-0.0929975
0.048435
0.0484087
0.0482412
0.047993
0.0476566
0.0472342
0.0467317
0.0461526
0.0455006
0.044779
0.0439911
0.0431402
0.0422292
0.041261
0.0402384
0.0391641
0.0380406
0.0368705
0.0356563
0.0344002
0.0331046
0.0317718
0.0304039
0.0290031
0.0275713
0.0261108
0.0246233
0.023111
0.0215755
0.0200188
0.0184427
0.0168488
0.0152389
0.0136146
0.0119776
0.0103293
0.00867121
0.00700488
0.00533169
0.00365299
0.0019701
0.000284312
-0.00140316
-0.00309114
-0.00477847
-0.00646407
-0.00814689
-0.00982591
-0.0115002
-0.0131688
-0.0148309
-0.0164856
-0.0181321
-0.0197697
-0.0213976
-0.0230152
-0.0246218
-0.0262168
-0.0277996
-0.0293697
-0.0309267
-0.0324699
-0.033999
-0.0355135
-0.0370131
-0.0384974
-0.0399661
-0.0414189
-0.0428554
-0.0442755
-0.0456789
-0.0470653
-0.0484347
-0.0497867
-0.0511213
-0.0524383
-0.0537377
-0.0550192
-0.0562828
-0.0575285
-0.0587561
-0.0599657
-0.0611571
-0.0623304
-0.0634855
-0.0646225
-0.0657414
-0.0668421
-0.0679246
-0.0689891
-0.0700355
-0.071064
-0.0720744
-0.073067
-0.0740416
-0.0749985
-0.0759377
-0.0768592
-0.0777632
-0.0786496
-0.0795186
-0.0803703
-0.0812047
-0.0820219
-0.0828221
-0.0836052
-0.0843714
-0.0851207
-0.0858534
-0.0865691
-0.0872686
-0.0879512
-0.0886176
-0.0892673
-0.0899011
-0.090518
-0.0911181
-0.0917029
-0.0922906
-0.0928705
0.0485385
0.048515
0.0483503
0.0481052
0.0477719
0.0473528
0.0468537
0.0462782
0.0456298
0.0449119
0.0441279
0.0432809
0.0423739
0.0414098
0.0403913
0.0393211
0.0382018
0.0370358
0.0358258
0.0345739
0.0332824
0.0319537
0.0305899
0.029193
0.0277653
0.0263086
0.0248249
0.0233162
0.0217843
0.0202311
0.0186584
0.0170677
0.0154609
0.0138396
0.0122054
0.0105598
0.00890425
0.00724031
0.00556935
0.00389273
0.00221177
0.000527747
-0.00115812
-0.00284464
-0.00453067
-0.00621513
-0.00789694
-0.00957513
-0.0112487
-0.0129168
-0.0145784
-0.0162329
-0.0178792
-0.0195168
-0.0211449
-0.0227627
-0.0243696
-0.0259651
-0.0275485
-0.0291193
-0.030677
-0.0322211
-0.0337511
-0.0352668
-0.0367675
-0.038253
-0.039723
-0.0411771
-0.0426151
-0.0440367
-0.0454415
-0.0468296
-0.0482006
-0.0495543
-0.0508906
-0.0522095
-0.0535106
-0.054794
-0.0560594
-0.0573071
-0.0585366
-0.0597481
-0.0609415
-0.0621168
-0.0632739
-0.064413
-0.0655338
-0.0666366
-0.0677212
-0.0687878
-0.0698363
-0.0708669
-0.0718794
-0.0728741
-0.0738508
-0.0748099
-0.0757512
-0.0766749
-0.0775809
-0.0784695
-0.0793407
-0.0801945
-0.0810311
-0.0818505
-0.0826528
-0.0834381
-0.0842065
-0.084958
-0.0856929
-0.0864109
-0.0871126
-0.0877975
-0.0884662
-0.0891183
-0.0897544
-0.0903737
-0.0909762
-0.0915635
-0.0921536
-0.0927361
0.0486502
0.0486297
0.048468
0.0482262
0.0478963
0.0474807
0.0469853
0.0464136
0.0457691
0.0450553
0.0442755
0.0434327
0.04253
0.0415703
0.0405562
0.0394904
0.0383756
0.0372142
0.0360087
0.0347613
0.0334743
0.03215
0.0307906
0.0293981
0.0279746
0.0265221
0.0250425
0.0235378
0.0220098
0.0204604
0.0188912
0.0173041
0.0157007
0.0140826
0.0124514
0.0108087
0.00915594
0.00749459
0.00582606
0.00415169
0.00247282
0.000790718
-0.000893396
-0.00257833
-0.00426296
-0.00594616
-0.00762691
-0.00930416
-0.010977
-0.0126444
-0.0143056
-0.0159597
-0.017606
-0.0192436
-0.0208717
-0.0224898
-0.0240972
-0.0256931
-0.0272772
-0.0288487
-0.0304072
-0.0319523
-0.0334834
-0.0350001
-0.0365021
-0.0379889
-0.0394603
-0.0409159
-0.0423554
-0.0437786
-0.0451851
-0.0465749
-0.0479477
-0.0493032
-0.0506415
-0.0519622
-0.0532653
-0.0545506
-0.0558181
-0.0570678
-0.0582994
-0.059513
-0.0607086
-0.061886
-0.0630453
-0.0641865
-0.0653096
-0.0664145
-0.0675014
-0.0685702
-0.0696209
-0.0706536
-0.0716685
-0.0726653
-0.0736444
-0.0746056
-0.0755492
-0.0764751
-0.0773834
-0.0782742
-0.0791476
-0.0800035
-0.0808423
-0.0816639
-0.0824684
-0.0832557
-0.0840263
-0.0847798
-0.0855167
-0.0862368
-0.0869404
-0.0876272
-0.0882977
-0.0889516
-0.0895894
-0.0902103
-0.0908145
-0.0914032
-0.091995
-0.0925788
0.0487699
0.0487526
0.048594
0.0483558
0.0480295
0.0476178
0.0471264
0.0465587
0.0459185
0.045209
0.0444336
0.0435953
0.0426973
0.0417422
0.0407329
0.0396719
0.0385619
0.0374054
0.0362046
0.0349621
0.0336799
0.0323604
0.0310057
0.0296179
0.0281989
0.0267509
0.0252758
0.0237754
0.0222515
0.0207062
0.0191409
0.0175576
0.0159578
0.0143432
0.0127153
0.0110757
0.00942592
0.00776736
0.00610144
0.00442951
0.0027529
0.00107286
-0.000609359
-0.00229259
-0.00397568
-0.00565754
-0.00733711
-0.00901338
-0.0106854
-0.0123522
-0.0140129
-0.0156667
-0.0173127
-0.0189503
-0.0205786
-0.022197
-0.0238047
-0.0254012
-0.0269859
-0.0285583
-0.0301177
-0.0316638
-0.033196
-0.034714
-0.0362172
-0.0377055
-0.0391784
-0.0406356
-0.0420767
-0.0435016
-0.04491
-0.0463016
-0.0476763
-0.0490338
-0.050374
-0.0516968
-0.053002
-0.0542895
-0.0555592
-0.056811
-0.0580449
-0.0592607
-0.0604585
-0.0616383
-0.0627999
-0.0639434
-0.0650688
-0.0661761
-0.0672653
-0.0683365
-0.0693896
-0.0704247
-0.0714419
-0.0724411
-0.0734226
-0.0743862
-0.0753321
-0.0762603
-0.077171
-0.0780641
-0.0789399
-0.0797982
-0.0806393
-0.0814631
-0.08227
-0.0830596
-0.0838325
-0.0845883
-0.0853276
-0.0860498
-0.0867559
-0.0874448
-0.0881178
-0.0887738
-0.0894142
-0.0900374
-0.090644
-0.091235
-0.0918294
-0.0924158
0.0488973
0.0488835
0.0487283
0.0484939
0.0481715
0.0477637
0.0472765
0.0467133
0.0460775
0.0453726
0.0446019
0.0437686
0.0428754
0.0419253
0.0409211
0.0398652
0.0387604
0.037609
0.0364134
0.035176
0.033899
0.0325846
0.0312349
0.0298521
0.028438
0.0269948
0.0255244
0.0240286
0.0225092
0.0209682
0.0194071
0.0178278
0.0162319
0.014621
0.0129967
0.0113605
0.00971384
0.00805828
0.00639516
0.00472585
0.00305165
0.00137384
-0.000306351
-0.00198774
-0.0036692
-0.0053496
-0.00702791
-0.0087031
-0.0103742
-0.0120403
-0.0137005
-0.0153539
-0.0169998
-0.0186373
-0.0202658
-0.0218844
-0.0234926
-0.0250896
-0.0266751
-0.0282482
-0.0298087
-0.0313558
-0.0328893
-0.0344085
-0.0359133
-0.037403
-0.0388775
-0.0403364
-0.0417793
-0.043206
-0.0446164
-0.0460099
-0.0473867
-0.0487463
-0.0500887
-0.0514136
-0.0527211
-0.0540108
-0.0552829
-0.056537
-0.0577733
-0.0589915
-0.0601918
-0.0613739
-0.0625381
-0.063684
-0.0648119
-0.0659217
-0.0670134
-0.068087
-0.0691427
-0.0701802
-0.0712
-0.0722017
-0.0731856
-0.0741517
-0.0751001
-0.0760307
-0.0769439
-0.0778394
-0.0787177
-0.0795783
-0.0804219
-0.081248
-0.0820573
-0.0828492
-0.0836245
-0.0843824
-0.0851241
-0.0858484
-0.0865568
-0.0872477
-0.087923
-0.0885809
-0.0892234
-0.0898483
-0.0904571
-0.0910497
-0.0916461
-0.092234
0.0490323
0.0490221
0.0488705
0.0486402
0.0483218
0.0479184
0.0474356
0.046877
0.0462459
0.045546
0.0447803
0.0439521
0.0430642
0.0421194
0.0411205
0.0400701
0.0389707
0.0378248
0.0366347
0.0354028
0.0341312
0.0328222
0.0314779
0.0301003
0.0286915
0.0272534
0.025788
0.0242971
0.0227825
0.0212461
0.0196895
0.0181145
0.0165227
0.0149158
0.0132952
0.0116626
0.0100194
0.00836699
0.00670687
0.00504035
0.00336874
0.00169331
1.52918e-05
-0.00166414
-0.00334383
-0.00502268
-0.00669963
-0.00837368
-0.0100438
-0.0117092
-0.0133687
-0.0150218
-0.0166674
-0.0183049
-0.0199335
-0.0215525
-0.0231611
-0.0247588
-0.026345
-0.0279191
-0.0294805
-0.0310288
-0.0325636
-0.0340842
-0.0355905
-0.0370818
-0.038558
-0.0400187
-0.0414635
-0.0428922
-0.0443045
-0.0457003
-0.0470791
-0.048441
-0.0497857
-0.051113
-0.0524228
-0.053715
-0.0549895
-0.0562462
-0.0574849
-0.0587057
-0.0599085
-0.0610933
-0.06226
-0.0634086
-0.0645391
-0.0656515
-0.0667459
-0.0678222
-0.0688804
-0.0699207
-0.0709429
-0.0719473
-0.0729338
-0.0739025
-0.0748535
-0.0757868
-0.0767024
-0.0776006
-0.0784812
-0.0793445
-0.0801904
-0.0810192
-0.0818307
-0.0826253
-0.0834026
-0.0841633
-0.0849069
-0.0856341
-0.0863442
-0.087038
-0.0877149
-0.0883758
-0.0890198
-0.0896477
-0.0902576
-0.0908535
-0.0914507
-0.0920425
0.0491747
0.0491683
0.0490205
0.0487944
0.0484804
0.0480815
0.0476035
0.0470497
0.0464236
0.0457289
0.0449685
0.0441457
0.0432633
0.0423241
0.0413309
0.0402862
0.0391926
0.0380525
0.0368682
0.0356421
0.0343763
0.0330731
0.0317344
0.0303624
0.0289591
0.0275265
0.0260663
0.0245806
0.0230711
0.0215395
0.0199877
0.0184173
0.0168299
0.0152271
0.0136106
0.0119818
0.0103422
0.00869319
0.00703625
0.0053727
0.00370385
0.00203095
0.000355247
-0.00132208
-0.0029999
-0.00467709
-0.0063526
-0.0080254
-0.00969454
-0.011359
-0.013018
-0.0146706
-0.016316
-0.0179535
-0.0195822
-0.0212014
-0.0228106
-0.0244089
-0.0259959
-0.0275709
-0.0291335
-0.030683
-0.0322191
-0.0337413
-0.0352491
-0.0367422
-0.0382202
-0.0396828
-0.0411296
-0.0425604
-0.0439749
-0.0453728
-0.046754
-0.0481183
-0.0494654
-0.0507952
-0.0521075
-0.0534023
-0.0546794
-0.0559387
-0.0571801
-0.0584036
-0.0596091
-0.0607967
-0.0619661
-0.0631175
-0.0642507
-0.0653659
-0.066463
-0.0675421
-0.0686031
-0.0696461
-0.0706712
-0.0716783
-0.0726675
-0.073639
-0.0745927
-0.0755287
-0.076447
-0.0773478
-0.0782311
-0.079097
-0.0799455
-0.0807769
-0.081591
-0.082388
-0.083168
-0.0839311
-0.0846773
-0.0854068
-0.0861195
-0.0868156
-0.0874951
-0.0881581
-0.0888047
-0.0894346
-0.0900473
-0.0906449
-0.0912449
-0.0918379
0.0493244
0.049322
0.0491781
0.0489565
0.048647
0.0482528
0.0477797
0.0472311
0.0466103
0.045921
0.0451662
0.0443491
0.0434725
0.0425392
0.041552
0.0405133
0.0394258
0.0382918
0.0371137
0.0358936
0.0346339
0.0333367
0.0320041
0.030638
0.0292406
0.0278136
0.0263591
0.0248788
0.0233746
0.0218482
0.0203014
0.0187358
0.0171531
0.0155548
0.0139425
0.0123177
0.0106819
0.00903654
0.00738298
0.00572258
0.00405665
0.00238644
0.000713198
-0.000961905
-0.00263772
-0.00431315
-0.00598711
-0.00765861
-0.00932662
-0.0109903
-0.0126486
-0.0143007
-0.0159459
-0.0175833
-0.0192121
-0.0208317
-0.0224413
-0.0240404
-0.0256281
-0.0272042
-0.0287679
-0.0303187
-0.0318562
-0.03338
-0.0348895
-0.0363844
-0.0378643
-0.0393289
-0.0407778
-0.0422109
-0.0436276
-0.045028
-0.0464116
-0.0477784
-0.049128
-0.0504604
-0.0517754
-0.053073
-0.0543527
-0.0556149
-0.0568591
-0.0580855
-0.0592939
-0.0604843
-0.0616566
-0.0628109
-0.0639471
-0.0650652
-0.0661652
-0.0672472
-0.0683111
-0.0693571
-0.070385
-0.071395
-0.0723871
-0.0733614
-0.0743179
-0.0752567
-0.0761778
-0.0770814
-0.0779674
-0.078836
-0.0796872
-0.0805212
-0.0813379
-0.0821376
-0.0829201
-0.0836857
-0.0844344
-0.0851662
-0.0858814
-0.0865798
-0.0872617
-0.0879268
-0.0885758
-0.0892078
-0.0898227
-0.0904221
-0.0910242
-0.0916191
0.049481
0.0494828
0.0493432
0.0491262
0.0488214
0.0484322
0.0479643
0.047421
0.0468058
0.0461222
0.0453732
0.0445621
0.0436916
0.0427645
0.0417835
0.0407512
0.0396701
0.0385425
0.0373708
0.0361572
0.0349039
0.033613
0.0322866
0.0309268
0.0295355
0.0281145
0.0266659
0.0251914
0.0236928
0.0221719
0.0206303
0.0190698
0.017492
0.0158984
0.0142905
0.01267
0.0110383
0.00939673
0.00774674
0.00608968
0.00442684
0.00275948
0.00108884
-0.000583897
-0.00225759
-0.00393114
-0.00560348
-0.00727355
-0.00894043
-0.0106031
-0.0122607
-0.0139124
-0.0155572
-0.0171945
-0.0188235
-0.0204434
-0.0220536
-0.0236533
-0.025242
-0.0268191
-0.028384
-0.0299362
-0.0314752
-0.0330006
-0.0345119
-0.0360087
-0.0374906
-0.0389573
-0.0404085
-0.0418438
-0.043263
-0.0446659
-0.0460521
-0.0474215
-0.0487739
-0.050109
-0.0514269
-0.0527272
-0.05401
-0.055275
-0.0565223
-0.0577516
-0.058963
-0.0601564
-0.0613318
-0.0624892
-0.0636284
-0.0647496
-0.0658527
-0.0669377
-0.0680048
-0.0690537
-0.0700847
-0.0710977
-0.0720928
-0.0730701
-0.0740296
-0.0749713
-0.0758954
-0.0768018
-0.0776907
-0.0785622
-0.0794162
-0.080253
-0.0810725
-0.0818748
-0.0826601
-0.0834283
-0.0841796
-0.0849141
-0.0856318
-0.0863328
-0.0870171
-0.0876849
-0.0883361
-0.0889708
-0.0895878
-0.09019
-0.0907941
-0.0913921
0.0496445
0.0496506
0.0495154
0.0493033
0.0490035
0.0486195
0.048157
0.0476192
0.0470098
0.0463321
0.0455893
0.0447844
0.0439202
0.0429996
0.0420252
0.0409995
0.0399251
0.0388042
0.0376392
0.0364324
0.0351858
0.0339015
0.0325818
0.0312285
0.0298436
0.0284289
0.0269865
0.0255181
0.0240254
0.0225102
0.0209742
0.019419
0.0178463
0.0162576
0.0146545
0.0130385
0.011411
0.00977346
0.00812724
0.00647369
0.00481411
0.00314977
0.00148189
-0.000188357
-0.00185981
-0.00353137
-0.00520196
-0.00687057
-0.00853616
-0.0101979
-0.0118547
-0.0135058
-0.0151504
-0.0167876
-0.0184167
-0.020037
-0.0216476
-0.0232481
-0.0248377
-0.0264159
-0.027982
-0.0295357
-0.0310763
-0.0326034
-0.0341165
-0.0356153
-0.0370994
-0.0385684
-0.0400219
-0.0414597
-0.0428814
-0.0442869
-0.0456758
-0.047048
-0.0484032
-0.0497413
-0.0510621
-0.0523655
-0.0536513
-0.0549194
-0.0561698
-0.0574023
-0.0586169
-0.0598135
-0.0609921
-0.0621526
-0.0632951
-0.0644195
-0.0655258
-0.0666141
-0.0676843
-0.0687364
-0.0697706
-0.0707868
-0.071785
-0.0727654
-0.073728
-0.0746728
-0.0755999
-0.0765094
-0.0774013
-0.0782757
-0.0791326
-0.0799723
-0.0807946
-0.0815998
-0.0823878
-0.0831588
-0.0839128
-0.08465
-0.0853703
-0.0860739
-0.0867607
-0.087431
-0.0880847
-0.0887217
-0.089341
-0.0899455
-0.0905518
-0.091152
0.0498147
0.0498253
0.0496947
0.0494876
0.0491929
0.0488143
0.0483575
0.0478256
0.0472222
0.0465507
0.0458142
0.0450158
0.0441583
0.0432445
0.0422769
0.0412581
0.0401907
0.0390768
0.0379188
0.036719
0.0354794
0.0342021
0.0328893
0.0315428
0.0301646
0.0287566
0.0273206
0.0258585
0.024372
0.0228628
0.0213326
0.019783
0.0182157
0.0166323
0.0150341
0.0134228
0.0117998
0.0101664
0.00852419
0.00687434
0.0052182
0.00355702
0.00189204
0.000224436
-0.00144465
-0.0031141
-0.00478286
-0.00644986
-0.00811418
-0.00977478
-0.0114308
-0.0130813
-0.0147256
-0.0163627
-0.0179919
-0.0196125
-0.0212237
-0.0228249
-0.0244155
-0.0259948
-0.0275623
-0.0291174
-0.0306597
-0.0321886
-0.0337037
-0.0352046
-0.0366909
-0.0381622
-0.0396182
-0.0410585
-0.042483
-0.0438912
-0.045283
-0.046658
-0.0480163
-0.0493574
-0.0506814
-0.0519878
-0.0532769
-0.0545482
-0.0558019
-0.0570377
-0.0582557
-0.0594556
-0.0606376
-0.0618015
-0.0629474
-0.0640751
-0.0651849
-0.0662764
-0.06735
-0.0684055
-0.069443
-0.0704625
-0.0714641
-0.0724477
-0.0734135
-0.0743615
-0.0752918
-0.0762044
-0.0770995
-0.0779769
-0.078837
-0.0796796
-0.0805049
-0.0813131
-0.082104
-0.0828779
-0.0836347
-0.0843747
-0.0850977
-0.0858041
-0.0864936
-0.0871666
-0.0878228
-0.0884626
-0.0890844
-0.0896914
-0.0903001
-0.0909029
0.0499914
0.0500067
0.0498807
0.0496789
0.0493896
0.0490166
0.0485656
0.0480397
0.0474426
0.0467776
0.0460477
0.0452561
0.0444055
0.0434987
0.0425382
0.0415267
0.0404665
0.0393599
0.0382092
0.0370167
0.0357844
0.0345144
0.0332088
0.0318694
0.0304982
0.0290971
0.0276679
0.0262124
0.0247323
0.0232294
0.0217053
0.0201616
0.0186
0.0170219
0.015429
0.0138226
0.0122043
0.0105754
0.00893728
0.00729132
0.00563879
0.00398096
0.00231903
0.000654204
-0.00101238
-0.00267962
-0.00434642
-0.00601179
-0.00767466
-0.00933416
-0.0109893
-0.0126392
-0.0142831
-0.0159201
-0.0175494
-0.0191703
-0.0207821
-0.0223841
-0.0239757
-0.0255561
-0.027125
-0.0286817
-0.0302257
-0.0317565
-0.0332736
-0.0347767
-0.0362653
-0.0377391
-0.0391977
-0.0406407
-0.0420679
-0.043479
-0.0448738
-0.046252
-0.0476133
-0.0489577
-0.0502849
-0.0515947
-0.0528871
-0.0541619
-0.055419
-0.0566583
-0.0578797
-0.0590832
-0.0602687
-0.0614361
-0.0625855
-0.0637169
-0.0648301
-0.0659252
-0.0670023
-0.0680613
-0.0691023
-0.0701253
-0.0711302
-0.0721173
-0.0730865
-0.0740379
-0.0749715
-0.0758874
-0.0767857
-0.0776664
-0.0785297
-0.0793755
-0.0802039
-0.0810151
-0.0818091
-0.0825859
-0.0833458
-0.0840886
-0.0848146
-0.0855236
-0.0862161
-0.0868916
-0.0875508
-0.0881929
-0.0888176
-0.0894269
-0.0900384
-0.0906432
0.0501744
0.0501945
0.0500735
0.0498771
0.0495933
0.0492261
0.0487812
0.0482616
0.047671
0.0470126
0.0462896
0.045505
0.0446616
0.0437621
0.042809
0.0418049
0.0407523
0.0396533
0.0385103
0.0373253
0.0361006
0.0348382
0.03354
0.0322081
0.0308442
0.0294503
0.0280282
0.0265796
0.0251062
0.0236098
0.0220921
0.0205545
0.0189988
0.0174264
0.0158389
0.0142377
0.0126243
0.011
0.00936626
0.00772438
0.00607564
0.0044213
0.00276259
0.00110068
-0.000563273
-0.00222817
-0.00389293
-0.0055565
-0.00721793
-0.00887619
-0.0105304
-0.0121797
-0.0138231
-0.0154599
-0.0170894
-0.0187106
-0.020323
-0.0219258
-0.0235184
-0.0251001
-0.0266704
-0.0282287
-0.0297745
-0.0313072
-0.0328265
-0.0343319
-0.0358229
-0.0372993
-0.0387605
-0.0402064
-0.0416366
-0.0430507
-0.0444486
-0.04583
-0.0471946
-0.0485423
-0.0498729
-0.0511863
-0.0524822
-0.0537606
-0.0550212
-0.0562642
-0.0574893
-0.0586964
-0.0598856
-0.0610568
-0.0622099
-0.0633449
-0.0644619
-0.0655607
-0.0666415
-0.0677042
-0.0687488
-0.0697754
-0.070784
-0.0717746
-0.0727474
-0.0737023
-0.0746393
-0.0755587
-0.0764604
-0.0773445
-0.0782111
-0.0790601
-0.0798918
-0.0807062
-0.0815034
-0.0822834
-0.0830463
-0.0837922
-0.0845212
-0.0852332