/*--------------------------------*- C++ -*----------------------------------*\
  =========                 |
  \\      /  F ield         | OpenFOAM: The Open Source CFD Toolbox
   \\    /   O peration     | Website:  https://openfoam.org
    \\  /    A nd           | Version:  8
     \\/     M anipulation  |
\*---------------------------------------------------------------------------*/
FoamFile
{
    version     2.0;
    format      ascii;
    class       volScalarField;
    location    "4";
    object      nuTilda;
}
// * * * * * * * * * * * * * * * * * * * * * * * * * * * * * * * * * * * * * //

dimensions      [0 2 -1 0 0 0 0];

internalField   nonuniform List<scalar> 
248760
(
0.139974
0.139922
0.139869
0.139817
0.139764
0.139711
0.139658
0.139605
0.139552
0.139499
0.139446
0.139393
0.13934
0.139288
0.139235
0.139183
0.139131
0.139079
0.139027
0.138976
0.138924
0.138873
0.138823
0.138772
0.138722
0.138672
0.138623
0.138574
0.138525
0.138477
0.138429
0.138382
0.138335
0.138288
0.138242
0.138196
0.13815
0.138106
0.138061
0.138017
0.137974
0.137931
0.137888
0.137846
0.137804
0.137763
0.137723
0.137682
0.137643
0.137604
0.137565
0.137527
0.137489
0.137452
0.137415
0.137379
0.137343
0.137308
0.137274
0.137239
0.137206
0.137172
0.13714
0.137107
0.137075
0.137044
0.137013
0.136983
0.136953
0.136923
0.136894
0.136865
0.136837
0.136809
0.136782
0.136755
0.136729
0.136703
0.136677
0.136652
0.136627
0.136602
0.136578
0.136555
0.136531
0.136509
0.136486
0.136464
0.136442
0.136421
0.1364
0.136379
0.136358
0.136338
0.136319
0.136299
0.13628
0.136262
0.136243
0.136225
0.136208
0.13619
0.136173
0.136157
0.13614
0.136125
0.136109
0.136095
0.136081
0.136068
0.136055
0.136044
0.136035
0.136027
0.136021
0.136018
0.136018
0.136022
0.136032
0.136048
0.139974
0.139922
0.139869
0.139816
0.139763
0.13971
0.139657
0.139604
0.139551
0.139498
0.139445
0.139392
0.139339
0.139287
0.139234
0.139182
0.13913
0.139078
0.139026
0.138974
0.138923
0.138872
0.138821
0.138771
0.13872
0.138671
0.138621
0.138572
0.138523
0.138475
0.138427
0.138379
0.138332
0.138285
0.138239
0.138193
0.138148
0.138103
0.138058
0.138014
0.13797
0.137927
0.137885
0.137842
0.137801
0.13776
0.137719
0.137679
0.137639
0.1376
0.137561
0.137523
0.137485
0.137448
0.137411
0.137375
0.137339
0.137303
0.137269
0.137234
0.137201
0.137167
0.137134
0.137102
0.13707
0.137039
0.137008
0.136977
0.136947
0.136917
0.136888
0.136859
0.136831
0.136803
0.136776
0.136749
0.136722
0.136696
0.13667
0.136645
0.13662
0.136596
0.136572
0.136548
0.136525
0.136502
0.136479
0.136457
0.136435
0.136413
0.136392
0.136371
0.136351
0.136331
0.136311
0.136292
0.136273
0.136254
0.136236
0.136217
0.1362
0.136182
0.136165
0.136149
0.136132
0.136117
0.136101
0.136087
0.136073
0.136059
0.136047
0.136036
0.136026
0.136018
0.136012
0.136009
0.13601
0.136014
0.136024
0.13604
0.139974
0.139921
0.139869
0.139816
0.139763
0.13971
0.139656
0.139603
0.13955
0.139497
0.139444
0.139391
0.139338
0.139285
0.139232
0.13918
0.139127
0.139075
0.139023
0.138972
0.13892
0.138869
0.138818
0.138767
0.138717
0.138667
0.138618
0.138568
0.138519
0.138471
0.138423
0.138375
0.138328
0.138281
0.138234
0.138188
0.138142
0.138097
0.138052
0.138008
0.137964
0.137921
0.137878
0.137836
0.137794
0.137753
0.137712
0.137671
0.137631
0.137592
0.137553
0.137515
0.137477
0.137439
0.137402
0.137366
0.13733
0.137295
0.13726
0.137225
0.137191
0.137158
0.137125
0.137092
0.13706
0.137028
0.136997
0.136966
0.136936
0.136906
0.136877
0.136848
0.13682
0.136792
0.136764
0.136737
0.13671
0.136684
0.136658
0.136633
0.136608
0.136583
0.136559
0.136535
0.136512
0.136488
0.136466
0.136443
0.136421
0.1364
0.136379
0.136358
0.136337
0.136317
0.136297
0.136277
0.136258
0.136239
0.136221
0.136203
0.136185
0.136167
0.13615
0.136134
0.136117
0.136101
0.136086
0.136071
0.136057
0.136044
0.136031
0.13602
0.13601
0.136002
0.135997
0.135993
0.135994
0.135998
0.136008
0.136024
0.139974
0.139921
0.139868
0.139815
0.139762
0.139709
0.139655
0.139602
0.139549
0.139495
0.139442
0.139389
0.139336
0.139283
0.13923
0.139177
0.139125
0.139072
0.13902
0.138968
0.138916
0.138865
0.138814
0.138763
0.138713
0.138662
0.138612
0.138563
0.138514
0.138465
0.138417
0.138369
0.138321
0.138274
0.138227
0.138181
0.138135
0.13809
0.138045
0.138
0.137956
0.137912
0.137869
0.137827
0.137785
0.137743
0.137702
0.137661
0.137621
0.137581
0.137542
0.137504
0.137465
0.137428
0.13739
0.137354
0.137318
0.137282
0.137247
0.137212
0.137178
0.137144
0.137111
0.137078
0.137046
0.137014
0.136982
0.136952
0.136921
0.136891
0.136862
0.136832
0.136804
0.136776
0.136748
0.136721
0.136694
0.136667
0.136641
0.136615
0.13659
0.136565
0.136541
0.136517
0.136493
0.13647
0.136447
0.136425
0.136402
0.136381
0.136359
0.136338
0.136317
0.136297
0.136277
0.136257
0.136238
0.136219
0.1362
0.136182
0.136164
0.136146
0.136129
0.136112
0.136096
0.13608
0.136064
0.136049
0.136035
0.136022
0.136009
0.135998
0.135988
0.13598
0.135974
0.135971
0.135971
0.135976
0.135986
0.136002
0.139974
0.139921
0.139868
0.139814
0.139761
0.139707
0.139654
0.1396
0.139547
0.139493
0.13944
0.139386
0.139333
0.13928
0.139227
0.139174
0.139121
0.139068
0.139016
0.138964
0.138912
0.13886
0.138809
0.138758
0.138707
0.138656
0.138606
0.138556
0.138507
0.138458
0.138409
0.138361
0.138313
0.138266
0.138219
0.138172
0.138126
0.13808
0.138035
0.13799
0.137946
0.137902
0.137858
0.137815
0.137773
0.137731
0.13769
0.137649
0.137608
0.137568
0.137529
0.13749
0.137451
0.137413
0.137376
0.137339
0.137302
0.137266
0.137231
0.137196
0.137161
0.137127
0.137094
0.13706
0.137028
0.136996
0.136964
0.136933
0.136902
0.136872
0.136842
0.136813
0.136784
0.136755
0.136727
0.1367
0.136673
0.136646
0.13662
0.136594
0.136568
0.136543
0.136518
0.136494
0.13647
0.136447
0.136424
0.136401
0.136379
0.136357
0.136335
0.136314
0.136293
0.136272
0.136252
0.136232
0.136213
0.136193
0.136174
0.136156
0.136138
0.13612
0.136103
0.136086
0.136069
0.136053
0.136037
0.136022
0.136008
0.135994
0.135982
0.13597
0.13596
0.135952
0.135946
0.135943
0.135943
0.135948
0.135958
0.135974
0.139973
0.13992
0.139867
0.139813
0.13976
0.139706
0.139652
0.139599
0.139545
0.139491
0.139437
0.139384
0.13933
0.139276
0.139223
0.13917
0.139117
0.139064
0.139011
0.138959
0.138906
0.138855
0.138803
0.138751
0.1387
0.138649
0.138599
0.138549
0.138499
0.13845
0.138401
0.138352
0.138304
0.138256
0.138208
0.138162
0.138115
0.138069
0.138023
0.137978
0.137933
0.137889
0.137845
0.137802
0.137759
0.137717
0.137675
0.137634
0.137593
0.137552
0.137513
0.137473
0.137434
0.137396
0.137358
0.137321
0.137284
0.137248
0.137212
0.137176
0.137142
0.137107
0.137073
0.13704
0.137007
0.136974
0.136942
0.136911
0.13688
0.136849
0.136819
0.136789
0.13676
0.136731
0.136703
0.136675
0.136648
0.136621
0.136594
0.136568
0.136542
0.136517
0.136492
0.136467
0.136443
0.136419
0.136396
0.136373
0.13635
0.136328
0.136306
0.136285
0.136264
0.136243
0.136222
0.136202
0.136182
0.136163
0.136144
0.136125
0.136107
0.136089
0.136071
0.136054
0.136037
0.136021
0.136005
0.13599
0.135975
0.135961
0.135949
0.135937
0.135927
0.135919
0.135913
0.13591
0.13591
0.135915
0.135925
0.135941
0.139973
0.13992
0.139866
0.139812
0.139759
0.139705
0.139651
0.139597
0.139542
0.139488
0.139434
0.13938
0.139326
0.139273
0.139219
0.139165
0.139112
0.139059
0.139006
0.138953
0.1389
0.138848
0.138796
0.138744
0.138693
0.138642
0.138591
0.13854
0.13849
0.13844
0.138391
0.138342
0.138293
0.138245
0.138197
0.13815
0.138103
0.138056
0.13801
0.137965
0.137919
0.137875
0.137831
0.137787
0.137744
0.137701
0.137659
0.137617
0.137576
0.137535
0.137495
0.137455
0.137416
0.137377
0.137339
0.137301
0.137263
0.137227
0.13719
0.137155
0.137119
0.137085
0.13705
0.137016
0.136983
0.13695
0.136918
0.136886
0.136855
0.136824
0.136793
0.136763
0.136734
0.136704
0.136676
0.136648
0.13662
0.136592
0.136565
0.136539
0.136513
0.136487
0.136462
0.136437
0.136413
0.136388
0.136365
0.136341
0.136319
0.136296
0.136274
0.136252
0.136231
0.136209
0.136189
0.136168
0.136148
0.136129
0.136109
0.13609
0.136072
0.136053
0.136036
0.136018
0.136001
0.135984
0.135968
0.135953
0.135938
0.135924
0.135911
0.1359
0.13589
0.135881
0.135875
0.135872
0.135872
0.135877
0.135887
0.135904
0.139973
0.139919
0.139865
0.139811
0.139757
0.139703
0.139649
0.139594
0.13954
0.139486
0.139431
0.139377
0.139323
0.139269
0.139215
0.139161
0.139107
0.139053
0.139
0.138947
0.138894
0.138841
0.138789
0.138737
0.138685
0.138633
0.138582
0.138531
0.13848
0.13843
0.13838
0.138331
0.138282
0.138233
0.138185
0.138137
0.138089
0.138042
0.137996
0.13795
0.137904
0.137859
0.137814
0.13777
0.137727
0.137683
0.137641
0.137598
0.137557
0.137515
0.137475
0.137434
0.137395
0.137356
0.137317
0.137279
0.137241
0.137204
0.137167
0.137131
0.137095
0.13706
0.137025
0.136991
0.136957
0.136924
0.136891
0.136859
0.136827
0.136795
0.136765
0.136734
0.136704
0.136675
0.136646
0.136617
0.136589
0.136561
0.136534
0.136507
0.13648
0.136454
0.136429
0.136403
0.136379
0.136354
0.13633
0.136306
0.136283
0.13626
0.136238
0.136216
0.136194
0.136173
0.136152
0.136131
0.136111
0.136091
0.136071
0.136052
0.136033
0.136014
0.135996
0.135978
0.135961
0.135944
0.135928
0.135912
0.135897
0.135883
0.13587
0.135858
0.135848
0.135839
0.135833
0.13583
0.13583
0.135835
0.135845
0.135863
0.139973
0.139919
0.139865
0.13981
0.139756
0.139701
0.139647
0.139592
0.139537
0.139483
0.139428
0.139373
0.139319
0.139264
0.13921
0.139156
0.139102
0.139048
0.138994
0.13894
0.138887
0.138834
0.138781
0.138728
0.138676
0.138624
0.138572
0.138521
0.13847
0.138419
0.138369
0.138319
0.138269
0.13822
0.138171
0.138123
0.138075
0.138028
0.137981
0.137934
0.137888
0.137842
0.137797
0.137752
0.137708
0.137664
0.137621
0.137579
0.137536
0.137495
0.137453
0.137413
0.137372
0.137333
0.137293
0.137255
0.137216
0.137179
0.137142
0.137105
0.137069
0.137033
0.136998
0.136963
0.136929
0.136895
0.136862
0.136829
0.136797
0.136765
0.136733
0.136703
0.136672
0.136642
0.136613
0.136584
0.136555
0.136527
0.136499
0.136472
0.136445
0.136419
0.136393
0.136367
0.136342
0.136317
0.136293
0.136269
0.136245
0.136222
0.136199
0.136176
0.136154
0.136133
0.136111
0.13609
0.13607
0.136049
0.136029
0.13601
0.135991
0.135972
0.135953
0.135935
0.135918
0.135901
0.135884
0.135868
0.135853
0.135839
0.135825
0.135813
0.135803
0.135794
0.135788
0.135784
0.135785
0.13579
0.1358
0.135818
0.139973
0.139918
0.139864
0.139809
0.139754
0.1397
0.139645
0.13959
0.139535
0.13948
0.139425
0.13937
0.139315
0.13926
0.139205
0.13915
0.139096
0.139042
0.138987
0.138933
0.13888
0.138826
0.138773
0.13872
0.138667
0.138614
0.138562
0.13851
0.138459
0.138407
0.138357
0.138306
0.138256
0.138206
0.138157
0.138108
0.13806
0.138012
0.137964
0.137917
0.137871
0.137824
0.137779
0.137733
0.137689
0.137644
0.137601
0.137557
0.137515
0.137472
0.13743
0.137389
0.137348
0.137308
0.137268
0.137229
0.13719
0.137152
0.137114
0.137077
0.13704
0.137004
0.136968
0.136933
0.136899
0.136864
0.136831
0.136797
0.136764
0.136732
0.1367
0.136669
0.136638
0.136608
0.136578
0.136548
0.136519
0.136491
0.136462
0.136435
0.136407
0.136381
0.136354
0.136328
0.136302
0.136277
0.136252
0.136228
0.136204
0.13618
0.136157
0.136134
0.136112
0.13609
0.136068
0.136047
0.136026
0.136005
0.135985
0.135965
0.135945
0.135926
0.135907
0.135889
0.135871
0.135854
0.135837
0.135821
0.135805
0.135791
0.135777
0.135765
0.135754
0.135745
0.135739
0.135736
0.135736
0.135741
0.135752
0.135769
0.139973
0.139918
0.139863
0.139808
0.139753
0.139698
0.139643
0.139587
0.139532
0.139476
0.139421
0.139366
0.13931
0.139255
0.1392
0.139145
0.13909
0.139035
0.138981
0.138926
0.138872
0.138818
0.138764
0.13871
0.138657
0.138604
0.138551
0.138499
0.138447
0.138395
0.138344
0.138293
0.138242
0.138192
0.138142
0.138093
0.138044
0.137995
0.137947
0.137899
0.137852
0.137805
0.137759
0.137713
0.137668
0.137623
0.137579
0.137535
0.137492
0.137449
0.137406
0.137365
0.137323
0.137282
0.137242
0.137202
0.137163
0.137124
0.137086
0.137048
0.137011
0.136974
0.136938
0.136902
0.136867
0.136832
0.136798
0.136764
0.136731
0.136698
0.136665
0.136633
0.136602
0.136571
0.136541
0.136511
0.136481
0.136452
0.136423
0.136395
0.136368
0.13634
0.136313
0.136287
0.136261
0.136235
0.13621
0.136185
0.136161
0.136137
0.136113
0.13609
0.136067
0.136044
0.136022
0.136001
0.135979
0.135958
0.135938
0.135917
0.135897
0.135878
0.135859
0.13584
0.135822
0.135804
0.135787
0.135771
0.135755
0.13574
0.135726
0.135714
0.135703
0.135694
0.135687
0.135684
0.135684
0.135689
0.1357
0.135718
0.139973
0.139918
0.139862
0.139807
0.139752
0.139696
0.13964
0.139585
0.139529
0.139473
0.139417
0.139362
0.139306
0.13925
0.139195
0.139139
0.139084
0.139029
0.138973
0.138919
0.138864
0.138809
0.138755
0.138701
0.138647
0.138594
0.13854
0.138487
0.138435
0.138383
0.138331
0.138279
0.138228
0.138177
0.138127
0.138077
0.138027
0.137978
0.137929
0.137881
0.137833
0.137786
0.137739
0.137692
0.137647
0.137601
0.137556
0.137512
0.137468
0.137424
0.137381
0.137339
0.137297
0.137255
0.137214
0.137174
0.137134
0.137095
0.137056
0.137018
0.13698
0.136942
0.136905
0.136869
0.136833
0.136798
0.136763
0.136729
0.136695
0.136662
0.136629
0.136596
0.136564
0.136533
0.136502
0.136471
0.136441
0.136412
0.136383
0.136354
0.136326
0.136298
0.136271
0.136244
0.136217
0.136191
0.136165
0.13614
0.136115
0.136091
0.136067
0.136043
0.13602
0.135997
0.135974
0.135952
0.13593
0.135909
0.135888
0.135867
0.135847
0.135827
0.135808
0.135789
0.13577
0.135752
0.135735
0.135718
0.135702
0.135687
0.135673
0.13566
0.135649
0.13564
0.135633
0.13563
0.13563
0.135635
0.135646
0.135665
0.139972
0.139917
0.139862
0.139806
0.13975
0.139694
0.139638
0.139582
0.139526
0.13947
0.139414
0.139358
0.139301
0.139245
0.139189
0.139133
0.139078
0.139022
0.138966
0.138911
0.138856
0.1388
0.138746
0.138691
0.138637
0.138583
0.138529
0.138475
0.138422
0.138369
0.138317
0.138265
0.138213
0.138162
0.138111
0.13806
0.13801
0.13796
0.137911
0.137862
0.137813
0.137765
0.137718
0.137671
0.137624
0.137578
0.137533
0.137487
0.137443
0.137399
0.137355
0.137312
0.137269
0.137227
0.137186
0.137145
0.137104
0.137064
0.137025
0.136986
0.136947
0.136909
0.136872
0.136835
0.136799
0.136763
0.136727
0.136692
0.136658
0.136624
0.13659
0.136558
0.136525
0.136493
0.136462
0.13643
0.1364
0.13637
0.13634
0.136311
0.136282
0.136254
0.136226
0.136199
0.136172
0.136145
0.136119
0.136093
0.136068
0.136043
0.136018
0.135994
0.135971
0.135947
0.135924
0.135902
0.13588
0.135858
0.135836
0.135815
0.135795
0.135774
0.135755
0.135735
0.135716
0.135698
0.13568
0.135663
0.135647
0.135631
0.135617
0.135604
0.135592
0.135583
0.135576
0.135573
0.135573
0.135578
0.13559
0.135609
0.139972
0.139917
0.139861
0.139805
0.139749
0.139692
0.139636
0.13958
0.139523
0.139467
0.13941
0.139353
0.139297
0.13924
0.139184
0.139127
0.139071
0.139015
0.138959
0.138903
0.138847
0.138792
0.138736
0.138681
0.138626
0.138572
0.138517
0.138463
0.138409
0.138356
0.138303
0.13825
0.138198
0.138146
0.138094
0.138043
0.137992
0.137942
0.137892
0.137842
0.137793
0.137744
0.137696
0.137648
0.137601
0.137554
0.137508
0.137462
0.137417
0.137372
0.137328
0.137284
0.137241
0.137199
0.137156
0.137115
0.137073
0.137033
0.136993
0.136953
0.136914
0.136875
0.136837
0.1368
0.136763
0.136726
0.13669
0.136655
0.136619
0.136585
0.136551
0.136517
0.136484
0.136452
0.13642
0.136388
0.136357
0.136326
0.136296
0.136266
0.136237
0.136208
0.13618
0.136152
0.136124
0.136097
0.136071
0.136044
0.136019
0.135993
0.135968
0.135944
0.135919
0.135896
0.135872
0.135849
0.135827
0.135804
0.135783
0.135761
0.13574
0.135719
0.135699
0.135679
0.13566
0.135641
0.135623
0.135606
0.135589
0.135573
0.135559
0.135545
0.135534
0.135524
0.135517
0.135514
0.135514
0.13552
0.135531
0.13555
0.139972
0.139916
0.13986
0.139804
0.139747
0.139691
0.139634
0.139577
0.13952
0.139463
0.139406
0.139349
0.139292
0.139235
0.139178
0.139121
0.139065
0.139008
0.138951
0.138895
0.138838
0.138782
0.138726
0.138671
0.138615
0.13856
0.138505
0.138451
0.138396
0.138342
0.138288
0.138235
0.138182
0.138129
0.138077
0.138025
0.137974
0.137923
0.137872
0.137822
0.137772
0.137723
0.137674
0.137626
0.137578
0.13753
0.137483
0.137437
0.137391
0.137345
0.137301
0.137256
0.137212
0.137169
0.137126
0.137084
0.137042
0.137
0.13696
0.136919
0.136879
0.13684
0.136802
0.136763
0.136726
0.136688
0.136652
0.136616
0.13658
0.136545
0.13651
0.136476
0.136442
0.136409
0.136376
0.136344
0.136313
0.136281
0.136251
0.13622
0.13619
0.136161
0.136132
0.136104
0.136076
0.136048
0.136021
0.135994
0.135968
0.135942
0.135916
0.135891
0.135867
0.135842
0.135819
0.135795
0.135772
0.135749
0.135727
0.135705
0.135684
0.135663
0.135642
0.135622
0.135602
0.135583
0.135564
0.135547
0.13553
0.135513
0.135499
0.135485
0.135473
0.135463
0.135456
0.135453
0.135453
0.135459
0.13547
0.13549
0.139972
0.139916
0.139859
0.139803
0.139746
0.139689
0.139632
0.139574
0.139517
0.13946
0.139402
0.139345
0.139287
0.13923
0.139173
0.139115
0.139058
0.139001
0.138944
0.138887
0.13883
0.138773
0.138717
0.13866
0.138604
0.138548
0.138493
0.138438
0.138383
0.138328
0.138274
0.13822
0.138166
0.138113
0.13806
0.138007
0.137955
0.137903
0.137852
0.137801
0.137751
0.137701
0.137651
0.137602
0.137553
0.137505
0.137458
0.137411
0.137364
0.137318
0.137272
0.137227
0.137182
0.137138
0.137095
0.137052
0.137009
0.136967
0.136926
0.136885
0.136844
0.136804
0.136765
0.136726
0.136688
0.13665
0.136612
0.136576
0.136539
0.136504
0.136468
0.136433
0.136399
0.136365
0.136332
0.136299
0.136267
0.136235
0.136204
0.136173
0.136142
0.136112
0.136083
0.136054
0.136025
0.135997
0.135969
0.135942
0.135915
0.135889
0.135863
0.135837
0.135812
0.135787
0.135763
0.135739
0.135716
0.135693
0.13567
0.135647
0.135626
0.135604
0.135583
0.135562
0.135542
0.135523
0.135504
0.135486
0.135468
0.135452
0.135437
0.135423
0.135411
0.135401
0.135394
0.13539
0.13539
0.135396
0.135408
0.135428
0.139972
0.139915
0.139858
0.139801
0.139744
0.139687
0.139629
0.139572
0.139514
0.139456
0.139398
0.139341
0.139283
0.139225
0.139167
0.139109
0.139051
0.138993
0.138936
0.138878
0.138821
0.138764
0.138707
0.13865
0.138593
0.138537
0.138481
0.138425
0.138369
0.138314
0.138259
0.138204
0.13815
0.138096
0.138042
0.137989
0.137936
0.137884
0.137832
0.13778
0.137729
0.137678
0.137628
0.137578
0.137529
0.13748
0.137432
0.137384
0.137336
0.137289
0.137243
0.137197
0.137152
0.137107
0.137063
0.137019
0.136976
0.136933
0.136891
0.136849
0.136808
0.136767
0.136727
0.136688
0.136649
0.13661
0.136572
0.136535
0.136498
0.136461
0.136425
0.13639
0.136355
0.13632
0.136287
0.136253
0.13622
0.136188
0.136156
0.136124
0.136093
0.136063
0.136033
0.136003
0.135974
0.135945
0.135917
0.135889
0.135862
0.135835
0.135808
0.135782
0.135756
0.135731
0.135706
0.135682
0.135658
0.135634
0.135611
0.135588
0.135566
0.135544
0.135522
0.135501
0.135481
0.135461
0.135442
0.135423
0.135405
0.135388
0.135373
0.135359
0.135346
0.135336
0.135329
0.135325
0.135325
0.135331
0.135343
0.135364
0.139972
0.139915
0.139858
0.1398
0.139743
0.139685
0.139627
0.139569
0.139511
0.139453
0.139395
0.139336
0.139278
0.139219
0.139161
0.139103
0.139044
0.138986
0.138928
0.13887
0.138812
0.138754
0.138696
0.138639
0.138582
0.138525
0.138468
0.138411
0.138355
0.138299
0.138244
0.138188
0.138133
0.138078
0.138024
0.13797
0.137917
0.137864
0.137811
0.137758
0.137707
0.137655
0.137604
0.137554
0.137504
0.137454
0.137405
0.137356
0.137308
0.137261
0.137214
0.137167
0.137121
0.137075
0.13703
0.136986
0.136942
0.136898
0.136855
0.136813
0.136771
0.13673
0.136689
0.136649
0.136609
0.13657
0.136531
0.136493
0.136455
0.136418
0.136381
0.136345
0.13631
0.136275
0.13624
0.136206
0.136172
0.136139
0.136107
0.136074
0.136043
0.136012
0.135981
0.135951
0.135921
0.135892
0.135863
0.135835
0.135807
0.135779
0.135752
0.135725
0.135699
0.135673
0.135648
0.135623
0.135599
0.135574
0.135551
0.135527
0.135505
0.135482
0.13546
0.135439
0.135418
0.135397
0.135378
0.135359
0.13534
0.135323
0.135307
0.135293
0.13528
0.13527
0.135263
0.135259
0.135259
0.135265
0.135277
0.135298
0.139972
0.139914
0.139857
0.139799
0.139741
0.139683
0.139625
0.139567
0.139508
0.139449
0.139391
0.139332
0.139273
0.139214
0.139155
0.139096
0.139037
0.138979
0.13892
0.138861
0.138803
0.138744
0.138686
0.138628
0.13857
0.138513
0.138455
0.138398
0.138341
0.138284
0.138228
0.138172
0.138116
0.138061
0.138006
0.137951
0.137897
0.137843
0.13779
0.137737
0.137684
0.137632
0.13758
0.137529
0.137478
0.137428
0.137378
0.137329
0.13728
0.137231
0.137183
0.137136
0.137089
0.137043
0.136997
0.136952
0.136907
0.136863
0.136819
0.136776
0.136733
0.136691
0.13665
0.136609
0.136568
0.136528
0.136489
0.13645
0.136412
0.136374
0.136337
0.1363
0.136263
0.136228
0.136192
0.136158
0.136123
0.13609
0.136056
0.136024
0.135991
0.13596
0.135928
0.135897
0.135867
0.135837
0.135808
0.135779
0.13575
0.135722
0.135695
0.135667
0.135641
0.135614
0.135588
0.135563
0.135538
0.135513
0.135489
0.135465
0.135442
0.135419
0.135397
0.135375
0.135353
0.135332
0.135312
0.135293
0.135274
0.135257
0.13524
0.135226
0.135213
0.135202
0.135195
0.135191
0.135191
0.135197
0.13521
0.135231
0.139971
0.139914
0.139856
0.139798
0.13974
0.139681
0.139623
0.139564
0.139505
0.139446
0.139387
0.139327
0.139268
0.139209
0.139149
0.13909
0.139031
0.138971
0.138912
0.138853
0.138794
0.138735
0.138676
0.138617
0.138559
0.1385
0.138442
0.138385
0.138327
0.13827
0.138213
0.138156
0.138099
0.138043
0.137988
0.137932
0.137877
0.137823
0.137768
0.137715
0.137661
0.137608
0.137556
0.137504
0.137452
0.137401
0.13735
0.1373
0.137251
0.137201
0.137153
0.137105
0.137057
0.13701
0.136963
0.136917
0.136872
0.136827
0.136782
0.136739
0.136695
0.136652
0.13661
0.136568
0.136527
0.136486
0.136446
0.136407
0.136367
0.136329
0.136291
0.136253
0.136216
0.13618
0.136144
0.136109
0.136074
0.136039
0.136005
0.135972
0.135939
0.135906
0.135875
0.135843
0.135812
0.135782
0.135752
0.135722
0.135693
0.135664
0.135636
0.135608
0.135581
0.135554
0.135528
0.135502
0.135476
0.135451
0.135426
0.135402
0.135378
0.135354
0.135332
0.135309
0.135287
0.135266
0.135245
0.135226
0.135207
0.135189
0.135172
0.135157
0.135144
0.135133
0.135125
0.135121
0.135121
0.135128
0.135141
0.135163
0.139971
0.139913
0.139855
0.139797
0.139738
0.139679
0.13962
0.139561
0.139502
0.139442
0.139383
0.139323
0.139263
0.139203
0.139143
0.139084
0.139024
0.138964
0.138904
0.138844
0.138784
0.138725
0.138665
0.138606
0.138547
0.138488
0.138429
0.138371
0.138313
0.138255
0.138197
0.138139
0.138082
0.138025
0.137969
0.137913
0.137857
0.137802
0.137747
0.137692
0.137638
0.137584
0.137531
0.137478
0.137426
0.137374
0.137323
0.137272
0.137221
0.137171
0.137122
0.137073
0.137024
0.136977
0.136929
0.136882
0.136836
0.13679
0.136745
0.1367
0.136656
0.136613
0.13657
0.136527
0.136485
0.136444
0.136403
0.136362
0.136322
0.136283
0.136244
0.136206
0.136168
0.136131
0.136095
0.136058
0.136023
0.135988
0.135953
0.135919
0.135885
0.135852
0.13582
0.135788
0.135756
0.135725
0.135694
0.135664
0.135634
0.135605
0.135576
0.135548
0.13552
0.135492
0.135465
0.135439
0.135413
0.135387
0.135362
0.135337
0.135313
0.135289
0.135265
0.135242
0.13522
0.135198
0.135177
0.135157
0.135137
0.135119
0.135102
0.135087
0.135073
0.135062
0.135054
0.13505
0.13505
0.135057
0.13507
0.135093
0.139971
0.139913
0.139855
0.139796
0.139737
0.139678
0.139618
0.139559
0.139499
0.139439
0.139379
0.139319
0.139258
0.139198
0.139138
0.139077
0.139017
0.138956
0.138896
0.138835
0.138775
0.138715
0.138655
0.138595
0.138535
0.138476
0.138416
0.138357
0.138298
0.138239
0.138181
0.138123
0.138065
0.138007
0.13795
0.137893
0.137837
0.137781
0.137725
0.13767
0.137615
0.13756
0.137506
0.137452
0.137399
0.137347
0.137294
0.137243
0.137191
0.137141
0.13709
0.137041
0.136991
0.136943
0.136895
0.136847
0.1368
0.136753
0.136707
0.136662
0.136617
0.136572
0.136528
0.136485
0.136442
0.1364
0.136358
0.136317
0.136277
0.136237
0.136197
0.136158
0.13612
0.136082
0.136044
0.136008
0.135971
0.135935
0.1359
0.135865
0.135831
0.135797
0.135764
0.135731
0.135699
0.135667
0.135636
0.135605
0.135575
0.135545
0.135515
0.135486
0.135458
0.13543
0.135402
0.135375
0.135348
0.135322
0.135296
0.135271
0.135246
0.135222
0.135198
0.135174
0.135151
0.135129
0.135108
0.135087
0.135067
0.135048
0.135031
0.135015
0.135001
0.13499
0.134982
0.134978
0.134978
0.134985
0.134998
0.135021
0.139971
0.139912
0.139854
0.139795
0.139735
0.139676
0.139616
0.139556
0.139496
0.139435
0.139375
0.139314
0.139253
0.139193
0.139132
0.139071
0.13901
0.138949
0.138888
0.138827
0.138766
0.138705
0.138644
0.138584
0.138523
0.138463
0.138403
0.138343
0.138284
0.138224
0.138165
0.138106
0.138047
0.137989
0.137931
0.137874
0.137816
0.137759
0.137703
0.137647
0.137591
0.137536
0.137481
0.137426
0.137372
0.137319
0.137266
0.137213
0.137161
0.13711
0.137059
0.137008
0.136958
0.136908
0.136859
0.136811
0.136763
0.136716
0.136669
0.136622
0.136577
0.136531
0.136487
0.136443
0.136399
0.136356
0.136314
0.136272
0.13623
0.136189
0.136149
0.136109
0.13607
0.136032
0.135993
0.135956
0.135919
0.135882
0.135846
0.135811
0.135776
0.135741
0.135707
0.135674
0.135641
0.135608
0.135576
0.135545
0.135514
0.135483
0.135453
0.135424
0.135395
0.135366
0.135338
0.13531
0.135283
0.135256
0.13523
0.135204
0.135178
0.135153
0.135129
0.135105
0.135081
0.135059
0.135037
0.135016
0.134995
0.134976
0.134958
0.134942
0.134928
0.134917
0.134908
0.134904
0.134904
0.134911
0.134925
0.134949
0.139971
0.139912
0.139853
0.139794
0.139734
0.139674
0.139614
0.139553
0.139493
0.139432
0.139371
0.13931
0.139248
0.139187
0.139126
0.139064
0.139003
0.138941
0.13888
0.138818
0.138757
0.138695
0.138634
0.138573
0.138512
0.138451
0.13839
0.138329
0.138269
0.138209
0.138149
0.138089
0.13803
0.137971
0.137912
0.137854
0.137796
0.137738
0.137681
0.137624
0.137567
0.137511
0.137455
0.1374
0.137345
0.137291
0.137237
0.137184
0.137131
0.137078
0.137026
0.136975
0.136924
0.136874
0.136824
0.136775
0.136726
0.136678
0.13663
0.136583
0.136536
0.13649
0.136445
0.1364
0.136355
0.136311
0.136268
0.136225
0.136183
0.136142
0.1361
0.13606
0.13602
0.135981
0.135942
0.135903
0.135865
0.135828
0.135791
0.135755
0.13572
0.135684
0.13565
0.135616
0.135582
0.135549
0.135516
0.135484
0.135452
0.135421
0.13539
0.13536
0.13533
0.135301
0.135272
0.135244
0.135216
0.135189
0.135162
0.135135
0.135109
0.135084
0.135059
0.135034
0.13501
0.134987
0.134965
0.134943
0.134922
0.134903
0.134884
0.134868
0.134854
0.134842
0.134833
0.134829
0.134829
0.134836
0.134851
0.134875
0.139971
0.139912
0.139852
0.139792
0.139732
0.139672
0.139611
0.139551
0.13949
0.139428
0.139367
0.139305
0.139244
0.139182
0.13912
0.139058
0.138996
0.138933
0.138871
0.138809
0.138747
0.138685
0.138623
0.138561
0.1385
0.138438
0.138376
0.138315
0.138254
0.138193
0.138133
0.138072
0.138012
0.137952
0.137893
0.137834
0.137775
0.137716
0.137658
0.1376
0.137543
0.137486
0.13743
0.137373
0.137318
0.137263
0.137208
0.137154
0.1371
0.137047
0.136994
0.136942
0.13689
0.136839
0.136788
0.136738
0.136688
0.136639
0.13659
0.136542
0.136495
0.136448
0.136402
0.136356
0.136311
0.136266
0.136222
0.136178
0.136135
0.136093
0.136051
0.13601
0.135969
0.135929
0.135889
0.13585
0.135811
0.135773
0.135736
0.135699
0.135662
0.135627
0.135591
0.135556
0.135522
0.135488
0.135455
0.135422
0.13539
0.135358
0.135326
0.135295
0.135265
0.135235
0.135206
0.135177
0.135148
0.13512
0.135093
0.135066
0.135039
0.135013
0.134987
0.134962
0.134938
0.134914
0.134891
0.134869
0.134848
0.134828
0.134809
0.134793
0.134778
0.134766
0.134757
0.134752
0.134753
0.13476
0.134775
0.134799
0.139971
0.139911
0.139851
0.139791
0.139731
0.13967
0.139609
0.139548
0.139486
0.139425
0.139363
0.139301
0.139239
0.139176
0.139114
0.139051
0.138989
0.138926
0.138863
0.1388
0.138738
0.138675
0.138612
0.13855
0.138487
0.138425
0.138363
0.138301
0.138239
0.138178
0.138116
0.138055
0.137994
0.137934
0.137873
0.137813
0.137754
0.137694
0.137635
0.137577
0.137519
0.137461
0.137404
0.137347
0.13729
0.137234
0.137178
0.137123
0.137069
0.137015
0.136961
0.136908
0.136855
0.136803
0.136751
0.1367
0.13665
0.1366
0.136551
0.136502
0.136453
0.136406
0.136358
0.136312
0.136266
0.13622
0.136175
0.136131
0.136087
0.136044
0.136001
0.135959
0.135917
0.135876
0.135836
0.135796
0.135757
0.135718
0.13568
0.135642
0.135605
0.135568
0.135532
0.135496
0.135461
0.135427
0.135392
0.135359
0.135326
0.135293
0.135261
0.13523
0.135199
0.135168
0.135138
0.135108
0.135079
0.135051
0.135023
0.134995
0.134968
0.134941
0.134915
0.134889
0.134864
0.13484
0.134817
0.134794
0.134772
0.134752
0.134733
0.134716
0.134701
0.134688
0.13468
0.134675
0.134675
0.134682
0.134698
0.134723
0.13997
0.139911
0.139851
0.13979
0.139729
0.139668
0.139607
0.139545
0.139483
0.139421
0.139359
0.139296
0.139234
0.139171
0.139108
0.139045
0.138981
0.138918
0.138855
0.138792
0.138728
0.138665
0.138602
0.138539
0.138475
0.138412
0.13835
0.138287
0.138224
0.138162
0.1381
0.138038
0.137976
0.137915
0.137854
0.137793
0.137733
0.137672
0.137613
0.137553
0.137494
0.137436
0.137377
0.13732
0.137262
0.137205
0.137149
0.137093
0.137037
0.136982
0.136928
0.136874
0.13682
0.136767
0.136715
0.136663
0.136611
0.136561
0.13651
0.136461
0.136411
0.136363
0.136315
0.136267
0.13622
0.136174
0.136128
0.136083
0.136038
0.135994
0.13595
0.135907
0.135865
0.135823
0.135782
0.135741
0.135701
0.135661
0.135622
0.135584
0.135546
0.135508
0.135472
0.135435
0.135399
0.135364
0.135329
0.135295
0.135261
0.135228
0.135195
0.135163
0.135131
0.1351
0.135069
0.135039
0.135009
0.13498
0.134951
0.134923
0.134895
0.134868
0.134841
0.134815
0.13479
0.134765
0.134741
0.134718
0.134696
0.134675
0.134655
0.134638
0.134622
0.13461
0.134601
0.134596
0.134597
0.134604
0.134619
0.134645
0.13997
0.13991
0.13985
0.139789
0.139728
0.139666
0.139605
0.139543
0.13948
0.139418
0.139355
0.139292
0.139229
0.139165
0.139102
0.139038
0.138974
0.13891
0.138847
0.138783
0.138719
0.138655
0.138591
0.138527
0.138463
0.1384
0.138336
0.138273
0.138209
0.138146
0.138083
0.138021
0.137958
0.137896
0.137834
0.137773
0.137711
0.13765
0.13759
0.137529
0.13747
0.13741
0.137351
0.137292
0.137234
0.137176
0.137119
0.137062
0.137006
0.13695
0.136894
0.136839
0.136785
0.136731
0.136678
0.136625
0.136572
0.136521