/*--------------------------------*- C++ -*----------------------------------*\
  =========                 |
  \\      /  F ield         | OpenFOAM: The Open Source CFD Toolbox
   \\    /   O peration     | Website:  https://openfoam.org
    \\  /    A nd           | Version:  8
     \\/     M anipulation  |
\*---------------------------------------------------------------------------*/
FoamFile
{
    version     2.0;
    format      ascii;
    class       volScalarField;
    location    "0.05";
    object      p;
}
// * * * * * * * * * * * * * * * * * * * * * * * * * * * * * * * * * * * * * //

dimensions      [0 2 -2 0 0 0 0];

internalField   nonuniform List<scalar> 
114543
(
2.40313
2.3844
2.36895
2.35406
2.3395
2.32487
2.30996
2.29481
2.27942
2.26382
2.24796
2.23188
2.21558
2.19906
2.18235
2.16543
2.14831
2.13103
2.11357
2.09594
2.07815
2.06022
2.04214
2.02392
2.00557
1.9871
1.96851
1.9498
1.93098
1.91207
1.89305
1.87394
1.85474
1.83546
1.81609
1.79665
1.77713
1.75753
1.73788
1.71816
1.69838
1.67854
1.65864
1.63868
1.61868
1.59862
1.57852
1.55838
1.53819
1.51795
1.49768
1.47737
1.45702
1.43664
1.41622
1.39577
1.37529
1.35478
1.33423
1.31366
1.29306
1.27243
1.25178
1.2311
1.21039
1.18966
1.1689
1.14812
1.12732
1.10649
1.08565
1.06477
1.04388
1.02296
1.00202
0.981066
0.96008
0.939081
0.918056
0.897011
0.87594
0.854851
0.83374
0.812611
0.791453
0.770271
0.749078
0.727853
0.706608
0.685339
0.664046
0.642735
0.621396
0.600032
0.578644
0.557236
0.5358
0.514336
0.492848
0.471334
0.449793
0.428226
0.406631
0.385007
0.363357
0.341682
0.319973
0.298235
0.276468
0.254675
0.232846
0.210986
0.189097
0.167172
0.145225
0.123234
0.101212
0.0791636
0.0570772
0.0349565
0.0127973
-0.00939146
-0.0316177
-0.0538756
-0.0761776
-0.0985105
-0.120882
-0.143291
-0.165736
-0.188219
-0.210737
-0.233296
-0.25589
-0.278523
-0.301198
-0.323909
-0.346659
-0.369448
-0.392277
-0.415144
-0.438044
-0.460988
-0.483971
-0.506987
-0.530047
-0.553141
-0.576273
-0.599441
-0.622649
-0.645889
-0.669168
-0.692481
-0.71583
-0.739206
-0.762614
-0.786058
-0.809532
-0.833037
-0.85657
-0.880126
-0.903704
-0.927311
-0.950941
-0.974596
-0.998264
-1.02195
-1.04565
-1.06936
-1.09308
-1.11681
-1.14054
-1.16427
-1.188
-1.21174
-1.23545
-1.25915
-1.28285
-1.30651
-1.33016
-1.35377
-1.37736
-1.4009
-1.4244
-1.44785
-1.47126
-1.4946
-1.51787
-1.54109
-1.56423
-1.58731
-1.61031
-1.63323
-1.65611
-1.67896
-1.70176
-1.72449
-1.74748
-1.77141
-1.79681
-1.82763
2.4129
2.39479
2.3787
2.36308
2.34824
2.33366
2.31893
2.30397
2.28874
2.27328
2.25758
2.24164
2.22548
2.20909
2.19249
2.17569
2.15868
2.14149
2.12412
2.10657
2.08886
2.07098
2.05296
2.03479
2.01648
1.99804
1.97947
1.96077
1.94197
1.92306
1.90403
1.88491
1.86569
1.84638
1.82698
1.8075
1.78794
1.76829
1.74858
1.72879
1.70894
1.68903
1.66905
1.64901
1.62892
1.60877
1.58857
1.56832
1.54802
1.52767
1.50728
1.48685
1.46637
1.44586
1.4253
1.40471
1.38409
1.36343
1.34273
1.32201
1.30125
1.28046
1.25964
1.23879
1.21791
1.197
1.17607
1.15511
1.13412
1.11311
1.09208
1.07101
1.04992
1.02881
1.00768
0.986514
0.965329
0.944122
0.922891
0.901635
0.880356
0.859053
0.837728
0.816379
0.795005
0.773606
0.752188
0.730742
0.709273
0.687779
0.666261
0.64472
0.623153
0.601559
0.579942
0.558299
0.53663
0.514936
0.49321
0.471466
0.449684
0.427885
0.40605
0.384193
0.362305
0.340389
0.318445
0.296468
0.274464
0.252429
0.230364
0.208267
0.186139
0.163978
0.14179
0.119564
0.0973073
0.0750187
0.0526975
0.0303407
0.00795031
-0.014475
-0.0369327
-0.0594249
-0.0819542
-0.10452
-0.127118
-0.149754
-0.172425
-0.195133
-0.217874
-0.240657
-0.263472
-0.286324
-0.309212
-0.332142
-0.355103
-0.378103
-0.40114
-0.424211
-0.447321
-0.470465
-0.493647
-0.516862
-0.540113
-0.563398
-0.586722
-0.610074
-0.633462
-0.65688
-0.680334
-0.70382
-0.727335
-0.750877
-0.774446
-0.798044
-0.821673
-0.845326
-0.869001
-0.892693
-0.916411
-0.940148
-0.963903
-0.987674
-1.01146
-1.03525
-1.05906
-1.08286
-1.10668
-1.13049
-1.1543
-1.1781
-1.2019
-1.22569
-1.24946
-1.27321
-1.29694
-1.32064
-1.34431
-1.36794
-1.39153
-1.41508
-1.43857
-1.46201
-1.4854
-1.5087
-1.53194
-1.55513
-1.57822
-1.60124
-1.62418
-1.64706
-1.66989
-1.69265
-1.71538
-1.73825
-1.76194
-1.78731
-1.81398
-1.8443
2.41828
2.40417
2.38844
2.3724
2.3571
2.34239
2.32781
2.31302
2.29797
2.28267
2.26712
2.25134
2.23531
2.21907
2.2026
2.18591
2.16902
2.15193
2.13465
2.11719
2.09955
2.08175
2.06378
2.04567
2.0274
2.009
1.99047
1.97179
1.953
1.9341
1.91507
1.89595
1.87672
1.85739
1.83796
1.81844
1.79884
1.77915
1.75939
1.73954
1.71963
1.69964
1.67959
1.65947
1.63929
1.61905
1.59875
1.5784
1.55799
1.53753
1.51703
1.49647
1.47587
1.45522
1.43454
1.41381
1.39304
1.37223
1.35139
1.3305
1.30959
1.28864
1.26765
1.24663
1.22558
1.2045
1.18339
1.16224
1.14107
1.11987
1.09864
1.07739
1.05611
1.03479
1.01346
0.992094
0.970702
0.949286
0.927845
0.906377
0.884882
0.86336
0.84182
0.820248
0.798654
0.777029
0.755385
0.733714
0.712014
0.690294
0.668541
0.646769
0.624966
0.603139
0.581286
0.559407
0.537498
0.515564
0.4936
0.471614
0.449594
0.427552
0.405476
0.383375
0.361244
0.339086
0.316897
0.294679
0.272429
0.250153
0.22784
0.205503
0.183129
0.160728
0.138297
0.115826
0.0933297
0.0707979
0.0482389
0.0256399
0.00301012
-0.0196526
-0.0423477
-0.0650773
-0.0878425
-0.110639
-0.133471
-0.15634
-0.179242
-0.202174
-0.225145
-0.248152
-0.27119
-0.294265
-0.317375
-0.340518
-0.363698
-0.386911
-0.410157
-0.43344
-0.456753
-0.480102
-0.503482
-0.526896
-0.550343
-0.573818
-0.597327
-0.620868
-0.644435
-0.668037
-0.691663
-0.71532
-0.738997
-0.762704
-0.786433
-0.81019
-0.833967
-0.857767
-0.881578
-0.905409
-0.929257
-0.953123
-0.977
-1.00088
-1.02478
-1.04868
-1.07258
-1.09648
-1.12038
-1.14427
-1.16816
-1.19203
-1.21589
-1.23973
-1.26355
-1.28734
-1.3111
-1.33482
-1.35851
-1.38215
-1.40575
-1.42929
-1.45277
-1.47619
-1.49954
-1.52282
-1.54602
-1.56914
-1.59219
-1.61515
-1.63804
-1.66086
-1.68362
-1.70631
-1.72903
-1.75233
-1.77702
-1.80334
-1.82975
-1.85402
2.42182
2.41187
2.39782
2.38196
2.36625
2.35126
2.33666
2.32202
2.30714
2.292
2.27662
2.26099
2.24512
2.22901
2.21267
2.19612
2.17935
2.16236
2.14519
2.12782
2.11027
2.09254
2.07464
2.05659
2.03838
2.02002
2.00152
1.98288
1.96411
1.94522
1.9262
1.90707
1.88783
1.86848
1.84904
1.8295
1.80986
1.79013
1.77032
1.75042
1.73044
1.71039
1.69026
1.67007
1.6498
1.62947
1.60908
1.58863
1.56812
1.54755
1.52693
1.50626
1.48553
1.46475
1.44394
1.42307
1.40216
1.38121
1.36021
1.33917
1.3181
1.29698
1.27583
1.25464
1.23342
1.21216
1.19086
1.16954
1.14818
1.12679
1.10537
1.08392
1.06244
1.04092
1.01938
0.997811
0.976208
0.954579
0.932925
0.911237
0.889526
0.867784
0.84602
0.824221
0.8024
0.780549
0.758674
0.736769
0.714839
0.692879
0.670892
0.648881
0.62684
0.604773
0.582677
0.560554
0.538403
0.516224
0.494017
0.471782
0.449517
0.427225
0.404904
0.382554
0.360174
0.337766
0.315327
0.29286
0.270361
0.247835
0.225275
0.202685
0.180066
0.157414
0.134733
0.112018
0.0892736
0.0664932
0.0436874
0.0208441
-0.00202723
-0.0249367
-0.0478719
-0.0708443
-0.0938504
-0.116883
-0.139954
-0.16306
-0.186193
-0.209361
-0.232563
-0.255795
-0.279063
-0.302361
-0.325696
-0.349058
-0.372458
-0.395886
-0.419345
-0.442838
-0.46636
-0.489912
-0.513497
-0.537106
-0.560751
-0.584423
-0.608116
-0.63184
-0.655595
-0.679371
-0.703173
-0.726999
-0.750848
-0.774711
-0.798599
-0.822508
-0.846437
-0.870375
-0.894329
-0.918295
-0.942273
-0.966262
-0.990256
-1.01425
-1.03825
-1.06225
-1.08624
-1.11024
-1.13422
-1.15819
-1.18214
-1.20608
-1.23
-1.25389
-1.27775
-1.30157
-1.32536
-1.3491
-1.3728
-1.39645
-1.42004
-1.44357
-1.46703
-1.49042
-1.51374
-1.53697
-1.56013
-1.5832
-1.60619
-1.6291
-1.65193
-1.67468
-1.69737
-1.72004
-1.74303
-1.76704
-1.79265
-1.81898
-1.84302
-1.86091
2.42691
2.41838
2.40629
2.39139
2.37566
2.36031
2.34554
2.33096
2.31625
2.30129
2.28607
2.2706
2.25488
2.23892
2.22273
2.20631
2.18966
2.1728
2.15573
2.13846
2.12101
2.10337
2.08555
2.06756
2.04941
2.0311
2.01264
1.99404
1.9753
1.95642
1.93742
1.9183
1.89905
1.8797
1.86024
1.84067
1.821
1.80123
1.78138
1.76143
1.7414
1.72128
1.70109
1.68082
1.66048
1.64006
1.61958
1.59903
1.57841
1.55774
1.537
1.51621
1.49536
1.47446
1.45351
1.4325
1.41145
1.39035
1.3692
1.34801
1.32677
1.3055
1.28418
1.26282
1.24142
1.21998
1.19851
1.17699
1.15545
1.13387
1.11225
1.0906
1.06891
1.04719
1.02544
1.00366
0.98185
0.960004
0.938128
0.916224
0.89429
0.872321
0.850327
0.828302
0.80625
0.784164
0.762053
0.73991
0.717742
0.695542
0.673314
0.651058
0.628773
0.606458
0.584117
0.561744
0.539345
0.516915
0.494456
0.47197
0.449452
0.426907
0.404332
0.381726
0.359093
0.336429
0.313737
0.291012
0.268259
0.245476
0.222662
0.199816
0.176943
0.154036
0.131101
0.108131
0.0851347
0.0621053
0.039046
0.0159505
-0.00717094
-0.030324
-0.0535104
-0.0767293
-0.0999762
-0.123257
-0.146568
-0.169913
-0.193285
-0.216691
-0.240128
-0.263594
-0.287089
-0.310619
-0.334179
-0.357766
-0.381384
-0.405033
-0.428711
-0.452414
-0.476144
-0.499906
-0.523693
-0.547506
-0.571347
-0.595211
-0.619097
-0.64301
-0.666946
-0.690899
-0.714879
-0.73887
-0.762884
-0.786915
-0.810959
-0.83502
-0.859094
-0.883171
-0.907266
-0.931367
-0.955468
-0.979576
-1.00369
-1.02779
-1.0519
-1.07599
-1.10008
-1.12415
-1.14822
-1.17225
-1.19627
-1.22027
-1.24423
-1.26817
-1.29206
-1.31592
-1.33973
-1.36348
-1.38718
-1.41083
-1.43441
-1.45792
-1.48136
-1.50472
-1.52799
-1.55118
-1.57429
-1.5973
-1.62023
-1.64307
-1.66584
-1.68853
-1.71118
-1.73398
-1.75748
-1.78232
-1.80825
-1.83336
-1.85454
-1.87046
2.43317
2.4244
2.41374
2.40028
2.38507
2.36957
2.35455
2.33991
2.3253
2.31051
2.29546
2.28016
2.2646
2.2488
2.23275
2.21647
2.19996
2.18323
2.16628
2.14913
2.13176
2.11421
2.09648
2.07857
2.06048
2.04223
2.02382
2.00526
1.98656
1.96771
1.94873
1.92962
1.91038
1.89102
1.87155
1.85196
1.83227
1.81247
1.79257
1.77258
1.7525
1.73233
1.71207
1.69173
1.67131
1.6508
1.63023
1.60959
1.58887
1.5681
1.54725
1.52634
1.50537
1.48434
1.46325
1.44211
1.42092
1.39967
1.37837
1.35702
1.33563
1.31419
1.2927
1.27117
1.24959
1.22797
1.20631
1.18461
1.16287
1.1411
1.11928
1.09743
1.07554
1.05362
1.03165
1.00966
0.987625
0.965563
0.943464
0.921335
0.899171
0.876976
0.854749
0.832491
0.8102
0.787875
0.765526
0.74314
0.720727
0.698281
0.675807
0.6533
0.630766
0.608198
0.585604
0.562978
0.540322
0.517639
0.494921
0.472177
0.4494
0.426597
0.40376
0.380897
0.358002
0.335076
0.312124
0.289136
0.266123
0.243076
0.220002
0.196895
0.173761
0.150592
0.1274
0.10417
0.0809133
0.0576273
0.0343101
0.0109625
-0.0124161
-0.0358231
-0.0592635
-0.0827291
-0.106231
-0.129755
-0.153318
-0.176902
-0.200518
-0.224166
-0.247843
-0.271544
-0.295277
-0.319037
-0.342826
-0.366641
-0.390484
-0.414351
-0.438248
-0.462169
-0.486113
-0.510085
-0.534074
-0.558092
-0.582132
-0.606189
-0.630269
-0.65437
-0.67849
-0.702624
-0.726774
-0.750935
-0.775113
-0.799307
-0.823506
-0.84772
-0.871937
-0.896157
-0.920389
-0.944618
-0.968843
-0.993069
-1.01729
-1.04151
-1.06571
-1.0899
-1.11407
-1.13822
-1.16236
-1.18647
-1.21055
-1.23459
-1.2586
-1.28257
-1.30649
-1.33037
-1.3542
-1.37796
-1.40166
-1.4253
-1.44886
-1.47234
-1.49575
-1.51907
-1.5423
-1.56543
-1.58848
-1.61143
-1.6343
-1.65708
-1.67978
-1.70241
-1.72512
-1.74826
-1.77242
-1.79777
-1.82317
-1.84627
-1.86548
-1.88208
2.43979
2.43035
2.42045
2.40842
2.39419
2.37891
2.36371
2.34892
2.33434
2.31967
2.3048
2.28966
2.27427
2.25863
2.24275
2.22661
2.21024
2.19365
2.17682
2.15978
2.14253
2.12508
2.10744
2.08961
2.0716
2.05342
2.03507
2.01656
1.99789
1.97908
1.96012
1.94103
1.9218
1.90244
1.88297
1.86337
1.84366
1.82383
1.8039
1.78387
1.76374
1.74351
1.72319
1.70278
1.68229
1.66171
1.64105
1.62031
1.5995
1.57862
1.55766
1.53664
1.51555
1.49439
1.47317
1.4519
1.43056
1.40917
1.38772
1.36622
1.34466
1.32305
1.30139
1.27969
1.25793
1.23613
1.21429
1.1924
1.17047
1.14849
1.12648
1.10442
1.08232
1.06019
1.03801
1.0158
0.993544
0.971259
0.948934
0.926574
0.904181
0.881751
0.859285
0.836787
0.814255
0.791689
0.769092
0.746459
0.723797
0.701099
0.678373
0.655611
0.63282
0.609999
0.58714
0.564259
0.541339
0.518394
0.495413
0.472405
0.449363
0.426295
0.403191
0.380063
0.356897
0.33371
0.310483
0.287233
0.26395
0.240636
0.217295
0.193921
0.17052
0.147086
0.123625
0.100133
0.0766118
0.0530616
0.0294792
0.00586996
-0.0177662
-0.0414345
-0.0651313
-0.0888536
-0.112609
-0.13639
-0.1602
-0.184034
-0.207901
-0.23179
-0.25571
-0.279653
-0.303624
-0.327621
-0.351641
-0.375685
-0.39976
-0.423849
-0.447968
-0.472103
-0.496267
-0.520448
-0.54465
-0.568867
-0.593109
-0.61736
-0.641634
-0.665923
-0.690223
-0.714536
-0.738863
-0.763198
-0.787541
-0.81189
-0.836249
-0.860609
-0.884972
-0.90933
-0.933694
-0.958047
-0.9824
-1.00674
-1.03107
-1.05539
-1.07969
-1.10396
-1.12822
-1.15245
-1.17665
-1.20082
-1.22495
-1.24905
-1.27309
-1.29709
-1.32104
-1.34494
-1.36877
-1.39253
-1.41622
-1.43984
-1.46338
-1.48683
-1.5102
-1.53347
-1.55665
-1.57973
-1.60271
-1.62559
-1.64839
-1.67111
-1.69375
-1.7164
-1.73931
-1.76293
-1.78764
-1.81294
-1.83707
-1.8582
-1.87648
-1.89449
2.44633
2.43642
2.42674
2.41583
2.4028
2.38813
2.37296
2.35803
2.34339
2.3288
2.31407
2.29911
2.2839
2.26842
2.2527
2.23672
2.2205
2.20404
2.18735
2.17044
2.15331
2.13596
2.11842
2.10068
2.08276
2.06464
2.04636
2.02791
2.00929
1.99052
1.9716
1.95253
1.93332
1.91397
1.89449
1.87489
1.85516
1.83532
1.81536
1.79529
1.77512
1.75484
1.73447
1.71399
1.69343
1.67278
1.65203
1.63121
1.6103
1.58932
1.56825
1.54711
1.52591
1.50463
1.48328
1.46187
1.44039
1.41885
1.39725
1.37559
1.35387
1.3321
1.31027
1.28839
1.26646
1.24448
1.22244
1.20036
1.17823
1.15606
1.13384
1.11157
1.08927
1.06691
1.04452
1.02209
0.999612
0.977097
0.954542
0.931949
0.909316
0.88665
0.863941
0.8412
0.818423
0.795607
0.772758
0.749872
0.726957
0.704
0.681016
0.657994
0.634941
0.611854
0.588734
0.565583
0.542398
0.519182
0.495933
0.472655
0.449342
0.426001
0.402626
0.379221
0.355785
0.332321
0.308823
0.285297
0.26174
0.238152
0.214539
0.190888
0.167216
0.14351
0.119776
0.0960111
0.0722215
0.0484026
0.0245511
0.000676881
-0.0232291
-0.0471615
-0.0711211
-0.095107
-0.119119
-0.143158
-0.167224
-0.191315
-0.215431
-0.239572
-0.263737
-0.287926
-0.31214
-0.336374
-0.360633
-0.384914
-0.409212
-0.433535
-0.457875
-0.482234
-0.506612
-0.531002
-0.555417
-0.579843
-0.604284
-0.628733
-0.653199
-0.677675
-0.702156
-0.726649
-0.751153
-0.77566
-0.800165
-0.824673
-0.849185
-0.873694
-0.898195
-0.922696
-0.947186
-0.971665
-0.996133
-1.02059
-1.04502
-1.06944
-1.09382
-1.11819
-1.14252
-1.16682
-1.19109
-1.21531
-1.23949
-1.26363
-1.28771
-1.31173
-1.3357
-1.3596
-1.38343
-1.40719
-1.43086
-1.45446
-1.47797
-1.50139
-1.5247
-1.54793
-1.57104
-1.59405
-1.61697
-1.63979
-1.66252
-1.68517
-1.70779
-1.73056
-1.7538
-1.77791
-1.80285
-1.82748
-1.84999
-1.86963
-1.88787
-1.90695
2.45253
2.44248
2.43278
2.42262
2.41077
2.39702
2.38219
2.36722
2.3525
2.33792
2.32331
2.30851
2.29346
2.27816
2.26261
2.24679
2.23073
2.21442
2.19787
2.18109
2.16408
2.14686
2.12942
2.11178
2.09395
2.07592
2.05771
2.03932
2.02076
2.00204
1.98315
1.96412
1.94493
1.9256
1.90613
1.88652
1.86679
1.84693
1.82695
1.80686
1.78664
1.76632
1.74589
1.72536
1.70473
1.68401
1.66318
1.64227
1.62127
1.60019
1.57902
1.55777
1.53645
1.51505
1.49357
1.47202
1.4504
1.42872
1.40697
1.38516
1.36328
1.34134
1.31934
1.29728
1.27517
1.253
1.23078
1.20851
1.18618
1.1638
1.14137
1.1189
1.09638
1.0738
1.05119
1.02853
1.00583
0.983083
0.96029
0.937462
0.914586
0.891678
0.868724
0.845732
0.822704
0.799633
0.776528
0.753385
0.730205
0.70699
0.683739
0.66045
0.63713
0.613771
0.590382
0.566956
0.543498
0.520008
0.496482
0.472926
0.449335
0.425715
0.40206
0.378377
0.354662
0.330914
0.307139
0.283329
0.259493
0.235623
0.211727
0.187801
0.163845
0.139862
0.11585
0.0918066
0.0677412
0.0436439
0.0195199
-0.00462566
-0.0288065
-0.0530053
-0.0772368
-0.10149
-0.125767
-0.15007
-0.174395
-0.198747
-0.223118
-0.247515
-0.271931
-0.296369
-0.32083
-0.345307
-0.369807
-0.394322
-0.418856
-0.443407
-0.467974
-0.492557
-0.517155
-0.541761
-0.566383
-0.591017
-0.615659
-0.640307
-0.664973
-0.689632
-0.714303
-0.738971
-0.763647
-0.78832
-0.812993
-0.837656
-0.862321
-0.886974
-0.911618
-0.93625
-0.96087
-0.985465
-1.01005
-1.03461
-1.05915
-1.08366
-1.10813
-1.13258
-1.15698
-1.18135
-1.20567
-1.22995
-1.25417
-1.27834
-1.30244
-1.32649
-1.35046
-1.37437
-1.39819
-1.42193
-1.44559
-1.46915
-1.49263
-1.51599
-1.53926
-1.56242
-1.58547
-1.60842
-1.63126
-1.65401
-1.67668
-1.69929
-1.72197
-1.74495
-1.76858
-1.79303
-1.8177
-1.84116
-1.86209
-1.88085
-1.89945
-1.9191
2.45838
2.44849
2.43876
2.42897
2.41811
2.4054
2.39123
2.37643
2.36166
2.34706
2.33252
2.31785
2.30297
2.28785
2.27247
2.25682
2.24093
2.22477
2.20837
2.19173
2.17485
2.15776
2.14044
2.1229
2.10517
2.08723
2.0691
2.05079
2.03229
2.01363
1.99479
1.97579
1.95663
1.93733
1.91787
1.89827
1.87854
1.85867
1.83867
1.81855
1.7983
1.77795
1.75747
1.73688
1.7162
1.6954
1.6745
1.65351
1.63242
1.61124
1.58997
1.56861
1.54717
1.52565
1.50404
1.48236
1.46061
1.43878
1.41688
1.39491
1.37287
1.35076
1.3286
1.30636
1.28407
1.26171
1.2393
1.21683
1.1943
1.17172
1.14908
1.1264
1.10365
1.08086
1.05802
1.03514
1.0122
0.989217
0.96619
0.943116
0.92
0.896837
0.873635
0.850387
0.827102
0.803773
0.780405
0.756997
0.73355
0.710066
0.686544
0.662983
0.639386
0.615754
0.592085
0.56838
0.544643
0.520867
0.497062
0.473219
0.449345
0.425437
0.4015
0.377526
0.353525
0.32949
0.305424
0.28133
0.257204
0.233048
0.208864
0.184651
0.16041
0.136139
0.111842
0.0875164
0.0631671
0.0387868
0.0143845
-0.0100459
-0.0344984
-0.0589779
-0.083479
-0.108007
-0.132557
-0.157126
-0.181719
-0.206331
-0.230968
-0.255622
-0.280293
-0.304987
-0.329698
-0.354421
-0.379163
-0.403921
-0.428689
-0.453476
-0.478271
-0.50308
-0.527896
-0.552722
-0.57756
-0.602397
-0.627242
-0.652093
-0.676949
-0.701803
-0.726653
-0.751504
-0.776347
-0.801192
-0.826022
-0.850849
-0.875656
-0.90046
-0.925236
-0.949998
-0.974743
-0.999458
-1.02415
-1.04882
-1.07345
-1.09805
-1.12261
-1.14713
-1.1716
-1.19603
-1.2204
-1.24472
-1.26898
-1.29318
-1.3173
-1.34136
-1.36534
-1.38923
-1.41304
-1.43677
-1.46039
-1.48392
-1.50734
-1.53066
-1.55386
-1.57697
-1.59994
-1.62282
-1.64559
-1.66827
-1.69088
-1.71351
-1.73632
-1.75959
-1.78355
-1.80801
-1.83194
-1.85403
-1.8737
-1.89218
-1.91116
-1.9309
2.4639
2.45437
2.44471
2.43508
2.42488
2.41323
2.39991
2.38553
2.37085
2.35624
2.34172
2.32716
2.31244
2.29749
2.28228
2.26681
2.25108
2.23509
2.21885
2.20235
2.18562
2.16866
2.15146
2.13405
2.11642
2.09858
2.08054
2.06231
2.04388
2.02528
2.0065
1.98755
1.96843
1.94915
1.92972
1.91013
1.8904
1.87053
1.85052
1.83038
1.81012
1.78971
1.7692
1.74857
1.72782
1.70696
1.68599
1.66492
1.64375
1.62247
1.6011
1.57964
1.55809
1.53644
1.51472
1.4929
1.47101
1.44904
1.42699
1.40486
1.38266
1.36039
1.33805
1.31564
1.29316
1.27062
1.24801
1.22534
1.20261
1.17982
1.15697
1.13407
1.11111
1.0881
1.06503
1.04191
1.01874
0.995514
0.972242
0.948921
0.925553
0.902138
0.878676
0.855173
0.831622
0.808028
0.784394
0.760712
0.736996
0.713234
0.689434
0.665595
0.641717
0.6178
0.593848
0.569857
0.545829
0.521768
0.49767
0.473537
0.449371
0.425171
0.400937
0.376673
0.352374
0.328045
0.303686
0.279294
0.254875
0.230425
0.205945
0.181436
0.156905
0.132338
0.107751
0.0831347
0.0584927
0.0338285
0.00913621
-0.0155789
-0.0403172
-0.065078
-0.0898611
-0.114665
-0.13949
-0.164337
-0.189199
-0.214081
-0.238983
-0.263898
-0.288833
-0.313784
-0.338745
-0.363723
-0.38871
-0.413712
-0.438725
-0.463744
-0.48877
-0.513809
-0.538847
-0.563893
-0.588942
-0.613991
-0.63904
-0.664096
-0.689138
-0.71418
-0.739216
-0.764245
-0.789263
-0.814273
-0.839264
-0.864241
-0.8892
-0.914141
-0.939057
-0.963945
-0.988808
-1.01365
-1.03844
-1.06321
-1.08793
-1.11261
-1.13725
-1.16185
-1.18638
-1.21086
-1.23528
-1.25963
-1.28392
-1.30814
-1.33228
-1.35634
-1.38031
-1.4042
-1.42799
-1.45168
-1.47527
-1.49875
-1.52212
-1.54538
-1.56852
-1.59154
-1.61445
-1.63726
-1.65995
-1.68258
-1.70517
-1.72786
-1.75087
-1.77442
-1.79852
-1.8226
-1.84548
-1.8662
-1.88511
-1.90366
-1.92286
-1.94236
2.46913
2.46012
2.45063
2.44105
2.43128
2.42049
2.40812
2.39439
2.37998
2.36542
2.35093
2.33645
2.32186
2.30707
2.29204
2.27675
2.26119
2.24537
2.22929
2.21296
2.19638
2.17956
2.16249
2.1452
2.12769
2.10996
2.09202
2.07387
2.05553
2.037
2.01828
1.99939
1.98032
1.96107
1.94167
1.9221
1.90238
1.88252
1.86251
1.84235
1.82206
1.80164
1.78108
1.76041
1.73961
1.71868
1.69765
1.6765
1.65525
1.63389
1.61242
1.59086
1.56919
1.54744
1.52559
1.50364
1.48161
1.45949
1.4373
1.41502
1.39265
1.37022
1.3477
1.32511
1.30245
1.27972
1.25692
1.23405
1.21112
1.18812
1.16506
1.14193
1.11875
1.09551
1.07221
1.04885
1.02544
1.00197
0.978452
0.95488
0.931256
0.90758
0.883859
0.860086
0.836271
0.812403
0.788494
0.764539
0.740539
0.716498
0.692415
0.668288
0.644124
0.619914
0.595673
0.571386
0.547066
0.522706
0.498311
0.47388
0.449414
0.424913
0.400379
0.375811
0.351213
0.326578
0.301919
0.277223
0.252502
0.227749
0.202968
0.17816
0.153323
0.128461
0.103574
0.0786575
0.0537221
0.0287588
0.00377626
-0.0212339
-0.046263
-0.0713116
-0.0963813
-0.121469
-0.146578
-0.1717
-0.196844
-0.222
-0.24717
-0.272356
-0.297554
-0.322767
-0.347987
-0.373216
-0.398457
-0.423705
-0.448961
-0.474219
-0.499482
-0.524744
-0.550013
-0.575278
-0.600539
-0.625802
-0.651057
-0.67631
-0.701549
-0.726778
-0.752001
-0.777206
-0.802394
-0.827565
-0.852717
-0.877845
-0.90295
-0.928032
-0.953081
-0.978094
-1.00308
-1.02802
-1.05292
-1.07778
-1.10259
-1.12735
-1.15206
-1.17672
-1.20131
-1.22584
-1.2503
-1.27468
-1.299
-1.32323
-1.34737
-1.37143
-1.39539
-1.41925
-1.44301
-1.46667
-1.49022
-1.51364
-1.53696
-1.56014
-1.58322
-1.60617
-1.629
-1.65172
-1.67436
-1.69694
-1.71957
-1.74238
-1.7656
-1.78933
-1.81329
-1.83663
-1.85829
-1.87794
-1.8965
-1.9153
-1.93457
-1.95361
2.47409
2.46561
2.45643
2.44694
2.43741
2.42726
2.41581
2.40288
2.38894
2.37457
2.36014
2.34572
2.33124
2.3166
2.30174
2.28663
2.27126
2.25561
2.23971
2.22354
2.20712
2.19044
2.17352
2.15637
2.13898
2.12136
2.10353
2.08549
2.06724
2.04878
2.03014
2.0113
1.99229
1.97309
1.95372
1.93418
1.91449
1.89463
1.87462
1.85446
1.83416
1.81371
1.79312
1.77241
1.75156
1.73058
1.70949
1.68827
1.66694
1.64549
1.62393
1.60226
1.5805
1.55862
1.53665
1.51458
1.49241
1.47016
1.44781
1.42538
1.40285
1.38025
1.35756
1.33479
1.31195
1.28903
1.26603
1.24296
1.21982
1.19662
1.17333
1.14999
1.12658
1.10311
1.07957
1.05597
1.03231
1.0086
0.984824
0.960994
0.937112
0.913172
0.889184
0.865138
0.841047
0.816905
0.792713
0.768477
0.744193
0.719859
0.695489
0.671065
0.646607
0.622102
0.597558
0.572971
0.54835
0.523685
0.498986
0.474247
0.449475
0.424665
0.399824
0.374944
0.350037
0.325093
0.300121
0.275115
0.250086
0.225018
0.199933
0.174812
0.149668
0.1245
0.0993042
0.0740861
0.0488458
0.0235782
-0.00170452
-0.0270128
-0.0523367
-0.0776824
-0.103046
-0.128423
-0.15382
-0.179229
-0.204653
-0.230089
-0.255537
-0.280995
-0.306467
-0.33194
-0.357422
-0.382913
-0.408409
-0.433906
-0.459403
-0.484904
-0.510405
-0.5359
-0.561394
-0.586885
-0.612362
-0.637834
-0.663296
-0.688748
-0.714182
-0.739604
-0.765002
-0.790387
-0.815743
-0.841082
-0.866386
-0.891668
-0.916914
-0.94213
-0.967309
-0.992446
-1.01754
-1.04259
-1.06759
-1.09254
-1.11744
-1.14227
-1.16705
-1.19176
-1.2164
-1.24097
-1.26546
-1.28987
-1.3142
-1.33844
-1.36258
-1.38663
-1.41057
-1.4344
-1.45813
-1.48174
-1.50523
-1.5286
-1.55184
-1.57496
-1.59795
-1.62082
-1.64358
-1.66624
-1.68881
-1.71139
-1.73408
-1.75705
-1.78044
-1.80416
-1.82765
-1.85001
-1.87052
-1.88947
-1.90797
-1.92696
-1.94609
-1.96465
2.47877
2.47082
2.46208
2.45279
2.44339
2.43367
2.42299
2.41093
2.39763
2.38361
2.36932
2.35498
2.34059
2.32609
2.3114
2.29647
2.28127
2.26582
2.25009
2.23409
2.21784
2.20132
2.18455
2.16754
2.15028
2.13279
2.11508
2.09714
2.07898
2.06063
2.04206
2.02329
2.00434
1.98519
1.96587
1.94637
1.9267
1.90686
1.88686
1.8667
1.84639
1.82593
1.80532
1.78457
1.76368
1.74265
1.7215
1.70022
1.67881
1.65728
1.63563
1.61387
1.592
1.57001
1.54792
1.52573
1.50343
1.48103
1.45854
1.43595
1.41327
1.3905
1.36764
1.34469
1.32166
1.29855
1.27535
1.25208
1.22873
1.20531
1.18181
1.15824
1.1346
1.11089
1.08711
1.06327
1.03937
1.0154
0.991364
0.967276
0.943126
0.918916
0.894654
0.870332
0.845961
0.821535
0.797056
0.772531
0.74795
0.723327
0.698654
0.673933
0.649169
0.624361
0.599509
0.574617
0.549682
0.524708
0.499694
0.474641
0.449554
0.424427
0.399267
0.374073
0.348845
0.323586
0.298293
0.272971
0.247621
0.222239
0.196831
0.171398
0.145935
0.120453
0.0949433
0.0694112
0.0438605
0.018284
-0.0073067
-0.0329221
-0.0585513
-0.0841939
-0.109859
-0.135533
-0.161222
-0.186922
-0.212634
-0.238356
-0.264086
-0.289824
-0.315566
-0.341313
-0.367063
-0.392815
-0.418567
-0.444319
-0.470067
-0.495809
-0.521549
-0.547281
-0.573001
-0.598716
-0.624414
-0.650097
-0.675764
-0.701415
-0.727044
-0.752653
-0.778235
-0.803793
-0.829319
-0.854821
-0.880279
-0.905706
-0.931092
-0.956442
-0.981744
-1.007
-1.0322
-1.05735
-1.08245
-1.10748
-1.13246
-1.15736
-1.1822
-1.20696
-1.23164
-1.25625
-1.28076
-1.3052
-1.32953
-1.35376
-1.3779
-1.40193
-1.42584
-1.44964
-1.47332
-1.49688
-1.52031
-1.54361
-1.56678
-1.58982
-1.61273
-1.63552
-1.6582
-1.68079
-1.70335
-1.72594
-1.74873
-1.77183
-1.79526
-1.81873
-1.84149
-1.86278
-1.88238
-1.90096
-1.91959
-1.93861
-1.95739
-1.97545
2.48318
2.47578
2.46753
2.45852
2.44926
2.43981
2.42975
2.4185
2.40596
2.39243
2.37841
2.3642
2.34992
2.33554
2.321
2.30624
2.29124
2.27597
2.26043
2.24462
2.22853
2.21218
2.19557
2.17871
2.1616
2.14424
2.12665
2.10883
2.09078
2.07252
2.05404
2.03536
2.01647
1.99739
1.97812
1.95866
1.93903
1.91921
1.89923
1.87908
1.85876
1.83829
1.81767
1.79689
1.77596
1.75489
1.73369
1.71235
1.69087
1.66926
1.64753
1.62568
1.6037
1.58161
1.5594
1.53708
1.51466
1.49212
1.46948
1.44674
1.4239
1.40096
1.37793
1.3548
1.33158
1.30828
1.28489
1.26141
1.23785
1.21421
1.19049
1.16669
1.14282
1.11887
1.09485
1.07076
1.0466
1.02238
0.998081
0.973725
0.949302
0.92482
0.900276
0.875677
0.851013
0.8263
0.801527
0.776704
0.751825
0.726897
0.701919
0.676891
0.651818
0.626695
0.601531
0.576322
0.551067
0.525771
0.50044
0.475062
0.449652
0.424199
0.398717
0.373195
0.347639
0.322052
0.296436
0.270785
0.245108
0.2194
0.193667
0.167908
0.142122
0.116316
0.0904836
0.0646351
0.0387584
0.0128718
-0.0130378
-0.0389618
-0.0649048
-0.0908568
-0.116828
-0.142802
-0.168795
-0.194789
-0.220796
-0.246807
-0.272824
-0.298846
-0.324865
-0.350886
-0.376909
-0.402927
-0.428942
-0.454946
-0.48095
-0.50694
-0.532921
-0.558889
-0.584843
-0.610779
-0.636693
-0.662594
-0.688466
-0.714318
-0.740143
-0.765934
-0.791704
-0.817433
-0.843124
-0.868785
-0.894397
-0.919967
-0.94549
-0.970967
-0.996393
-1.02176
-1.04707
-1.07231
-1.0975
-1.12262
-1.14766
-1.17263
-1.19752
-1.22232
-1.24704
-1.27167
-1.29622
-1.32065
-1.34499
-1.36921
-1.39333
-1.41733
-1.44121
-1.46497
-1.48859
-1.51209
-1.53545
-1.55868
-1.58178
-1.60473
-1.62755
-1.65026
-1.67286
-1.69541
-1.71795
-1.7406
-1.76348
-1.78664
-1.80994
-1.8329
-1.85477
-1.87507
-1.894
-1.91248
-1.93124
-1.95015
-1.96851
-1.98605
2.4873
2.48042
2.47269
2.46411
2.45504
2.44579
2.43615
2.42562
2.41386
2.40097
2.38734
2.37334
2.3592
2.34495
2.33055
2.31597
2.30115
2.28607
2.27072
2.25509
2.23919
2.22302
2.20658
2.18987
2.17291
2.1557
2.13824
2.12055
2.10262
2.08446
2.06608
2.04749
2.02869
2.00967
1.99046
1.97106
1.95147
1.93169
1.91173
1.89159
1.87128
1.85081
1.83017
1.80937
1.78842
1.76731
1.74606
1.72466
1.70312
1.68144
1.65963
1.63769
1.61562
1.59342
1.5711
1.54866
1.5261
1.50343
1.48065
1.45775
1.43475
1.41165
1.38844
1.36514
1.34173
1.31823
1.29464
1.27096
1.24719
1.22333
1.19938
1.17536
1.15125
1.12706
1.10279
1.07845
1.05403
1.02954
1.00498
0.980349
0.955651
0.930891
0.906058
0.881169
0.856215
0.831202
0.806132
0.781001
0.75582
0.730577
0.705289
0.679945
0.654553
0.62911
0.603622
0.578086
0.552507
0.526884
0.50122
0.475512
0.44977
0.423984
0.398164
0.37231
0.34642
0.320496
0.294542
0.268557
0.242544
0.216501
0.190437
0.164339
0.138226
0.112085
0.085925
0.0597452
0.0335454
0.00733274
-0.0189036
-0.0451444
-0.0714038
-0.0976752
-0.123953
-0.150241
-0.176539
-0.202839
-0.229143
-0.255451
-0.281762
-0.308067
-0.334373
-0.360674
-0.386969
-0.413258
-0.439536
-0.465807
-0.492061
-0.5183
-0.544524
-0.570733
-0.596917
-0.623081
-0.649216
-0.675327
-0.701411
-0.727461
-0.75348
-0.779461
-0.805405
-0.831308
-0.857163
-0.882979
-0.908739
-0.934454
-0.960108
-0.985711
-1.01125
-1.03673
-1.06214
-1.08748
-1.11275
-1.13794
-1.16304
-1.18807
-1.213
-1.23785
-1.2626
-1.28725
-1.3118
-1.33624
-1.36056
-1.38477
-1.40886
-1.43283
-1.45667
-1.48037
-1.50394
-1.52737
-1.55066
-1.5738
-1.59681
-1.61968
-1.64241
-1.66504
-1.68758
-1.71008
-1.73264
-1.75534
-1.77826
-1.80137
-1.82434
-1.84659
-1.86752
-1.88701
-1.90558
-1.92409
-1.94286
-1.96147
-1.97935
-1.99643
2.49111
2.48474
2.47758
2.46947
2.46071
2.45164
2.44231
2.43234
2.42133
2.40914
2.39603
2.38236
2.3684
2.3543
2.34006
2.32564
2.31101
2.29612
2.28096
2.26552
2.24981
2.23382
2.21756
2.20102
2.18423
2.16717
2.14986
2.13229
2.11449
2.09645
2.07818
2.05968
2.04097
2.02204
2.0029
1.98356
1.96402
1.94428
1.92435
1.90424
1.88394
1.86347
1.84283
1.82202
1.80104
1.7799
1.75861
1.73716
1.71556
1.69382
1.67193
1.6499
1.62774
1.60544
1.58301
1.56045
1.53777
1.51496
1.49203
1.46899
1.44583
1.42257
1.39919
1.3757
1.35211
1.32842
1.30463
1.28073
1.25675
1.23267
1.2085
1.18423
1.15989
1.13545
1.11093
1.08633
1.06166
1.0369
1.01206
0.987158
0.962177
0.937128
0.912007
0.886818
0.861567
0.836249
0.81087
0.785432
0.759932
0.734376
0.708764
0.683096
0.657378
0.631605
0.605788
0.579916
0.554004
0.528042
0.502039
0.475991
0.449907
0.423779
0.397617
0.371415
0.345184
0.318913
0.292617
0.266285
0.239929
0.213542
0.187131
0.160697
0.134238
0.10776
0.0812618
0.0547434
0.0282116
0.00166232
-0.024901
-0.0514735
-0.0780581
-0.10465
-0.131249
-0.157855
-0.184462
-0.211071
-0.237683
-0.264294
-0.290898
-0.3175
-0.344092
-0.37068
-0.397253
-0.423817
-0.450364
-0.476897
-0.503408
-0.529903
-0.556372
-0.582815
-0.609239
-0.635623
-0.661987
-0.68831
-0.714599
-0.740851
-0.767058
-0.793226
-0.819348
-0.845418
-0.871443