/*--------------------------------*- C++ -*----------------------------------*\
  =========                 |
  \\      /  F ield         | OpenFOAM: The Open Source CFD Toolbox
   \\    /   O peration     | Website:  https://openfoam.org
    \\  /    A nd           | Version:  8
     \\/     M anipulation  |
\*---------------------------------------------------------------------------*/
FoamFile
{
    version     2.0;
    format      ascii;
    class       volScalarField;
    location    "3.6";
    object      p;
}
// * * * * * * * * * * * * * * * * * * * * * * * * * * * * * * * * * * * * * //

dimensions      [0 2 -2 0 0 0 0];

internalField   nonuniform List<scalar> 
248760
(
0.0437887
0.0437494
0.0435677
0.0433064
0.0429566
0.0425211
0.0420057
0.0414138
0.0407491
0.0400151
0.039215
0.038352
0.0374292
0.0364495
0.0354156
0.0343304
0.0331964
0.0320163
0.0307924
0.0295271
0.028223
0.0268821
0.0255067
0.0240991
0.0226612
0.0211952
0.0197031
0.0181868
0.0166482
0.0150892
0.0135115
0.011917
0.0103073
0.00868417
0.00704909
0.00540366
0.00374939
0.00208773
0.000420107
-0.00125213
-0.00292768
-0.00460526
-0.00628366
-0.00796172
-0.00963832
-0.0113124
-0.0129828
-0.0146488
-0.0163093
-0.0179633
-0.0196102
-0.0212489
-0.0228789
-0.0244993
-0.0261095
-0.0277088
-0.0292966
-0.0308722
-0.0324353
-0.0339852
-0.0355216
-0.0370438
-0.0385516
-0.0400445
-0.0415222
-0.0429843
-0.0444306
-0.0458607
-0.0472744
-0.0486715
-0.0500517
-0.0514149
-0.0527609
-0.0540894
-0.0554005
-0.056694
-0.0579697
-0.0592276
-0.0604676
-0.0616896
-0.0628937
-0.0640796
-0.0652475
-0.0663973
-0.0675291
-0.0686427
-0.0697382
-0.0708156
-0.0718751
-0.0729165
-0.07394
-0.0749455
-0.0759331
-0.076903
-0.0778551
-0.0787894
-0.0797062
-0.0806053
-0.0814871
-0.0823513
-0.0831983
-0.0840279
-0.0848405
-0.0856359
-0.0864143
-0.0871757
-0.0879204
-0.0886481
-0.0893593
-0.0900538
-0.0907319
-0.0913934
-0.0920386
-0.0926674
-0.0932802
-0.0938765
-0.0944557
-0.0950201
-0.0955864
-0.0961469
0.0438008
0.0437608
0.0435804
0.0433191
0.0429698
0.0425347
0.0420197
0.0414283
0.040764
0.0400304
0.0392307
0.0383682
0.0374459
0.0364666
0.0354333
0.0343486
0.0332151
0.0320354
0.030812
0.0295472
0.0282435
0.0269031
0.0255283
0.0241211
0.0226837
0.0212181
0.0197264
0.0182106
0.0166724
0.0151138
0.0135365
0.0119424
0.0103331
0.00871028
0.00707553
0.00543042
0.00377646
0.00211509
0.000447735
-0.00122425
-0.00289955
-0.00457691
-0.00625511
-0.00793298
-0.00960941
-0.0112833
-0.0129536
-0.0146194
-0.0162798
-0.0179338
-0.0195805
-0.0212193
-0.0228492
-0.0244696
-0.0260797
-0.027679
-0.0292667
-0.0308424
-0.0324055
-0.0339555
-0.0354918
-0.0370142
-0.038522
-0.040015
-0.0414927
-0.0429549
-0.0444013
-0.0458315
-0.0472453
-0.0486425
-0.0500229
-0.0513862
-0.0527323
-0.054061
-0.0553723
-0.0566659
-0.0579418
-0.0591998
-0.06044
-0.0616622
-0.0628664
-0.0640525
-0.0652206
-0.0663706
-0.0675025
-0.0686163
-0.0697121
-0.0707897
-0.0718494
-0.072891
-0.0739147
-0.0749204
-0.0759083
-0.0768784
-0.0778307
-0.0787653
-0.0796823
-0.0805818
-0.0814637
-0.0823283
-0.0831755
-0.0840055
-0.0848183
-0.085614
-0.0863927
-0.0871545
-0.0878994
-0.0886276
-0.0893391
-0.0900339
-0.0907123
-0.0913742
-0.0920198
-0.092649
-0.093262
-0.0938587
-0.0944382
-0.0950033
-0.0955704
-0.0961296
0.0438214
0.0437817
0.0436022
0.0433413
0.0429927
0.0425583
0.042044
0.0414533
0.0407897
0.0400569
0.0392581
0.0383963
0.0374748
0.0364964
0.0354639
0.03438
0.0332473
0.0320685
0.0308459
0.029582
0.0282791
0.0269395
0.0255655
0.0241591
0.0227225
0.0212577
0.0197667
0.0182516
0.0167141
0.0151562
0.0135796
0.0119861
0.0103774
0.0087552
0.00712101
0.00547642
0.00382295
0.00216204
0.000495122
-0.00117646
-0.0028514
-0.00452842
-0.00620631
-0.0078839
-0.00956008
-0.0112338
-0.0129039
-0.0145695
-0.0162298
-0.0178837
-0.0195304
-0.021169
-0.022799
-0.0244193
-0.0260295
-0.0276288
-0.0292167
-0.0307925
-0.0323558
-0.0339058
-0.0354424
-0.0369648
-0.0384729
-0.0399661
-0.0414441
-0.0429065
-0.0443532
-0.0457837
-0.0471979
-0.0485953
-0.049976
-0.0513396
-0.0526861
-0.0540152
-0.0553268
-0.0566208
-0.0578971
-0.0591555
-0.0603961
-0.0616187
-0.0628233
-0.0640098
-0.0651784
-0.0663288
-0.0674612
-0.0685754
-0.0696716
-0.0707497
-0.0718099
-0.0728519
-0.0738761
-0.0748823
-0.0758707
-0.0768412
-0.0777941
-0.0787292
-0.0796467
-0.0805466
-0.0814292
-0.0822942
-0.083142
-0.0839724
-0.0847858
-0.085582
-0.0863613
-0.0871236
-0.0878692
-0.0885978
-0.0893099
-0.0900053
-0.0906843
-0.0913467
-0.0919928
-0.0926225
-0.0932361
-0.0938333
-0.0944134
-0.0949789
-0.0955464
-0.0961062
0.0438518
0.0438129
0.0436343
0.0433743
0.0430267
0.0425933
0.04208
0.0414903
0.0408279
0.0400962
0.0392985
0.0384379
0.0375176
0.0365403
0.035509
0.0344264
0.033295
0.0321174
0.030896
0.0296333
0.0283317
0.0269933
0.0256204
0.0242152
0.0227798
0.0213161
0.0198263
0.0183122
0.0167758
0.0152189
0.0136433
0.0120508
0.010443
0.00882163
0.00718826
0.00554446
0.00389173
0.00223152
0.000565248
-0.00110573
-0.0027801
-0.00445661
-0.00613403
-0.0078112
-0.009487
-0.0111603
-0.0128302
-0.0144956
-0.0161556
-0.0178093
-0.0194559
-0.0210945
-0.0227244
-0.0243447
-0.0259549
-0.0275543
-0.0291423
-0.0307182
-0.0322816
-0.0338319
-0.0353686
-0.0368914
-0.0383997
-0.0398932
-0.0413715
-0.0428343
-0.0442813
-0.0457122
-0.0471267
-0.0485246
-0.0499057
-0.0512698
-0.0526167
-0.0539463
-0.0552584
-0.0565529
-0.0578296
-0.0590886
-0.0603297
-0.0615529
-0.062758
-0.0639452
-0.0651143
-0.0662653
-0.0673982
-0.0685131
-0.0696099
-0.0706886
-0.0717494
-0.0727921
-0.0738169
-0.0748238
-0.0758128
-0.0767841
-0.0777375
-0.0786734
-0.0795916
-0.0804923
-0.0813755
-0.0822413
-0.0830898
-0.0839211
-0.0847352
-0.0855322
-0.0863123
-0.0870755
-0.0878217
-0.0885514
-0.0892642
-0.0899606
-0.0906404
-0.0913038
-0.0919508
-0.0925816
-0.0931961
-0.0937943
-0.0943754
-0.094942
-0.0955105
-0.0960715
0.0438921
0.0438542
0.0436768
0.0434179
0.0430716
0.0426395
0.0421275
0.0415393
0.0408783
0.040148
0.0393518
0.0384928
0.037574
0.0365984
0.0355687
0.0344876
0.0333578
0.0321818
0.0309621
0.0297011
0.028401
0.0270642
0.0256929
0.0242893
0.0228553
0.0213932
0.0199048
0.0183922
0.0168571
0.0153016
0.0137273
0.012136
0.0105294
0.00890912
0.00727683
0.00563405
0.00398229
0.00232299
0.000657565
-0.00101262
-0.00268627
-0.00436211
-0.00603892
-0.00771555
-0.00939086
-0.0110638
-0.0127333
-0.0143983
-0.0160581
-0.0177116
-0.0193581
-0.0209965
-0.0226264
-0.0242467
-0.025857
-0.0274565
-0.0290446
-0.0306207
-0.0321843
-0.0337348
-0.0352719
-0.036795
-0.0383037
-0.0397975
-0.0412763
-0.0427396
-0.0441871
-0.0456185
-0.0470336
-0.0484321
-0.0498138
-0.0511785
-0.052526
-0.0538563
-0.055169
-0.0564642
-0.0577417
-0.0590014
-0.0602433
-0.0614672
-0.0626731
-0.0638611
-0.0650309
-0.0661828
-0.0673165
-0.0684323
-0.0695299
-0.0706095
-0.0716711
-0.0727147
-0.0737404
-0.0747482
-0.0757381
-0.0767103
-0.0776647
-0.0786015
-0.0795207
-0.0804224
-0.0813065
-0.0821734
-0.0830229
-0.0838552
-0.0846703
-0.0854684
-0.0862495
-0.0870138
-0.0877612
-0.0884919
-0.0892059
-0.0899034
-0.0905843
-0.0912489
-0.0918971
-0.0925291
-0.0931448
-0.0937442
-0.0943265
-0.0948944
-0.0954642
-0.0960267
0.0439419
0.0439053
0.0437293
0.0434719
0.0431271
0.0426966
0.0421863
0.0415997
0.0409405
0.040212
0.0394177
0.0385606
0.0376437
0.03667
0.0356423
0.0345632
0.0334354
0.0322614
0.0310437
0.0297847
0.0284866
0.0271518
0.0257824
0.0243807
0.0229486
0.0214883
0.0200017
0.0184908
0.0169575
0.0154036
0.0138309
0.0122411
0.010636
0.00901712
0.00738616
0.00574465
0.00409407
0.00243589
0.000771511
-0.000897708
-0.00257046
-0.00424547
-0.00592154
-0.00759749
-0.0092722
-0.0109446
-0.0126136
-0.0142783
-0.0159377
-0.017591
-0.0192372
-0.0208757
-0.0225054
-0.0241258
-0.0257361
-0.0273358
-0.028924
-0.0305004
-0.0320642
-0.0336152
-0.0351526
-0.0366761
-0.0381852
-0.0396796
-0.0411589
-0.0426228
-0.0440709
-0.045503
-0.0469187
-0.0483179
-0.0497003
-0.0510659
-0.0524142
-0.0537453
-0.0550588
-0.0563549
-0.0576332
-0.0588939
-0.0601366
-0.0613615
-0.0625683
-0.0637573
-0.0649281
-0.0660809
-0.0672157
-0.0683324
-0.0694311
-0.0705118
-0.0715744
-0.0726191
-0.0736458
-0.0746547
-0.0756457
-0.0766191
-0.0775746
-0.0785125
-0.0794328
-0.0803357
-0.081221
-0.0820891
-0.0829398
-0.0837733
-0.0845897
-0.0853891
-0.0861715
-0.086937
-0.0876857
-0.0884178
-0.0891332
-0.0898321
-0.0905144
-0.0911805
-0.0918301
-0.0924636
-0.0930809
-0.0936819
-0.0942658
-0.0948353
-0.0954068
-0.0959712
0.0440009
0.043966
0.0437915
0.043536
0.0431929
0.0427643
0.042256
0.0416714
0.0410143
0.040288
0.0394959
0.038641
0.0377264
0.036755
0.0357296
0.0346529
0.0335275
0.0323558
0.0311405
0.0298838
0.0285881
0.0272556
0.0258885
0.0244891
0.0230592
0.0216011
0.0201167
0.0186078
0.0170765
0.0155246
0.0139537
0.0123658
0.0107624
0.0091452
0.00751582
0.0058758
0.00422664
0.00256979
0.000906648
-0.000761419
-0.0024331
-0.00410715
-0.00578233
-0.00745748
-0.00913148
-0.0108032
-0.0124717
-0.014136
-0.015795
-0.017448
-0.019094
-0.0207323
-0.022362
-0.0239824
-0.0255928
-0.0271926
-0.0287811
-0.0303577
-0.0319219
-0.0334732
-0.0350111
-0.0365351
-0.0380448
-0.0395398
-0.0410198
-0.0424843
-0.0439332
-0.045366
-0.0467826
-0.0481827
-0.049566
-0.0509324
-0.0522817
-0.0536137
-0.0549283
-0.0562254
-0.0575048
-0.0587664
-0.0600103
-0.0612362
-0.0624443
-0.0636343
-0.0648063
-0.0659603
-0.0670963
-0.0682142
-0.0693141
-0.070396
-0.0714599
-0.0725059
-0.0735339
-0.0745441
-0.0755365
-0.076511
-0.0774679
-0.0784072
-0.0793289
-0.0802331
-0.0811198
-0.0819892
-0.0828414
-0.0836763
-0.0844942
-0.085295
-0.0860789
-0.0868459
-0.0875962
-0.0883297
-0.0890467
-0.0897471
-0.0904311
-0.0910987
-0.09175
-0.0923851
-0.0930041
-0.0936067
-0.0941923
-0.0947635
-0.0953368
-0.0959027
0.0440691
0.044036
0.0438634
0.0436098
0.0432689
0.0428424
0.0423363
0.0417542
0.0410994
0.0403756
0.039586
0.0387337
0.0378217
0.036853
0.0358303
0.0347563
0.0336336
0.0324647
0.0312521
0.0299982
0.0287051
0.0273753
0.0260109
0.0246141
0.0231868
0.0217312
0.0202492
0.0187428
0.0172138
0.0156641
0.0140955
0.0125096
0.0109082
0.00929295
0.0076654
0.00602711
0.00437958
0.00272426
0.00106255
-0.000604183
-0.00227464
-0.00394756
-0.00562171
-0.00729595
-0.00896913
-0.0106402
-0.012308
-0.0139718
-0.0156304
-0.017283
-0.0189288
-0.0205669
-0.0221965
-0.023817
-0.0254275
-0.0270274
-0.0286162
-0.0301931
-0.0317577
-0.0333095
-0.0348479
-0.0363725
-0.0378829
-0.0393786
-0.0408593
-0.0423247
-0.0437744
-0.0452081
-0.0466256
-0.0480267
-0.049411
-0.0507785
-0.0521289
-0.053462
-0.0547778
-0.056076
-0.0573566
-0.0586195
-0.0598647
-0.0610919
-0.0623012
-0.0634926
-0.0646659
-0.0658213
-0.0669586
-0.0680779
-0.0691792
-0.0702625
-0.0713279
-0.0723753
-0.0734048
-0.0744164
-0.0754103
-0.0763863
-0.0773448
-0.0782855
-0.0792088
-0.0801145
-0.0810028
-0.0818738
-0.0827276
-0.0835641
-0.0843836
-0.0851861
-0.0859717
-0.0867404
-0.0874923
-0.0882276
-0.0889463
-0.0896485
-0.0903343
-0.0910037
-0.0916568
-0.0922937
-0.0929146
-0.0935191
-0.0941067
-0.0946797
-0.095255
-0.095823
0.0441461
0.0441152
0.0439446
0.0436934
0.0433547
0.0429307
0.0424272
0.0418477
0.0411957
0.0404746
0.0396879
0.0388385
0.0379295
0.0369638
0.0359441
0.0348732
0.0337536
0.0325878
0.0313783
0.0301274
0.0288374
0.0275107
0.0261493
0.0247554
0.023331
0.0218783
0.0203991
0.0188954
0.017369
0.0158219
0.0142557
0.0126722
0.0110731
0.00945998
0.0078345
0.00619817
0.00455248
0.0028989
0.00123882
-0.000426412
-0.00209548
-0.00376712
-0.00544012
-0.0071133
-0.00878555
-0.0104558
-0.012123
-0.0137861
-0.0154442
-0.0170964
-0.018742
-0.0203799
-0.0220095
-0.0236299
-0.0252405
-0.0268407
-0.0284297
-0.030007
-0.0315721
-0.0331244
-0.0346634
-0.0361887
-0.0376998
-0.0391963
-0.0406779
-0.0421442
-0.0435949
-0.0450296
-0.0464482
-0.0478504
-0.0492359
-0.0506045
-0.0519562
-0.0532906
-0.0546077
-0.0559072
-0.0571893
-0.0584535
-0.0597001
-0.0609287
-0.0621396
-0.0633324
-0.0645073
-0.0656641
-0.066803
-0.0679239
-0.0690268
-0.0701116
-0.0711786
-0.0722276
-0.0732588
-0.074272
-0.0752676
-0.0762453
-0.0772054
-0.0781478
-0.0790728
-0.0799802
-0.0808703
-0.081743
-0.0825985
-0.0834368
-0.0842581
-0.0850623
-0.0858496
-0.0866201
-0.0873738
-0.088111
-0.0888314
-0.0895355
-0.090223
-0.0908943
-0.0915492
-0.0921881
-0.0928107
-0.0934172
-0.0940065
-0.0945816
-0.0951586
-0.0957289
0.0442319
0.0442033
0.0440349
0.0437863
0.0434502
0.043029
0.0425283
0.0419517
0.0413027
0.0405848
0.0398012
0.038955
0.0380493
0.037087
0.0360707
0.0350032
0.033887
0.0327247
0.0315186
0.0302711
0.0289846
0.0276612
0.0263032
0.0249126
0.0234915
0.0220419
0.0205658
0.0190651
0.0175417
0.0159974
0.014434
0.0128531
0.0112566
0.00964589
0.00802271
0.00638857
0.00474495
0.00309331
0.00143504
-0.00022851
-0.00189602
-0.00356624
-0.00523794
-0.00690996
-0.00858117
-0.0102505
-0.0119169
-0.0135793
-0.0152369
-0.0168887
-0.0185339
-0.0201717
-0.0218011
-0.0234216
-0.0250324
-0.0266328
-0.0282221
-0.0297999
-0.0313654
-0.0329183
-0.034458
-0.035984
-0.0374959
-0.0389934
-0.0404759
-0.0419432
-0.043395
-0.0448309
-0.0462507
-0.0476541
-0.0490409
-0.0504109
-0.0517639
-0.0530998
-0.0544183
-0.0557194
-0.0570029
-0.0582687
-0.0595168
-0.0607472
-0.0619596
-0.0631541
-0.0643306
-0.0654892
-0.0666298
-0.0677524
-0.068857
-0.0699437
-0.0710124
-0.0720632
-0.0730961
-0.0741112
-0.0751085
-0.0760881
-0.0770501
-0.0779944
-0.0789212
-0.0798305
-0.0807224
-0.0815971
-0.0824545
-0.0832947
-0.0841179
-0.084924
-0.0857133
-0.0864858
-0.0872415
-0.0879806
-0.0887031
-0.0894091
-0.0900988
-0.090772
-0.0914292
-0.09207
-0.0926949
-0.0933033
-0.093895
-0.0944719
-0.0950514
-0.0956235
0.0443261
0.0443
0.0441342
0.0438884
0.0435552
0.0431369
0.0426394
0.042066
0.0414203
0.0407058
0.0399257
0.0390831
0.038181
0.0372224
0.0362098
0.035146
0.0340337
0.0328751
0.0316728
0.0304291
0.0291464
0.0278267
0.0264723
0.0250854
0.0236678
0.0222218
0.0207491
0.0192517
0.0177316
0.0161904
0.01463
0.0130521
0.0114583
0.0098503
0.00822967
0.00659794
0.0049566
0.0033071
0.00165083
-1.08621e-05
-0.00167666
-0.0033453
-0.00501557
-0.0066863
-0.00835636
-0.0100247
-0.0116902
-0.0133519
-0.0150089
-0.0166602
-0.0183051
-0.0199426
-0.021572
-0.0231925
-0.0248034
-0.026404
-0.0279938
-0.0295719
-0.0311381
-0.0326916
-0.0342321
-0.0357589
-0.0372717
-0.0387701
-0.0402538
-0.0417222
-0.0431752
-0.0446123
-0.0460334
-0.0474382
-0.0488265
-0.050198
-0.0515525
-0.0528899
-0.05421
-0.0555128
-0.056798
-0.0580655
-0.0593154
-0.0605474
-0.0617616
-0.062958
-0.0641363
-0.0652968
-0.0664392
-0.0675637
-0.0686703
-0.0697589
-0.0708295
-0.0718823
-0.0729171
-0.0739342
-0.0749335
-0.0759151
-0.076879
-0.0778253
-0.0787541
-0.0796654
-0.0805593
-0.081436
-0.0822954
-0.0831376
-0.0839628
-0.084771
-0.0855623
-0.0863367
-0.0870945
-0.0878354
-0.08856
-0.0892679
-0.0899596
-0.0906347
-0.0912939
-0.0919365
-0.0925633
-0.0931735
-0.0937671
-0.0943456
-0.0949269
-0.0955004
0.0444286
0.0444053
0.0442422
0.0439994
0.0436694
0.0432544
0.0427602
0.0421903
0.0415482
0.0408374
0.0400611
0.0392224
0.0383243
0.0373696
0.0363611
0.0353015
0.0341932
0.0330388
0.0318406
0.030601
0.0293224
0.0280068
0.0266564
0.0252734
0.0238598
0.0224175
0.0209486
0.0194549
0.0179382
0.0164005
0.0148434
0.0132686
0.0116779
0.0100729
0.008455
0.00682591
0.00518706
0.00353989
0.00188581
0.000226152
-0.00143776
-0.00310468
-0.00477339
-0.00644271
-0.00811151
-0.00977872
-0.0114433
-0.0131042
-0.0147605
-0.0164114
-0.0180558
-0.0196931
-0.0213224
-0.0229429
-0.0245539
-0.0261549
-0.0277449
-0.0293237
-0.0308904
-0.0324447
-0.0339859
-0.0355137
-0.0370275
-0.038527
-0.0400117
-0.0414814
-0.0429357
-0.0443743
-0.0457968
-0.0472031
-0.0485929
-0.049966
-0.0513222
-0.0526613
-0.0539832
-0.0552878
-0.0565747
-0.0578442
-0.0590959
-0.0603299
-0.0615461
-0.0627444
-0.0639247
-0.0650872
-0.0662317
-0.0673583
-0.0684668
-0.0695575
-0.0706302
-0.0716851
-0.072722
-0.0737413
-0.0747426
-0.0757264
-0.0766924
-0.0776409
-0.0785718
-0.0794853
-0.0803813
-0.0812601
-0.0821217
-0.0829661
-0.0837934
-0.0846038
-0.0853973
-0.0861739
-0.0869339
-0.0876771
-0.0884039
-0.0891141
-0.089808
-0.0904854
-0.0911468
-0.0917918
-0.0924209
-0.0930336
-0.0936295
-0.0942105
-0.0947941
-0.0953703
0.0445392
0.0445189
0.0443587
0.0441193
0.0437926
0.0433811
0.0428905
0.0423244
0.0416862
0.0409794
0.0402072
0.0393727
0.0384789
0.0375285
0.0365244
0.0354692
0.0343653
0.0332153
0.0320217
0.0307865
0.0295123
0.0282011
0.0268551
0.0254763
0.0240669
0.0226288
0.0211639
0.0196741
0.0181613
0.0166273
0.0150738
0.0135025
0.0119151
0.0103132
0.00869834
0.00707211
0.00543596
0.00379133
0.00213962
0.000482171
-0.00117971
-0.00284476
-0.00451176
-0.00617954
-0.00784698
-0.00951298
-0.0111765
-0.0128365
-0.0144922
-0.0161424
-0.0177865
-0.0194235
-0.0210526
-0.0226732
-0.0242844
-0.0258856
-0.0274761
-0.0290554
-0.0306228
-0.0321778
-0.0337199
-0.0352486
-0.0367635
-0.0382642
-0.0397502
-0.0412213
-0.042677
-0.044117
-0.0455411
-0.0469491
-0.0483406
-0.0497154
-0.0510734
-0.0524144
-0.0537382
-0.0550446
-0.0563336
-0.0576051
-0.0588589
-0.0600949
-0.0613132
-0.0625136
-0.0636962
-0.0648608
-0.0660075
-0.0671362
-0.068247
-0.0693399
-0.0704149
-0.0714719
-0.0725112
-0.0735326
-0.0745363
-0.0755222
-0.0764906
-0.0774413
-0.0783745
-0.0792902
-0.0801885
-0.0810695
-0.0819333
-0.0827799
-0.0836095
-0.084422
-0.0852177
-0.0859965
-0.0867586
-0.0875039
-0.0882327
-0.0889449
-0.0896409
-0.0903202
-0.0909835
-0.0916302
-0.0922612
-0.0928755
-0.0934732
-0.0940556
-0.0946411
-0.0952187
0.0446576
0.0446406
0.0444835
0.0442476
0.0439245
0.0435168
0.0430302
0.0424681
0.0418341
0.0411315
0.0403637
0.0395337
0.0386445
0.0376988
0.0366993
0.0356488
0.0345498
0.0334046
0.0322157
0.0309853
0.0297158
0.0284094
0.027068
0.0256939
0.024289
0.0228553
0.0213947
0.0199092
0.0184005
0.0168705
0.0153208
0.0137533
0.0121694
0.0105709
0.00895934
0.00733619
0.00570295
0.00406106
0.0024119
0.000756838
-0.000902839
-0.00256587
-0.00423103
-0.00589716
-0.00756312
-0.00922782
-0.0108902
-0.0125493
-0.0142041
-0.0158538
-0.0174974
-0.0191341
-0.0207631
-0.0223837
-0.0239951
-0.0255966
-0.0271876
-0.0287674
-0.0303355
-0.0318914
-0.0334344
-0.0349642
-0.0364802
-0.0379822
-0.0394695
-0.040942
-0.0423992
-0.0438409
-0.0452667
-0.0466764
-0.0480697
-0.0494465
-0.0508064
-0.0521493
-0.0534752
-0.0547837
-0.0560748
-0.0573485
-0.0586044
-0.0598427
-0.0610633
-0.062266
-0.0634508
-0.0646177
-0.0657668
-0.0668979
-0.068011
-0.0691063
-0.0701837
-0.0712431
-0.0722848
-0.0733086
-0.0743147
-0.075303
-0.0762737
-0.0772268
-0.0781624
-0.0790805
-0.0799813
-0.0808647
-0.0817309
-0.0825798
-0.0834118
-0.0842266
-0.0850247
-0.0858057
-0.0865702
-0.0873178
-0.0880491
-0.0887635
-0.0894619
-0.0901434
-0.0908092
-0.0914582
-0.0920917
-0.0927083
-0.0933085
-0.0938933
-0.0944813
-0.0950615
0.0447838
0.0447701
0.0446164
0.0443844
0.0440651
0.0436613
0.0431789
0.0426211
0.0419915
0.0412936
0.0405305
0.0397052
0.0388208
0.0378801
0.0368857
0.0358402
0.0347462
0.0336062
0.0324224
0.0311971
0.0299327
0.0286313
0.0272949
0.0259257
0.0245256
0.0230967
0.0216408
0.0201598
0.0186555
0.0171298
0.0155842
0.0140206
0.0124406
0.0108458
0.00923765
0.0076178
0.00598768
0.00434873
0.00270232
0.00104981
-0.000607503
-0.00226836
-0.00393155
-0.00559589
-0.00726026
-0.00892356
-0.0105848
-0.0122428
-0.0138968
-0.0155458
-0.0171889
-0.0188253
-0.0204542
-0.0220748
-0.0236863
-0.0252881
-0.0268796
-0.02846
-0.0300289
-0.0315856
-0.0331297
-0.0346606
-0.0361779
-0.0376812
-0.03917
-0.040644
-0.0421029
-0.0435463
-0.0449739
-0.0463854
-0.0477807
-0.0491594
-0.0505215
-0.0518665
-0.0531946
-0.0545053
-0.0557988
-0.0570746
-0.058333
-0.0595736
-0.0607966
-0.0620017
-0.063189
-0.0643584
-0.06551
-0.0666435
-0.0677592
-0.068857
-0.0699369
-0.0709989
-0.0720431
-0.0730694
-0.0740781
-0.0750689
-0.0760422
-0.0769978
-0.0779359
-0.0788565
-0.0797598
-0.0806456
-0.0815143
-0.0823657
-0.0832001
-0.0840173
-0.0848179
-0.0856012
-0.0863682
-0.087118
-0.0878517
-0.0885682
-0.089269
-0.0899526
-0.0906207
-0.0912716
-0.0919074
-0.0925258
-0.0931281
-0.0937146
-0.0943047
-0.0948866
0.0449175
0.0449074
0.0447573
0.0445292
0.0442139
0.0438144
0.0433364
0.0427832
0.0421583
0.0414652
0.0407071
0.0398869
0.0390077
0.0380722
0.0370831
0.036043
0.0349544
0.0338198
0.0326414
0.0314216
0.0301626
0.0288665
0.0275354
0.0261715
0.0247765
0.0233527
0.0219017
0.0204255
0.018926
0.0174047
0.0158636
0.0143042
0.0127283
0.0111373
0.00953295
0.00791662
0.00628983
0.00465401
0.00301054
0.00136076
-0.000294031
-0.00195257
-0.00361364
-0.00527608
-0.00693874
-0.00860054
-0.0102604
-0.0119174
-0.0135705
-0.0152188
-0.0168613
-0.0184974
-0.0201261
-0.0217467
-0.0233584
-0.0249606
-0.0265526
-0.0281337
-0.0297033
-0.031261
-0.0328061
-0.0343382
-0.0358568
-0.0373615
-0.0388519
-0.0403276
-0.0417882
-0.0432334
-0.0446629
-0.0460765
-0.0474738
-0.0488547
-0.0502189
-0.0515663
-0.0528966
-0.0542097
-0.0555056
-0.0567839
-0.0580448
-0.059288
-0.0605135
-0.0617212
-0.0629111
-0.0640831
-0.0652373
-0.0663735
-0.0674919
-0.0685923
-0.0696749
-0.0707396
-0.0717864
-0.0728155
-0.0738267
-0.0748203
-0.0757962
-0.0767545
-0.0776952
-0.0786185
-0.0795243
-0.0804128
-0.0812839
-0.082138
-0.0829748
-0.0837948
-0.0845975
-0.0853837
-0.0861527
-0.0869054
-0.0876411
-0.0883605
-0.0890631
-0.0897497
-0.0904195
-0.0910734
-0.0917107
-0.0923322
-0.0929358
-0.0935256
-0.0941167
-0.0947024
0.0450586
0.0450522
0.0449059
0.044682
0.044371
0.043976
0.0435026
0.0429542
0.0423343
0.0416463
0.0408934
0.0400786
0.0392049
0.0382749
0.0372914
0.036257
0.0351741
0.0340452
0.0328726
0.0316585
0.0304052
0.0291148
0.0277893
0.0264309
0.0250414
0.0236229
0.0221772
0.0207061
0.0192115
0.0176951
0.0161587
0.0146038
0.0130322
0.0114454
0.0098449
0.00823232
0.00660907
0.00497658
0.00333623
0.00168935
3.72552e-05
-0.00161881
-0.00327763
-0.00493803
-0.00659888
-0.00825907
-0.00991758
-0.0115734
-0.0132255
-0.014873
-0.016515
-0.0181507
-0.0197792
-0.0213998
-0.0230117
-0.0246142
-0.0262067
-0.0277885
-0.029359
-0.0309176
-0.0324639
-0.0339972
-0.0355173
-0.0370235
-0.0385155
-0.0399929
-0.0414554
-0.0429025
-0.0443341
-0.0457498
-0.0471493
-0.0485325
-0.049899
-0.0512488
-0.0525816
-0.0538972
-0.0551956
-0.0564766
-0.0577401
-0.058986
-0.0602142
-0.0614246
-0.0626173
-0.0637921
-0.064949
-0.0660881
-0.0672092
-0.0683125
-0.0693979
-0.0704654
-0.0715151
-0.072547
-0.073561
-0.0745574
-0.0755361
-0.0764972
-0.0774406
-0.0783667
-0.0792752
-0.0801664
-0.0810403
-0.0818971
-0.0827366
-0.0835591
-0.0843646
-0.0851532
-0.085925
-0.0866801
-0.0874185
-0.0881403
-0.0888456
-0.0895344
-0.0902069
-0.0908631
-0.0915031
-0.0921266
-0.0927331
-0.0933246
-0.0939186
-0.0945056
0.0452067
0.0452043
0.0450619
0.0448424
0.044536
0.0441456
0.0436771
0.0431338
0.0425192
0.0418365
0.0410892
0.04028
0.039412
0.0384879
0.0375103
0.0364819
0.035405
0.0342822
0.0331156
0.0319076
0.0306603
0.0293758
0.0280563
0.0267037
0.02532
0.0239071
0.0224669
0.0210012
0.0195119
0.0180006
0.0164691
0.014919
0.0133519
0.0117695
0.0101732
0.00856457
0.00694508
0.00531612
0.00367908
0.00203528
0.000386041
-0.0012674
-0.00292382
-0.00458206
-0.00624097
-0.00789946
-0.00955647
-0.011211
-0.0128621
-0.0145088
-0.0161502
-0.0177854
-0.0194137
-0.0210343
-0.0226464
-0.0242493
-0.0258423
-0.0274249
-0.0289962
-0.0305559
-0.0321033
-0.0336381
-0.0351595
-0.0366674
-0.0381611
-0.0396404
-0.0411047
-0.042554
-0.0439877
-0.0454056
-0.0468075
-0.0481931
-0.0495621
-0.0509144
-0.0522498
-0.0535681
-0.0548692
-0.056153
-0.0574192
-0.0586679
-0.059899
-0.0611123
-0.0623079
-0.0634856
-0.0646455
-0.0657875
-0.0669116
-0.0680179
-0.0691062
-0.0701767
-0.0712293
-0.0722642
-0.0732812
-0.0742805
-0.0752621
-0.0762261
-0.0771725
-0.0781014
-0.0790127
-0.0799068
-0.0807835
-0.081643
-0.0824853
-0.0833106
-0.0841187
-0.08491
-0.0856844
-0.0864421
-0.0871831
-0.0879074
-0.0886152
-0.0893064
-0.0899814
-0.0906398
-0.0912822
-0.0919079
-0.0925167
-0.0931103
-0.0937064
-0.0942955
0.0453619
0.0453636
0.0452253
0.0450105
0.0447087
0.0443233
0.0438599
0.0433219
0.0427127
0.0420357
0.0412941
0.0404909
0.0396289
0.0387109
0.0377396
0.0367174
0.0356469
0.0345303
0.0333701
0.0321685
0.0309275
0.0296493
0.028336
0.0269895
0.0256119
0.0242049
0.0227706
0.0213106
0.0198268
0.0183209
0.0167945
0.0152495
0.0136872
0.0121094
0.0105175
0.00891308
0.00729755
0.00567232
0.00403878
0.00239825
0.000752027
-0.000898635
-0.00255252
-0.00420846
-0.00586532
-0.007522
-0.00917744
-0.0108306
-0.0124806
-0.0141264
-0.0157672
-0.017402
-0.01903
-0.0206506
-0.0222629
-0.0238662
-0.0254597
-0.027043
-0.0286153
-0.030176
-0.0317248
-0.0332609
-0.0347839
-0.0362934
-0.0377889
-0.0392701
-0.0407366
-0.042188
-0.043624
-0.0450443
-0.0464486
-0.0478367
-0.0492083
-0.0505633
-0.0519015
-0.0532226
-0.0545265
-0.0558132
-0.0570824
-0.0583341
-0.0595682
-0.0607845
-0.0619832
-0.063164
-0.064327
-0.0654721
-0.0665993
-0.0677087
-0.0688002
-0.0698738
-0.0709295
-0.0719674
-0.0729876
-0.0739899
-0.0749746
-0.0759416
-0.0768911
-0.077823
-0.0787374
-0.0796344
-0.0805141
-0.0813764
-0.0822217
-0.0830497
-0.0838608
-0.0846549
-0.0854321
-0.0861925
-0.0869362
-0.0876632
-0.0883736
-0.0890676
-0.089745
-0.0904062
-0.091051
-0.0916794
-0.0922904
-0.0928868
-0.093485
-0.0940773
0.0455238
0.0455298
0.0453959
0.0451858
0.0448889
0.0445087
0.0440507
0.0435182
0.0429147
0.0422436
0.0415081
0.040711
0.0398553
0.0389438
0.0379789
0.0369633
0.0358994
0.0347895
0.0336359
0.0324409
0.0312065
0.0299349
0.0286282
0.0272881
0.0259168
0.0245161
0.0230879
0.0216339
0.0201559
0.0186556
0.0171348
0.0155949
0.0140378
0.0124648
0.0108776
0.00927754
0.00766618
0.00604489
0.00441504
0.00277795
0.00113491
-0.000512811
-0.00216402
-0.00381753
-0.00547221
-0.00712696
-0.00878073
-0.0104325
-0.0120813
-0.0137262
-0.0153662
-0.0170005
-0.0186283
-0.0202489
-0.0218613
-0.023465
-0.0250591
-0.0266432
-0.0282164
-0.0297784
-0.0313283
-0.0328659
-0.0343906
-0.0359019
-0.0373993
-0.0388825
-0.0403511
-0.0418048
-0.0432432
-0.044666
-0.0460729
-0.0474636
-0.048838
-0.0501958
-0.0515369
-0.0528609
-0.0541679
-0.0554576
-0.0567299
-0.0579847
-0.059222
-0.0604415
-0.0616434
-0.0628275
-0.0639937
-0.0651421
-0.0662726
-0.0673852
-0.06848
-0.0695568
-0.0706159
-0.071657
-0.0726804
-0.073686
-0.0746739
-0.0756441
-0.0765968
-0.0775318
-0.0784493
-0.0793494
-0.0802321
-0.0810976
-0.0819458
-0.0827769
-0.0835908
-0.0843879
-0.0851679
-0.0859312
-0.0866776
-0.0874075
-0.0881206
-0.0888173
-0.0894973
-0.0901611
-0.0908084
-0.0914394
-0.0920528
-0.0926515
-0.0932521
-0.0938467
0.0456923
0.0457028
0.0455734
0.0453683
0.0450765
0.0447016
0.0442492
0.0437225
0.043125
0.04246
0.0417308
0.0409402
0.0400911
0.0391862
0.0382281
0.0372193
0.0361623
0.0350593
0.0339127
0.0327246
0.0314972
0.0302325
0.0289325
0.0275993
0.0262346
0.0248404
0.0234186
0.0219708
0.0204989
0.0190046
0.0174894
0.0159551
0.0144033
0.0128354
0.0112531
0.00965766
0.00805069
0.00643354
0.00480756
0.0031741
0.00153442
-0.000110208
-0.00175858
-0.00340953
-0.00506192
-0.00671464
-0.00836664
-0.0100169
-0.0116644
-0.0133083
-0.0149476
-0.0165814
-0.0182089
-0.0198294
-0.021442
-0.023046
-0.0246409
-0.0262256
-0.0277999
-0.029363
-0.0309144
-0.0324535
-0.0339798
-0.0354929
-0.0369924
-0.0384777
-0.0399487
-0.0414047
-0.0428456
-0.0442709
-0.0456806
-0.0470741
-0.0484514
-0.0498122
-0.0511563
-0.0524834
-0.0537936
-0.0550864
-0.056362
-0.0576201
-0.0588607
-0.0600836
-0.0612889
-0.0624763
-0.063646
-0.0647978
-0.0659318
-0.0670478
-0.068146
-0.0692263
-0.0702887
-0.0713333
-0.0723601
-0.0733691
-0.0743603
-0.0753339
-0.0762898
-0.0772281
-0.0781489
-0.0790522
-0.0799382
-0.0808068
-0.0816582
-0.0824923
-0.0833094
-0.0841095
-0.0848925
-0.0856588
-0.0864081
-0.0871409
-0.0878569
-0.0885564
-0.0892392
-0.0899058
-0.0905558
-0.0911895
-0.0918056
-0.092407
-0.0930101
-0.0936074
0.0458672
0.0458824
0.0457577
0.0455578
0.0452713
0.0449019
0.0444553
0.0439346
0.0433433
0.0426847
0.041962
0.0411781
0.0403358
0.0394379
0.0384868
0.0374852
0.0364353
0.0353396
0.0342003
0.0330194
0.0317992
0.0305417
0.0292488
0.0279226
0.0265648
0.0251775
0.0237623
0.0223211
0.0208556
0.0193674
0.0178583
0.0163298
0.0147835
0.0132209
0.0116437
0.0100532
0.00845078
0.00683797
0.00521607
0.00358641
0.00195027
0.000308894
-0.0013365
-0.00298475
-0.00463471
-0.00628529
-0.00793541
-0.00958407
-0.0112302
-0.0128731
-0.0145115
-0.0161448
-0.017772
-0.0193924
-0.0210052
-0.0226096
-0.024205
-0.0257907
-0.027366
-0.0289303
-0.0304831
-0.0320238
-0.0335519
-0.0350669
-0.0365685
-0.0380561
-0.0395293
-0.0409879
-0.0424314
-0.0438595
-0.0452719
-0.0466684
-0.0480487
-0.0494126
-0.0507598
-0.0520903
-0.0534037
-0.0547
-0.0559789
-0.0572405
-0.0584846
-0.059711
-0.0609198
-0.0621108
-0.0632841
-0.0644395
-0.065577
-0.0666967
-0.0677985
-0.0688824
-0.0699484
-0.0709965
-0.0720269
-0.0730394
-0.0740342
-0.0750112
-0.0759706
-0.0769124
-0.0778366
-0.0787433
-0.0796326
-0.0805045
-0.0813592
-0.0821966
-0.0830169
-0.0838201
-0.0846063
-0.0853756
-0.0861281
-0.0868638
-0.0875829
-0.0882852
-0.0889711
-0.0896403
-0.0902933
-0.0909296
-0.0915486
-0.0921525
-0.0927584
-0.0933579
0.0460484
0.0460684
0.0459485
0.045754
0.045473
0.0451094
0.0446688
0.0441543
0.0435694
0.0429174
0.0422015
0.0414245
0.0405894
0.0396986
0.0387549
0.0377607
0.0367183
0.0356301
0.0344983
0.033325
0.0321123
0.0308622
0.0295768
0.0282578
0.0269073
0.0255271
0.0241189
0.0226845
0.0212256
0.0197439
0.018241
0.0167185
0.0151781
0.0136211
0.0120492
0.0104637
0.00886619
0.00725792
0.0056403
0.00401462
0.00238219
0.000744233
-0.000898034
-0.00254344
-0.00419085
-0.00583916
-0.00748731
-0.00913426
-0.0107791
-0.0124207
-0.0140583
-0.015691
-0.0173179
-0.0189381
-0.0205511
-0.0221559
-0.023752
-0.0253384
-0.0269148
-0.0284804
-0.0300347
-0.031577
-0.033107
-0.034624
-0.0361278
-0.0376177
-0.0390934
-0.0405545
-0.0420008
-0.0434317
-0.0448472
-0.0462467
-0.0476302
-0.0489973
-0.0503479
-0.0516817
-0.0529986
-0.0542984
-0.0555809
-0.0568461
-0.0580938
-0.059324
-0.0605365
-0.0617312
-0.0629082
-0.0640674
-0.0652087
-0.0663321
-0.0674377
-0.0685253
-0.0695951
-0.070647
-0.0716811
-0.0726973
-0.0736957
-0.0746765
-0.0756395
-0.0765848
-0.0775126
-0.0784229
-0.0793157
-0.0801911
-0.0810491
-0.0818899
-0.0827136