/*--------------------------------*- C++ -*----------------------------------*\
  =========                 |
  \\      /  F ield         | OpenFOAM: The Open Source CFD Toolbox
   \\    /   O peration     | Website:  https://openfoam.org
    \\  /    A nd           | Version:  9
     \\/     M anipulation  |
\*---------------------------------------------------------------------------*/
FoamFile
{
    format      ascii;
    class       surfaceScalarField;
    location    "0.0175";
    object      phi;
}
// * * * * * * * * * * * * * * * * * * * * * * * * * * * * * * * * * * * * * //

dimensions      [1 0 -1 0 0 0 0];

internalField   nonuniform List<scalar> 
14105
(
0.313394
-0.000659654
-0.313773
0.313025
-0.000662583
0.312666
-0.000665082
0.312316
-0.000667523
0.311976
-0.000670007
0.311644
-0.000672491
0.311322
-0.000674964
0.311008
-0.00067743
0.310703
-0.000679893
0.310406
-0.000682354
0.310116
-0.000684813
0.309834
-0.00068727
0.30956
-0.000689725
0.309292
-0.000692176
0.309032
-0.000694625
0.308778
-0.000697075
0.308531
-0.000699531
0.30829
-0.000702003
0.308056
-0.000704489
0.307827
-0.000706977
0.307604
-0.000709465
0.307387
-0.000711952
0.307175
-0.000714437
0.306969
-0.000716923
0.306768
-0.000719408
0.306571
-0.000721894
0.30638
-0.000724379
0.306194
-0.000726864
0.306011
-0.00072935
0.305834
-0.000731835
0.305661
-0.000734322
0.305491
-0.000736808
0.305326
-0.000739295
0.305165
-0.000741782
0.305008
-0.000744269
0.304854
-0.000746757
0.304704
-0.000749245
0.304558
-0.000751733
0.304415
-0.000754222
0.304275
-0.000756711
0.304138
-0.0007592
0.304005
-0.000761688
0.303874
-0.000764177
0.303747
-0.000766665
0.303622
-0.000769153
0.3035
-0.00077164
0.303381
-0.000774126
0.303264
-0.000776612
0.30315
-0.000779096
0.303038
-0.000781578
0.302929
-0.000784058
0.302822
-0.000786536
0.302717
-0.000789012
0.302615
-0.000791488
0.302514
-0.000794014
-0.000796551
0.274152
-0.000531584
-0.27428
0.274029
-0.000539443
0.273911
-0.000546791
0.273797
-0.000553869
0.273688
-0.000560766
0.273583
-0.000567505
0.273482
-0.000574095
0.273385
-0.00058054
0.273292
-0.000586844
0.273203
-0.000593015
0.273117
-0.000599068
0.273035
-0.000605006
0.272956
-0.000610804
0.27288
-0.000616468
0.272808
-0.000622023
0.272738
-0.000627459
0.272671
-0.000632783
0.272607
-0.000638037
0.272546
-0.000643221
0.272487
-0.000648307
0.272431
-0.0006533
0.272377
-0.000658204
0.272326
-0.000663023
0.272277
-0.000667758
0.27223
-0.000672414
0.272185
-0.000676992
0.272142
-0.000681494
0.272101
-0.000685925
0.272062
-0.000690286
0.272025
-0.00069458
0.271989
-0.000698809
0.271955
-0.000702976
0.271923
-0.000707082
0.271893
-0.00071113
0.271863
-0.000715122
0.271836
-0.000719059
0.271809
-0.000722943
0.271784
-0.000726777
0.271761
-0.000730561
0.271738
-0.000734297
0.271717
-0.000737987
0.271697
-0.000741631
0.271678
-0.000745232
0.27166
-0.00074879
0.271643
-0.000752307
0.271628
-0.000755783
0.271613
-0.000759219
0.271599
-0.000762617
0.271586
-0.000765976
0.271573
-0.000769297
0.271562
-0.000772582
0.271551
-0.000775829
0.271541
-0.000779042
0.271532
-0.000782261
0.271523
-0.000785504
-0.000788731
0.254107
-0.000626603
-0.254012
0.254198
-0.000630173
0.254284
-0.000633163
0.254367
-0.000636137
0.254445
-0.000639112
0.25452
-0.000642091
0.254591
-0.000645073
0.254658
-0.000648057
0.254722
-0.000651044
0.254783
-0.000654036
0.254841
-0.000657055
0.254896
-0.000660109
0.254949
-0.000663165
0.254999
-0.000666208
0.255046
-0.000669243
0.255091
-0.000672265
0.255133
-0.000675271
0.255173
-0.000678281
0.255211
-0.000681301
0.255247
-0.000684322
0.255281
-0.00068734
0.255314
-0.000690353
0.255344
-0.000693355
0.255372
-0.000696341
0.255399
-0.000699317
0.255425
-0.000702289
0.255448
-0.000705258
0.255471
-0.000708225
0.255492
-0.000711189
0.255511
-0.00071415
0.255529
-0.000717107
0.255547
-0.000720062
0.255563
-0.000723014
0.255577
-0.000725962
0.255591
-0.000728907
0.255604
-0.000731849
0.255616
-0.000734787
0.255627
-0.000737722
0.255637
-0.000740653
0.255646
-0.00074358
0.255655
-0.000746504
0.255662
-0.000749423
0.255669
-0.000752338
0.255676
-0.000755248
0.255682
-0.000758154
0.255687
-0.000761055
0.255692
-0.00076395
0.255696
-0.00076684
0.2557
-0.000769725
0.255703
-0.000772603
0.255706
-0.000775475
0.255708
-0.000778339
0.255711
-0.000781199
0.255712
-0.000784085
0.255714
-0.000786975
-0.000789862
0.238876
-0.000579237
-0.238924
0.238828
-0.000582357
0.238781
-0.000585821
0.238734
-0.000589288
0.238688
-0.000592776
0.238642
-0.000596276
0.238597
-0.000599787
0.238552
-0.000603307
0.238508
-0.000606835
0.238464
-0.000610377
0.238421
-0.000613948
0.238379
-0.000617548
0.238337
-0.000621158
0.238295
-0.000624774
0.238254
-0.000628391
0.238214
-0.00063201
0.238174
-0.000635628
0.238135
-0.000639245
0.238097
-0.000642859
0.238059
-0.00064647
0.238022
-0.000650078
0.237985
-0.000653683
0.237949
-0.000657277
0.237914
-0.000660857
0.237879
-0.000664428
0.237844
-0.000667995
0.237811
-0.000671559
0.237778
-0.000675118
0.237745
-0.000678672
0.237713
-0.000682221
0.237682
-0.000685765
0.237651
-0.000689302
0.237621
-0.000692834
0.237591
-0.000696358
0.237562
-0.000699868
0.237534
-0.000703365
0.237506
-0.000706855
0.237478
-0.000710337
0.237452
-0.000713813
0.237425
-0.000717281
0.237399
-0.000720741
0.237374
-0.000724194
0.23735
-0.00072764
0.237325
-0.000731077
0.237302
-0.000734507
0.237279
-0.000737928
0.237256
-0.000741342
0.237234
-0.000744748
0.237212
-0.000748145
0.237191
-0.000751535
0.237171
-0.000754916
0.237151
-0.000758288
0.237131
-0.000761653
0.237112
-0.000765009
0.237093
-0.000768358
-0.000771698
0.219602
-0.000596623
-0.219585
0.21962
-0.000600665
0.219638
-0.000604021
0.219656
-0.000607314
0.219674
-0.000610594
0.219692
-0.000613874
0.219709
-0.000617157
0.219726
-0.000620441
0.219743
-0.000623728
0.21976
-0.000627024
0.219776
-0.000630339
0.219792
-0.000633668
0.219808
-0.000636999
0.219824
-0.000640331
0.219839
-0.000643663
0.219854
-0.000646995
0.219869
-0.000650328
0.219883
-0.000653661
0.219897
-0.000656995
0.219911
-0.000660328
0.219925
-0.000663662
0.219938
-0.000666995
0.219951
-0.000670329
0.219964
-0.000673663
0.219976
-0.000676996
0.219989
-0.00068033
0.220001
-0.000683663
0.220013
-0.000686997
0.220024
-0.000690329
0.220036
-0.000693661
0.220047
-0.000696992
0.220058
-0.000700322
0.220069
-0.000703651
0.22008
-0.000706973
0.22009
-0.000710281
0.2201
-0.000713579
0.22011
-0.000716875
0.22012
-0.000720168
0.22013
-0.00072346
0.220139
-0.000726751
0.220148
-0.00073004
0.220158
-0.000733327
0.220167
-0.000736612
0.220175
-0.000739895
0.220184
-0.000743176
0.220193
-0.000746455
0.220201
-0.000749732
0.220209
-0.000753006
0.220217
-0.000756277
0.220225
-0.000759546
0.220233
-0.000762812
0.220241
-0.000766075
0.220249
-0.000769335
0.220256
-0.000772592
0.220264
-0.000775846
-0.000779096
0.205802
-0.000579608
-0.205819
0.205785
-0.00058308
0.205767
-0.000586427
0.205749
-0.000589733
0.205732
-0.000593051
0.205714
-0.00059638
0.205697
-0.00059972
0.20568
-0.00060307
0.205662
-0.000606432
0.205645
-0.000609807
0.205628
-0.0006132
0.205611
-0.000616608
0.205594
-0.000620025
0.205577
-0.000623451
0.20556
-0.000626885
0.205544
-0.000630327
0.205527
-0.000633776
0.205511
-0.000637233
0.205494
-0.000640696
0.205478
-0.000644166
0.205462
-0.000647642
0.205446
-0.000651124
0.205431
-0.000654611
0.205415
-0.000658101
0.2054
-0.000661592
0.205384
-0.000665088
0.205369
-0.000668588
0.205354
-0.000672092
0.20534
-0.000675601
0.205325
-0.000679113
0.205311
-0.000682629
0.205297
-0.000686149
0.205283
-0.000689671
0.205269
-0.000693193
0.205255
-0.000696713
0.205242
-0.000700232
0.205229
-0.000703753
0.205216
-0.000707276
0.205203
-0.000710801
0.205191
-0.000714328
0.205179
-0.000717856
0.205167
-0.000721385
0.205155
-0.000724915
0.205144
-0.000728445
0.205132
-0.000731976
0.205121
-0.000735506
0.205111
-0.000739037
0.2051
-0.000742566
0.20509
-0.000746095
0.20508
-0.000749623
0.20507
-0.00075315
0.205061
-0.000756675
0.205052
-0.000760199
0.205043
-0.00076372
0.205034
-0.000767239
-0.000770756
0.19032
-0.000572268
-0.190328
0.190313
-0.000576347
0.190307
-0.000580032
0.190301
-0.00058365
0.190295
-0.000587252
0.19029
-0.000590858
0.190284
-0.000594469
0.190279
-0.000598087
0.190275
-0.000601711
0.19027
-0.00060534
0.190266
-0.000608973
0.190262
-0.000612609
0.190258
-0.000616249
0.190255
-0.000619893
0.190251
-0.000623542
0.190248
-0.000627195
0.190245
-0.000630852
0.190243
-0.000634514
0.19024
-0.00063818
0.190238
-0.000641849
0.190236
-0.000645521
0.190234
-0.000649196
0.190232
-0.000652875
0.19023
-0.000656553
0.190229
-0.000660231
0.190228
-0.00066391
0.190227
-0.000667592
0.190226
-0.000671276
0.190225
-0.000674963
0.190225
-0.000678651
0.190225
-0.000682341
0.190225
-0.000686032
0.190225
-0.000689725
0.190225
-0.000693419
0.190225
-0.000697114
0.190226
-0.000700809
0.190227
-0.000704505
0.190227
-0.000708201
0.190229
-0.000711897
0.19023
-0.000715592
0.190231
-0.000719286
0.190233
-0.000722979
0.190235
-0.00072667
0.190237
-0.000730363
0.190239
-0.00073408
0.190241
-0.000737802
0.190243
-0.000741526
0.190246
-0.000745249
0.190249
-0.000748971
0.190252
-0.000752693
0.190255
-0.000756414
0.190259
-0.000760134
0.190262
-0.000763852
0.190266
-0.00076757
0.19027
-0.000771285
-0.000774999
0.177686
-0.000558998
-0.177699
0.177672
-0.00056293
0.177659
-0.000566683
0.177646
-0.000570383
0.177633
-0.000574082
0.17762
-0.000577787
0.177607
-0.000581502
0.177594
-0.000585226
0.177581
-0.000588961
0.177568
-0.000592705
0.177556
-0.000596457
0.177543
-0.000600216
0.177531
-0.000603983
0.177519
-0.000607757
0.177507
-0.00061154
0.177495
-0.000615325
0.177483
-0.000619117
0.177472
-0.00062291
0.17746
-0.000626713
0.177449
-0.000630557
0.177438
-0.000634415
0.177427
-0.000638282
0.177416
-0.000642156
0.177406
-0.000646037
0.177396
-0.000649925
0.177385
-0.000653819
0.177376
-0.00065772
0.177366
-0.000661626
0.177357
-0.000665538
0.177347
-0.000669456
0.177338
-0.000673378
0.17733
-0.000677306
0.177321
-0.000681237
0.177313
-0.000685173
0.177305
-0.000689113
0.177297
-0.000693056
0.17729
-0.000697001
0.177282
-0.00070095
0.177275
-0.0007049
0.177269
-0.000708853
0.177262
-0.000712807
0.177256
-0.000716761
0.17725
-0.000720717
0.177244
-0.000724675
0.177239
-0.000728659
0.177234
-0.000732649
0.177229
-0.000736642
0.177224
-0.000740636
0.17722
-0.000744631
0.177216
-0.000748627
0.177212
-0.000752624
0.177209
-0.000756621
0.177205
-0.000760618
0.177202
-0.000764615
0.1772
-0.000768611
-0.000772607
0.164923
-0.000543959
-0.164938
0.164908
-0.000548018
0.164893
-0.000552006
0.164879
-0.000555996
0.164865
-0.000559993
0.164851
-0.000564003
0.164838
-0.000568024
0.164824
-0.000572057
0.164812
-0.000576101
0.164799
-0.000580155
0.164787
-0.000584219
0.164775
-0.000588292
0.164763
-0.000592376
0.164752
-0.000596468
0.164741
-0.000600584
0.16473
-0.000604736
0.16472
-0.000608907
0.16471
-0.000613086
0.164701
-0.000617282
0.164692
-0.000621515
0.164683
-0.000625738
0.164675
-0.000629932
0.164667
-0.000634122
0.164659
-0.000638316
0.164652
-0.000642515
0.164645
-0.000646721
0.164638
-0.000650933
0.164631
-0.000655151
0.164625
-0.000659372
0.164619
-0.000663597
0.164614
-0.000667825
0.164609
-0.000672056
0.164604
-0.00067629
0.164599
-0.000680526
0.164595
-0.000684764
0.164591
-0.000689036
0.164587
-0.000693323
0.164584
-0.000697615
0.164581
-0.000701911
0.164578
-0.000706211
0.164576
-0.000710514
0.164574
-0.00071482
0.164572
-0.000719129
0.164571
-0.00072344
0.16457
-0.000727753
0.164569
-0.000732068
0.164569
-0.000736384
0.164569
-0.000740702
0.16457
-0.000745021
0.16457
-0.00074934
0.164571
-0.000753659
0.164573
-0.000757979
0.164574
-0.000762298
0.164576
-0.000766617
0.164579
-0.000770935
-0.000775252
0.153685
-0.000526182
-0.153702
0.153667
-0.000530336
0.15365
-0.000534561
0.153632
-0.000538809
0.153615
-0.000543076
0.153599
-0.000547358
0.153582
-0.000551655
0.153566
-0.000555968
0.153551
-0.000560296
0.153535
-0.000564638
0.15352
-0.000568995
0.153505
-0.000573367
0.15349
-0.000577752
0.153476
-0.000582151
0.153462
-0.000586577
0.153448
-0.000591073
0.153435
-0.000595631
0.153422
-0.000600221
0.15341
-0.000604833
0.153398
-0.000609425
0.153386
-0.000613941
0.153374
-0.000618416
0.153363
-0.000622885
0.153352
-0.000627357
0.153341
-0.000631835
0.153331
-0.000636317
0.153321
-0.000640806
0.153311
-0.000645294
0.153301
-0.000649832
0.153292
-0.000654385
0.153283
-0.000658945
0.153275
-0.000663512
0.153267
-0.000668083
0.153259
-0.00067266
0.153251
-0.00067724
0.153244
-0.000681855
0.153237
-0.000686485
0.153231
-0.000691122
0.153225
-0.000695766
0.153219
-0.000700414
0.153213
-0.000705067
0.153208
-0.000709725
0.153203
-0.000714387
0.153199
-0.000719052
0.153195
-0.000723721
0.153191
-0.000728393
0.153188
-0.000733068
0.153185
-0.000737745
0.153183
-0.000742423
0.15318
-0.000747104
0.153178
-0.000751785
0.153177
-0.000756468
0.153176
-0.00076115
0.153175
-0.000765833
0.153175
-0.000770516
-0.000775198
0.142822
-0.000505895
-0.142843
0.142803
-0.000510471
0.142783
-0.000515049
0.142764
-0.000519647
0.142745
-0.000524263
0.142727
-0.000528899
0.142709
-0.000533555
0.142691
-0.000538228
0.142673
-0.00054292
0.142656
-0.00054763
0.14264
-0.000552357
0.142623
-0.000557102
0.142608
-0.000561863
0.142592
-0.000566641
0.142577
-0.000571435
0.142562
-0.00057627
0.142548
-0.000581156
0.142534
-0.00058607
0.14252
-0.000591003
0.142506
-0.000595921
0.142493
-0.000600794
0.14248
-0.000605666
0.142468
-0.000610545
0.142456
-0.000615433
0.142445
-0.000620332
0.142433
-0.000625237
0.142423
-0.000630154
0.142413
-0.000635072
0.142403
-0.000640042
0.142393
-0.000645031
0.142385
-0.000650032
0.142376
-0.000655043
0.142368
-0.00066007
0.14236
-0.000665093
0.142353
-0.000670129
0.142347
-0.000675174
0.14234
-0.000680226
0.142335
-0.000685285
0.142329
-0.000690351
0.142324
-0.000695423
0.14232
-0.000700501
0.142315
-0.000705584
0.142312
-0.000710672
0.142308
-0.000715764
0.142306
-0.00072086
0.142303
-0.000725959
0.142301
-0.000731061
0.1423
-0.000736166
0.142298
-0.000741273
0.142298
-0.000746382
0.142297
-0.000751492
0.142298
-0.000756603
0.142298
-0.000761714
0.142299
-0.000766825
0.142301
-0.000771935
-0.000777045
0.13294
-0.000483457
-0.132962
0.132918
-0.000488307
0.132896
-0.000493217
0.132874
-0.000498157
0.132853
-0.000503123
0.132832
-0.000508112
0.132812
-0.000513124
0.132792
-0.00051816
0.132772
-0.000523217
0.132753
-0.000528298
0.132734
-0.000533399
0.132715
-0.000538523
0.132697
-0.000543667
0.132679
-0.000548832
0.132662
-0.000554017
0.132645
-0.000559222
0.132628
-0.000564446
0.132612
-0.000569688
0.132596
-0.000574948
0.13258
-0.000580226
0.132565
-0.000585521
0.13255
-0.000590833
0.132535
-0.000596161
0.132521
-0.000601505
0.132508
-0.000606864
0.132495
-0.000612238
0.132482
-0.000617627
0.13247
-0.000623029
0.132459
-0.000628446
0.132448
-0.000633875
0.132437
-0.000639317
0.132427
-0.000644771
0.132417
-0.000650242
0.132407
-0.000655713
0.132399
-0.000661199
0.13239
-0.000666695
0.132382
-0.000672201
0.132374
-0.000677716
0.132367
-0.00068324
0.132361
-0.000688771
0.132355
-0.000694309
0.132349
-0.000699855
0.132344
-0.000705406
0.132339
-0.000710963
0.132334
-0.000716525
0.132331
-0.000722092
0.132327
-0.000727663
0.132324
-0.000733237
0.132322
-0.000738814
0.13232
-0.000744393
0.132318
-0.000749975
0.132317
-0.000755557
0.132317
-0.00076114
0.132317
-0.000766723
0.132317
-0.000772306
-0.000777888
0.123571
-0.000458009
-0.123596
0.123546
-0.000463288
0.123521
-0.0004686
0.123497
-0.000473944
0.123473
-0.000479316
0.12345
-0.000484718
0.123427
-0.000490148
0.123404
-0.000495606
0.123382
-0.000501091
0.12336
-0.000506603
0.123339
-0.000512142
0.123318
-0.000517707
0.123298
-0.000523297
0.123278
-0.000528911
0.123258
-0.000534551
0.123239
-0.000540214
0.123221
-0.000545901
0.123203
-0.00055161
0.123185
-0.000557342
0.123168
-0.000563096
0.123151
-0.00056887
0.123135
-0.000574665
0.12312
-0.00058048
0.123104
-0.000586314
0.12309
-0.000592167
0.123075
-0.000598038
0.123062
-0.000603927
0.123049
-0.000609832
0.123036
-0.000615755
0.123024
-0.000621693
0.123012
-0.000627646
0.123001
-0.000633614
0.12299
-0.000639596
0.12298
-0.000645591
0.12297
-0.000651599
0.122961
-0.000657619
0.122953
-0.00066365
0.122945
-0.000669693
0.122937
-0.000675745
0.12293
-0.000681807
0.122924
-0.000687877
0.122918
-0.000693956
0.122913
-0.000700042
0.122908
-0.000706135
0.122904
-0.000712234
0.1229
-0.000718338
0.122897
-0.000724447
0.122894
-0.00073056
0.122892
-0.000736677
0.12289
-0.000742796
0.122889
-0.000748917
0.122889
-0.000755039
0.122889
-0.000761162
0.122889
-0.000767285
0.12289
-0.000773408
-0.000779529
0.114934
-0.000430146
-0.114962
0.114906
-0.000435805
0.114879
-0.000441528
0.114853
-0.000447292
0.114826
-0.000453093
0.114801
-0.000458928
0.114775
-0.000464798
0.11475
-0.000470702
0.114726
-0.000476639
0.114702
-0.000482608
0.114678
-0.00048861
0.114655
-0.000494643
0.114633
-0.000500707
0.114611
-0.000506802
0.114589
-0.000512926
0.114568
-0.00051908
0.114547
-0.000525262
0.114527
-0.000531472
0.114507
-0.000537709
0.114488
-0.000543972
0.11447
-0.000550262
0.114452
-0.000556577
0.114434
-0.000562916
0.114417
-0.000569279
0.1144
-0.000575665
0.114385
-0.000582074
0.114369
-0.000588504
0.114354
-0.000594955
0.11434
-0.000601426
0.114326
-0.000607917
0.114313
-0.000614427
0.1143
-0.000620954
0.114288
-0.000627499
0.114277
-0.00063406
0.114266
-0.000640636
0.114255
-0.000647227
0.114245
-0.000653833
0.114236
-0.000660452
0.114228
-0.000667083
0.114219
-0.000673725
0.114212
-0.000680379
0.114205
-0.000687042
0.114199
-0.000693715
0.114193
-0.000700396
0.114188
-0.000707085
0.114183
-0.00071378
0.114179
-0.000720481
0.114176
-0.000727187
0.114173
-0.000733897
0.114171
-0.000740611
0.114169
-0.000747327
0.114168
-0.000754045
0.114168
-0.000760763
0.114168
-0.000767482
0.114169
-0.000774199
-0.000780915
0.106828
-0.000399275
-0.106859
0.106798
-0.000405401
0.106768
-0.000411584
0.106738
-0.000417815
0.106709
-0.000424088
0.106681
-0.000430404
0.106653
-0.000436761
0.106625
-0.000443159
0.106598
-0.000449598
0.106572
-0.000456075
0.106546
-0.000462592
0.10652
-0.000469147
0.106495
-0.000475739
0.106471
-0.000482368
0.106447
-0.000489033
0.106423
-0.000495734
0.106401
-0.000502469
0.106378
-0.000509237
0.106357
-0.000516039
0.106336
-0.000522873
0.106315
-0.000529738
0.106295
-0.000536634
0.106276
-0.000543559
0.106257
-0.000550513
0.106239
-0.000557496
0.106221
-0.000564505
0.106204
-0.000571541
0.106188
-0.000578603
0.106172
-0.000585688
0.106157
-0.000592798
0.106143
-0.00059993
0.106129
-0.000607084
0.106116
-0.000614258
0.106103
-0.000621453
0.106091
-0.000628667
0.10608
-0.000635898
0.106069
-0.000643147
0.106059
-0.000650412
0.106049
-0.000657691
0.106041
-0.000664985
0.106033
-0.000672292
0.106025
-0.000679611
0.106018
-0.000686941
0.106012
-0.000694282
0.106007
-0.000701631
0.106002
-0.000708989
0.105998
-0.000716353
0.105995
-0.000723724
0.105992
-0.000731099
0.10599
-0.000738479
0.105988
-0.000745861
0.105987
-0.000753245
0.105987
-0.000760631
0.105988
-0.000768016
0.105989
-0.0007754
-0.000782781
0.0993179
-0.000365716
-0.0993515
0.0992848
-0.000372301
0.0992522
-0.000378966
0.0992201
-0.000385689
0.0991885
-0.000392463
0.0991574
-0.000399289
0.0991268
-0.000406164
0.0990967
-0.000413088
0.0990671
-0.00042006
0.0990382
-0.00042708
0.0990097
-0.000434147
0.0989818
-0.00044126
0.0989545
-0.000448417
0.0989277
-0.000455619
0.0989016
-0.000462865
0.098876
-0.000470153
0.098851
-0.000477483
0.0988266
-0.000484853
0.0988029
-0.000492263
0.0987797
-0.000499712
0.0987572
-0.000507199
0.0987352
-0.000514723
0.098714
-0.000522283
0.0986933
-0.000529877
0.0986733
-0.000537506
0.098654
-0.000545168
0.0986353
-0.000552861
0.0986173
-0.000560585
0.0986
-0.000568339
0.0985833
-0.000576122
0.0985673
-0.000583932
0.098552
-0.000591768
0.0985373
-0.00059963
0.0985234
-0.000607516
0.0985102
-0.000615425
0.0984976
-0.000623355
0.0984858
-0.000631307
0.0984746
-0.000639278
0.0984642
-0.000647268
0.0984545
-0.000655274
0.0984455
-0.000663297
0.0984372
-0.000671334
0.0984297
-0.000679385
0.0984228
-0.000687448
0.0984167
-0.000695523
0.0984114
-0.000703607
0.0984067
-0.0007117
0.0984028
-0.0007198
0.0983996
-0.000727907
0.0983971
-0.000736018
0.0983954
-0.000744133
0.0983944
-0.000752251
0.0983941
-0.000760369
0.0983946
-0.000768487
0.0983958
-0.000776604
-0.000784719
0.0923039
-0.000329117
-0.0923405
0.0922678
-0.000336218
0.0922323
-0.000343404
0.0921972
-0.000350656
0.0921627
-0.00035797
0.0921288
-0.000365344
0.0920954
-0.000372778
0.0920626
-0.000380271
0.0920304
-0.000387821
0.0919987
-0.000395428
0.0919676
-0.000403091
0.0919372
-0.000410809
0.0919074
-0.000418581
0.0918781
-0.000426406
0.0918496
-0.000434282
0.0918216
-0.00044221
0.0917943
-0.000450188
0.0917677
-0.000458214
0.0917417
-0.000466288
0.0917164
-0.000474409
0.0916918
-0.000482575
0.0916678
-0.000490785
0.0916446
-0.000499038
0.0916221
-0.000507334
0.0916002
-0.00051567
0.0915791
-0.000524045
0.0915587
-0.000532459
0.091539
-0.00054091
0.0915201
-0.000549396
0.0915019
-0.000557917
0.0914844
-0.000566471
0.0914677
-0.000575057
0.0914517
-0.000583674
0.0914366
-0.000592319
0.0914221
-0.000600992
0.0914085
-0.000609692
0.0913956
-0.000618416
0.0913835
-0.000627165
0.0913721
-0.000635935
0.0913616
-0.000644726
0.0913518
-0.000653537
0.0913428
-0.000662365
0.0913347
-0.00067121
0.0913273
-0.00068007
0.0913207
-0.000688944
0.0913149
-0.000697829
0.09131
-0.000706725
0.0913058
-0.00071563
0.0913024
-0.000724543
0.0912999
-0.000733462
0.0912981
-0.000742385
0.0912972
-0.000751311
0.091297
-0.000760239
0.0912977
-0.000769166
0.0912992
-0.000778093
-0.000787015
0.0857906
-0.00028965
-0.08583
0.0857516
-0.000297278
0.0857132
-0.000305009
0.0856754
-0.000312819
0.0856381
-0.000320702
0.0856015
-0.000328657
0.0855654
-0.000336683
0.0855299
-0.000344778
0.085495
-0.000352942
0.0854607
-0.000361173
0.0854271
-0.000369471
0.0853941
-0.000377833
0.0853618
-0.00038626
0.0853302
-0.00039475
0.0852992
-0.000403301
0.0852689
-0.000411913
0.0852393
-0.000420584
0.0852104
-0.000429314
0.0851822
-0.0004381
0.0851547
-0.000446941
0.085128
-0.000455836
0.085102
-0.000464785
0.0850767
-0.000473784
0.0850522
-0.000482834
0.0850285
-0.000491932
0.0850055
-0.000501077
0.0849833
-0.000510268
0.0849619
-0.000519502
0.0849413
-0.00052878
0.0849215
-0.000538099
0.0849025
-0.000547457
0.0848843
-0.000556854
0.0848669
-0.000566287
0.0848503
-0.000575755
0.0848346
-0.000585256
0.0848197
-0.000594789
0.0848056
-0.000604352
0.0847924
-0.000613943
0.08478
-0.000623562
0.0847685
-0.000633205
0.0847578
-0.000642872
0.084748
-0.000652561
0.0847391
-0.000662269
0.084731
-0.000671996
0.0847238
-0.000681739
0.0847175
-0.000691497
0.084712
-0.000701269
0.0847074
-0.000711051
0.0847037
-0.000720843
0.0847009
-0.000730642
0.084699
-0.000740447
0.0846979
-0.000750257
0.0846978
-0.000760068
0.0846985
-0.00076988
0.0847001
-0.00077969
-0.000789497
0.0797216
-0.00024715
-0.0797641
0.0796797
-0.000255344
0.0796383
-0.000263653
0.0795975
-0.000272054
0.0795574
-0.000280542
0.0795178
-0.000289113
0.0794789
-0.000297768
0.0794407
-0.000306505
0.079403
-0.000315322
0.0793661
-0.000324219
0.0793298
-0.000333194
0.0792942
-0.000342246
0.0792593
-0.000351373
0.0792252
-0.000360574
0.0791917
-0.000369848
0.079159
-0.000379194
0.079127
-0.000388609
0.0790958
-0.000398092
0.0790653
-0.000407643
0.0790356
-0.000417259
0.0790067
-0.000426938
0.0789786
-0.00043668
0.0789513
-0.000446482
0.0789249
-0.000456343
0.0788992
-0.000466262
0.0788743
-0.000476236
0.0788503
-0.000486265
0.0788272
-0.000496345
0.0788049
-0.000506476
0.0787834
-0.000516656
0.0787629
-0.000526883
0.0787432
-0.000537155
0.0787243
-0.00054747
0.0787064
-0.000557827
0.0786894
-0.000568224
0.0786733
-0.000578658
0.078658
-0.000589129
0.0786437
-0.000599633
0.0786303
-0.00061017
0.0786179
-0.000620737
0.0786063
-0.000631332
0.0785957
-0.000641953
0.078586
-0.000652599
0.0785773
-0.000663266
0.0785695
-0.000673954
0.0785627
-0.00068466
0.0785568
-0.000695383
0.0785519
-0.000706119
0.0785479
-0.000716867
0.0785449
-0.000727625
0.0785428
-0.00073839
0.0785417
-0.000749161
0.0785416
-0.000759935
0.0785424
-0.000770711
0.0785442
-0.000781485
-0.000792257
0.0740813
-0.00020174
-0.0741267
0.0740365
-0.00021052
0.0739922
-0.000219433
0.0739486
-0.000228454
0.0739057
-0.000237577
0.0738634
-0.000246797
0.0738217
-0.000256115
0.0737807
-0.000265528
0.0737404
-0.000275035
0.0737009
-0.000284636
0.073662
-0.000294327
0.0736239
-0.000304108
0.0735865
-0.000313977
0.0735498
-0.000323932
0.0735139
-0.000333973
0.0734788
-0.000344096
0.0734445
-0.000354301
0.073411
-0.000364586
0.0733783
-0.000374949
0.0733465
-0.000385388
0.0733154
-0.000395902
0.0732852
-0.000406488
0.0732559
-0.000417145
0.0732274
-0.000427871
0.0731998
-0.000438664
0.0731731
-0.000449522
0.0731473
-0.000460443
0.0731224
-0.000471425
0.0730984
-0.000482467
0.0730753
-0.000493566
0.0730531
-0.00050472
0.0730319
-0.000515928
0.0730116
-0.000527186
0.0729923
-0.000538494
0.0729739
-0.000549848
0.0729565
-0.000561247
0.07294
-0.000572689
0.0729246
-0.000584172
0.0729101
-0.000595692
0.0728966
-0.000607249
0.0728841
-0.00061884
0.0728726
-0.000630462
0.0728621
-0.000642114
0.0728527
-0.000653793
0.0728442
-0.000665496
0.0728368
-0.000677222
0.0728304
-0.000688968
0.072825
-0.000700731
0.0728206
-0.00071251
0.0728173
-0.000724301
0.072815
-0.000736103
0.0728138
-0.000747913
0.0728136
-0.000759727
0.0728144
-0.000771545
0.0728163
-0.000783363
-0.000795178
0.0688324
-0.000153393
-0.0688808
0.0687847
-0.000162792
0.0687376
-0.000172341
0.0686912
-0.000182015
0.0686454
-0.000191805
0.0686003
-0.000201709
0.0685559
-0.000211725
0.0685122
-0.000221853
0.0684693
-0.000232089
0.0684271
-0.000242432
0.0683856
-0.000252881
0.068345
-0.000263434
0.0683051
-0.000274088
0.068266
-0.000284842
0.0682277
-0.000295694
0.0681903
-0.000306642
0.0681536
-0.000317684
0.0681179
-0.000328818
0.068083
-0.000340042
0.0680489
-0.000351354
0.0680158
-0.000362752
0.0679835
-0.000374234
0.0679522
-0.000385797
0.0679217
-0.00039744
0.0678922
-0.00040916
0.0678637
-0.000420955
0.0678361
-0.000432824
0.0678094
-0.000444763
0.0677837
-0.000456771
0.067759
-0.000468846
0.0677352
-0.000480984
0.0677125
-0.000493185
0.0676908
-0.000505445
0.06767
-0.000517762
0.0676503
-0.000530134
0.0676316
-0.000542558
0.067614
-0.000555033
0.0675973
-0.000567556
0.0675818
-0.000580124
0.0675673
-0.000592734
0.0675538
-0.000605386
0.0675414
-0.000618075
0.0675301
-0.000630799
0.0675199
-0.000643557
0.0675107
-0.000656344
0.0675027
-0.000669159
0.0674957
-0.000682
0.0674898
-0.000694862
0.0674851
-0.000707744
0.0674814
-0.000720643
0.0674788
-0.000733556
0.0674774
-0.00074648
0.0674771
-0.000759412
0.0674779
-0.00077235
0.0674798
-0.00078529
-0.00079823
0.0639534
-0.000102245
-0.0640045
0.0639029
-0.000112288
0.0638531
-0.000122504
0.0638039
-0.000132861
0.0637554
-0.000143352
0.0637077
-0.000153974
0.0636607
-0.000164725
0.0636145
-0.000175604
0.063569
-0.000186607
0.0635243
-0.000197733
0.0634804
-0.000208979
0.0634373
-0.000220344
0.063395
-0.000231825
0.0633536
-0.00024342
0.063313
-0.000255126
0.0632733
-0.000266943
0.0632345
-0.000278866
0.0631966
-0.000290894
0.0631596
-0.000303024
0.0631235
-0.000315254
0.0630883
-0.000327583
0.0630541
-0.000340006
0.0630208
-0.000352522
0.0629885
-0.000365129
0.0629572
-0.000377824
0.0629268
-0.000390605
0.0628975
-0.000403469
0.0628691
-0.000416413
0.0628418
-0.000429436
0.0628155
-0.000442535
0.0627902
-0.000455708
0.0627659
-0.000468951
0.0627428
-0.000482263
0.0627206
-0.000495641
0.0626996
-0.000509082
0.0626796
-0.000522585
0.0626607
-0.000536145
0.0626429
-0.000549762
0.0626262
-0.000563431
0.0626107
-0.000577151
0.0625962
-0.000590919
0.0625829
-0.000604733
0.0625706
-0.000618589
0.0625596
-0.000632484
0.0625496
-0.000646417
0.0625409
-0.000660383
0.0625333
-0.000674381
0.0625268
-0.000688407
0.0625215
-0.000702459
0.0625174
-0.000716532
0.0625145
-0.000730625
0.0625127
-0.000744735
0.0625122
-0.000758857
0.0625128
-0.000772988
0.0625146
-0.000787127
-0.000801268
0.0594158
-4.83807e-05
-0.0594697
0.0593626
-5.91034e-05
0.0593101
-7.0019e-05
0.0592584
-8.10956e-05
0.0592074
-9.2325e-05
0.0591571
-0.000103704
0.0591076
-0.000115229
0.0590589
-0.000126899
0.059011
-0.00013871
0.0589639
-0.00015066
0.0589177
-0.000162746
0.0588723
-0.000174967
0.0588278
-0.000187318
0.0587842
-0.000199797
0.0587414
-0.000212403
0.0586996
-0.000225131
0.0586587
-0.000237979
0.0586188
-0.000250945
0.0585798
-0.000264026
0.0585418
-0.000277219
0.0585047
-0.000290521
0.0584686
-0.00030393
0.0584335
-0.000317443
0.0583995
-0.000331057
0.0583664
-0.000344769
0.0583344
-0.000358578
0.0583034
-0.00037248
0.0582735
-0.000386472
0.0582446
-0.000400553
0.0582168
-0.000414718
0.05819
-0.000428967
0.0581644
-0.000443296
0.0581398
-0.000457702
0.0581163
-0.000472183
0.058094
-0.000486737
0.0580728
-0.00050136
0.0580527
-0.00051605
0.0580337
-0.000530804
0.0580159
-0.00054562
0.0579993
-0.000560495
0.0579838
-0.000575427
0.0579694
-0.000590412
0.0579563
-0.000605447
0.0579443
-0.000620531
0.0579336
-0.000635659
0.057924
-0.00065083
0.0579157
-0.000666039
0.0579086
-0.000681285
0.0579027
-0.000696563
0.057898
-0.000711871
0.0578946
-0.000727206
0.0578924
-0.000742563
0.0578915
-0.00075794
0.0578919
-0.000773334
0.0578935
-0.00078874
-0.000804154
0.0551976
8.0222e-06
-0.055254
0.0551419
-3.41626e-06
0.055087
-1.50705e-05
0.0550328
-2.69065e-05
0.0549794
-3.89154e-05
0.0549268
-5.10928e-05
0.054875
-6.34353e-05
0.054824
-7.59399e-05
0.0547739
-8.86032e-05
0.0547247
-0.000101422
0.0546763
-0.000114393
0.0546289
-0.000127513
0.0545823
-0.000140779
0.0545367
-0.000154188
0.0544921
-0.000167736
0.0544484
-0.000181419
0.0544056
-0.000195236
0.0543638
-0.000209182
0.0543231
-0.000223254
0.0542833
-0.00023745
0.0542446
-0.000251766
0.0542068
-0.000266199
0.0541701
-0.000280745
0.0541345
-0.000295403
0.0540999
-0.00031017
0.0540663
-0.000325041
0.0540339
-0.000340015
0.0540025
-0.000355088
0.0539722
-0.000370259
0.053943
-0.000385523
0.0539149
-0.000400879
0.0538879
-0.000416323
0.0538621
-0.000431854
0.0538374
-0.000447468
0.0538138