/*--------------------------------*- C++ -*----------------------------------*\
  =========                 |
  \\      /  F ield         | OpenFOAM: The Open Source CFD Toolbox
   \\    /   O peration     | Website:  https://openfoam.org
    \\  /    A nd           | Version:  8
     \\/     M anipulation  |
\*---------------------------------------------------------------------------*/
FoamFile
{
    version     2.0;
    format      ascii;
    class       surfaceScalarField;
    location    "0.02294";
    object      phi;
}
// * * * * * * * * * * * * * * * * * * * * * * * * * * * * * * * * * * * * * //

dimensions      [0 3 -1 0 0 0 0];

internalField   nonuniform List<scalar> 
229439
(
-0.00359954
0.0263995
-0.0084003
0.0708008
-0.0119995
0.115199
-0.0167984
0.159599
-0.0215973
0.203999
-0.0251963
0.248399
-0.0287955
0.291599
-0.0323947
0.335999
-0.0359938
0.379199
-0.0395929
0.424799
-0.041992
0.466799
-0.045591
0.511199
-0.04919
0.555599
-0.0527891
0.597599
-0.0539881
0.640799
-0.0575871
0.685199
-0.0611861
0.727199
-0.0635851
0.770399
-0.0659841
0.812399
-0.0671831
0.854399
-0.070782
0.897599
-0.071981
0.938399
-0.07438
0.980399
-0.075579
1.0224
-0.0779779
1.0632
-0.0791769
1.104
-0.0815758
1.146
-0.0827748
1.1844
-0.0839738
1.2252
-0.0863727
1.266
-0.0875717
1.3044
-0.0887706
1.344
-0.0899696
1.3824
-0.0899686
1.4208
-0.0911676
1.4592
-0.0911666
1.4964
-0.0923656
1.5348
-0.0935645
1.572
-0.0935635
1.608
-0.0947625
1.644
-0.0947615
1.68
-0.0947605
1.716
-0.0947596
1.7496
-0.0947586
1.7856
-0.0947576
1.8192
-0.0947567
1.8528
-0.0947557
1.8864
-0.0935548
1.9188
-0.0935539
1.9512
-0.093553
1.9836
-0.0923521
2.0136
-0.0923512
2.046
-0.0911503
2.0748
-0.0905495
2.10564
-0.0897087
2.13468
-0.0887478
2.16336
-0.087787
2.19168
-0.0868262
2.2194
-0.0856254
2.24652
-0.0844246
2.27304
-0.0832239
2.2992
-0.0819031
2.32464
-0.0804624
2.34948
-0.0790217
2.37384
-0.0775809
2.3976
-0.0760203
2.42076
-0.0743396
2.4432
-0.0727789
2.46528
-0.0710982
2.48664
-0.0692976
2.50728
-0.067497
2.52744
-0.0655764
2.54688
-0.0636559
2.56572
-0.0616153
2.58396
-0.0595747
2.6016
-0.0576542
2.61864
-0.0554937
2.63484
-0.0533332
2.65044
-0.0511727
2.66556
-0.0488923
2.67984
-0.0467318
2.69364
-0.0445714
2.7066
-0.042171
2.71884
-0.0398906
2.73072
-0.0374902
2.74164
-0.0350899
2.75196
-0.0326895
2.76168
-0.0302892
2.77068
-0.0278889
2.77896
-0.0253686
2.78652
-0.0228483
2.79348
-0.0203281
2.79972
-0.0178078
2.80536
-0.0151677
2.81004
-0.0127675
2.81436
-0.0101873
2.8178
-0.00763117
2.82058
-0.005063
2.82266
-0.00249495
2.82404
7.32046e-05
2.82475
0.00264122
2.82475
0.00520935
2.82404
0.00777736
2.82266
0.0103334
2.82058
0.0129134
2.8178
0.0153134
2.81436
0.0179534
2.81004
0.0204733
2.80536
0.0229933
2.79972
0.0255131
2.79348
0.028033
2.78652
0.0304329
2.77896
0.0328327
2.77068
0.0352325
2.76168
0.0376324
2.75196
0.0400322
2.74164
0.0423119
2.73072
0.0447117
2.71884
0.0468714
2.7066
0.0490311
2.69364
0.0513108
2.67984
0.0534705
2.66556
0.0556302
2.65044
0.0577898
2.63484
0.0597094
2.61864
0.061749
2.6016
0.0637885
2.58396
0.0657081
2.56572
0.0676277
2.54688
0.0694272
2.52744
0.0712268
2.50728
0.0729062
2.48664
0.0744657
2.46528
0.0761451
2.4432
0.0777045
2.42076
0.0791439
2.3976
0.0805833
2.37384
0.0820227
2.34948
0.083342
2.32464
0.0845414
2.2992
0.0857407
2.27304
0.08694
2.24652
0.0878993
2.2194
0.0888585
2.19168
0.0898178
2.16336
0.090657
2.13468
0.0912562
2.10564
0.0924554
2.0748
0.0924545
2.046
0.0936537
2.0136
0.0936529
1.9836
0.093652
1.9512
0.0948511
1.9188
0.0948502
1.8864
0.0948492
1.8528
0.0948483
1.8192
0.0948473
1.7856
0.0948464
1.7496
0.0948454
1.716
0.0948445
1.68
0.0936434
1.644
0.0936424
1.608
0.0924413
1.572
0.0912402
1.5348
0.0912392
1.4964
0.0900381
1.4592
0.0900371
1.4208
0.088836
1.3824
0.0876349
1.344
0.0864338
1.3044
0.0840326
1.266
0.0828314
1.2252
0.0816303
1.1844
0.0792291
1.146
0.078028
1.104
0.0756268
1.0632
0.0744256
1.0224
0.0720245
0.980401
0.0708233
0.938401
0.0672221
0.897601
0.0660209
0.854401
0.0636197
0.812401
0.0612185
0.770401
0.0576173
0.727201
0.054016
0.685201
0.0528149
0.640801
0.0492137
0.597601
0.0456124
0.555601
0.0420112
0.511201
0.03961
0.466801
0.0360087
0.424801
0.0324075
0.379201
0.0288064
0.336001
0.0252053
0.291601
0.021604
0.248401
0.0168022
0.204002
0.0120006
0.159602
0.00839947
0.115201
0.00360068
0.0707988
0.0264007
-0.00479737
0.0311969
-0.00959789
0.0756013
-0.0131985
0.1188
-0.017997
0.164397
-0.0215941
0.207596
-0.023991
0.250796
-0.0287882
0.296396
-0.0323857
0.339597
-0.0359831
0.382797
-0.0395803
0.428396
-0.0431775
0.470396
-0.0467746
0.514796
-0.0479719
0.556796
-0.0515689
0.601196
-0.0551659
0.644396
-0.0575629
0.687596
-0.0599599
0.729596
-0.0623568
0.772796
-0.0647537
0.814796
-0.0683505
0.857996
-0.0695475
0.898796
-0.0731443
0.941996
-0.0743412
0.981596
-0.076738
1.0248
-0.0779349
1.0644
-0.0803316
1.1064
-0.0815285
1.1472
-0.0839253
1.1868
-0.0851221
1.2264
-0.085119
1.266
-0.0863159
1.3056
-0.0875127
1.3452
-0.0887095
1.3836
-0.0899063
1.422
-0.0911032
1.4604
-0.0923
1.4976
-0.092297
1.5348
-0.0922939
1.572
-0.0934908
1.6092
-0.0934878
1.644
-0.0946847
1.6812
-0.0934818
1.7148
-0.0946787
1.7508
-0.0946758
1.7856
-0.0946729
1.8192
-0.09467
1.8528
-0.0946672
1.8864
-0.0934645
1.9176
-0.0934616
1.9512
-0.0922589
1.9824
-0.093456
2.0148
-0.0910535
2.0436
-0.0910508
2.0748
-0.0904482
2.10504
-0.0896056
2.13384
-0.088763
2.16252
-0.0876805
2.1906
-0.0865981
2.21832
-0.0855157
2.24544
-0.0844333
2.27196
-0.083111
2.29788
-0.0817887
2.32332
-0.0803464
2.34804
-0.0790243
2.37252
-0.0774622
2.39604
-0.0759
2.4192
-0.0743379
2.44164
-0.072656
2.4636
-0.070854
2.48484
-0.0690521
2.50548
-0.0672503
2.52564
-0.0653284
2.54496
-0.0635267
2.56392
-0.061605
2.58204
-0.0595633
2.59956
-0.0574017
2.61648
-0.0553601
2.6328
-0.0533186
2.6484
-0.0510371
2.66328
-0.0488757
2.67768
-0.0465944
2.69136
-0.0443131
2.70432
-0.0420318
2.71656
-0.0396307
2.72832
-0.0373495
2.73936
-0.0349485
2.74956
-0.0325475
2.75928
-0.0300264
2.76816
-0.0276256
2.77656
-0.0252246
2.78412
-0.0227039
2.79096
-0.0201831
2.7972
-0.0176625
2.80284
-0.0151419
2.80752
-0.0126212
2.81184
-0.0100286
2.81521
-0.00747217
2.81802
-0.00490378
2.8201
-0.0023475
2.82149
0.000220829
2.82218
0.00278904
2.82218
0.00534529
2.82149
0.00791343
2.8201
0.0104696
2.81802
0.0130615
2.81521
0.0155813
2.81184
0.0181012
2.80752
0.0206211
2.80284
0.0231409
2.7972
0.0256607
2.79096
0.0280602
2.78412
0.03046
2.77656
0.0329794
2.76816
0.0353789
2.75928
0.0377784
2.74956
0.0400577
2.73936
0.0424571
2.72832
0.0447362
2.71656
0.0470155
2.70432
0.0492946
2.69136
0.0514537
2.67768
0.0537327
2.66328
0.0557716
2.6484
0.0578105
2.6328
0.0599693
2.61648
0.0620081
2.59956
0.0639268
2.58204
0.0657256
2.56392
0.067644
2.54496
0.0694426
2.52564
0.0712411
2.50548
0.0730395
2.48484
0.074718
2.4636
0.0762763
2.44164
0.0778344
2.4192
0.0793927
2.39604
0.0807109
2.37252
0.0821489
2.34804
0.083467
2.32332
0.0847849
2.29788
0.0858629
2.27196
0.0869407
2.24544
0.0880186
2.21832
0.0890963
2.1906
0.089934
2.16252
0.0907716
2.13384
0.0913692
2.10504
0.0913666
2.0748
0.0937644
2.0436
0.0925616
2.0148
0.093759
1.9824
0.0937563
1.9512
0.0949537
1.9176
0.0949509
1.8864
0.0949481
1.8528
0.0949452
1.8192
0.0949424
1.7856
0.0937393
1.7508
0.0949364
1.7148
0.0937333
1.6812
0.0937302
1.644
0.092527
1.6092
0.0925239
1.572
0.0925207
1.5348
0.0913175
1.4976
0.0901142
1.4604
0.0889108
1.422
0.0877074
1.3836
0.086504
1.3452
0.0853006
1.3056
0.0852973
1.266
0.0840938
1.2264
0.0816902
1.1868
0.0804867
1.1472
0.0780831
1.1064
0.0768796
1.0644
0.0744759
1.0248
0.0732724
0.981605
0.0696686
0.942005
0.0684651
0.898805
0.0648613
0.858005
0.0624577
0.814805
0.0600539
0.772805
0.0576503
0.729605
0.0552466
0.687605
0.0516428
0.644405
0.048039
0.601205
0.0468355
0.556805
0.0432318
0.514805
0.039628
0.470405
0.0360243
0.428405
0.0324208
0.382805
0.0288173
0.339605
0.0240133
0.296405
0.0216088
0.250806
0.0180045
0.207606
0.0132022
0.164404
0.00960327
0.1188
0.00480414
0.0755979
0.0312048
-0.00479606
0.035993
-0.00839404
0.0791993
-0.0131952
0.123601
-0.0167951
0.167997
-0.0203918
0.211193
-0.0251867
0.255591
-0.0287817
0.299991
-0.0323772
0.343192
-0.0359729
0.386392
-0.0383685
0.430792
-0.0431637
0.475191
-0.0455591
0.517192
-0.0491542
0.560391
-0.0527493
0.604791
-0.0551444
0.646791
-0.0575395
0.689991
-0.0611343
0.733191
-0.0635292
0.775191
-0.0659241
0.817191
-0.0671191
0.859191
-0.0707137
0.902391
-0.0719086
0.943191
-0.0755031
0.98519
-0.0766979
1.02599
-0.0790925
1.06679
-0.0802873
1.10759
-0.081482
1.14839
-0.0826768
1.18799
-0.0838715
1.22759
-0.0862661
1.26839
-0.0874607
1.30679
-0.0886554
1.34639
-0.0898501
1.38479
-0.0910449
1.42319
-0.0910396
1.46039
-0.0922343
1.49879
-0.0922292
1.53479
-0.0934239
1.57319
-0.0934188
1.60919
-0.0946137
1.64519
-0.0934088
1.67999
-0.0946037
1.71599
-0.0945986
1.75079
-0.0945935
1.78559
-0.0945888
1.81919
-0.0945838
1.85279
-0.0933791
1.88519
-0.0945741
1.91879
-0.0933696
1.94999
-0.0933649
1.98239
-0.0921603
2.01359
-0.0921556
2.04359
-0.0921512
2.07479
-0.0903469
2.10323
-0.0895024
2.13299
-0.0885382
2.16155
-0.0875741
2.18963
-0.0866097
2.21735
-0.0854057
2.24423
-0.0842016
2.27075
-0.0828778
2.29655
-0.081554
2.32199
-0.0803502
2.34683
-0.0787864
2.37095
-0.0773427
2.39459
-0.0757792
2.41763
-0.0740959
2.43995
-0.0724123
2.46191
-0.0707291
2.48315
-0.0690458
2.50379
-0.0671226
2.52371
-0.0653196
2.54315
-0.0632765
2.56187
-0.0613537
2.58011
-0.0594309
2.59763
-0.057388
2.61443
-0.0552254
2.63064
-0.053063
2.64624
-0.0509003
2.66112
-0.0487381
2.67552
-0.0464558
2.68908
-0.0441736
2.70204
-0.0418913
2.71428
-0.0396094
2.72604
-0.0372076
2.73696
-0.0348056
2.74716
-0.0324039
2.75688
-0.0300023
2.76576
-0.0274805
2.77404
-0.0249593
2.7816
-0.0225579
2.78856
-0.0200365
2.79468
-0.0175153
2.80032
-0.0149942
2.805
-0.0124733
2.80932
-0.00989244
2.81263
-0.00733573
2.81546
-0.0047671
2.81753
-0.00219834
2.81892
0.000370182
2.81961
0.00293857
2.81962
0.00550672
2.81892
0.00807499
2.81753
0.0106312
2.81546
0.0132113
2.81263
0.0157313
2.80932
0.018251
2.805
0.0207707
2.80032
0.0232902
2.79468
0.0256898
2.78856
0.0282093
2.7816
0.0307285
2.77404
0.0331277
2.76576
0.0355269
2.75688
0.0379258
2.74716
0.0403248
2.73696
0.0426037
2.72604
0.0448823
2.71428
0.0471609
2.70204
0.0494394
2.68908
0.051598
2.67552
0.0537561
2.66112
0.0559145
2.64624
0.0580727
2.63064
0.0601105
2.61444
0.0620285
2.59764
0.0639464
2.58012
0.065984
2.56188
0.0677817
2.54316
0.0696992
2.52372
0.0713765
2.5038
0.073054
2.48316
0.074731
2.46193
0.0764084
2.43997
0.0779654
2.41765
0.0794024
2.39461
0.0809591
2.37097
0.0821559
2.34685
0.0834726
2.32201
0.0847892
2.29657
0.0859856
2.27077
0.0871821
2.24425
0.0881381
2.21737
0.0890945
2.18965
0.0900507
2.16157
0.0908865
2.13301
0.0926825
2.10325
0.0926784
2.07481
0.092674
2.04361
0.0938697
2.01361
0.0938652
1.98241
0.0950609
1.95001
0.093856
1.91881
0.0950515
1.88521
0.0950467
1.85281
0.095042
1.81921
0.0950369
1.78561
0.0950319
1.75081
0.0938268
1.71601
0.0950218
1.68001
0.0938166
1.64521
0.0938114
1.60921
0.0926059
1.57321
0.0926006
1.53481
0.0913951
1.49881
0.0913896
1.46041
0.0901841
1.42321
0.0889784
1.38481
0.0877727
1.34641
0.0865669
1.30681
0.0841609
1.26841
0.0829551
1.22761
0.0817494
1.18801
0.0805434
1.14841
0.0793376
1.10761
0.0769315
1.06681
0.0757255
1.02601
0.0721192
0.985211
0.0709133
0.943211
0.067307
0.902411
0.0661011
0.859211
0.0636949
0.817211
0.0612888
0.775211
0.0576824
0.733211
0.0552763
0.690011
0.0528702
0.646811
0.0492639
0.604811
0.0456577
0.560411
0.0432516
0.517211
0.0384452
0.475211
0.0360392
0.430811
0.0324334
0.386411
0.0288271
0.343211
0.0252198
0.300012
0.0204122
0.255613
0.0168074
0.211211
0.0132074
0.168004
0.00840939
0.123598
0.00480627
0.079201
0.0360111
-0.003596
0.039589
-0.00839078
0.0839941
-0.0131905
0.128401
-0.0167917
0.171598
-0.0215896
0.215991
-0.0251839
0.259185
-0.0287768
0.303584
-0.03237
0.346785
-0.0359637
0.389986
-0.0395575
0.434386
-0.0419512
0.477585
-0.0455445
0.520785
-0.0491377
0.563985
-0.051531
0.607184
-0.055124
0.650384
-0.057517
0.692384
-0.05991
0.735584
-0.0623029
0.777584
-0.0658956
0.820783
-0.0682883
0.861584
-0.0694812
0.903583
-0.0718738
0.945583
-0.0742663
0.987583
-0.075459
1.02718
-0.0778515
1.06918
-0.0790442
1.10878
-0.0814366
1.15078
-0.0826291
1.18918
-0.0850215
1.22998
-0.086214
1.26958
-0.0874066
1.30798
-0.0873992
1.34638
-0.0885918
1.38598
-0.0897842
1.42438
-0.0909767
1.46158
-0.0909695
1.49878
-0.0933618
1.53718
-0.0933545
1.57318
-0.0933473
1.60918
-0.0933401
1.64518
-0.0945327
1.68118
-0.0945258
1.71598
-0.0945188
1.75078
-0.0945117
1.78558
-0.0945046
1.81918
-0.0944978
1.85278
-0.0944908
1.88518
-0.0932843
1.91758
-0.0932776
1.94998
-0.0932707
1.98238
-0.0920645
2.01239
-0.092058
2.04359
-0.0908515
2.07359
-0.0902452
2.10263
-0.0893992
2.13215
-0.0884331
2.16059
-0.087587
2.18879
-0.0863812
2.21615
-0.0852953
2.24315
-0.0840897
2.26955
-0.082884
2.29535
-0.0815584
2.32067
-0.080113
2.34539
-0.078668
2.36951
-0.0772226
2.39315
-0.0755376
2.41595
-0.0740926
2.43851
-0.072408
2.46023
-0.0706029
2.48135
-0.0687982
2.50199
-0.0669939
2.52191
-0.0651897
2.54135
-0.0632652
2.55995
-0.0612212
2.57807
-0.059177
2.59559
-0.0571334
2.61239
-0.0550894
2.62859
-0.0529258
2.64407
-0.0508825
2.65907
-0.0485988
2.67323
-0.0463155
2.68679
-0.0440325
2.69975
-0.0418697
2.71211
-0.0394667
2.72363
-0.0370637
2.73455
-0.0346612
2.74475
-0.0322588
2.75447
-0.0298565
2.76335
-0.0273343
2.77151
-0.0249322
2.7792
-0.0224102
2.78604
-0.0198883
2.79216
-0.0173665
2.7978
-0.0148451
2.80248
-0.0122036
2.80668
-0.00974243
2.81017
-0.00717311
2.81289
-0.00461621
2.81497
-0.0020474
2.81635
0.000521332
2.81705
0.0030899
2.81705
0.00565838
2.81635
0.00821477
2.81497
0.0107827
2.8129
0.0132429
2.81017
0.0158826
2.80668
0.0184025
2.80248
0.020922
2.7978
0.0234414
2.79216
0.0259607
2.78604
0.0283598
2.7792
0.0308788
2.77152
0.0332778
2.76336
0.0356766
2.75448
0.0380753
2.74476
0.0404735
2.73456
0.0428717
2.72364
0.04503
2.71212
0.0473083
2.69976
0.0495861
2.6868
0.0518635
2.67325
0.0539014
2.65909
0.0560589
2.64409
0.0580959
2.62861
0.0601334
2.61241
0.0621702
2.59561
0.0642073
2.57809
0.0661239
2.55997
0.0679206
2.54137
0.0697173
2.52193
0.0715135
2.50201
0.0733094
2.48137
0.0749857
2.46025
0.0764216
2.43853
0.0780974
2.41597
0.0795328
2.39317
0.0809686
2.36953
0.082404
2.34541
0.0837191
2.32069
0.084914
2.29537
0.0861091
2.26957
0.0871839
2.24317
0.0883787
2.21617
0.0892132
2.18881
0.0901677
2.16061
0.0910022
2.13217
0.0915963
2.10265
0.0927902
2.07361
0.0927841
2.04361
0.0939783
2.01241
0.0939717
1.98241
0.0939653
1.95001
0.095159
1.91761
0.0951522
1.88522
0.0951455
1.85282
0.0951386
1.81922
0.0951315
1.78562
0.0951245
1.75082
0.0951176
1.71602
0.09391
1.68122
0.0939027
1.64522
0.0938953
1.60922
0.0938878
1.57322
0.0914798
1.53722
0.0914722
1.49882
0.0902643
1.46162
0.0890562
1.42442
0.0878484
1.38602
0.0878405
1.34642
0.0866324
1.30802
0.0854242
1.26962
0.0830158
1.23002
0.0818076
1.18922
0.079399
1.15082
0.0781908
1.10882
0.0757823
1.06922
0.0745739
1.02722
0.0721652
0.98762
0.0697565
0.94562
0.0685482
0.903619
0.0661396
0.861619
0.0625307
0.82082
0.0601221
0.77762
0.0577135
0.73562
0.0553048
0.69242
0.051696
0.65042
0.0492874
0.60722
0.0456786
0.56402
0.0420699
0.52082
0.0396614
0.47762
0.036053
0.434419
0.0324443
0.390019
0.0288346
0.346821
0.0252241
0.303623
0.0216157
0.259222
0.0168127
0.216014
0.0132149
0.171602
0.00841463
0.128398
0.0036064
0.0840093
0.0396175
-0.00479564
0.0443846
-0.00958842
0.0887868
-0.0131854
0.131998
-0.0167866
0.1752
-0.0203865
0.219591
-0.0251816
0.26398
-0.0287732
0.307176
-0.0323641
0.350376
-0.0359556
0.393578
-0.0395475
0.437977
-0.0431393
0.481177
-0.0467307
0.524376
-0.0491223
0.566376
-0.0527134
0.610775
-0.0551046
0.652775
-0.0586955
0.695975
-0.0610865
0.737975
-0.0634774
0.779975
-0.0646684
0.821974
-0.0682588
0.865174
-0.0706493
0.905974
-0.0730398
0.947974
-0.0742304
0.988774
-0.0766208
1.02957
-0.0778114
1.07037
-0.0802017
1.11117
-0.081392
1.15197
-0.0825825
1.19037
-0.0837728
1.23117
-0.084963
1.27077
-0.0861534
1.30917
-0.0885436
1.34877
-0.0897337
1.38717
-0.0897243
1.42437
-0.0909146
1.46277
-0.0921049
1.49997
-0.0920955
1.53717
-0.0920863
1.57317
-0.0932766
1.61037
-0.0932673
1.64517
-0.093258
1.68117
-0.0944484
1.71717
-0.0944391
1.75077
-0.0944301
1.78557
-0.0944209
1.81918
-0.0932123
1.85158
-0.0932035
1.88518
-0.0943944
1.91878
-0.0931857
1.94878
-0.0919773
1.98118
-0.0919685
2.01238
-0.0907602
2.04238
-0.090752
2.07358
-0.0901438
2.10202
-0.0892957
2.1313
-0.0884477
2.15974
-0.0873598
2.1877
-0.0862723
2.21506
-0.0851845
2.24206
-0.0839773
2.26834
-0.0827697
2.29414
-0.0814427
2.31934
-0.0799957
2.34394
-0.0786685
2.36818
-0.0771018
2.39158
-0.0755352
2.41438
-0.0738487
2.43682
-0.0721623
2.45854
-0.0704764
2.47966
-0.0687902
2.5003
-0.0669842
2.5201
-0.0649387
2.5393
-0.0631333
2.55814
-0.0612073
2.57614
-0.0591625
2.59355
-0.0571171
2.61035
-0.0549525
2.62643
-0.0527874
2.64191
-0.0506228
2.65691
-0.0484583
2.67107
-0.0461743
2.68451
-0.0438901
2.69747
-0.0416059
2.70983
-0.039202
2.72123
-0.0369185
2.73227
-0.0345152
2.74235
-0.0321117
2.75207
-0.0295886
2.76083
-0.0273057
2.76923
-0.024663
2.77655
-0.0222604
2.78363
-0.0197383
2.78963
-0.0172159
2.79527
-0.0146942
2.79995
-0.0121721
2.80415
-0.00957862
2.80758
-0.00703327
2.81035
-0.00446367
2.8124
-0.00189462
2.81378
0.000674327
2.81448
0.00324308
2.81448
0.00581171
2.81378
0.0083798
2.8124
0.0109241
2.81035
0.0135163
2.80758
0.016036
2.80416
0.0185559
2.79996
0.0210752
2.79528
0.0235948
2.78964
0.0259938
2.78364
0.0286327
2.77656
0.0309114
2.76924
0.03343
2.76084
0.035828
2.75208
0.0382263
2.74236
0.0405045
2.73229
0.042902
2.72125
0.0451795
2.70985
0.0474568
2.69749
0.0497343
2.68453
0.0518913
2.67109
0.0540481
2.65693
0.0562044
2.64193
0.0583613
2.62645
0.0603973
2.61037
0.0624339
2.59357
0.0643492
2.57617
0.0661451
2.55817
0.0681809
2.53933
0.0699761
2.52013
0.0716512
2.50033
0.0733264
2.47969
0.0750012
2.45857
0.0766759
2.43685
0.0782304
2.41442
0.0797847
2.39162
0.0810985
2.36822
0.0825326
2.34398
0.0838465
2.31938
0.0850398
2.29418
0.0862334
2.26838
0.0873065
2.2421
0.0883798
2.2151
0.0894527
2.18774
0.0902853
2.15978
0.0911179
2.13134
0.0917102
2.10206
0.0917026
2.07362
0.0928948
2.04242
0.0928864
2.01242
0.0940784
1.98122
0.0952701
1.94882
0.0940613
1.91882
0.0940526
1.88522
0.0952443
1.85162
0.0952352
1.81922
0.0952262
1.78563
0.0952169
1.75083
0.0940072
1.71723
0.0939978
1.68123
0.0939883
1.64523
0.0927783
1.61043
0.0927688
1.57323
0.092759
1.53723
0.0915488
1.50003
0.0903386
1.46283
0.0903286
1.42443
0.089118
1.38723
0.0867074
1.34883
0.0854969
1.30923
0.0842862
1.27083
0.0830755
1.23123
0.0818649
1.19043
0.0806541
1.15203
0.0782431
1.11123
0.0770324
1.07043
0.0746214
1.02963
0.0734105
0.988831
0.0709994
0.948031
0.0685882
0.906031
0.0649767
0.865231
0.0637659
0.822031
0.0613548
0.780031
0.0589437
0.738031
0.0553323
0.696031
0.0529212
0.652831
0.0493097
0.610831
0.0468987
0.566431
0.0432874
0.524431
0.0396764
0.481231
0.0360653
0.438031
0.0324534
0.393631
0.0288402
0.350434
0.0252279
0.307235
0.0204206
0.264029
0.0168209
0.219614
0.0132231
0.1752
0.00961849
0.132003
0.00480704
0.0888207
0.0444245
-0.00479546
0.0491801
-0.00838763
0.092379
-0.013181
0.136791
-0.0179801
0.179999
-0.0215813
0.223192
-0.0251786
0.267577
-0.0287704
0.310768
-0.0323596
0.353965
-0.0371485
0.398366
-0.0395385
0.440368
-0.0431285
0.484767
-0.0455184
0.526766
-0.0491079
0.569966
-0.0514974
0.613165
-0.0550864
0.656364
-0.0574755
0.698364
-0.0598645
0.740364
-0.063453
0.783563
-0.0658417
0.824363
-0.0670307
0.866363
-0.0694192
0.908362
-0.0718075
0.950362
-0.0741958
0.991162
-0.0765839
1.03196
-0.0777722
1.07156
-0.0801603
1.11356
-0.0813484
1.15316
-0.0837363
1.19276
-0.0849245
1.23236
-0.0861127
1.27196
-0.0873008
1.31036
-0.0884887
1.34996
-0.0884772
1.38716
-0.0896652
1.42556
-0.0908532
1.46396
-0.0920413
1.50116
-0.0920297
1.53716
-0.0932178
1.57436
-0.0932062
1.61036
-0.0943943
1.64636
-0.094383
1.68116
-0.0943715
1.71716
-0.0943604
1.75076
-0.0943489
1.78556
-0.0943379
1.81916
-0.0943266
1.85156
-0.0943157
1.88516
-0.0931048
1.91756
-0.093094
1.94877
-0.0930833
1.98117
-0.091873
2.01117
-0.0918624
2.04237
-0.0906519
2.07237
-0.090042
2.10141
-0.089192
2.13045
-0.0882221
2.15877
-0.0872526
2.18673
-0.0862825
2.21409
-0.0850733
2.24085
-0.0838639
2.26713
-0.0826553
2.29293
-0.0813262
2.31801
-0.0799975
2.34261
-0.0784286
2.36661
-0.0768607
2.39001
-0.0754124
2.41293
-0.0738439
2.43525
-0.072156
2.45685
-0.0704682
2.47798
-0.068541
2.49838
-0.0667339
2.5183
-0.0649262
2.5375
-0.0629994
2.55622
-0.0609528
2.5741
-0.058906
2.5915
-0.0568597
2.6083
-0.0548136
2.62438
-0.0527677
2.63986
-0.0504819
2.65462
-0.0481968
2.66878
-0.0460309
2.68234
-0.0438656
2.6953
-0.0414609
2.70742
-0.0391764
2.71895
-0.0366522
2.72975
-0.0343676
2.74007
-0.0319636
2.74967
-0.0295598
2.75843
-0.0270362
2.76671
-0.0246328
2.77415
-0.0219896
2.78099
-0.0195865
2.78723
-0.0170641
2.79275
-0.0145409
2.79743
-0.0120193
2.80163
-0.00943647
2.80499
-0.00686679
2.80778
-0.00430926
2.80984
-0.00173996
2.81121
0.000829209
2.81191
0.00339815
2.81191
0.00596694
2.81121
0.00852352
2.80985
0.0110919
2.80778
0.0136712
2.805
0.0161917
2.80164
0.0187106
2.79744
0.0212302
2.79276
0.0236292
2.78724
0.026268
2.781
0.0286667
2.77416
0.0311851
2.76673
0.0335833
2.75845
0.0359813
2.74969
0.0382587
2.74009
0.0407764
2.72977
0.0430538
2.71897
0.0454511
2.70745
0.0476077
2.69533
0.0497637
2.68237
0.0520404
2.66881
0.0543164
2.65465
0.0563522
2.63989
0.0583879
2.62441
0.0604234
2.60833
0.0624582
2.59154
0.0644933
2.57414
0.0664082
2.55626
0.068202
2.53754
0.0699965
2.51834
0.0719109
2.49842
0.0735845
2.47802
0.075258
2.4569
0.0768109
2.4353
0.078244
2.41298
0.0797974
2.39006
0.0813497
2.36666
0.0826623
2.34266
0.0839743
2.31806
0.0851669
2.29299
0.0863585
2.26719
0.0875503
2.24091
0.0885012
2.21415
0.0894527
2.18679
0.0904035
2.15883
0.0912343
2.13051
0.0918252
2.10147
0.0930153
2.07243
0.0930053
2.04243
0.0941956
2.01123
0.0941853
1.98123
0.0941749
1.94883
0.0953644
1.91763
0.0953537
1.88523
0.0953426
1.85163
0.0953317
1.81924
0.0953203
1.78564
0.0953091
1.75084
0.0952975
1.71724
0.0952861
1.68124
0.0940739
1.64644
0.094062
1.61044
0.0928496
1.57444
0.0928375
1.53724
0.0916249
1.50124
0.0904122
1.46404
0.0891995
1.42564
0.0891871
1.38724
0.087974
1.35004
0.0867611
1.31044
0.0855481
1.27204
0.0843351
1.23244
0.0819216
1.19284
0.0807083
1.15324
0.0782947
1.11364
0.0770814
1.07164
0.0746677
1.03204
0.072254
0.991244
0.0698402
0.950444
0.0674266
0.908444
0.0662135
0.866444
0.0637998
0.824444
0.0601857
0.783645
0.057772
0.740445
0.0553584
0.698445
0.0517444
0.656445
0.0493309
0.613245
0.045717
0.570045
0.0433037
0.526844
0.0396901
0.484844
0.0372763
0.440444
0.0324605
0.398447
0.0288447
0.35405
0.0252328
0.310847
0.021629
0.267633
0.0180314
0.223211
0.0132303
0.180001
0.00841989
0.136813
0.0048074
0.0924332
0.0492319
-0.00359578
0.0527758
-0.00838732
0.0971705
-0.0119782
0.140382
-0.016774
0.184794
-0.0215746
0.227992
-0.025174
0.271177
-0.0287675
0.314361
-0.0323561
0.357554
-0.0359432
0.401953
-0.0395308
0.443955
-0.041919
0.487155
-0.0455069
0.530354
-0.0490945
0.573553
-0.0526817
0.616752
-0.0550691
0.658752
-0.0574564
0.700751
-0.061043
0.74395
-0.0622302
0.78475
-0.0658165
0.827949
-0.068203
0.868749
-0.0705893
0.910749
-0.071776
0.951549
-0.074162
0.993548
-0.0753484
1.03315
-0.0789339
1.07515
-0.0789204
1.11355
-0.0813061
1.15555
-0.082492
1.19395
-0.083678
1.23355
-0.0848639
1.27315
-0.0872491
1.31275
-0.0872354
1.34995
-0.0896208
1.38955
-0.0908065
1.42675
-0.0907927
1.46395
-0.0907789
1.50115
-0.0919646
1.53835
-0.0931504
1.57555
-0.0931366
1.61035
-0.0931231
1.64635
-0.0943089
1.68235
-0.0930956
1.71595
-0.0942815
1.75195
-0.0942682
1.78555
-0.093055
1.81795
-0.0942415
1.85275
-0.094228
1.88515
-0.0930154
1.91635
-0.0930025
1.94875
-0.0929896
1.98115
-0.0929769
2.01115
-0.0917646
2.04115
-0.0905524
2.07115
-0.0899402
2.1008
-0.0889682
2.12948
-0.0881162
2.15792
-0.0871445
2.18576
-0.0860532
2.213
-0.0849622
2.23976
-0.0837509
2.26592
-0.0825397
2.29172
-0.0812091
2.31668
-0.0797583
2.34116
-0.0783085
2.36516
-0.076858
2.38856
-0.0752881
2.41136
-0.0735988
2.43356
-0.0720293
2.45529
-0.0702199
2.47617
-0.0685307
2.49669
-0.0666018
2.51637
-0.0647934
2.53569
-0.0627448
2.55417
-0.0608169
2.57217
-0.0588891
2.58957
-0.0567216
2.60613
-0.0546737
2.62233
-0.0525066
2.63769
-0.0503396
2.65245
-0.0481729
2.66662
-0.0460068
2.68018
-0.0436005
2.6929
-0.0413149
2.70514
-0.038909
2.71654
-0.0366233
2.72746
-0.0342183
2.73766
-0.0318135
2.74726
-0.029409
2.75602
-0.0268841
2.76418
-0.0244805
2.77175
-0.0219566
2.77847
-0.0194329
2.78471
-0.0169094
2.79023
-0.0143867
2.79491
-0.0117437
2.79899
-0.00928136
2.80253
-0.00672276
2.80522
-0.00415294
2.80727
-0.00158337
2.80864
0.000986023
2.80934
0.00355516
2.80934
0.00612412
2.80864
0.00869282
2.80728
0.0112487
2.80523
0.0137089
2.80254
0.0163484
2.799
0.0188682
2.79492
0.0213872
2.79024
0.023906
2.78472
0.0264245
2.77849
0.0288234
2.77177
0.031341
2.76421
0.0337388
2.75605
0.0361364
2.74729
0.0385338
2.73769
0.0408105
2.72749
0.0432068
2.71657
0.0454836
2.70517
0.0478795
2.69293
0.0500357
2.68022
0.0521912
2.66666
0.0543464
2.6525
0.0565014
2.63774
0.0585356
2.62238
0.0606901
2.60618
0.0626044
2.58962
0.0645185
2.57222
0.0665518
2.55422
0.0683454
2.53574
0.0702583
2.51643
0.0719309
2.49675
0.0737233
2.47623
0.0752754
2.45535
0.0769479
2.43363
0.0784996
2.41143
0.0799306
2.38863
0.0813624
2.36523
0.082793
2.34123
0.0841038
2.31675
0.0852939
2.29179
0.0864839
2.266
0.087554
2.23984
0.088624
2.21308
0.0895733
2.18584
0.0904023
2.158
0.0913512
2.12956
0.0919398
2.10088
0.0931284
2.07124
0.0943169
2.04124
0.0943048
2.01124
0.0942924
1.98125
0.09428
1.94885
0.0954678
1.91645
0.0954546
1.88525
0.0942412
1.85285
0.0954282
1.81805
0.0954149
1.78565
0.0942006
1.75205
0.0953872
1.71605
0.0941727
1.68245
0.094159
1.64645
0.0941447
1.61045
0.0929299
1.57565
0.091715
1.53845
0.0917004
1.50125
0.0916858
1.46406
0.0904706
1.42686
0.0880548
1.38966
0.0880399
1.35006
0.0856237
1.31286
0.0844082
1.27326
0.0831927
1.23366
0.081977
1.19406
0.0795608
1.15566
0.0795455
1.11366
0.0759288
1.07526
0.0747132
1.03326
0.0722968
0.993661
0.0710812
0.95166
0.0686648
0.910861
0.0662486
0.868861
0.0626319
0.828061
0.0614162
0.784861
0.0577995
0.744061
0.0553835
0.700861
0.0529674
0.658861
0.0493508
0.616861
0.0457344
0.573661
0.0421182
0.530461
0.0397021
0.48726
0.0360847
0.444062
0.0324661
0.402066
0.0288495
0.357666
0.0252402
0.314456
0.0216399
0.271233
0.0168414
0.22801
0.0120349
0.184807
0.00842057
0.140428
0.00360697
0.0972468
0.0528389
-0.00479497
0.0575708
-0.00958674
0.101962
-0.0131761
0.143971
-0.0167686
0.188387
-0.0203674
0.231591
-0.023968
0.274778
-0.0287636
0.319157
-0.0323531
0.361144
-0.0359389
0.405539
-0.0395242
0.44754
-0.0431101
0.490741
-0.046696
0.53394
-0.0490821
0.575939
-0.0514679
0.619138
-0.055053
0.662337
-0.0574383
0.703137
-0.0598234
0.746336
-0.0634078
0.788335
-0.0645929
0.829135
-0.0681768
0.872333
-0.0693616
0.911934
-0.0729449
0.955132
-0.0741295
0.994732
-0.0765132
1.03553
-0.0776972
1.07633
-0.0800808
1.11593
-0.0812647
1.15673
-0.0824486
1.19513
-0.0848316
1.23593
-0.0860153
1.27433
-0.0859994
1.31273
-0.0883824
1.35233
-0.0883661
1.38953
-0.0895496
1.42793
-0.090733
1.46513
-0.0919167
1.50233
-0.0919004
1.53833
-0.0918842
1.57553
-0.093068
1.61153
-0.0942511
1.64753
-0.0930359
1.68113
-0.0942194
1.71713
-0.0942038
1.75193
-0.0941879
1.78553
-0.0941725
1.81794
-0.0941567
1.85274
-0.0929418
1.88394
-0.0941257
1.91754
-0.0929111
1.94754
-0.0916965
1.97994
-0.0916816
2.01114
-0.0916664
2.04114
-0.0904526
2.06994
-0.0898378
2.10018
-0.0889841
2.12862
-0.0881301
2.15706
-0.0870364
2.18466
-0.0860632
2.21202
-0.0848498
2.23855
-0.0837565
2.26483
-0.082304
2.29027
-0.0809716
2.31535
-0.0796393
2.33983
-0.0783068
2.36383
-0.076735
2.38699
-0.0751634
2.40979
-0.073592
2.43199
-0.0717808
2.45347
-0.0700903
2.47448
-0.0682795
2.49488
-0.066469
2.51456
-0.0645392
2.53376
-0.062729
2.55236
-0.0607997
2.57024
-0.0586301
2.5874
-0.0567012
2.6042
-0.0545325
2.62016
-0.0523641
2.63553
-0.0501966
2.65029
-0.048028
2.66445
-0.0457409
2.67789
-0.0434535
2.69061
-0.0411663
2.70285
-0.0388799
2.71425
-0.0364731
2.72505
-0.0340673
2.73526
-0.0316617
2.74486
-0.0291357
2.7535
-0.0267312
2.76178
-0.0242057
2.76922
-0.0218011
2.77606
-0.0192774
2.78218
-0.0167533
2.7877
-0.0142301
2.79239
-0.0117066
2.79647
-0.00911188
2.79994
-0.00655347
2.80266
-0.00399466
2.80471
-0.00142481
2.80607
0.00114482
2.80677
0.00371416
2.80677
0.00628328
2.80608
0.00883944
2.80472
0.011396
2.80267
0.0139882
2.79995
0.0165076
2.79648
0.0190274
2.7924
0.0215462
2.78772
0.0240654
2.7822
0.0264637
2.77609
0.0289811
2.76925
0.0313794
2.76181
0.0338963
2.75353
0.0362934
2.74489
0.0386904
2.73529
0.0410864
2.7251
0.0433628
2.7143
0.0456382
2.7029
0.0479134
2.69066
0.050189
2.67794
0.052343
2.6645
0.054498
2.65034
0.0566521
2.63558
0.0588059
2.62023
0.0607195
2.60427
0.0628722
2.58747
0.0647852
2.57031
0.0665773
2.55243
0.0684898
2.53383
0.0702813
2.51463
0.0720727
2.49496
0.0737443
2.47456
0.0755351
2.45356
0.0770857
2.43208
0.0786359
2.40988
0.080186
2.38708
0.0814951
2.36392
0.0828046
2.33992
0.0841138
2.31544
0.0855428
2.29037
0.0866109
2.26493
0.0877989
2.23865
0.0887471
2.21213
0.0898145
2.18477
0.0906416
2.15717
0.0914691
2.12873
0.0920552
2.1003
0.0932424
2.07006
0.0932279
2.04126
0.0932136
2.01126
0.0943997
1.98006
0.0955856
1.94766
0.0943698
1.91766
0.0955554
1.88406
0.0955398
1.85286
0.0955245
1.81806
0.0955085
1.78567
0.0954928
1.75207
0.094276
1.71727
0.0954607
1.68127
0.0942432
1.64767
0.0930264
1.61167
0.0930096
1.57567
0.0929925
1.53847
0.0917753
1.50247
0.0905576
1.46527
0.0893399
1.42807
0.0893224
1.38967
0.0869039
1.35248
0.0868865
1.31288
0.0856685
1.27448
0.0832496
1.23608
0.0820316
1.19528
0.0808134
1.15688
0.0783947
1.11608
0.0771763
1.07648
0.0747573
1.03568
0.0735394
0.994879
0.0699196
0.95528
0.0687015
0.912079
0.065082
0.87248
0.0638638
0.829279
0.0602445
0.78848
0.0578259
0.74648
0.0554073
0.703279
0.051788
0.66248