/*--------------------------------*- C++ -*----------------------------------*\
  =========                 |
  \\      /  F ield         | OpenFOAM: The Open Source CFD Toolbox
   \\    /   O peration     | Website:  https://openfoam.org
    \\  /    A nd           | Version:  8
     \\/     M anipulation  |
\*---------------------------------------------------------------------------*/
FoamFile
{
    version     2.0;
    format      ascii;
    class       volScalarField;
    location    "8.163";
    object      Co;
}
// * * * * * * * * * * * * * * * * * * * * * * * * * * * * * * * * * * * * * //

dimensions      [0 0 0 0 0 0 0];

internalField   nonuniform List<scalar> 
80000
(
6.64811
6.88436
7.10913
7.32201
7.52273
7.71109
7.887
8.05043
8.20142
8.3401
8.46662
8.58113
8.68388
8.77513
8.85514
8.9242
8.98265
9.03084
9.06914
9.09797
9.1177
9.12876
9.13161
9.13162
9.12699
9.11565
9.09828
9.0754
9.04742
9.01468
8.97746
8.93598
8.89044
8.84097
8.78773
8.73083
8.67036
8.60643
8.53913
8.46852
8.39467
8.31765
8.23754
8.15439
8.06826
7.97919
7.88725
7.7925
7.69498
7.59473
7.49182
7.3863
7.27822
7.16762
7.05456
6.93906
6.82121
6.70103
6.57857
6.45389
6.32702
6.19802
6.06693
5.9338
5.79868
5.66161
5.52264
5.3818
5.23913
5.0947
4.94854
4.80069
4.65117
4.50003
4.34729
4.193
4.03718
3.87984
3.721
3.56069
3.39893
3.23571
3.07107
2.90507
2.7378
2.56944
2.40025
2.23045
2.06021
1.88954
1.71848
1.54703
1.37522
1.2031
1.03074
0.858235
0.685719
0.513359
0.341385
0.170113
8.89794
8.93505
8.96087
8.97569
8.98082
8.97742
8.9666
8.94937
8.92663
8.89926
8.868
8.83353
8.79647
8.75737
8.71673
8.67495
8.63238
8.58931
8.54597
8.51121
8.47636
8.44123
8.4059
8.37458
8.34465
8.31306
8.27945
8.24358
8.20525
8.16433
8.12077
8.07452
8.02554
7.97382
7.91939
7.86226
7.80245
7.73998
7.67488
7.60721
7.53698
7.46425
7.38903
7.31136
7.2313
7.14888
7.06413
6.9771
6.88783
6.79635
6.70269
6.60691
6.50903
6.40911
6.30717
6.20327
6.09743
5.98968
5.88007
5.76866
5.65546
5.54053
5.4239
5.30561
5.18569
5.0642
4.94117
4.81665
4.69068
4.56331
4.43457
4.30451
4.1732
4.04066
3.90696
3.77216
3.63632
3.4995
3.36177
3.2232
3.08387
2.94387
2.80323
2.66198
2.52008
2.37742
2.23393
2.0896
1.94448
1.79866
1.65219
1.50515
1.35756
1.20944
1.0608
0.911602
0.761797
0.611266
0.459827
0.307152
7.84027
7.82006
7.80078
7.78271
7.7659
7.75031
7.73585
7.7224
7.7098
7.69784
7.68628
7.6749
7.66343
7.65164
7.63927
7.62607
7.6118
7.59623
7.58716
7.58663
7.58375
7.57797
7.56912
7.55707
7.54182
7.52341
7.50187
7.47726
7.44961
7.419
7.38549
7.3491
7.30991
7.26797
7.22333
7.17604
7.12614
7.07367
7.01868
6.96122
6.90131
6.839
6.77435
6.70737
6.63811
6.56662
6.49292
6.41704
6.33903
6.25894
6.17678
6.0926
6.00644
5.91832
5.8283
5.7364
5.64265
5.54711
5.4498
5.35077
5.25003
5.14765
5.04364
4.93806
4.83094
4.72232
4.61224
4.50074
4.38784
4.27361
4.15807
4.04127
3.92325
3.80405
3.68371
3.56227
3.43979
3.3163
3.19183
3.06644
2.94016
2.813
2.68501
2.55621
2.42662
2.29625
2.16514
2.03333
1.90087
1.76783
1.63424
1.50018
1.36568
1.23079
1.09556
0.960013
0.824203
0.688154
0.551899
0.415466
7.07006
7.07033
7.07124
7.07224
7.07303
7.07335
7.07293
7.07154
7.06896
7.06499
7.05944
7.05217
7.04304
7.03192
7.01872
7.00337
6.98578
6.97331
6.97078
6.96792
6.9623
6.95395
6.94293
6.92932
6.91319
6.8946
6.87358
6.85016
6.82434
6.79614
6.76559
6.73268
6.69745
6.6599
6.62006
6.57794
6.53357
6.48697
6.43817
6.38718
6.33404
6.27877
6.22142
6.16199
6.10051
6.03702
5.97154
5.90411
5.83476
5.76351
5.69039
5.61544
5.53869
5.46016
5.37989
5.2979
5.21424
5.12893
5.04201
4.9535
4.86343
4.77185
4.67877
4.58425
4.48831
4.39097
4.29228
4.19227
4.09098
3.98844
3.88468
3.77974
3.67365
3.56646
3.45819
3.34889
3.23858
3.12732
3.01512
2.90204
2.78808
2.67329
2.55771
2.44136
2.32427
2.20647
2.08798
1.96884
1.84908
1.72874
1.60786
1.48647
1.36462
1.24233
1.11965
0.996613
0.873256
0.749618
0.625738
0.501659
6.53364
6.53455
6.53487
6.53462
6.5336
6.53163
6.52854
6.52421
6.51854
6.51144
6.50281
6.49259
6.48073
6.46716
6.45184
6.43472
6.41828
6.41772
6.41948
6.41883
6.41577
6.41028
6.40241
6.39216
6.37954
6.36458
6.34729
6.3277
6.30583
6.28169
6.25532
6.22673
6.19596
6.16302
6.12794
6.09075
6.05147
6.01012
5.96672
5.92131
5.87391
5.82455
5.77325
5.72004
5.66494
5.60799
5.54921
5.48861
5.42624
5.36211
5.29627
5.22872
5.1595
5.08864
5.01617
4.94211
4.86649
4.78934
4.71069
4.63058
4.54901
4.46604
4.38168
4.29596
4.20891
4.12058
4.03098
3.94015
3.84812
3.75491
3.66056
3.56511
3.46857
3.371
3.27241
3.17282
3.07229
2.97085
2.86852
2.76532
2.66129
2.55647
2.45089
2.34457
2.23754
2.12984
2.0215
1.91254
1.803
1.69292
1.58234
1.47127
1.35976
1.24785
1.13556
1.02293
0.910002
0.796799
0.683359
0.569716
6.10029
6.10046
6.09955
6.09739
6.09391
6.08908
6.08285
6.07518
6.06602
6.05533
6.04309
6.02926
6.01381
5.99671
5.97795
5.95751
5.94953
5.95233
5.95303
5.95162
5.94814
5.94256
5.9349
5.92517
5.91338
5.89956
5.88371
5.86585
5.84599
5.82414
5.80031
5.77453
5.7468
5.71715
5.68558
5.65213
5.61679
5.5796
5.54058
5.49973
5.45707
5.41264
5.36644
5.3185
5.26886
5.21751
5.16448
5.1098
5.0535
4.99559
4.93609
4.87503
4.81243
4.74832
4.68272
4.61567
4.54717
4.47725
4.40595
4.33328
4.25928
4.18397
4.10736
4.0295
3.95041
3.8701
3.78863
3.706
3.62224
3.53739
3.45147
3.36451
3.27654
3.18758
3.09767
3.00682
2.91508
2.82246
2.729
2.63473
2.53966
2.44384
2.3473
2.25005
2.15212
2.05356
1.95437
1.8546
1.75427
1.65342
1.55207
1.45025
1.34799
1.24533
1.14229
1.03891
0.935214
0.831237
0.727012
0.622567
5.7127
5.70891
5.70396
5.69791
5.69074
5.68237
5.6728
5.66196
5.64984
5.6364
5.62162
5.60546
5.58791
5.56893
5.54851
5.53277
5.53502
5.53778
5.53865
5.53764
5.53475
5.52998
5.52333
5.51481
5.50443
5.49218
5.47809
5.46216
5.4444
5.42483
5.40344
5.38027
5.35533
5.32861
5.30015
5.26995
5.23803
5.2044
5.1691
5.13212
5.09349
5.05322
5.01133
4.96785
4.92279
4.87617
4.828
4.77831
4.72712
4.67445
4.62032
4.56474
4.50774
4.44934
4.38957
4.32845
4.26598
4.20221
4.13714
4.07081
4.00324
3.93445
3.86447
3.79331
3.721
3.64756
3.57302
3.49741
3.42075
3.34306
3.26436
3.18469
3.10407
3.02252
2.94007
2.85675
2.77257
2.68758
2.60178
2.51521
2.4279
2.33987
2.25114
2.16174
2.07171
1.98106
1.88982
1.79802
1.70569
1.61285
1.51953
1.42577
1.33157
1.23699
1.14203
1.04674
0.951137
0.855249
0.759106
0.662738
5.35725
5.35161
5.34484
5.33688
5.32773
5.31736
5.30577
5.29293
5.27883
5.26345
5.24678
5.22881
5.20951
5.18889
5.16701
5.16446
5.16831
5.17049
5.171
5.16982
5.16697
5.16244
5.15623
5.14835
5.1388
5.12758
5.1147
5.10016
5.08397
5.06615
5.0467
5.02562
5.00293
4.97864
4.95276
4.92531
4.89628
4.8657
4.83359
4.79994
4.76479
4.72813
4.68999
4.65039
4.60933
4.56684
4.52293
4.47761
4.43091
4.38284
4.33342
4.28268
4.23061
4.17726
4.12262
4.06673
4.00961
3.95126
3.89172
3.83099
3.76912
3.70611
3.64198
3.57676
3.51046
3.44312
3.37474
3.30535
3.23499
3.16366
3.09138
3.01819
2.94411
2.86915
2.79335
2.71672
2.63928
2.56106
2.4821
2.4024
2.32199
2.2409
2.15914
2.07675
1.99376
1.91017
1.82602
1.74133
1.65613
1.57044
1.48429
1.3977
1.31069
1.2233
1.13555
1.04747
0.959068
0.870386
0.781446
0.692273
5.03242
5.02464
5.01575
5.00578
4.99471
4.98254
4.96923
4.95478
4.93918
4.92242
4.90447
4.88534
4.86502
4.84348
4.82968
4.83468
4.83817
4.84015
4.8406
4.83953
4.83693
4.83281
4.82716
4.81999
4.81129
4.80108
4.78935
4.77611
4.76136
4.74511
4.72737
4.70815
4.68746
4.66529
4.64167
4.6166
4.59009
4.56215
4.5328
4.50204
4.46989
4.43636
4.40147
4.36522
4.32763
4.28871
4.24849
4.20697
4.16416
4.1201
4.07478
4.02823
3.98046
3.93149
3.88133
3.83001
3.77754
3.72393
3.66921
3.6134
3.5565
3.49854
3.43955
3.37953
3.31851
3.25651
3.19354
3.12963
3.0648
2.99906
2.93244
2.86496
2.79664
2.72749
2.65755
2.58682
2.51534
2.44312
2.37018
2.29656
2.22226
2.14731
2.07174
1.99556
1.91879
1.84147
1.76361
1.68523
1.60636
1.52702
1.44724
1.36703
1.28642
1.20543
1.12409
1.04242
0.960447
0.878188
0.79567
0.712916
4.73148
4.7225
4.71247
4.70136
4.68918
4.67592
4.66157
4.64613
4.62958
4.61192
4.59315
4.57327
4.55227
4.53237
4.53237
4.53685
4.53994
4.54166
4.54199
4.54094
4.5385
4.53467
4.52945
4.52283
4.51484
4.50545
4.49468
4.48254
4.46901
4.45411
4.43785
4.42023
4.40126
4.38093
4.35927
4.33628
4.31197
4.28634
4.25941
4.23119
4.20168
4.1709
4.13886
4.10557
4.07104
4.03529
3.99832
3.96015
3.92079
3.88026
3.83858
3.79574
3.75177
3.70668
3.6605
3.61323
3.56488
3.51548
3.46505
3.41359
3.36112
3.30766
3.25323
3.19784
3.14152
3.08427
3.02612
2.96709
2.90718
2.84643
2.78485
2.72246
2.65928
2.59532
2.5306
2.46515
2.39899
2.33213
2.26458
2.19639
2.12755
2.0581
1.98806
1.91743
1.84625
1.77454
1.70231
1.62959
1.55639
1.48274
1.40866
1.33418
1.2593
1.18406
1.10847
1.03256
0.956351
0.879859
0.803108
0.726121
4.45418
4.44411
4.43302
4.42093
4.40782
4.39371
4.37857
4.36241
4.34523
4.327
4.30775
4.28746
4.26613
4.25628
4.26165
4.26576
4.26861
4.27019
4.27049
4.26953
4.26729
4.26378
4.25899
4.25291
4.24556
4.23695
4.22705
4.21589
4.20346
4.18977
4.17482
4.15862
4.14117
4.12248
4.10255
4.0814
4.05902
4.03543
4.01064
3.98465
3.95747
3.92911
3.89959
3.8689
3.83707
3.8041
3.77001
3.73479
3.69848
3.66108
3.6226
3.58305
3.54244
3.5008
3.45813
3.41445
3.36976
3.3241
3.27746
3.22986
3.18132
3.13187
3.08149
3.03022
2.97808
2.92506
2.8712
2.81651
2.761
2.7047
2.64761
2.58976
2.53117
2.47184
2.4118
2.35106
2.28965
2.22758
2.16487
2.10153
2.03759
1.97306
1.90797
1.84233
1.77616
1.70948
1.6423
1.57465
1.50655
1.43802
1.36907
1.29972
1.23
1.15993
1.08952
1.01879
0.947768
0.876468
0.804913
0.733122
4.19658
4.18585
4.17415
4.16149
4.14786
4.13326
4.11768
4.10114
4.08363
4.06513
4.04567
4.02523
4.00724
4.00919
4.01415
4.01795
4.02059
4.02206
4.02236
4.02148
4.01942
4.01619
4.01178
4.00619
3.99943
3.99149
3.98237
3.97209
3.96063
3.948
3.93422
3.91928
3.90318
3.88594
3.86756
3.84803
3.82738
3.8056
3.7827
3.75869
3.73359
3.70739
3.6801
3.65173
3.6223
3.59182
3.56029
3.52771
3.49411
3.45949
3.42387
3.38725
3.34965
3.31108
3.27155
3.23108
3.18967
3.14733
3.10409
3.05996
3.01494
2.96905
2.92231
2.87473
2.82633
2.77711
2.7271
2.6763
2.62474
2.57242
2.51937
2.4656
2.41113
2.35596
2.30012
2.24362
2.18649
2.12873
2.07036
2.0114
1.95187
1.89178
1.83115
1.77
1.70834
1.6462
1.58358
1.52051
1.45701
1.39309
1.32877
1.26407
1.19901
1.1336
1.06787
1.00183
0.935502
0.868901
0.802048
0.734961
3.95783
3.94658
3.93442
3.92134
3.90734
3.89243
3.87661
3.85988
3.84222
3.82366
3.80418
3.78378
3.77647
3.78219
3.78684
3.7904
3.79289
3.79429
3.7946
3.79383
3.79196
3.78901
3.78496
3.77982
3.77359
3.76628
3.75787
3.74837
3.73779
3.72614
3.7134
3.69959
3.68471
3.66876
3.65174
3.63368
3.61456
3.5944
3.5732
3.55096
3.52771
3.50343
3.47814
3.45185
3.42457
3.3963
3.36705
3.33683
3.30566
3.27353
3.24047
3.20648
3.17157
3.13575
3.09903
3.06143
3.02295
2.98361
2.94341
2.90238
2.86052
2.81785
2.77437
2.7301
2.68506
2.63925
2.5927
2.54541
2.49739
2.44867
2.39925
2.34916
2.29839
2.24698
2.19493
2.14226
2.08898
2.03511
1.98066
1.92565
1.8701
1.81402
1.75743
1.70033
1.64276
1.58472
1.52623
1.46731
1.40797
1.34823
1.2881
1.22761
1.16677
1.1056
1.04411
0.982324
0.920253
0.857918
0.795336
0.732522
3.73554
3.72401
3.7116
3.69833
3.68419
3.66918
3.6533
3.63655
3.61894
3.60047
3.58114
3.56448
3.56751
3.57288
3.57726
3.58063
3.583
3.58436
3.5847
3.58403
3.58235
3.57966
3.57594
3.57122
3.56548
3.55872
3.55096
3.54218
3.5324
3.5216
3.50981
3.49702
3.48323
3.46844
3.45267
3.43591
3.41817
3.39946
3.37979
3.35915
3.33754
3.315
3.29151
3.26708
3.24172
3.21544
3.18825
3.16016
3.13116
3.10128
3.07052
3.03889
3.0064
2.97306
2.93887
2.90386
2.86802
2.83137
2.79393
2.75569
2.71668
2.6769
2.63637
2.5951
2.55309
2.51036
2.46693
2.42281
2.378
2.33252
2.28639
2.23962
2.19222
2.1442
2.09558
2.04637
1.99659
1.94624
1.89535
1.84393
1.79198
1.73954
1.6866
1.63319
1.57933
1.52502
1.47027
1.41512
1.35956
1.30362
1.24732
1.19065
1.13366
1.07634
1.01871
0.960797
0.902607
0.84416
0.78547
0.726554
3.52864
3.51694
3.50442
3.49107
3.47689
3.4619
3.44608
3.42945
3.412
3.39374
3.37467
3.36814
3.37416
3.37924
3.38339
3.3866
3.38888
3.39021
3.3906
3.39004
3.38854
3.38609
3.38269
3.37834
3.37305
3.36681
3.35963
3.35151
3.34244
3.33244
3.3215
3.30962
3.29682
3.28308
3.26843
3.25285
3.23636
3.21896
3.20066
3.18145
3.16135
3.14036
3.11849
3.09574
3.07212
3.04764
3.02231
2.99612
2.9691
2.94125
2.91256
2.88306
2.85276
2.82165
2.78976
2.75708
2.72363
2.68943
2.65446
2.61876
2.58233
2.54517
2.50731
2.46874
2.42948
2.38955
2.34895
2.3077
2.2658
2.22327
2.18013
2.13637
2.09202
2.04708
2.00158
1.95551
1.90891
1.86177
1.81411
1.76594
1.71729
1.66815
1.61855
1.56849
1.518
1.46709
1.41576
1.36404
1.31194
1.25947
1.20664
1.15347
1.09998
1.04618
0.992087
0.937709
0.883065
0.828171
0.773039
0.717688
3.33556
3.32382
3.3113
3.298
3.28391
3.26905
3.25342
3.23701
3.21982
3.20187
3.18581
3.18899
3.19469
3.19953
3.20349
3.20657
3.20877
3.21009
3.21052
3.21007
3.20873
3.20651
3.20341
3.19941
3.19453
3.18877
3.18212
3.17459
3.16618
3.15689
3.14672
3.13568
3.12377
3.11099
3.09735
3.08284
3.06748
3.05127
3.03421
3.0163
2.99756
2.97798
2.95758
2.93635
2.91431
2.89146
2.86781
2.84335
2.81812
2.79209
2.7653
2.73773
2.70941
2.68033
2.65052
2.61997
2.58869
2.55669
2.52398
2.49058
2.45649
2.42172
2.38627
2.35017
2.31342
2.27603
2.23801
2.19937
2.16012
2.12027
2.07984
2.03883
1.99726
1.95513
1.91247
1.86928
1.82557
1.78136
1.73664
1.69146
1.6458
1.59969
1.55313
1.50614
1.45874
1.41092
1.36272
1.31414
1.2652
1.2159
1.16626
1.11629
1.06602
1.01544
0.964575
0.913443
0.862052
0.810414
0.758551
0.706467
3.15526
3.14357
3.13114
3.11797
3.10405
3.0894
3.07401
3.05789
3.04104
3.02347
3.016
3.02225
3.02769
3.0323
3.03609
3.03906
3.0412
3.04251
3.04299
3.04264
3.04147
3.03946
3.03662
3.03295
3.02845
3.02312
3.01695
3.00997
3.00215
2.99352
2.98406
2.97378
2.96268
2.95077
2.93805
2.92452
2.91018
2.89505
2.87912
2.86239
2.84488
2.82659
2.80752
2.78768
2.76707
2.7457
2.72357
2.7007
2.67708
2.65273
2.62765
2.60184
2.57532
2.5481
2.52017
2.49155
2.46225
2.43227
2.40162
2.37031
2.33836
2.30576
2.27253
2.23867
2.20421
2.16913
2.13346
2.09721
2.06037
2.02298
1.98503
1.94654
1.90751
1.86795
1.82789
1.78731
1.74626
1.70472
1.66271
1.62025
1.57734
1.53399
1.49023
1.44605
1.40148
1.35651
1.31117
1.26548
1.21943
1.17304
1.12633
1.0793
1.03198
0.984362
0.936472
0.888323
0.839921
0.791284
0.742425
0.693351
2.98661
2.97505
2.96278
2.9498
2.93612
2.92174
2.90667
2.8909
2.87445
2.85825
2.86073
2.86669
2.87188
2.8763
2.87994
2.8828
2.88489
2.8862
2.88673
2.88648
2.88545
2.88364
2.88105
2.87767
2.87352
2.86858
2.86287
2.85638
2.84911
2.84107
2.83225
2.82267
2.81232
2.8012
2.78931
2.77667
2.76327
2.74912
2.73422
2.71858
2.70219
2.68507
2.66722
2.64864
2.62933
2.60932
2.58859
2.56715
2.54502
2.52219
2.49867
2.47447
2.4496
2.42407
2.39787
2.37102
2.34352
2.31538
2.28662
2.25723
2.22723
2.19661
2.16541
2.13361
2.10123
2.06828
2.03476
2.00069
1.96608
1.93093
1.89525
1.85906
1.82236
1.78517
1.74749
1.70933
1.6707
1.63162
1.59209
1.55213
1.51174
1.47095
1.42974
1.38815
1.34618
1.30383
1.26113
1.21809
1.1747
1.131
1.08698
1.04266
0.998053
0.953171
0.908022
0.862622
0.816979
0.771108
0.72502
0.678725
2.82872
2.81733
2.80527
2.79254
2.77914
2.76508
2.75037
2.735
2.71897
2.70914
2.71555
2.72124
2.7262
2.73044
2.73395
2.73672
2.73877
2.74007
2.74065
2.74049
2.7396
2.73797
2.7356
2.7325
2.72866
2.72409
2.71878
2.71275
2.70598
2.69848
2.69026
2.68131
2.67163
2.66124
2.65012
2.6383
2.62575
2.6125
2.59855
2.58389
2.56853
2.55248
2.53574
2.51832
2.50021
2.48143
2.46198
2.44186
2.42108
2.39964
2.37756
2.35484
2.33148
2.30749
2.28287
2.25764
2.2318
2.20536
2.17831
2.15068
2.12247
2.09369
2.06434
2.03442
2.00397
1.97296
1.94143
1.90937
1.87679
1.84371
1.81012
1.77605
1.74149
1.70647
1.67098
1.63504
1.59865
1.56183
1.52459
1.48693
1.44887
1.41042
1.37158
1.33237
1.2928
1.25287
1.2126
1.172
1.13108
1.08985
1.04832
1.0065
0.964404
0.922045
0.879429
0.836571
0.793479
0.750164
0.706642
0.66292
2.68069
2.66952
2.65771
2.64527
2.6322
2.6185
2.60417
2.58922
2.57366
2.57339
2.57952
2.58496
2.58972
2.59379
2.59717
2.59987
2.60187
2.60318
2.6038
2.60372
2.60295
2.60148
2.59932
2.59647
2.59293
2.58869
2.58376
2.57814
2.57183
2.56483
2.55715
2.54878
2.53973
2.52999
2.51959
2.5085
2.49675
2.48432
2.47123
2.45748
2.44306
2.428
2.41228
2.39591
2.3789
2.36126
2.34298
2.32407
2.30454
2.28439
2.26362
2.24225
2.22028
2.19771
2.17455
2.15081
2.12649
2.1016
2.07615
2.05014
2.02357
1.99646
1.96882
1.94065
1.91196
1.88276
1.85304
1.82283
1.79213
1.76095
1.7293
1.69718
1.66459
1.63157
1.59811
1.56421
1.52989
1.49516
1.46003
1.4245
1.38859
1.3523
1.31565
1.27864
1.24128
1.20359
1.16558
1.12724
1.08859
1.04966
1.01043
0.970926
0.931158
0.891135
0.850865
0.810364
0.769636
0.728694
0.687549
0.646216
2.54178
2.53086
2.51934
2.50721
2.49449
2.48117
2.46726
2.45276
2.44071
2.44598
2.45184
2.45705
2.46162
2.46554
2.4688
2.47142
2.47338
2.47469
2.47534
2.47534
2.47468
2.47337
2.4714
2.46878
2.4655
2.46156
2.45698
2.45174
2.44585
2.43931
2.43212
2.42429
2.41581
2.40669
2.39693
2.38653
2.3755
2.36383
2.35153
2.33861
2.32507
2.31091
2.29613
2.28074
2.26474
2.24814
2.23094
2.21314
2.19476
2.17579
2.15624
2.13612
2.11542
2.09416
2.07235
2.04998
2.02706
2.00361
1.97962
1.9551
1.93005
1.9045
1.87844
1.85187
1.82481
1.79726
1.76924
1.74073
1.71177
1.68235
1.65247
1.62216
1.59141
1.56023
1.52864
1.49664
1.46424
1.43144
1.39826
1.3647
1.33078
1.2965
1.26187
1.2269
1.1916
1.15598
1.12005
1.08381
1.04728
1.01047
0.973379
0.936027
0.898419
0.860564
0.822476
0.784163
0.745631
0.706895
0.667963
0.628846
2.41128
2.40064
2.38943
2.37764
2.36528
2.35236
2.33888
2.32484
2.31997
2.32619
2.3318
2.3368
2.34119
2.34496
2.34811
2.35065
2.35258
2.35388
2.35456
2.35463
2.35407
2.3529
2.3511
2.34869
2.34565
2.342
2.33773
2.33284
2.32734
2.32122
2.31449
2.30715
2.2992
2.29064
2.28147
2.27171
2.26134
2.25037
2.23881
2.22665
2.21391
2.20058
2.18667
2.17218
2.15712
2.14148
2.12528
2.10851
2.09118
2.0733
2.05488
2.0359
2.01639
1.99634
1.97577
1.95467
1.93305
1.91092
1.88828
1.86514
1.84151
1.81739
1.79278
1.76771
1.74215
1.71614
1.68968
1.66276
1.6354
1.60761
1.57939
1.55074
1.52169
1.49223
1.46237
1.43213
1.4015
1.3705
1.33913
1.3074
1.27533
1.24291
1.21016
1.17709
1.1437
1.11
1.07601
1.04172
1.00716
0.972322
0.937222
0.901869
0.866272
0.830438
0.794377
0.758101
0.721616
0.684934
0.648063
0.611014
2.28858
2.27823
2.26734
2.2559
2.24393
2.23142
2.21837
2.20479
2.20744
2.21339
2.21877
2.22357
2.22778
2.23142
2.23447
2.23694
2.23882
2.24012
2.24083
2.24095
2.24049
2.23944
2.2378
2.23558
2.23277
2.22937
2.22539
2.22083
2.21568
2.20995
2.20364
2.19675
2.18929
2.18124
2.17263
2.16345
2.15369
2.14337
2.13249
2.12104
2.10904
2.09648
2.08337
2.06971
2.05551
2.04076
2.02548
2.00967
1.99332
1.97645
1.95906
1.94115
1.92273
1.90381
1.88438
1.86446
1.84405
1.82315
1.80176
1.7799
1.75757
1.73478
1.71153
1.68783
1.66369
1.6391
1.61408
1.58863
1.56276
1.53648
1.5098
1.48271
1.45523
1.42737
1.39912
1.37051
1.34153
1.3122
1.28251
1.25249
1.22213
1.19145
1.16045
1.12914
1.09753
1.06563
1.03344
1.00097
0.968239
0.935244
0.901997
0.868509
0.834784
0.800836
0.766667
0.732292
0.697718
0.662953
0.628005
0.592885
2.17308
2.16304
2.15249
2.14141
2.12982
2.11773
2.10512
2.09526
2.10134
2.10704
2.1122
2.11681
2.12086
2.12437
2.12732
2.12971
2.13156
2.13284
2.13358
2.13375
2.13337
2.13243
2.13094
2.12889
2.12628
2.12312
2.11941
2.11514
2.11032
2.10495
2.09903
2.09256
2.08554
2.07798
2.06988
2.06123
2.05204
2.04232
2.03206
2.02127
2.00995
1.99811
1.98574
1.97285
1.95945
1.94553
1.93111
1.91617
1.90074
1.8848
1.86838
1.85146
1.83406
1.81617
1.79781
1.77898
1.75968
1.73992
1.71971
1.69904
1.67793
1.65637
1.63438
1.61196
1.58912
1.56585
1.54218
1.5181
1.49362
1.46875
1.44349
1.41785
1.39184
1.36546
1.33872
1.31162
1.28419
1.25641
1.22829
1.19986
1.1711
1.14204
1.11267
1.08301
1.05305
1.02282
0.992319
0.961551
0.930527
0.899251
0.867735
0.835987
0.804014
0.771825
0.739426
0.70683
0.67404
0.641066
0.607918
0.574604
2.06429
2.05456
2.04434
2.03363
2.02244
2.01076
1.99859
1.9952
2.00118
2.00665
2.0116
2.01602
2.01992
2.0233
2.02615
2.02848
2.03028
2.03156
2.0323
2.03252
2.03222
2.03138
2.03002
2.02813
2.02571
2.02277
2.0193
2.0153
2.01079
2.00574
2.00018
1.9941
1.9875
1.98038
1.97274
1.96459
1.95593
1.94676
1.93709
1.92691
1.91623
1.90504
1.89337
1.8812
1.86853
1.85539
1.84175
1.82764
1.81305
1.79799
1.78245
1.76646
1.75
1.73308
1.71572
1.6979
1.67964
1.66094
1.64181
1.62225
1.60227
1.58186
1.56105
1.53982
1.51819
1.49617
1.47375
1.45094
1.42776
1.4042
1.38028
1.35599
1.33134
1.30635
1.28101
1.25533
1.22933
1.203
1.17636
1.1494
1.12214
1.09459
1.06675
1.03862
1.01022
0.981553
0.952624
0.923443
0.894017
0.864352
0.834457
0.804338
0.774003
0.743461
0.712719
0.681786
0.650668
0.619374
0.58791
0.556288
1.96171
1.9523
1.94243
1.93208
1.92128
1.91001
1.89829
1.9008
1.90653
1.91177
1.91651
1.92076
1.92451
1.92777
1.93053
1.93279
1.93455
1.93581
1.93657
1.93683
1.93658
1.93584
1.9346
1.93285
1.93061
1.92786
1.92462
1.92088
1.91664
1.9119
1.90667
1.90094
1.89473
1.88802
1.88082
1.87314
1.86497
1.85631
1.84717
1.83756
1.82747
1.8169
1.80587
1.79436
1.78239
1.76996
1.75706
1.74371
1.72991
1.71566
1.70096
1.68582
1.67024
1.65423
1.63779
1.62092
1.60363
1.58593
1.56781
1.54928
1.53035
1.51102
1.4913
1.47118
1.45069
1.42982
1.40857
1.38696
1.36498
1.34265
1.31997
1.29694
1.27358
1.24988
1.22585
1.20151
1.17684
1.15187
1.1266
1.10103
1.07517
1.04904
1.02262
0.995933
0.968985
0.941782
0.914329
0.886634
0.858705
0.830548
0.802169
0.773578
0.74478
0.715783
0.686595
0.657223
0.627673
0.597954
0.568073
0.538038
1.86492
1.85583
1.8463
1.83632
1.82591
1.81505
1.80598
1.81149
1.81698
1.822
1.82656
1.83064
1.83425
1.83739
1.84005
1.84224
1.84396
1.8452
1.84597
1.84626
1.84608
1.84542
1.84428
1.84267
1.84058
1.83802
1.83498
1.83147
1.82749
1.82304
1.81811
1.81272
1.80686
1.80053
1.79374
1.78649
1.77877
1.7706
1.76196
1.75287
1.74333
1.73334
1.7229
1.71202
1.70069
1.68892
1.67672
1.66408
1.65101
1.63752
1.6236
1.60926
1.5945
1.57933
1.56375
1.54777
1.53139
1.51461
1.49743
1.47987
1.46193
1.4436
1.42491
1.40584
1.3864
1.36661
1.34646
1.32596
1.30512
1.28394
1.26242
1.24057
1.2184
1.19592
1.17312
1.15002
1.12661
1.10291
1.07893
1.05466
1.03011
1.0053
0.980221
0.954885
0.9293
0.903471
0.877402
0.851102
0.824578
0.797836
0.770882
0.743725
0.71637
0.688824
0.661094
0.633188
0.605112
0.576873
0.54848
0.519937
1.77353
1.76476
1.75556
1.74595
1.73592
1.72546
1.72122
1.72692
1.73218
1.737
1.74137
1.74529
1.74876
1.75179
1.75436
1.75649
1.75816
1.75938
1.76015
1.76047
1.76034
1.75975
1.75871
1.75722
1.75528
1.75288
1.75004
1.74675
1.743
1.73881
1.73417
1.72909
1.72356
1.71759
1.71117
1.70432
1.69703
1.6893
1.68113
1.67253
1.66351
1.65405
1.64417
1.63386
1.62313
1.61199
1.60043
1.58846
1.57608
1.56329
1.5501
1.5365
1.52252
1.50814
1.49337
1.47821
1.46268
1.44676
1.43048
1.41382
1.3968
1.37941
1.36167
1.34358
1.32514
1.30636
1.28724
1.26778
1.248
1.22789
1.20747
1.18673
1.16569
1.14434
1.12269
1.10076
1.07853
1.05603
1.03325
1.0102
0.986886
0.963316
0.939494
0.915427
0.891121
0.866581
0.841813
0.816823
0.791621
0.766209
0.740594
0.714786
0.688787
0.662606
0.636248
0.60972
0.58303
0.556185
0.52919
0.502052
1.68716
1.67871
1.66985
1.66059
1.65094
1.64088
1.64132
1.64678
1.65182
1.65644
1.66063
1.66439
1.66774
1.67065
1.67314
1.6752
1.67682
1.67802
1.67879
1.67913
1.67904
1.67852
1.67757
1.67619
1.67438
1.67214
1.66948
1.66638
1.66286
1.65891
1.65454
1.64974
1.64452
1.63888
1.63282
1.62633
1.61944
1.61212
1.6044
1.59626
1.58771
1.57875
1.56939
1.55963
1.54946
1.5389
1.52794
1.51659
1.50485
1.49273
1.48022
1.46733
1.45406
1.44042
1.42641
1.41203
1.39728
1.38218
1.36673
1.35092
1.33476
1.31826
1.30142
1.28424
1.26673
1.2489
1.23074
1.21227
1.19348
1.17439
1.15499
1.13529
1.1153
1.09502
1.07446
1.05362
1.0325
1.01112
0.989474
0.967571
0.945417
0.923018
0.900378
0.877504
0.854401
0.831073
0.80753
0.783775
0.759815
0.735654
0.7113
0.68676
0.662039
0.637142
0.612076
0.586849
0.561464
0.535931
0.510254
0.48444
1.6055
1.59736
1.58883
1.57992
1.57063
1.56144
1.56553
1.57076
1.57559
1.58002
1.58404
1.58766
1.59087
1.59368
1.59608
1.59807
1.59966
1.60083
1.6016
1.60196
1.6019
1.60144
1.60057
1.59929
1.59761
1.59551
1.59301
1.5901
1.58678
1.58306
1.57893
1.5744
1.56947
1.56413
1.5584
1.55227
1.54574
1.53881
1.53149
1.52378
1.51568
1.50719
1.49832
1.48906
1.47943
1.46941
1.45902
1.44825
1.43711
1.42561
1.41374
1.4015
1.38891
1.37596
1.36266
1.34901
1.33501
1.32067
1.306
1.29098
1.27564
1.25997
1.24397
1.22766
1.21103
1.19408
1.17683
1.15928
1.14143
1.12328
1.10485
1.08613
1.06713
1.04786
1.02831
1.0085
0.988429
0.968103
0.947526
0.926703
0.90564
0.884343
0.862817
0.841064
0.819094
0.79691
0.774519
0.751925
0.729136
0.706156
0.68299
0.659646
0.636129
0.612442
0.588596
0.564594
0.540441
0.516145
0.491712
0.467148
1.52823
1.52039
1.51218
1.50362
1.49469
1.48821
1.4936
1.49862
1.50324
1.50748
1.51134
1.51482
1.51791
1.52061
1.52293
1.52486
1.52639
1.52754
1.5283
1.52868
1.52866
1.52825
1.52745
1.52626
1.52469
1.52272
1.52037
1.51763
1.51451
1.51099
1.5071
1.50281
1.49815
1.4931
1.48767
1.48187
1.47568
1.46912
1.46219
1.45488
1.4472
1.43915
1.43073
1.42195
1.41281
1.4033
1.39344
1.38322
1.37265
1.36172
1.35045
1.33884
1.32688
1.31458
1.30195
1.28898
1.27569
1.26206
1.24812
1.23385
1.21927
1.20438
1.18918
1.17367
1.15787
1.14176
1.12537
1.10868
1.09171
1.07446
1.05694
1.03914
1.02107
1.00275
0.984159
0.965319
0.94623
0.9269
0.907328
0.887522
0.867487
0.847228
0.82675
0.806057
0.785155
0.76405
0.742746
0.721249
0.699564
0.677697
0.655653
0.633436
0.611055
0.588513
0.565815
0.54297
0.51998
0.496853
0.473594
0.450209
1.45507
1.44753
1.43964
1.43141
1.42283
1.42012
1.42529
1.43009
1.43452
1.43859
1.44229
1.44563
1.4486
1.4512
1.45344
1.4553
1.45679
1.45791
1.45867
1.45904
1.45905
1.45869
1.45796
1.45686
1.45539
1.45355
1.45134
1.44875
1.4458
1.44249
1.4388
1.43475
1.43034
1.42556
1.42042
1.41492
1.40906
1.40284
1.39626
1.38933
1.38204
1.3744
1.36642
1.35808
1.3494
1.34038
1.33101
1.32131
1.31127
1.30089
1.29018
1.27915
1.26779
1.2561
1.2441
1.23178
1.21914
1.20619
1.19294
1.17938
1.16551
1.15136
1.1369
1.12216
1.10713
1.09182
1.07622
1.06036
1.04422
1.02781
1.01114
0.994208
0.977023
0.959588
0.941907
0.923984
0.905823
0.887429
0.868807
0.849961
0.830896
0.811617
0.792128
0.772434
0.752541
0.732453
0.712176
0.691715
0.671073
0.650256
0.629271
0.60812
0.586812
0.56535
0.54374
0.521987
0.500096
0.478074
0.455925
0.433654
1.38577
1.37853
1.37094
1.36303
1.35479
1.35543
1.36037
1.36496
1.36922
1.37312
1.37667
1.37987
1.38272
1.38523
1.38738
1.38918
1.39062
1.39172
1.39246
1.39285
1.39288
1.39256
1.39189
1.39087
1.38949
1.38776
1.38568
1.38324
1.38046
1.37733
1.37384
1.37001
1.36583
1.3613
1.35643
1.35122
1.34566
1.33976
1.33352
1.32694
1.32002
1.31277
1.30519
1.29727
1.28903
1.28045
1.27156
1.26234
1.25279
1.24293
1.23276
1.22227
1.21147
1.20036
1.18895
1.17723
1.16522
1.15291
1.1403
1.12741
1.11422
1.10076
1.08701
1.07298
1.05869
1.04412
1.02928
1.01419
0.998829
0.983218
0.967355
0.951245
0.934891
0.918299
0.901471
0.884411
0.867126
0.849619
0.831893
0.813954
0.795804
0.777451
0.758898
0.740149
0.721208
0.702082
0.682774
0.663291
0.643634
0.623811
0.603828
0.583685
0.563392
0.542951
0.522369
0.501649
0.480798
0.459821
0.438722
0.417507
1.32009
1.31312
1.30584
1.29825
1.29033
1.29391
1.29864
1.30304
1.30711
1.31085
1.31426
1.31734
1.32007
1.32248
1.32455
1.32629
1.32769
1.32875
1.32949
1.32988
1.32994
1.32965
1.32904
1.32808
1.32679
1.32517
1.3232
1.3209
1.31827
1.31531
1.31202
1.30839
1.30443
1.30014
1.29552
1.29057
1.2853
1.27969
1.27377
1.26752
1.26096
1.25407
1.24686
1.23934
1.23151
1.22336
1.21491
1.20614
1.19707
1.1877
1.17802
1.16805
1.15778
1.14721
1.13636
1.12521
1.11378
1.10207
1.09008
1.07781
1.06527
1.05245
1.03937
1.02603
1.01242
0.998555
0.984437
0.970067
0.955451
0.94059
0.925491
0.910154
0.894586
0.87879
0.862768
0.846526
0.830069
0.813398
0.796519
0.779437
0.762154
0.744676
0.727006
0.70915
0.691111
0.672895
0.654505
0.635946
0.617223
0.59834
0.579303
0.560115
0.540782
0.521308
0.501699
0.481957
0.462091
0.442103
0.421998
0.401783
1.2578
1.25111
1.24412
1.23682
1.23058
1.23539
1.23992
1.24413
1.24803
1.25162
1.25488
1.25783
1.26047
1.26278
1.26478
1.26645
1.26781
1.26884
1.26956
1.26995
1.27003
1.26978
1.26921
1.26832
1.26711
1.26558
1.26373
1.26157
1.25908
1.25627
1.25315
1.24971
1.24596
1.24189
1.2375
1.23281
1.2278
1.22248
1.21685
1.21092
1.20468
1.19814
1.19129
1.18414
1.17669
1.16895
1.16091
1.15257
1.14394
1.13503
1.12583
1.11634
1.10657
1.09652
1.08619
1.07558
1.06471
1.05356
1.04215
1.03047
1.01853
1.00633
0.993882
0.981178
0.968224
0.955025
0.941583
0.927901
0.913984
0.899834
0.885456
0.870852
0.856026
0.840982
0.825724
0.810255
0.794579
0.778701
0.762624
0.746352
0.729889
0.713239
0.696406
0.679395
0.66221
0.644854
0.627332
0.60965
0.59181
0.573817
0.555677
0.537392
0.518969
0.500411
0.481723
0.462909
0.443975
0.424924
0.405762
0.386494
1.1987
1.19227
1.18556
1.17857
1.17507
1.1797
1.18403
1.18807
1.1918
1.19524
1.19837
1.2012
1.20373
1.20595
1.20787
1.20949
1.2108
1.2118
1.2125
1.2129
1.21299
1.21277
1.21224
1.21141
1.21028
1.20884
1.20709
1.20504
1.20269
1.20004
1.19707
1.19381
1.19025
1.18639
1.18223
1.17777
1.17302
1.16796
1.16262
1.15698
1.15104
1.14482
1.13831
1.13152
1.12443
1.11707
1.10942
1.10149
1.09328
1.0848
1.07604
1.06701
1.05771
1.04814
1.03831
1.02822
1.01787
1.00725
0.996388
0.98527
0.973904
0.96229
0.950432
0.938334
0.925998
0.913428
0.900626
0.887595
0.874339
0.860861
0.847166
0.833254
0.819131
0.8048
0.790264
0.775527
0.760592
0.745464
0.730145
0.714641
0.698954
0.683088
0.667048
0.650837
0.63446
0.61792
0.601222
0.584369
0.567366
0.550218
0.532927
0.515499
0.497938
0.480247
0.462433
0.444498
0.426448
0.408287
0.390019
0.371648
1.14261
1.13644
1.13
1.12328
1.12223
1.12666
1.13082
1.13468
1.13826
1.14155
1.14455
1.14727
1.14969
1.15183
1.15368
1.15524
1.1565
1.15747
1.15816
1.15855
1.15865
1.15846
1.15797
1.1572
1.15613
1.15478
1.15313
1.15119
1.14896
1.14644
1.14364
1.14055
1.13717
1.1335
1.12955
1.12531
1.1208
1.116
1.11091
1.10555
1.09991
1.09399
1.0878
1.08133
1.07459
1.06758
1.0603
1.05276
1.04495
1.03687
1.02853
1.01994
1.01109
1.00198
0.992618
0.983007
0.973147