/*--------------------------------*- C++ -*----------------------------------*\
  =========                 |
  \\      /  F ield         | OpenFOAM: The Open Source CFD Toolbox
   \\    /   O peration     | Website:  https://openfoam.org
    \\  /    A nd           | Version:  8
     \\/     M anipulation  |
\*---------------------------------------------------------------------------*/
FoamFile
{
    version     2.0;
    format      ascii;
    class       volVectorField;
    location    "8.163";
    object      U;
}
// * * * * * * * * * * * * * * * * * * * * * * * * * * * * * * * * * * * * * //

dimensions      [0 1 -1 0 0 0 0];

internalField   nonuniform List<vector> 
80000
(
(5.26675 -0.752052 -1.52313e-20)
(5.44167 -0.846576 3.46743e-20)
(5.61395 -0.944996 1.08196e-21)
(5.77442 -1.04548 -1.5265e-21)
(5.92377 -1.14776 2.50491e-20)
(6.06159 -1.25152 1.42096e-21)
(6.18786 -1.35644 -3.42039e-20)
(6.30256 -1.46221 2.71083e-22)
(6.40574 -1.56851 3.44969e-20)
(6.49751 -1.67503 -1.13956e-20)
(6.57803 -1.78146 -2.48519e-20)
(6.64747 -1.88751 -2.88594e-21)
(6.70605 -1.99291 -3.61408e-21)
(6.75403 -2.0974 4.48346e-21)
(6.79166 -2.20075 -6.99938e-23)
(6.81923 -2.30276 1.28694e-22)
(6.83703 -2.40325 2.74458e-23)
(6.84539 -2.50207 -6.82017e-23)
(6.84461 -2.59911 2.61259e-21)
(6.83503 -2.69428 -9.6938e-21)
(6.817 -2.78756 1.15539e-20)
(6.79096 -2.87899 1.34259e-20)
(6.75719 -2.96863 -1.27423e-20)
(6.71548 -3.05637 2.9712e-25)
(6.66698 -3.14271 -2.50239e-22)
(6.61239 -3.22754 6.30242e-21)
(6.55212 -3.31045 1.80642e-20)
(6.4867 -3.39115 -5.56117e-20)
(6.41655 -3.46943 -1.41047e-20)
(6.34202 -3.54508 7.17348e-20)
(6.26342 -3.61794 -2.26434e-20)
(6.18102 -3.68785 9.32709e-21)
(6.09506 -3.75469 2.9927e-20)
(6.00577 -3.81833 -8.49501e-22)
(5.91335 -3.87867 9.95668e-23)
(5.818 -3.93562 6.59904e-20)
(5.7199 -3.98907 -3.89617e-20)
(5.61923 -4.03895 -7.24935e-20)
(5.51616 -4.08519 1.10443e-19)
(5.41085 -4.12771 -7.7056e-20)
(5.30347 -4.16646 -7.46153e-20)
(5.19417 -4.20137 -1.62139e-21)
(5.08312 -4.2324 1.07323e-20)
(4.97047 -4.25948 8.61273e-20)
(4.85638 -4.2826 -1.57549e-21)
(4.741 -4.30169 -4.53229e-20)
(4.62449 -4.31675 3.98943e-21)
(4.50699 -4.32773 4.81094e-20)
(4.38866 -4.33461 2.48488e-21)
(4.26965 -4.33738 2.24111e-21)
(4.15011 -4.33602 5.32651e-21)
(4.03019 -4.33053 -2.05955e-21)
(3.91004 -4.3209 4.10985e-21)
(3.7898 -4.30713 9.95337e-20)
(3.66963 -4.28922 -5.30041e-20)
(3.54966 -4.2672 -2.60962e-19)
(3.43005 -4.24106 5.86225e-20)
(3.31094 -4.21083 1.62304e-19)
(3.19247 -4.17654 1.92343e-21)
(3.07477 -4.1382 2.03863e-21)
(2.958 -4.09586 5.23512e-21)
(2.84229 -4.04954 5.66731e-20)
(2.72778 -3.99928 5.46692e-20)
(2.6146 -3.94513 -6.04673e-20)
(2.50289 -3.88713 -5.80385e-20)
(2.39279 -3.82534 -3.40746e-21)
(2.28441 -3.7598 -2.15729e-21)
(2.1779 -3.69057 2.35524e-21)
(2.07338 -3.61771 -1.14331e-19)
(1.97099 -3.54128 1.8005e-21)
(1.87084 -3.46134 -2.12799e-21)
(1.77307 -3.37796 6.18035e-20)
(1.67779 -3.29121 1.85505e-19)
(1.58515 -3.20115 -6.14077e-20)
(1.49526 -3.10786 2.21134e-21)
(1.40824 -3.01139 -1.22876e-19)
(1.32424 -2.91183 -1.21466e-19)
(1.24337 -2.80924 2.44769e-19)
(1.16577 -2.70369 5.85409e-20)
(1.09155 -2.59526 -1.83151e-19)
(1.02083 -2.48403 -5.87038e-20)
(0.953675 -2.3701 1.81794e-19)
(0.89007 -2.25361 6.22959e-20)
(0.82986 -2.13476 -6.06285e-20)
(0.772727 -2.01381 -1.73916e-21)
(0.718349 -1.89113 -5.69839e-20)
(0.666744 -1.76699 4.20092e-21)
(0.618364 -1.64149 -5.53013e-20)
(0.573708 -1.51466 -2.785e-21)
(0.533012 -1.38655 -1.92962e-22)
(0.496336 -1.25726 -6.9699e-22)
(0.463685 -1.12691 9.35212e-20)
(0.435052 -0.995628 4.14046e-20)
(0.410421 -0.863556 -1.17288e-19)
(0.389766 -0.730854 -7.32493e-20)
(0.373043 -0.597701 5.86813e-20)
(0.360183 -0.464298 2.45346e-20)
(0.35107 -0.330904 -1.89492e-21)
(0.345484 -0.197913 -1.25195e-20)
(0.342978 -0.0657802 -2.96984e-21)
(7.34462 -0.758689 -2.81344e-20)
(7.37964 -0.806213 -1.13647e-21)
(7.40424 -0.856881 3.59507e-20)
(7.41945 -0.909202 -5.77202e-22)
(7.42624 -0.963277 -9.41995e-21)
(7.42547 -1.01902 -1.78481e-20)
(7.41796 -1.07641 -2.07778e-21)
(7.40442 -1.13546 9.61491e-21)
(7.38551 -1.19614 7.44032e-21)
(7.36183 -1.25842 3.36732e-21)
(7.33392 -1.32227 -3.86081e-21)
(7.30226 -1.38764 -1.64242e-21)
(7.26728 -1.45448 -9.60194e-21)
(7.22935 -1.52274 1.01103e-20)
(7.18881 -1.59236 1.00334e-20)
(7.14594 -1.66331 -6.43446e-21)
(7.10094 -1.73552 -6.65771e-21)
(7.05399 -1.80898 2.0602e-21)
(7.0052 -1.88363 -2.61033e-21)
(6.95464 -1.95938 1.57743e-21)
(6.90247 -2.0359 9.01943e-21)
(6.84861 -2.11319 -9.7783e-21)
(6.79304 -2.19133 -6.2586e-22)
(6.73609 -2.27049 1.41626e-20)
(6.67696 -2.34982 2.77532e-20)
(6.61528 -2.42861 9.70251e-21)
(6.55099 -2.50648 6.48098e-21)
(6.48392 -2.58304 -2.55731e-21)
(6.41402 -2.65798 -1.80161e-20)
(6.34125 -2.73105 1.84274e-20)
(6.26564 -2.80201 4.36444e-20)
(6.18722 -2.87068 -1.76618e-20)
(6.10606 -2.93688 -4.51845e-20)
(6.02223 -3.00047 3.18245e-21)
(5.93584 -3.06131 -1.48294e-21)
(5.84699 -3.11929 -6.3174e-21)
(5.75578 -3.1743 -2.48973e-20)
(5.66233 -3.22623 3.12171e-21)
(5.56676 -3.27501 2.21206e-20)
(5.46918 -3.32054 -4.2697e-21)
(5.36974 -3.36277 9.03049e-21)
(5.26854 -3.40161 5.74564e-20)
(5.16573 -3.43702 6.85138e-21)
(5.06142 -3.46893 -5.50899e-20)
(4.95576 -3.4973 -5.43355e-21)
(4.84888 -3.52208 -2.30256e-21)
(4.7409 -3.54323 2.77563e-21)
(4.63197 -3.56072 2.55366e-20)
(4.52221 -3.57452 3.16449e-20)
(4.41176 -3.5846 5.26479e-20)
(4.30075 -3.59095 -5.39923e-20)
(4.18932 -3.59355 -5.99886e-20)
(4.0776 -3.59239 -5.51982e-21)
(3.96572 -3.58746 1.20789e-21)
(3.85383 -3.57876 2.75145e-20)
(3.74204 -3.5663 -3.0608e-20)
(3.63049 -3.55009 3.72276e-20)
(3.51932 -3.53012 3.0826e-20)
(3.40866 -3.50643 -2.73617e-20)
(3.29862 -3.47903 2.5603e-20)
(3.18935 -3.44794 -3.15337e-20)
(3.08097 -3.4132 -2.91312e-20)
(2.97361 -3.37484 -5.71547e-21)
(2.86738 -3.33289 -3.11838e-20)
(2.76242 -3.2874 3.02586e-21)
(2.65885 -3.23841 -2.1407e-22)
(2.55678 -3.18597 8.32307e-20)
(2.45633 -3.13014 5.82739e-20)
(2.35763 -3.07097 -5.80271e-20)
(2.26077 -3.00853 2.26426e-21)
(2.16589 -2.94288 2.14972e-22)
(2.07309 -2.8741 -5.73848e-20)
(1.98246 -2.80226 -4.93696e-22)
(1.89414 -2.72745 1.08604e-19)
(1.8082 -2.64975 -2.78334e-20)
(1.72476 -2.56926 -1.04887e-19)
(1.64391 -2.48607 2.63671e-20)
(1.56574 -2.4003 1.41508e-21)
(1.49033 -2.31206 1.60362e-21)
(1.41777 -2.22148 2.49692e-20)
(1.34812 -2.12868 4.59046e-20)
(1.28145 -2.03382 4.61708e-20)
(1.2178 -1.93702 3.36683e-21)
(1.1572 -1.83841 -6.50546e-20)
(1.09972 -1.73803 -8.23277e-20)
(1.0454 -1.6359 5.34439e-22)
(0.994363 -1.53197 4.20209e-20)
(0.946733 -1.42625 1.01805e-21)
(0.902616 -1.31883 -2.87577e-21)
(0.862085 -1.20983 1.79025e-20)
(0.825186 -1.09942 -1.48304e-20)
(0.791953 -0.987722 -1.63936e-20)
(0.762408 -0.874879 1.46382e-20)
(0.736569 -0.761005 2.03346e-21)
(0.714444 -0.646203 -1.03592e-20)
(0.696036 -0.530558 -2.14945e-21)
(0.681336 -0.41413 7.00029e-21)
(0.670328 -0.296934 -9.17464e-22)
(0.662991 -0.178879 1.11407e-21)
(0.659319 -0.0598189 -6.60226e-21)
(6.78371 -0.87265 3.79456e-20)
(6.77114 -0.918237 -1.04763e-20)
(6.7588 -0.967163 -5.79218e-21)
(6.74677 -1.0194 8.82299e-21)
(6.73493 -1.07478 -9.88747e-21)
(6.72311 -1.13314 -2.13423e-21)
(6.71115 -1.19428 -4.69953e-21)
(6.69883 -1.25799 -3.53487e-22)
(6.68593 -1.32406 6.56271e-21)
(6.67221 -1.39224 2.5999e-21)
(6.65744 -1.46228 -2.13371e-21)
(6.64136 -1.53394 1.56118e-21)
(6.62376 -1.60694 3.85367e-21)
(6.6044 -1.681 -5.54519e-22)
(6.5831 -1.75584 -6.64349e-22)
(6.55966 -1.83114 -7.66285e-21)
(6.53394 -1.9066 1.59094e-21)
(6.5058 -1.98188 2.95189e-21)
(6.47513 -2.05667 1.36384e-20)
(6.44178 -2.13082 4.86247e-21)
(6.4055 -2.20431 -5.67143e-21)
(6.36621 -2.27678 6.36796e-22)
(6.32383 -2.34779 -1.25094e-20)
(6.27835 -2.41692 -6.69946e-22)
(6.22979 -2.48398 1.5613e-20)
(6.1782 -2.54897 1.65816e-20)
(6.12363 -2.61196 -1.78921e-20)
(6.06615 -2.67292 -1.33503e-20)
(6.00582 -2.73184 1.33626e-21)
(5.94275 -2.78867 1.52767e-20)
(5.87702 -2.84335 -1.27887e-20)
(5.80874 -2.89581 -5.6451e-20)
(5.738 -2.94597 2.5536e-20)
(5.66491 -2.99376 2.96791e-20)
(5.58958 -3.03911 -4.30837e-20)
(5.51211 -3.08194 1.52331e-20)
(5.43262 -3.12218 2.9506e-20)
(5.35122 -3.15976 -1.57034e-20)
(5.26801 -3.19462 1.82625e-20)
(5.18311 -3.2267 1.45264e-22)
(5.09664 -3.25593 1.44615e-20)
(5.0087 -3.28228 1.85579e-21)
(4.91941 -3.30568 -3.69739e-20)
(4.82889 -3.3261 -3.79507e-20)
(4.73724 -3.34349 -1.87892e-20)
(4.64459 -3.35782 1.67878e-20)
(4.55105 -3.36905 -6.69778e-22)
(4.45673 -3.37716 7.76685e-20)
(4.36176 -3.38212 -2.07469e-20)
(4.26624 -3.38392 -7.84628e-20)
(4.17029 -3.38254 3.74489e-20)
(4.07403 -3.37796 -2.1952e-20)
(3.97757 -3.37017 -1.63854e-21)
(3.88102 -3.35918 7.93766e-20)
(3.7845 -3.34499 1.15025e-21)
(3.68813 -3.32759 -5.92977e-20)
(3.59201 -3.30699 1.48572e-22)
(3.49627 -3.28321 5.96257e-20)
(3.401 -3.25627 -1.05811e-22)
(3.30632 -3.22617 -9.60601e-20)
(3.21235 -3.19294 -4.1972e-22)
(3.11918 -3.15661 5.69745e-20)
(3.02693 -3.11721 -2.00039e-20)
(2.9357 -3.07478 -3.6315e-20)
(2.8456 -3.02933 1.97097e-20)
(2.75674 -2.98093 -3.91745e-20)
(2.6692 -2.92961 -3.90159e-24)
(2.5831 -2.87542 5.44029e-20)
(2.49854 -2.81841 -3.87713e-20)
(2.4156 -2.75864 1.93561e-20)
(2.33438 -2.69616 3.90342e-20)
(2.25499 -2.63103 -1.7429e-20)
(2.17749 -2.56332 1.57242e-21)
(2.102 -2.4931 -1.53704e-21)
(2.02858 -2.42044 -3.03767e-20)
(1.95732 -2.3454 1.66817e-20)
(1.8883 -2.26808 4.55715e-20)
(1.82159 -2.18855 -3.16991e-20)
(1.75727 -2.10689 -1.43645e-20)
(1.69539 -2.02319 2.69435e-20)
(1.63601 -1.93753 -3.96509e-20)
(1.57918 -1.85 4.42762e-21)
(1.52495 -1.76069 2.69743e-20)
(1.47336 -1.66966 -1.01501e-20)
(1.42444 -1.57701 1.2138e-20)
(1.37823 -1.48279 -2.30376e-20)
(1.33478 -1.38709 -2.01914e-20)
(1.29415 -1.28998 4.12986e-20)
(1.2564 -1.19157 1.75814e-20)
(1.2216 -1.09196 -1.8975e-20)
(1.1898 -0.991245 1.66756e-20)
(1.16103 -0.889545 6.13805e-21)
(1.13534 -0.786964 -1.21352e-20)
(1.11276 -0.683609 1.71576e-20)
(1.09332 -0.579585 -6.53181e-22)
(1.07705 -0.474996 -1.16294e-20)
(1.06397 -0.369943 0)
(1.0541 -0.264527 -5.47498e-21)
(1.04749 -0.15884 3.46697e-21)
(1.04415 -0.0529783 -9.13746e-22)
(6.43055 -0.768642 2.7652e-22)
(6.43828 -0.810422 -3.03089e-21)
(6.44526 -0.854682 -2.49813e-21)
(6.45174 -0.901297 5.71534e-21)
(6.45739 -0.950111 -3.45195e-21)
(6.46192 -1.00095 -4.07904e-22)
(6.46504 -1.05365 3.2074e-22)
(6.46649 -1.10803 -1.37486e-21)
(6.46603 -1.16394 -1.40347e-21)
(6.46345 -1.2212 1.64377e-21)
(6.45856 -1.27967 4.93194e-21)
(6.45119 -1.33919 -1.23987e-21)
(6.4412 -1.3996 5.70547e-21)
(6.42846 -1.46079 -1.77293e-21)
(6.41285 -1.5226 -2.49295e-21)
(6.39431 -1.58492 3.67281e-21)
(6.37275 -1.64763 3.70882e-21)
(6.34812 -1.71062 2.30941e-21)
(6.32043 -1.77369 -2.73161e-21)
(6.28974 -1.83653 -3.30854e-21)
(6.2561 -1.89894 3.6367e-21)
(6.21951 -1.96078 -2.9342e-21)
(6.18004 -2.02193 -1.1646e-22)
(6.13776 -2.08225 -7.20805e-22)
(6.09278 -2.1416 -2.2148e-22)
(6.04517 -2.19985 5.65924e-21)
(5.99502 -2.25689 -9.98121e-21)
(5.9424 -2.31258 5.64774e-22)
(5.88735 -2.36681 1.4466e-20)
(5.82995 -2.41944 -7.43238e-21)
(5.77027 -2.47038 -1.22551e-20)
(5.70837 -2.51951 1.73786e-21)
(5.64432 -2.56672 -6.6203e-21)
(5.5782 -2.61193 -2.20804e-21)
(5.51008 -2.65503 5.187e-22)
(5.44006 -2.69594 -1.63407e-20)
(5.36822 -2.73458 -3.71377e-21)
(5.29464 -2.77088 1.61034e-20)
(5.21942 -2.80476 1.7942e-23)
(5.14265 -2.83616 -1.48233e-21)
(5.06443 -2.86502 3.67877e-21)
(4.98485 -2.89129 -2.2192e-21)
(4.90402 -2.9149 8.75384e-21)
(4.82203 -2.93582 -2.18303e-20)
(4.73898 -2.954 -5.11288e-20)
(4.65498 -2.9694 1.21354e-20)
(4.57013 -2.98199 4.48616e-20)
(4.48454 -2.99174 -8.36689e-21)
(4.39831 -2.99863 -1.82719e-21)
(4.31154 -3.00263 4.69179e-20)
(4.22434 -3.00372 -2.25703e-20)
(4.13681 -3.00189 -1.63158e-21)
(4.04907 -2.99713 1.26393e-20)
(3.96121 -2.98943 -3.49274e-20)
(3.87334 -2.97879 1.08133e-20)
(3.78556 -2.96522 2.29344e-20)
(3.69799 -2.94871 3.64218e-20)
(3.61071 -2.92927 -9.19889e-21)
(3.52385 -2.90692 -2.41378e-20)
(3.43749 -2.88167 -2.47255e-20)
(3.35173 -2.85354 -1.1134e-20)
(3.26669 -2.82256 1.03838e-20)
(3.18246 -2.78875 -3.39663e-20)
(3.09913 -2.75213 1.25988e-20)
(3.01681 -2.71274 3.25468e-20)
(2.93558 -2.67063 1.13478e-20)
(2.85555 -2.62581 9.99099e-23)
(2.77681 -2.57835 -1.10729e-20)
(2.69944 -2.52829 -2.99668e-20)
(2.62354 -2.47567 -1.11481e-20)
(2.54918 -2.42054 9.57012e-21)
(2.47647 -2.36297 1.04234e-20)
(2.40548 -2.303 1.9139e-20)
(2.33628 -2.24071 -6.74941e-22)
(2.26896 -2.17616 1.82345e-20)
(2.2036 -2.1094 4.35871e-22)
(2.14026 -2.04052 7.6299e-21)
(2.07902 -1.96958 -8.81082e-21)
(2.01994 -1.89665 -2.58828e-20)
(1.96308 -1.82182 8.32445e-21)
(1.90851 -1.74515 -3.09921e-20)
(1.85627 -1.66673 -7.79029e-21)
(1.80644 -1.58663 2.26153e-20)
(1.75905 -1.50493 5.89456e-21)
(1.71416 -1.4217 5.38294e-21)
(1.67182 -1.33703 1.52828e-21)
(1.63208 -1.25098 -1.37152e-20)
(1.59498 -1.16364 -1.13685e-21)
(1.56057 -1.07509 1.66784e-20)
(1.5289 -0.985419 2.95521e-22)
(1.5 -0.894724 -6.11694e-21)
(1.4739 -0.803093 2.47631e-21)
(1.45064 -0.710621 1.18115e-23)
(1.43024 -0.617404 -2.32326e-21)
(1.41272 -0.523538 2.36664e-21)
(1.3981 -0.429119 2.71295e-22)
(1.38639 -0.334243 8.94186e-22)
(1.3776 -0.23901 -4.93643e-22)
(1.37174 -0.143517 -5.93647e-21)
(1.3688 -0.0478667 6.05224e-22)
(6.24194 -0.853997 3.83726e-22)
(6.24746 -0.896262 1.61152e-21)
(6.2523 -0.940151 6.05653e-21)
(6.2563 -0.985703 -6.11144e-21)
(6.25915 -1.03282 -6.79116e-21)
(6.26062 -1.08137 1.90876e-21)
(6.26052 -1.13125 2.14723e-21)
(6.25869 -1.18234 -1.28562e-21)
(6.25498 -1.23449 -6.99066e-23)
(6.24929 -1.28757 9.79924e-22)
(6.24151 -1.34145 3.16529e-22)
(6.23156 -1.39599 -1.03619e-21)
(6.21936 -1.45102 1.44645e-21)
(6.20488 -1.50639 -2.1632e-21)
(6.18806 -1.56195 3.63532e-22)
(6.16886 -1.6175 -4.99535e-21)
(6.14729 -1.67289 6.68779e-23)
(6.1233 -1.72795 -6.78658e-22)
(6.09686 -1.78264 5.36515e-21)
(6.06795 -1.83687 -2.15976e-21)
(6.03656 -1.89051 -7.76993e-21)
(6.00274 -1.94345 2.84944e-21)
(5.9665 -1.99555 -1.05539e-21)
(5.92788 -2.04669 -1.86789e-20)
(5.88694 -2.09676 8.87706e-21)
(5.84371 -2.14568 2.4022e-20)
(5.79824 -2.19334 -1.01805e-20)
(5.75059 -2.23966 5.52599e-21)
(5.7008 -2.28456 -1.39553e-22)
(5.64895 -2.32796 -1.32592e-20)
(5.59509 -2.36979 -5.46468e-22)
(5.53928 -2.40996 5.51991e-21)
(5.48159 -2.4484 1.76923e-21)
(5.42209 -2.48505 -6.78314e-21)
(5.36086 -2.51982 -6.60032e-21)
(5.29797 -2.55267 7.16452e-21)
(5.23349 -2.58352 -2.02777e-20)
(5.16751 -2.61231 -3.18273e-22)
(5.1001 -2.63898 2.859e-20)
(5.03135 -2.66349 1.40947e-20)
(4.96135 -2.68578 6.09944e-22)
(4.89017 -2.70581 -1.46045e-20)
(4.81791 -2.72353 -3.33764e-23)
(4.74466 -2.73889 5.24608e-22)
(4.67049 -2.75187 1.52172e-20)
(4.5955 -2.76243 4.94923e-22)
(4.51979 -2.77053 -1.4154e-20)
(4.44344 -2.77616 5.48097e-24)
(4.36654 -2.77929 -8.95435e-21)
(4.28918 -2.7799 -6.04587e-22)
(4.21146 -2.77797 7.39834e-21)
(4.13348 -2.77348 1.22186e-21)
(4.05531 -2.76644 5.59464e-22)
(3.97705 -2.75683 -7.2906e-22)
(3.89881 -2.74464 9.97944e-22)
(3.82065 -2.72989 -6.44047e-24)
(3.74269 -2.71257 7.71978e-21)
(3.66501 -2.69269 1.61996e-20)
(3.58769 -2.67026 -7.81782e-21)
(3.51084 -2.64528 -1.6215e-20)
(3.43453 -2.61779 -1.61338e-20)
(3.35886 -2.58779 1.5094e-23)
(3.28391 -2.55531 6.52291e-21)
(3.20978 -2.52037 -1.32101e-21)
(3.13654 -2.48301 8.12769e-21)
(3.06428 -2.44325 7.90522e-22)
(2.99309 -2.40112 6.24575e-22)
(2.92303 -2.35667 2.27932e-20)
(2.8542 -2.30993 2.14496e-20)
(2.78668 -2.26094 -2.29076e-20)
(2.72053 -2.20975 -2.09094e-20)
(2.65584 -2.15641 -2.04712e-21)
(2.59267 -2.10097 -7.07641e-21)
(2.5311 -2.04348 7.49398e-22)
(2.47119 -1.98399 1.95404e-20)
(2.41302 -1.92257 1.841e-20)
(2.35664 -1.85926 -1.1862e-20)
(2.30212 -1.79414 -1.55392e-20)
(2.24952 -1.72726 -1.16991e-20)
(2.19889 -1.65869 1.55365e-22)
(2.1503 -1.58849 5.22826e-21)
(2.10378 -1.51674 -7.01743e-21)
(2.05939 -1.4435 3.98657e-21)
(2.01717 -1.36884 3.61268e-21)
(1.97718 -1.29283 -1.29217e-20)
(1.93946 -1.21554 1.8018e-21)
(1.90404 -1.13705 1.13115e-20)
(1.87097 -1.05743 -6.13746e-21)
(1.84029 -0.976764 -3.35643e-22)
(1.81204 -0.895122 9.96787e-21)
(1.78624 -0.812587 -4.52234e-21)
(1.76293 -0.729242 -4.65477e-21)
(1.74214 -0.64517 1.05158e-20)
(1.72389 -0.560455 -8.55643e-23)
(1.70821 -0.47518 -5.17881e-21)
(1.6951 -0.389433 5.52124e-21)
(1.6846 -0.303297 5.96136e-22)
(1.67671 -0.21686 2.53546e-21)
(1.67145 -0.130207 -6.98496e-22)
(1.66882 -0.0434262 3.24099e-22)
(6.12028 -0.84293 -7.83685e-22)
(6.1262 -0.881052 -3.63467e-21)
(6.13064 -0.92021 1.17986e-21)
(6.1337 -0.960407 3.71815e-21)
(6.13532 -1.00162 -3.34251e-21)
(6.1354 -1.04379 -2.51462e-21)
(6.13386 -1.08686 -6.36128e-22)
(6.13061 -1.13077 -1.84724e-21)
(6.12558 -1.17545 1.80771e-21)
(6.1187 -1.22081 3.45927e-22)
(6.1099 -1.26678 -4.78755e-21)
(6.09913 -1.31326 1.51944e-22)
(6.08634 -1.36017 -3.54557e-21)
(6.07148 -1.40744 2.15275e-21)
(6.05453 -1.45496 -2.52264e-21)
(6.03543 -1.50266 -9.43906e-23)
(6.01419 -1.55045 -1.21253e-21)
(5.9908 -1.59822 -4.82213e-22)
(5.96528 -1.6458 1.94945e-21)
(5.93763 -1.69307 -7.61873e-21)
(5.90786 -1.73993 -5.95318e-21)
(5.87598 -1.78626 2.50473e-21)
(5.84202 -1.83195 2.00924e-20)
(5.806 -1.87692 1.02005e-20)
(5.76795 -1.92105 -3.16643e-21)
(5.72792 -1.96426 -1.14063e-20)
(5.68593 -2.00645 -3.9982e-21)
(5.64203 -2.04754 1.09385e-20)
(5.59626 -2.08742 -4.19091e-22)
(5.54869 -2.12604 -1.33914e-20)
(5.49935 -2.16329 -3.40763e-21)
(5.4483 -2.1991 2.23699e-20)
(5.39559 -2.23341 6.45216e-21)
(5.3413 -2.26613 -1.30116e-20)
(5.28547 -2.29721 1.32496e-21)
(5.22817 -2.32656 -1.43836e-20)
(5.16947 -2.35414 -7.55617e-22)
(5.10943 -2.37989 1.17881e-20)
(5.04813 -2.40374 5.71725e-22)
(4.98564 -2.42566 -5.28222e-21)
(4.92203 -2.44558 -1.40813e-22)
(4.85737 -2.46347 4.70022e-21)
(4.79175 -2.47928 -2.70236e-22)
(4.72523 -2.49297 -7.97464e-21)
(4.65791 -2.50452 -1.37273e-21)
(4.58985 -2.51388 8.85874e-21)
(4.52114 -2.52103 0)
(4.45186 -2.52595 2.13135e-22)
(4.38209 -2.5286 -1.7347e-20)
(4.31191 -2.52898 -3.04931e-22)
(4.24141 -2.52706 1.75722e-20)
(4.17067 -2.52284 3.50317e-22)
(4.09976 -2.5163 -1.96715e-23)
(4.02879 -2.50744 6.4618e-22)
(3.95782 -2.49625 -7.65181e-22)
(3.88694 -2.48273 -9.54282e-22)
(3.81623 -2.46689 -5.25941e-21)
(3.74578 -2.44872 -2.75923e-20)
(3.67567 -2.42825 2.30116e-23)
(3.60597 -2.40548 2.65731e-20)
(3.53677 -2.38042 5.78001e-21)
(3.46815 -2.35309 6.35879e-21)
(3.40019 -2.32351 2.08501e-20)
(3.33296 -2.2917 -5.06284e-21)
(3.26654 -2.25769 -2.03359e-20)
(3.20102 -2.22151 -2.12322e-20)
(3.13645 -2.18318 -4.83217e-21)
(3.07292 -2.14275 1.95132e-20)
(3.0105 -2.10023 1.49432e-20)
(2.94927 -2.05568 9.29391e-22)
(2.88928 -2.00914 1.01355e-20)
(2.8306 -1.96063 -6.82504e-22)
(2.77331 -1.91022 -1.86903e-20)
(2.71747 -1.85795 -7.5131e-22)
(2.66314 -1.80386 9.33608e-21)
(2.61038 -1.74801 5.22319e-21)
(2.55924 -1.69046 -1.60842e-20)
(2.5098 -1.63125 -1.13501e-20)
(2.46209 -1.57044 7.46178e-21)
(2.41617 -1.50809 3.22016e-21)
(2.3721 -1.44427 7.70281e-22)
(2.32992 -1.37903 1.00131e-20)
(2.28967 -1.31243 5.23511e-21)
(2.25141 -1.24454 -6.25918e-21)
(2.21517 -1.17543 -1.72382e-20)
(2.18099 -1.10515 -2.03637e-21)
(2.14892 -1.03378 1.7024e-20)
(2.11898 -0.961393 2.63265e-21)
(2.09122 -0.888048 -7.04293e-21)
(2.06566 -0.813821 -8.59632e-21)
(2.04232 -0.738785 4.16837e-23)
(2.02125 -0.663013 7.71999e-21)
(2.00246 -0.58658 -7.04753e-22)
(1.98597 -0.509562 -2.49591e-21)
(1.97181 -0.432035 1.91862e-22)
(1.95998 -0.354076 -1.49043e-21)
(1.9505 -0.275764 1.97138e-21)
(1.94338 -0.197176 3.34145e-21)
(1.93863 -0.11839 1.053e-21)
(1.93626 -0.0394859 1.91935e-21)
(6.02011 -0.873089 6.31704e-22)
(6.02139 -0.908359 0)
(6.02157 -0.944482 -1.54965e-21)
(6.0207 -0.981463 -1.76522e-23)
(6.01864 -1.01926 -1.59231e-22)
(6.01531 -1.05781 3.77293e-23)
(6.01063 -1.09706 -7.09787e-22)
(6.00453 -1.13695 1.62141e-22)
(5.99695 -1.1774 2.38858e-21)
(5.98782 -1.21834 -7.565e-22)
(5.9771 -1.25968 3.338e-22)
(5.96474 -1.30134 -2.01796e-22)
(5.9507 -1.34323 4.53822e-21)
(5.93495 -1.38527 1.81635e-21)
(5.91746 -1.42734 -5.95313e-21)
(5.8982 -1.46935 -9.29344e-21)
(5.87716 -1.5112 -2.54632e-21)
(5.85431 -1.55284 9.39686e-21)
(5.82963 -1.59418 -4.35209e-21)
(5.80313 -1.63514 -1.93892e-21)
(5.77482 -1.67565 4.57619e-21)
(5.74469 -1.7156 1.42112e-20)
(5.71277 -1.75493 1.79764e-21)
(5.67908 -1.79354 3.31245e-21)
(5.64365 -1.83136 -2.97565e-22)
(5.60649 -1.86831 -1.7905e-20)
(5.56764 -1.90431 3.21115e-22)
(5.52714 -1.93929 5.2812e-22)
(5.48502 -1.97317 -1.03993e-20)
(5.44133 -2.0059 -5.4535e-22)
(5.39611 -2.0374 1.65768e-20)
(5.34939 -2.06761 1.40211e-20)
(5.30125 -2.09647 -4.19758e-21)
(5.25171 -2.12391 -1.35781e-20)
(5.20084 -2.14989 -3.71522e-21)
(5.14869 -2.17433 -1.33649e-21)
(5.09533 -2.1972 3.71482e-23)
(5.0408 -2.21844 -5.85526e-24)
(4.98517 -2.23801 1.20822e-22)
(4.9285 -2.25585 1.57875e-20)
(4.87086 -2.27193 -3.10998e-21)
(4.81231 -2.28621 -2.72047e-20)
(4.75292 -2.29865 1.44921e-20)
(4.69276 -2.30922 2.92354e-21)
(4.63189 -2.31788 -1.41567e-20)
(4.57039 -2.32461 8.31343e-21)
(4.50833 -2.32938 7.80414e-21)
(4.44577 -2.33217 -7.80222e-21)
(4.38279 -2.33296 -1.34097e-20)
(4.31947 -2.33172 1.70904e-20)
(4.25587 -2.32845 1.74284e-20)
(4.19206 -2.32314 -8.95969e-21)
(4.12813 -2.31577 -8.25033e-21)
(4.06415 -2.30633 -4.46922e-21)
(4.00018 -2.29483 -1.23505e-20)
(3.9363 -2.28126 4.41058e-21)
(3.87259 -2.26563 1.22227e-20)
(3.80912 -2.24793 1.66001e-20)
(3.74596 -2.22818 -8.316e-23)
(3.68318 -2.20638 -1.63131e-20)
(3.62086 -2.18254 -4.32252e-21)
(3.55906 -2.15669 5.03636e-24)
(3.49785 -2.12883 4.29188e-21)
(3.43732 -2.09899 -3.39149e-21)
(3.37751 -2.06719 -7.04186e-21)
(3.31851 -2.03345 8.17117e-21)
(3.26038 -1.99779 6.09663e-21)
(3.20318 -1.96026 -4.52636e-21)
(3.14698 -1.92087 -1.56718e-23)
(3.09185 -1.87967 3.11151e-22)
(3.03783 -1.83668 2.34388e-22)
(2.98501 -1.79195 6.98955e-22)
(2.93342 -1.74552 2.04994e-20)
(2.88314 -1.69742 -2.31417e-21)
(2.83422 -1.6477 -2.52319e-20)
(2.78671 -1.5964 2.67325e-21)
(2.74067 -1.54358 -9.01313e-21)
(2.69614 -1.48927 -2.59671e-21)
(2.65318 -1.43354 1.3221e-20)
(2.61182 -1.37643 -1.07809e-21)
(2.57213 -1.31799 1.12098e-22)
(2.53414 -1.25829 1.02302e-20)
(2.49789 -1.19737 7.15155e-23)
(2.46343 -1.1353 -5.77786e-21)
(2.43079 -1.07213 6.32715e-21)
(2.40001 -1.00792 4.91783e-21)
(2.37112 -0.94274 -5.66845e-21)
(2.34415 -0.87664 -5.54308e-21)
(2.31914 -0.809689 3.03146e-22)
(2.29611 -0.741951 2.87568e-21)
(2.27509 -0.673491 -1.16929e-21)
(2.25611 -0.604375 1.72877e-22)
(2.23918 -0.534669 4.12866e-21)
(2.22432 -0.464442 -1.50771e-21)
(2.21155 -0.393761 -3.41042e-21)
(2.20089 -0.322696 1.52144e-22)
(2.19235 -0.251316 -1.92523e-21)
(2.18593 -0.179691 1.44051e-21)
(2.18165 -0.10789 4.08e-22)
(2.17951 -0.0359841 1.21395e-21)
(5.93055 -0.866239 0)
(5.93047 -0.898413 -1.52359e-21)
(5.92918 -0.931159 -1.66402e-23)
(5.92675 -0.964481 -8.84331e-24)
(5.92316 -0.998356 7.24338e-22)
(5.91835 -1.03275 0)
(5.91228 -1.06763 1.59479e-21)
(5.90489 -1.10295 1.4592e-21)
(5.89616 -1.13865 1.16226e-23)
(5.88603 -1.17469 2.66198e-21)
(5.87447 -1.21101 9.73446e-23)
(5.86144 -1.24755 -5.19627e-21)
(5.84692 -1.28425 -1.44661e-22)
(5.83088 -1.32106 -5.93384e-22)
(5.81329 -1.3579 6.09868e-22)
(5.79415 -1.39472 -4.7445e-21)
(5.77344 -1.43143 1.92468e-21)
(5.75115 -1.46796 6.39384e-21)
(5.72729 -1.50422 5.61693e-22)
(5.70186 -1.54014 7.76972e-22)
(5.67485 -1.57565 -2.91577e-22)
(5.64628 -1.61067 1.04028e-20)
(5.61616 -1.64513 -5.49905e-22)
(5.5845 -1.67895 -7.56619e-21)
(5.55132 -1.71207 -9.32332e-21)
(5.51664 -1.74441 -1.91857e-22)
(5.4805 -1.77591 1.26757e-20)
(5.44291 -1.8065 -5.20852e-21)
(5.40392 -1.83613 -4.43806e-21)
(5.36354 -1.86471 9.44442e-22)
(5.32183 -1.8922 -3.74687e-22)
(5.27882 -1.91854 9.82006e-21)
(5.23456 -1.94367 -5.95809e-21)
(5.18908 -1.96753 -1.57356e-21)
(5.14243 -1.99007 8.24539e-22)
(5.09466 -2.01124 -5.52013e-21)
(5.04582 -2.031 5.51101e-21)
(4.99596 -2.0493 -4.90377e-21)
(4.94514 -2.0661 4.55489e-21)
(4.89341 -2.08135 4.94511e-22)
(4.84083 -2.09501 -6.48876e-21)
(4.78745 -2.10706 5.65637e-21)
(4.73334 -2.11746 1.77055e-22)
(4.67855 -2.12617 1.17845e-20)
(4.62314 -2.13317 -1.16795e-20)
(4.56718 -2.13843 -1.18188e-20)
(4.51073 -2.14193 1.18917e-20)
(4.45385 -2.14365 -5.55642e-22)
(4.3966 -2.14356 6.08978e-22)
(4.33906 -2.14166 4.665e-23)
(4.28128 -2.13793 -5.88089e-22)
(4.22334 -2.13235 1.2078e-20)
(4.16529 -2.12493 1.14986e-21)
(4.10721 -2.11564 -1.24932e-20)
(4.04915 -2.1045 -6.15158e-21)
(3.99119 -2.09149 -1.22744e-20)
(3.93338 -2.07662 5.28953e-21)
(3.8758 -2.0599 1.22162e-20)
(3.81852 -2.04132 -1.12682e-20)
(3.76158 -2.0209 1.2255e-23)
(3.70507 -1.99865 1.19321e-20)
(3.64904 -1.97457 -4.39069e-23)
(3.59355 -1.9487 -3.95696e-22)
(3.53867 -1.92103 1.13685e-20)
(3.48447 -1.89159 -4.4569e-22)
(3.43099 -1.86041 -1.09655e-20)
(3.37831 -1.8275 4.99281e-22)
(3.32647 -1.7929 4.59679e-22)
(3.27555 -1.75662 -5.62121e-22)
(3.22559 -1.71871 -4.89305e-21)
(3.17665 -1.67919 1.00345e-21)
(3.12879 -1.63809 5.43359e-21)
(3.08206 -1.59546 -9.14887e-21)
(3.0365 -1.55132 3.93067e-22)
(2.99219 -1.50572 1.34063e-20)
(2.94915 -1.4587 4.64305e-22)
(2.90744 -1.4103 -4.32525e-21)
(2.86711 -1.36056 -1.20856e-21)
(2.82819 -1.30953 -1.51449e-22)
(2.79074 -1.25726 2.68117e-22)
(2.75479 -1.2038 -8.36689e-22)
(2.72039 -1.14918 2.82883e-22)
(2.68757 -1.09347 -2.24811e-21)
(2.65636 -1.03672 -3.63129e-22)
(2.62681 -0.978973 6.33054e-21)
(2.59894 -0.920291 -2.93522e-22)
(2.57279 -0.860727 3.80994e-21)
(2.54838 -0.800338 -1.30956e-23)
(2.52575 -0.739181 -4.70141e-21)
(2.50491 -0.677313 5.0878e-24)
(2.48589 -0.614794 1.49005e-21)
(2.46871 -0.551682 -2.20725e-22)
(2.45339 -0.488039 -1.18083e-21)
(2.43995 -0.423926 1.07045e-21)
(2.4284 -0.359404 1.49051e-21)
(2.41876 -0.294534 -2.89735e-22)
(2.41103 -0.229381 -8.45954e-22)
(2.40523 -0.164006 -2.15026e-21)
(2.40135 -0.0984719 1.33582e-22)
(2.39942 -0.0328433 -3.26888e-22)
(5.85319 -0.868344 -1.64804e-21)
(5.8506 -0.897717 -2.50736e-22)
(5.847 -0.927563 1.69927e-21)
(5.84246 -0.957878 -4.50403e-23)
(5.83691 -0.988631 3.59258e-22)
(5.83031 -1.01979 2.51186e-21)
(5.82261 -1.0513 2.59228e-22)
(5.81378 -1.08314 -3.02138e-21)
(5.80377 -1.11524 -4.09681e-22)
(5.79256 -1.14757 4.11977e-22)
(5.78011 -1.18006 -7.92509e-22)
(5.7664 -1.21267 6.66395e-24)
(5.75141 -1.24534 1.69358e-21)
(5.73511 -1.278 3.61383e-21)
(5.71748 -1.31059 -1.40215e-21)
(5.69851 -1.34305 -4.15796e-21)
(5.67819 -1.37534 3.54717e-21)
(5.65651 -1.40738 3.09002e-21)
(5.63346 -1.43913 -2.2083e-21)
(5.60905 -1.47051 -7.92738e-21)
(5.58327 -1.50147 1.62142e-22)
(5.55614 -1.53195 8.32715e-21)
(5.52766 -1.56189 -7.20918e-22)
(5.49785 -1.59123 1.20372e-22)
(5.46672 -1.6199 6.39117e-22)
(5.43429 -1.64785 -3.71413e-21)
(5.40058 -1.67503 -6.58854e-21)
(5.36563 -1.70137 -2.37802e-22)
(5.32945 -1.72683 8.00507e-21)
(5.29207 -1.75134 2.33243e-22)
(5.25353 -1.77486 4.68808e-21)
(5.21386 -1.79734 3.38671e-21)
(5.17309 -1.81872 -1.25617e-20)
(5.13128 -1.83897 -3.60664e-21)
(5.08844 -1.85803 4.66951e-21)
(5.04463 -1.87586 4.21852e-21)
(4.99989 -1.89242 1.26743e-20)
(4.95427 -1.90767 -1.2842e-20)
(4.9078 -1.92158 -8.77146e-21)
(4.86055 -1.9341 4.64283e-21)
(4.81256 -1.94521 1.66866e-22)
(4.76387 -1.95486 -1.31286e-21)
(4.71455 -1.96304 4.52118e-21)
(4.66464 -1.96971 5.20274e-21)
(4.6142 -1.97485 -4.55032e-21)
(4.56328 -1.97844 2.84981e-22)
(4.51194 -1.98045 -4.58127e-22)
(4.46024 -1.98086 -1.19971e-24)
(4.40822 -1.97967 -4.41673e-21)
(4.35596 -1.97685 -1.57885e-23)
(4.3035 -1.97239 -4.73103e-21)
(4.2509 -1.96628 1.40349e-20)
(4.19823 -1.95851 4.77123e-21)
(4.14553 -1.94908 -1.39497e-20)
(4.09288 -1.93799 4.76733e-21)
(4.04032 -1.92523 -7.22381e-24)
(3.98792 -1.9108 -4.85171e-23)
(3.93573 -1.89471 3.49464e-22)
(3.88381 -1.87696 3.06257e-22)
(3.83223 -1.85756 -4.79604e-22)
(3.78103 -1.83652 -2.76505e-22)
(3.73028 -1.81384 -2.55441e-22)
(3.68002 -1.78954 -8.70081e-21)
(3.63033 -1.76365 1.33288e-20)
(3.58124 -1.73616 8.44979e-21)
(3.53283 -1.70711 -1.28465e-20)
(3.48513 -1.67651 -1.19382e-20)
(3.43821 -1.64439 -3.59289e-21)
(3.39211 -1.61077 1.19153e-20)
(3.34689 -1.57568 -8.21553e-21)
(3.3026 -1.53914 -7.9297e-21)
(3.25928 -1.50119 1.1212e-20)
(3.21699 -1.46186 7.63827e-21)
(3.17577 -1.42118 -3.25842e-21)
(3.13566 -1.37918 -7.2845e-21)
(3.09672 -1.33591 3.54274e-21)
(3.05898 -1.2914 6.83781e-21)
(3.02248 -1.24568 7.29797e-22)
(2.98727 -1.19881 -2.19681e-23)
(2.95339 -1.15081 3.76623e-21)
(2.92086 -1.10175 -6.49028e-23)
(2.88973 -1.05165 -5.49014e-21)
(2.86004 -1.00056 9.33259e-23)
(2.83181 -0.948537 -7.6197e-22)
(2.80507 -0.895622 6.40469e-21)
(2.77986 -0.841865 2.01867e-21)
(2.7562 -0.787315 -5.68777e-21)
(2.73412 -0.732023 6.30598e-22)
(2.71364 -0.67604 -6.27098e-22)
(2.69479 -0.619418 -3.6158e-21)
(2.67758 -0.562211 5.39558e-23)
(2.66204 -0.504472 2.45055e-21)
(2.64819 -0.446255 5.74771e-23)
(2.63603 -0.387616 -1.5071e-21)
(2.62558 -0.328609 8.42974e-23)
(2.61686 -0.26929 2.1783e-21)
(2.60987 -0.209716 1.50555e-21)
(2.60462 -0.149943 5.42194e-23)
(2.60111 -0.0900279 -2.13068e-22)
(2.59936 -0.0300272 -1.256e-21)
(5.78213 -0.85628 -3.05788e-21)
(5.7784 -0.883152 2.09145e-21)
(5.77368 -0.910346 -8.06021e-23)
(5.76803 -0.937858 6.99141e-22)
(5.76144 -0.965669 1.67367e-22)
(5.75387 -0.993749 -1.21173e-21)
(5.74529 -1.02207 -1.69803e-22)
(5.73567 -1.05059 -1.2444e-21)
(5.725 -1.07929 -1.90145e-22)
(5.71324 -1.10811 1.37377e-21)
(5.70037 -1.13703 -1.53854e-21)
(5.68638 -1.16599 -1.41639e-21)
(5.67124 -1.19495 -7.19534e-23)
(5.65495 -1.22387 6.76953e-22)
(5.63748 -1.25269 -7.2202e-22)
(5.61883 -1.28138 0)
(5.599 -1.30988 4.18902e-21)
(5.57797 -1.33812 -2.31679e-22)
(5.55576 -1.36607 -4.57281e-21)
(5.53235 -1.39367 -1.95016e-21)
(5.50775 -1.42086 -1.41046e-21)
(5.48197 -1.44759 2.38287e-21)
(5.45502 -1.47382 1.91875e-21)
(5.42691 -1.49949 2.98504e-21)
(5.39765 -1.52454 -4.99978e-21)
(5.36725 -1.54893 3.54082e-22)
(5.33575 -1.57261 5.38629e-21)
(5.30315 -1.59552 2.6649e-21)
(5.26948 -1.61763 -1.29407e-22)
(5.23477 -1.63888 -6.01245e-23)
(5.19905 -1.65922 3.28191e-22)
(5.16234 -1.67863 -8.88339e-21)
(5.12468 -1.69704 -1.0905e-21)
(5.0861 -1.71442 1.30858e-20)
(5.04663 -1.73073 -3.11705e-21)
(5.00631 -1.74592 -9.82073e-21)