/*--------------------------------*- C++ -*----------------------------------*\
  =========                 |
  \\      /  F ield         | OpenFOAM: The Open Source CFD Toolbox
   \\    /   O peration     | Website:  https://openfoam.org
    \\  /    A nd           | Version:  8
     \\/     M anipulation  |
\*---------------------------------------------------------------------------*/
FoamFile
{
    version     2.0;
    format      ascii;
    class       volScalarField;
    location    "0.8";
    object      nuTilda;
}
// * * * * * * * * * * * * * * * * * * * * * * * * * * * * * * * * * * * * * //

dimensions      [0 2 -1 0 0 0 0];

internalField   nonuniform List<scalar> 
10000
(
9.54571e+20
6.22171e+20
4.0538e+20
2.64075e+20
1.72006e+20
1.1203e+20
7.29644e+19
4.75205e+19
3.09491e+19
2.01564e+19
1.31274e+19
8.54955e+18
5.56811e+18
3.62637e+18
2.36176e+18
1.53816e+18
1.00176e+18
6.52422e+17
4.24906e+17
2.76731e+17
1.80228e+17
1.17378e+17
7.64452e+16
4.97868e+16
3.24249e+16
2.11175e+16
1.37533e+16
8.95718e+15
5.83358e+15
3.79927e+15
2.47437e+15
1.61149e+15
1.04952e+15
6.83529e+14
4.45165e+14
2.89925e+14
1.88821e+14
1.22974e+14
8.00899e+13
5.21605e+13
3.39708e+13
2.21244e+13
1.4409e+13
9.38424e+12
6.11172e+12
3.98041e+12
2.59234e+12
1.68833e+12
1.09958e+12
7.16129e+11
4.6634e+11
3.03557e+11
1.97522e+11
1.28914e+11
8.56851e+10
6.0092e+10
4.63023e+10
3.95421e+10
3.64435e+10
3.50761e+10
3.4484e+10
3.423e+10
3.41217e+10
3.40759e+10
3.4057e+10
3.40499e+10
3.40485e+10
3.40504e+10
3.40553e+10
3.40639e+10
3.40779e+10
3.41001e+10
3.41351e+10
3.41898e+10
3.42747e+10
3.44056e+10
3.4606e+10
3.49104e+10
3.53682e+10
3.60487e+10
3.70457e+10
3.84808e+10
4.05025e+10
4.32805e+10
4.69946e+10
5.1822e+10
5.7927e+10
6.54548e+10
7.4529e+10
8.52479e+10
9.76829e+10
1.11885e+11
1.27916e+11
1.45914e+11
1.66198e+11
1.89367e+11
2.16601e+11
2.49033e+11
2.86467e+11
3.27374e+11
6.22171e+20
4.05514e+20
2.64212e+20
1.72113e+20
1.12105e+20
7.30155e+19
4.75544e+19
3.09713e+19
2.01709e+19
1.31369e+19
8.55571e+18
5.57212e+18
3.62898e+18
2.36346e+18
1.53926e+18
1.00248e+18
6.52892e+17
4.25212e+17
2.7693e+17
1.80358e+17
1.17462e+17
7.65002e+16
4.98227e+16
3.24482e+16
2.11327e+16
1.37632e+16
8.96363e+15
5.83779e+15
3.802e+15
2.47615e+15
1.61265e+15
1.05028e+15
6.84021e+14
4.45485e+14
2.90133e+14
1.88957e+14
1.23063e+14
8.01476e+13
5.21981e+13
3.39953e+13
2.21403e+13
1.44194e+13
9.391e+12
6.11612e+12
3.98327e+12
2.5942e+12
1.68954e+12
1.10036e+12
7.16644e+11
4.66733e+11
3.03938e+11
1.97849e+11
1.28737e+11
8.39918e+10
5.57464e+10
3.89683e+10
2.98934e+10
2.54316e+10
2.33831e+10
2.24785e+10
2.20867e+10
2.19186e+10
2.18469e+10
2.18166e+10
2.18041e+10
2.17994e+10
2.17984e+10
2.17996e+10
2.18027e+10
2.18083e+10
2.18173e+10
2.18316e+10
2.1854e+10
2.18892e+10
2.19438e+10
2.20279e+10
2.21567e+10
2.23523e+10
2.26464e+10
2.30835e+10
2.37239e+10
2.46455e+10
2.59434e+10
2.77265e+10
3.01098e+10
3.32066e+10
3.71219e+10
4.19482e+10
4.77643e+10
5.46327e+10
6.25989e+10
7.16958e+10
8.19641e+10
9.34954e+10
1.06497e+11
1.21354e+11
1.38829e+11
1.59653e+11
1.83699e+11
2.09989e+11
4.0538e+20
2.64212e+20
1.72144e+20
1.12136e+20
7.30385e+19
4.75702e+19
3.09818e+19
2.01778e+19
1.31413e+19
8.55858e+18
5.57398e+18
3.63019e+18
2.36425e+18
1.53978e+18
1.00282e+18
6.5311e+17
4.25354e+17
2.77022e+17
1.80418e+17
1.17501e+17
7.65257e+16
4.98392e+16
3.2459e+16
2.11397e+16
1.37678e+16
8.96661e+15
5.83973e+15
3.80327e+15
2.47697e+15
1.61319e+15
1.05063e+15
6.84248e+14
4.45634e+14
2.9023e+14
1.89019e+14
1.23104e+14
8.01742e+13
5.22155e+13
3.40066e+13
2.21476e+13
1.44242e+13
9.39412e+12
6.11815e+12
3.9846e+12
2.59507e+12
1.6901e+12
1.10072e+12
7.16874e+11
4.66887e+11
3.04073e+11
1.98016e+11
1.28902e+11
8.38737e+10
5.47044e+10
3.62592e+10
2.52665e+10
1.92974e+10
1.63535e+10
1.49996e+10
1.44013e+10
1.41421e+10
1.40309e+10
1.39834e+10
1.39634e+10
1.39551e+10
1.39519e+10
1.39513e+10
1.3952e+10
1.3954e+10
1.39576e+10
1.39634e+10
1.39725e+10
1.3987e+10
1.40096e+10
1.40446e+10
1.40987e+10
1.41814e+10
1.4307e+10
1.44958e+10
1.47764e+10
1.51874e+10
1.57788e+10
1.66116e+10
1.77555e+10
1.9284e+10
2.12696e+10
2.37792e+10
2.68721e+10
3.05983e+10
3.49975e+10
4.00987e+10
4.59232e+10
5.24979e+10
5.9883e+10
6.82134e+10
7.77374e+10
8.89466e+10
1.02316e+11
1.17767e+11
1.3467e+11
2.64075e+20
1.72113e+20
1.12136e+20
7.30448e+19
4.75759e+19
3.09858e+19
2.01803e+19
1.31429e+19
8.55958e+18
5.57461e+18
3.63059e+18
2.3645e+18
1.53994e+18
1.00292e+18
6.53176e+17
4.25397e+17
2.7705e+17
1.80436e+17
1.17513e+17
7.65334e+16
4.98443e+16
3.24623e+16
2.11419e+16
1.37692e+16
8.96752e+15
5.84032e+15
3.80365e+15
2.47722e+15
1.61335e+15
1.05074e+15
6.84317e+14
4.45679e+14
2.90259e+14
1.89039e+14
1.23116e+14
8.01823e+13
5.22207e+13
3.401e+13
2.21499e+13
1.44257e+13
9.39507e+12
6.11877e+12
3.985e+12
2.59533e+12
1.69027e+12
1.10083e+12
7.16944e+11
4.66929e+11
3.04102e+11
1.98055e+11
1.28977e+11
8.39621e+10
5.46323e+10
3.56223e+10
2.35814e+10
1.63823e+10
1.24576e+10
1.05156e+10
9.62094e+09
9.22524e+09
9.05379e+09
8.98023e+09
8.94886e+09
8.93559e+09
8.93009e+09
8.92801e+09
8.92755e+09
8.92803e+09
8.92932e+09
8.93159e+09
8.9353e+09
8.9412e+09
8.95048e+09
8.96498e+09
8.98748e+09
9.02217e+09
9.07527e+09
9.15588e+09
9.27707e+09
9.45715e+09
9.72089e+09
1.01003e+10
1.06345e+10
1.13681e+10
1.23481e+10
1.36209e+10
1.52292e+10
1.72108e+10
1.95975e+10
2.24146e+10
2.56805e+10
2.9409e+10
3.36179e+10
3.83468e+10
4.36834e+10
4.97881e+10
5.69781e+10
6.55613e+10
7.54889e+10
8.63553e+10
1.72006e+20
1.12105e+20
7.30385e+19
4.75759e+19
3.09868e+19
2.0181e+19
1.31432e+19
8.55969e+18
5.57462e+18
3.63056e+18
2.36447e+18
1.53991e+18
1.0029e+18
6.53159e+17
4.25385e+17
2.77042e+17
1.8043e+17
1.1751e+17
7.65311e+16
4.98427e+16
3.24613e+16
2.11412e+16
1.37688e+16
8.96724e+15
5.84014e+15
3.80353e+15
2.47715e+15
1.6133e+15
1.0507e+15
6.84296e+14
4.45665e+14
2.9025e+14
1.89033e+14
1.23112e+14
8.01799e+13
5.22191e+13
3.4009e+13
2.21492e+13
1.44252e+13
9.39478e+12
6.11858e+12
3.98488e+12
2.59525e+12
1.69022e+12
1.1008e+12
7.16922e+11
4.66913e+11
3.0409e+11
1.98048e+11
1.28984e+11
8.39977e+10
5.46826e+10
3.55808e+10
2.31941e+10
1.53359e+10
1.06228e+10
8.04295e+09
6.76222e+09
6.171e+09
5.90931e+09
5.7959e+09
5.74724e+09
5.72649e+09
5.71771e+09
5.71408e+09
5.71269e+09
5.71238e+09
5.71268e+09
5.7135e+09
5.71496e+09
5.71734e+09
5.72113e+09
5.72709e+09
5.7364e+09
5.75084e+09
5.77311e+09
5.80719e+09
5.85893e+09
5.9367e+09
6.05225e+09
6.22146e+09
6.46486e+09
6.80748e+09
7.27786e+09
7.90615e+09
8.72194e+09
9.75253e+09
1.1022e+10
1.25505e+10
1.43543e+10
1.6445e+10
1.88316e+10
2.15257e+10
2.45534e+10
2.79719e+10
3.18851e+10
3.64972e+10
4.20077e+10
4.83858e+10
5.53688e+10
1.1203e+20
7.30155e+19
4.75702e+19
3.09858e+19
2.0181e+19
1.31432e+19
8.55957e+18
5.57444e+18
3.63038e+18
2.36432e+18
1.53979e+18
1.00281e+18
6.53101e+17
4.25346e+17
2.77016e+17
1.80413e+17
1.17498e+17
7.65234e+16
4.98377e+16
3.2458e+16
2.11391e+16
1.37673e+16
8.96632e+15
5.83954e+15
3.80314e+15
2.47689e+15
1.61314e+15
1.05059e+15
6.84226e+14
4.45619e+14
2.9022e+14
1.89013e+14
1.231e+14
8.01716e+13
5.22138e+13
3.40055e+13
2.21469e+13
1.44237e+13
9.39381e+12
6.11795e+12
3.98447e+12
2.59498e+12
1.69005e+12
1.10068e+12
7.16848e+11
4.66865e+11
3.04058e+11
1.98026e+11
1.2897e+11
8.39957e+10
5.47005e+10
3.56109e+10
2.31714e+10
1.51013e+10
9.97381e+09
6.88896e+09
5.19357e+09
4.34901e+09
3.95835e+09
3.78528e+09
3.71025e+09
3.67806e+09
3.66434e+09
3.65853e+09
3.65612e+09
3.65521e+09
3.65499e+09
3.65518e+09
3.6557e+09
3.65664e+09
3.65817e+09
3.6606e+09
3.66443e+09
3.6704e+09
3.67968e+09
3.69397e+09
3.71584e+09
3.74905e+09
3.79895e+09
3.87309e+09
3.98165e+09
4.13778e+09
4.35752e+09
4.65913e+09
5.0619e+09
5.58475e+09
6.24511e+09
7.0583e+09
8.03723e+09
9.19213e+09
1.05305e+10
1.2058e+10
1.37824e+10
1.57208e+10
1.79104e+10
2.04186e+10
2.3377e+10
2.69145e+10
3.10116e+10
3.54977e+10
7.29644e+19
4.75544e+19
3.09818e+19
2.01803e+19
1.31432e+19
8.55957e+18
5.57435e+18
3.63025e+18
2.36418e+18
1.53967e+18
1.00272e+18
6.53032e+17
4.25296e+17
2.76981e+17
1.80389e+17
1.17482e+17
7.6513e+16
4.98309e+16
3.24535e+16
2.11361e+16
1.37654e+16
8.96506e+15
5.83872e+15
3.80261e+15
2.47654e+15
1.61291e+15
1.05045e+15
6.8413e+14
4.45556e+14
2.9018e+14
1.88987e+14
1.23082e+14
8.01603e+13
5.22064e+13
3.40007e+13
2.21438e+13
1.44217e+13
9.39249e+12
6.11709e+12
3.98391e+12
2.59462e+12
1.68981e+12
1.10053e+12
7.16747e+11
4.66799e+11
3.04015e+11
1.97997e+11
1.28951e+11
8.39832e+10
5.46966e+10
3.56203e+10
2.31899e+10
1.50894e+10
9.83201e+09
6.48685e+09
4.46818e+09
3.35424e+09
2.79738e+09
2.53924e+09
2.42477e+09
2.37513e+09
2.35383e+09
2.34475e+09
2.34091e+09
2.33932e+09
2.33871e+09
2.33856e+09
2.33868e+09
2.33901e+09
2.33962e+09
2.3406e+09
2.34216e+09
2.34461e+09
2.34845e+09
2.3544e+09
2.36358e+09
2.37762e+09
2.39893e+09
2.43095e+09
2.47852e+09
2.54817e+09
2.64831e+09
2.78924e+09
2.98263e+09
3.24083e+09
3.57592e+09
3.99904e+09
4.51996e+09
5.1469e+09
5.88635e+09
6.74307e+09
7.72077e+09
8.82446e+09
1.00653e+10
1.14676e+10
1.3075e+10
1.49722e+10
1.72425e+10
1.98734e+10
2.27545e+10
4.75205e+19
3.09713e+19
2.01778e+19
1.31429e+19
8.55969e+18
5.57444e+18
3.63025e+18
2.36412e+18
1.5396e+18
1.00265e+18
6.52972e+17
4.2525e+17
2.76948e+17
1.80366e+17
1.17466e+17
7.65019e+16
4.98234e+16
3.24486e+16
2.11329e+16
1.37633e+16
8.96365e+15
5.83779e+15
3.802e+15
2.47615e+15
1.61265e+15
1.05028e+15
6.8402e+14
4.45485e+14
2.90133e+14
1.88956e+14
1.23062e+14
8.01475e+13
5.2198e+13
3.39953e+13
2.21403e+13
1.44194e+13
9.39098e+12
6.11611e+12
3.98327e+12
2.5942e+12
1.68954e+12
1.10035e+12
7.16632e+11
4.66725e+11
3.03966e+11
1.97965e+11
1.2893e+11
8.39689e+10
5.46873e+10
3.56168e+10
2.31951e+10
1.5101e+10
9.82618e+09
6.40137e+09
4.21924e+09
2.89849e+09
2.16673e+09
1.7996e+09
1.62903e+09
1.55331e+09
1.52046e+09
1.50637e+09
1.50037e+09
1.49782e+09
1.49677e+09
1.49636e+09
1.49626e+09
1.49634e+09
1.49655e+09
1.49694e+09
1.49757e+09
1.49857e+09
1.50015e+09
1.50261e+09
1.50643e+09
1.51232e+09
1.52133e+09
1.53501e+09
1.55556e+09
1.58608e+09
1.63076e+09
1.695e+09
1.78538e+09
1.90938e+09
2.0749e+09
2.28966e+09
2.56077e+09
2.89447e+09
3.296e+09
3.76948e+09
4.31795e+09
4.9438e+09
5.65029e+09
6.4447e+09
7.34272e+09
8.37254e+09
9.5887e+09
1.10448e+10
1.27332e+10
1.45826e+10
3.09491e+19
2.01709e+19
1.31413e+19
8.55958e+18
5.57462e+18
3.63038e+18
2.36418e+18
1.5396e+18
1.00262e+18
6.52937e+17
4.25217e+17
2.76921e+17
1.80345e+17
1.17451e+17
7.64913e+16
4.98161e+16
3.24436e+16
2.11295e+16
1.3761e+16
8.96218e+15
5.83682e+15
3.80137e+15
2.47573e+15
1.61238e+15
1.0501e+15
6.83904e+14
4.45409e+14
2.90084e+14
1.88924e+14
1.23042e+14
8.01339e+13
5.21892e+13
3.39895e+13
2.21365e+13
1.44169e+13
9.38939e+12
6.11507e+12
3.98259e+12
2.59376e+12
1.68925e+12
1.10017e+12
7.16511e+11
4.66645e+11
3.03914e+11
1.97932e+11
1.28908e+11
8.39545e+10
5.46775e+10
3.56104e+10
2.31924e+10
1.51039e+10
9.83352e+09
6.39871e+09
4.1678e+09
2.7445e+09
1.88053e+09
1.39991e+09
1.15789e+09
1.04518e+09
9.95097e+08
9.7336e+08
9.64035e+08
9.60059e+08
9.58377e+08
9.57678e+08
9.5741e+08
9.57342e+08
9.57387e+08
9.57524e+08
9.57772e+08
9.58176e+08
9.5882e+08
9.59833e+08
9.61414e+08
9.63867e+08
9.67647e+08
9.73431e+08
9.82206e+08
9.95393e+08
1.01498e+09
1.04364e+09
1.08485e+09
1.14281e+09
1.22232e+09
1.32843e+09
1.46607e+09
1.63979e+09
1.85357e+09
2.11075e+09
2.41397e+09
2.76519e+09
3.16593e+09
3.61833e+09
4.1271e+09
4.70234e+09
5.36213e+09
6.14146e+09
7.07475e+09
8.15718e+09
9.34312e+09
2.01564e+19
1.31369e+19
8.55858e+18
5.57461e+18
3.63056e+18
2.36432e+18
1.53967e+18
1.00265e+18
6.52937e+17
4.25206e+17
2.76906e+17
1.80331e+17
1.1744e+17
7.64826e+16
4.98097e+16
3.24391e+16
2.11264e+16
1.37589e+16
8.96074e+15
5.83587e+15
3.80073e+15
2.47531e+15
1.6121e+15
1.04992e+15
6.83786e+14
4.45332e+14
2.90033e+14
1.88891e+14
1.2302e+14
8.01199e+13
5.21801e+13
3.39835e+13
2.21326e+13
1.44144e+13
9.38775e+12
6.114e+12
3.98189e+12
2.59331e+12
1.68896e+12
1.09997e+12
7.16385e+11
4.66564e+11
3.03861e+11
1.97897e+11
1.28885e+11
8.39398e+10
5.46679e+10
3.56039e+10
2.31881e+10
1.5102e+10
9.83513e+09
6.40337e+09
4.16677e+09
2.71361e+09
1.78534e+09
1.22027e+09
9.04646e+08
7.45119e+08
6.70652e+08
6.37517e+08
6.23131e+08
6.16959e+08
6.14328e+08
6.13214e+08
6.12752e+08
6.12573e+08
6.12527e+08
6.12555e+08
6.12643e+08
6.12802e+08
6.13061e+08
6.13475e+08
6.14125e+08
6.1514e+08
6.16715e+08
6.19141e+08
6.22853e+08
6.28485e+08
6.36947e+08
6.49513e+08
6.67902e+08
6.94332e+08
7.31505e+08
7.82487e+08
8.50507e+08
9.38726e+08
1.05005e+09
1.18701e+09
1.35177e+09
1.54601e+09
1.77101e+09
2.02776e+09
2.31768e+09
2.64381e+09
3.0126e+09
3.43558e+09
3.93501e+09
4.53287e+09
5.22608e+09
5.98557e+09
1.31274e+19
8.55571e+18
5.57398e+18
3.63059e+18
2.36447e+18
1.53979e+18
1.00272e+18
6.52972e+17
4.25217e+17
2.76906e+17
1.80326e+17
1.17433e+17
7.64768e+16
4.98049e+16
3.24354e+16
2.11237e+16
1.3757e+16
8.95942e+15
5.83496e+15
3.80012e+15
2.4749e+15
1.61183e+15
1.04974e+15
6.83668e+14
4.45255e+14
2.89983e+14
1.88858e+14
1.22999e+14
8.01058e+13
5.21708e+13
3.39775e+13
2.21287e+13
1.44119e+13
9.38609e+12
6.11292e+12
3.98119e+12
2.59285e+12
1.68866e+12
1.09978e+12
7.16259e+11
4.66481e+11
3.03807e+11
1.97862e+11
1.28863e+11
8.39249e+10
5.46582e+10
3.55975e+10
2.31838e+10
1.50991e+10
9.8338e+09
6.40428e+09
4.16971e+09
2.71334e+09
1.76683e+09
1.16147e+09
7.91944e+08
5.84712e+08
4.79572e+08
4.3037e+08
4.0845e+08
3.98928e+08
3.94842e+08
3.93101e+08
3.92364e+08
3.92057e+08
3.91939e+08
3.91907e+08
3.91925e+08
3.91981e+08
3.92083e+08
3.92249e+08
3.92515e+08
3.92932e+08
3.93584e+08
3.94595e+08
3.96152e+08
3.98535e+08
4.02149e+08
4.07579e+08
4.15641e+08
4.27439e+08
4.44393e+08
4.68232e+08
5.00922e+08
5.44528e+08
6.01072e+08
6.72411e+08
7.60179e+08
8.65753e+08
9.90236e+08
1.13446e+09
1.29912e+09
1.48515e+09
1.69453e+09
1.93135e+09
2.2029e+09
2.52324e+09
2.90621e+09
3.34979e+09
3.83548e+09
8.54955e+18
5.57212e+18
3.63019e+18
2.3645e+18
1.53991e+18
1.00281e+18
6.53032e+17
4.2525e+17
2.76921e+17
1.80331e+17
1.17433e+17
7.64747e+16
4.98024e+16
3.2433e+16
2.11217e+16
1.37555e+16
8.9583e+15
5.83416e+15
3.79957e+15
2.47452e+15
1.61158e+15
1.04957e+15
6.83554e+14
4.45179e+14
2.89933e+14
1.88825e+14
1.22977e+14
8.00917e+13
5.21616e+13
3.39715e+13
2.21248e+13
1.44093e+13
9.38442e+12
6.11183e+12
3.98048e+12
2.59239e+12
1.68836e+12
1.09958e+12
7.16131e+11
4.66398e+11
3.03753e+11
1.97827e+11
1.2884e+11
8.391e+10
5.46485e+10
3.55912e+10
2.31796e+10
1.50963e+10
9.83193e+09
6.40337e+09
4.17022e+09
2.71521e+09
1.76689e+09
1.15039e+09
7.55651e+08
5.14039e+08
3.77998e+08
3.08711e+08
2.76204e+08
2.61702e+08
2.55399e+08
2.52694e+08
2.51541e+08
2.51053e+08
2.5085e+08
2.50772e+08
2.5075e+08
2.50761e+08
2.50797e+08
2.50862e+08
2.50969e+08
2.5114e+08
2.51408e+08
2.51826e+08
2.52475e+08
2.53475e+08
2.55004e+08
2.57323e+08
2.60808e+08
2.65981e+08
2.73549e+08
2.84424e+08
2.99714e+08
3.20674e+08
3.4863e+08
3.84873e+08
4.30596e+08
4.86847e+08
5.5452e+08
6.34341e+08
7.26875e+08
8.32608e+08
9.52184e+08
1.08689e+09
1.23935e+09
1.41409e+09
1.61992e+09
1.86543e+09
2.14922e+09
2.45949e+09
5.56811e+18
3.62898e+18
2.36425e+18
1.53994e+18
1.0029e+18
6.53101e+17
4.25296e+17
2.76948e+17
1.80345e+17
1.1744e+17
7.64768e+16
4.98024e+16
3.24322e+16
2.11207e+16
1.37545e+16
8.95748e+15
5.83353e+15
3.7991e+15
2.47419e+15
1.61134e+15
1.04941e+15
6.83445e+14
4.45106e+14
2.89884e+14
1.88793e+14
1.22956e+14
8.00778e+13
5.21525e+13
3.39656e+13
2.21209e+13
1.44068e+13
9.38275e+12
6.11075e+12
3.97977e+12
2.59193e+12
1.68806e+12
1.09939e+12
7.16004e+11
4.66315e+11
3.03699e+11
1.97792e+11
1.28817e+11
8.3895e+10
5.46387e+10
3.55848e+10
2.31755e+10
1.50936e+10
9.8301e+09
6.40214e+09
4.16961e+09
2.71549e+09
1.76807e+09
1.15058e+09
7.49039e+08
4.91655e+08
3.33702e+08
2.44411e+08
1.98757e+08
1.7728e+08
1.67686e+08
1.63514e+08
1.61723e+08
1.60959e+08
1.60636e+08
1.60502e+08
1.6045e+08
1.60435e+08
1.60442e+08
1.60465e+08
1.60507e+08
1.60575e+08
1.60685e+08
1.60857e+08
1.61125e+08
1.61542e+08
1.62184e+08
1.63165e+08
1.64654e+08
1.6689e+08
1.70209e+08
1.75064e+08
1.8204e+08
1.91846e+08
2.05286e+08
2.23209e+08
2.46442e+08
2.7575e+08
3.1181e+08
3.55205e+08
4.06421e+08
4.65851e+08
5.33846e+08
6.10865e+08
6.97766e+08
7.96206e+08
9.09e+08
1.04159e+09
1.19925e+09
1.38094e+09
1.57911e+09
3.62637e+18
2.36346e+18
1.53978e+18
1.00292e+18
6.53159e+17
4.25346e+17
2.76981e+17
1.80366e+17
1.17451e+17
7.64826e+16
4.98049e+16
3.2433e+16
2.11207e+16
1.37541e+16
8.95705e+15
5.83313e+15
3.79876e+15
2.47393e+15
1.61115e+15
1.04927e+15
6.83349e+14
4.4504e+14
2.89839e+14
1.88763e+14
1.22935e+14
8.00642e+13
5.21436e+13
3.39597e+13
2.2117e+13
1.44042e+13
9.3811e+12
6.10967e+12
3.97907e+12
2.59147e+12
1.68776e+12
1.09919e+12
7.15876e+11
4.66232e+11
3.03645e+11
1.97756e+11
1.28794e+11
8.38801e+10
5.4629e+10
3.55785e+10
2.31714e+10
1.50909e+10
9.82833e+09
6.40095e+09
4.16881e+09
2.71507e+09
1.76822e+09
1.15132e+09
7.49239e+08
4.87717e+08
3.19907e+08
2.16661e+08
1.58064e+08
1.27986e+08
1.13798e+08
1.07451e+08
1.04689e+08
1.03503e+08
1.02997e+08
1.02783e+08
1.02694e+08
1.0266e+08
1.0265e+08
1.02654e+08
1.02668e+08
1.02695e+08
1.02739e+08
1.0281e+08
1.0292e+08
1.03093e+08
1.0336e+08
1.03772e+08
1.04402e+08
1.05357e+08
1.06792e+08
1.08922e+08
1.12037e+08
1.16511e+08
1.228e+08
1.31418e+08
1.42909e+08
1.57803e+08
1.76592e+08
1.99714e+08
2.27553e+08
2.60438e+08
2.98648e+08
3.42444e+08
3.92159e+08
4.48373e+08
5.12141e+08
5.85198e+08
6.70881e+08
7.72383e+08
8.88892e+08
1.01557e+09
2.36176e+18
1.53926e+18
1.00282e+18
6.53176e+17
4.25385e+17
2.77016e+17
1.80389e+17
1.17466e+17
7.64913e+16
4.98097e+16
3.24354e+16
2.11217e+16
1.37545e+16
8.95705e+15
5.83299e+15
3.79859e+15
2.47376e+15
1.61101e+15
1.04916e+15
6.83268e+14
4.44982e+14
2.89799e+14
1.88735e+14
1.22916e+14
8.00514e+13
5.2135e+13
3.3954e+13
2.21133e+13
1.44017e+13
9.37946e+12
6.1086e+12
3.97837e+12
2.59101e+12
1.68746e+12
1.099e+12
7.15748e+11
4.66149e+11
3.03591e+11
1.97721e+11
1.28771e+11
8.38651e+10
5.46192e+10
3.55721e+10
2.31672e+10
1.50882e+10
9.82658e+09
6.3998e+09
4.16803e+09
2.71455e+09
1.76794e+09
1.1514e+09
7.49704e+08
4.87893e+08
3.17568e+08
2.08167e+08
1.40689e+08
1.02242e+08
8.24279e+07
7.30556e+07
6.88564e+07
6.70278e+07
6.62426e+07
6.59078e+07
6.57661e+07
6.57071e+07
6.56841e+07
6.56775e+07
6.56799e+07
6.56893e+07
6.57065e+07
6.57348e+07
6.57799e+07
6.58509e+07
6.59616e+07
6.61332e+07
6.63976e+07
6.68019e+07
6.7415e+07
6.83357e+07
6.97022e+07
7.17006e+07
7.45708e+07
7.8604e+07
8.41305e+07
9.14977e+07
1.01046e+08
1.13093e+08
1.27923e+08
1.4579e+08
1.66919e+08
1.9151e+08
2.19761e+08
2.51917e+08
2.88374e+08
3.29807e+08
3.77284e+08
4.32837e+08
4.98377e+08
5.73277e+08
6.544e+08
1.53816e+18
1.00248e+18
6.5311e+17
4.25397e+17
2.77042e+17
1.80413e+17
1.17482e+17
7.65019e+16
4.98161e+16
3.24391e+16
2.11237e+16
1.37555e+16
8.95748e+15
5.83313e+15
3.79859e+15
2.47371e+15
1.61094e+15
1.04909e+15
6.83211e+14
4.44937e+14
2.89765e+14
1.88711e+14
1.229e+14
8.00398e+13
5.2127e+13
3.39486e+13
2.21096e+13
1.43993e+13
9.37787e+12
6.10755e+12
3.97768e+12
2.59055e+12
1.68716e+12
1.0988e+12
7.15622e+11
4.66066e+11
3.03537e+11
1.97686e+11
1.28748e+11
8.38501e+10
5.46095e+10
3.55658e+10
2.31631e+10
1.50855e+10
9.82482e+09
6.39866e+09
4.16728e+09
2.71405e+09
1.7676e+09
1.15121e+09
7.49743e+08
4.88185e+08
3.17709e+08
2.0678e+08
1.35463e+08
9.13678e+07
6.61461e+07
5.30956e+07
4.69049e+07
4.41268e+07
4.29162e+07
4.23962e+07
4.21745e+07
4.20807e+07
4.20416e+07
4.20263e+07
4.20218e+07
4.20233e+07
4.20293e+07
4.20403e+07
4.20585e+07
4.20875e+07
4.2133e+07
4.22041e+07
4.23143e+07
4.2484e+07
4.27435e+07
4.31369e+07
4.37277e+07
4.46045e+07
4.58866e+07
4.77277e+07
5.03144e+07
5.38583e+07
5.85819e+07
6.47042e+07
7.24291e+07
8.19427e+07
9.34136e+07
1.06997e+08
1.22837e+08
1.41083e+08
1.61916e+08
1.85608e+08
2.12595e+08
2.43535e+08
2.79662e+08
3.22111e+08
3.70403e+08
4.22494e+08
1.00176e+18
6.52892e+17
4.25354e+17
2.7705e+17
1.8043e+17
1.17498e+17
7.6513e+16
4.98234e+16
3.24436e+16
2.11264e+16
1.3757e+16
8.9583e+15
5.83353e+15
3.79876e+15
2.47376e+15
1.61094e+15
1.04907e+15
6.83181e+14
4.44909e+14
2.89742e+14
1.88692e+14
1.22886e+14
8.00298e+13
5.212e+13
3.39437e+13
2.21063e+13
1.43971e+13
9.37636e+12
6.10653e+12
3.97701e+12
2.59011e+12
1.68687e+12
1.09861e+12
7.15496e+11
4.65984e+11
3.03483e+11
1.97651e+11
1.28725e+11
8.38352e+10
5.45997e+10
3.55594e+10
2.31589e+10
1.50828e+10
9.82307e+09
6.39752e+09
4.16654e+09
2.71356e+09
1.76728e+09
1.15099e+09
7.4962e+08
4.88203e+08
3.17891e+08
2.06887e+08
1.34644e+08
8.81556e+07
5.93446e+07
4.28017e+07
3.42071e+07
3.01183e+07
2.82804e+07
2.74789e+07
2.71345e+07
2.69877e+07
2.69255e+07
2.68996e+07
2.68894e+07
2.68865e+07
2.68873e+07
2.68912e+07
2.68982e+07
2.69099e+07
2.69285e+07
2.69577e+07
2.70034e+07
2.70741e+07
2.7183e+07
2.73496e+07
2.76021e+07
2.79812e+07
2.85438e+07
2.93663e+07
3.05473e+07
3.22063e+07
3.44788e+07
3.75076e+07
4.14331e+07
4.63872e+07
5.24913e+07
5.98579e+07
6.85939e+07
7.88038e+07
9.05977e+07
1.04109e+08
1.19528e+08
1.37136e+08
1.57338e+08
1.8089e+08
2.08459e+08
2.39689e+08
2.73241e+08
6.52422e+17
4.25212e+17
2.77022e+17
1.80436e+17
1.1751e+17
7.65234e+16
4.98309e+16
3.24486e+16
2.11295e+16
1.37589e+16
8.95942e+15
5.83416e+15
3.7991e+15
2.47393e+15
1.61101e+15
1.04909e+15
6.83181e+14
4.44899e+14
2.89729e+14
1.88681e+14
1.22876e+14
8.00221e+13
5.21142e+13
3.39396e+13
2.21034e+13
1.4395e+13
9.37496e+12
6.10559e+12
3.97637e+12
2.58969e+12
1.68658e+12
1.09842e+12
7.15373e+11
4.65903e+11
3.0343e+11
1.97616e+11
1.28702e+11
8.38203e+10
5.459e+10
3.55531e+10
2.31548e+10
1.50801e+10
9.82132e+09
6.39637e+09
4.1658e+09
2.71308e+09
1.76696e+09
1.15078e+09
7.49476e+08
4.88121e+08
3.17898e+08
2.07001e+08
1.34722e+08
8.76732e+07
5.73719e+07
3.85497e+07
2.77011e+07
2.20419e+07
1.93414e+07
1.81256e+07
1.7595e+07
1.73669e+07
1.72697e+07
1.72285e+07
1.72113e+07
1.72045e+07
1.72025e+07
1.72031e+07
1.72055e+07
1.721e+07
1.72175e+07
1.72295e+07
1.72482e+07
1.72775e+07
1.73229e+07
1.73929e+07
1.74997e+07
1.76618e+07
1.79051e+07
1.8266e+07
1.87937e+07
1.95513e+07
2.06153e+07
2.20726e+07
2.40147e+07
2.65318e+07
2.97091e+07
3.36261e+07
3.83577e+07
4.39777e+07
5.05607e+07
5.81876e+07
6.69556e+07
7.69958e+07
8.84931e+07
1.017e+08
1.17077e+08
1.35022e+08
1.55273e+08
1.76949e+08
4.24906e+17
2.7693e+17
1.80418e+17
1.17513e+17
7.65311e+16
4.98377e+16
3.24535e+16
2.11329e+16
1.3761e+16
8.96074e+15
5.83496e+15
3.79957e+15
2.47419e+15
1.61115e+15
1.04916e+15
6.83211e+14
4.44909e+14
2.89729e+14
1.88677e+14
1.22871e+14
8.00172e+13
5.21102e+13
3.39364e+13
2.2101e+13
1.43933e+13
9.37373e+12
6.10473e+12
3.97578e+12
2.58929e+12
1.68632e+12
1.09824e+12
7.15254e+11
4.65824e+11
3.03378e+11
1.97582e+11
1.2868e+11
8.38056e+10
5.45804e+10
3.55468e+10
2.31507e+10
1.50775e+10
9.81957e+09
6.39523e+09
4.16505e+09
2.71259e+09
1.76664e+09
1.15057e+09
7.49338e+08
4.88027e+08
3.17844e+08
2.07003e+08
1.34792e+08
8.77289e+07
5.70887e+07
3.73393e+07
2.50445e+07
1.79313e+07
1.42054e+07
1.24221e+07
1.16178e+07
1.12665e+07
1.11155e+07
1.10511e+07
1.10238e+07
1.10124e+07
1.10079e+07
1.10065e+07
1.10069e+07
1.10084e+07
1.10113e+07
1.10161e+07
1.10238e+07
1.10358e+07
1.10546e+07
1.10838e+07
1.11287e+07
1.11973e+07
1.13013e+07
1.14574e+07
1.1689e+07
1.20276e+07
1.25135e+07
1.31959e+07
1.41304e+07
1.53757e+07
1.69898e+07
1.90277e+07
2.15413e+07
2.45807e+07
2.81964e+07
3.24412e+07
3.73735e+07
4.30632e+07
4.96007e+07
5.71077e+07
6.57428e+07
7.57904e+07
8.74874e+07
1.00647e+08
1.14689e+08
2.76731e+17
1.80358e+17
1.17501e+17
7.65334e+16
4.98427e+16
3.2458e+16
2.11361e+16
1.37633e+16
8.96218e+15
5.83587e+15
3.80012e+15
2.47452e+15
1.61134e+15
1.04927e+15
6.83268e+14
4.44937e+14
2.89742e+14
1.88681e+14
1.22871e+14
8.00155e+13
5.2108e+13
3.39343e+13
2.20993e+13
1.4392e+13
9.37273e+12
6.10401e+12
3.97527e+12
2.58893e+12
1.68607e+12
1.09808e+12
7.15141e+11
4.65748e+11
3.03328e+11
1.97548e+11
1.28658e+11
8.37912e+10
5.45709e+10
3.55406e+10
2.31466e+10
1.50748e+10
9.81783e+09
6.3941e+09
4.16431e+09
2.71211e+09
1.76633e+09
1.15036e+09
7.49203e+08
4.87937e+08
3.17783e+08
2.06967e+08
1.34792e+08
8.77725e+07
5.71276e+07
3.71738e+07
2.43025e+07
1.62724e+07
1.16092e+07
9.15664e+06
7.97909e+06
7.44705e+06
7.21446e+06
7.11441e+06
7.07174e+06
7.05366e+06
7.04612e+06
7.04313e+06
7.04222e+06
7.0424e+06
7.04339e+06
7.04526e+06
7.04835e+06
7.05327e+06
7.06101e+06
7.07308e+06
7.09179e+06
7.1206e+06
7.16463e+06
7.23138e+06
7.33156e+06
7.48017e+06
7.69736e+06
8.00907e+06
8.44674e+06
9.04604e+06
9.84456e+06
1.08796e+07
1.21867e+07
1.37997e+07
1.57521e+07
1.80781e+07
2.08147e+07
2.40034e+07
2.76936e+07
3.19476e+07
3.68458e+07
4.24886e+07
4.90533e+07
5.66829e+07
6.52463e+07
7.43617e+07
1.80228e+17
1.17462e+17
7.65257e+16
4.98443e+16
3.24613e+16
2.11391e+16
1.37654e+16
8.96365e+15
5.83682e+15
3.80073e+15
2.4749e+15
1.61158e+15
1.04941e+15
6.83349e+14
4.44982e+14
2.89765e+14
1.88692e+14
1.22876e+14
8.00172e+13
5.2108e+13
3.39336e+13
2.20984e+13
1.43911e+13
9.37203e+12
6.10345e+12
3.97485e+12
2.58863e+12
1.68586e+12
1.09793e+12
7.15038e+11
4.65678e+11
3.0328e+11
1.97517e+11
1.28636e+11
8.37771e+10
5.45616e+10
3.55345e+10
2.31426e+10
1.50722e+10
9.8161e+09
6.39297e+09
4.16358e+09
2.71163e+09
1.76601e+09
1.15016e+09
7.4907e+08
4.8785e+08
3.17725e+08
2.06927e+08
1.34768e+08
8.77709e+07
5.71546e+07
3.72006e+07
2.42062e+07
1.5818e+07
1.05739e+07
7.51749e+06
5.90328e+06
5.12579e+06
4.77386e+06
4.61987e+06
4.55361e+06
4.52534e+06
4.51336e+06
4.50836e+06
4.50638e+06
4.50576e+06
4.50587e+06
4.5065e+06
4.5077e+06
4.50968e+06
4.51284e+06
4.51781e+06
4.52556e+06
4.53757e+06
4.55606e+06
4.58432e+06
4.62716e+06
4.69145e+06
4.7868e+06
4.92614e+06
5.12609e+06
5.4068e+06
5.79112e+06
6.30315e+06
6.96685e+06
7.80518e+06
8.84027e+06
1.00942e+07
1.15903e+07
1.33539e+07
1.54142e+07
1.78056e+07
2.05706e+07
2.37625e+07
2.74457e+07
3.17318e+07
3.67081e+07
4.22842e+07
4.82091e+07
1.17378e+17
7.65002e+16
4.98392e+16
3.24623e+16
2.11412e+16
1.37673e+16
8.96506e+15
5.83779e+15
3.80137e+15
2.47531e+15
1.61183e+15
1.04957e+15
6.83445e+14
4.4504e+14
2.89799e+14
1.88711e+14
1.22886e+14
8.00221e+13
5.21102e+13
3.39343e+13
2.20984e+13
1.43909e+13
9.37166e+12
6.10311e+12
3.97456e+12
2.5884e+12
1.68568e+12
1.0978e+12
7.14948e+11
4.65615e+11
3.03237e+11
1.97487e+11
1.28617e+11
8.37637e+10
5.45527e+10
3.55285e+10
2.31387e+10
1.50696e+10
9.8144e+09
6.39186e+09
4.16285e+09
2.71115e+09
1.7657e+09
1.14996e+09
7.48937e+08
4.87763e+08
3.17668e+08
2.06889e+08
1.34742e+08
8.77553e+07
5.71529e+07
3.72171e+07
2.42244e+07
1.57623e+07
1.0296e+07
6.87177e+06
4.86877e+06
3.8065e+06
3.29322e+06
3.06043e+06
2.95848e+06
2.91459e+06
2.89586e+06
2.88793e+06
2.88461e+06
2.8833e+06
2.88289e+06
2.88295e+06
2.88335e+06
2.88412e+06
2.88539e+06
2.88741e+06
2.8906e+06
2.89558e+06
2.90329e+06
2.91516e+06
2.9333e+06
2.96079e+06
3.00205e+06
3.06323e+06
3.15262e+06
3.28088e+06
3.46092e+06
3.70738e+06
4.03571e+06
4.4613e+06
4.99897e+06
5.66313e+06
6.46838e+06
7.43032e+06
8.56636e+06
9.8965e+06
1.14445e+07
1.32392e+07
1.5316e+07
1.77163e+07
2.05112e+07
2.37548e+07
2.73856e+07
3.1239e+07
7.64452e+16
4.98227e+16
3.2459e+16
2.11419e+16
1.37688e+16
8.96632e+15
5.83872e+15
3.802e+15
2.47573e+15
1.6121e+15
1.04974e+15
6.83554e+14
4.45106e+14
2.89839e+14
1.88735e+14
1.229e+14
8.00298e+13
5.21142e+13
3.39364e+13
2.20993e+13
1.43911e+13
9.37166e+12
6.10299e+12
3.97441e+12
2.58825e+12
1.68556e+12
1.09771e+12
7.14876e+11
4.65563e+11
3.03199e+11
1.97461e+11
1.28598e+11
8.37513e+10
5.45443e+10
3.55229e+10
2.31349e+10
1.50671e+10
9.81275e+09
6.39076e+09
4.16213e+09
2.71068e+09
1.76539e+09
1.14975e+09
7.48805e+08
4.87677e+08
3.17611e+08
2.06852e+08
1.34718e+08
8.77385e+07
5.71426e+07
3.72156e+07
2.42345e+07
1.57745e+07
1.02639e+07
6.70194e+06
4.46626e+06
3.15384e+06
2.45491e+06
2.11608e+06
1.96211e+06
1.89462e+06
1.86555e+06
1.85314e+06
1.84788e+06
1.84568e+06
1.84481e+06
1.84453e+06
1.84457e+06
1.84482e+06
1.84531e+06
1.84613e+06
1.84743e+06
1.84948e+06
1.85268e+06
1.85763e+06
1.86525e+06
1.87689e+06
1.89453e+06
1.921e+06
1.96026e+06
2.01761e+06
2.09989e+06
2.21536e+06
2.37341e+06
2.58394e+06
2.85684e+06
3.20167e+06
3.62778e+06
4.14478e+06
4.76308e+06
5.49442e+06
6.35243e+06
7.35327e+06
8.51643e+06
9.86526e+06
1.14267e+07
1.32464e+07
1.53582e+07
1.7721e+07
2.0227e+07
4.97868e+16
3.24482e+16
2.11397e+16
1.37692e+16
8.96724e+15
5.83954e+15
3.80261e+15
2.47615e+15
1.61238e+15
1.04992e+15
6.83668e+14
4.45179e+14
2.89884e+14
1.88763e+14
1.22916e+14
8.00398e+13
5.212e+13
3.39396e+13
2.2101e+13
1.4392e+13
9.37203e+12
6.10311e+12
3.97441e+12
2.5882e+12
1.6855e+12
1.09765e+12
7.14825e+11
4.65523e+11
3.03169e+11
1.97439e+11
1.28583e+11
8.37403e+10
5.45367e+10
3.55177e+10
2.31314e+10
1.50647e+10
9.81116e+09
6.38971e+09
4.16143e+09
2.71022e+09
1.76509e+09
1.14955e+09
7.48674e+08
4.87591e+08
3.17556e+08
2.06816e+08
1.34694e+08
8.77225e+07
5.71317e+07
3.72088e+07
2.42333e+07
1.57807e+07
1.0272e+07
6.68358e+06
4.3626e+06
2.9031e+06
2.04331e+06
1.58352e+06
1.35987e+06
1.25804e+06
1.21335e+06
1.1941e+06
1.18588e+06
1.1824e+06
1.18094e+06
1.18036e+06
1.18017e+06
1.18019e+06
1.18035e+06
1.18067e+06
1.18119e+06
1.18203e+06
1.18334e+06
1.18539e+06
1.18857e+06
1.19346e+06
1.20094e+06
1.21226e+06
1.22925e+06
1.25443e+06
1.29123e+06
1.34401e+06
1.41807e+06
1.51942e+06
1.65442e+06
1.82941e+06
2.05054e+06
2.3239e+06
2.65577e+06
3.05303e+06
3.52356e+06
4.07652e+06
4.72282e+06
5.47547e+06
6.34994e+06
7.3638e+06
8.54643e+06
9.91949e+06
1.14555e+07
1.30842e+07
3.24249e+16
2.11327e+16
1.37678e+16
8.96752e+15
5.84014e+15
3.80314e+15
2.47654e+15
1.61265e+15
1.0501e+15
6.83786e+14
4.45255e+14
2.89933e+14
1.88793e+14
1.22935e+14
8.00514e+13
5.2127e+13
3.39437e+13
2.21034e+13
1.43933e+13
9.37273e+12
6.10345e+12
3.97456e+12
2.58825e+12
1.6855e+12
1.09763e+12
7.14799e+11
4.65498e+11
3.03148e+11
1.97422e+11
1.2857e+11
8.37311e+10
5.45301e+10
3.55131e+10
2.31282e+10
1.50625e+10
9.80968e+09
6.38871e+09
4.16076e+09
2.70977e+09
1.76479e+09
1.14936e+09
7.48546e+08
4.87507e+08
3.175e+08
2.06779e+08
1.3467e+08
8.7707e+07
5.71213e+07
3.72018e+07
2.42289e+07
1.57797e+07
1.02759e+07
6.68896e+06
4.35218e+06
2.8399e+06
1.88721e+06
1.32405e+06
1.02162e+06
874012
806668
777084
764330
758885
756577
755611
755225
755100
755110
755213
755416