/*--------------------------------*- C++ -*----------------------------------*\
  =========                 |
  \\      /  F ield         | OpenFOAM: The Open Source CFD Toolbox
   \\    /   O peration     | Website:  https://openfoam.org
    \\  /    A nd           | Version:  8
     \\/     M anipulation  |
\*---------------------------------------------------------------------------*/
FoamFile
{
    version     2.0;
    format      ascii;
    class       volVectorField;
    location    "0.8";
    object      U;
}
// * * * * * * * * * * * * * * * * * * * * * * * * * * * * * * * * * * * * * //

dimensions      [0 1 -1 0 0 0 0];

internalField   nonuniform List<vector> 
10000
(
(0.180085 0.768649 0)
(0.453841 0.410255 0)
(0.523279 0.000826814 1.18963e-20)
(0.490381 -0.356202 -9.15812e-23)
(0.396021 -0.624731 -4.91726e-21)
(0.276484 -0.798211 0)
(0.157215 -0.888964 0)
(0.0534046 -0.917186 0)
(-0.0281553 -0.903365 0)
(-0.0864946 -0.864289 0)
(-0.12404 -0.811862 0)
(-0.144753 -0.753583 0)
(-0.152915 -0.693696 0)
(-0.152444 -0.634374 0)
(-0.146589 -0.57665 0)
(-0.137852 -0.521035 0)
(-0.12803 -0.467849 0)
(-0.118317 -0.417372 0)
(-0.10942 -0.369876 0)
(-0.101681 -0.325604 0)
(-0.0951771 -0.284735 3.42997e-20)
(-0.0898119 -0.247363 2.03905e-22)
(-0.0853839 -0.213481 -3.34483e-20)
(-0.081639 -0.18299 0)
(-0.0783087 -0.155722 0)
(-0.0751343 -0.131466 1.10284e-20)
(-0.0718842 -0.110007 6.08747e-23)
(-0.0683634 -0.0911501 -1.08965e-20)
(-0.0644202 -0.074756 0)
(-0.0599504 -0.0607578 0)
(-0.0549006 -0.0491755 0)
(-0.0492701 -0.0401203 1.00165e-20)
(-0.043112 -0.0337895 4.03374e-23)
(-0.0365311 -0.0304535 -9.14151e-21)
(-0.0296795 -0.0304328 0)
(-0.0227468 -0.0340697 0)
(-0.0159467 -0.0416922 0)
(-0.00949873 -0.0535766 0)
(-0.00360657 -0.0699069 -1.18238e-20)
(0.00156538 -0.0907345 -4.60061e-23)
(0.00591711 -0.115938 9.19688e-21)
(0.00944008 -0.145179 -8.05294e-21)
(0.0122482 -0.177858 -5.28306e-23)
(0.0146168 -0.213066 6.18649e-21)
(0.017032 -0.249542 -5.42136e-21)
(0.0202481 -0.285661 -5.59798e-23)
(0.0253385 -0.319477 3.94607e-21)
(0.0337149 -0.348835 0)
(0.0470795 -0.371554 0)
(0.067296 -0.385602 0)
(0.0961953 -0.389164 0)
(0.13535 -0.380451 0)
(0.185721 -0.35723 4.9119e-22)
(0.246681 -0.316709 1.02619e-21)
(0.31393 -0.257837 -1.14022e-23)
(0.378258 -0.186906 -1.52748e-21)
(0.429823 -0.118854 -1.33808e-21)
(0.465131 -0.0669158 0)
(0.486986 -0.03399 0)
(0.49983 -0.015757 0)
(0.507176 -0.0066394 2.6848e-22)
(0.511281 -0.00248156 -5.26598e-24)
(0.51349 -0.00079089 -1.1661e-22)
(0.514577 -0.000240859 -5.29556e-23)
(0.514977 -0.000179712 2.22614e-24)
(0.514928 -0.000305688 8.52605e-23)
(0.51455 -0.000483263 -1.19046e-22)
(0.513892 -0.000646902 2.50092e-24)
(0.512966 -0.000752058 2.17083e-22)
(0.511754 -0.000749223 -2.77887e-22)
(0.510226 -0.000568168 3.44383e-24)
(0.508344 -0.000105865 3.96281e-22)
(0.506063 0.000784708 0)
(0.503343 0.00230568 0)
(0.500146 0.00472472 0)
(0.49644 0.00838201 0)
(0.492199 0.0136898 0)
(0.487403 0.0211154 -2.14965e-21)
(0.482033 0.0311383 6.83751e-23)
(0.476069 0.0441656 7.21956e-21)
(0.469491 0.0604029 0)
(0.46229 0.0796873 0)
(0.454483 0.101339 0)
(0.446139 0.124105 0)
(0.437382 0.146285 0)
(0.428372 0.166028 0)
(0.419247 0.181694 0)
(0.410065 0.192094 0)
(0.400751 0.19654 0)
(0.391046 0.194723 0)
(0.380447 0.186587 0)
(0.368138 0.172319 0)
(0.352983 0.15259 0)
(0.33368 0.128958 0)
(0.309178 0.104296 0)
(0.279412 0.0827823 3.8127e-20)
(0.246199 0.0687642 -9.31542e-22)
(0.213781 0.064539 1.20102e-20)
(0.18843 0.0677022 0)
(0.175959 0.069147 0)
(0.474867 0.541883 0)
(0.577268 0.312448 0)
(0.633173 0.0688205 4.59977e-21)
(0.6267 -0.164713 -1.92036e-22)
(0.568191 -0.360799 -4.2468e-21)
(0.479466 -0.505703 0)
(0.381346 -0.598689 0)
(0.288833 -0.647157 0)
(0.210268 -0.661661 0)
(0.148542 -0.652508 0)
(0.102954 -0.628102 0)
(0.0709172 -0.594568 0)
(0.0492026 -0.556051 0)
(0.0347058 -0.515245 0)
(0.0248281 -0.47389 0)
(0.0176036 -0.433141 0)
(0.0116793 -0.393796 0)
(0.00622043 -0.356428 0)
(0.000792368 -0.321436 0)
(-0.0047575 -0.289078 0)
(-0.0104 -0.259482 2.82185e-20)
(-0.016004 -0.232657 6.54528e-22)
(-0.021392 -0.208514 -2.77055e-20)
(-0.0263778 -0.186885 0)
(-0.0307858 -0.167554 0)
(-0.0344611 -0.150284 9.20112e-21)
(-0.0372711 -0.134842 2.01926e-22)
(-0.0391044 -0.121027 -9.16325e-21)
(-0.0398675 -0.108689 0)
(-0.0394849 -0.0977424 0)
(-0.037898 -0.0881783 0)
(-0.0350685 -0.080067 8.65572e-21)
(-0.0309813 -0.0735551 1.45037e-22)
(-0.025649 -0.068857 -8.05281e-21)
(-0.0191141 -0.0662377 0)
(-0.0114508 -0.0659914 0)
(-0.00276207 -0.0684133 0)
(0.00682491 -0.0737673 0)
(0.0171673 -0.0822513 -1.08362e-20)
(0.028116 -0.0939619 -1.47334e-22)
(0.039527 -0.108858 8.24621e-21)
(0.0512731 -0.126721 -6.9783e-21)
(0.0632596 -0.147121 -1.31711e-22)
(0.0754481 -0.169366 4.62112e-21)
(0.0878954 -0.192472 -3.5459e-21)
(0.10081 -0.215138 -1.14016e-22)
(0.114618 -0.235768 1.60614e-21)
(0.130014 -0.252556 0)
(0.147959 -0.26363 0)
(0.169586 -0.267252 0)
(0.196018 -0.262009 0)
(0.22813 -0.246956 0)
(0.266281 -0.221734 1.88427e-21)
(0.309943 -0.186913 2.15061e-21)
(0.356892 -0.144973 -1.07236e-23)
(0.402523 -0.10143 -2.12216e-21)
(0.441304 -0.0634898 -1.72311e-21)
(0.470057 -0.0357749 0)
(0.489176 -0.0183279 0)
(0.500976 -0.00855381 0)
(0.507906 -0.00358013 3.52702e-22)
(0.511819 -0.00127557 -1.29085e-23)
(0.513922 -0.000329991 -1.63738e-22)
(0.514946 -2.5016e-05 -6.95502e-23)
(0.515307 2.76327e-06 5.99671e-24)
(0.515233 -7.35156e-05 8.98566e-23)
(0.514836 -0.000173395 -1.18542e-22)
(0.514164 -0.000255992 7.26409e-24)
(0.513219 -0.00029203 2.10829e-22)
(0.511983 -0.000248713 -2.73916e-22)
(0.510417 -8.04886e-05 1.10605e-23)
(0.508478 0.0002778 4.25239e-22)
(0.506115 0.000916834 0)
(0.503279 0.00195825 0)
(0.499926 0.00355875 0)
(0.496022 0.00591176 0)
(0.491547 0.0092433 0)
(0.486502 0.0137989 3.15947e-22)
(0.480911 0.0198149 1.16209e-22)
(0.474832 0.0274707 1.99004e-21)
(0.468361 0.0368193 0)
(0.461628 0.0477063 0)
(0.454783 0.0597033 0)
(0.447966 0.0720936 0)
(0.441256 0.0839442 0)
(0.434636 0.0942588 0)
(0.427975 0.102156 0)
(0.421049 0.106991 0)
(0.413554 0.108384 0)
(0.405107 0.106164 0)
(0.395174 0.100311 0)
(0.382986 0.0909758 0)
(0.367483 0.0786436 0)
(0.347431 0.0644051 0)
(0.321829 0.0502236 0)
(0.290708 0.0388882 1.48479e-20)
(0.25617 0.0332707 -2.1329e-21)
(0.222998 0.0347646 1.49562e-20)
(0.197979 0.0414793 0)
(0.186011 0.0476828 0)
(0.645528 0.496164 -1.66887e-21)
(0.693605 0.310339 -2.84005e-21)
(0.727167 0.103922 1.29272e-21)
(0.7261 -0.101407 2.93439e-21)
(0.687928 -0.283402 4.40982e-21)
(0.623067 -0.427641 1.3685e-20)
(0.54558 -0.52948 1.83757e-20)
(0.467604 -0.591816 2.1943e-20)
(0.397061 -0.621575 2.42446e-20)
(0.337636 -0.626765 0)
(0.289828 -0.614697 2.55477e-20)
(0.252237 -0.591264 2.50368e-20)
(0.222657 -0.560874 2.41081e-20)
(0.198802 -0.526687 2.30078e-20)
(0.178716 -0.490931 2.19042e-20)
(0.160937 -0.455163 0)
(0.1445 -0.42047 2.01173e-20)
(0.128863 -0.387585 1.95119e-20)
(0.113802 -0.356979 1.90852e-20)
(0.0993005 -0.328906 1.88142e-20)
(0.0854598 -0.30345 4.76458e-20)
(0.0724272 -0.280556 -2.78392e-20)
(0.0603522 -0.26007 -1.00249e-20)
(0.0493614 -0.241762 1.84282e-20)
(0.03955 -0.225367 1.83227e-20)
(0.0309842 -0.210609 2.76431e-20)
(0.0237088 -0.197226 1.73428e-20)
(0.017758 -0.184993 8.10278e-21)
(0.0131639 -0.17374 1.71237e-20)
(0.00996368 -0.163365 0)
(0.00820171 -0.15384 1.58636e-20)
(0.00792934 -0.145219 2.41401e-20)
(0.00920031 -0.137637 -7.06227e-21)
(0.0120644 -0.131296 4.54497e-21)
(0.0165596 -0.126459 1.19954e-20)
(0.0227043 -0.123424 0)
(0.0304907 -0.1225 9.66812e-21)
(0.0398803 -0.123972 8.50796e-21)
(0.0508008 -0.128068 -1.2067e-20)
(0.0631454 -0.134922 6.33305e-21)
(0.0767725 -0.144534 1.43088e-20)
(0.0915082 -0.156733 -7.62217e-21)
(0.107152 -0.171136 3.62217e-21)
(0.123489 -0.187107 7.46941e-21)
(0.140326 -0.203718 -2.24711e-21)
(0.15754 -0.219729 1.40369e-21)
(0.175148 -0.233605 1.00168e-21)
(0.193382 -0.243597 -1.97634e-22)
(0.212722 -0.247902 -1.20144e-22)
(0.233873 -0.244891 3.11774e-22)
(0.257663 -0.233378 4.51224e-22)
(0.284857 -0.212891 -5.1417e-22)
(0.315902 -0.183944 4.5034e-21)
(0.350563 -0.148387 1.79727e-21)
(0.387332 -0.109858 -1.12017e-21)
(0.423028 -0.0736204 -3.73462e-21)
(0.453752 -0.044555 -2.85686e-21)
(0.477079 -0.0245356 6.18701e-24)
(0.493045 -0.0123614 -1.38908e-24)
(0.503186 -0.00565131 1.93346e-22)
(0.509295 -0.00225672 4.99952e-22)
(0.512815 -0.000688611 3.25955e-22)
(0.514734 -5.0643e-05 1.06952e-22)
(0.515671 0.000148793 2.7003e-22)
(0.515988 0.000161246 3.83131e-22)
(0.515886 0.000109242 5.50025e-22)
(0.515466 5.23452e-05 3.30913e-22)
(0.514767 2.36635e-05 -2.80291e-22)
(0.51379 4.96157e-05 9.3308e-22)
(0.512512 0.000160852 4.67989e-22)
(0.510894 0.000399126 -4.9791e-22)
(0.508889 0.000822287 1.76886e-21)
(0.506448 0.00150831 1.47295e-21)
(0.503522 0.00255869 0)
(0.500071 0.0040999 1.98282e-21)
(0.496068 0.0062829 2.14244e-21)
(0.491508 0.00927654 2.11024e-21)
(0.486414 0.0132553 3.37067e-21)
(0.480843 0.0183732 9.18762e-22)
(0.474892 0.0247281 -6.6631e-22)
(0.468698 0.0323079 -3.11721e-21)
(0.462427 0.0409397 -6.71008e-21)
(0.456243 0.0502446 -1.15847e-20)
(0.450267 0.0596442 -1.76511e-20)
(0.444521 0.0684159 0)
(0.438902 0.0758163 -3.27364e-20)
(0.433181 0.0812031 -4.10852e-20)
(0.427036 0.0841308 -4.93948e-20)
(0.420091 0.0843574 -5.74269e-20)
(0.411917 0.0818113 -6.48449e-20)
(0.40198 0.0765425 0)
(0.389569 0.0687568 -7.75618e-20)
(0.373755 0.0589542 -8.27832e-20)
(0.353513 0.0481733 -8.71866e-20)
(0.328119 0.0382115 -9.0459e-20)
(0.297907 0.0315455 -8.43114e-20)
(0.26521 0.0305884 8.6288e-20)
(0.23479 0.0361114 -6.39966e-20)
(0.212763 0.045517 -5.37393e-20)
(0.202949 0.0525798 -2.54058e-20)
(0.772212 0.439796 1.97582e-23)
(0.797679 0.293387 1.36042e-23)
(0.818623 0.125221 1.21148e-21)
(0.818788 -0.0481754 3.51051e-35)
(0.792569 -0.208906 -3.23902e-21)
(0.744347 -0.343446 -1.1664e-34)
(0.683153 -0.445189 3.21038e-34)
(0.618195 -0.513885 -1.52652e-34)
(0.556331 -0.553473 -7.35512e-21)
(0.501371 -0.569784 -8.184e-34)
(0.454516 -0.568863 1.39862e-20)
(0.415223 -0.55605 7.29972e-34)
(0.382077 -0.535642 -5.36787e-34)
(0.35344 -0.510896 -1.06666e-34)
(0.327857 -0.484181 -1.97452e-20)
(0.304234 -0.457159 -2.17525e-34)
(0.281875 -0.430953 1.97338e-20)
(0.260433 -0.406275 -2.94832e-34)
(0.239814 -0.383529 2.6911e-34)
(0.220088 -0.362886 -6.69982e-34)
(0.201396 -0.344351 -1.85355e-20)
(0.183895 -0.327804 -5.67136e-34)
(0.167717 -0.313047 1.81989e-20)
(0.152948 -0.299831 2.65983e-34)
(0.139627 -0.287889 4.49941e-34)
(0.127757 -0.276954 8.46395e-21)
(0.117315 -0.26678 1.59171e-34)
(0.108272 -0.257156 -8.45966e-21)
(0.100606 -0.247922 -1.80336e-20)
(0.0943119 -0.238976 -6.07779e-34)
(0.0894091 -0.230281 1.77769e-20)
(0.0859425 -0.221871 -1.752e-20)
(0.0839804 -0.213851 3.8367e-35)
(0.0836066 -0.206392 1.66492e-20)
(0.0849108 -0.199719 -1.59991e-20)
(0.0879771 -0.1941 1.93955e-36)
(0.0928712 -0.189814 1.42141e-20)
(0.0996293 -0.187132 -1.35003e-20)
(0.108247 -0.186279 -1.18108e-20)
(0.118671 -0.1874 1.07566e-20)
(0.130791 -0.190527 -2.86155e-22)
(0.144436 -0.195544 -7.44479e-21)
(0.159375 -0.202151 6.12118e-21)
(0.175326 -0.209825 2.22732e-21)
(0.19198 -0.217797 -3.05439e-21)
(0.209054 -0.225029 -8.89121e-22)
(0.226358 -0.23024 -6.58186e-22)
(0.243877 -0.231977 -9.85283e-23)
(0.26183 -0.228762 -4.31246e-22)
(0.280706 -0.219317 1.47735e-21)
(0.301205 -0.202859 -2.02045e-21)
(0.32409 -0.179406 2.53658e-21)
(0.349913 -0.150025 1.45201e-21)
(0.378612 -0.116991 -5.0999e-21)
(0.408997 -0.0837789 1.08904e-34)
(0.43849 -0.0544802 -3.38663e-21)
(0.463958 -0.0321719 8.96526e-23)
(0.483457 -0.0173937 2.16195e-21)
(0.496992 -0.00863044 -1.50906e-21)
(0.505753 -0.00385841 1.18158e-35)
(0.511143 -0.00144688 6.58887e-22)
(0.514316 -0.000323524 -4.64482e-22)
(0.516077 0.000143778 -3.28823e-22)
(0.516942 0.0003016 -1.27551e-22)
(0.517223 0.000330259 1.32076e-35)
(0.517094 0.000321068 1.41307e-22)
(0.516643 0.000322 3.7532e-22)
(0.515903 0.000363282 6.18021e-36)
(0.514872 0.00047152 -6.35465e-22)
(0.513525 0.00067776 8.25401e-22)
(0.511822 0.0010225 -2.32802e-35)
(0.509716 0.00155919 -1.32766e-21)
(0.507158 0.00235663 1.63064e-21)
(0.504103 0.00350022 1.09509e-35)
(0.500515 0.00509147 -2.25585e-21)
(0.49638 0.00724459 -4.01508e-35)
(0.491707 0.0100788 -4.40066e-35)
(0.486538 0.0137048 2.58783e-21)
(0.480956 0.0182032 -3.657e-35)
(0.475084 0.0235951 -1.55164e-21)
(0.469077 0.0298075 -5.55103e-35)
(0.463109 0.0366398 4.5055e-37)
(0.457333 0.0437478 7.00902e-35)
(0.451839 0.050659 -5.44672e-21)
(0.446606 0.0568305 6.11359e-35)
(0.441482 0.0617378 1.00024e-20)
(0.436192 0.0649649 6.58561e-35)
(0.430378 0.0662588 -1.36938e-33)
(0.423638 0.0655334 1.56472e-34)
(0.415533 0.0628374 -1.43978e-20)
(0.405557 0.0583312 1.91006e-33)
(0.393083 0.0523182 1.34835e-20)
(0.377352 0.0453667 7.80043e-34)
(0.357611 0.0384918 7.16058e-35)
(0.333492 0.0332874 -8.31214e-34)
(0.305668 0.0317631 -2.61152e-21)
(0.276611 0.0355575 2.66748e-33)
(0.250727 0.0444762 -1.26049e-20)
(0.232981 0.0551779 4.09884e-37)
(0.225514 0.0616324 1.80191e-34)
(0.867619 0.391503 2.28925e-22)
(0.883221 0.275917 9.29357e-22)
(0.898026 0.138731 1.28347e-21)
(0.899451 -0.007523 -6.86743e-22)
(0.881514 -0.148322 -6.13412e-21)
(0.845541 -0.271437 -7.22334e-21)
(0.797268 -0.369514 -1.11567e-20)
(0.743594 -0.440399 -1.48527e-20)
(0.690309 -0.485932 -1.79642e-20)
(0.641101 -0.510238 0)
(0.597574 -0.518245 -2.19082e-20)
(0.55977 -0.514689 -2.27968e-20)
(0.526836 -0.50361 -2.3129e-20)
(0.497579 -0.488182 -2.30748e-20)
(0.470858 -0.470741 -2.27843e-20)
(0.445785 -0.452908 0)
(0.421794 -0.435723 -2.19875e-20)
(0.398615 -0.41979 -2.16356e-20)
(0.376206 -0.405393 -2.13616e-20)
(0.354666 -0.392589 -2.11773e-20)
(0.33416 -0.38129 4.26502e-21)
(0.314854 -0.371316 3.15338e-20)
(0.296878 -0.362438 -4.57652e-20)
(0.280307 -0.354404 -2.10077e-20)
(0.26516 -0.346967 -2.09875e-20)
(0.251408 -0.339892 -1.27952e-20)
(0.23899 -0.33297 -2.01375e-20)
(0.227837 -0.326027 -2.87016e-20)
(0.21788 -0.318928 -2.02708e-20)
(0.209077 -0.311587 0)
(0.201412 -0.303968 -1.9237e-20)
(0.194907 -0.296094 -1.05808e-20)
(0.18962 -0.288044 8.7938e-21)
(0.185638 -0.279953 -2.41027e-20)
(0.183071 -0.272006 -1.52914e-20)
(0.182036 -0.264425 0)
(0.182644 -0.25745 -1.24403e-20)
(0.184985 -0.251315 -1.08722e-20)
(0.189113 -0.246223 -1.07661e-20)
(0.195034 -0.242314 -7.6322e-21)
(0.202694 -0.239636 2.4189e-21)
(0.211973 -0.238117 -6.90114e-21)
(0.222678 -0.237533 -3.09394e-21)
(0.234559 -0.237486 2.39233e-21)
(0.247323 -0.237377 -3.17588e-21)
(0.260684 -0.236409 3.00873e-22)
(0.274419 -0.233597 5.70347e-22)
(0.288446 -0.227838 -1.66861e-21)
(0.302893 -0.218023 1.05342e-21)
(0.318152 -0.203237 -1.34857e-21)
(0.334859 -0.183031 -1.53209e-21)
(0.353745 -0.157713 1.56238e-21)
(0.375356 -0.128549 -1.97582e-21)
(0.399647 -0.0977836 7.12652e-21)
(0.425537 -0.0684316 3.30611e-21)
(0.450744 -0.0436342 -8.86697e-22)
(0.472556 -0.0253919 -1.07341e-21)
(0.489326 -0.0136119 -4.11804e-23)
(0.501072 -0.00673146 -2.20986e-23)
(0.508788 -0.00299382 2.75687e-22)
(0.513628 -0.00108051 7.93905e-22)
(0.516538 -0.000158203 -1.7147e-22)
(0.518183 0.000256144 -6.98372e-22)
(0.519 0.000428606 -5.46582e-22)
(0.519254 0.000501579 -4.41274e-22)
(0.519098 0.000551699 -3.60385e-22)
(0.518608 0.000623717 -8.76423e-22)
(0.517813 0.00074966 3.99352e-22)
(0.516709 0.000959698 -6.24516e-22)
(0.51527 0.00128845 -1.73193e-21)
(0.513455 0.00177888 7.96981e-22)
(0.511217 0.00248475 -1.26162e-21)
(0.508511 0.00347171 -2.56825e-21)
(0.505295 0.00481705 0)
(0.501543 0.00660713 -3.97819e-21)
(0.497249 0.00893215 -4.81858e-21)
(0.49244 0.0118764 -5.68581e-21)
(0.487178 0.0155045 -3.16895e-21)
(0.481563 0.0198412 -7.11463e-21)
(0.475735 0.0248484 -1.00098e-20)
(0.469857 0.0304007 -7.03556e-21)
(0.464096 0.0362695 -5.91064e-21)
(0.458582 0.0421222 -3.79131e-21)
(0.453372 0.0475524 -6.22004e-22)
(0.448409 0.0521351 0)
(0.443509 0.0555026 8.54605e-21)
(0.438382 0.0574054 1.40348e-20)
(0.432667 0.0577473 1.96579e-20)
(0.425966 0.0565771 2.5137e-20)
(0.417863 0.0540647 3.01963e-20)
(0.407902 0.0504853 0)
(0.395569 0.046253 3.85199e-20)
(0.380311 0.0420094 4.15692e-20)
(0.361684 0.0387425 4.36857e-20)
(0.339691 0.0378189 4.45381e-20)
(0.315309 0.0407251 4.28721e-20)
(0.290996 0.0482705 -3.79332e-20)
(0.270506 0.059344 3.96978e-20)
(0.257371 0.0701483 1.65512e-20)
(0.252025 0.0752944 5.25883e-21)
(0.940396 0.349774 0)
(0.951082 0.259034 0)
(0.963258 0.147733 -2.11475e-23)
(0.966632 0.024928 1.11318e-35)
(0.955384 -0.0976597 -2.03124e-21)
(0.929147 -0.209143 0)
(0.891492 -0.301966 0)
(0.847631 -0.372765 0)
(0.802472 -0.421836 0)
(0.759534 -0.451931 0)
(0.720684 -0.466984 0)
(0.686387 -0.471132 0)
(0.656191 -0.468096 0)
(0.629202 -0.460897 0)
(0.604451 -0.451776 0)
(0.581125 -0.442261 0)
(0.558668 -0.433289 0)
(0.536792 -0.425337 0)
(0.515428 -0.41856 0)
(0.494659 -0.412903 0)
(0.474642 -0.408187 2.21941e-20)
(0.455549 -0.40417 -1.13526e-34)
(0.437522 -0.400597 -2.15287e-20)
(0.420648 -0.397219 0)
(0.404954 -0.39381 0)
(0.390413 -0.390175 6.97876e-21)
(0.376954 -0.38615 1.23041e-34)
(0.36449 -0.381605 -6.92071e-21)
(0.352929 -0.376442 0)
(0.342193 -0.370603 0)
(0.332238 -0.364069 0)
(0.323051 -0.35686 6.77063e-21)
(0.314666 -0.349042 1.21953e-34)
(0.307151 -0.340727 -6.54037e-21)
(0.300608 -0.332062 0)
(0.295158 -0.323228 0)
(0.290933 -0.314422 0)
(0.288053 -0.305837 0)
(0.286618 -0.297644 -9.84636e-21)
(0.286688 -0.289964 -1.10122e-34)
(0.288276 -0.282845 7.638e-21)
(0.291339 -0.276241 -6.40678e-21)
(0.295772 -0.26999 -1.27816e-35)
(0.301419 -0.263796 3.87125e-21)
(0.308088 -0.257223 -2.65457e-21)
(0.315586 -0.249693 -8.78368e-36)
(0.323763 -0.240505 5.88676e-22)
(0.33257 -0.228879 0)
(0.342126 -0.214035 0)
(0.352781 -0.195346 0)
(0.365108 -0.172576 0)
(0.379783 -0.146145 0)
(0.397305 -0.117293 3.01031e-21)
(0.417616 -0.0880539 3.5115e-21)
(0.439708 -0.0610048 -3.39101e-36)
(0.461495 -0.0386743 -3.75824e-21)
(0.480511 -0.0225117 -3.26643e-21)
(0.495243 -0.0121731 0)
(0.505668 -0.00613666 0)
(0.512618 -0.00281436 0)
(0.51706 -0.00105805 9.06332e-22)
(0.519785 -0.000158026 1.41421e-36)
(0.521355 0.000294742 -4.83811e-22)
(0.522141 0.000528944 -2.02511e-22)
(0.522374 0.000672112 7.85767e-36)
(0.522188 0.000798177 2.14608e-22)
(0.521653 0.000954988 -2.58697e-22)
(0.520792 0.00118012 -2.89996e-38)
(0.5196 0.00151001 4.19779e-22)
(0.51805 0.00198544 -5.38738e-22)
(0.516103 0.00265475 1.70092e-35)
(0.513714 0.00357562 8.57343e-22)
(0.510839 0.00481523 0)
(0.507444 0.00644863 0)
(0.503511 0.0085547 0)
(0.499047 0.0112089 0)
(0.494093 0.0144722 0)
(0.488728 0.0183761 3.87348e-21)
(0.48307 0.0229041 1.0852e-35)
(0.477269 0.0279718 -3.41908e-21)
(0.471492 0.0334111 0)
(0.465891 0.0389645 0)
(0.460575 0.0442995 0)
(0.455567 0.0490461 0)
(0.450779 0.0528567 0)
(0.446009 0.05547 0)
(0.440962 0.0567596 0)
(0.435287 0.0567491 0)
(0.428612 0.0556005 0)
(0.420562 0.053589 0)
(0.410758 0.0510936 0)
(0.39882 0.04862 0)
(0.384416 0.0468584 0)
(0.367404 0.0467336 0)
(0.348121 0.0493473 0)
(0.32775 0.0556517 -2.33834e-21)
(0.308561 0.0656959 -2.12391e-34)
(0.293479 0.0776783 6.86606e-21)
(0.284604 0.0877229 0)
(0.280982 0.0913848 0)
(0.995205 0.313851 0)
(1.00299 0.243425 0)
(1.01413 0.153723 -2.80655e-22)
(1.01979 0.0510244 -1.50289e-35)
(1.01433 -0.0553274 -1.55016e-21)
(0.996293 -0.155759 0)
(0.967722 -0.242818 0)
(0.932541 -0.31235 0)
(0.894942 -0.36347 0)
(0.858276 -0.397769 0)
(0.824603 -0.418282 0)
(0.794729 -0.428552 0)
(0.768525 -0.431967 0)
(0.745316 -0.431372 0)
(0.724237 -0.428918 0)
(0.704476 -0.426062 0)
(0.685416 -0.423662 0)
(0.666683 -0.422105 0)
(0.648124 -0.421449 0)
(0.62976 -0.421546 0)
(0.611712 -0.422137 1.88982e-20)
(0.594143 -0.422927 3.162e-34)
(0.577208 -0.42363 -1.81564e-20)
(0.561017 -0.423991 0)
(0.545625 -0.423803 0)
(0.531029 -0.422899 5.77531e-21)
(0.517177 -0.421158 -7.99173e-35)
(0.503987 -0.418492 -5.67211e-21)
(0.491363 -0.414848 0)
(0.479212 -0.410202 0)
(0.467465 -0.404559 0)
(0.456083 -0.397956 5.53369e-21)
(0.445066 -0.390464 -3.38316e-35)
(0.434454 -0.38218 -5.38491e-21)
(0.424325 -0.373236 0)
(0.414787 -0.363781 0)
(0.405967 -0.353977 0)
(0.397995 -0.343983 0)
(0.390998 -0.333933 -8.4085e-21)
(0.38508 -0.323924 -7.43038e-35)
(0.380316 -0.313991 6.65731e-21)
(0.376744 -0.304097 -5.65191e-21)
(0.374362 -0.294114 1.03077e-35)
(0.373135 -0.283824 3.52801e-21)
(0.373003 -0.272912 -2.48697e-21)
(0.373905 -0.260979 -4.35996e-36)
(0.375801 -0.24755 6.85661e-22)
(0.378713 -0.232102 0)
(0.382774 -0.214097 0)
(0.388301 -0.193098 0)
(0.39581 -0.168961 0)
(0.405917 -0.14208 0)
(0.419098 -0.113553 2.70456e-21)
(0.435324 -0.0851677 3.24472e-21)
(0.453702 -0.05918 -2.9408e-35)
(0.472336 -0.0378101 -3.66922e-21)
(0.488922 -0.0223233 -3.27417e-21)
(0.501974 -0.0123558 0)
(0.51135 -0.00645759 0)
(0.517707 -0.00312871 0)
(0.521847 -0.00129271 9.88813e-22)
(0.524436 -0.000286964 1.84365e-36)
(0.525951 0.000272786 -5.47043e-22)
(0.526713 0.000606379 -2.31652e-22)
(0.526923 0.000842058 1.05615e-36)
(0.526703 0.00105932 2.45161e-22)
(0.526114 0.00131363 -2.93074e-22)
(0.525178 0.00165081 5.75308e-36)
(0.523887 0.00211555 4.67216e-22)
(0.522216 0.00275656 -5.95155e-22)
(0.520127 0.0036296 7.61688e-36)
(0.517577 0.00479868 9.36305e-22)
(0.514529 0.00633563 0)
(0.510952 0.00831735 0)
(0.50684 0.0108204 0)
(0.502212 0.0139125 0)
(0.497124 0.0176394 0)
(0.491671 0.0220101 4.24969e-21)
(0.485983 0.0269776 2.13278e-34)
(0.480219 0.0324227 -3.94277e-21)
(0.474543 0.0381431 0)
(0.469099 0.0438559 0)
(0.46397 0.0492204 0)
(0.45915 0.0538852 0)
(0.454526 0.0575489 0)
(0.449879 0.0600211 0)
(0.444919 0.0612603 0)
(0.439312 0.0613797 0)
(0.432722 0.060628 0)
(0.424833 0.0593639 0)
(0.415356 0.0580433 0)
(0.404059 0.0572298 0)
(0.390821 0.0576182 0)
(0.375769 0.0600257 0)
(0.359488 0.0652675 0)
(0.34324 0.0738012 -3.19334e-21)
(0.328974 0.0850749 3.39584e-34)
(0.318739 0.0969002 4.5989e-21)
(0.3134 0.105661 0)
(0.311061 0.107955 0)
(1.03524 0.282947 0)
(1.04104 0.229045 0)
(1.05172 0.157198 -4.04582e-22)
(1.05954 0.0715649 4.04472e-36)
(1.05905 -0.0205149 -1.16612e-21)
(1.04804 -0.110744 0)
(1.02737 -0.191983 0)
(0.999918 -0.259594 0)
(0.96924 -0.311767 0)
(0.938502 -0.349098 0)
(0.909903 -0.373779 0)
(0.884536 -0.388763 0)
(0.862562 -0.397086 0)
(0.843512 -0.401417 0)
(0.826608 -0.403835 0)
(0.811025 -0.405768 0)
(0.796063 -0.408048 0)
(0.781228 -0.411029 0)
(0.766253 -0.414722 0)
(0.75106 -0.418921 0)
(0.735708 -0.423312 1.58425e-20)
(0.720332 -0.427554 2.21004e-34)
(0.705085 -0.43133 -1.50573e-20)
(0.690103 -0.434371 0)
(0.675476 -0.436472 0)
(0.66124 -0.437486 4.67221e-21)
(0.64738 -0.43732 -2.41694e-35)
(0.633843 -0.435924 -4.5211e-21)
(0.620547 -0.433283 0)
(0.607406 -0.429412 0)
(0.594342 -0.424352 0)
(0.581298 -0.418166 4.36328e-21)
(0.568249 -0.410941 1.65823e-34)
(0.555207 -0.402786 -4.27138e-21)
(0.542221 -0.393826 0)
(0.529372 -0.384202 0)
(0.516768 -0.374055 0)
(0.504533 -0.363517 0)
(0.492799 -0.352694 -6.95241e-21)
(0.481697 -0.341655 -5.07216e-35)
(0.471345 -0.330417 5.65244e-21)
(0.461849 -0.318933 -4.8791e-21)
(0.453297 -0.307091 -2.67293e-35)
(0.445765 -0.294716 3.1943e-21)
(0.439319 -0.281572 -2.34427e-21)
(0.434023 -0.267384 -3.97659e-36)
(0.429942 -0.251837 8.29324e-22)
(0.427161 -0.234581 0)
(0.425825 -0.215239 0)
(0.426216 -0.193467 0)
(0.428791 -0.169118 0)
(0.43413 -0.142479 0)
(0.442724 -0.11445 2.29141e-21)
(0.454638 -0.0865781 2.84747e-21)
(0.469155 -0.0609099 1.63725e-35)
(0.484605 -0.0395652 -3.42535e-21)
(0.498836 -0.0238676 -3.14303e-21)
(0.510325 -0.0135897 0)
(0.518756 -0.00737849 0)
(0.524588 -0.00377163 0)
(0.52846 -0.00170172 1.03452e-21)
(0.530922 -0.000504783 4.00533e-38)
(0.53238 0.000209589 -5.94826e-22)
(0.533109 0.000670301 -2.55969e-22)
(0.533288 0.00101608 1.17734e-36)
(0.533023 0.00133724 2.7367e-22)
(0.532371 0.0016997 -3.25614e-22)
(0.531351 0.00215921 6.9565e-36)
(0.529955 0.00276983 5.11539e-22)
(0.528159 0.0035892 -6.46839e-22)
(0.525926 0.00468141 -1.13745e-35)
(0.523218 0.00611807 1.0039e-21)
(0.520002 0.00797717 0)
(0.516257 0.0103396 0)
(0.511984 0.0132827 0)
(0.507217 0.0168703 0)
(0.502024 0.0211389 0)
(0.496513 0.0260816 4.48315e-21)
(0.490827 0.0316301 -1.03722e-34)
(0.485129 0.0376392 -4.25405e-21)
(0.479581 0.0438803 0)
(0.474314 0.0500489 0)
(0.469389 0.0557947 0)
(0.464775 0.0607726 0)
(0.460337 0.0647081 0)
(0.455846 0.0674552 0)
(0.451014 0.0690298 0)
(0.445532 0.0696076 0)
(0.43911 0.0694995 0)
(0.431496 0.0691211 0)
(0.422504 0.0689735 0)
(0.412042 0.0696374 0)
(0.400179 0.0717662 0)
(0.387248 0.0760338 0)
(0.373985 0.0829705 0)
(0.36161 0.0926225 -3.39163e-21)
(0.351666 0.104036 4.5795e-35)
(0.345395 0.114923 2.82812e-21)
(0.34272 0.12216 0)
(0.341249 0.123352 0)
(1.06335 0.256581 0)
(1.06769 0.215696 0)
(1.07803 0.158241 -4.36204e-22)
(1.08756 0.0868165 -7.09447e-22)
(1.09114 0.00708196 -8.58631e-22)
(1.08602 -0.0738914 0)
(1.07215 -0.149447 0)
(1.0515 -0.214717 0)
(1.02703 -0.267204 0)
(1.00166 -0.306649 0)
(0.977672 -0.334462 0)
(0.956387 -0.353004 0)
(0.938237 -0.364938 0)
(0.922967 -0.372747 0)
(0.909913 -0.378447 0)
(0.898258 -0.38347 0)
(0.887234 -0.388677 0)
(0.876234 -0.394445 0)
(0.864863 -0.400789 0)
(0.852929 -0.407491 0)
(0.840406 -0.414212 1.32611e-20)
(0.82738 -0.420582 -1.80209e-20)
(0.813989 -0.426253 -1.24778e-20)
(0.800382 -0.430938 0)
(0.786682 -0.434421 0)
(0.772972 -0.436562 3.7623e-21)
(0.759284 -0.437281 1.10158e-20)
(0.745607 -0.436555 -3.56658e-21)
(0.731898 -0.434402 0)
(0.718092 -0.430873 -1.63019e-20)
(0.704122 -0.426045 0)
(0.689932 -0.420017 3.3657e-21)
(0.675483 -0.412904 -5.21231e-21)
(0.660768 -0.404839 -3.30443e-21)
(0.645807 -0.395961 0)
(0.630654 -0.386416 -1.30611e-20)
(0.615389 -0.376339 0)
(0.600115 -0.36585 0)
(0.584952 -0.355038 -5.82787e-21)
(0.570033 -0.343948 5.36355e-21)
(0.555498 -0.332574 4.72533e-21)
(0.541489 -0.320855 -4.27133e-21)
(0.528158 -0.308675 2.23857e-21)
(0.515659 -0.295872 2.90069e-21)
(0.504151 -0.282254 -2.23667e-21)
(0.493792 -0.267615 -3.41314e-22)
(0.484721 -0.251737 1.00229e-21)
(0.477065 -0.234374 1.51645e-21)
(0.470966 -0.21523 1.05635e-21)
(0.466664 -0.193989 1.33013e-21)
(0.464567 -0.170446 1.60746e-21)
(0.465234 -0.144732 1.88141e-21)
(0.469206 -0.117529 8.07819e-21)
(0.476691 -0.090161 -2.33839e-21)
(0.487205 -0.0645237 -4.86029e-21)
(0.499352 -0.0427543 -7.6196e-21)
(0.511155 -0.0263784 -2.88263e-21)
(0.521052 -0.0154132 8.75676e-23)
(0.528526 -0.00863434 5.64408e-23)
(0.533818 -0.00459555 0)
(0.5374 -0.00220406 1.05216e-21)
(0.539711 -0.000766861 -2.97734e-23)
(0.541086 0.000130329 -6.23353e-22)
(0.541761 0.000735535 -2.73805e-22)
(0.541889 0.00120334 6.80857e-22)
(0.541566 0.00163758 2.99043e-22)
(0.540839 0.00211603 -3.55692e-22)
(0.539728 0.00270502 -7.19901e-22)
(0.538222 0.00346835 5.52537e-22)
(0.5363 0.00447271 -6.93533e-22)
(0.533927 0.00579064 -1.44445e-21)
(0.531071 0.00750135 1.06081e-21)
(0.527703 0.00968927 0)
(0.523812 0.0124398 -8.45385e-21)
(0.519409 0.0158321 0)
(0.514539 0.0199281 0)
(0.509281 0.0247583 0)
(0.503756 0.0303049 4.59504e-21)
(0.498114 0.0364839 1.42854e-20)
(0.492521 0.043132 -4.38229e-21)
(0.487136 0.0500011 0)
(0.482076 0.0567705 0)
(0.477383 0.0630802 0)
(0.473003 0.0685867 0)
(0.468783 0.0730293 0)
(0.464485 0.0762894 0)
(0.459828 0.0784189 0)
(0.454532 0.0796349 0)
(0.448351 0.0802875 0)
(0.441108 0.0808234 0)
(0.432714 0.0817568 0)
(0.423208 0.0836482 0)
(0.412807 0.0870726 0)
(0.401981 0.0925406 0)
(0.391521 0.100324 0)
(0.38251 0.110162 -3.20612e-21)
(0.37607 0.120893 -1.72526e-21)
(0.372766 0.13036 1.53044e-21)
(0.371891 0.136046 0)
(0.370929 0.136443 0)
(1.08244 0.23452 0)
(1.08579 0.203265 0)
(1.09574 0.156913 0)
(1.10641 0.0969542 -1.0167e-35)
(1.11306 0.0276544 0)
(1.11265 -0.0450781 0)
(1.10444 -0.1152 0)
(1.08963 -0.177846 0)
(1.07057 -0.230051 0)
(1.04991 -0.270863 0)
(1.0299 -0.300979 0)
(1.01203 -0.32218 0)
(0.996992 -0.336737 0)
(0.98474 -0.34692 0)
(0.974758 -0.354676 0)
(0.966284 -0.361456 0)
(0.958519 -0.368183 0)
(0.950769 -0.3753 0)
(0.942525 -0.382875 0)
(0.933481 -0.39072 0)
(0.923515 -0.398504 0)
(0.912646 -0.405846 -2.8867e-34)
(0.900982 -0.412381 0)
(0.888669 -0.417801 0)
(0.875857 -0.421875 0)
(0.86267 -0.424454 9.06549e-21)
(0.849192 -0.425462 -2.40656e-34)
(0.835465 -0.424889 -8.38472e-21)
(0.821495 -0.422774 -8.11998e-21)
(0.807258 -0.4192 -2.54151e-35)
(0.792716 -0.414277 7.74677e-21)
(0.777829 -0.408142 0)
(0.762563 -0.400945 -1.11189e-34)
(0.7469 -0.392849 0)
(0.730844 -0.384022 -7.39174e-21)
(0.714422 -0.374625 -1.91676e-34)
(0.697685 -0.364805 7.1413e-21)
(0.680705 -0.354682 -1.50802e-22)
(0.663576 -0.344337 6.88692e-37)
(0.646411 -0.333802 1.36262e-22)
(0.62934 -0.323051 -1.26097e-22)
(0.612517 -0.312005 -1.88807e-36)
(0.596114 -0.300532 1.00318e-22)
(0.580325 -0.288468 0)
(0.565357 -0.275632 0)
(0.551419 -0.261845 -1.58191e-36)
(0.538692 -0.246934 -1.15578e-21)
(0.527314 -0.230701 -3.81875e-22)
(0.517413 -0.212879 1.78305e-22)
(0.509185 -0.193138 -3.78738e-35)
(0.502993 -0.171185 -4.71786e-35)
(0.499384 -0.146988 7.56556e-22)
(0.498965 -0.121005 -6.31176e-22)
(0.502111 -0.0943412 -2.61621e-21)
(0.508604 -0.0687645 -1.20638e-34)
(0.51736 -0.0464718 -1.23282e-34)
(0.526627 -0.0292581 7.994e-23)
(0.534835 -0.0174551 6.93269e-23)
(0.541271 -0.0100019 -5.52816e-23)
(0.545953 -0.0054679 8.79049e-37)
(0.549184 -0.00272076 4.65041e-37)
(0.551292 -0.00102531 -2.45299e-23)
(0.552542 6.4945e-05 0)
(0.553128 0.00082157 -8.32963e-22)
(0.553179 0.00141699 1.25539e-36)
(0.552776 0.0019693 9.40847e-22)
(0.551962 0.00256826 0)
(0.55075 0.00329061 -1.07831e-35)
(0.549131 0.00420948 0)
(0.547084 0.00540008 0)
(0.54458 0.00694269 -4.21863e-35)
(0.541588 0.00892339 0)
(0.53809 0.0114322 3.90297e-21)
(0.53408 0.0145584 2.04413e-34)
(0.52958 0.0183827 -5.28692e-21)
(0.524646 0.0229658 0)
(0.519368 0.0283335 0)
(0.513874 0.0344601 0)
(0.50832 0.0412508 2.75896e-34)
(0.502874 0.0485293 0)
(0.497687 0.0560349 0)
(0.492864 0.0634356 0)
(0.488429 0.0703644 0)
(0.48431 0.076477 0)
(0.480336 0.0815201 0)
(0.476265 0.0853901 0)
(0.471823 0.0881604 0)
(0.466759 0.0900717 0)
(0.460877 0.091494 0)
(0.454068 0.0928822 0)
(0.446334 0.0947369 0)