/*--------------------------------*- C++ -*----------------------------------*\
  =========                 |
  \\      /  F ield         | OpenFOAM: The Open Source CFD Toolbox
   \\    /   O peration     | Website:  https://openfoam.org
    \\  /    A nd           | Version:  8
     \\/     M anipulation  |
\*---------------------------------------------------------------------------*/
FoamFile
{
    version     2.0;
    format      ascii;
    class       surfaceScalarField;
    location    "0.01594";
    object      phi;
}
// * * * * * * * * * * * * * * * * * * * * * * * * * * * * * * * * * * * * * //

dimensions      [0 3 -1 0 0 0 0];

internalField   nonuniform List<scalar> 
224589
(
-0.00359973
0.0263997
-0.00840015
0.0708004
-0.0119998
0.1152
-0.0167994
0.1596
-0.0215991
0.204
-0.0251987
0.2484
-0.0287984
0.2916
-0.0323981
0.336
-0.0359977
0.3792
-0.0395972
0.4248
-0.0419968
0.4668
-0.0455963
0.511199
-0.0491957
0.555599
-0.0527952
0.597599
-0.0539946
0.640799
-0.057594
0.685199
-0.0611935
0.727199
-0.0635929
0.770399
-0.0659923
0.812399
-0.0671917
0.854399
-0.070791
0.897599
-0.0719904
0.938399
-0.0743898
0.980399
-0.0755892
1.0224
-0.0779886
1.0632
-0.079188
1.104
-0.0815873
1.146
-0.0827867
1.1844
-0.0839861
1.2252
-0.0863854
1.266
-0.0875848
1.3044
-0.0887842
1.344
-0.0899836
1.3824
-0.089983
1.4208
-0.0911824
1.4592
-0.0911818
1.4964
-0.0923812
1.5348
-0.0935806
1.572
-0.09358
1.608
-0.0947794
1.644
-0.0947788
1.68
-0.0947782
1.716
-0.0947777
1.7496
-0.0947771
1.7856
-0.0947765
1.8192
-0.094776
1.8528
-0.0947754
1.8864
-0.0935749
1.9188
-0.0935744
1.9512
-0.0935738
1.9836
-0.0923733
2.0136
-0.0923728
2.046
-0.0911723
2.0748
-0.0905718
2.10564
-0.0897313
2.13468
-0.0887708
2.16336
-0.0878104
2.19168
-0.0868499
2.2194
-0.0856494
2.24652
-0.084449
2.27304
-0.0832486
2.2992
-0.0819281
2.32464
-0.0804877
2.34948
-0.0790473
2.37384
-0.0776069
2.3976
-0.0760465
2.42076
-0.0743661
2.4432
-0.0728057
2.46528
-0.0711254
2.48664
-0.069325
2.50728
-0.0675247
2.52744
-0.0656044
2.54688
-0.063684
2.56572
-0.0616437
2.58396
-0.0596034
2.6016
-0.0576831
2.61864
-0.0555228
2.63484
-0.0533625
2.65044
-0.0512023
2.66556
-0.048922
2.67984
-0.0467618
2.69364
-0.0446015
2.7066
-0.0422013
2.71884
-0.0399211
2.73072
-0.0375209
2.74164
-0.0351207
2.75196
-0.0327205
2.76168
-0.0303203
2.77068
-0.0279202
2.77896
-0.0254
2.78652
-0.0228798
2.79348
-0.0203597
2.79972
-0.0178396
2.80536
-0.0151995
2.81004
-0.0127994
2.81436
-0.0102193
2.8178
-0.00766324
2.82058
-0.00509515
2.82266
-0.00252714
2.82404
4.09422e-05
2.82475
0.00260894
2.82475
0.00517701
2.82404
0.007745
2.82266
0.010301
2.82058
0.012881
2.8178
0.015281
2.81436
0.017921
2.81004
0.0204409
2.80536
0.0229609
2.79972
0.0254808
2.79348
0.0280007
2.78652
0.0304006
2.77896
0.0328005
2.77068
0.0352004
2.76168
0.0376003
2.75196
0.0400002
2.74164
0.04228
2.73072
0.0446799
2.71884
0.0468397
2.7066
0.0489995
2.69364
0.0512793
2.67984
0.0534391
2.66556
0.0555989
2.65044
0.0577587
2.63484
0.0596785
2.61864
0.0617182
2.6016
0.0637579
2.58396
0.0656777
2.56572
0.0675974
2.54688
0.0693971
2.52744
0.0711968
2.50728
0.0728765
2.48664
0.0744362
2.46528
0.0761158
2.4432
0.0776755
2.42076
0.0791151
2.3976
0.0805548
2.37384
0.0819944
2.34948
0.083314
2.32464
0.0845136
2.2992
0.0857132
2.27304
0.0869128
2.24652
0.0878724
2.2194
0.0888319
2.19168
0.0897915
2.16336
0.090631
2.13468
0.0912305
2.10564
0.09243
2.0748
0.0924295
2.046
0.093629
2.0136
0.0936285
1.9836
0.093628
1.9512
0.0948275
1.9188
0.0948269
1.8864
0.0948264
1.8528
0.0948258
1.8192
0.0948252
1.7856
0.0948247
1.7496
0.0948241
1.716
0.0948235
1.68
0.0936229
1.644
0.0936223
1.608
0.0924216
1.572
0.091221
1.5348
0.0912203
1.4964
0.0900197
1.4592
0.0900191
1.4208
0.0888184
1.3824
0.0876177
1.344
0.0864171
1.3044
0.0840164
1.266
0.0828157
1.2252
0.081615
1.1844
0.0792143
1.146
0.0780136
1.104
0.0756129
1.0632
0.0744122
1.0224
0.0720115
0.980401
0.0708108
0.938401
0.0672101
0.897601
0.0660094
0.854401
0.0636087
0.812401
0.061208
0.770401
0.0576073
0.727201
0.0540066
0.685201
0.052806
0.640801
0.0492053
0.597601
0.0456047
0.555601
0.0420041
0.511201
0.0396035
0.466801
0.0360029
0.424801
0.0324024
0.379201
0.028802
0.336
0.0252016
0.2916
0.0216012
0.2484
0.0168007
0.204
0.0120002
0.159601
0.00839978
0.1152
0.00360035
0.0707994
0.0264004
-0.00479812
0.0311979
-0.00959835
0.0756006
-0.0131985
0.1188
-0.0179974
0.164399
-0.0215958
0.207598
-0.0239944
0.250798
-0.028793
0.296398
-0.0323918
0.339598
-0.0359904
0.382798
-0.039589
0.428398
-0.0431875
0.470398
-0.046786
0.514798
-0.0479845
0.556798
-0.0515829
0.601198
-0.0551813
0.644398
-0.0575796
0.687598
-0.0599779
0.729598
-0.0623761
0.772798
-0.0647744
0.814798
-0.0683726
0.857998
-0.0695708
0.898798
-0.0731689
0.941998
-0.0743671
0.981598
-0.0767653
1.0248
-0.0779635
1.0644
-0.0803616
1.1064
-0.0815598
1.1472
-0.0839579
1.1868
-0.0851561
1.2264
-0.0851543
1.266
-0.0863524
1.3056
-0.0875506
1.3452
-0.0887487
1.3836
-0.0899469
1.422
-0.0911451
1.4604
-0.0923433
1.4976
-0.0923415
1.5348
-0.0923398
1.572
-0.093538
1.6092
-0.0935362
1.644
-0.0947345
1.6812
-0.0935328
1.7148
-0.094731
1.7508
-0.0947294
1.7856
-0.0947277
1.8192
-0.094726
1.8528
-0.0947244
1.8864
-0.0935229
1.9176
-0.0935212
1.9512
-0.0923197
1.9824
-0.093518
2.0148
-0.0911166
2.0436
-0.0911151
2.0748
-0.0905136
2.10504
-0.0896721
2.13384
-0.0888307
2.16252
-0.0877492
2.1906
-0.0866679
2.21832
-0.0855865
2.24544
-0.0845052
2.27196
-0.0831839
2.29788
-0.0818626
2.32332
-0.0804213
2.34804
-0.0791001
2.37252
-0.0775389
2.39604
-0.0759777
2.4192
-0.0744165
2.44164
-0.0727354
2.4636
-0.0709343
2.48484
-0.0691333
2.50548
-0.0673323
2.52564
-0.0654111
2.54496
-0.0636102
2.56392
-0.0616893
2.58204
-0.0596484
2.59956
-0.0574874
2.61648
-0.0554466
2.6328
-0.0534057
2.6484
-0.0511249
2.66328
-0.0489641
2.67768
-0.0466834
2.69136
-0.0444027
2.70432
-0.042122
2.71656
-0.0397214
2.72832
-0.0374407
2.73936
-0.0350402
2.74956
-0.0326396
2.75928
-0.030119
2.76816
-0.0277186
2.77656
-0.0253181
2.78412
-0.0227977
2.79096
-0.0202773
2.7972
-0.017757
2.80284
-0.0152366
2.80752
-0.0127163
2.81184
-0.0101239
2.81521
-0.00756774
2.81802
-0.00499954
2.8201
-0.00244341
2.82149
0.000124746
2.82218
0.00269283
2.82218
0.00524895
2.82149
0.007817
2.8201
0.010373
2.81802
0.012965
2.81521
0.0154849
2.81184
0.0180047
2.80752
0.0205247
2.80284
0.0230445
2.7972
0.0255644
2.79096
0.027964
2.78412
0.0303639
2.77656
0.0328835
2.76816
0.0352832
2.75928
0.0376829
2.74956
0.0399624
2.73936
0.042362
2.72832
0.0446415
2.71656
0.0469211
2.70432
0.0492006
2.69136
0.05136
2.67768
0.0536394
2.66328
0.0556788
2.6484
0.0577181
2.6328
0.0598774
2.61648
0.0619166
2.59956
0.0638359
2.58204
0.0656351
2.56392
0.0675542
2.54496
0.0693534
2.52564
0.0711525
2.50548
0.0729515
2.48484
0.0746306
2.4636
0.0761896
2.44164
0.0777485
2.4192
0.0793075
2.39604
0.0806264
2.37252
0.0820653
2.34804
0.0833841
2.32332
0.0847029
2.29788
0.0857817
2.27196
0.0868604
2.24544
0.0879392
2.21832
0.0890179
2.1906
0.0898565
2.16252
0.0906951
2.13384
0.0912937
2.10504
0.0912922
2.0748
0.0936909
2.0436
0.0924892
2.0148
0.0936878
1.9824
0.0936861
1.9512
0.0948846
1.9176
0.094883
1.8864
0.0948814
1.8528
0.0948797
1.8192
0.094878
1.7856
0.0936762
1.7508
0.0948745
1.7148
0.0936727
1.6812
0.0936709
1.644
0.0924691
1.6092
0.0924672
1.572
0.0924654
1.5348
0.0912635
1.4976
0.0900616
1.4604
0.0888597
1.422
0.0876577
1.3836
0.0864557
1.3452
0.0852537
1.3056
0.0852518
1.266
0.0840498
1.2264
0.0816478
1.1868
0.0804457
1.1472
0.0780436
1.1064
0.0768417
1.0644
0.0744396
1.0248
0.0732376
0.981603
0.0696354
0.942003
0.0684335
0.898803
0.0648313
0.858003
0.0624293
0.814803
0.0600273
0.772803
0.0576253
0.729603
0.0552233
0.687603
0.0516214
0.644403
0.0480194
0.601203
0.0468177
0.556802
0.0432159
0.514802
0.0396141
0.470402
0.0360123
0.428402
0.0324106
0.382802
0.028809
0.339602
0.0240073
0.296402
0.0216055
0.250802
0.0180034
0.207603
0.0132019
0.164402
0.0096022
0.1188
0.00480254
0.0755991
0.0312029
-0.00479779
0.0359956
-0.00839617
0.079199
-0.0131964
0.1236
-0.0167958
0.167998
-0.0203936
0.211196
-0.0251908
0.255595
-0.0287883
0.299996
-0.032386
0.343196
-0.0359836
0.386396
-0.0383812
0.430796
-0.0431786
0.475195
-0.045576
0.517195
-0.0491734
0.560395
-0.0527706
0.604795
-0.0551679
0.646795
-0.0575651
0.689995
-0.0611622
0.733195
-0.0635593
0.775195
-0.0659564
0.817195
-0.0671535
0.859195
-0.0707504
0.902395
-0.0719475
0.943195
-0.0755444
0.985194
-0.0767414
1.02599
-0.0791382
1.06679
-0.0803352
1.10759
-0.0815322
1.14839
-0.0827291
1.18799
-0.0839261
1.22759
-0.086323
1.26839
-0.0875199
1.30679
-0.0887168
1.34639
-0.0899138
1.38479
-0.0911108
1.42319
-0.0911078
1.46039
-0.0923047
1.49879
-0.0923018
1.53479
-0.0934988
1.57319
-0.0934958
1.60919
-0.0946929
1.64519
-0.0934901
1.67999
-0.0946872
1.71599
-0.0946843
1.75079
-0.0946814
1.78559
-0.0946787
1.8192
-0.0946759
1.85279
-0.0934732
1.8852
-0.0946704
1.9188
-0.0934678
1.95
-0.0934651
1.9824
-0.0922625
2.0136
-0.0922599
2.0436
-0.0922574
2.0748
-0.0904549
2.10324
-0.0896124
2.133
-0.08865
2.16156
-0.0876877
2.18964
-0.0867252
2.21736
-0.085523
2.24424
-0.0843207
2.27076
-0.0829985
2.29656
-0.0816764
2.322
-0.0804743
2.34684
-0.0789121
2.37096
-0.0774701
2.3946
-0.0759081
2.41764
-0.0742262
2.43996
-0.0725442
2.46192
-0.0708624
2.48316
-0.0691806
2.5038
-0.0672588
2.52372
-0.0654571
2.54316
-0.0634154
2.56188
-0.0614939
2.58012
-0.0595723
2.59764
-0.0575307
2.61444
-0.0553692
2.63064
-0.0532079
2.64624
-0.0510465
2.66112
-0.0488853
2.67552
-0.046604
2.68908
-0.0443227
2.70204
-0.0420415
2.71428
-0.0397605
2.72604
-0.0373595
2.73696
-0.0349584
2.74716
-0.0325575
2.75688
-0.0301566
2.76576
-0.0276357
2.77404
-0.025115
2.7816
-0.0227142
2.78856
-0.0201935
2.79468
-0.0176729
2.80032
-0.0151523
2.805
-0.0126318
2.80932
-0.0100514
2.81263
-0.00749502
2.81546
-0.00492671
2.81753
-0.00235833
2.81892
0.000209917
2.81962
0.00277809
2.81962
0.00534612
2.81892
0.00791422
2.81753
0.0104703
2.81546
0.0130503
2.81263
0.0155702
2.80932
0.01809
2.805
0.0206098
2.80032
0.0231295
2.79468
0.0255292
2.78856
0.0280489
2.7816
0.0305683
2.77404
0.0329678
2.76576
0.0353673
2.75688
0.0377666
2.74716
0.040166
2.73696
0.0424454
2.72604
0.0447245
2.71428
0.0470036
2.70204
0.0492827
2.68908
0.0514419
2.67552
0.0536007
2.66112
0.0557598
2.64624
0.0579187
2.63064
0.0599574
2.61444
0.0618762
2.59764
0.0637949
2.58012
0.0658335
2.56188
0.0676322
2.54316
0.0695507
2.52372
0.0712291
2.5038
0.0729077
2.48316
0.0745859
2.46192
0.0762643
2.43996
0.0778226
2.41764
0.0792608
2.3946
0.0808189
2.37096
0.082017
2.34684
0.0833351
2.322
0.0846531
2.29656
0.085851
2.27076
0.0870489
2.24424
0.0880066
2.21736
0.0889645
2.18964
0.0899223
2.16156
0.0907598
2.133
0.0925575
2.10324
0.0925551
2.0748
0.0925526
2.0436
0.0937501
2.0136
0.0937475
1.9824
0.094945
1.95
0.0937421
1.9188
0.0949395
1.8852
0.0949367
1.85281
0.094934
1.8192
0.0949311
1.78561
0.0949282
1.75081
0.0937252
1.71601
0.0949223
1.68001
0.0937193
1.64521
0.0937163
1.60921
0.0925131
1.57321
0.0925101
1.53481
0.0913069
1.49881
0.0913037
1.46041
0.0901006
1.42321
0.0888973
1.38481
0.087694
1.34641
0.0864907
1.30681
0.0840873
1.26841
0.082884
1.22761
0.0816807
1.18801
0.0804773
1.14841
0.079274
1.10761
0.0768705
1.06681
0.0756672
1.02601
0.0720637
0.985206
0.0708604
0.943206
0.0672568
0.902406
0.0660535
0.859206
0.0636501
0.817206
0.0612468
0.775206
0.0576434
0.733206
0.0552401
0.690006
0.0528369
0.646806
0.0492336
0.604806
0.0456304
0.560406
0.0432274
0.517206
0.0384242
0.475206
0.0360212
0.430805
0.0324182
0.386405
0.0288153
0.343205
0.025212
0.300005
0.0204084
0.255606
0.0168055
0.211205
0.0132048
0.168003
0.00840519
0.1236
0.00480302
0.0792013
0.0360059
-0.0035978
0.0395934
-0.00839456
0.0839958
-0.0131939
0.128399
-0.0167938
0.171598
-0.0215917
0.215994
-0.0251881
0.259192
-0.0287843
0.303592
-0.0323808
0.346792
-0.0359774
0.389992
-0.0395738
0.434392
-0.0419703
0.477592
-0.0455666
0.520792
-0.0491628
0.563992
-0.0515591
0.607191
-0.0551551
0.650391
-0.0575512
0.692391
-0.0599472
0.735591
-0.0623432
0.777591
-0.0659389
0.82079
-0.0683348
0.861591
-0.0695307
0.90359
-0.0719265
0.94559
-0.0743221
0.98759
-0.0755179
1.02719
-0.0779136
1.06919
-0.0791094
1.10879
-0.081505
1.15079
-0.0827007
1.18919
-0.0850963
1.22999
-0.086292
1.26959
-0.0874878
1.30799
-0.0874835
1.34639
-0.0886793
1.38599
-0.0898749
1.42439
-0.0910707
1.46159
-0.0910665
1.49879
-0.0934621
1.53719
-0.093458
1.57319
-0.0934538
1.60919
-0.0934497
1.64519
-0.0946455
1.68119
-0.0946416
1.71599
-0.0946376
1.75079
-0.0946335
1.78559
-0.0946295
1.81919
-0.0946257
1.85279
-0.0946217
1.88519
-0.093418
1.91759
-0.0934142
1.94999
-0.0934103
1.98239
-0.0922068
2.01239
-0.0922031
2.04359
-0.0909995
2.07359
-0.0903959
2.10263
-0.0895525
2.13215
-0.0885891
2.16059
-0.0877456
2.18879
-0.0865424
2.21615
-0.0854591
2.24315
-0.0842559
2.26955
-0.0830527
2.29535
-0.0817295
2.32067
-0.0802866
2.34539
-0.0788438
2.36951
-0.0774007
2.39315
-0.0757179
2.41595
-0.0742751
2.43851
-0.0725926
2.46023
-0.0707897
2.48135
-0.0689871
2.50199
-0.0671847
2.52191
-0.0653823
2.54135
-0.0634599
2.55995
-0.0614177
2.57807
-0.0593753
2.59559
-0.0573333
2.6124
-0.0552911
2.6286
-0.0531291
2.64408
-0.0510873
2.65908
-0.0488053
2.67324
-0.0465234
2.6868
-0.0442418
2.69976
-0.0420803
2.71212
-0.0396786
2.72364
-0.037277
2.73456
-0.0348757
2.74476
-0.0324743
2.75448
-0.0300731
2.76336
-0.0275519
2.77152
-0.0251508
2.7792
-0.0226297
2.78604
-0.0201087
2.79216
-0.0175878
2.7978
-0.0150671
2.80248
-0.0124262
2.80668
-0.00996566
2.81017
-0.00739698
2.81289
-0.00484053
2.81497
-0.00227214
2.81635
0.000296201
2.81705
0.00286445
2.81705
0.00543265
2.81635
0.0079888
2.81497
0.0105567
2.8129
0.0130167
2.81017
0.0156565
2.80668
0.0181764
2.80248
0.020696
2.7978
0.0232156
2.79216
0.0257351
2.78604
0.0281345
2.7792
0.0306539
2.77152
0.0330532
2.76336
0.0354525
2.75448
0.0378517
2.74476
0.0402506
2.73456
0.0426495
2.72364
0.0448085
2.71212
0.0470874
2.69976
0.0493661
2.6868
0.0516446
2.67324
0.0536833
2.65908
0.0558418
2.64408
0.05788
2.6286
0.0599185
2.6124
0.0619566
2.5956
0.0639949
2.57808
0.0659129
2.55996
0.0677109
2.54136
0.069509
2.52192
0.0713067
2.502
0.0731043
2.48137
0.0747821
2.46025
0.0762197
2.43853
0.0778973
2.41597
0.0793346
2.39317
0.0807721
2.36953
0.0822095
2.34541
0.0835266
2.32069
0.0847237
2.29537
0.0859208
2.26957
0.0869977
2.24317
0.0881947
2.21617
0.0890316
2.18881
0.0899883
2.16061
0.0908251
2.13217
0.0914217
2.10265
0.0926182
2.07361
0.0926146
2.04361
0.0938113
2.01241
0.0938075
1.98241
0.0938038
1.95001
0.0950001
1.91761
0.0949962
1.88521
0.0949923
1.85281
0.0949883
1.81921
0.0949842
1.78561
0.0949802
1.75081
0.0949762
1.71601
0.0937719
1.68121
0.0937677
1.64521
0.0937634
1.60921
0.0937591
1.57321
0.0913545
1.53721
0.0913502
1.49881
0.0901456
1.46161
0.088941
1.42441
0.0877365
1.38601
0.087732
1.34641
0.0865274
1.30801
0.0853227
1.26961
0.0829179
1.23001
0.0817132
1.18921
0.0793084
1.15081
0.0781038
1.10881
0.075699
1.06921
0.0744942
1.02721
0.0720894
0.987611
0.0696845
0.945611
0.0684799
0.903611
0.0660752
0.861611
0.0624703
0.820811
0.0600656
0.777611
0.0576609
0.735611
0.0552563
0.692411
0.0516516
0.650411
0.0492471
0.60721
0.0456425
0.56401
0.0420381
0.52081
0.0396337
0.47761
0.0360294
0.43441
0.0324251
0.390009
0.0288206
0.346809
0.0252157
0.30361
0.0216111
0.259211
0.0168083
0.216008
0.0132083
0.171603
0.0084074
0.128401
0.00360301
0.0840056
0.0396089
-0.00479761
0.0443911
-0.00959344
0.0887916
-0.0131913
0.131997
-0.0167911
0.175198
-0.0203896
0.219592
-0.0251858
0.263988
-0.0287809
0.307187
-0.0323762
0.350388
-0.0359717
0.393588
-0.0395671
0.437988
-0.0431624
0.481187
-0.0467576
0.524387
-0.0491528
0.566387
-0.0527478
0.610786
-0.0551429
0.652786
-0.0587377
0.695986
-0.0611326
0.737986
-0.0635274
0.779986
-0.0647222
0.821985
-0.0683167
0.865185
-0.0707113
0.905985
-0.0731058
0.947985
-0.0743004
0.988785
-0.0766949
1.02958
-0.0778895
1.07038
-0.0802839
1.11118
-0.0814783
1.15198
-0.0826729
1.19038
-0.0838673
1.23118
-0.0850617
1.27078
-0.0862561
1.30918
-0.0886505
1.34878
-0.0898449
1.38718
-0.0898395
1.42438
-0.0910339
1.46278
-0.0922284
1.49998
-0.092223
1.53718
-0.0922178
1.57319
-0.0934123
1.61039
-0.093407
1.64519
-0.0934016
1.68119
-0.0945962
1.71719
-0.0945909
1.75079
-0.0945858
1.78559
-0.0945806
1.81919
-0.0933757
1.85159
-0.0933707
1.88519
-0.0945656
1.91879
-0.0933607
1.94879
-0.0921559
1.98119
-0.0921509
2.01239
-0.0909462
2.04239
-0.0909416
2.07359
-0.090337
2.10203
-0.0894924
2.13131
-0.0886479
2.15975
-0.0875635
2.18771
-0.0864792
2.21507
-0.0853949
2.24207
-0.0841908
2.26835
-0.0829866
2.29415
-0.0816626
2.31935
-0.0802187
2.34395
-0.0788947
2.36819
-0.0773309
2.39159
-0.0757672
2.41439
-0.0740836
2.43683
-0.0724001
2.45855
-0.0707168
2.47967
-0.0690333
2.50031
-0.06723
2.52011
-0.0651869
2.53931
-0.0633839
2.55815
-0.0614606
2.57615
-0.0594179
2.59355
-0.0573749
2.61035
-0.0552124
2.62643
-0.0530496
2.64191
-0.0508871
2.65691
-0.0487246
2.67107
-0.0464424
2.68451
-0.0441601
2.69747
-0.0418778
2.70983
-0.0394756
2.72123
-0.0371938
2.73227
-0.034792
2.74236
-0.03239
2.75208
-0.0298684
2.76084
-0.0275868
2.76924
-0.0249454
2.77656
-0.022544
2.78364
-0.0200229
2.78964
-0.0175016
2.79528
-0.0149807
2.79996
-0.0124596
2.80416
-0.00986688
2.80758
-0.00732221
2.81035
-0.00475339
2.8124
-0.00218488
2.81378
0.000383561
2.81448
0.00295189
2.81448
0.00552016
2.81378
0.00808812
2.8124
0.0106322
2.81035
0.0132242
2.80758
0.0157439
2.80416
0.0182638
2.79996
0.0207833
2.79528
0.023303
2.78964
0.0257023
2.78364
0.0283416
2.77656
0.0306208
2.76924
0.0331399
2.76084
0.0355387
2.75208
0.0379376
2.74236
0.0402165
2.73228
0.042615
2.72124
0.0448934
2.70984
0.0471718
2.69748
0.0494503
2.68452
0.0516085
2.67108
0.0537666
2.65693
0.0559244
2.64193
0.0580825
2.62645
0.0601202
2.61037
0.0621581
2.59357
0.0640754
2.57617
0.065873
2.55817
0.0679105
2.53933
0.0697077
2.52013
0.0713848
2.50033
0.073062
2.47969
0.0747389
2.45857
0.0764158
2.43685
0.0779726
2.41441
0.0795293
2.39161
0.0808457
2.36821
0.0822822
2.34397
0.0835986
2.31937
0.0847948
2.29417
0.0859911
2.26837
0.087067
2.24209
0.0881431
2.21509
0.089219
2.18773
0.0900547
2.15977
0.0908904
2.13133
0.091486
2.10205
0.0914816
2.07361
0.0926771
2.04241
0.0926722
2.01241
0.0938676
1.98121
0.0950628
1.94881
0.0938577
1.91881
0.0938527
1.88521
0.0950479
1.85161
0.0950427
1.81921
0.0950375
1.78561
0.0950322
1.75081
0.0938266
1.71721
0.0938212
1.68122
0.0938157
1.64522
0.09261
1.61042
0.0926045
1.57322
0.0925989
1.53722
0.0913931
1.50002
0.0901872
1.46282
0.0901815
1.42442
0.0889755
1.38722
0.0865695
1.34882
0.0853635
1.30922
0.0841574
1.27082
0.0829513
1.23122
0.0817453
1.19042
0.0805392
1.15202
0.078133
1.11122
0.076927
1.07042
0.0745208
1.02962
0.0733147
0.988817
0.0709086
0.948017
0.0685024
0.906017
0.064896
0.865217
0.06369
0.822017
0.061284
0.780017
0.058878
0.738017
0.0552719
0.696017
0.052866
0.652816
0.04926
0.610816
0.0468543
0.566416
0.0432484
0.524416
0.0396426
0.481216
0.0360369
0.438015
0.0324312
0.393615
0.0288251
0.350416
0.0252189
0.307216
0.0204138
0.264016
0.0168121
0.21961
0.0132118
0.175203
0.00960897
0.132003
0.00480329
0.0888113
0.0444122
-0.00479747
0.0491885
-0.00839312
0.0923873
-0.0131891
0.136793
-0.0179878
0.179996
-0.0215869
0.223191
-0.0251835
0.267585
-0.0287781
0.310782
-0.0323722
0.353982
-0.0371663
0.398382
-0.0395608
0.440382
-0.0431551
0.484782
-0.0455494
0.526781
-0.0491434
0.569981
-0.0515375
0.61318
-0.0551312
0.65638
-0.0575251
0.69838
-0.0599188
0.740379
-0.0635122
0.783579
-0.0659057
0.824379
-0.0670994
0.866379
-0.0694928
0.908378
-0.0718861
0.950378
-0.0742793
0.991178
-0.0766725
1.03198
-0.0778658
1.07158
-0.0802589
1.11358
-0.0814521
1.15318
-0.0838452
1.19278
-0.0850384
1.23238
-0.0862316
1.27198
-0.0874248
1.31038
-0.0886179
1.34998
-0.0886113
1.38718
-0.0898045
1.42558
-0.0909976
1.46398
-0.0921908
1.50118
-0.0921842
1.53718
-0.0933774
1.57438
-0.0933708
1.61038
-0.094564
1.64638
-0.0945576
1.68118
-0.0945511
1.71718
-0.0945447
1.75078
-0.0945382
1.78558
-0.094532
1.81918
-0.0945256
1.85158
-0.0945194
1.88518
-0.0933132
1.91758
-0.0933071
1.94878
-0.0933011
1.98118
-0.0920953
2.01118
-0.0920893
2.04238
-0.0908834
2.07238
-0.0902778
2.10142
-0.0894322
2.13046
-0.0884666
2.15878
-0.0875013
2.18674
-0.0865356
2.2141
-0.0853304
2.24086
-0.0841252
2.26714
-0.0829204
2.29294
-0.0815952
2.31802
-0.0802704
2.34262
-0.0787054
2.36662
-0.077141
2.39003
-0.0756963
2.41295
-0.0741316
2.43527
-0.0724472
2.45687
-0.0707628
2.47799
-0.0688388
2.49839
-0.0670349
2.51831
-0.0652306
2.53751
-0.0633069
2.55623
-0.0612632
2.57411
-0.0592194
2.59151
-0.0571759
2.60831
-0.0551326
2.62439
-0.0530893
2.63987
-0.0508061
2.65463
-0.0485233
2.66879
-0.04636
2.68235
-0.0441971
2.69531
-0.0417946
2.70743
-0.0395122
2.71895
-0.0369898
2.72975
-0.0347074
2.74007
-0.0323052
2.74967
-0.0299032
2.75843
-0.0273812
2.76671
-0.0249794
2.77415
-0.0223376
2.78099
-0.019936
2.78724
-0.0174147
2.79276
-0.0148931
2.79744
-0.0123723
2.80164
-0.00979077
2.805
-0.00722193
2.80778
-0.00466518
2.80985
-0.00209655
2.81121
0.000472002
2.81191
0.00304042
2.81191
0.00560876
2.81121
0.00816497
2.80985
0.0107331
2.80778
0.0133126
2.805
0.0158327
2.80164
0.018352
2.79744
0.0208717
2.79276
0.023271
2.78724
0.0259102
2.781
0.0283093
2.77416
0.0308283
2.76672
0.0332272
2.75844
0.0356259
2.74968
0.0379043
2.74008
0.0404229
2.72976
0.0427013
2.71897
0.0450996
2.70745
0.0472576
2.69533
0.0494152
2.68237
0.0516932
2.66881
0.0539708
2.65465
0.0560084
2.63989
0.0580458
2.62441
0.0600831
2.60833
0.06212
2.59153
0.0641571
2.57413
0.0660741
2.55625
0.0678705
2.53753
0.0696673
2.51833
0.0715839
2.49841
0.0732602
2.47801
0.0749364
2.45689
0.0764923
2.43529
0.0779282
2.41297
0.0794844
2.39005
0.0810399
2.36665
0.0823556
2.34265
0.0836709
2.31805
0.0848666
2.29297
0.0860617
2.26718
0.087257
2.2409
0.0882117
2.21414
0.0891667
2.18678
0.0901215
2.15882
0.0909561
2.1305
0.0915508
2.10146
0.0927451
2.07242
0.0927394
2.04242
0.0939337
2.01122
0.0939278
1.98122
0.0939218
1.94882
0.0951158
1.91762
0.0951096
1.88522
0.0951032
1.85162
0.095097
1.81922
0.0950904
1.78562
0.095084
1.75082
0.0950773
1.71722
0.0950708
1.68122
0.0938638
1.64642
0.0938569
1.61042
0.0926498
1.57442
0.0926429
1.53722
0.0914357
1.50122
0.0902285
1.46402
0.0890212
1.42562
0.0890142
1.38722
0.0878067
1.35002
0.0865994
1.31042
0.085392
1.27202
0.0841846
1.23242
0.081777
1.19282
0.0805695
1.15322
0.0781619
1.11362
0.0769544
1.07162
0.0745467
1.03202
0.0721391
0.991225
0.0697314
0.950425
0.0673239
0.908425
0.0661167
0.866424
0.0637092
0.824424
0.0601015
0.783624
0.0576941
0.740424
0.0552868
0.698424
0.0516793
0.656424
0.0492722
0.613223
0.045665
0.570023
0.043258
0.526823
0.0396509
0.484823
0.037244
0.440422
0.0324365
0.398423
0.028829
0.354023
0.025222
0.310823
0.0216176
0.26762
0.0180165
0.223211
0.0132148
0.180005
0.00840944
0.136809
0.00480349
0.0924173
0.0492157
-0.00359763
0.0527862
-0.00839297
0.0971826
-0.0119878
0.140388
-0.016785
0.184793
-0.0215837
0.22799
-0.025181
0.271182
-0.0287756
0.314376
-0.0323689
0.357575
-0.035962
0.401975
-0.0395552
0.443975
-0.0419486
0.487175
-0.0455416
0.530374
-0.0491346
0.573574
-0.0527273
0.616773
-0.0551201
0.658773
-0.0575129
0.700772
-0.0611052
0.743972
-0.0622979
0.784772
-0.0658901
0.827971
-0.0682823
0.868771
-0.0706744
0.910771
-0.0718668
0.95157
-0.0742587
0.99357
-0.0754509
1.03317
-0.0790426
1.07517
-0.0790349
1.11357
-0.0814266
1.15557
-0.0826185
1.19397
-0.0838105
1.23357
-0.0850024
1.27317
-0.087394
1.31277
-0.0873861
1.34997
-0.0897777
1.38957
-0.0909696
1.42677
-0.0909617
1.46397
-0.0909538
1.50117
-0.0921457
1.53837
-0.0933376
1.57557
-0.0933297
1.61037
-0.0933221
1.64637
-0.094514
1.68237
-0.0933064
1.71597
-0.0944984
1.75197
-0.0944909
1.78557
-0.0932834
1.81797
-0.0944757
1.85277
-0.0944681
1.88517
-0.093261
1.91637
-0.0932537
1.94877
-0.0932464
1.98117
-0.0932392
2.01117
-0.0920323
2.04117
-0.0908255
2.07117
-0.0902186
2.10081
-0.0892518
2.1295
-0.0884051
2.15794
-0.0874385
2.18578
-0.0863522
2.21302
-0.085266
2.23978
-0.0840596
2.26594
-0.0828534
2.29174
-0.0815275
2.3167
-0.0800814
2.34118
-0.0786359
2.36518
-0.07719
2.38858
-0.0756245
2.41138
-0.0739394
2.43358
-0.072374
2.4553
-0.0705688
2.47618
-0.0688837
2.4967
-0.0669587
2.51638
-0.0651541
2.5357
-0.0631093
2.55418
-0.0611849
2.57218
-0.0592606
2.58958
-0.0570965
2.60614
-0.0550521
2.62234
-0.0528882
2.63771
-0.0507244
2.65247
-0.0485607
2.66663
-0.0463973
2.68019
-0.0439939
2.69291
-0.0417108
2.70515
-0.0393076
2.71655
-0.0370245
2.72747
-0.0346218
2.73767
-0.0322192
2.74727
-0.0298167
2.75603
-0.0272941
2.76419
-0.0248922
2.77175
-0.0223701
2.77847
-0.0198481
2.78471
-0.0173263
2.79023
-0.0148049
2.79491
-0.0121633
2.79899
-0.0097021
2.80254
-0.00714476
2.80522
-0.00457586
2.80728
-0.00200711
2.80865
0.000561547
2.80934
0.00313006
2.80934
0.00569847
2.80865
0.00826673
2.80728
0.0108225
2.80523
0.0132825
2.80254
0.0159221
2.799
0.0184418
2.79492
0.0209611
2.79024
0.0234803
2.78472
0.0259993
2.77848
0.0283986
2.77176
0.030917
2.7642
0.0333157
2.75604
0.0357142
2.74729
0.0381126
2.73769
0.0403905
2.72749
0.0427883
2.71657
0.0450663
2.70517
0.0474639
2.69293
0.0496216
2.68021
0.0517789
2.66665
0.053936
2.65249
0.056093
2.63773
0.0581296
2.62237
0.0602864
2.60617
0.062203
2.58961
0.0641195
2.57221
0.0661556
2.55421
0.0679518
2.53573
0.0698676
2.51641
0.0715433
2.49674
0.0733388
2.47622
0.0748942
2.45534
0.0765698
2.43362
0.078125
2.41142
0.0795598
2.38862
0.080995
2.36522
0.0824295
2.34122
0.0837441
2.31674
0.0849384
2.29178
0.0861326
2.26598
0.0872069
2.23982
0.088281
2.21306
0.0892348
2.18582
0.0900685
2.15798
0.0910221
2.12954
0.0916155
2.10086
0.0928089
2.07122
0.0940022
2.04122
0.0939952
2.01123
0.0939881
1.98123
0.093981
1.94883
0.0951739
1.91643
0.0951663
1.88523
0.0939586
1.85283
0.0951512
1.81803
0.0951435
1.78563
0.0939354
1.75203
0.0951277
1.71603
0.0939194
1.68243
0.0939115
1.64643
0.0939033
1.61043
0.0926949
1.57563
0.0914863
1.53843
0.091478
1.50123
0.0914697
1.46403
0.090261
1.42683
0.0878521
1.38963
0.0878436
1.35003
0.0854344
1.31283
0.0842257
1.27323
0.0830169
1.23363
0.081808
1.19403
0.0793989
1.15563
0.0793903
1.11363
0.0757809
1.07523
0.0745722
1.03323
0.0721631
0.993634
0.0709544
0.951633
0.0685453
0.910834
0.0661364
0.868833
0.0625273
0.828034
0.0613187
0.784833
0.0577097
0.744033
0.0553011
0.700833
0.0528926
0.658832
0.0492838
0.616832
0.0456752
0.573632
0.0420667
0.530431
0.0396584
0.487231
0.0360499
0.444031
0.0324412
0.402031
0.0288325
0.357632
0.0252255
0.31443
0.021622
0.271223
0.0168205
0.228013
0.0120167
0.184809
0.00840969
0.140416
0.00360331
0.0972237
0.052819
-0.00479714
0.0575833
-0.0095926
0.101978
-0.0131868
0.143982
-0.0167824
0.188389
-0.0203805
0.231588
-0.0239783
0.27478
-0.0287731
0.319171
-0.0323659
0.361168
-0.035958
0.405567
-0.0395502
0.447567
-0.0431423
0.490767
-0.0467342
0.533966
-0.0491263
0.575966
-0.0515182
0.619165
-0.0551097
0.662364
-0.0575013
0.703164
-0.0598928
0.746363
-0.0634838
0.788363
-0.0646753
0.829162
-0.068266
0.872362
-0.0694573
0.911962
-0.0730477
0.955161
-0.0742389
0.994761
-0.0766295
1.03556
-0.0778203
1.07636
-0.0802109
1.11596
-0.0814016
1.15676
-0.0825924
1.19516
-0.0849827
1.23596
-0.0861733
1.27436
-0.0861642
1.31276
-0.0885545
1.35236
-0.0885452
1.38956
-0.0897357
1.42796
-0.0909263
1.46516
-0.092117
1.50236
-0.0921077
1.53836
-0.0920985
1.57556
-0.0932892
1.61156
-0.0944796
1.64756
-0.093271
1.68116
-0.0944616
1.71716
-0.0944528
1.75196
-0.0944437
1.78556
-0.094435
1.81796
-0.0944261
1.85276
-0.0932177
1.88396
-0.0944086
1.91756
-0.0932003
1.94756
-0.0919921
1.97997
-0.0919837
2.01117
-0.0919751
2.04117
-0.0907673
2.06997
-0.090159
2.10021
-0.0893113
2.12865
-0.0884634
2.15709
-0.0873757
2.18469
-0.0864083
2.21205
-0.0852008
2.23857
-0.0841133
2.26485
-0.0826663
2.29029
-0.0813394
2.31537
-0.0800125
2.33985
-0.0786855
2.36385
-0.0771189
2.38701
-0.0755524
2.40981
-0.0739861
2.43201
-0.0721799
2.45349
-0.070494
2.4745
-0.068688
2.4949
-0.0668822
2.51458
-0.0649568
2.53378
-0.0631511
2.55238
-0.0612259
2.57026
-0.0590606
2.58742
-0.0571357
2.60422
-0.0549709
2.62018
-0.0528063
2.63554
-0.0506421
2.6503
-0.0484774
2.66446
-0.0461935
2.6779
-0.0439094
2.69062
-0.0416255
2.70286
-0.039342
2.71427
-0.0369384
2.72507
-0.0345352
2.73527
-0.0321322
2.74487
-0.0296089
2.75351
-0.0272065
2.76179
-0.0246836
2.76923
-0.0222811
2.77607
-0.0197591
2.78219
-0.017237
2.78771
-0.0147153
2.79239
-0.0121934
2.79647
-0.00960008
2.79994
-0.00704287
2.80267
-0.00448543
2.80472
-0.00191654
2.80608
0.000652221
2.80677
0.00322082
2.80677
0.0057893
2.80608
0.00834523
2.80472
0.0109014
2.80267
0.0134934
2.79995
0.0160128
2.79648
0.0185326
2.7924
0.0210517
2.78772
0.0235711
2.7822
0.02597
2.77608
0.0284883
2.76925
0.0308872
2.76181
0.0334053
2.75353
0.0358035
2.74489
0.0382016
2.73529
0.0405992
2.72509
0.042877
2.71429
0.0451542
2.70289
0.0474313
2.69065
0.0497087
2.67793
0.0518651
2.66449
0.0540221
2.65033
0.0561786
2.63557
0.0583349
2.62022
0.0602511
2.60426
0.0624068
2.58746
0.0643227
2.5703
0.066118
2.55242
0.0680336
2.53382
0.0698287
2.51462
0.0716236
2.49494
0.0732987
2.47454
0.0750933
2.45354
0.0766478
2.43206
0.0782021
2.40986
0.0797563
2.38706
0.08107
2.36391
0.0823839
2.33991
0.0836976
2.31543
0.0851312
2.29035
0.0862043
2.26491
0.0873974
2.23863
0.0883505
2.21211
0.0894233
2.18475
0.0902558
2.15715
0.0910886
2.12871
0.0916806
2.10027
0.0928731
2.07003
0.0928648
2.04123
0.0928566
2.01123
0.0940485
1.98003
0.0952404
1.94763
0.0940314
1.91764
0.095223
1.88404
0.0952141
1.85284
0.0952053
1.81804
0.0951961
1.78564
0.0951871
1.75204
0.0939775
1.71724
0.0951687
1.68124
0.0939587
1.64764
0.0927491
1.61164
0.0927396
1.57564
0.0927298
1.53844
0.09152
1.50244
0.0903099
1.46524
0.0890998
1.42804
0.0890899
1.38964
0.0866794
1.35244
0.0866695
1.31284
0.0854593
1.27444
0.0830487
1.23604
0.0818385
1.19524
0.0806283
1.15684
0.0782178
1.11604
0.0770074
1.07644
0.0745969
1.03564
0.0733869
0.994844
0.0697759
0.955244
0.0685659
0.912044
0.0649552
0.872444
0.0637452
0.829243
0.0601348
0.788443
0.0577247
0.746443
0.0553148
0.703243
0.0517045
0.662443
0.0492947
0.619242
0.0468851
0.576041
0.0432751