/*--------------------------------*- C++ -*----------------------------------*\
  =========                 |
  \\      /  F ield         | OpenFOAM: The Open Source CFD Toolbox
   \\    /   O peration     | Website:  https://openfoam.org
    \\  /    A nd           | Version:  10
     \\/     M anipulation  |
\*---------------------------------------------------------------------------*/
FoamFile
{
    format      ascii;
    class       volScalarField;
    location    "0.003";
    object      p;
}
// * * * * * * * * * * * * * * * * * * * * * * * * * * * * * * * * * * * * * //

dimensions      [1 -1 -2 0 0 0 0];

internalField   nonuniform List<scalar> 
8922
(
99097.1
99059.1
99020.7
98982.3
98944.3
98907
98870.5
98835.4
98802.2
98771.4
98743.3
98718.2
98696.6
98678.8
98665
98655.7
98651.1
98651.7
98658.2
98672
98693.6
98723.1
98761.2
98808.7
98861.7
98913.1
98979.4
99082.7
98999.5
98388.3
99177.3
99138.2
99098.6
99058.8
99019.2
98980.3
98942.2
98905.4
98870.5
98837.9
98808
98781.2
98757.9
98738.4
98723
98712.2
98706.2
98705.4
98710.6
98722.5
98741.7
98768.2
98802.6
98844.9
98889.8
98931.8
98990.6
99062.2
98954.4
98649.5
99239.8
99199.9
99159.4
99118.7
99078.3
99038.6
98999.7
98962.3
98926.9
98893.8
98863.4
98836.2
98812.5
98792.7
98777
98765.8
98759.3
98757.9
98762.3
98772.8
98789.8
98813.4
98843.9
98880.6
98918.1
98954.2
99004
99045.2
98951.4
98803
99290.2
99250
99209.4
99168.7
99128.4
99088.8
99050.3
99013.2
98978.2
98945.5
98915.6
98888.8
98865.4
98845.8
98830.1
98818.8
98812.1
98810.1
98813.5
98822.6
98837.5
98858.2
98884.9
98916.3
98947.8
98979.7
99020.1
99041.8
98976.3
98910.4
99332.9
99293.2
99253.2
99213.3
99173.8
99135.1
99097.5
99061.4
99027.4
98995.6
98966.5
98940.4
98917.6
98898.3
98882.9
98871.5
98864.4
98861.9
98864.3
98871.9
98884.6
98902.5
98925.5
98951.9
98978.4
99006.4
99038.8
99050.3
99009.7
98986.9
99371
99332.4
99293.6
99254.9
99216.7
99179.3
99143.1
99108.4
99075.5
99044.9
99016.7
98991.4
98969.2
98950.3
98935
98923.6
98916.2
98913
98914.4
98920.4
98931.1
98946.3
98965.9
98988
99010.4
99034.5
99059.8
99068.1
99048.1
99045.2
99406.5
99369.4
99332.1
99294.9
99258.3
99222.5
99187.7
99154.4
99122.8
99093.3
99066.2
99041.6
99020
99001.5
98986.4
98974.9
98967.1
98963.3
98963.6
98968.2
98976.8
98989.6
99005.9
99024.3
99043.5
99064.1
99084
99091.9
99086
99093.1
99440.5
99405
99369.3
99333.9
99298.9
99264.6
99231.4
99199.4
99169.1
99140.8
99114.6
99090.9
99069.8
99051.7
99036.8
99025.2
99017
99012.6
99011.9
99015
99021.8
99032.2
99045.6
99061
99077.3
99094.8
99111.1
99119.8
99122.5
99134.3
99473.2
99439.5
99405.5
99371.8
99338.4
99305.7
99273.9
99243.4
99214.3
99187.1
99161.9
99138.9
99118.5
99100.8
99086
99074.3
99065.9
99060.8
99059.1
99060.9
99066
99074.2
99085.1
99097.7
99111.6
99126.4
99140.3
99149.9
99157.5
99171.3
99504.9
99472.8
99440.6
99408.5
99376.7
99345.5
99315.2
99286
99258.3
99232.1
99207.8
99185.7
99165.9
99148.6
99133.9
99122.2
99113.4
99107.7
99105.1
99105.6
99109.2
99115.5
99124.1
99134.5
99146.2
99158.8
99170.9
99181.2
99191.1
99205.5
99535.5
99505
99474.4
99443.9
99413.7
99384
99355.2
99327.3
99300.8
99275.7
99252.4
99231
99211.8
99194.9
99180.5
99168.6
99159.6
99153.3
99149.9
99149.3
99151.4
99155.9
99162.7
99171.1
99180.9
99191.6
99202.4
99212.7
99223.6
99237.7
99564.8
99536
99507
99478
99449.3
99421.2
99393.7
99367.2
99341.8
99317.8
99295.4
99274.8
99256.2
99239.7
99225.4
99213.6
99204.3
99197.5
99193.3
99191.7
99192.5
99195.6
99200.6
99207.3
99215.4
99224.5
99234.2
99244.2
99255.1
99268.3
99592.8
99565.5
99538.1
99510.7
99483.5
99456.8
99430.7
99405.4
99381.2
99358.3
99336.8
99317
99298.9
99282.8
99268.8
99257
99247.4
99240.2
99235.4
99232.8
99232.5
99234.2
99237.8
99243.1
99249.6
99257.3
99265.9
99275.2
99285.6
99297.8
99619.5
99593.7
99567.8
99541.9
99516.2
99490.8
99466.1
99442
99419
99397.1
99376.5
99357.4
99339.9
99324.2
99310.5
99298.7
99289
99281.4
99276
99272.6
99271.3
99271.9
99274.2
99278.1
99283.3
99289.8
99297.3
99305.7
99315.2
99326.3
99644.8
99620.5
99596.1
99571.6
99547.3
99523.3
99499.8
99477
99455
99434.1
99414.4
99396.1
99379.2
99363.9
99350.4
99338.7
99328.9
99321
99315
99311
99308.8
99308.4
99309.6
99312.3
99316.4
99321.7
99328.1
99335.6
99344.1
99354
99668.8
99645.9
99622.9
99599.8
99576.9
99554.2
99531.9
99510.3
99489.4
99469.4
99450.6
99432.9
99416.7
99401.8
99388.6
99377
99367.1
99359
99352.6
99348
99345
99343.7
99344
99345.7
99348.6
99352.8
99358.2
99364.7
99372.1
99380.8
99691.4
99669.9
99648.3
99626.5
99604.9
99583.4
99562.4
99541.8
99522
99503
99485
99468
99452.3
99437.9
99425
99413.5
99403.6
99395.3
99388.6
99383.4
99379.9
99377.8
99377.2
99378
99380
99383.2
99387.6
99393
99399.4
99406.9
99712.8
99692.6
99672.2
99651.7
99631.3
99611.1
99591.2
99571.7
99552.9
99534.8
99517.5
99501.3
99486.2
99472.2
99459.6
99448.3
99438.4
99429.9
99423
99417.4
99413.3
99410.6
99409.3
99409.2
99410.3
99412.6
99416
99420.5
99425.8
99432.2
99732.9
99713.9
99694.8
99675.5
99656.3
99637.2
99618.3
99599.9
99582
99564.8
99548.4
99532.8
99518.3
99504.8
99492.4
99481.3
99471.5
99463
99455.8
99449.9
99445.3
99442.1
99440.1
99439.3
99439.6
99441.1
99443.6
99447.1
99451.4
99456.8
99751.7
99734
99716
99697.8
99679.7
99661.7
99644
99626.5
99609.6
99593.2
99577.5
99562.6
99548.6
99535.6
99523.6
99512.7
99502.9
99494.4
99487
99480.9
99475.9
99472.2
99469.6
99468.2
99467.8
99468.5
99470.2
99472.8
99476.2
99480.6
99769.5
99752.8
99735.9
99718.8
99701.8
99684.8
99668
99651.6
99635.5
99619.9
99604.9
99590.7
99577.2
99564.6
99553
99542.3
99532.7
99524.1
99516.7
99510.4
99505.1
99501
99497.9
99495.9
99494.9
99494.9
99495.8
99497.7
99500.2
99503.7
99786.1
99770.4
99754.6
99738.6
99722.5
99706.5
99690.7
99675.1
99659.8
99645
99630.8
99617.1
99604.2
99592.1
99580.8
99570.3
99560.9
99552.4
99544.9
99538.4
99532.9
99528.4
99524.9
99522.4
99520.8
99520.2
99520.5
99521.6
99523.3
99526
99801.7
99787
99772.1
99757
99741.9
99726.8
99711.9
99697.1
99682.7
99668.6
99655
99642
99629.6
99617.9
99606.9
99596.8
99587.5
99579
99571.5
99564.9
99559.2
99554.5
99550.6
99547.7
99545.7
99544.5
99544.1
99544.5
99545.6
99547.5
99816.3
99802.5
99788.5
99774.3
99760.1
99745.9
99731.7
99717.8
99704.1
99690.7
99677.8
99665.3
99653.4
99642.2
99631.6
99621.7
99612.6
99604.2
99596.7
99590.1
99584.2
99579.2
99575.1
99571.8
99569.3
99567.7
99566.8
99566.6
99567
99568.3
99830
99817.1
99803.9
99790.5
99777.1
99763.7
99750.4
99737.2
99724.2
99711.5
99699.1
99687.2
99675.8
99665
99654.7
99645.1
99636.2
99628
99620.5
99613.8
99607.9
99602.7
99598.4
99594.7
99591.9
99589.8
99588.4
99587.7
99587.6
99588.2
99842.9
99830.7
99818.3
99805.7
99793.1
99780.4
99767.8
99755.3
99743
99730.9
99719.1
99707.8
99696.8
99686.4
99676.5
99667.1
99658.4
99650.4
99643
99636.3
99630.3
99625
99620.4
99616.5
99613.4
99610.9
99609.1
99607.9
99607.3
99607.4
99854.9
99843.5
99831.8
99819.9
99808
99796
99784.1
99772.2
99760.5
99749.1
99737.9
99727
99716.5
99706.4
99696.9
99687.8
99679.3
99671.4
99664.1
99657.4
99651.4
99646
99641.3
99637.2
99633.7
99630.9
99628.8
99627.2
99626.1
99625.8
99866.3
99855.5
99844.4
99833.3
99822
99810.7
99799.3
99788.1
99777
99766.1
99755.4
99745
99734.9
99725.3
99716
99707.2
99699
99691.2
99684
99677.4
99671.3
99665.9
99661
99656.8
99653.1
99650
99647.5
99645.6
99644.2
99643.4
99876.9
99866.7
99856.3
99845.7
99835.1
99824.3
99813.6
99802.9
99792.4
99782
99771.8
99761.8
99752.2
99742.9
99733.9
99725.4
99717.4
99709.8
99702.7
99696.1
99690.1
99684.6
99679.7
99675.3
99671.4
99668.1
99665.4
99663.1
99661.3
99660.2
99886.9
99877.3
99867.4
99857.4
99847.3
99837.1
99827
99816.8
99806.8
99796.8
99787.1
99777.6
99768.3
99759.3
99750.7
99742.5
99734.7
99727.3
99720.3
99713.8
99707.8
99702.3
99697.3
99692.8
99688.8
99685.3
99682.3
99679.8
99677.7
99676.2
99896.4
99887.2
99877.9
99868.4
99858.8
99849.1
99839.4
99829.8
99820.2
99810.7
99801.4
99792.3
99783.4
99774.8
99766.5
99758.5
99750.9
99743.6
99736.8
99730.4
99724.4
99718.9
99713.9
99709.3
99705.2
99701.5
99698.3
99695.6
99693.3
99691.5
99905.2
99896.6
99887.7
99878.7
99869.5
99860.3
99851.1
99841.9
99832.8
99823.7
99814.8
99806
99797.5
99789.2
99781.2
99773.4
99766
99759
99752.3
99746
99740.1
99734.6
99729.5
99724.9
99720.6
99716.9
99713.5
99710.6
99708
99706
99913.6
99905.3
99896.9
99888.3
99879.6
99870.8
99862
99853.2
99844.5
99835.8
99827.3
99818.9
99810.7
99802.7
99794.9
99787.4
99780.2
99773.3
99766.8
99760.6
99754.8
99749.3
99744.2
99739.5
99735.2
99731.4
99727.9
99724.8
99722
99719.8
99921.5
99913.6
99905.5
99897.3
99889
99880.6
99872.2
99863.8
99855.5
99847.2
99839
99830.9
99823
99815.3
99807.8
99800.5
99793.5
99786.8
99780.4
99774.3
99768.5
99763.1
99758.1
99753.4
99749
99745
99741.4
99738.2
99735.3
99732.9
99928.9
99921.3
99913.6
99905.8
99897.8
99889.8
99881.8
99873.7
99865.7
99857.8
99849.9
99842.1
99834.5
99827.1
99819.8
99812.8
99806
99799.4
99793.1
99787.2
99781.5
99776.1
99771.1
99766.4
99762
99757.9
99754.2
99750.9
99747.9
99745.3
99935.9
99928.6
99921.2
99913.7
99906.1
99898.4
99890.7
99883
99875.3
99867.6
99860.1
99852.6
99845.2
99838.1
99831
99824.2
99817.6
99811.2
99805.1
99799.2
99793.6
99788.3
99783.3
99778.6
99774.2
99770.1
99766.3
99762.9
99759.7
99757
99942.4
99935.5
99928.4
99921.1
99913.8
99906.5
99899
99891.6
99884.2
99876.9
99869.6
99862.4
99855.3
99848.3
99841.5
99834.9
99828.5
99822.3
99816.3
99810.5
99805
99799.7
99794.8
99790.1
99785.6
99781.5
99777.7
99774.1
99770.9
99768
99948.5
99941.8
99935
99928.1
99921
99914
99906.8
99899.7
99892.6
99885.5
99878.4
99871.5
99864.6
99857.9
99851.3
99844.9
99838.6
99832.6
99826.7
99821.1
99815.6
99810.5
99805.5
99800.8
99796.4
99792.3
99788.4
99784.8
99781.4
99778.4
99954.3
99947.8
99941.2
99934.5
99927.8
99920.9
99914.1
99907.2
99900.3
99893.5
99886.7
99880
99873.4
99866.9
99860.5
99854.2
99848.1
99842.2
99836.5
99831
99825.6
99820.5
99815.6
99811
99806.6
99802.4
99798.5
99794.8
99791.4
99788.3
99959.6
99953.4
99947
99940.6
99934
99927.5
99920.8
99914.2
99907.6
99901
99894.4
99887.9
99881.5
99875.2
99869
99862.9
99857
99851.2
99845.6
99840.2
99835
99829.9
99825.1
99820.5
99816.1
99811.9
99807.9
99804.2
99800.7
99797.5
99964.6
99958.6
99952.4
99946.2
99939.9
99933.5
99927.1
99920.7
99914.3
99907.9
99901.6
99895.3
99889.1
99883
99877
99871.1
99865.3
99859.7
99854.2
99848.9
99843.7
99838.7
99834
99829.4
99825
99820.8
99816.8
99813.1
99809.5
99806.3
99969.2
99963.4
99957.4
99951.4
99945.3
99939.1
99932.9
99926.7
99920.6
99914.4
99908.3
99902.2
99896.2
99890.2
99884.4
99878.6
99873
99867.5
99862.2
99856.9
99851.9
99847
99842.3
99837.7
99833.4
99829.2
99825.2
99821.4
99817.8
99814.5
99973.4
99967.8
99962
99956.2
99950.3
99944.3
99938.3
99932.3
99926.4
99920.4
99914.5
99908.6
99902.7
99897
99891.3
99885.7
99880.2
99874.9
99869.6
99864.5
99859.5
99854.7
99850.1
99845.6
99841.2
99837
99833.1
99829.2
99825.6
99822.2
99977.3
99971.8
99966.2
99960.6
99954.9
99949.1
99943.3
99937.5
99931.7
99926
99920.2
99914.5
99908.8
99903.2
99897.7
99892.3
99887
99881.7
99876.6
99871.6
99866.7
99862
99857.4
99852.9
99848.6
99844.4
99840.4
99836.6
99832.9
99829.5
99980.8
99975.5
99970.1
99964.6
99959.1
99953.5
99947.9
99942.3
99936.7
99931.1
99925.5
99920
99914.5
99909.1
99903.7
99898.4
99893.2
99888.1
99883.1
99878.2
99873.4
99868.7
99864.2
99859.8
99855.5
99851.4
99847.4
99843.5
99839.8
99836.3
99984
99978.9
99973.6
99968.3
99962.9
99957.6
99952.1
99946.7
99941.3
99935.9
99930.5
99925.1
99919.8
99914.5
99909.3
99904.1
99899.1
99894.1
99889.2
99884.4
99879.7
99875.1
99870.6
99866.2
99862
99857.9
99853.9
99850
99846.3
99842.8
99986.9
99981.9
99976.8
99971.7
99966.5
99961.2
99956
99950.8
99945.5
99940.2
99935
99929.8
99924.6
99919.5
99914.5
99909.4
99904.5
99899.6
99894.9
99890.2
99885.5
99881
99876.6
99872.3
99868.1
99864
99860
99856.2
99852.4
99848.8
99989.4
99984.6
99979.7
99974.7
99969.7
99964.6
99959.5
99954.5
99949.4
99944.3
99939.2
99934.2
99929.2
99924.2
99919.3
99914.4
99909.6
99904.8
99900.2
99895.6
99891
99886.6
99882.3
99878
99873.8
99869.8
99865.8
99862
99858.2
99854.6
99991.6
99987
99982.2
99977.4
99972.5
99967.7
99962.8
99957.8
99952.9
99948
99943.1
99938.2
99933.3
99928.5
99923.7
99919
99914.3
99909.7
99905.1
99900.6
99896.2
99891.8
99887.5
99883.3
99879.2
99875.2
99871.3
99867.4
99863.7
99860
99993.6
99989.1
99984.5
99979.8
99975.1
99970.4
99965.7
99960.9
99956.2
99951.4
99946.7
99941.9
99937.2
99932.5
99927.9
99923.3
99918.7
99914.2
99909.7
99905.3
99901
99896.7
99892.5
99888.4
99884.3
99880.3
99876.4
99872.6
99868.8
99865.2
99995.2
99990.9
99986.5
99982
99977.4
99972.9
99968.3
99963.7
99959.1
99954.5
99949.9
99945.3
99940.8
99936.2
99931.7
99927.3
99922.8
99918.4
99914.1
99909.8
99905.5
99901.3
99897.2
99893.1
99889.1
99885.2
99881.3
99877.5
99873.7
99870.1
99996.6
99992.4
99988.2
99983.9
99979.5
99975.1
99970.7
99966.3
99961.8
99957.4
99952.9
99948.5
99944.1
99939.7
99935.3
99931
99926.6
99922.4
99918.1
99913.9
99909.8
99905.7
99901.6
99897.6
99893.7
99889.8
99885.9
99882.1
99878.4
99874.7
99997.8
99993.8
99989.7
99985.5
99981.3
99977.1
99972.8
99968.6
99964.3
99960
99955.7
99951.4
99947.1
99942.9
99938.6
99934.4
99930.2
99926.1
99921.9
99917.8
99913.8
99909.8
99905.8
99901.9
99898
99894.1
99890.3
99886.5
99882.8
99879.2
99998.7
99994.9
99990.9
99986.9
99982.9
99978.8
99974.7
99970.6
99966.5
99962.4
99958.2
99954.1
99949.9
99945.8
99941.7
99937.6
99933.6
99929.5
99925.5
99921.5
99917.6
99913.6
99909.7
99905.9
99902
99898.2
99894.5
99890.8
99887.1
99883.4
99999.5
99995.8
99992
99988.2
99984.3
99980.4
99976.5
99972.5
99968.5
99964.5
99960.5
99956.5
99952.5
99948.6
99944.6
99940.6
99936.7
99932.8
99928.9
99925
99921.1
99917.3
99913.5
99909.7
99905.9
99902.2
99898.5
99894.8
99891.1
99887.5
100000
99996.5
99992.9
99989.2
99985.5
99981.8
99978
99974.2
99970.4
99966.5
99962.7
99958.8
99955
99951.1
99947.3
99943.4
99939.6
99935.8
99932
99928.2
99924.5
99920.7
99917
99913.3
99909.6
99906
99902.3
99898.7
99895.1
99891.4
100000
99997.1
99993.6
99990.1
99986.6
99983
99979.3
99975.7
99972
99968.3
99964.6
99960.9
99957.2
99953.5
99949.8
99946.1
99942.4
99938.7
99935
99931.3
99927.7
99924
99920.4
99916.8
99913.2
99909.6
99906
99902.4
99898.8
99895.3
100001
99997.5
99994.2
99990.9
99987.5
99984
99980.6
99977
99973.5
99970
99966.4
99962.8
99959.3
99955.7
99952.1
99948.5
99945
99941.4
99937.8
99934.3
99930.7
99927.2
99923.7
99920.1
99916.6
99913.1
99909.6
99906.1
99902.5
99899
100001
99997.9
99994.7
99991.5
99988.3
99985
99981.6
99978.3
99974.9
99971.5
99968.1
99964.6
99961.2
99957.7
99954.3
99950.9
99947.4
99944
99940.5
99937.1
99933.6
99930.2
99926.8
99923.3
99919.9
99916.5
99913
99909.6
99906.1
99902.6
100001
99998.1
99995.1
99992
99988.9
99985.8
99982.6
99979.4
99976.1
99972.9
99969.6
99966.3
99963
99959.7
99956.4
99953
99949.7
99946.4
99943.1
99939.8
99936.4
99933.1
99929.8
99926.4
99923.1
99919.8
99916.4
99913
99909.6
99906.2
100001
99998.2
99995.4
99992.5
99989.5
99986.5
99983.5
99980.4
99977.3
99974.2
99971
99967.9
99964.7
99961.5
99958.3
99955.1
99951.9
99948.7
99945.5
99942.3
99939.1
99935.9
99932.7
99929.4
99926.2
99922.9
99919.7
99916.4
99913.1
99909.8
100001
99998.3
99995.6
99992.8
99990
99987.1
99984.2
99981.3
99978.3
99975.3
99972.3
99969.3
99966.3
99963.2
99960.2
99957.1
99954
99951
99947.9
99944.8
99941.7
99938.6
99935.5
99932.3
99929.2
99926.1
99922.9
99919.7
99916.5
99913.2
100001
99998.3
99995.8
99993.1
99990.4
99987.7
99984.9
99982.1
99979.3
99976.4
99973.6
99970.7
99967.8
99964.9
99961.9
99959
99956
99953.1
99950.1
99947.2
99944.2
99941.2
99938.2
99935.2
99932.2
99929.1
99926.1
99923
99919.9
99916.7
100001
99998.3
99995.9
99993.4
99990.8
99988.2
99985.6
99982.9
99980.2
99977.5
99974.7
99972
99969.2
99966.4
99963.6
99960.8
99958
99955.1
99952.3
99949.5
99946.6
99943.7
99940.9
99938
99935.1
99932.1
99929.2
99926.2
99923.2
99920.2
100001
99998.3
99996
99993.6
99991.2
99988.7
99986.2
99983.6
99981.1
99978.5
99975.8
99973.2
99970.6
99967.9
99965.2
99962.5
99959.8
99957.1
99954.4
99951.7
99949
99946.2
99943.5
99940.7
99937.9
99935.1
99932.3
99929.4
99926.5
99923.6
100000
99998.2
99996
99993.8
99991.5
99989.1
99986.7
99984.3
99981.9
99979.4
99976.9
99974.4
99971.9
99969.3
99966.8
99964.2
99961.6
99959.1
99956.5
99953.9
99951.3
99948.6
99946
99943.4
99940.7
99938
99935.3
99932.6
99929.8
99927
100000
99998.2
99996.1
99993.9
99991.7
99989.5
99987.2
99984.9
99982.6
99980.3
99977.9
99975.5
99973.1
99970.7
99968.3
99965.8
99963.4
99960.9
99958.5
99956
99953.5
99951
99948.5
99946
99943.4
99940.9
99938.3
99935.7
99933.1
99930.5
100000
99998.1
99996.1
99994.1
99992
99989.9
99987.7
99985.6
99983.3
99981.1
99978.9
99976.6
99974.3
99972
99969.7
99967.4
99965.1
99962.7
99960.4
99958
99955.7
99953.3
99950.9
99948.6
99946.2
99943.7
99941.3
99938.9
99936.4
99933.9
99999.9
99998
99996.2
99994.2
99992.3
99990.3
99988.2
99986.1
99984
99981.9
99979.8
99977.6
99975.5
99973.3
99971.1
99968.9
99966.7
99964.5
99962.3
99960.1
99957.8
99955.6
99953.3
99951.1
99948.8
99946.6
99944.3
99942
99939.6
99937.3
99999.7
99998
99996.2
99994.4
99992.5
99990.6
99988.7
99986.7
99984.7
99982.7
99980.7
99978.7
99976.6
99974.5
99972.5
99970.4
99968.3
99966.2
99964.1
99962
99959.9
99957.8
99955.7
99953.6
99951.5
99949.3
99947.2
99945
99942.9
99940.7
99999.5
99997.9
99996.3
99994.5
99992.8
99990.9
99989.1
99987.3
99985.4
99983.5
99981.6
99979.6
99977.7
99975.8
99973.8
99971.9
99969.9
99967.9
99965.9
99964
99962
99960
99958
99956
99954
99952
99950
99948
99946
99944
99999.4
99997.9
99996.3
99994.7
99993
99991.3
99989.6
99987.8
99986
99984.2
99982.4
99980.6
99978.8
99976.9
99975.1
99973.3
99971.4
99969.6
99967.7
99965.8
99964
99962.1
99960.3
99958.4
99956.6
99954.7
99952.9
99951
99949.1
99947.3
99999.3
99997.9
99996.4
99994.8
99993.2
99991.6
99990
99988.3
99986.7
99985
99983.3
99981.5
99979.8
99978.1
99976.4
99974.6
99972.9
99971.2
99969.4
99967.7
99965.9
99964.2
99962.5
99960.8
99959
99957.3
99955.6
99953.9
99952.2
99950.5
99999.2
99997.9
99996.4
99995
99993.5
99992
99990.4
99988.8
99987.3
99985.7
99984.1
99982.5
99980.9
99979.2
99977.6
99976
99974.3
99972.7
99971.1
99969.5
99967.9
99966.2
99964.6
99963
99961.4
99959.9
99958.3
99956.7
99955.2
99953.7
99999.1
99997.8
99996.5
99995.1
99993.7
99992.3
99990.8
99989.4
99987.9
99986.4
99984.9
99983.4
99981.9
99980.3
99978.8
99977.3
99975.8
99974.2
99972.7
99971.2
99969.7
99968.2
99966.7
99965.2
99963.8
99962.3
99960.9
99959.5
99958.1
99956.7
99999.1
99997.9
99996.6
99995.3
99994
99992.6
99991.3
99989.9
99988.5
99987.1
99985.7
99984.2
99982.8
99981.4
99980
99978.6
99977.1
99975.7
99974.3
99972.9
99971.5
99970.1
99968.8
99967.4
99966.1
99964.7
99963.4
99962.1
99960.9
99959.7
99999
99997.9
99996.7
99995.5
99994.2
99993
99991.7
99990.4
99989.1
99987.8
99986.4
99985.1
99983.8
99982.5
99981.1
99979.8
99978.5
99977.2
99975.9
99974.6
99973.3
99972
99970.7
99969.5
99968.3
99967.1
99965.9
99964.7
99963.6
99962.5
99999
99997.9
99996.8
99995.7
99994.5
99993.3
99992.1
99990.9
99989.6
99988.4
99987.2
99985.9
99984.7
99983.5
99982.2
99981
99979.8
99978.6
99977.3
99976.1
99975
99973.8
99972.6
99971.5
99970.4
99969.3
99968.2
99967.2
99966.2
99965.2
99999
99998
99996.9
99995.8
99994.7
99993.6
99992.5
99991.4
99990.2
99989.1
99987.9
99986.8
99985.6
99984.5
99983.3
99982.2
99981
99979.9
99978.8
99977.7
99976.6
99975.5
99974.5
99973.4
99972.4
99971.4
99970.5
99969.6
99968.7
99967.8
99999
99998
99997
99996
99995
99994
99992.9
99991.8
99990.8
99989.7
99988.6
99987.6
99986.5
99985.4
99984.4
99983.3
99982.3
99981.2
99980.2
99979.2
99978.2
99977.2
99976.2
99975.3
99974.4
99973.5
99972.6
99971.8
99971
99970.3
99999
99998.1
99997.2
99996.2
99995.3
99994.3
99993.3
99992.3
99991.3
99990.3
99989.3
99988.3
99987.4
99986.4
99985.4
99984.4
99983.4
99982.5
99981.5
99980.6
99979.7
99978.8
99977.9
99977.1
99976.3
99975.5
99974.7
99974
99973.3
99972.6
99999
99998.1
99997.3
99996.4
99995.5
99994.6
99993.7
99992.8
99991.9
99990.9
99990
99989.1
99988.2
99987.3
99986.4
99985.5
99984.6
99983.7
99982.8
99982
99981.2
99980.3
99979.6
99978.8
99978
99977.3
99976.6
99976
99975.4
99974.8
99999
99998.2
99997.4
99996.6
99995.8
99994.9
99994.1
99993.2
99992.4
99991.5
99990.7
99989.8
99989
99988.2
99987.3
99986.5
99985.7
99984.9
99984.1
99983.3
99982.6
99981.8
99981.1
99980.4
99979.7
99979.1
99978.5
99977.9
99977.4
99976.9
99999
99998.3
99997.6
99996.8
99996
99995.3
99994.5
99993.7
99992.9
99992.1
99991.3
99990.6
99989.8
99989
99988.2
99987.5
99986.7
99986
99985.3
99984.6
99983.9
99983.2
99982.6
99982
99981.4
99980.8
99980.3
99979.8
99979.3
99978.9
99999
99998.4
99997.7
99997
99996.3
99995.6
99994.9
99994.1
99993.4
99992.7
99992
99991.3
99990.5
99989.8
99989.1
99988.4
99987.8
99987.1
99986.5
99985.8
99985.2
99984.6
99984
99983.5
99982.9
99982.4
99981.9
99981.5
99981.1
99980.8
99999.1
99998.5
99997.9
99997.2
99996.6
99995.9
99995.2
99994.6
99993.9
99993.3
99992.6
99991.9
99991.3
99990.6
99990
99989.4
99988.8
99988.2
99987.6
99987
99986.4
99985.9
99985.4
99984.9
99984.4
99983.9
99983.5
99983.1
99982.8
99982.5
99999.2
99998.6
99998
99997.4
99996.8
99996.2
99995.6
99995
99994.4
99993.8
99993.2
99992.6
99992
99991.4
99990.8
99990.3
99989.7
99989.2
99988.6
99988.1
99987.6
99987.1
99986.7
99986.2
99985.8
99985.4
99985
99984.7
99984.4
99984.1
99999.3
99998.7
99998.2
99997.6
99997.1
99996.5
99996
99995.4
99994.9
99994.3
99993.8
99993.2
99992.7
99992.2
99991.6
99991.1
99990.6
99990.1
99989.7
99989.2
99988.7
99988.3
99987.9
99987.5
99987.1
99986.8
99986.5
99986.2
99985.9
99985.7
99999.3
99998.8
99998.3
99997.8
99997.3
99996.8
99996.3
99995.8
99995.3
99994.8
99994.3
99993.9
99993.4
99992.9
99992.4
99992
99991.5
99991.1
99990.6
99990.2
99989.8
99989.5
99989.1
99988.7
99988.4
99988.1
99987.8
99987.6
99987.3
99987.2
99999.3
99998.9
99998.5
99998
99997.6
99997.1
99996.7
99996.2
99995.8
99995.3
99994.9
99994.5
99994
99993.6
99993.2
99992.8
99992.4
99992
99991.6
99991.2
99990.9
99990.5
99990.2
99989.9
99989.6
99989.3
99989.1
99988.9
99988.7
99988.5
99999.4
99999
99998.6
99998.2
99997.8
99997.4
99997
99996.6
99996.2
99995.8
99995.4
99995
99994.7
99994.3
99993.9
99993.5
99993.2
99992.8
99992.5
99992.2
99991.9
99991.6
99991.3
99991.1
99990.8
99990.6
99990.4
99990.2
99990
99989.9
99999.4
99999.1
99998.8
99998.4
99998.1
99997.7
99997.4
99997
99996.6
99996.3
99996
99995.6
99995.3
99994.9
99994.6
99994.3
99994
99993.7
99993.4
99993.1
99992.8
99992.6
99992.3
99992.1
99991.9
99991.7
99991.5
99991.3
99991.1
99991
99999.5
99999.2
99998.9
99998.6
99998.3
99998
99997.7
99997.4
99997.1
99996.8
99996.5
99996.2
99995.9
99995.6
99995.3
99995
99994.8
99994.5
99994.3
99994
99993.8
99993.6
99993.4
99993.2
99993.1
99992.9
99992.8
99992.6
99992.5
99992.4
99999.6
99999.3
99999.1
99998.8
99998.5
99998.3
99998
99997.7
99997.5
99997.2
99997
99996.7
99996.5
99996.2
99996
99995.7
99995.5
99995.3
99995.1
99994.9
99994.7
99994.5
99994.3
99994.1
99993.9
99993.8
99993.6
99993.5
99993.3
99993.2
99999.6
99999.4
99999.2
99999
99998.8
99998.5
99998.3
99998.1
99997.9
99997.7
99997.5
99997.2
99997
99996.8
99996.6
99996.4
99996.3
99996.1
99995.9
99995.8
99995.6
99995.5
99995.4
99995.3
99995.2
99995.1
99995.1
99995.1
99994.9
99994.8
99999.7
99999.5
99999.3
99999.2
99999
99998.8
99998.6
99998.5
99998.3
99998.1
99997.9
99997.8
99997.6
99997.4
99997.3
99997.1
99997
99996.8
99996.7
99996.5
99996.4
99996.2
99996.1
99996
99995.8
99995.7
99995.5
99995.4
99995.3
99995.2
99999.7
99999.6
99999.5
99999.4
99999.2
99999.1
99999
99998.8
99998.7
99998.5
99998.4
99998.3
99998.2
99998
99997.9
99997.8
99997.7
99997.6
99997.5
99997.4
99997.3
99997.3
99997.2
99997.2
99997.3
99997.3
99997.4
99997.6
99997.6
99997.5
99999.8
99999.7
99999.6
99999.5
99999.4
99999.3
99999.2
99999.2
99999.1
99999
99998.9
99998.8
99998.7
99998.6
99998.5
99998.4
99998.3
99998.2
99998.2
99998.1
99998
99997.9
99997.9
99997.8
99997.7
99997.5
99997.4
99997.3
99997.3
99997.2
99999.8
99999.8
99999.8
99999.7
99999.7
99999.6
99999.6
99999.5
99999.5
99999.4
99999.4
99999.3
99999.3
99999.2
99999.2
99999.1
99999.1
99999.1
99999
99999
99999
99999
99999.1
99999.1
99999.2
99999.3
99999.4
99999.6
100000
100001
100000
100000
99999.9
99999.9
99999.9
99999.8
99999.8
99999.8
99999.8
99999.7
99999.7
99999.7
99999.6
99999.6
99999.6
99999.5
99999.5
99999.4
99999.4
99999.3
99999.2
99999.2
99999.1
99999.1
99999.2
99999.4
99999.7
100000
100001
100002
98823.1
99005.5
99129.1
99214.1
99280.3
99333.7
99379.9
99420.5
99456.7
99489.5
99519.4
99547
99572.6
99596.5
99618.9
99640
99660
99679
99697.1
99714.6
99732
99749
99763.1
99782.5
99824.5
98892.4
99019.9
99135.8
99217.3
99282.4
99334.8
99380.7
99421
99457.1
99489.7
99519.6
99547.2
99572.8
99596.6
99619
99640.1
99660.1
99679.1
99697.2
99714.6
99732.1
99749
99763.1
99782.5
99824.3
98951.5
99047.2
99146.1
99221.9
99284.8
99336.4
99381.7
99421.6
99457.5
99490
99519.8
99547.3
99572.8
99596.7
99619
99640.1
99660.1
99679.1
99697.2
99714.6
99732.1
99749
99763.2
99782.4
99823.6
99000.2
99076.3
99159.9
99228.9
99288.4
99338.8
99383.2
99422.6
99458.2
99490.5
99520.1
99547.5
99573
99596.8
99619.1
99640.2
99660.1
99679.1
99697.2
99714.6
99732
99749
99763.2
99782.2
99822.6
99045.6
99106.2
99176
99238
99293.6
99342.1
99385.3
99424
99459.1
99491.2
99520.6
99547.9
99573.2
99597
99619.2
99640.2
99660.1
99679.1
99697.2
99714.6
99732
99748.9
99763.1
99782
99821.5
99087.2
99136.2
99194.1
99249.2
99300.4
99346.5
99388.2
99426
99460.5
99492.1
99521.3
99548.3
99573.6
99597.2
99619.4
99640.3
99660.2
99679.1
99697.2
99714.6
99731.9
99748.8
99763.1
99781.8
99820.3
99125.5
99165.5
99213.6
99262.1
99308.8
99352
99391.9
99428.6
99462.3
99493.4
99522.2
99549
99574
99597.5
99619.6
99640.5
99660.3
99679.2
99697.2
99714.6
99731.9
99748.7
99763
99781.5
99818.9
99161.1
99194
99234.2
99276.4
99318.6
99358.8
99396.6
99431.8
99464.6
99495
99523.3
99549.8
99574.6
99598
99619.9
99640.7
99660.4
99679.3
99697.2
99714.6
99731.8
99748.6
99762.9
99781.3
99817.4
99194.3
99221.7
99255.4
99292.1
99329.7
99366.7
99402.2
99435.8
99467.4
99497.1
99524.8
99550.9
99575.4
99598.5
99620.3
99641
99660.6
99679.4
99697.3
99714.6
99731.7
99748.5
99762.9
99781
99815.8
99225.6
99248.7
99277
99308.7
99342.1
99375.8
99408.8
99440.6
99470.9
99499.6
99526.7
99552.3
99576.4
99599.2
99620.8
99641.4
99660.9
99679.5
99697.4
99714.6
99731.7
99748.4
99762.8
99780.7
99814.1
99255.4
99274.9
99298.9
99326.2
99355.7
99386
99416.5
99446.3
99475.1
99502.7
99529
99554
99577.7
99600.1
99621.5
99641.8
99661.2
99679.8
99697.5
99714.6
99731.6
99748.3
99762.6
99780.4
99812.3
99284
99300.6
99320.9
99344.4
99370.2
99397.4
99425.1
99452.9
99480
99506.4
99531.7
99556
99579.2
99601.3
99622.3
99642.4
99661.6
99680
99697.7
99714.7
99731.6
99748.1
99762.5
99780.1
99810.3
99311.7
99325.7
99343
99363.1
99385.5
99409.7
99434.8
99460.3
99485.8
99510.8
99535
99558.5
99581
99602.7
99623.3
99643.2
99662.1
99680.4
99697.9
99714.8
99731.6
99748
99762.4
99779.7
99808.3
99338.5
99350.4
99365
99382.2
99401.6
99422.9
99445.5
99468.8
99492.3
99515.8
99538.9
99561.5
99583.3
99604.3
99624.6
99644.1
99662.8
99680.8
99698.2
99715
99731.6
99747.9
99762.2
99779.3
99806.3
99364.5
99374.6
99387
99401.6
99418.3
99436.9
99457
99478.1
99499.8
99521.6
99543.5
99564.9
99585.9
99606.4
99626.1
99645.2
99663.6
99681.4
99698.6
99715.2
99731.6
99747.7
99762
99778.8
99804.1
99389.9
99398.4
99408.8
99421.2
99435.5
99451.7
99469.4
99488.3
99508
99528.2
99548.6
99569
99589.1
99608.8
99627.9
99646.5
99664.6
99682.1
99699
99715.5
99731.7
99747.6
99761.8
99778.3
99802
99414.7
99421.7
99430.5
99440.9
99453.1
99467
99482.5
99499.3
99517.1
99535.6
99554.5
99573.7
99592.7
99611.6
99630.1
99648.2
99665.8
99682.9
99699.6
99715.8
99731.8
99747.5
99761.6
99777.8
99799.7
99438.8
99444.7
99451.9
99460.6
99471
99482.9
99496.3
99511.1
99527
99543.8
99561.2
99579
99596.9
99614.9
99632.6
99650.1
99667.2
99684
99700.3
99716.3
99732
99747.4
99761.3
99777.3
99797.5
99462.3
99467.1
99473.1
99480.3
99489
99499.1
99510.6
99523.5
99537.6
99552.7
99568.5
99585
99601.7
99618.7
99635.6
99652.4
99669
99685.2
99701.2
99716.8
99732.3
99747.3
99761.1
99776.7
99795.3
99485.2
99489.1
99493.9
99499.9
99507.1
99515.6
99525.4
99536.6
99548.9
99562.3
99576.6
99591.6
99607.2
99623
99639
99655.1
99671
99686.7
99702.2
99717.5
99732.6
99747.3
99760.9
99776.1
99793.2
99507.4
99510.5
99514.4
99519.3
99525.2
99532.3
99540.6
99550.1
99560.8
99572.6
99585.4
99599
99613.2
99627.9
99643
99658.1
99673.4
99688.5
99703.5
99718.4
99733.1
99747.3
99760.7
99775.4
99791.1
99529
99531.4
99534.5
99538.4
99543.3
99549.1
99556
99564.1
99573.2
99583.5
99594.8
99607
99619.9
99633.4
99647.4
99661.7
99676.1
99690.6
99705
99719.4
99733.7
99747.5
99760.6
99774.8
99789.1
99549.8
99551.7
99554.1
99557.3
99561.1
99565.9
99571.6
99578.3
99586.1
99594.9
99604.8
99615.6
99627.2
99639.5
99652.4
99665.7
99679.3
99693
99706.8
99720.6
99734.4
99747.7
99760.5
99774.2
99787.2
99570
99571.4
99573.3
99575.7
99578.8
99582.6
99587.2
99592.8
99599.3
99606.8
99615.3
99624.8
99635.1
99646.2
99657.9
99670.2
99682.9
99695.8
99708.9
99722.1
99735.3
99748.1
99760.5
99773.5
99785.5
99589.5
99590.5
99591.8
99593.7
99596.1
99599.1
99602.8
99607.4
99612.8
99619.1
99626.3
99634.5
99643.5
99653.4
99664
99675.2
99686.9
99699
99711.3
99723.8
99736.4
99748.7
99760.5
99773
99784
99608.2
99608.9
99609.8
99611.2
99613
99615.3
99618.3
99621.9
99626.3
99631.6
99637.7
99644.6
99652.5
99661.2
99670.6
99680.7
99691.5
99702.6
99714.1
99725.9
99737.8
99749.4
99760.7
99772.5
99782.7
99626.2
99626.6
99627.3
99628.2
99629.5
99631.3
99633.6
99636.4
99640
99644.2
99649.3
99655.2
99661.9
99669.4
99677.7
99686.8
99696.4
99706.7
99717.3
99728.2
99739.4
99750.4
99761.1
99772.1
99781.6
99643.4
99643.6
99644
99644.6
99645.6
99646.9
99648.6
99650.8
99653.6
99657
99661.1
99666
99671.6
99678.1
99685.3
99693.3
99701.9
99711.1
99720.8
99730.9
99741.3
99751.6
99761.7
99772
99780.7
99660
99660
99660.1
99660.5
99661.1
99662
99663.2
99664.9
99667
99669.7
99673
99677
99681.7
99687.1
99693.3
99700.2
99707.8
99716
99724.8
99734
99743.5
99753
99762.5
99771.9
99780.1
99675.8
99675.7
99675.7
99675.8
99676.1
99676.7
99677.5
99678.7
99680.3
99682.3
99684.9
99688.1
99691.9
99696.4
99701.6
99707.5
99714.1
99721.4
99729.2
99737.5
99746.1
99754.8
99763.6
99772.3
99779.9
99690.8
99690.6
99690.5
99690.5
99690.5
99690.9
99691.4
99692.2
99693.3
99694.8
99696.8
99699.2
99702.3
99705.9
99710.2
99715.2
99720.8
99727.1