/*--------------------------------*- C++ -*----------------------------------*\
  =========                 |
  \\      /  F ield         | OpenFOAM: The Open Source CFD Toolbox
   \\    /   O peration     | Website:  https://openfoam.org
    \\  /    A nd           | Version:  8
     \\/     M anipulation  |
\*---------------------------------------------------------------------------*/
FoamFile
{
    version     2.0;
    format      ascii;
    class       volScalarField;
    location    "12";
    object      p;
}
// * * * * * * * * * * * * * * * * * * * * * * * * * * * * * * * * * * * * * //

dimensions      [0 2 -2 0 0 0 0];

internalField   nonuniform List<scalar> 
277560
(
-0.581086
-0.581854
-0.58376
-0.586571
-0.590181
-0.594576
-0.599727
-0.605585
-0.612101
-0.619237
-0.626951
-0.635207
-0.643966
-0.653193
-0.662853
-0.672914
-0.683345
-0.694115
-0.705196
-0.71656
-0.72818
-0.740032
-0.752091
-0.764335
-0.776742
-0.789291
-0.801963
-0.814738
-0.8276
-0.840531
-0.853515
-0.866539
-0.879587
-0.892646
-0.905704
-0.918748
-0.931768
-0.944754
-0.957695
-0.970583
-0.983409
-0.996165
-1.00884
-1.02144
-1.03394
-1.04635
-1.05866
-1.07086
-1.08295
-1.09492
-1.10678
-1.11851
-1.13012
-1.1416
-1.15295
-1.16416
-1.17524
-1.18619
-1.197
-1.20767
-1.2182
-1.22859
-1.23884
-1.24895
-1.25892
-1.26874
-1.27843
-1.28797
-1.29737
-1.30663
-1.31576
-1.32474
-1.33359
-1.3423
-1.35087
-1.35931
-1.36761
-1.37578
-1.38382
-1.39173
-1.39951
-1.40716
-1.41469
-1.42209
-1.42936
-1.43652
-1.44355
-1.45047
-1.45726
-1.46394
-1.47051
-1.47696
-1.48331
-1.48954
-1.49567
-1.50168
-1.5076
-1.51341
-1.51911
-1.52472
-1.53023
-1.53564
-1.54096
-1.54618
-1.55131
-1.55635
-1.5613
-1.56616
-1.57093
-1.57562
-1.58022
-1.58474
-1.58918
-1.59355
-1.59783
-1.60203
-1.60616
-1.61022
-1.6142
-1.61811
-0.580666
-0.581411
-0.583301
-0.586106
-0.589713
-0.594105
-0.599253
-0.605108
-0.611623
-0.618757
-0.626471
-0.634725
-0.643484
-0.65271
-0.662371
-0.672432
-0.682864
-0.693635
-0.704718
-0.716083
-0.727706
-0.73956
-0.751622
-0.763869
-0.776279
-0.788831
-0.801506
-0.814286
-0.827151
-0.840087
-0.853076
-0.866104
-0.879157
-0.892222
-0.905285
-0.918335
-0.931361
-0.944353
-0.9573
-0.970195
-0.983027
-0.99579
-1.00848
-1.02108
-1.03359
-1.046
-1.05832
-1.07053
-1.08262
-1.0946
-1.10647
-1.11821
-1.12982
-1.14131
-1.15267
-1.16389
-1.17498
-1.18593
-1.19675
-1.20743
-1.21797
-1.22836
-1.23862
-1.24874
-1.25871
-1.26855
-1.27824
-1.28779
-1.2972
-1.30647
-1.3156
-1.32459
-1.33345
-1.34216
-1.35074
-1.35919
-1.3675
-1.37568
-1.38372
-1.39164
-1.39943
-1.40708
-1.41462
-1.42202
-1.42931
-1.43647
-1.44351
-1.45043
-1.45723
-1.46392
-1.4705
-1.47696
-1.48331
-1.48955
-1.49568
-1.5017
-1.50762
-1.51344
-1.51915
-1.52476
-1.53028
-1.5357
-1.54102
-1.54625
-1.55138
-1.55642
-1.56138
-1.56624
-1.57102
-1.57571
-1.58032
-1.58485
-1.58929
-1.59366
-1.59795
-1.60216
-1.60629
-1.61035
-1.61434
-1.61825
-0.579877
-0.580624
-0.582513
-0.585317
-0.588921
-0.59331
-0.598455
-0.604308
-0.610822
-0.617955
-0.625668
-0.633923
-0.642682
-0.65191
-0.661572
-0.671637
-0.682071
-0.692846
-0.703933
-0.715303
-0.72693
-0.73879
-0.750858
-0.763112
-0.775529
-0.788088
-0.800771
-0.813559
-0.826433
-0.839377
-0.852376
-0.865413
-0.878476
-0.891551
-0.904625
-0.917686
-0.930723
-0.943725
-0.956684
-0.96959
-0.982434
-0.995208
-1.00791
-1.02052
-1.03304
-1.04547
-1.0578
-1.07002
-1.08213
-1.09412
-1.106
-1.11775
-1.12938
-1.14088
-1.15225
-1.16348
-1.17459
-1.18555
-1.19638
-1.20707
-1.21762
-1.22803
-1.2383
-1.24843
-1.25842
-1.26827
-1.27797
-1.28753
-1.29696
-1.30624
-1.31538
-1.32438
-1.33325
-1.34198
-1.35057
-1.35903
-1.36735
-1.37554
-1.38359
-1.39152
-1.39932
-1.40699
-1.41453
-1.42195
-1.42924
-1.43641
-1.44346
-1.45039
-1.45721
-1.4639
-1.47049
-1.47695
-1.48331
-1.48956
-1.4957
-1.50173
-1.50766
-1.51349
-1.51921
-1.52483
-1.53035
-1.53578
-1.54111
-1.54634
-1.55148
-1.55653
-1.56149
-1.56637
-1.57115
-1.57585
-1.58047
-1.585
-1.58945
-1.59383
-1.59812
-1.60234
-1.60648
-1.61055
-1.61454
-1.61846
-0.57871
-0.579448
-0.581327
-0.584121
-0.587717
-0.592099
-0.597239
-0.603087
-0.609597
-0.616728
-0.624439
-0.632693
-0.641452
-0.650681
-0.660345
-0.670412
-0.68085
-0.691629
-0.702721
-0.714097
-0.725731
-0.737598
-0.749674
-0.761936
-0.774362
-0.786932
-0.799625
-0.812424
-0.82531
-0.838266
-0.851278
-0.864329
-0.877406
-0.890495
-0.903583
-0.91666
-0.929712
-0.942731
-0.955706
-0.968629
-0.98149
-0.994282
-1.007
-1.01963
-1.03217
-1.04462
-1.05696
-1.0692
-1.08133
-1.09334
-1.10524
-1.11701
-1.12866
-1.14018
-1.15156
-1.16282
-1.17394
-1.18493
-1.19578
-1.20649
-1.21706
-1.22749
-1.23778
-1.24792
-1.25793
-1.2678
-1.27752
-1.2871
-1.29654
-1.30584
-1.31501
-1.32403
-1.33291
-1.34166
-1.35027
-1.35874
-1.36708
-1.37529
-1.38336
-1.39131
-1.39912
-1.40681
-1.41437
-1.4218
-1.42911
-1.4363
-1.44337
-1.45031
-1.45714
-1.46386
-1.47045
-1.47694
-1.48331
-1.48958
-1.49573
-1.50178
-1.50772
-1.51356
-1.51929
-1.52493
-1.53047
-1.53591
-1.54125
-1.5465
-1.55165
-1.55671
-1.56169
-1.56657
-1.57137
-1.57608
-1.58071
-1.58526
-1.58972
-1.5941
-1.59841
-1.60263
-1.60679
-1.61086
-1.61487
-1.6188
-0.57717
-0.577894
-0.579761
-0.582545
-0.586132
-0.590506
-0.595639
-0.601483
-0.607989
-0.615116
-0.622826
-0.631079
-0.639839
-0.64907
-0.658737
-0.668808
-0.679251
-0.690036
-0.701134
-0.712518
-0.724162
-0.736039
-0.748126
-0.7604
-0.772839
-0.785422
-0.79813
-0.810944
-0.823846
-0.83682
-0.849849
-0.862918
-0.876014
-0.889123
-0.902231
-0.915328
-0.928402
-0.941442
-0.95444
-0.967385
-0.980269
-0.993084
-1.00582
-1.01848
-1.03105
-1.04352
-1.05589
-1.06815
-1.0803
-1.09234
-1.10426
-1.11606
-1.12773
-1.13928
-1.15069
-1.16197
-1.17312
-1.18413
-1.19501
-1.20574
-1.21634
-1.2268
-1.23711
-1.24728
-1.25731
-1.2672
-1.27695
-1.28656
-1.29603
-1.30535
-1.31454
-1.32358
-1.33249
-1.34126
-1.3499
-1.35839
-1.36676
-1.37499
-1.38308
-1.39105
-1.39889
-1.40659
-1.41417
-1.42163
-1.42896
-1.43617
-1.44326
-1.45022
-1.45707
-1.46381
-1.47042
-1.47693
-1.48332
-1.4896
-1.49577
-1.50184
-1.5078
-1.51366
-1.51941
-1.52506
-1.53062
-1.53607
-1.54143
-1.5467
-1.55187
-1.55695
-1.56193
-1.56684
-1.57165
-1.57637
-1.58102
-1.58558
-1.59005
-1.59445
-1.59877
-1.60301
-1.60718
-1.61127
-1.61528
-1.61923
-0.575263
-0.575971
-0.577823
-0.580594
-0.58417
-0.588534
-0.593659
-0.599496
-0.605996
-0.61312
-0.620827
-0.629079
-0.63784
-0.647072
-0.656742
-0.666818
-0.677267
-0.688059
-0.699166
-0.71056
-0.722214
-0.734104
-0.746204
-0.758492
-0.770947
-0.783547
-0.796273
-0.809105
-0.822027
-0.835021
-0.848072
-0.861163
-0.874282
-0.887414
-0.900548
-0.91367
-0.926769
-0.939836
-0.952861
-0.965833
-0.978745
-0.991589
-1.00436
-1.01704
-1.02964
-1.04214
-1.05454
-1.06683
-1.07902
-1.09109
-1.10304
-1.11487
-1.12657
-1.13815
-1.1496
-1.16091
-1.17209
-1.18313
-1.19404
-1.20481
-1.21543
-1.22592
-1.23627
-1.24647
-1.25653
-1.26646
-1.27623
-1.28587
-1.29537
-1.30473
-1.31394
-1.32302
-1.33195
-1.34075
-1.34942
-1.35794
-1.36634
-1.37459
-1.38272
-1.39071
-1.39858
-1.40631
-1.41392
-1.4214
-1.42876
-1.436
-1.44311
-1.4501
-1.45698
-1.46373
-1.47038
-1.47691
-1.48332
-1.48963
-1.49582
-1.50191
-1.5079
-1.51378
-1.51955
-1.52523
-1.5308
-1.53628
-1.54166
-1.54694
-1.55214
-1.55723
-1.56224
-1.56716
-1.572
-1.57674
-1.5814
-1.58598
-1.59048
-1.59489
-1.59923
-1.60349
-1.60767
-1.61178
-1.61581
-1.61977
-0.572998
-0.573686
-0.575522
-0.578277
-0.581839
-0.586191
-0.591306
-0.597134
-0.603629
-0.610748
-0.618452
-0.626704
-0.635464
-0.644699
-0.654373
-0.664454
-0.67491
-0.685711
-0.696828
-0.708234
-0.719901
-0.731805
-0.743921
-0.756227
-0.7687
-0.78132
-0.794067
-0.806922
-0.819867
-0.832885
-0.845961
-0.859079
-0.872226
-0.885386
-0.898549
-0.911701
-0.924832
-0.93793
-0.950987
-0.963992
-0.976938
-0.989816
-1.00262
-1.01534
-1.02797
-1.04051
-1.05294
-1.06527
-1.0775
-1.0896
-1.10159
-1.11346
-1.1252
-1.13681
-1.1483
-1.15965
-1.17087
-1.18195
-1.19289
-1.2037
-1.21436
-1.22489
-1.23527
-1.24551
-1.25561
-1.26557
-1.27539
-1.28506
-1.2946
-1.30399
-1.31324
-1.32235
-1.33132
-1.34016
-1.34886
-1.35742
-1.36584
-1.37414
-1.38229
-1.39032
-1.39822
-1.40599
-1.41363
-1.42114
-1.42853
-1.4358
-1.44294
-1.44996
-1.45687
-1.46365
-1.47033
-1.47688
-1.48333
-1.48966
-1.49589
-1.502
-1.50801
-1.51392
-1.51972
-1.52542
-1.53102
-1.53652
-1.54193
-1.54724
-1.55245
-1.55758
-1.56261
-1.56755
-1.57241
-1.57717
-1.58186
-1.58646
-1.59097
-1.59541
-1.59977
-1.60405
-1.60825
-1.61238
-1.61643
-1.62041
-0.570382
-0.571046
-0.572862
-0.575599
-0.579145
-0.583484
-0.588588
-0.594407
-0.600893
-0.608007
-0.615708
-0.623958
-0.63272
-0.641957
-0.651635
-0.661722
-0.672187
-0.682997
-0.694126
-0.705545
-0.717227
-0.729148
-0.741282
-0.753608
-0.766102
-0.778745
-0.791516
-0.804396
-0.817368
-0.830415
-0.84352
-0.856669
-0.869847
-0.88304
-0.896236
-0.909423
-0.922589
-0.935724
-0.948818
-0.961861
-0.974845
-0.987763
-1.0006
-1.01337
-1.02604
-1.03862
-1.05109
-1.06347
-1.07573
-1.08788
-1.09991
-1.11182
-1.12361
-1.13527
-1.14679
-1.15819
-1.16945
-1.18057
-1.19156
-1.20241
-1.21312
-1.22369
-1.23412
-1.2444
-1.25454
-1.26454
-1.2744
-1.28412
-1.29369
-1.30313
-1.31242
-1.32157
-1.33059
-1.33946
-1.3482
-1.3568
-1.36527
-1.3736
-1.3818
-1.38986
-1.3978
-1.4056
-1.41328
-1.42083
-1.42826
-1.43556
-1.44274
-1.4498
-1.45673
-1.46356
-1.47026
-1.47685
-1.48333
-1.4897
-1.49595
-1.5021
-1.50814
-1.51408
-1.51991
-1.52564
-1.53127
-1.5368
-1.54224
-1.54758
-1.55282
-1.55797
-1.56303
-1.568
-1.57288
-1.57768
-1.58238
-1.58701
-1.59155
-1.59601
-1.60039
-1.6047
-1.60892
-1.61307
-1.61715
-1.62115
-0.567421
-0.568059
-0.569853
-0.572569
-0.576097
-0.58042
-0.585511
-0.591319
-0.597797
-0.604905
-0.612602
-0.62085
-0.629612
-0.638852
-0.648536
-0.65863
-0.669103
-0.679925
-0.691067
-0.7025
-0.7142
-0.726139
-0.738294
-0.750641
-0.76316
-0.775828
-0.788626
-0.801536
-0.814538
-0.827616
-0.840755
-0.853938
-0.867152
-0.880382
-0.893616
-0.906842
-0.920049
-0.933225
-0.94636
-0.959447
-0.972475
-0.985436
-0.998324
-1.01113
-1.02385
-1.03647
-1.049
-1.06142
-1.07373
-1.08593
-1.09801
-1.10997
-1.1218
-1.13351
-1.14509
-1.15653
-1.16784
-1.17902
-1.19006
-1.20095
-1.21171
-1.22233
-1.2328
-1.24314
-1.25333
-1.26338
-1.27329
-1.28305
-1.29267
-1.30216
-1.3115
-1.3207
-1.32976
-1.33868
-1.34746
-1.35611
-1.36462
-1.37299
-1.38123
-1.38934
-1.39732
-1.40517
-1.41289
-1.42048
-1.42795
-1.43529
-1.44251
-1.44961
-1.45659
-1.46345
-1.47019
-1.47682
-1.48333
-1.48974
-1.49603
-1.50221
-1.50829
-1.51426
-1.52013
-1.52589
-1.53156
-1.53712
-1.54259
-1.54796
-1.55323
-1.55842
-1.56351
-1.56851
-1.57342
-1.57824
-1.58298
-1.58763
-1.5922
-1.59669
-1.6011
-1.60543
-1.60968
-1.61386
-1.61796
-1.62198
-0.564122
-0.564731
-0.566499
-0.569193
-0.572701
-0.577007
-0.582082
-0.587878
-0.594347
-0.601448
-0.609141
-0.617387
-0.626149
-0.635392
-0.645081
-0.655182
-0.665666
-0.6765
-0.687656
-0.699106
-0.710824
-0.722784
-0.734962
-0.747334
-0.759879
-0.772576
-0.785404
-0.798345
-0.811381
-0.824495
-0.83767
-0.850892
-0.864145
-0.877416
-0.890693
-0.903962
-0.917214
-0.930435
-0.943618
-0.956752
-0.969828
-0.982839
-0.995777
-1.00863
-1.0214
-1.03408
-1.04666
-1.05913
-1.0715
-1.08375
-1.09589
-1.1079
-1.11979
-1.13155
-1.14318
-1.15468
-1.16605
-1.17728
-1.18837
-1.19932
-1.21014
-1.22081
-1.23134
-1.24173
-1.25197
-1.26208
-1.27204
-1.28186
-1.29153
-1.30107
-1.31046
-1.31971
-1.32882
-1.33779
-1.34663
-1.35532
-1.36389
-1.37231
-1.3806
-1.38876
-1.39678
-1.40468
-1.41245
-1.42008
-1.4276
-1.43499
-1.44225
-1.44939
-1.45642
-1.46332
-1.47011
-1.47678
-1.48333
-1.48978
-1.49611
-1.50234
-1.50845
-1.51446
-1.52037
-1.52617
-1.53187
-1.53747
-1.54298
-1.54838
-1.55369
-1.55891
-1.56404
-1.56907
-1.57401
-1.57887
-1.58364
-1.58833
-1.59293
-1.59745
-1.60189
-1.60625
-1.61053
-1.61473
-1.61886
-1.62291
-0.560491
-0.561068
-0.562809
-0.565478
-0.568963
-0.57325
-0.578309
-0.584092
-0.59055
-0.597643
-0.60533
-0.613574
-0.622337
-0.631583
-0.641277
-0.651387
-0.661881
-0.672728
-0.6839
-0.695369
-0.707107
-0.719089
-0.731292
-0.743691
-0.756265
-0.768993
-0.781855
-0.794831
-0.807904
-0.821056
-0.834272
-0.847535
-0.860832
-0.874148
-0.887471
-0.900789
-0.914089
-0.927361
-0.940595
-0.953781
-0.966911
-0.979976
-0.992969
-1.00588
-1.01871
-1.03144
-1.04408
-1.05661
-1.06904
-1.08135
-1.09354
-1.10562
-1.11756
-1.12939
-1.14108
-1.15264
-1.16407
-1.17536
-1.18651
-1.19753
-1.2084
-1.21913
-1.22972
-1.24017
-1.25048
-1.26064
-1.27066
-1.28054
-1.29027
-1.29986
-1.30931
-1.31862
-1.32779
-1.33682
-1.34571
-1.35446
-1.36308
-1.37156
-1.3799
-1.38811
-1.39619
-1.40414
-1.41196
-1.41965
-1.42721
-1.43465
-1.44196
-1.44916
-1.45623
-1.46318
-1.47001
-1.47673
-1.48333
-1.48982
-1.4962
-1.50247
-1.50863
-1.51468
-1.52063
-1.52648
-1.53222
-1.53786
-1.5434
-1.54885
-1.5542
-1.55945
-1.56462
-1.56969
-1.57467
-1.57956
-1.58437
-1.58909
-1.59373
-1.59828
-1.60275
-1.60714
-1.61146
-1.61569
-1.61985
-1.62394
-0.556536
-0.557078
-0.558788
-0.561429
-0.56489
-0.569156
-0.574197
-0.579965
-0.586412
-0.593496
-0.601178
-0.609419
-0.618182
-0.627431
-0.637131
-0.64725
-0.657755
-0.668617
-0.679806
-0.691293
-0.703054
-0.715061
-0.72729
-0.739718
-0.752324
-0.765085
-0.777983
-0.790997
-0.80411
-0.817304
-0.830564
-0.843873
-0.857217
-0.870582
-0.883956
-0.897325
-0.910678
-0.924005
-0.937295
-0.950538
-0.963726
-0.976851
-0.989903
-1.00288
-1.01577
-1.02856
-1.04126
-1.05386
-1.06635
-1.07872
-1.09098
-1.10312
-1.11514
-1.12702
-1.13878
-1.15041
-1.1619
-1.17326
-1.18448
-1.19556
-1.2065
-1.2173
-1.22795
-1.23847
-1.24884
-1.25907
-1.26915
-1.27909
-1.28889
-1.29855
-1.30806
-1.31743
-1.32666
-1.33575
-1.3447
-1.35352
-1.36219
-1.37073
-1.37913
-1.3874
-1.39554
-1.40355
-1.41142
-1.41917
-1.42679
-1.43428
-1.44165
-1.44889
-1.45602
-1.46302
-1.46991
-1.47667
-1.48333
-1.48987
-1.49629
-1.50261
-1.50882
-1.51492
-1.52091
-1.52681
-1.53259
-1.53828
-1.54387
-1.54936
-1.55475
-1.56005
-1.56525
-1.57036
-1.57538
-1.58032
-1.58516
-1.58992
-1.59459
-1.59918
-1.60369
-1.60812
-1.61247
-1.61674
-1.62094
-1.62506
-0.552261
-0.552765
-0.554442
-0.557054
-0.560489
-0.564731
-0.569754
-0.575505
-0.581939
-0.589014
-0.596689
-0.604928
-0.613691
-0.622943
-0.632649
-0.642777
-0.653294
-0.664171
-0.675378
-0.686886
-0.69867
-0.710703
-0.722961
-0.735421
-0.74806
-0.760858
-0.773794
-0.786849
-0.800005
-0.813244
-0.826551
-0.839909
-0.853304
-0.866722
-0.880149
-0.893575
-0.906986
-0.920371
-0.933721
-0.947026
-0.960277
-0.973465
-0.986583
-0.999623
-1.01258
-1.02544
-1.03821
-1.05087
-1.06343
-1.07588
-1.08821
-1.10042
-1.1125
-1.12446
-1.13629
-1.14799
-1.15956
-1.17098
-1.18227
-1.19343
-1.20444
-1.21531
-1.22603
-1.23662
-1.24706
-1.25736
-1.26751
-1.27752
-1.28739
-1.29712
-1.3067
-1.31614
-1.32544
-1.33459
-1.34361
-1.35249
-1.36123
-1.36983
-1.3783
-1.38663
-1.39483
-1.4029
-1.41084
-1.41864
-1.42632
-1.43387
-1.4413
-1.4486
-1.45579
-1.46285
-1.46979
-1.47661
-1.48332
-1.48991
-1.49639
-1.50276
-1.50902
-1.51517
-1.52122
-1.52716
-1.533
-1.53873
-1.54436
-1.5499
-1.55534
-1.56068
-1.56593
-1.57109
-1.57615
-1.58113
-1.58601
-1.59082
-1.59553
-1.60016
-1.60471
-1.60918
-1.61357
-1.61788
-1.62211
-1.62626
-0.547673
-0.548137
-0.549779
-0.552359
-0.555765
-0.559982
-0.564984
-0.570718
-0.577138
-0.584202
-0.591871
-0.600105
-0.608868
-0.618123
-0.627836
-0.637973
-0.648504
-0.659396
-0.670622
-0.682152
-0.693961
-0.706022
-0.71831
-0.730804
-0.743479
-0.756315
-0.769292
-0.782391
-0.795593
-0.80888
-0.822237
-0.835648
-0.849097
-0.862571
-0.876057
-0.889542
-0.903014
-0.916463
-0.929878
-0.943249
-0.956566
-0.969823
-0.98301
-0.99612
-1.00915
-1.02208
-1.03492
-1.04766
-1.06029
-1.07281
-1.08522
-1.0975
-1.10967
-1.1217
-1.13361
-1.14539
-1.15703
-1.16853
-1.1799
-1.19113
-1.20222
-1.21316
-1.22397
-1.23463
-1.24515
-1.25552
-1.26575
-1.27583
-1.28578
-1.29557
-1.30523
-1.31474
-1.32411
-1.33334
-1.34243
-1.35138
-1.36019
-1.36886
-1.3774
-1.3858
-1.39407
-1.4022
-1.4102
-1.41807
-1.42582
-1.43343
-1.44092
-1.44829
-1.45553
-1.46265
-1.46966
-1.47654
-1.48331
-1.48996
-1.49649
-1.50292
-1.50924
-1.51544
-1.52154
-1.52753
-1.53342
-1.53921
-1.5449
-1.55048
-1.55597
-1.56136
-1.56666
-1.57186
-1.57698
-1.582
-1.58693
-1.59178
-1.59654
-1.60121
-1.6058
-1.61031
-1.61474
-1.61909
-1.62337
-1.62756
-0.542779
-0.543199
-0.544803
-0.547348
-0.550724
-0.554915
-0.559894
-0.565609
-0.572014
-0.579067
-0.586728
-0.594958
-0.60372
-0.612978
-0.622698
-0.632845
-0.643389
-0.654298
-0.665543
-0.677097
-0.688932
-0.701022
-0.713343
-0.725871
-0.738585
-0.751462
-0.764482
-0.777627
-0.790878
-0.804216
-0.817627
-0.831093
-0.8446
-0.858134
-0.871681
-0.88523
-0.898768
-0.912284
-0.925767
-0.939208
-0.952597
-0.965927
-0.979188
-0.992373
-1.00548
-1.01849
-1.03141
-1.04422
-1.05694
-1.06954
-1.08202
-1.09439
-1.10663
-1.11875
-1.13074
-1.1426
-1.15432
-1.16591
-1.17736
-1.18867
-1.19984
-1.21086
-1.22175
-1.23249
-1.24309
-1.25355
-1.26386
-1.27402
-1.28404
-1.29392
-1.30365
-1.31324
-1.32269
-1.332
-1.34116
-1.35019
-1.35907
-1.36782
-1.37643
-1.3849
-1.39324
-1.40145
-1.40952
-1.41746
-1.42527
-1.43296
-1.44052
-1.44795
-1.45526
-1.46244
-1.46951
-1.47646
-1.48329
-1.49
-1.4966
-1.50308
-1.50946
-1.51572
-1.52188
-1.52793
-1.53388
-1.53972
-1.54546
-1.5511
-1.55664
-1.56209
-1.56744
-1.57269
-1.57785
-1.58293
-1.58791
-1.5928
-1.59761
-1.60233
-1.60697
-1.61152
-1.616
-1.62039
-1.62471
-1.62894
-0.537583
-0.537957
-0.53952
-0.542029
-0.545372
-0.549535
-0.554489
-0.560185
-0.566573
-0.573613
-0.581266
-0.589492
-0.598253
-0.607514
-0.61724
-0.627397
-0.637955
-0.648881
-0.660147
-0.671725
-0.683587
-0.695708
-0.708063
-0.720629
-0.733382
-0.746302
-0.759369
-0.772562
-0.785864
-0.799257
-0.812723
-0.826248
-0.839816
-0.853413
-0.867026
-0.880642
-0.89425
-0.907836
-0.921392
-0.934908
-0.948373
-0.961779
-0.975118
-0.988383
-1.00157
-1.01466
-1.02766
-1.04056
-1.05336
-1.06604
-1.07861
-1.09107
-1.1034
-1.1156
-1.12768
-1.13962
-1.15143
-1.16311
-1.17464
-1.18604
-1.1973
-1.20841
-1.21939
-1.23022
-1.2409
-1.25144
-1.26184
-1.27209
-1.28219
-1.29215
-1.30197
-1.31164
-1.32117
-1.33056
-1.33981
-1.34891
-1.35788
-1.3667
-1.37539
-1.38394
-1.39236
-1.40064
-1.40879
-1.4168
-1.42469
-1.43245
-1.44008
-1.44758
-1.45496
-1.46222
-1.46935
-1.47636
-1.48326
-1.49004
-1.4967
-1.50325
-1.50969
-1.51602
-1.52224
-1.52835
-1.53436
-1.54026
-1.54606
-1.55176
-1.55735
-1.56286
-1.56826
-1.57357
-1.57878
-1.58391
-1.58894
-1.59389
-1.59874
-1.60351
-1.6082
-1.6128
-1.61733
-1.62177
-1.62613
-1.63041
-0.532091
-0.532416
-0.533937
-0.536407
-0.539715
-0.543848
-0.548776
-0.55445
-0.560821
-0.567848
-0.575491
-0.583712
-0.592472
-0.601735
-0.611468
-0.621636
-0.632207
-0.643151
-0.654439
-0.666042
-0.677933
-0.690086
-0.702476
-0.71508
-0.727876
-0.740841
-0.753955
-0.7672
-0.780555
-0.794005
-0.80753
-0.821117
-0.834749
-0.848413
-0.862095
-0.875782
-0.889462
-0.903124
-0.916756
-0.93035
-0.943895
-0.957382
-0.970805
-0.984153
-0.997422
-1.0106
-1.02369
-1.03668
-1.04956
-1.06234
-1.075
-1.08754
-1.09996
-1.11226
-1.12443
-1.13646
-1.14837
-1.16013
-1.17176
-1.18325
-1.1946
-1.20581
-1.21688
-1.2278
-1.23857
-1.2492
-1.25969
-1.27003
-1.28023
-1.29028
-1.30018
-1.30994
-1.31956
-1.32903
-1.33837
-1.34756
-1.35661
-1.36552
-1.37429
-1.38292
-1.39142
-1.39978
-1.40801
-1.4161
-1.42407
-1.4319
-1.43961
-1.44718
-1.45464
-1.46197
-1.46917
-1.47626
-1.48323
-1.49008
-1.49681
-1.50343
-1.50993
-1.51633
-1.52261
-1.52879
-1.53486
-1.54082
-1.54669
-1.55244
-1.5581
-1.56366
-1.56913
-1.57449
-1.57977
-1.58495
-1.59003
-1.59503
-1.59994
-1.60477
-1.60951
-1.61416
-1.61873
-1.62322
-1.62763
-1.63196
-0.526309
-0.526582
-0.528058
-0.530487
-0.533758
-0.537859
-0.54276
-0.548411
-0.554763
-0.561776
-0.569409
-0.577623
-0.586382
-0.595648
-0.605386
-0.615565
-0.626151
-0.637113
-0.648423
-0.660052
-0.671972
-0.684159
-0.696586
-0.70923
-0.722069
-0.735081
-0.748246
-0.761544
-0.774956
-0.788464
-0.802052
-0.815703
-0.829403
-0.843136
-0.85689
-0.870651
-0.884408
-0.898148
-0.911861
-0.925537
-0.939166
-0.952739
-0.966248
-0.979685
-0.993043
-1.00632
-1.01949
-1.03258
-1.04555
-1.05842
-1.07118
-1.08382
-1.09634
-1.10873
-1.12099
-1.13313
-1.14513
-1.15699
-1.16872
-1.1803
-1.19175
-1.20306
-1.21422
-1.22523
-1.23611
-1.24683
-1.25741
-1.26785
-1.27814
-1.28828
-1.29828
-1.30814
-1.31785
-1.32741
-1.33684
-1.34612
-1.35525
-1.36425
-1.37311
-1.38183
-1.39041
-1.39886
-1.40717
-1.41535
-1.4234
-1.43131
-1.4391
-1.44676
-1.45429
-1.4617
-1.46898
-1.47615
-1.48319
-1.49011
-1.49692
-1.50361
-1.51018
-1.51665
-1.523
-1.52925
-1.53538
-1.54142
-1.54734
-1.55317
-1.55889
-1.56451
-1.57004
-1.57546
-1.5808
-1.58604
-1.59118
-1.59624
-1.60121
-1.60609
-1.61088
-1.61559
-1.62021
-1.62476
-1.62922
-1.63359
-0.520241
-0.520461
-0.521889
-0.524275
-0.527507
-0.531574
-0.536446
-0.542072
-0.548405
-0.555402
-0.563024
-0.571232
-0.579988
-0.589256
-0.599001
-0.609189
-0.61979
-0.630771
-0.642104
-0.653759
-0.66571
-0.677931
-0.690396
-0.703083
-0.715967
-0.729028
-0.742245
-0.755598
-0.769068
-0.782638
-0.796291
-0.81001
-0.823779
-0.837586
-0.851415
-0.865253
-0.87909
-0.892912
-0.906709
-0.920471
-0.934188
-0.94785
-0.96145
-0.97498
-0.988432
-1.0018
-1.01507
-1.02825
-1.04133
-1.0543
-1.06715
-1.07989
-1.09251
-1.105
-1.11737
-1.12961
-1.14171
-1.15367
-1.1655
-1.17719
-1.18874
-1.20015
-1.21141
-1.22253
-1.2335
-1.24433
-1.25501
-1.26555
-1.27594
-1.28618
-1.29628
-1.30623
-1.31604
-1.3257
-1.33522
-1.34459
-1.35382
-1.36292
-1.37187
-1.38068
-1.38935
-1.39789
-1.40629
-1.41456
-1.42269
-1.43069
-1.43856
-1.4463
-1.45392
-1.46141
-1.46877
-1.47602
-1.48314
-1.49014
-1.49702
-1.50379
-1.51044
-1.51698
-1.5234
-1.52972
-1.53593
-1.54203
-1.54803
-1.55392
-1.55971
-1.5654
-1.57099
-1.57648
-1.58188
-1.58718
-1.59239
-1.5975
-1.60253
-1.60747
-1.61232
-1.61708
-1.62176
-1.62636
-1.63088
-1.63531
-0.513894
-0.514057
-0.515435
-0.517776
-0.520967
-0.524999
-0.52984
-0.53544
-0.541751
-0.548731
-0.556341
-0.564542
-0.573295
-0.582564
-0.592316
-0.602515
-0.61313
-0.62413
-0.635486
-0.647169
-0.659151
-0.671407
-0.683912
-0.696641
-0.709573
-0.722684
-0.735955
-0.749366
-0.762897
-0.776531
-0.79025
-0.804039
-0.817882
-0.831764
-0.845671
-0.859591
-0.87351
-0.887418
-0.901303
-0.915154
-0.928963
-0.942719
-0.956414
-0.97004
-0.98359
-0.997056
-1.01043
-1.02371
-1.03689
-1.04996
-1.06292
-1.07577
-1.08849
-1.10109
-1.11356
-1.1259
-1.13811
-1.15019
-1.16212
-1.17392
-1.18558
-1.19709
-1.20846
-1.21968
-1.23076
-1.2417
-1.25249
-1.26313
-1.27362
-1.28397
-1.29417
-1.30422
-1.31413
-1.32389
-1.33351
-1.34298
-1.35232
-1.3615
-1.37055
-1.37946
-1.38823
-1.39686
-1.40535
-1.41371
-1.42194
-1.43003
-1.43799
-1.44582
-1.45352
-1.4611
-1.46855
-1.47587
-1.48308
-1.49016
-1.49712
-1.50397
-1.5107
-1.51732
-1.52382
-1.53021
-1.53649
-1.54267
-1.54874
-1.5547
-1.56056
-1.56632
-1.57198
-1.57754
-1.583
-1.58837
-1.59364
-1.59882
-1.60391
-1.60891
-1.61382
-1.61865
-1.62339
-1.62804
-1.63262
-1.6371
-0.507272
-0.507376
-0.508701
-0.510994
-0.514144
-0.518137
-0.522946
-0.528519
-0.534807
-0.541769
-0.549366
-0.557559
-0.566308
-0.575579
-0.585336
-0.595545
-0.606175
-0.617195
-0.628574
-0.640285
-0.652299
-0.664592
-0.677137
-0.68991
-0.70289
-0.716053
-0.72938
-0.74285
-0.756444
-0.770144
-0.783933
-0.797795
-0.811713
-0.825673
-0.839662
-0.853665
-0.867672
-0.881668
-0.895644
-0.909589
-0.923492
-0.937345
-0.951139
-0.964866
-0.978518
-0.992088
-1.00557
-1.01895
-1.03224
-1.04542
-1.05849
-1.07144
-1.08428
-1.09699
-1.10957
-1.12202
-1.13434
-1.14653
-1.15858
-1.17049
-1.18225
-1.19388
-1.20536
-1.2167
-1.22789
-1.23893
-1.24983
-1.26058
-1.27118
-1.28164
-1.29195
-1.30211
-1.31212
-1.32199
-1.33171
-1.34129
-1.35073
-1.36002
-1.36917
-1.37817
-1.38704
-1.39577
-1.40436
-1.41282
-1.42114
-1.42932
-1.43738
-1.4453
-1.45309
-1.46076
-1.4683
-1.47571
-1.483
-1.49017
-1.49722
-1.50415
-1.51096
-1.51766
-1.52425
-1.53072
-1.53708
-1.54333
-1.54947
-1.55551
-1.56145
-1.56728
-1.57301
-1.57864
-1.58417
-1.58961
-1.59495
-1.6002
-1.60535
-1.61042
-1.61539
-1.62028
-1.62508
-1.6298
-1.63443
-1.63897
-0.500381
-0.500422
-0.501693
-0.503937
-0.507041
-0.510995
-0.51577
-0.521314
-0.527578
-0.534521
-0.542104
-0.550287
-0.559032
-0.568304
-0.578066
-0.588285
-0.59893
-0.609969
-0.621372
-0.633111
-0.645158
-0.657488
-0.670074
-0.682893
-0.695922
-0.709139
-0.722523
-0.736054
-0.749713
-0.763481
-0.777342
-0.791279
-0.805275
-0.819317
-0.833389
-0.84748
-0.861575
-0.875664
-0.889734
-0.903776
-0.917778
-0.931732
-0.945629
-0.95946
-0.973217
-0.986895
-1.00048
-1.01398
-1.02738
-1.04067
-1.05385
-1.06692
-1.07987
-1.09269
-1.10539
-1.11796
-1.1304
-1.1427
-1.15486
-1.16689
-1.17877
-1.19052
-1.20211
-1.21357
-1.22487
-1.23603
-1.24704
-1.25791
-1.26863
-1.27919
-1.28961
-1.29989
-1.31001
-1.31999
-1.32982
-1.33951
-1.34905
-1.35845
-1.36771
-1.37682
-1.38579
-1.39462
-1.40332
-1.41187
-1.42029
-1.42858
-1.43673
-1.44475
-1.45264
-1.4604
-1.46803
-1.47554
-1.48292
-1.49018
-1.49731
-1.50433
-1.51123
-1.51801
-1.52468
-1.53124
-1.53768
-1.54401
-1.55024
-1.55635
-1.56236
-1.56827
-1.57408
-1.57978
-1.58539
-1.59089
-1.59631
-1.60162
-1.60685
-1.61198
-1.61702
-1.62198
-1.62684
-1.63162
-1.63632
-1.64092
-0.493224
-0.493202
-0.494415
-0.496607
-0.499664
-0.503578
-0.508316
-0.513829
-0.520068
-0.526991
-0.534559
-0.542732
-0.551472
-0.560743
-0.57051
-0.580739
-0.591398
-0.602457
-0.613884
-0.625652
-0.637732
-0.650099
-0.662728
-0.675593
-0.688673
-0.701945
-0.715388
-0.728982
-0.742707
-0.756546
-0.77048
-0.784494
-0.798571
-0.812696
-0.826856
-0.841036
-0.855224
-0.869408
-0.883576
-0.897717
-0.911822
-0.92588
-0.939883
-0.953822
-0.96769
-0.981478
-0.995181
-1.00879
-1.0223
-1.03571
-1.04901
-1.0622
-1.07526
-1.08821
-1.10103
-1.11372
-1.12628
-1.1387
-1.15099
-1.16313
-1.17514
-1.187
-1.19872
-1.21029
-1.22172
-1.233
-1.24413
-1.25511
-1.26595
-1.27664
-1.28717
-1.29756
-1.3078
-1.3179
-1.32785
-1.33765
-1.3473
-1.35681
-1.36617
-1.3754
-1.38448
-1.39342
-1.40222
-1.41088
-1.4194
-1.42779
-1.43604
-1.44416
-1.45215
-1.46001
-1.46774
-1.47534
-1.48282
-1.49017
-1.4974
-1.50451
-1.5115
-1.51837
-1.52513
-1.53177
-1.5383
-1.54471
-1.55102
-1.55722
-1.56331
-1.5693
-1.57518
-1.58096
-1.58665
-1.59223
-1.59771
-1.6031
-1.6084
-1.6136
-1.61871
-1.62374
-1.62867
-1.63352
-1.63828
-1.64294
-0.485808
-0.485718
-0.486873
-0.48901
-0.492019
-0.495889
-0.50059
-0.506071
-0.512283
-0.519184
-0.526735
-0.534897
-0.543631
-0.552902
-0.562673
-0.572911
-0.583585
-0.594662
-0.606114
-0.61791
-0.630024
-0.64243
-0.655101
-0.668014
-0.681146
-0.694473
-0.707977
-0.721635
-0.735428
-0.749339
-0.763349
-0.777442
-0.791602
-0.805814
-0.820063
-0.834335
-0.848619
-0.8629
-0.877169
-0.891414
-0.905624
-0.91979
-0.933903
-0.947954
-0.961935
-0.975839
-0.989658
-1.00339
-1.01702
-1.03055
-1.04397
-1.05728
-1.07047
-1.08354
-1.09648
-1.10929
-1.12198
-1.13453
-1.14694
-1.15921
-1.17134
-1.18333
-1.19518
-1.20688
-1.21843
-1.22983
-1.24109
-1.2522
-1.26315
-1.27396
-1.28462
-1.29513
-1.30549
-1.31571
-1.32577
-1.33569
-1.34546
-1.35509
-1.36457
-1.3739
-1.3831
-1.39215
-1.40106
-1.40983
-1.41846
-1.42696
-1.43532
-1.44354
-1.45163
-1.45959
-1.46742
-1.47513
-1.4827
-1.49015
-1.49748
-1.50468
-1.51177
-1.51873
-1.52558
-1.53231
-1.53893
-1.54543
-1.55182
-1.55811
-1.56429
-1.57036
-1.57632
-1.58218
-1.58794
-1.59361
-1.59917
-1.60463
-1.61
-1.61528
-1.62047
-1.62556
-1.63056
-1.63548
-1.64031
-1.64504
-0.478136
-0.477977
-0.47907
-0.481151
-0.484109
-0.487934
-0.492596
-0.498043
-0.504226
-0.511105
-0.518638
-0.526788
-0.535515
-0.544784
-0.554559
-0.564806
-0.575493
-0.58659
-0.598065
-0.609891
-0.622039
-0.634483
-0.647198
-0.660159
-0.673343
-0.686728
-0.700293
-0.714016
-0.72788
-0.741864
-0.755952
-0.770127
-0.784372
-0.798672
-0.813012
-0.82738
-0.841761
-0.856144
-0.870516
-0.884867
-0.899186
-0.913464
-0.92769
-0.941856
-0.955954
-0.969977
-0.983917
-0.997768
-1.01152
-1.02518
-1.03872
-1.05216
-1.06548
-1.07867
-1.09175
-1.10469
-1.1175
-1.13018
-1.14273
-1.15513
-1.16739
-1.17951
-1.19149
-1.20331
-1.215
-1.22653
-1.23791
-1.24915
-1.26024
-1.27117
-1.28196
-1.2926
-1.30308
-1.31342
-1.32361
-1.33365
-1.34354
-1.35329
-1.36289
-1.37234
-1.38165
-1.39082
-1.39984
-1.40873
-1.41747
-1.42608
-1.43455
-1.44288
-1.45108
-1.45915
-1.46709
-1.47489
-1.48257
-1.49012
-1.49755
-1.50485
-1.51203
-1.51909
-1.52604
-1.53286
-1.53957
-1.54617
-1.55265
-1.55902
-1.56529
-1.57144
-1.57749
-1.58344
-1.58928
-1.59503
-1.60067
-1.60621
-1.61166
-1.61702
-1.62228
-1.62744
-1.63252
-1.63751
-1.64241
-1.64721
-0.470214
-0.469983
-0.471012
-0.473035
-0.47594
-0.479718
-0.484338
-0.48975
-0.495903
-0.502757
-0.510272
-0.518408
-0.527128
-0.536394
-0.546171
-0.556427
-0.567128
-0.578243
-0.589742
-0.601597
-0.613779
-0.626262
-0.639021
-0.652031
-0.665268
-0.678711
-0.692339
-0.706129
-0.720064
-0.734124
-0.748291
-0.762549
-0.776881
-0.791272
-0.805706
-0.820171
-0.834653
-0.84914
-0.863619
-0.878079
-0.89251
-0.906902
-0.921244
-0.935529
-0.949748
-0.963894
-0.977958
-0.991935
-1.00582
-1.0196
-1.03328
-1.04684
-1.06029
-1.07362
-1.08683
-1.09991
-1.11285
-1.12567
-1.13834
-1.15088
-1.16328
-1.17553
-1.18764
-1.19961
-1.21142
-1.22309
-1.23461
-1.24598
-1.2572
-1.26827
-1.27918
-1.28995
-1.30057
-1.31103
-1.32135
-1.33152
-1.34153
-1.3514
-1.36113
-1.3707
-1.38014
-1.38942
-1.39857
-1.40757
-1.41643
-1.42515
-1.43374
-1.44219
-1.4505
-1.45867
-1.46672
-1.47463
-1.48242
-1.49008
-1.49761
-1.50501
-1.5123
-1.51946
-1.5265
-1.53342
-1.54023
-1.54692
-1.55349
-1.55996
-1.56631
-1.57256
-1.5787
-1.58473
-1.59066
-1.59649
-1.60222
-1.60784
-1.61337
-1.61881
-1.62414
-1.62939
-1.63454
-1.63961
-1.64458
-1.64945
-0.462045
-0.46174
-0.462703
-0.464665
-0.467515
-0.471244
-0.475822
-0.481196
-0.487318
-0.494146
-0.501641
-0.509763
-0.518473
-0.527736
-0.537515
-0.547778
-0.558492
-0.569626
-0.581149
-0.593032
-0.605248
-0.617771
-0.630574
-0.643633
-0.656924
-0.670426
-0.684117
-0.697976
-0.711983
-0.72612
-0.740368
-0.754711
-0.769132
-0.783615
-0.798146
-0.812711
-0.827296
-0.841889
-0.856477
-0.871049
-0.885595
-0.900104
-0.914567