/*--------------------------------*- C++ -*----------------------------------*\
  =========                 |
  \\      /  F ield         | OpenFOAM: The Open Source CFD Toolbox
   \\    /   O peration     | Website:  https://openfoam.org
    \\  /    A nd           | Version:  10
     \\/     M anipulation  |
\*---------------------------------------------------------------------------*/
FoamFile
{
    format      ascii;
    class       volScalarField;
    location    "0.001";
    object      nuTilda;
}
// * * * * * * * * * * * * * * * * * * * * * * * * * * * * * * * * * * * * * //

dimensions      [0 2 -1 0 0 0 0];

internalField   nonuniform List<scalar> 
8924
(
1.78606e-05
1.67464e-05
1.71482e-05
1.67146e-05
1.60192e-05
1.51912e-05
1.42251e-05
1.32969e-05
1.2686e-05
1.20815e-05
1.15369e-05
1.11537e-05
1.18583e-05
1.03915e-05
1.31215e-05
9.93674e-06
9.66831e-06
9.44607e-06
9.21183e-06
8.99303e-06
8.80039e-06
8.76003e-06
8.82971e-06
8.93028e-06
9.04284e-06
9.11303e-06
9.16065e-06
9.18887e-06
1.2868e-05
1.29675e-05
1.29089e-05
1.285e-05
1.28061e-05
1.27712e-05
1.27403e-05
1.26855e-05
8.16679e-05
7.86172e-05
8.14257e-05
8.02501e-05
7.7807e-05
7.46535e-05
7.09013e-05
6.7168e-05
6.35447e-05
5.99823e-05
5.67093e-05
5.37999e-05
5.12504e-05
4.84307e-05
4.69863e-05
4.42544e-05
4.23564e-05
4.0724e-05
3.92063e-05
3.793e-05
3.68124e-05
3.65997e-05
3.70356e-05
3.76529e-05
3.83305e-05
3.87683e-05
3.90866e-05
3.93961e-05
4.05458e-05
4.06557e-05
4.05438e-05
4.04489e-05
4.04594e-05
4.05258e-05
4.05729e-05
4.04928e-05
0.000171888
0.000167898
0.000172763
0.000171299
0.000167159
0.000161517
0.000154488
0.000147195
0.000139794
0.00013223
0.000125176
0.000118831
0.000113128
0.000107699
0.000103144
9.84611e-05
9.43107e-05
9.06559e-05
8.72229e-05
8.43e-05
8.16837e-05
8.11854e-05
8.21816e-05
8.3579e-05
8.51269e-05
8.61144e-05
8.68236e-05
8.75401e-05
8.82986e-05
8.84719e-05
8.82207e-05
8.80078e-05
8.8044e-05
8.82076e-05
8.83294e-05
8.81608e-05
0.000284444
0.000279409
0.000284748
0.00028093
0.000272513
0.000261499
0.000248306
0.000234616
0.000221104
0.000207354
0.000194666
0.000183281
0.000173168
0.000163871
0.000155682
0.00014803
0.000141047
0.000134932
0.000129219
0.000124311
0.000119749
0.000116272
0.000114256
0.000114452
0.000115661
0.000116271
0.000116656
0.000117225
0.000117537
0.000117459
0.000116828
0.000116308
0.000116191
0.000116296
0.000116379
0.000116066
0.000418235
0.000412247
0.000417317
0.000410136
0.000396101
0.000378086
0.000357
0.000335016
0.000313836
0.000292302
0.000272524
0.000254827
0.000239283
0.000225135
0.000212662
0.000201218
0.000190782
0.000181704
0.00017319
0.000165928
0.000159132
0.000153356
0.000148554
0.000145243
0.000144516
0.000143692
0.000143064
0.000143066
0.000142737
0.000142157
0.000140902
0.000139901
0.000139512
0.000139458
0.00013942
0.000138873
0.000573204
0.000566344
0.00057046
0.000558972
0.000538031
0.000511413
0.000480757
0.000448704
0.000418407
0.000387604
0.000359295
0.000334007
0.000312002
0.000292065
0.000274612
0.000258692
0.000244275
0.000231802
0.000220084
0.000210186
0.000200855
0.000192795
0.000185607
0.000179344
0.000175121
0.000171153
0.000168542
0.000167492
0.000166185
0.000164845
0.000162705
0.000161073
0.000160326
0.000160034
0.000159799
0.000158917
0.000749891
0.000742223
0.000744739
0.000728034
0.000698904
0.000662055
0.000620134
0.00057614
0.000535148
0.000494748
0.000458113
0.000425394
0.000396521
0.00037052
0.000347353
0.000326438
0.000307397
0.000290777
0.000275328
0.00026194
0.000249534
0.000238523
0.000228632
0.000219555
0.000212207
0.000205338
0.000199718
0.000195171
0.000190948
0.000187433
0.000183668
0.000180873
0.000179547
0.000178949
0.000178444
0.000177096
0.000949108
0.000940699
0.000940991
0.000918201
0.000879596
0.000830808
0.000776738
0.0007231
0.000672913
0.000623595
0.000578076
0.000537367
0.000500874
0.000468123
0.000438388
0.000411692
0.000387219
0.00036559
0.000345696
0.000327937
0.000311783
0.000297063
0.000283892
0.000271667
0.000260916
0.000250993
0.000242201
0.000234519
0.000227412
0.000221283
0.000215381
0.000210328
0.000206253
0.000202896
0.000200126
0.000197095
0.000194504
0.00117186
0.00116282
0.00116024
0.00113058
0.00108116
0.00102164
0.000958032
0.000895241
0.000835911
0.000777667
0.000722473
0.000672909
0.000627934
0.000587576
0.000550464
0.000517134
0.000486444
0.000459039
0.000433985
0.000411166
0.000390626
0.000371593
0.000354624
0.000338842
0.000324341
0.000311095
0.000298873
0.000288058
0.000277996
0.000268954
0.000260569
0.000252942
0.000246256
0.000240238
0.000234984
0.00022983
0.000225109
0.00141931
0.00140973
0.00140379
0.00136647
0.00130694
0.00123912
0.00116671
0.0010946
0.00102553
0.00095796
0.000892127
0.000832575
0.000778077
0.00072905
0.000683673
0.000642732
0.00060498
0.000571044
0.00054008
0.00051162
0.000486062
0.000462231
0.000440957
0.000421227
0.000402722
0.000385888
0.000370079
0.000356028
0.000342909
0.000330829
0.000319784
0.000309454
0.000300194
0.000291592
0.000283833
0.000276394
0.000269358
0.00169274
0.00168273
0.00167309
0.00162708
0.00156052
0.00148521
0.00140402
0.00132205
0.00124236
0.00116462
0.00108714
0.00101623
0.000950968
0.000892008
0.000837324
0.000787636
0.000741852
0.00070054
0.000662831
0.000628126
0.000596874
0.000567748
0.000541648
0.000517494
0.000494716
0.000473983
0.000454443
0.000436992
0.000420677
0.000405528
0.000391703
0.000378656
0.000366848
0.000355738
0.000345567
0.000335811
0.000326465
0.00199355
0.00198322
0.00196979
0.00191611
0.0018437
0.00176113
0.00167082
0.00157825
0.00148687
0.00139779
0.00130765
0.00122385
0.0011464
0.00107606
0.00101088
0.000951165
0.000896252
0.000846608
0.000801224
0.000759589
0.000721903
0.000686934
0.000655436
0.000626336
0.000598919
0.000573892
0.000550399
0.0005293
0.000509575
0.000491297
0.000474569
0.000458788
0.000444386
0.00043078
0.000418303
0.000406241
0.00039465
0.00232326
0.0023127
0.00229545
0.00223567
0.00215787
0.00206796
0.00196803
0.00186401
0.00175968
0.00165784
0.0015541
0.00145573
0.00136452
0.0012812
0.0012042
0.00113399
0.00106925
0.00101038
0.000956478
0.000906883
0.000861781
0.000819929
0.000782026
0.000746939
0.000714429
0.00068464
0.000656886
0.000631809
0.000608375
0.000586839
0.00056703
0.000548452
0.000531357
0.000515174
0.000500446
0.000486021
0.000472244
0.000459076
0.00268347
0.00267278
0.00265153
0.00258734
0.00250432
0.00240684
0.00229672
0.0021803
0.0020617
0.00194541
0.00182862
0.00171608
0.00161104
0.00151439
0.00142492
0.00134321
0.00126775
0.00119873
0.00113539
0.0010769
0.00102347
0.00097382
0.000928632
0.000886792
0.000848077
0.000812493
0.000779373
0.000749306
0.000721291
0.00069546
0.00067161
0.000649262
0.000628565
0.000609001
0.000591053
0.00057409
0.000558095
0.000542983
0.00307587
0.00306518
0.00303944
0.00297259
0.00288441
0.00277912
0.00265815
0.00252833
0.00239535
0.00226576
0.00213641
0.00200973
0.00189027
0.00177944
0.00167655
0.00158223
0.00149497
0.00141478
0.00134102
0.00127269
0.00121006
0.00115177
0.00109851
0.00104917
0.00100344
0.000961289
0.000922032
0.000886246
0.000852955
0.000822097
0.000793511
0.000766692
0.000741711
0.000718134
0.000696331
0.00067594
0.000656823
0.000638804
0.00350225
0.0034918
0.0034624
0.00339298
0.00329967
0.00318628
0.00305378
0.00291121
0.00276513
0.00262241
0.00248023
0.00233932
0.00220454
0.00207837
0.00196085
0.00185265
0.00175232
0.0016598
0.00157451
0.00149533
0.00142258
0.00135479
0.00129265
0.00123504
0.00118158
0.00113223
0.00108623
0.00104418
0.00100506
0.000968668
0.000934869
0.000903108
0.000873369
0.000845313
0.00081924
0.000794909
0.000772141
0.000750653
0.00396446
0.00395451
0.00392213
0.00385021
0.00375175
0.00363002
0.00348629
0.00333257
0.00317379
0.00301762
0.00286178
0.00270651
0.00255541
0.00241244
0.00227889
0.00215535
0.00204052
0.00193435
0.00183626
0.00174511
0.00166119
0.00158295
0.00151109
0.00144435
0.00138246
0.00132526
0.00127195
0.00122313
0.00117767
0.00113534
0.00109598
0.00105896
0.00102409
0.000991193
0.000960566
0.000931996
0.000905304
0.000880096
0.00446441
0.00445519
0.0044204
0.00434606
0.00424249
0.004112
0.003959
0.00379486
0.00362339
0.00345314
0.00328276
0.00311221
0.00294407
0.00278456
0.0026346
0.0024951
0.00236496
0.00224418
0.00213232
0.00202803
0.00193182
0.00184189
0.00175911
0.00168211
0.00161054
0.00154428
0.00148238
0.00142559
0.00137267
0.00132323
0.00127715
0.00123389
0.00119354
0.00115546
0.00112002
0.00108699
0.00105621
0.00102718
0.000998655
0.00500409
0.0049958
0.0049591
0.00488243
0.00477391
0.00463543
0.00447431
0.00430015
0.00411581
0.00393059
0.00374461
0.00356038
0.00337659
0.00319986
0.00303283
0.00287644
0.00272995
0.00259346
0.00246669
0.00234812
0.00223847
0.00213574
0.00204095
0.00195263
0.00187034
0.00179403
0.00172255
0.00165685
0.00159563
0.00153818
0.00148451
0.00143403
0.00138708
0.00134273
0.00130139
0.00126282
0.00122684
0.00119287
0.00115997
0.00558557
0.00557837
0.0055402
0.00546135
0.00534798
0.00520291
0.00503433
0.00485038
0.00465285
0.00445345
0.00425294
0.00405454
0.00385608
0.0036615
0.00347653
0.00330211
0.00313802
0.00298449
0.00284153
0.00270743
0.00258311
0.00246648
0.00235853
0.00225786
0.00216387
0.00207657
0.0019947
0.00191926
0.00184907
0.00178286
0.00172094
0.00166258
0.00160829
0.00155694
0.00150898
0.00146415
0.00142233
0.00138267
0.00134449
0.006211
0.00620504
0.00616581
0.00608497
0.00596654
0.00581665
0.00564112
0.00544753
0.00523776
0.00502525
0.00481059
0.00459744
0.00438429
0.00417164
0.00396766
0.00377489
0.00359267
0.00342135
0.0032613
0.00311059
0.00297043
0.00283861
0.00271619
0.00260186
0.00249476
0.00239511
0.00230142
0.00221477
0.00213389
0.00205814
0.00198735
0.00192061
0.00185844
0.00179956
0.00174447
0.0016929
0.00164492
0.0015991
0.00155522
0.00151243
0.00688261
0.00687802
0.00683815
0.00675571
0.00663315
0.00647889
0.00629683
0.00609336
0.00587362
0.00564867
0.00541989
0.00519122
0.0049624
0.00473474
0.00451203
0.00430046
0.00409934
0.00390933
0.00373113
0.00356271
0.00340552
0.00325735
0.00311924
0.00299005
0.00286866
0.00275547
0.00264882
0.00254985
0.00245728
0.00237064
0.00228971
0.0022133
0.00214196
0.00207424
0.00201069
0.00195109
0.0018953
0.00184286
0.00179292
0.00174489
0.00760274
0.00759961
0.00755948
0.0074759
0.00735011
0.00719193
0.00700374
0.00679209
0.00656306
0.00632607
0.00608289
0.00584013
0.00559639
0.00535403
0.00511327
0.0048824
0.00466137
0.00445168
0.0042541
0.00406673
0.00389128
0.00372553
0.00357053
0.00342526
0.00328845
0.00316059
0.00303995
0.00292769
0.0028225
0.002724
0.00263197
0.00254496
0.0024636
0.00238611
0.00231318
0.00224468
0.00218031
0.00212005
0.00206288
0.00200836
0.00195428
0.00837381
0.00837218
0.00833217
0.0082479
0.00811974
0.00795816
0.00776382
0.00754608
0.00730854
0.00705971
0.00680388
0.00654765
0.00628927
0.00603161
0.0057739
0.00552308
0.00528309
0.00505366
0.00483617
0.00462903
0.00443434
0.00424988
0.00407679
0.00391417
0.00376056
0.00361663
0.00348055
0.00335353
0.00323428
0.00312237
0.00301777
0.00291858
0.00282557
0.00273745
0.00265447
0.00257641
0.00250294
0.0024342
0.00236911
0.00230726
0.00224631
0.00919839
0.00919817
0.00915868
0.00907418
0.00894444
0.00878018
0.00858096
0.00835778
0.00811246
0.00785341
0.00758586
0.00731657
0.00704344
0.00677136
0.0064986
0.00622893
0.0059694
0.00572001
0.0054819
0.00525408
0.00503914
0.00483489
0.00464255
0.0044614
0.00428978
0.00412856
0.0039758
0.00383282
0.00369833
0.00357182
0.00345361
0.0033411
0.00323525
0.00313504
0.0030406
0.00295159
0.00286765
0.00278903
0.0027146
0.00264377
0.00257526
0.0025079
0.0100792
0.01008
0.0100415
0.00995727
0.00982666
0.00966045
0.00945758
0.00922973
0.00897684
0.00870992
0.00843154
0.00814928
0.00786328
0.00757736
0.00728998
0.00700312
0.00672352
0.00645369
0.00619579
0.00594707
0.0057113
0.00548646
0.00527389
0.00507312
0.00488221
0.00470233
0.00453142
0.00437095
0.00421967
0.00407686
0.00394293
0.00381605
0.00369641
0.00358312
0.00347623
0.00337533
0.00327999
0.00319059
0.00310604
0.00302516
0.00294749
0.00287193
0.0110189
0.0110206
0.0109835
0.0108998
0.010769
0.0106015
0.0103961
0.0101646
0.00990596
0.00963203
0.00934346
0.00905017
0.00875209
0.00845276
0.00815048
0.00784925
0.00755118
0.00726125
0.00698334
0.00671333
0.00645611
0.00620994
0.00597623
0.00575484
0.00554358
0.0053439
0.00515366
0.00497447
0.00480518
0.00464486
0.00449405
0.00435142
0.00421645
0.00408853
0.00396761
0.00385322
0.00374486
0.00364307
0.00354684
0.0034551
0.00336734
0.00328283
0.00319977
0.0120202
0.0120229
0.0119873
0.0119047
0.011774
0.0116057
0.0113991
0.0111648
0.0109022
0.0106225
0.0103254
0.0100222
0.00971272
0.00940008
0.0090852
0.00877019
0.00845597
0.00814603
0.00784792
0.00755773
0.0072791
0.00701139
0.00675603
0.00651325
0.00628071
0.00606012
0.0058493
0.00565
0.00546125
0.00528188
0.00511256
0.00495185
0.00480021
0.00465648
0.00452053
0.00439156
0.00426909
0.00415378
0.00404503
0.00394095
0.00384152
0.00374627
0.0036533
0.0130862
0.0130897
0.013056
0.0129747
0.0128449
0.0126756
0.0124693
0.0122326
0.011968
0.0116837
0.0113801
0.0110682
0.0107477
0.0104245
0.0100975
0.00976882
0.00944128
0.00911354
0.00879598
0.00848571
0.00818545
0.00789597
0.00761856
0.00735377
0.00709918
0.00685682
0.00662443
0.00640399
0.00619465
0.0059951
0.00580617
0.0056263
0.0054564
0.00529522
0.00514281
0.00499763
0.00485938
0.0047288
0.00460504
0.00448745
0.00437537
0.00426837
0.00416477
0.00406255
0.0142197
0.0142242
0.0141925
0.0141131
0.0139848
0.0138161
0.0136103
0.0133726
0.0131063
0.0128179
0.0125103
0.0121907
0.0118619
0.0115288
0.0111901
0.01085
0.0105099
0.0101672
0.00983068
0.00950063
0.00918054
0.00886998
0.00857074
0.00828378
0.00800672
0.00774193
0.00748711
0.00724451
0.00701345
0.00679244
0.00658253
0.00638208
0.00619224
0.00601174
0.0058404
0.00567771
0.00552252
0.00537564
0.00523612
0.00510348
0.00497714
0.00485688
0.00474066
0.0046267
0.0154242
0.0154295
0.0154002
0.015323
0.0151969
0.0150297
0.014825
0.0145875
0.0143206
0.0140299
0.0137191
0.0133941
0.0130582
0.0127157
0.0123679
0.0120173
0.0116649
0.0113103
0.0109578
0.0106092
0.010269
0.00993776
0.00961692
0.00930766
0.00900789
0.00872021
0.00844233
0.00817683
0.00792323
0.00767984
0.00744802
0.00722605
0.00701523
0.00681425
0.0066229
0.0064412
0.00626747
0.00610269
0.00594609
0.00579663
0.00565406
0.0055181
0.00538786
0.00526161
0.00513767
0.0167027
0.016709
0.0166822
0.0166076
0.0164841
0.0163192
0.0161164
0.0158799
0.0156136
0.0153221
0.0150093
0.0146807
0.0143395
0.0139898
0.0136339
0.0132734
0.0129114
0.0125456
0.0121798
0.0118142
0.0114562
0.0111057
0.0107644
0.0104332
0.010111
0.00980046
0.00949914
0.00921023
0.00893343
0.00866685
0.0084121
0.00816754
0.00793466
0.00771185
0.00749899
0.00729689
0.00710282
0.00691817
0.0067421
0.00657451
0.00641456
0.00626183
0.00611582
0.00597495
0.00583893
0.00570444
0.0180589
0.0180661
0.018042
0.0179702
0.0178499
0.0176878
0.0174875
0.017253
0.0169879
0.0166971
0.0163829
0.0160532
0.0157077
0.0153536
0.0149906
0.014623
0.0142525
0.0138762
0.0135003
0.0131212
0.0127459
0.0123771
0.0120163
0.0116657
0.0113224
0.0109899
0.0106651
0.0103527
0.0100523
0.00976194
0.00948346
0.00921522
0.00895945
0.00871351
0.00847751
0.00825231
0.00803647
0.00783082
0.00763433
0.00744713
0.00726832
0.00709726
0.00693381
0.00677572
0.00662373
0.00647578
0.0063309
0.0194962
0.0195044
0.0194831
0.0194144
0.0192975
0.0191389
0.0189418
0.01871
0.0184465
0.0181584
0.0178451
0.0175152
0.0171678
0.0168104
0.0164426
0.0160691
0.0156909
0.0153072
0.0149215
0.014532
0.0141431
0.0137582
0.0133789
0.0130094
0.0126458
0.0122923
0.0119463
0.0116111
0.0112874
0.0109731
0.0106705
0.0103776
0.0100968
0.00982669
0.00956677
0.00931789
0.00907893
0.00885089
0.00863267
0.00842443
0.00822514
0.00803409
0.00785025
0.0076732
0.00750341
0.00733954
0.00718061
0.00702404
0.0210184
0.0210275
0.0210091
0.0209437
0.0208307
0.020676
0.0204828
0.0202546
0.0199944
0.0197094
0.0193982
0.0190695
0.0187219
0.0183624
0.0179923
0.0176141
0.0172313
0.0168416
0.0164486
0.0160505
0.0156505
0.0152512
0.014857
0.0144707
0.014088
0.0137146
0.0133476
0.0129905
0.012644
0.0123061
0.0119794
0.0116621
0.0113563
0.0110615
0.0107769
0.0105035
0.0102403
0.00998858
0.00974729
0.00951664
0.00929546
0.00908184
0.0088764
0.00867862
0.00848909
0.00830684
0.00813134
0.00795963
0.00778949
0.0226293
0.0226393
0.0226241
0.022562
0.0224529
0.0223026
0.0221139
0.0218903
0.0216344
0.0213533
0.0210453
0.0207183
0.0203732
0.020014
0.0196431
0.0192624
0.0188762
0.0184815
0.0180838
0.0176789
0.0172719
0.0168614
0.016453
0.0160517
0.0156537
0.0152628
0.014876
0.0144982
0.0141298
0.0137691
0.0134189
0.0130774
0.0127469
0.0124272
0.0121176
0.0118191
0.0115308
0.0112541
0.0109885
0.0107345
0.0104891
0.0102518
0.0100234
0.00980319
0.00959203
0.00938921
0.00919497
0.00900465
0.00881634
0.0243325
0.0243436
0.0243323
0.024273
0.024168
0.0240225
0.0238388
0.0236203
0.0233696
0.0230934
0.02279
0.0224667
0.0221248
0.0217676
0.0213975
0.0210166
0.0206282
0.0202315
0.01983
0.0194213
0.0190089
0.0185903
0.0181717
0.0177574
0.0173452
0.016939
0.0165363
0.0161404
0.0157515
0.0153691
0.0149964
0.0146316
0.014277
0.0139327
0.0135979
0.013274
0.0129601
0.0126577
0.0123664
0.0120874
0.0118171
0.0115552
0.0113024
0.0110584
0.0108238
0.0105983
0.0103826
0.0101721
0.00996635
0.00976359
0.0095675
0.0261317
0.0261435
0.0261353
0.0260799
0.0259796
0.0258391
0.0256609
0.0254483
0.0252035
0.024933
0.0246353
0.024317
0.0239795
0.0236258
0.0232576
0.0228791
0.0224914
0.0220944
0.0216915
0.0212803
0.0208638
0.0204413
0.0200146
0.0195914
0.019168
0.0187479
0.0183306
0.017919
0.0175138
0.0171119
0.0167186
0.0163316
0.015954
0.0155859
0.0152265
0.0148774
0.0145377
0.0142093
0.0138916
0.0135863
0.0132905
0.0130032
0.0127251
0.0124558
0.0121963
0.0119463
0.011707
0.0114741
0.0112474
0.011026
0.01081
0.0105975
0.0280308
0.0280434
0.0280381
0.0279868
0.0278914
0.0277565
0.0275841
0.0273778
0.0271395
0.0268755
0.0265843
0.0262721
0.0259403
0.0255918
0.0252279
0.0248529
0.0244676
0.0240716
0.0236699
0.0232579
0.0228407
0.0224154
0.0219853
0.0215548
0.0211231
0.0206935
0.0202638
0.0198386
0.0194188
0.0190018
0.0185908
0.0181835
0.0177844
0.0173938
0.0170108
0.0166374
0.0162725
0.0159182
0.0155739
0.015241
0.0149197
0.0146064
0.0143023
0.0140069
0.0137214
0.0134453
0.0131806
0.0129234
0.0126734
0.0124299
0.0121927
0.0119605
0.0117309
0.030034
0.0300473
0.0300449
0.0299977
0.0299076
0.0297784
0.0296122
0.0294124
0.0291812
0.0289244
0.0286404
0.0283351
0.0280094
0.0276681
0.0273102
0.0269405
0.0265597
0.0261671
0.0257681
0.025358
0.0249418
0.0245166
0.0240854
0.0236514
0.0232141
0.0227769
0.0223391
0.0219035
0.0214707
0.0210398
0.0206142
0.0201912
0.0197732
0.0193623
0.0189574
0.018561
0.0181721
0.0177928
0.0174226
0.0170628
0.0167146
0.0163749
0.0160447
0.0157229
0.0154105
0.0151073
0.0148147
0.0145323
0.0142575
0.0139898
0.0137292
0.0134751
0.0132262
0.0129777
0.0321452
0.0321591
0.0321591
0.0321163
0.0320317
0.0319092
0.0317488
0.0315559
0.0313322
0.0310831
0.0308071
0.0305099
0.030192
0.0298581
0.0295072
0.0291434
0.0287694
0.0283822
0.0279871
0.0275813
0.0271675
0.0267452
0.0263147
0.0258807
0.0254408
0.0250002
0.0245563
0.0241134
0.0236725
0.0232302
0.022792
0.0223558
0.0219237
0.0214961
0.0210714
0.0206539
0.0202427
0.0198399
0.0194451
0.0190593
0.0186835
0.018317
0.0179613
0.0176135
0.0172744
0.016944
0.0166234
0.0163126
0.0160121
0.0157189
0.0154331
0.0151545
0.0148825
0.0146152
0.0143479
0.0343681
0.0343827
0.0343839
0.0343456
0.0342665
0.0341501
0.0339966
0.0338113
0.0335956
0.0333547
0.0330875
0.0327992
0.0324902
0.0321648
0.0318222
0.0314663
0.0310998
0.0307198
0.0303309
0.0299308
0.0295219
0.0291037
0.0286765
0.0282441
0.0278056
0.0273639
0.0269181
0.0264705
0.0260239
0.0255751
0.0251271
0.0246799
0.0242356
0.0237947
0.0233555
0.0229198
0.0224888
0.0220648
0.0216475
0.0212378
0.0208366
0.0204437
0.0200607
0.0196872
0.019322
0.0189649
0.0186168
0.0182778
0.0179484
0.017629
0.0173169
0.0170126
0.0167154
0.0164248
0.0161388
0.0158527
0.0367055
0.0367207
0.036723
0.0366894
0.0366162
0.0365053
0.0363588
0.0361814
0.0359748
0.035742
0.035484
0.0352055
0.0349068
0.0345904
0.034257
0.0339101
0.0335524
0.0331808
0.0327998
0.0324072
0.0320047
0.031592
0.0311711
0.0307436
0.0303088
0.0298695
0.0294247
0.0289762
0.0285271
0.0280737
0.0276208
0.0271663
0.0267119
0.02626
0.0258091
0.0253607
0.024913
0.0244706
0.0240333
0.0236021
0.0231781
0.022761
0.0223523
0.0219517
0.0215601
0.0211777
0.0208031
0.020437
0.0200794
0.0197309
0.0193912
0.019061
0.0187378
0.0184216
0.018112
0.017808
0.0175062
0.0172095
0.0391596
0.0391753
0.0391786
0.0391499
0.0390814
0.0389766
0.0388373
0.038668
0.03847
0.0382464
0.0379981
0.0377297
0.0374415
0.0371355
0.0368126
0.036476
0.0361283
0.0357664
0.0353947
0.035011
0.0346171
0.0342122
0.0337987
0.0333782
0.0329487
0.0325148
0.0320731
0.0316277
0.031179
0.0307256
0.0302699
0.0298116
0.0293527
0.0288929
0.028433
0.0279748
0.0275162
0.0270588
0.0266046
0.0261547
0.0257102
0.0252716
0.0248403
0.0244155
0.0239985
0.0235891
0.0231883
0.0227967
0.0224125
0.0220366
0.0216689
0.02131
0.0209604
0.0206175
0.0202819
0.0199531
0.0196305
0.0193107
0.0189909
0.0417316
0.0417477
0.0417519
0.0417271
0.041664
0.0415658
0.0414343
0.0412738
0.0410841
0.0408699
0.0406318
0.0403739
0.0400966
0.0398018
0.0394903
0.0391651
0.0388283
0.0384773
0.0381159
0.0377419
0.0373585
0.0369633
0.0365584
0.0361476
0.0357266
0.0353
0.0348647
0.0344238
0.0339797
0.0335286
0.0330747
0.0326155
0.0321548
0.0316924
0.0312266
0.0307615
0.0302953
0.029829
0.0293617
0.0288963
0.0284333
0.0279753
0.0275249
0.0270793
0.0266402
0.0262069
0.0257807
0.0253621
0.0249518
0.0245506
0.0241566
0.0237703
0.0233919
0.0230215
0.0226597
0.0223045
0.0219563
0.021614
0.0212765
0.0209406
0.0206093
0.0444227
0.0444391
0.044444
0.044423
0.0443653
0.044274
0.0441507
0.043998
0.0438173
0.0436131
0.0433858
0.0431395
0.042873
0.0425899
0.0422906
0.0419781
0.0416526
0.0413135
0.0409641
0.0406023
0.0402295
0.0398451
0.0394512
0.039051
0.03864
0.0382223
0.0377964
0.0373637
0.0369265
0.0364813
0.0360321
0.0355762
0.0351171
0.0346542
0.0341878
0.033719
0.0332481
0.0327763
0.0323026
0.0318268
0.0313518
0.0308766
0.0304064
0.0299416
0.029484
0.0290303
0.028582
0.0281394
0.0277038
0.0272764
0.0268571
0.0264463
0.0260417
0.0256442
0.0252539
0.0248715
0.0244976
0.0241302
0.0237688
0.0234128
0.0230584
0.0227026
0.0472323
0.0472488
0.0472545
0.0472373
0.0471851
0.0471009
0.0469845
0.0468402
0.046669
0.0464752
0.0462594
0.0460239
0.0457691
0.0454981
0.0452115
0.0449117
0.044599
0.0442727
0.043936
0.043587
0.0432269
0.0428551
0.042474
0.042086
0.0416869
0.0412804
0.0408653
0.0404424
0.0400137
0.0395774
0.0391353
0.0386865
0.0382322
0.037774
0.0373098
0.0368429
0.0363715
0.0358968
0.0354197
0.0349401
0.0344576
0.0339734
0.0334885
0.033006
0.0325287
0.0320565
0.03159
0.0311254
0.0306671
0.0302166
0.0297747
0.0293391
0.0289102
0.0284885
0.0280722
0.0276625
0.0272607
0.026868
0.0264817
0.0261014
0.0257261
0.0253545
0.0249832
0.0246149
0.0501579
0.0501748
0.0501812
0.0501678
0.0501213
0.0500429
0.0499341
0.0497985
0.0496373
0.0494544
0.0492492
0.0490252
0.0487828
0.048525
0.048252
0.0479649
0.0476653
0.0473525
0.0470293
0.0466939
0.0463474
0.0459899
0.0456228
0.0452484
0.0448628
0.0444693
0.0440669
0.0436561
0.0432387
0.0428132
0.042381
0.0419415
0.0414956
0.0410447
0.0405866
0.0401244
0.0396557
0.0391835
0.0387064
0.0382262
0.0377426
0.0372541
0.0367634
0.0362693
0.035777
0.0352879
0.0348034
0.0343232
0.0338465
0.0333746
0.032909
0.0324508
0.032
0.031554
0.0311131
0.0306781
0.0302496
0.0298297
0.0294194
0.0290162
0.0286181
0.0282247
0.0278355
0.027447
0.027059
0.0266744
0.0531935
0.0532133
0.0532201
0.0532098
0.0531681
0.0530963
0.0529957
0.0528697
0.0527184
0.0525454
0.0523514
0.0521396
0.0519102
0.051666
0.0514062
0.0511328
0.0508473
0.0505488
0.0502403
0.0499187
0.049587
0.0492448
0.0488933
0.048533
0.0481619
0.0477828
0.0473944
0.0469974
0.0465933
0.0461806
0.0457602
0.0453315
0.044897
0.0444557
0.0440075
0.043553
0.0430921
0.0426254
0.0421539
0.0416772
0.0411952
0.0407083
0.0402171
0.0397196
0.0392188
0.0387183
0.0382201
0.0377252
0.0372339
0.0367465
0.0362621
0.0357826
0.0353088
0.0348411
0.0343781
0.033921
0.0334704
0.0330261
0.0325884
0.0321589
0.0317381
0.031323
0.0309115
0.0305026
0.0300943
0.0296881
0.0292815
0.0563336
0.0563564
0.0563636
0.0563565
0.05632
0.0562554
0.0561626
0.0560449
0.0559036
0.0557417
0.0555599
0.0553614
0.0551452
0.0549139
0.054668
0.054409
0.0541385
0.0538546
0.0535601
0.0532537
0.0529378
0.0526119
0.0522759
0.0519313
0.0515763
0.0512134
0.05084
0.0504582
0.050069
0.0496709
0.0492649
0.04885
0.0484286
0.0479998
0.0475637
0.0471204
0.0466698
0.0462122
0.0457486
0.0452784
0.0448028
0.0443201
0.0438326
0.0433382
0.042837
0.0423323
0.0418267
0.0413219
0.0408188
0.0403187
0.0398217
0.0393281
0.0388367
0.0383499
0.0378683
0.0373919
0.0369196
0.0364536
0.0359936
0.0355392
0.0350915
0.0346513
0.0342185
0.0337913
0.0333653
0.0329394
0.0325163
0.032096
0.0316797
0.0595688
0.0595944
0.059602
0.0595976
0.0595658
0.0595077
0.0594231
0.0593151
0.0591846
0.0590349
0.0588654
0.058679
0.0584762
0.0582589
0.0580279
0.0577834
0.0575269
0.057258
0.0569791
0.0566889
0.0563898
0.0560799
0.0557604
0.0554328
0.0550951
0.0547486
0.0543919
0.054027
0.0536548
0.0532725
0.0528825
0.0524839
0.0520771
0.0516628
0.0512408
0.0508112
0.0503736
0.0499281
0.0494752
0.0490163
0.0485508
0.048077
0.0475971
0.047109
0.0466144
0.0461115
0.045605
0.0450964
0.0445871
0.0440786
0.0435718
0.0430676
0.0425659
0.0420663
0.0415694
0.0410765
0.0405881
0.0401044
0.0396241
0.0391496
0.0386809
0.0382167
0.0377591
0.0373085
0.0368641
0.0364233
0.0359816
0.0355434
0.0351093
0.0346789
0.0342491
0.0628879
0.0629157
0.0629233
0.0629213
0.0628941
0.0628429
0.0627673
0.0626691
0.0625492
0.0624104
0.0622532
0.0620802
0.0618917
0.0616887
0.0614716
0.0612419
0.0610008
0.060748
0.0604862
0.0602128
0.0599299
0.0596369
0.0593347
0.0590248
0.0587043
0.0583753
0.0580366
0.05769
0.0573349
0.05697
0.0565972
0.0562158
0.055826
0.0554283
0.0550226
0.0546089
0.0541869
0.0537565
0.0533177
0.052872
0.0524185
0.0519575
0.0514886
0.0510122
0.0505279
0.0500338
0.0495321
0.0490262
0.0485171
0.0480065
0.0474953
0.046985
0.0464763
0.0459702
0.0454642
0.0449599
0.0444583
0.0439604
0.0434662
0.0429754
0.0424888
0.042007
0.0415299
0.0410573
0.0405906
0.0401296
0.0396731
0.0392183
0.0387659
0.038317
0.0378712
0.0374267
0.036983
0.0662744
0.0663042
0.0663118
0.0663117
0.0662887
0.0662437
0.0661764
0.0660881
0.0659797
0.0658538
0.0657099
0.0655503
0.0653753
0.0651867
0.064985
0.0647716
0.0645466
0.0643103
0.0640646
0.0638084
0.0635436
0.0632684
0.0629839
0.0626913
0.062389
0.0620789
0.0617588
0.0614302
0.0610938
0.0607483
0.0603941
0.0600305
0.0596589
0.0592798
0.0588914
0.0584951
0.0580905
0.0576777
0.0572566
0.0568265
0.0563883
0.0559422
0.0554876
0.0550248
0.0545536
0.0540717
0.0535806
0.0530835
0.0525811
0.052075
0.051566
0.0510555
0.0505444
0.0500341
0.0495248
0.0490171
0.0485093
0.0480028
0.0474988
0.0469981
0.0464991
0.0460029
0.0455109
0.0450234
0.0445387
0.0440581
0.0435828
0.0431124
0.0426458
0.0421803
0.0417174
0.0412572
0.0407987
0.0403386
0.0398786
0.0697114
0.0697429
0.0697505
0.0697511
0.0697323
0.0696936
0.0696347
0.0695569
0.0694597
0.0693456
0.069215
0.0690701
0.0689101
0.0687367
0.0685503
0.0683521
0.0681436
0.0679249
0.0676966
0.0674576
0.0672097
0.0669523
0.0666864
0.0664129
0.0661295
0.0658377
0.0655367
0.065228
0.0649109
0.0645844
0.0642499
0.0639066
0.0635547
0.0631944
0.0628252
0.0624486
0.0620624
0.061668
0.0612656
0.0608542
0.0604348
0.0600058
0.0595687
0.0591216
0.0586659
0.0581993
0.0577229
0.0572394
0.0567493
0.0562537
0.0557533
0.0552494
0.0547428
0.0542347
0.053726
0.0532177
0.0527106
0.0522023
0.0516943
0.0511876
0.0506834
0.0501795
0.0496775
0.0491784
0.0486835
0.0481896
0.0476988
0.0472119
0.0467297
0.0462517
0.0457768
0.045302
0.0448295
0.0443591
0.0438895
0.0434171
0.0429436
0.0731787
0.0732115
0.0732189
0.0732201
0.0732051
0.0731721
0.0731211
0.0730532
0.072968
0.0728665
0.0727491
0.0726177
0.0724727
0.0723156
0.0721456
0.0719641
0.0717722
0.0715701
0.0713592
0.0711389
0.0709094
0.0706704
0.0704228
0.0701676
0.0699036
0.0696312
0.0693494
0.0690596
0.0687623
0.0684564
0.0681421
0.0678186
0.0674873
0.0671483
0.0667999
0.0664433
0.0660781
0.0657039
0.0653207
0.0649294
0.0645287
0.0641186
0.0637003
0.063272
0.0628347
0.0623867
0.0619287
0.0614629
0.0609897
0.0605098
0.0600238
0.0595326
0.059037
0.0585378
0.0580359
0.0575323
0.0570278
0.0565232
0.0560189
0.055513
0.0550069
0.0545014
0.0539975
0.0534934
0.0529906
0.0524897
0.0519919
0.051495
0.0510006
0.0505097
0.0500227
0.0495395
0.0490563
0.0485747
0.0480951
0.0476168
0.0471374
0.0466553
0.0461704
0.0766548
0.0766884
0.0766956
0.0766972
0.0766854
0.0766576
0.0766139
0.0765551
0.0764812
0.0763928
0.0762893
0.0761723
0.0760423
0.0759005
0.0757475
0.0755832
0.0754087
0.0752241
0.0750309
0.0748285
0.0746172
0.0743966
0.0741677
0.073931
0.0736858
0.0734333
0.0731715
0.0729017
0.0726242
0.0723382
0.072045
0.0717424
0.0714318
0.0711133
0.0707867
0.0704513
0.0701069
0.0697546
0.0693926
0.0690218
0.0686427
0.0682534
0.067855
0.0674474
0.0670299
0.0666019
0.0661657
0.0657212
0.0652689
0.0648091
0.0643424
0.0638693
0.0633904
0.0629064
0.0624179
0.0619259
0.0614311
0.0609345
0.0604368
0.059939
0.0594386
0.0589369
0.0584349
0.0579336
0.0574309
0.056928
0.0564259
0.0559254
0.055427
0.0549292
0.0544332
0.05394
0.0534498
0.0529625
0.0524759
0.0519917
0.0515072
0.0510235
0.0505364
0.0500457
0.0495524
0.0801174
0.0801513
0.080158
0.0801599
0.0801508
0.0801276
0.0800903
0.0800399
0.0799761
0.0798998
0.0798105
0.0797084
0.079594
0.0794686
0.0793317
0.0791842
0.0790269
0.0788599
0.0786843
0.0784998
0.0783065
0.0781044
0.0778941
0.0776763
0.0774503
0.0772172
0.0769751
0.0767253
0.076468
0.0762025
0.07593
0.0756484
0.0753589
0.0750616
0.0747564
0.0744426
0.0741199
0.0737894
0.0734492
0.0730999
0.0727419
0.0723752
0.0719988
0.0716121
0.0712172
0.0708135
0.0704016
0.0699814
0.0695531
0.069117
0.0686734
0.0682228
0.0677654
0.0673019
0.0668327
0.0663584
0.0658796
0.0653971
0.0649116
0.064424
0.0639347
0.0634444
0.0629513
0.0624562
0.0619601