/*--------------------------------*- C++ -*----------------------------------*\
  =========                 |
  \\      /  F ield         | OpenFOAM: The Open Source CFD Toolbox
   \\    /   O peration     | Website:  https://openfoam.org
    \\  /    A nd           | Version:  10
     \\/     M anipulation  |
\*---------------------------------------------------------------------------*/
FoamFile
{
    format      ascii;
    class       surfaceScalarField;
    location    "0.001";
    object      phi;
}
// * * * * * * * * * * * * * * * * * * * * * * * * * * * * * * * * * * * * * //

dimensions      [1 0 -1 0 0 0 0];

internalField   nonuniform List<scalar> 
17559
(
-9.00027e-05
-2.45427e-05
-7.79388e-05
-1.20703e-05
-5.95122e-05
-1.84328e-05
-4.18934e-05
-1.76272e-05
-2.66727e-05
-1.52292e-05
-1.39091e-05
-1.27766e-05
-4.04289e-06
-9.88028e-06
3.34018e-06
-7.39469e-06
8.64928e-06
-5.32444e-06
1.25494e-05
-3.93781e-06
1.52391e-05
-2.69447e-06
1.70479e-05
-1.84223e-06
1.82141e-05
-1.15802e-06
1.88426e-05
-6.5653e-07
1.91513e-05
-2.94846e-07
1.91834e-05
-6.18426e-08
1.90957e-05
9.94349e-08
1.88553e-05
2.06177e-07
1.85156e-05
3.5382e-07
1.81695e-05
3.41629e-07
1.7787e-05
3.80042e-07
1.74962e-05
2.88547e-07
1.72869e-05
2.0809e-07
1.70851e-05
1.92512e-07
1.69395e-05
1.401e-07
1.67305e-05
2.05617e-07
1.65442e-05
1.86394e-07
1.63531e-05
1.8646e-07
1.61272e-05
2.25416e-07
1.5923e-05
2.04563e-07
1.56519e-05
2.56112e-07
1.54378e-05
2.3347e-07
1.52151e-05
2.07943e-07
1.50206e-05
2.10926e-07
1.48457e-05
1.56216e-07
1.94061e-07
-0.000137553
-5.32226e-05
-0.000116217
-3.34124e-05
-9.05531e-05
-4.41021e-05
-6.59829e-05
-4.2205e-05
-4.44325e-05
-3.6787e-05
-2.518e-05
-3.20381e-05
-9.86427e-06
-2.52057e-05
3.75264e-06
-2.10192e-05
1.44221e-05
-1.60038e-05
2.30941e-05
-1.26318e-05
2.97872e-05
-9.38992e-06
3.5141e-05
-7.21516e-06
3.92328e-05
-5.24311e-06
4.21342e-05
-3.5734e-06
4.44089e-05
-2.55728e-06
4.59421e-05
-1.61326e-06
4.70049e-05
-9.53163e-07
4.75732e-05
-3.83992e-07
4.77505e-05
1.88676e-07
4.7682e-05
4.09091e-07
4.74533e-05
6.09373e-07
4.72634e-05
4.8028e-07
4.71704e-05
3.03998e-07
4.71117e-05
2.47256e-07
4.70738e-05
1.77361e-07
4.69336e-05
3.46612e-07
4.67498e-05
3.74372e-07
4.65294e-05
4.05932e-07
4.62332e-05
5.24507e-07
4.58949e-05
5.4644e-07
4.54632e-05
6.81279e-07
4.50525e-05
6.61564e-07
4.46714e-05
5.82301e-07
4.43233e-05
5.74019e-07
4.39918e-05
4.77684e-07
5.67321e-07
-0.000153306
-8.10993e-05
-0.000129116
-5.76043e-05
-0.000102108
-7.11099e-05
-7.57936e-05
-6.85205e-05
-5.24263e-05
-6.01548e-05
-3.13193e-05
-5.31471e-05
-1.37712e-05
-4.27566e-05
1.67045e-06
-3.64633e-05
1.45468e-05
-2.8884e-05
2.51995e-05
-2.32938e-05
3.38527e-05
-1.80458e-05
4.10494e-05
-1.44221e-05
4.70085e-05
-1.12019e-05
5.1746e-05
-8.32114e-06
5.57332e-05
-6.54329e-06
5.88012e-05
-4.69237e-06
6.12667e-05
-3.41699e-06
6.3151e-05
-2.2823e-06
6.45654e-05
-1.22215e-06
6.55891e-05
-6.17529e-07
6.62136e-05
-1.77481e-08
6.65204e-05
1.70483e-07
6.66382e-05
1.82539e-07
6.66507e-05
2.28796e-07
6.66333e-05
1.90292e-07
6.65294e-05
4.47259e-07
6.63654e-05
5.3608e-07
6.61616e-05
6.06415e-07
6.58878e-05
7.96487e-07
6.55862e-05
8.45959e-07
6.52094e-05
1.04974e-06
6.48165e-05
1.06071e-06
6.44283e-05
9.62373e-07
6.40468e-05
9.60497e-07
6.36878e-05
8.26972e-07
9.48246e-07
-0.000166036
-0.000108919
-0.000140147
-8.34956e-05
-0.000112187
-9.90722e-05
-8.46424e-05
-9.60687e-05
-5.98142e-05
-8.49858e-05
-3.70414e-05
-7.59232e-05
-1.7739e-05
-6.20627e-05
-7.32987e-07
-5.34723e-05
1.36875e-05
-4.33082e-05
2.58577e-05
-3.54707e-05
3.58685e-05
-2.80581e-05
4.42357e-05
-2.27953e-05
5.12687e-05
-1.82334e-05
5.70736e-05
-1.4131e-05
6.20645e-05
-1.1531e-05
6.61222e-05
-8.75619e-06
6.9528e-05
-6.82037e-06
7.22569e-05
-5.01898e-06
7.44952e-05
-3.4569e-06
7.63125e-05
-2.436e-06
7.76786e-05
-1.38366e-06
7.8647e-05
-7.97006e-07
7.92503e-05
-4.19915e-07
7.95763e-05
-9.9416e-08
7.97613e-05
5.36034e-09
7.98237e-05
3.84591e-07
7.97951e-05
5.66944e-07
7.9707e-05
6.93536e-07
7.95394e-05
9.6571e-07
7.93421e-05
1.04495e-06
7.90762e-05
1.314e-06
7.87686e-05
1.37528e-06
7.84387e-05
1.29064e-06
7.80865e-05
1.31862e-06
7.77509e-05
1.1595e-06
1.30466e-06
-0.000178663
-0.000137072
-0.000151497
-0.000110662
-0.000122619
-0.00012795
-9.39335e-05
-0.000124753
-6.77173e-05
-0.000111202
-4.3328e-05
-0.000100313
-2.23959e-05
-8.29962e-05
-3.82094e-06
-7.20481e-05
1.2048e-05
-5.91791e-05
2.57617e-05
-4.9188e-05
3.71173e-05
-3.94158e-05
4.67143e-05
-3.23969e-05
5.48263e-05
-2.63466e-05
6.15606e-05
-2.08705e-05
6.73321e-05
-1.73039e-05
7.2093e-05
-1.35223e-05
7.62125e-05
-1.09406e-05
7.96295e-05
-8.44255e-06
8.25117e-05
-6.33848e-06
8.49281e-05
-4.8549e-06
8.68795e-05
-3.33708e-06
8.84434e-05
-2.36387e-06
8.9595e-05
-1.57507e-06
9.03881e-05
-8.97518e-07
9.09343e-05
-5.44086e-07
9.12861e-05
2.89957e-08
9.1495e-05
3.55666e-07
9.16035e-05
5.81566e-07
9.16054e-05
9.62098e-07
9.15603e-05
1.08771e-06
9.14397e-05
1.42958e-06
9.12574e-05
1.55896e-06
9.10277e-05
1.51564e-06
9.07466e-05
1.60051e-06
9.04671e-05
1.43344e-06
1.61164e-06
-0.000191703
-0.000165677
-0.000163421
-0.000138945
-0.000133647
-0.000157726
-0.000103866
-0.000154535
-7.63073e-05
-0.000138762
-5.03561e-05
-0.000126266
-2.78124e-05
-0.000105543
-7.62281e-06
-9.22402e-05
9.73992e-06
-7.65447e-05
2.50044e-05
-6.44567e-05
3.7742e-05
-5.21554e-05
4.86299e-05
-4.32887e-05
5.79031e-05
-3.56204e-05
6.568e-05
-2.86507e-05
7.23196e-05
-2.39432e-05
7.78283e-05
-1.90351e-05
8.26039e-05
-1.57165e-05
8.65977e-05
-1.24413e-05
9.00187e-05
-9.75901e-06
9.2953e-05
-7.79088e-06
9.54171e-05
-5.80126e-06
9.74974e-05
-4.44414e-06
9.91616e-05
-3.24005e-06
0.000100458
-2.19634e-06
0.000101452
-1.53904e-06
0.000102188
-7.07959e-07
0.00010272
-1.75823e-07
0.000103097
2.03455e-07
0.000103329
7.30799e-07
0.000103487
9.31082e-07
0.000103553
1.3627e-06
0.000103536
1.5799e-06
0.000103446
1.60445e-06
0.000103276
1.77402e-06
0.000103087
1.61973e-06
1.85109e-06
-0.00020535
-0.000194785
-0.000176051
-0.000168244
-0.000145403
-0.000188374
-0.000114563
-0.000185374
-8.56874e-05
-0.000167637
-5.81933e-05
-0.00015376
-3.40218e-05
-0.000129715
-1.2153e-05
-0.00011411
6.72618e-06
-9.54255e-05
2.35965e-05
-8.13291e-05
3.7786e-05
-6.63469e-05
5.00194e-05
-5.55251e-05
6.0487e-05
-4.60899e-05
6.93769e-05
-3.75442e-05
7.70416e-05
-3.16105e-05
8.33927e-05
-2.53894e-05
8.89344e-05
-2.12599e-05
9.35673e-05
-1.70783e-05
9.75465e-05
-1.37387e-05
0.000100971
-1.12172e-05
0.000103885
-8.71716e-06
0.000106411
-6.97312e-06
0.000108531
-5.36361e-06
0.000110307
-3.97722e-06
0.000111762
-2.99713e-06
0.000112927
-1.87681e-06
0.000113852
-1.10322e-06
0.000114576
-5.23342e-07
0.000115115
1.89651e-07
0.000115541
5.02605e-07
0.000115849
1.05096e-06
0.000116046
1.38165e-06
0.000116142
1.50508e-06
0.000116126
1.78866e-06
0.00011607
1.6705e-06
1.97066e-06
-0.000219719
-0.000224424
-0.000189474
-0.00019849
-0.000157985
-0.000219864
-0.000126116
-0.000217244
-9.59455e-05
-0.000197809
-6.69144e-05
-0.000182792
-4.1095e-05
-0.000155537
-1.75011e-05
-0.000137706
2.95188e-06
-0.000115881
2.15228e-05
-9.99035e-05
3.72288e-05
-8.20553e-05
5.08645e-05
-6.91642e-05
6.25965e-05
-5.78235e-05
7.26449e-05
-4.75957e-05
8.13976e-05
-4.03644e-05
8.86906e-05
-3.26859e-05
9.51217e-05
-2.76925e-05
0.000100532
-2.24924e-05
0.000105177
-1.83848e-05
0.000109164
-1.52057e-05
0.000112559
-1.21125e-05
0.00011553
-9.94427e-06
0.000118056
-7.89204e-06
0.000120243
-6.16678e-06
0.000122121
-4.87665e-06
0.000123705
-3.46273e-06
0.000125038
-2.43618e-06
0.000126149
-1.63618e-06
0.000127051
-7.11158e-07
0.000127801
-2.47421e-07
0.000128405
4.46829e-07
0.000128874
9.14144e-07
0.000129219
1.15905e-06
0.000129427
1.58275e-06
0.000129568
1.52751e-06
0.000129622
1.91794e-06
1.88832e-06
-0.000234883
-0.000254593
-0.000203752
-0.000229621
-0.000171458
-0.000252158
-0.00013859
-0.000250112
-0.000107154
-0.000229244
-7.66018e-05
-0.000213344
-4.91222e-05
-0.000183018
-2.3751e-05
-0.000163078
-1.64735e-06
-0.000137986
1.86081e-05
-0.000120161
3.59923e-05
-9.94415e-05
5.11294e-05
-8.43036e-05
6.42357e-05
-7.09318e-05
7.55058e-05
-5.88688e-05
8.54124e-05
-5.02735e-05
9.37362e-05
-4.10122e-05
0.000101097
-3.5055e-05
0.000107376
-2.87747e-05
0.000112824
-2.38332e-05
0.00011751
-1.9893e-05
0.000121491
-1.6095e-05
0.000124975
-1.34303e-05
0.000127935
-1.08568e-05
0.000130517
-8.75217e-06
0.000132784
-7.14721e-06
0.000134743
-5.42399e-06
0.000136455
-4.15199e-06
0.000137941
-3.12482e-06
0.000139206
-1.97785e-06
0.000140304
-1.34704e-06
0.000141233
-4.86196e-07
0.000142015
1.31114e-07
0.000142658
5.1173e-07
0.000143147
1.09239e-06
0.000143543
1.12768e-06
0.000143835
1.62424e-06
1.6815e-06
-0.000250898
-0.000285276
-0.00021893
-0.00026159
-0.000185871
-0.000285217
-0.00015204
-0.000283944
-0.000119386
-0.000261898
-8.73447e-05
-0.000245387
-5.82061e-05
-0.000212158
-3.10135e-05
-0.000190273
-7.19391e-06
-0.000161809
1.48306e-05
-0.000142188
3.39934e-05
-0.000118607
5.07685e-05
-0.000101082
6.53618e-05
-8.55276e-05
7.79518e-05
-7.14616e-05
8.90983e-05
-6.14222e-05
9.85315e-05
-5.04483e-05
0.000106907
-4.34323e-05
0.000114108
-3.59789e-05
0.000120419
-3.0145e-05
0.000125901
-2.53762e-05
0.000130596
-2.07906e-05
0.000134713
-1.75478e-05
0.000138218
-1.43655e-05
0.000141265
-1.18016e-05
0.000143939
-9.82327e-06
0.000146269
-7.75538e-06
0.000148333
-6.21699e-06
0.000150161
-4.95334e-06
0.000151768
-3.58566e-06
0.000153202
-2.77977e-06
0.000154455
-1.74049e-06
0.000155557
-9.69336e-07
0.000156515
-4.47882e-07
0.000157309
2.99553e-07
0.000157989
4.46089e-07
0.000158556
1.05764e-06
1.22813e-06
-0.000267799
-0.000316457
-0.00023505
-0.000294338
-0.00020127
-0.000318997
-0.000166525
-0.000318688
-0.000132717
-0.000295705
-9.92356e-05
-0.000278868
-6.84542e-05
-0.000242941
-3.94093e-05
-0.00021932
-1.37788e-05
-0.000187441
1.00706e-05
-0.000166039
3.11247e-05
-0.000139663
4.96752e-05
-0.000119634
6.5869e-05
-0.000101723
7.99293e-05
-8.55245e-05
9.24256e-05
-7.39209e-05
0.000103072
-6.10964e-05
0.000112571
-5.2934e-05
0.000120755
-4.41644e-05
0.000128003
-3.7393e-05
0.000134342
-3.1716e-05
0.000139813
-2.62633e-05
0.000144663
-2.23996e-05
0.000148827
-1.85339e-05
0.000152467
-1.54445e-05
0.000155643
-1.30021e-05
0.000158405
-1.05203e-05
0.000160855
-8.6691e-06
0.000163018
-7.11863e-06
0.000164948
-5.51736e-06
0.000166698
-4.53132e-06
0.000168264
-3.30999e-06
0.000169675
-2.38215e-06
0.000170939
-1.7153e-06
0.000172039
-8.03e-07
0.000173016
-5.34343e-07
0.000173873
1.98798e-07
5.17962e-07
-0.000285616
-0.000348124
-0.000252151
-0.000327804
-0.0002177
-0.000353448
-0.000182101
-0.000354287
-0.000147218
-0.000330588
-0.00011236
-0.000313727
-7.99685e-05
-0.000275334
-4.90585e-05
-0.000250232
-2.15263e-05
-0.000214976
4.20755e-06
-0.000191776
2.71872e-05
-0.000162646
4.76975e-05
-0.000140148
6.56665e-05
-0.000119695
8.13517e-05
-0.000101213
9.53233e-05
-8.78951e-05
0.000107301
-7.30771e-05
0.000118045
-6.36796e-05
0.000127305
-5.34272e-05
0.000135577
-4.56659e-05
0.000142857
-3.89958e-05
0.000149181
-3.25877e-05
0.000154818
-2.80377e-05
0.000159698
-2.34174e-05
0.000164025
-1.97743e-05
0.000167829
-1.68073e-05
0.000171142
-1.38344e-05
0.000174065
-1.15936e-05
0.000176633
-9.68712e-06
0.000178922
-7.80738e-06
0.000180985
-6.59347e-06
0.000182849
-5.17511e-06
0.000184559
-4.09129e-06
0.000186124
-3.28199e-06
0.000187524
-2.20195e-06
0.000188789
-1.80158e-06
0.000189935
-9.46287e-07
-4.80516e-07
-0.000304392
-0.000380255
-0.000270262
-0.000361933
-0.000235201
-0.000388509
-0.00019882
-0.000390667
-0.00016295
-0.000366457
-0.000126792
-0.000349886
-9.28415e-05
-0.000309285
-6.00743e-05
-0.000283001
-3.05986e-05
-0.000244453
-2.90793e-06
-0.000219469
2.20838e-05
-0.00018764
4.47053e-05
-0.000162771
6.46193e-05
-0.000139612
8.20602e-05
-0.000118656
9.7684e-05
-0.000103521
0.000111128
-8.65228e-05
0.000123252
-7.58052e-05
0.000133734
-6.39105e-05
0.000143109
-5.50411e-05
0.000151427
-4.73145e-05
0.000158694
-3.98554e-05
0.0001652
-3.45466e-05
0.000170864
-2.90842e-05
0.000175925
-2.48385e-05
0.000180415
-2.12993e-05
0.000184381
-1.78023e-05
0.000187907
-1.5122e-05
0.000190992
-1.27741e-05
0.000193728
-1.05443e-05
0.000196178
-9.04515e-06
0.00019838
-7.38007e-06
0.000200387
-6.09996e-06
0.000202238
-5.13648e-06
0.000203933
-3.89914e-06
0.000205494
-3.36496e-06
0.000206927
-2.38088e-06
0.000208204
-1.75724e-06
-1.29835e-06
-0.000324162
-0.000412834
-0.00028942
-0.000396675
-0.000253804
-0.000424125
-0.000216724
-0.000427747
-0.000179961
-0.00040322
-0.000142592
-0.000387256
-0.000107154
-0.000344726
-7.2559e-05
-0.000317598
-4.11204e-05
-0.000275895
-1.14286e-05
-0.000249164
1.56501e-05
-0.000214721
4.04715e-05
-0.000187596
6.25252e-05
-0.000161668
8.19069e-05
-0.00013804
9.93738e-05
-0.000120991
0.000114431
-0.000101582
0.000128085
-8.94612e-05
0.000139937
-7.57643e-05
0.000150534
-6.56387e-05
0.000160006
-5.67869e-05
0.000168324
-4.81742e-05
0.000175802
-4.20267e-05
0.000182333
-3.56173e-05
0.000188204
-3.07111e-05
0.000193438
-2.65353e-05
0.0001981
-2.24652e-05
0.000202298
-1.93212e-05
0.000206009
-1.64849e-05
0.000209317
-1.38532e-05
0.000212263
-1.19909e-05
0.000214889
-1.00069e-05
0.000217272
-8.48236e-06
0.00021945
-7.31557e-06
0.000221438
-5.88781e-06
0.000223279
-5.20726e-06
0.000225003
-4.10399e-06
0.000226586
-3.34158e-06
-2.74459e-06
-0.000344956
-0.00044584
-0.000309655
-0.000431976
-0.000273542
-0.000460238
-0.000235845
-0.000465443
-0.000198284
-0.000440781
-0.000159808
-0.000425732
-0.000122971
-0.000381564
-8.66046e-05
-0.000353966
-5.32122e-05
-0.000309289
-2.13988e-05
-0.000280979
7.75502e-06
-0.000243877
3.48256e-05
-0.000214669
5.921e-05
-0.000186055
8.07315e-05
-0.000159564
0.000100193
-0.000140455
0.000117065
-0.000118456
0.000132413
-0.000104811
0.000145801
-8.91527e-05
0.000157809
-7.76477e-05
0.000168532
-6.75098e-05
0.000178026
-5.76702e-05
0.000186599
-5.06015e-05
0.000194103
-4.31236e-05
0.000200876
-3.74868e-05
0.000206935
-3.25956e-05
0.000212359
-2.78906e-05
0.000217276
-2.42404e-05
0.000221656
-2.08658e-05
0.00022562
-1.78188e-05
0.000229174
-1.55458e-05
0.000232344
-1.31792e-05
0.000235203
-1.1343e-05
0.000237791
-9.90627e-06
0.00024015
-8.2488e-06
0.000242316
-7.3762e-06
0.000244327
-6.11573e-06
0.000246205
-5.21942e-06
-4.48284e-06
-0.000366792
-0.000479279
-0.000330991
-0.000467778
-0.00029444
-0.000496789
-0.000256209
-0.000503673
-0.000217946
-0.000479045
-0.000178472
-0.000465207
-0.000140346
-0.000419692
-0.000102294
-0.00039202
-6.69907e-05
-0.000344595
-3.30509e-05
-0.000314922
-1.7853e-06
-0.000275146
2.75943e-05
-0.000244051
5.44093e-05
-0.000212873
7.82899e-05
-0.000183447
9.99562e-05
-0.000162123
0.000118856
-0.000137357
0.00013608
-0.000122037
0.000151177
-0.000104251
0.000164776
-9.12478e-05
0.000176919
-7.96533e-05
0.000187724
-6.84763e-05
0.000197532
-6.0411e-05
0.000206138
-5.17312e-05
0.000213931
-4.52822e-05
0.000220917
-3.95826e-05
0.000227191
-3.41651e-05
0.000232902
-2.99524e-05
0.000238011
-2.59754e-05
0.00024267
-2.24776e-05
0.000246884
-1.97604e-05
0.000250696
-1.69917e-05
0.000254143
-1.47894e-05
0.00025725
-1.3014e-05
0.000260071
-1.10702e-05
0.000262646
-9.95271e-06
0.000265019
-8.48802e-06
0.000267226
-7.42798e-06
-6.49846e-06
-0.000389697
-0.000513134
-0.000353453
-0.000504021
-0.00031652
-0.000533722
-0.000277831
-0.000542362
-0.000238961
-0.000517915
-0.000198605
-0.000505564
-0.000159317
-0.000458981
-0.000119697
-0.000431642
-8.25586e-05
-0.000381735
-4.65199e-05
-0.000350962
-1.30904e-05
-0.000308578
1.86049e-05
-0.000275749
4.79132e-05
-0.000242183
7.43606e-05
-0.000209897
9.84579e-05
-0.000186223
0.000119541
-0.000158442
0.000138889
-0.000141387
0.000155886
-0.000121249
0.000171274
-0.000106636
0.000185056
-9.34361e-05
0.000197302
-8.07239e-05
0.000208505
-7.16162e-05
0.000218363
-6.15908e-05
0.000227317
-5.42381e-05
0.000235357
-4.7624e-05
0.000242593
-4.14023e-05
0.000249199
-3.656e-05
0.000255122
-3.18984e-05
0.000260545
-2.79023e-05
0.000265476
-2.46928e-05
0.000269967
-2.14845e-05
0.000274073
-1.88971e-05
0.000277805
-1.67476e-05
0.000281196
-1.44629e-05
0.00028428
-1.30391e-05
0.000287103
-1.13117e-05
0.000289718
-1.0042e-05
-8.88819e-06
-0.000413698
-0.000547392
-0.000377061
-0.000540658
-0.000339794
-0.00057099
-0.000300719
-0.000581437
-0.000261337
-0.000557298
-0.000220242
-0.000546661
-0.000179912
-0.000499312
-0.000138866
-0.000472691
-0.000100001
-0.000420603
-6.19297e-05
-0.000389036
-2.62842e-05
-0.000344226
7.68814e-06
-0.000309724
3.95145e-05
-0.000274013
6.86116e-05
-0.000238997
9.53913e-05
-0.000213005
0.000118901
-0.000181954
0.000140602
-0.00016309
0.000159718
-0.000140367
0.000177098
-0.000124017
0.000192733
-0.000109072
0.000206645
-9.46371e-05
0.000219389
-8.43619e-05
0.000230668
-7.28709e-05
0.000240947
-6.4519e-05
0.000250192
-5.68701e-05
0.000258526
-4.97367e-05
0.000266152
-4.41867e-05
0.000272995
-3.87422e-05
0.000279283
-3.41898e-05
0.000285013
-3.0423e-05
0.000290251
-2.67229e-05
0.000295066
-2.37131e-05
0.000299469
-2.11508e-05
0.00030352
-1.85142e-05
0.000307223
-1.67432e-05
0.0003106
-1.46872e-05
0.000313712
-1.31561e-05
0.000316555
-1.17303e-05
-1.03865e-05
-0.000438824
-0.000582045
-0.000401833
-0.000577649
-0.000364273
-0.00060855
-0.000324878
-0.000620833
-0.000285073
-0.000597103
-0.000243366
-0.000588369
-0.000202145
-0.000540535
-0.000159835
-0.000515002
-0.000119378
-0.000461062
-7.93798e-05
-0.000429037
-4.15715e-05
-0.000382036
-5.34019e-06
-0.000345958
2.90144e-05
-0.000308369
6.08304e-05
-0.000270815
9.05104e-05
-0.000242687
0.00011668
-0.000208125
0.00014091
-0.000187321
0.000162423
-0.000161882
0.00018202
-0.000143614
0.000199734
-0.000126787
0.000215551
-0.000110456
0.000230036
-9.8849e-05
0.000242913
-8.57492e-05
0.000254703
-7.631e-05
0.000265329
-6.74981e-05
0.000274922
-5.933e-05
0.000283715
-5.29812e-05
0.000291611
-4.6639e-05
0.000298882
-4.14622e-05
0.000305519
-3.70608e-05
0.0003116
-3.2805e-05
0.000317206
-2.93211e-05
0.000322345
-2.6291e-05
0.000327101
-2.32721e-05
0.000331485
-2.11288e-05
0.000335521
-1.87243e-05
0.000339244
-1.68774e-05
0.000342652
-1.51406e-05
-1.34515e-05
-0.0004651
-0.00061709
-0.000427783
-0.000614967
-0.000389962
-0.00064637
-0.000350303
-0.000660493
-0.00031016
-0.000637248
-0.000267965
-0.000630565
-0.000226007
-0.000582495
-0.000182611
-0.000558401
-0.000140721
-0.000502955
-9.89363e-05
-0.000470824
-5.906e-05
-0.000421915
-2.04929e-05
-0.000384527
1.62626e-05
-0.000345127
5.07684e-05
-0.000305323
8.33809e-05
-0.000275302
0.000112507
-0.000237254
0.000139553
-0.000214369
0.000163664
-0.000185994
0.000185762
-0.000165714
0.000205795
-0.000146821
0.000223764
-0.000128427
0.000240275
-0.000115361
0.000254918
-0.000100393
0.000268425
-8.98191e-05
0.000280636
-7.97094e-05
0.000291676
-7.0371e-05
0.000301813
-6.31194e-05
0.000310919
-5.57449e-05
0.000319319
-4.9863e-05
0.000326993
-4.47355e-05
0.000334036
-3.98479e-05
0.000340542
-3.58276e-05
0.00034651
-3.22599e-05
0.00035205
-2.88127e-05
0.000357173
-2.62523e-05
0.00036192
-2.34704e-05
0.000366333
-2.12919e-05
0.000370425
-1.92315e-05
-1.71399e-05
-0.000492552
-0.000652528
-0.000454924
-0.000652596
-0.000416865
-0.00068443
-0.00037699
-0.000700369
-0.000336583
-0.000677656
-0.000294018
-0.000673132
-0.000251473
-0.000625042
-0.000207174
-0.000602702
-0.000164033
-0.000546099
-0.000120636
-0.000514223
-7.88351e-05
-0.000463718
-3.8033e-05
-0.000425332
1.08544e-06
-0.000384248
3.8242e-05
-0.000342482
7.38409e-05
-0.000310904
0.000106029
-0.000269443
0.000136171
-0.000244514
0.000163126
-0.000212951
0.000187994
-0.000190582
0.000210619
-0.000169449
0.000230994
-0.000148803
0.000249802
-0.000134171
0.00026651
-0.000117103
0.000281913
-0.000105223
0.00029593
-9.37282e-05
0.000308636
-8.30773e-05
0.000320325
-7.48098e-05
0.000330827
-6.62481e-05
0.00034053
-5.95666e-05
0.0003494
-5.36062e-05
0.000357547
-4.7996e-05
0.000365085
-4.33669e-05
0.000372002
-3.91783e-05
0.000378435
-3.52472e-05
0.000384391
-3.22093e-05
0.000389926
-2.90064e-05
0.000395084
-2.64489e-05
0.000399913
-2.40624e-05
0.000404329
-2.1556e-05
-2.01821e-05
-0.0005212
-0.000688366
-0.000483266
-0.000690531
-0.000444982
-0.000722714
-0.000404928
-0.000740425
-0.000364321
-0.000718264
-0.000321489
-0.000715966
-0.000278501
-0.000668032
-0.000233486
-0.000647719
-0.000189288
-0.0005903
-0.000144479
-0.000559035
-0.000100933
-0.000507266
-5.80384e-05
-0.000468229
-1.65248e-05
-0.000425764
2.3101e-05
-0.00038211
6.15914e-05
-0.000349397
9.69071e-05
-0.000304761
0.00013041
-0.000278019
0.000160486
-0.000243029
0.000188312
-0.00021841
0.00021386
-0.000194999
0.000236915
-0.000171859
0.000258298
-0.000155555
0.000277365
-0.000136171
0.00029496
-0.000122819
0.00031099
-0.000109759
0.0003256
-9.76886e-05
0.000339079
-8.82895e-05
0.000351198
-7.83676e-05
0.000362408
-7.07778e-05
0.000372661
-6.38602e-05
0.000382085
-5.74205e-05
0.000390815
-5.20973e-05
0.000398825
-4.71891e-05
0.000406286
-4.27087e-05
0.000413197
-3.91205e-05
0.000419629
-3.5438e-05
0.000425626
-3.24473e-05
0.000431252
-2.96881e-05
0.000436477
-2.67836e-05
-2.49695e-05
-0.000551064
-0.00072462
-0.00051282
-0.000728776
-0.000474313
-0.000761222
-0.000434102
-0.000780637
-0.000393346
-0.000759022
-0.000350334
-0.00075898
-0.000307029
-0.00071134
-0.000261486
-0.000693264
-0.000216429
-0.000635358
-0.000170427
-0.000605039
-0.000125345
-0.00055235
-8.05514e-05
-0.000513025
-3.67993e-05
-0.000469519
5.27074e-06
-0.000424183
4.65287e-05
-0.000390657
8.48888e-05
-0.000343124
0.000121738
-0.00031487
0.000155274
-0.000276566
0.000186396
-0.000249533
0.000215049
-0.000223653
0.000241139
-0.000197951
0.000265398
-0.000179817
0.000287123
-0.000157897
0.000307242
-0.000142939
0.000325569
-0.000128088
0.00034232
-0.000114441
0.000357852
-0.000103823
0.00037184
-9.2356e-05
0.000384799
-8.37382e-05
0.000396659
-7.57213e-05
0.000407565
-6.83271e-05
0.000417676
-6.221e-05
0.000426952
-5.64657e-05
0.0004356
-5.13582e-05
0.000443613
-4.71339e-05
0.000451079
-4.29052e-05
0.000458044
-3.94108e-05
0.000464567
-3.62142e-05
0.000470687
-3.29029e-05
0.000476331
-3.06151e-05
-2.805e-05
-0.00058216
-0.000761306
-0.000543591
-0.000767346
-0.000504854
-0.00079996
-0.000464497
-0.000820996
-0.000423623
-0.000799897
-0.0003805
-0.000802105
-0.000336985
-0.000754856
-0.000291091
-0.00073916
-0.000245371
-0.00068108
-0.0001984
-0.000652012
-0.000152015
-0.000598737
-0.000105551
-0.000559492
-5.97626e-05
-0.00051531
-1.53244e-05
-0.000468624
2.84747e-05
-0.000434458
6.97669e-05
-0.000384418
0.000110002
-0.000355108
0.00014701
-0.000313575
0.000181745
-0.00028427
0.000213832
-0.000255742
0.000243178
-0.000227298
0.000270678
-0.000207319
0.000295378
-0.000182598
0.000318348
-0.000165911
0.000339341
-0.000149082
0.000358511
-0.000133612
0.000376364
-0.000121676
0.000392501
-0.000108494
0.000407486
-9.87245e-05
0.000421214
-8.94507e-05
0.000433845
-8.09584e-05
0.000445565
-7.39315e-05
0.000456313
-6.72145e-05
0.000466342
-6.13879e-05
0.000475633
-5.64254e-05
0.000484296
-5.15667e-05
0.000492382
-4.74988e-05
0.000499942
-4.37737e-05
0.000507063
-4.0027e-05
0.000513678
-3.72309e-05
-3.417e-05
-0.000614503
-0.000798452
-0.000575585
-0.000806265
-0.000536597
-0.000838949
-0.000496088
-0.000861505
-0.000455112
-0.000840874
-0.000411931
-0.000845288
-0.000368318
-0.000798471
-0.000322209
-0.00078527
-0.000276
-0.000727291
-0.000228284
-0.00069973
-0.000180839
-0.000646184
-0.00013296
-0.000607374
-8.53801e-05
-0.000562892
-3.87914e-05
-0.000515214
7.53398e-06
-0.000480786
5.14807e-05
-0.000428367
9.48814e-05
-0.00039851
0.000135451
-0.000354147
0.000173921
-0.000322742
0.000209743
-0.000291566
0.000242622
-0.000260178
0.000273629
-0.000238327
0.000301667
-0.000210637
0.000327833
-0.000192078
0.000351844
-0.000173095
0.000373834
-0.000155603
0.0003943
-0.000142143
0.000412869
-0.000127065
0.000430187
-0.000116043
0.000446082
-0.000105347
0.000460721
-9.55988e-05
0.000474319
-8.753e-05
0.000486784
-7.96813e-05
0.000498424
-7.30282e-05
0.000509205
-6.72074e-05
0.00051926
-6.16223e-05
0.000528652
-5.68907e-05
0.00053742
-5.25438e-05
0.000545684
-4.82913e-05
0.000553409
-4.49581e-05
0.00056058
-4.13416e-05
-3.88613e-05
-0.000648103
-0.000836092
-0.000608802
-0.000845567
-0.000569533
-0.000878219
-0.000528853
-0.000902186
-0.00048777
-0.000881957
-0.000444556
-0.000888504
-0.000400904
-0.000842124
-0.000354717
-0.000831459
-0.000308179
-0.00077383
-0.000259928
-0.000747983
-0.000211668
-0.000694446
-0.000162642
-0.000656402
-0.000113548
-0.000611988
-6.50716e-05
-0.000563692
-1.64458e-05
-0.000529414
3.00568e-05
-0.000474871
7.63895e-05
-0.000444844
0.000120263
-0.000398022
0.00016248
-0.00036496
0.000202298
-0.000331385
0.000239018
-0.0002969
0.000273775
-0.000273085
0.000305448
-0.000242311
0.000335189
-0.000221821
0.000362584
-0.000200491
0.00038777
-0.000180789
0.000411283
-0.000165658
0.000432591
-0.000148375
0.000452552
-0.000136005
0.000470946
-0.000123742
0.000487917
-0.000112571
0.000503704
-0.000103318
0.000518177
-9.41557e-05
0.0005317
-8.65521e-05
0.000544224
-7.97324e-05
0.000555906
-7.33025e-05
0.000566823
-6.78104e-05
0.000577005
-6.27252e-05
0.000586596
-5.78847e-05
0.000595589
-5.39522e-05
0.000603982
-4.9737e-05
-4.66711e-05
-0.000682967
-0.000874269
-0.000643238
-0.000885297
-0.000603646
-0.000917812
-0.00056276
-0.000943073
-0.00052155
-0.000923168
-0.000478303
-0.000931752
-0.000434638
-0.000885791
-0.00038847
-0.000877626
-0.000341758
-0.000820543
-0.000293157
-0.000796584
-0.000244309
-0.000743296
-0.000194407
-0.000706305
-0.000144089
-0.000662307
-9.40207e-05
-0.000613762
-4.33911e-05
-0.000580044
5.47974e-06
-0.000523743
5.44572e-05
-0.000493823
0.000101426
-0.000444993
0.000147206
-0.000410741
0.000190923
-0.000375103
0.000231833
-0.000337811
0.000270671
-0.000311924
0.000306194
-0.000277835
0.000339832
-0.000255461
0.00037101
-0.00023167
0.000399779
-0.00020956
0.000426748
-0.000192628
0.000451254
-0.000172883
0.000474201
-0.000158954
0.000495416
-0.000144958
0.000515076
-0.000132233
0.000533406
-0.000121649
0.000550224
-0.000110975
0.000565952
-0.00010228
0.000580518
-9.42994e-05
0.000594105
-8.68906e-05
0.00060681
-8.05148e-05
0.000618651
-7.45685e-05
0.000629798
-6.90324e-05
0.00064025
-6.44057e-05
0.000650064
-5.95531e-05
0.0006592
-5.58084e-05
-5.22404e-05
-0.000719098
-0.000913041
-0.000678885
-0.00092551
-0.000638914
-0.000957785
-0.000597774
-0.000984213
-0.0005564
-0.000964544
-0.000513104
-0.000975049
-0.00046943
-0.000929465
-0.000423316
-0.000923742
-0.000376559
-0.0008673
-0.000327767
-0.000845377
-0.000278533
-0.000792532
-0.000228009
-0.000756829
-0.000176761
-0.000713557
-0.00012541
-0.000665113
-7.31023e-05
-0.000632354
-2.21747e-05
-0.000574671
2.93182e-05
-0.000545317
7.89753e-05
-0.000494651
0.000128028
-0.000459795
0.000175521
-0.000422598
0.000220442
-0.000382733
0.000263749
-0.000355233
0.000303464
-0.000317551
0.000341203
-0.000293201
0.00037649
-0.000266958
0.000409262
-0.000242334
0.000440103
-0.00022347
0.000468234
-0.000201016
0.000494656
-0.000185378
0.000519081
-0.000169384
0.000541768
-0.000154921
0.00056303
-0.000142914
0.000582569
-0.000130515
0.000600872
-0.000120584
0.000617831
-0.00011126
0.000633654
-0.000102713
0.000648455
-9.53184e-05
0.000662247
-8.83597e-05
0.000675228
-8.20166e-05
0.000687386
-7.65654e-05
0.000698842
-7.10108e-05
0.00070954
-6.65083e-05
-6.22331e-05
-0.000756489
-0.000952473
-0.000715725
-0.000966276
-0.000675306
-0.000998204
-0.000633849
-0.00102567
-0.000592252
-0.00100614
-0.000548878
-0.00101842
-0.000505173
-0.00097317
-0.000459115
-0.0009698
-0.000412385
-0.000914031
-0.000363532
-0.00089423
-0.000314079
-0.000841986
-0.00026316
-0.000807749
-0.000211257
-0.000765461
-0.000158938
-0.000717433
-0.000105296
-0.000685996
-5.26518e-05
-0.000627316
9.93008e-07
-0.000598963
5.32304e-05
-0.000546889
0.000105087
-0.000511652
0.00015599
-0.000473501
0.000204832
-0.000431576
0.000252381
-0.000402782
0.000296667
-0.000361838
0.000338856
-0.000335392
0.000378456
-0.000306559
0.000415538
-0.000279418
0.000450695
-0.000258628
0.000482886
-0.000233209
0.000513243
-0.000215736
0.000541392
-0.000197534
0.000567548
-0.000181079
0.000592093
-0.00016746
0.000614769
-0.000153193
0.000636058
-0.000141874
0.000655812
-0.000131014
0.000674256
-0.00012116
0.000691521
-0.000112583
0.000707604
-0.000104446
0.000722749
-9.71622e-05
0.000736918
-9.07369e-05
0.000750284
-8.43792e-05
0.00076281
-7.90361e-05
0.000774501
-7.3925e-05
-6.95909e-05
-0.000795128
-0.000992641
-0.000753733
-0.00100767
-0.000712784
-0.00103915
-0.000670928
-0.00106753
-0.000629035
-0.00104804
-0.000585515
-0.00106194
-0.00054174
-0.00101695
-0.000495738
-0.0010158
-0.000449041
-0.000960729
-0.000400211
-0.000943061
-0.000350666
-0.000891532
-0.000299535
-0.000858882
-0.00024722
-0.000817777
-0.000194224
-0.00077043
-0.000139594
-0.000740628
-8.55884e-05
-0.000681322
-3.01772e-05
-0.000654375
2.42427e-05
-0.00060131
7.87434e-05
-0.000566154
0.000132571
-0.000527329
0.000184902
-0.000483909
0.000236587
-0.000454468
0.000285179
-0.000410431
0.000332183
-0.000382397
0.000376447
-0.000350824
0.000418065
-0.000321037
0.000457807
-0.000298372
0.000494511
-0.000269914
0.000529266
-0.000250493
0.000561622
-0.000229892
0.000591785
-0.000211243
0.000620136
-0.000195813
0.000646307
-0.000179365
0.000671021
-0.00016659
0.000694011
-0.000154007
0.000715512
-0.000142662
0.000735661
-0.000132735
0.000754438
-0.000123223
0.000772128
-0.000114856
0.000788673
-0.000107284
0.000804285
-9.99942e-05
0.000818952
-9.37043e-05
0.00083266
-8.76353e-05
-8.24296e-05
-0.000834995
-0.00103363
-0.000792875
-0.00104979
-0.000751301
-0.00108073
-0.000708949
-0.00110988
-0.000666664
-0.00109032
-0.000622908
-0.0011057
-0.000578985
-0.00106087
-0.000532986
-0.0010618
-0.00048634
-0.00100738
-0.000437535
-0.000991867
-0.000387978
-0.000941091
-0.00033678
-0.000910081
-0.00028425
-0.000870308
-0.000230832
-0.00082385
-0.000175531
-0.000795929
-0.000120517
-0.000736338
-6.37358e-05
-0.000711157
-7.53967e-06
-0.000657507
4.9189e-05
-0.000622883
0.0001057
-0.000583841
0.000161015
-0.000539225
0.000216336
-0.00050979
0.000269111
-0.000463208
0.00032063
-0.000433917
0.00036985
-0.000400045
0.000416355
-0.000367543