/*--------------------------------*- C++ -*----------------------------------*\
  =========                 |
  \\      /  F ield         | OpenFOAM: The Open Source CFD Toolbox
   \\    /   O peration     | Website:  https://openfoam.org
    \\  /    A nd           | Version:  10
     \\/     M anipulation  |
\*---------------------------------------------------------------------------*/
FoamFile
{
    format      ascii;
    class       volVectorField;
    location    "0.001";
    object      U;
}
// * * * * * * * * * * * * * * * * * * * * * * * * * * * * * * * * * * * * * //

dimensions      [0 1 -1 0 0 0 0];

internalField   nonuniform List<vector> 
8924
(
(-0.410931 -6.94706 0)
(-0.601948 -5.51132 0)
(-0.876334 -4.62057 0)
(-0.877268 -3.30598 3.34684e-15)
(-0.755197 -2.23264 7.46412e-18)
(-0.534424 -1.28357 -8.21422e-18)
(-0.284226 -0.55186 4.77365e-15)
(-0.00177333 -7.52524e-05 -4.85458e-15)
(0.229272 0.401662 -9.31925e-18)
(0.450202 0.687331 0)
(0.655588 0.880144 0)
(0.829884 1.00711 -1.55447e-17)
(0.982339 1.08591 1.49436e-17)
(1.10232 1.12073 -3.73019e-15)
(1.2009 1.13301 1.38243e-17)
(1.27838 1.1252 3.50108e-15)
(1.33974 1.10587 6.69438e-15)
(1.39028 1.07835 -6.6166e-15)
(1.42505 1.04255 6.38253e-15)
(1.45254 1.00623 0)
(1.47139 0.966297 1.22251e-14)
(1.49137 0.930104 5.8717e-15)
(1.51669 0.899049 2.28895e-17)
(1.54218 0.869952 5.63415e-15)
(1.56911 0.843823 5.51567e-15)
(1.59011 0.816042 5.41335e-15)
(1.60646 0.788227 0)
(1.62063 0.761169 5.21656e-15)
(1.63053 0.733569 -5.05527e-15)
(1.63656 0.706726 1.93746e-17)
(1.63578 0.678288 -1.90451e-17)
(1.63268 0.650878 -4.72431e-15)
(1.63064 0.624987 0)
(1.62805 0.599857 -4.59326e-15)
(1.62648 0.576861 0)
(1.6213 0.554099 -1.74308e-17)
(-0.351731 -9.41451 0)
(-0.739938 -7.79512 0)
(-1.19685 -6.37555 1.62041e-18)
(-1.29268 -4.73704 -1.75659e-18)
(-1.17582 -3.32919 -3.95956e-18)
(-0.860285 -2.0647 4.37177e-18)
(-0.435345 -1.00179 0)
(0.0624209 -0.136695 0)
(0.540056 0.551509 1.16352e-17)
(1.00407 1.10776 -1.1207e-17)
(1.47882 1.52494 -2.88037e-15)
(1.92312 1.8381 2.82593e-15)
(2.3402 2.08296 4.17732e-22)
(2.68798 2.23284 1.11132e-17)
(2.99729 2.33543 0)
(3.2647 2.38815 0)
(3.486 2.40712 -5.64039e-15)
(3.67111 2.40061 5.73196e-15)
(3.81554 2.36708 -5.69476e-15)
(3.93345 2.32235 0)
(4.02512 2.26307 -5.7146e-15)
(4.11218 2.20419 -2.16643e-17)
(4.20539 2.15081 -5.49565e-15)
(4.29658 2.10033 2.0591e-17)
(4.38717 2.05409 -1.02253e-14)
(4.46215 2.003 -9.982e-15)
(4.52266 1.94949 0)
(4.57533 1.89525 -4.7843e-15)
(4.61408 1.83858 0)
(4.64278 1.78189 -4.57758e-15)
(4.65485 1.721 1.76017e-17)
(4.65866 1.66068 0)
(4.66324 1.60241 3.44253e-17)
(4.66618 1.54633 4.26307e-15)
(4.66922 1.49335 4.25725e-15)
(4.66322 1.43986 0)
(-0.0460784 -9.56469 0)
(-0.50247 -8.04008 0)
(-1.02055 -6.58712 0)
(-1.16626 -4.99369 -4.55212e-16)
(-1.08903 -3.58389 0)
(-0.807171 -2.30523 0)
(-0.393537 -1.20433 4.44983e-18)
(0.106984 -0.288669 -1.19614e-15)
(0.63099 0.454323 -9.99387e-18)
(1.144 1.07211 1.27542e-15)
(1.66958 1.56445 5.16802e-18)
(2.19055 1.94887 -1.34189e-15)
(2.69381 2.26123 0)
(3.1562 2.4928 0)
(3.57952 2.66463 -1.11869e-17)
(3.96314 2.78602 -1.49131e-15)
(4.30236 2.8637 1.18177e-17)
(4.60713 2.91034 -3.1644e-15)
(4.87034 2.92576 0)
(5.10374 2.92192 0)
(5.30455 2.89618 -3.35198e-15)
(5.47293 2.85304 0)
(5.61593 2.79829 3.27736e-15)
(5.74146 2.73735 -3.12618e-15)
(5.85625 2.67723 3.01965e-15)
(5.95499 2.61301 -1.03126e-20)
(6.03832 2.54665 -2.81591e-15)
(6.1106 2.47909 5.55369e-15)
(6.16795 2.40915 2.70708e-15)
(6.21504 2.33995 2.64712e-15)
(6.24828 2.26772 2.04737e-17)
(6.27111 2.19555 2.54923e-15)
(6.28963 2.12385 0)
(6.30241 2.05349 5.69226e-21)
(6.3123 1.98593 -2.46819e-15)
(6.31512 1.91878 2.45543e-15)
(0.218855 -9.50735 -2.6559e-19)
(-0.273417 -8.0634 2.82897e-19)
(-0.788753 -6.64403 1.11105e-18)
(-0.966528 -5.12112 2.87216e-16)
(-0.928418 -3.74209 -6.08819e-16)
(-0.692366 -2.47894 0)
(-0.317442 -1.37243 -6.71896e-16)
(0.157245 -0.437248 6.96045e-16)
(0.677126 0.332083 7.38296e-16)
(1.19983 0.975004 -1.48257e-15)
(1.73324 1.50483 7.70031e-16)
(2.26881 1.91904 0)
(2.78696 2.25687 8.07362e-16)
(3.27514 2.51897 0)
(3.73786 2.72381 -1.68465e-15)
(4.16703 2.87773 -6.96928e-18)
(4.55855 2.98896 0)
(4.91469 3.0658 1.88576e-15)
(5.23462 3.10969 -1.92696e-15)
(5.52621 3.13321 1.96814e-15)
(5.78655 3.1329 2.05749e-15)
(6.01377 3.11252 0)
(6.20735 3.075 9.05947e-21)
(6.36975 3.02206 0)
(6.51034 2.96357 1.53829e-17)
(6.63179 2.89911 3.85004e-15)
(6.73655 2.83146 -1.44984e-17)
(6.82742 2.76165 -1.84196e-15)
(6.90289 2.68892 -1.76553e-15)
(6.96698 2.61663 -1.77088e-15)
(7.01881 2.5418 -1.36257e-17)
(7.05952 2.4666 -1.69883e-15)
(7.09257 2.39074 1.69739e-15)
(7.11678 2.31512 -1.6636e-15)
(7.13532 2.24155 2.71251e-22)
(7.14752 2.16873 -1.61287e-15)
(0.495561 -9.40821 2.00883e-19)
(-0.0193149 -8.04152 1.07494e-16)
(-0.522765 -6.67074 2.11572e-16)
(-0.728134 -5.2213 -2.11284e-16)
(-0.732122 -3.88067 4.4646e-16)
(-0.543647 -2.6419 4.51118e-16)
(-0.213002 -1.54099 4.87183e-16)
(0.225333 -0.598201 4.97298e-16)
(0.724247 0.188805 -5.2908e-16)
(1.23828 0.852079 5.3428e-16)
(1.7664 1.40716 0)
(2.30411 1.84764 4.41096e-18)
(2.8294 2.20939 -5.78545e-16)
(3.32885 2.49391 -4.66839e-18)
(3.80298 2.71703 -4.71119e-18)
(4.24427 2.88685 6.3332e-16)
(4.6523 3.01434 1.27795e-15)
(5.03364 3.10987 -1.33058e-15)
(5.38347 3.17302 -5.30103e-18)
(5.70601 3.21343 -1.39191e-15)
(5.99764 3.22998 -1.42581e-15)
(6.26028 3.22769 1.12752e-17)
(6.49148 3.20768 -1.5096e-15)
(6.6901 3.16951 -1.48445e-15)
(6.86088 3.12107 -1.46821e-15)
(7.00839 3.06333 -1.13846e-17)
(7.13686 3.00034 1.42941e-15)
(7.24841 2.93355 -1.41773e-15)
(7.34316 2.8627 -1.37679e-15)
(7.4249 2.7913 1.36467e-15)
(7.49433 2.7172 1.06187e-17)
(7.55207 2.64225 -1.04478e-17)
(7.60007 2.56583 3.94763e-21)
(7.63705 2.48865 1.30316e-15)
(7.66598 2.4126 1.00837e-17)
(7.688 2.33715 -9.96871e-18)
(0.779736 -9.2908 -4.15362e-17)
(0.249131 -7.99891 -8.64262e-17)
(-0.241967 -6.68219 -3.37587e-16)
(-0.473149 -5.30534 1.67847e-16)
(-0.516027 -4.0083 -6.92224e-19)
(-0.374283 -2.79893 -3.5801e-16)
(-0.0894305 -1.70991 -3.85856e-16)
(0.308482 -0.76526 -3.9518e-16)
(0.779739 0.0323605 -3.29423e-18)
(1.27589 0.711655 4.29522e-16)
(1.79021 1.28573 4.44026e-16)
(2.31975 1.74957 -4.51247e-16)
(2.84463 2.13244 3.61107e-18)
(3.35001 2.43945 4.69406e-16)
(3.83297 2.68235 9.63493e-16)
(4.2837 2.86863 0)
(4.70161 3.00938 -1.00882e-15)
(5.09172 3.11597 1.05158e-15)
(5.45194 3.19018 -8.34521e-18)
(5.78791 3.24118 8.50585e-18)
(6.09909 3.26997 2.2504e-15)
(6.38522 3.28023 0)
(6.64144 3.27387 0)
(6.86818 3.24991 1.17788e-15)
(7.06716 3.21415 1.18549e-15)
(7.24113 3.16646 -1.19619e-15)
(7.39399 3.11131 0)
(7.52687 3.0503 1.18994e-15)
(7.64145 2.98381 1.15612e-15)
(7.74138 2.91555 -1.15294e-15)
(7.82842 2.84406 9.08332e-18)
(7.90299 2.77112 -2.2174e-22)
(7.96621 2.69602 -1.15997e-15)
(8.01683 2.61925 -1.12219e-15)
(8.05745 2.54269 -1.09558e-15)
(8.09021 2.46641 -1.72165e-17)
(1.06872 -9.16363 3.48447e-17)
(0.528063 -7.94386 0)
(0.0489016 -6.68432 2.82306e-16)
(-0.20583 -5.37837 -1.40823e-16)
(-0.284557 -4.12818 2.95772e-16)
(-0.188122 -2.95142 -1.16684e-18)
(0.0504855 -1.87845 3.21854e-16)
(0.406005 -0.935668 -1.2827e-18)
(0.845452 -0.132151 -3.48681e-16)
(1.31868 0.558368 -7.15653e-16)
(1.81365 1.14781 -7.43195e-16)
(2.32752 1.6327 3.77687e-16)
(2.84516 2.03293 -3.86963e-16)
(3.34931 2.3591 -3.98979e-16)
(3.83637 2.62195 8.09033e-16)
(4.29546 2.82692 8.34794e-16)
(4.72298 2.98376 -8.41606e-16)
(5.12144 3.10291 -1.75925e-15)
(5.48995 3.1872 6.92804e-18)
(5.83403 3.24666 0)
(6.15288 3.28321 -9.25124e-16)
(6.44832 3.30158 -9.41561e-16)
(6.71961 3.3042 0)
(6.96723 3.29128 9.77478e-16)
(7.18944 3.26675 0)
(7.38642 3.22981 -7.89438e-18)
(7.56198 3.18415 2.41618e-22)
(7.71633 3.13092 -1.01312e-15)
(7.85162 3.0709 7.96245e-18)
(7.97081 3.0076 1.00908e-15)
(8.0761 2.94025 -1.01538e-15)
(8.16787 2.87071 -1.59883e-17)
(8.24661 2.79827 -1.03151e-15)
(8.31142 2.7233 -1.57921e-17)
(8.36475 2.64761 1.02236e-15)
(8.4093 2.57182 1.56239e-17)
(1.36156 -9.03067 -2.97564e-17)
(0.817602 -7.88035 -6.15994e-17)
(0.349495 -6.67988 -4.73778e-19)
(0.0739431 -5.44303 1.21997e-16)
(-0.038206 -4.24175 -2.53096e-16)
(0.0146807 -3.10012 9.98297e-19)
(0.207259 -2.04667 -1.07e-18)
(0.518712 -1.10921 2.77755e-16)
(0.92281 -0.302983 6.0186e-16)
(1.36907 0.396101 6.08617e-16)
(1.84128 0.997804 3.14602e-16)
(2.33472 1.50028 3.24549e-16)
(2.83928 1.91618 3.29871e-16)
(3.33678 2.25886 3.39839e-16)
(3.82204 2.53918 -6.83679e-16)
(4.28385 2.76139 -7.16042e-16)
(4.71882 2.93517 5.58663e-18)
(5.12665 3.0701 7.38822e-16)
(5.50449 3.16764 7.5313e-16)
(5.85648 3.23736 7.66992e-16)
(6.18225 3.2819 7.90092e-16)
(6.48524 3.30672 7.91288e-16)
(6.76391 3.31584 0)
(7.02011 3.30987 4.90651e-21)
(7.25561 3.29311 0)
(7.47101 3.26496 8.60651e-16)
(7.66622 3.2277 0)
(7.83973 3.18281 9.02355e-16)
(7.99446 3.13059 8.86791e-16)
(8.13235 3.07344 8.98369e-16)
(8.25553 3.01132 8.94038e-16)
(8.36452 2.94625 9.06133e-16)
(8.45965 2.87779 1.43886e-17)
(8.54028 2.80615 8.96805e-16)
(8.60834 2.73291 -1.42965e-17)
(8.6665 2.659 1.42873e-17)
(8.71171 2.58328 0)
(1.65761 -8.89364 5.26089e-17)
(1.11632 -7.81021 2.2832e-22)
(0.65896 -6.66979 -1.05781e-16)
(0.365482 -5.50007 -1.06204e-16)
(0.222829 -4.3492 8.59895e-19)
(0.234157 -3.24506 0)
(0.381075 -2.21458 0)
(0.646963 -1.28587 -2.42256e-16)
(1.01278 -0.479265 -2.5889e-16)
(1.42871 0.226298 -2.62681e-16)
(1.87577 0.837262 2.7365e-16)
(2.34623 1.35392 -2.77642e-16)
(2.8328 1.78627 0)
(3.31947 2.14353 -2.92574e-16)
(3.79863 2.43944 0)
(4.25851 2.6775 0)
(4.69585 2.86654 6.15101e-16)
(5.10888 3.01618 4.99875e-18)
(5.49496 3.12856 -5.05117e-18)
(5.85692 3.21157 -1.31662e-15)
(6.19176 3.26699 -1.35511e-15)
(6.50191 3.30036 6.78318e-16)
(6.78768 3.31656 7.05702e-16)
(7.0507 3.31567 -7.08361e-16)
(7.29404 3.30444 -1.12892e-17)
(7.51782 3.2822 -7.37932e-16)
(7.72362 3.2511 -7.279e-16)
(7.91271 3.21301 -7.53141e-16)
(8.08433 3.16724 -7.77596e-16)
(8.23823 3.11642 -7.78464e-16)
(8.37717 3.06023 0)
(8.50178 3.00019 -1.2347e-17)
(8.61261 2.93641 -3.02756e-21)
(8.70924 2.86905 -7.79804e-16)
(8.79293 2.79935 -1.27216e-17)
(8.86566 2.72836 -1.27801e-17)
(8.92603 2.65528 -8.06663e-16)
(1.95747 -8.75328 -2.34072e-17)
(1.42301 -7.7343 4.7879e-17)
(0.97642 -6.65419 -3.66797e-19)
(0.668061 -5.5496 -9.35187e-17)
(0.498053 -4.45042 0)
(0.46975 -3.38624 1.53638e-18)
(0.571614 -2.38214 -2.09095e-16)
(0.791122 -1.46562 -2.1373e-16)
(1.11627 -0.660961 0)
(1.49946 0.0482014 0)
(1.91908 0.666821 -2.38767e-16)
(2.3647 1.19635 0)
(2.82984 1.64512 -3.86919e-18)
(3.30201 2.01599 3.98019e-18)
(3.77181 2.32654 0)
(4.22638 2.57937 0)
(4.66236 2.78292 5.34901e-16)
(5.0771 2.94606 0)
(5.46706 3.07192 5.61764e-16)
(5.83527 3.16782 5.71857e-16)
(6.17888 3.23586 5.88258e-16)
(6.49898 3.28027 -5.88679e-16)
(6.79425 3.30585 3.99527e-21)
(7.06405 3.31274 -6.14022e-16)
(7.31403 3.30692 9.78588e-18)
(7.54491 3.28947 6.19517e-16)
(7.75811 3.26249 6.50999e-16)
(7.95463 3.22919 6.53119e-16)
(8.13444 3.1884 2.07562e-17)
(8.30143 3.14276 -1.05632e-17)
(8.45422 3.09138 1.07171e-17)
(8.59216 3.03611 -6.98884e-16)
(8.71641 2.97724 7.05089e-16)
(8.827 2.91445 0)
(8.92483 2.84864 0)
(9.0111 2.78094 7.19798e-16)
(9.08632 2.7112 7.2342e-16)
(2.2614 -8.60989 2.10659e-17)
(1.7368 -7.65289 -4.26282e-17)
(1.30117 -6.63297 8.43482e-17)
(0.981298 -5.59164 8.39699e-17)
(0.786624 -4.54532 0)
(0.720849 -3.52354 0)
(0.778855 -2.54907 1.85601e-16)
(0.951748 -1.6481 1.87605e-16)
(1.23429 -0.847875 -3.11077e-18)
(1.58263 -0.137673 2.04935e-16)
(1.9726 0.488043 -2.10658e-16)
(2.39186 1.02922 -3.33469e-18)
(2.83352 1.49208 3.41047e-18)
(3.28755 1.87761 4.48896e-16)
(3.74529 2.2023 -4.51123e-16)
(4.19187 2.46951 0)
(4.62357 2.68721 -4.71108e-16)
(5.03724 2.86337 4.97503e-16)
(5.42841 3.00203 -1.54535e-17)
(5.7999 3.11012 7.86604e-18)
(6.14828 3.18968 0)
(6.4752 3.24523 5.17971e-16)
(6.77955 3.28167 -1.0769e-15)
(7.06003 3.29807 5.31425e-16)
(7.31936 3.30051 8.60189e-18)
(7.55655 3.28922 -1.11502e-15)
(7.77606 3.26735 -5.71844e-16)
(7.97918 3.23759 0)
(8.16578 3.2 -5.74052e-16)
(8.33928 3.15823 -9.27413e-18)
(8.49887 3.11087 -6.02057e-16)
(8.64696 3.05954 1.88769e-17)
(8.78286 3.00448 -6.3866e-16)
(8.90538 2.94566 6.19332e-16)
(9.0152 2.88391 6.09319e-16)
(9.11323 2.8198 -6.14364e-16)
(9.20089 2.75343 -1.99374e-17)
(2.56878 -8.46356 -1.91292e-17)
(2.05738 -7.56619 3.8009e-17)
(1.63264 -6.60602 1.19368e-18)
(1.30433 -5.6262 -5.94154e-19)
(1.08763 -4.63371 0)
(0.986974 -3.65645 0)
(1.00282 -2.71461 0)
(1.12948 -1.8325 -2.61778e-18)
(1.36809 -1.03955 -2.92798e-23)
(1.67955 -0.330264 5.61577e-18)
(2.03774 0.301563 1.81975e-16)
(2.42923 0.852017 5.94579e-18)
(2.84593 1.32766 -3.92158e-16)
(3.27863 1.72937 -4.00143e-16)
(3.72152 2.06757 4.02154e-16)
(4.15782 2.34893 4.2071e-16)
(4.58285 2.58068 -4.20017e-16)
(4.99301 2.77006 -4.36725e-16)
(5.38329 2.92103 -4.47922e-16)
(5.7558 3.04112 2.67858e-22)
(6.10676 3.13193 7.21428e-18)
(6.43816 3.19803 -4.69137e-16)
(6.74775 3.24407 -3.23887e-21)
(7.03564 3.27051 7.52301e-18)
(7.30502 3.28244 0)
(7.55284 3.2796 5.00885e-16)
(7.78125 3.26457 5.01731e-16)
(7.98978 3.24005 0)
(8.18222 3.20675 5.19353e-16)
(8.36182 3.16764 -1.65117e-17)
(8.52744 3.12282 1.08826e-15)
(8.68131 3.07449 0)
(8.82309 3.02278 5.50713e-16)
(8.95388 2.96736 -5.33554e-16)
(9.0741 2.90873 -5.76795e-16)
(9.18252 2.8476 -5.8181e-16)
(9.28049 2.78468 1.774e-17)
(2.87904 -8.31463 0)
(2.38402 -7.47444 0)
(1.97032 -6.57308 -6.98266e-17)
(1.63594 -5.65317 6.93541e-17)
(1.40019 -4.71514 1.41998e-16)
(1.26764 -3.78411 1.11594e-18)
(1.2435 -2.87763 0)
(1.32493 -2.01765 1.48512e-16)
(1.51893 -1.23504 4.97828e-18)
(1.79158 -0.52859 -1.64019e-16)
(2.11629 0.106898 2.6389e-18)
(2.4785 0.664734 2.67511e-18)
(2.86859 1.15336 3.50115e-16)
(3.27771 1.56991 -5.62614e-18)
(3.7024 1.92243 3.67593e-16)
(4.12625 2.21783 -7.68885e-16)
(4.54248 2.46368 7.61784e-16)
(4.94696 2.66654 0)
(5.33441 2.82988 -4.0313e-16)
(5.70618 2.96199 6.31395e-18)
(6.05787 3.0641 4.15744e-16)
(6.39184 3.14073 0)
(6.70506 3.19626 4.46204e-16)
(6.99808 3.23189 -4.47625e-16)
(7.27343 3.25239 -4.56352e-16)
(7.52918 3.25848 1.41128e-17)
(7.768 3.25195 -4.52328e-16)
(7.9873 3.23458 0)
(8.18723 3.20699 0)
(8.37152 3.17232 0)
(8.5427 3.13098 -4.67679e-16)
(8.70211 3.08475 -4.99195e-16)
(8.84928 3.03509 1.55018e-17)
(8.98548 2.98222 -1.5503e-17)
(9.11112 2.92656 5.03717e-16)
(9.2265 2.86816 -2.66009e-21)
(9.33342 2.80785 -1.59712e-17)
(9.42679 2.74408 -5.19935e-16)
(3.19173 -8.16336 2.51391e-19)
(2.71524 -7.37785 -7.58123e-19)
(2.3132 -6.53395 -6.36343e-17)
(1.97519 -5.67234 -6.26006e-17)
(1.72338 -4.78896 -1.2979e-16)
(1.56229 -3.90542 -2.03467e-18)
(1.50083 -3.03674 1.38466e-16)
(1.53864 -2.20207 -1.38979e-16)
(1.68798 -1.43295 -1.46448e-16)
(1.92013 -0.731611 6.84303e-18)
(2.20994 -0.0955849 -4.77234e-18)
(2.54099 0.468992 -1.50255e-16)
(2.90313 0.968835 -3.21952e-16)
(3.28698 1.39842 0)
(3.69014 1.76711 4.11398e-22)
(4.09893 2.07615 5.34882e-18)
(4.50435 2.33614 -3.41859e-16)
(4.90118 2.55271 3.49837e-16)
(5.2839 2.72904 3.59006e-16)
(5.6534 2.87305 3.76968e-16)
(6.00428 2.98675 2.53007e-21)
(6.33918 3.07419 -1.17712e-17)
(6.65459 3.13944 0)
(6.95105 3.18421 3.93267e-16)
(7.23093 3.21305 4.01046e-16)
(7.49218 3.22707 0)
(7.73747 3.22838 1.28157e-17)
(7.96517 3.21908 4.11167e-16)
(8.17542 3.1988 0)
(8.37036 3.17019 0)
(8.54742 3.13358 0)
(8.71101 3.09119 8.65661e-16)
(8.86355 3.04429 1.40868e-17)
(9.00489 2.9934 4.3693e-16)
(9.13559 2.93946 -9.02051e-16)
(9.25613 2.88308 9.24236e-16)
(9.3678 2.8254 0)
(9.46853 2.76438 4.72585e-16)
(3.50685 -8.00983 0)
(3.05006 -7.27654 0)
(2.66019 -6.48846 5.8252e-17)
(2.32106 -5.68347 5.9488e-17)
(2.05626 -4.8544 0)
(1.87025 -4.0192 1.1934e-16)
(1.77456 -3.1904 -2.8072e-21)
(1.77102 -2.3841 0)
(1.87627 -1.63166 1.27159e-16)
(2.06673 -0.938434 4.14633e-18)
(2.32002 -0.304382 1.38794e-16)
(2.61801 0.265536 2.82298e-16)
(2.95097 0.773616 2.83709e-16)
(3.30807 1.2162 3.05385e-16)
(3.68723 1.6002 -6.04414e-16)
(4.07765 1.92363 4.85595e-18)
(4.47019 2.19785 0)
(4.85756 2.42843 -3.12396e-16)
(5.23368 2.61826 -3.35945e-16)
(5.59937 2.77458 1.03682e-17)
(5.94822 2.90009 -3.5203e-16)
(6.28263 2.99876 0)
(6.59893 3.0741 3.44571e-16)
(6.89747 3.12828 -3.46006e-16)
(7.18057 3.16568 0)
(7.44591 3.18759 -3.72049e-16)
(7.69629 3.1963 3.72943e-16)
(7.92962 3.19395 -3.85968e-16)
(8.14658 3.18086 -3.86502e-16)
(8.35014 3.15954 0)
(8.53732 3.12908 3.99217e-16)
(8.71074 3.09173 -4.13213e-16)
(8.86791 3.04879 -3.98178e-16)
(9.01331 3.00117 -7.97379e-16)
(9.14911 2.9497 3.92262e-16)
(9.27458 2.89508 -3.95804e-16)
(9.39071 2.83868 3.98205e-16)
(9.49747 2.77997 -4.58915e-16)
(3.82393 -7.85408 0)
(3.38767 -7.17053 -8.62662e-19)
(3.01042 -6.43651 8.55915e-19)
(2.67253 -5.68632 -5.58342e-17)
(2.39784 -4.91072 1.73064e-18)
(2.19072 -4.12427 -2.19668e-16)
(2.06421 -3.337 -1.10779e-16)
(2.02221 -2.56208 -7.1495e-18)
(2.0844 -1.8296 7.49753e-18)
(2.23264 -1.14792 -3.78288e-18)
(2.44765 -0.518067 -1.26563e-16)
(2.71125 0.0538254 -1.28846e-16)
(3.01344 0.568715 -2.62952e-16)
(3.34242 1.02319 -2.61563e-16)
(3.69591 1.42069 2.62755e-16)
(4.06466 1.76032 2.74285e-16)
(4.44166 2.04854 8.83342e-18)
(4.81772 2.29331 0)
(5.1855 2.49703 2.96634e-16)
(5.54564 2.66654 -9.43644e-18)
(5.89127 2.80398 -3.01098e-16)
(6.22401 2.91437 -3.01678e-16)
(6.54005 3.00034 -6.68026e-16)
(6.83952 3.06435 3.35506e-16)
(7.12473 3.1107 0)
(7.39301 3.1408 6.77998e-16)
(7.64724 3.15709 0)
(7.88506 3.16162 0)
(8.10741 3.15509 7.04858e-16)
(8.31654 3.13989 0)
(8.51078 3.11614 -7.28521e-16)
(8.69259 3.0852 3.88644e-16)
(8.85944 3.0473 -2.34628e-17)
(9.01271 3.00384 3.52558e-16)
(9.15307 2.95591 2.391e-17)
(9.28279 2.90407 3.86207e-16)
(9.40354 2.84966 -3.88722e-16)
(9.51536 2.7929 0)
(4.14213 -7.69594 3.99674e-19)
(3.72714 -7.05999 -4.00125e-19)
(3.36299 -6.37804 -1.5886e-18)
(3.02855 -5.68061 -5.01809e-17)
(2.74704 -4.9573 1.60039e-18)
(2.52274 -4.21957 1.01422e-16)
(2.3691 -3.47502 0)
(2.29184 -2.73426 0)
(2.31256 -2.02507 0)
(2.41879 -1.35841 1.10775e-16)
(2.59412 -0.73552 0)
(2.8222 -0.165016 0)
(3.0918 0.355578 4.81385e-16)
(3.39169 0.81898 7.71743e-18)
(3.71799 1.22972 -7.75116e-18)
(4.0626 1.58447 0)
(4.42054 1.88766 8.07294e-18)
(4.78316 2.14681 -2.68683e-22)
(5.14088 2.36479 -2.88785e-22)
(5.49366 2.54811 -2.75952e-16)
(5.83461 2.6982 2.75052e-16)
(6.16464 2.82062 5.69101e-16)
(6.47934 2.91785 9.24374e-18)
(6.7787 2.99223 -2.78723e-17)
(7.06504 3.04806 -3.03354e-16)
(7.33532 3.08677 -2.90484e-16)
(7.59241 3.11103 3.10803e-16)
(7.83375 3.12276 3.2165e-16)
(8.06033 3.12292 -3.42463e-16)
(8.27419 3.1138 6.01313e-22)
(8.47388 3.09588 3.74964e-16)
(8.66136 3.07049 -3.55746e-16)
(8.83553 3.03872 6.87263e-16)
(8.99681 3.00066 2.15257e-17)
(9.14593 2.95707 -2.19038e-17)
(9.28218 2.90879 -3.53906e-16)
(9.40725 2.85723 2.22692e-17)
(9.52335 2.80323 -2.26579e-17)
(4.46091 -7.53568 0)
(4.06759 -6.94511 -7.43754e-19)
(3.71706 -6.313 4.7986e-17)
(3.3881 -5.66613 4.80584e-17)
(3.10272 -4.99363 -2.9664e-18)
(2.86509 -4.30412 1.46683e-18)
(2.68821 -3.60319 0)
(2.57921 -2.89904 3.02709e-18)
(2.56066 -2.21631 9.4698e-17)
(2.62583 -1.56801 -1.01625e-16)
(2.76085 -0.955497 9.91283e-18)
(2.95215 -0.389009 -6.74211e-18)
(3.18781 0.134371 -2.20909e-16)
(3.45734 0.604396 0)
(3.75509 1.02713 0)
(4.0739 1.39527 -2.36942e-16)
(4.40946 1.71492 -2.36592e-16)
(4.75559 1.98847 2.45533e-16)
(5.10129 2.22087 -2.48069e-16)
(5.44496 2.41847 2.52591e-16)
(5.77949 2.58208 -2.59849e-16)
(6.10554 2.71697 -2.60501e-16)
(6.41795 2.826 2.70813e-16)
(6.71618 2.91143 -2.72207e-16)
(7.00269 2.97736 2.77789e-16)
(7.27413 3.02524 -2.66052e-16)
(7.53326 3.05794 -3.02589e-16)
(7.77731 3.07729 -5.7104e-16)
(8.00723 3.0845 2.9549e-16)
(8.22499 3.08182 -3.76301e-17)
(8.42915 3.06984 1.91124e-17)
(8.62158 3.0499 -2.88139e-16)
(8.80101 3.0233 -3.35169e-16)
(8.96815 2.99041 0)
(9.12466 2.95229 -3.21889e-16)
(9.26861 2.90865 -2.03204e-17)
(9.40118 2.8606 4.54422e-22)
(9.5227 2.80985 -3.33137e-16)
(9.63137 2.75383 2.08758e-17)
(4.77977 -7.37362 -3.46129e-19)
(4.40817 -6.82612 3.45909e-19)
(4.07178 -6.2414 -4.53334e-17)
(3.75014 -5.64277 1.35404e-18)
(3.46367 -5.01932 2.7531e-18)
(3.21633 -4.37717 -5.43959e-18)
(3.02028 -3.72041 2.80754e-18)
(2.88334 -3.05479 -8.93833e-17)
(2.82832 -2.40138 -9.29609e-17)
(2.85408 -1.77467 -9.3406e-17)
(2.94913 -1.17614 0)
(3.10238 -0.616203 -1.91659e-16)
(3.30326 -0.0941522 1.96482e-16)
(3.54067 0.381249 2.07909e-16)
(3.80901 0.812802 0)
(4.10041 1.19413 2.17235e-16)
(4.4113 1.52856 2.23704e-16)
(4.7372 1.81773 -4.56987e-16)
(5.0684 2.06469 2.27301e-16)
(5.40113 2.27688 -2.45897e-16)
(5.72745 2.4546 2.52909e-16)
(6.04787 2.60292 -2.38714e-16)
(6.35695 2.72411 0)
(6.65313 2.82126 -2.47571e-21)
(6.93883 2.89802 1.59124e-17)
(7.21058 2.95573 5.04022e-16)
(7.47095 2.99747 0)
(7.71701 3.02497 2.70301e-16)
(7.94954 3.03965 -2.8808e-16)
(8.1705 3.04381 1.72713e-17)
(8.37834 3.03813 0)
(8.57494 3.024 3.00076e-16)
(8.75892 3.00262 -3.08041e-16)
(8.9311 2.97463 -2.90832e-16)
(9.09259 2.94118 3.33084e-16)
(9.24291 2.90251 2.24386e-16)
(9.38246 2.85905 3.76755e-17)
(9.51112 2.81232 -3.83471e-17)
(9.62702 2.76004 7.69117e-17)
(5.09823 -7.21003 0)
(4.74812 -6.70323 1.28765e-18)
(4.42633 -6.16333 4.09136e-17)
(4.11361 -5.61054 3.90531e-17)
(3.82861 -5.03414 0)
(3.57495 -4.43822 0)
(3.36376 -3.82569 -8.31199e-17)
(3.20298 -3.19992 8.25745e-17)
(3.11485 -2.57833 -8.56478e-17)
(3.10351 -1.97618 8.59549e-17)
(3.15968 -1.3951 -8.90322e-17)
(3.27425 -0.845158 1.81314e-16)
(3.43935 -0.327585 -3.0028e-21)
(3.64336 0.150181 -1.97028e-16)
(3.88112 0.588079 1.97651e-16)
(4.14396 0.980733 -2.11778e-16)
(4.42854 1.32845 1.24411e-17)
(4.73117 1.63352 2.06299e-16)
(5.04426 1.89555 2.08433e-16)
(5.36381 2.12256 1.32628e-17)
(5.68017 2.31484 -1.36382e-17)
(5.99309 2.47735 -1.83931e-21)
(6.29736 2.61158 -2.27408e-16)
(6.59058 2.72087 2.2874e-16)
(6.8745 2.80924 1.45939e-17)
(7.14566 2.87756 -2.53527e-16)
(7.40649 2.92906 2.397e-16)
(7.65386 2.96534 0)
(7.88838 2.98805 0)
(8.11194 2.99955 0)
(8.32284 3.00057 0)
(8.52297 2.99263 2.596e-16)
(8.71085 2.97687 2.66516e-16)
(8.88733 2.95405 2.34062e-16)
(9.05338 2.92527 3.06469e-16)
(9.2085 2.89109 2.42272e-21)
(9.35341 2.85196 -2.77572e-16)
(9.48832 2.80962 2.82612e-16)
(9.61234 2.76226 -3.54441e-17)
(5.41578 -7.0452 8.99951e-18)
(5.08676 -6.57668 -5.99015e-19)
(4.77994 -6.07899 1.18889e-18)
(4.47751 -5.56953 -3.98506e-17)
(4.19627 -5.03802 -1.28862e-22)
(3.93939 -4.48689 4.68381e-18)
(3.71696 -3.91814 1.51455e-16)
(3.53663 -3.33301 0)
(3.4192 -2.74526 2.36725e-21)
(3.37354 -2.17039 -7.41861e-17)
(3.3926 -1.61007 -5.10877e-18)
(3.46901 -1.0739 5.19572e-18)
(3.59716 -0.56348 -1.76128e-16)
(3.76722 -0.0876308 -1.75651e-16)
(3.97281 0.354854 -1.76146e-16)
(4.20641 0.755321 1.82949e-16)
(4.46313 1.11567 -1.82717e-16)
(4.74048 1.43478 1.18257e-17)
(5.03188 1.71294 -2.15063e-16)
(5.33501 1.95489 1.21635e-17)
(5.63933 2.16196 0)
(5.94294 2.33915 3.89011e-16)
(6.24049 2.48737 4.43025e-16)
(6.52945 2.60947 -1.31123e-17)
(6.81073 2.71003 0)
(7.08036 2.78976 0)
(7.34076 2.85184 -4.4009e-16)
(7.58872 2.89767 0)
(7.82459 2.92908 0)
(8.05017 2.94854 0)
(8.2636 2.9568 0)
(8.46674 2.9555 -2.38698e-16)
(8.65802 2.9458 0)
(8.83825 2.92852 0)
(9.00834 2.90481 2.47394e-21)
(9.16775 2.87528 -5.38797e-16)
(9.31741 2.84043 6.39165e-17)
(9.45669 2.80196 -3.25486e-17)
(9.58695 2.7594 -3.26699e-17)
(9.70493 2.71118 3.33062e-17)
(5.73196 -6.87937 -8.92742e-18)
(5.42345 -6.44673 0)
(5.13185 -5.9886 -3.31899e-17)
(4.84082 -5.51996 3.26946e-17)
(4.56535 -5.03104 0)
(4.30809 -4.52299 0)
(4.07813 -3.9971 -6.67411e-17)
(3.88252 -3.45282 -4.40972e-18)
(3.73988 -2.90045 7.27829e-17)
(3.6632 -2.35518 2.21098e-21)
(3.64755 -1.81862 1.50226e-16)
(3.68721 -1.29968 -9.53086e-18)
(3.77815 -0.800038 9.7735e-18)
(3.91346 -0.329357 2.91834e-21)
(4.08593 0.114022 0)
(4.28903 0.520207 -1.04915e-17)
(4.51715 0.890353 1.78145e-16)
(4.76755 1.22255 0)
(5.03474 1.51542 1.09537e-17)
(5.31748 1.77328 -2.87568e-22)
(5.60692 1.9953 1.71875e-16)
(5.89922 2.18743 -1.84072e-16)
(6.18817 2.35022 1.61067e-21)
(6.47103 2.48613 0)
(6.74844 2.59949 0)
(7.01568 2.69132 0)
(7.27472 2.76481 2.01908e-16)
(7.52243 2.82104 2.61115e-17)
(7.75895 2.86193 -2.62438e-17)
(7.98595 2.89006 0)
(8.20139 2.9062 -2.17831e-16)
(8.40706 2.91214 0)
(8.60129 2.90899 0)
(8.78483 2.8977 0)
(8.95854 2.87949 -2.01855e-16)
(9.12181 2.85501 2.04263e-16)
(9.27569 2.82481 4.71112e-16)
(9.41926 2.79027 2.99933e-17)
(9.55399 2.75192 -3.01178e-17)
(9.67805 2.70836 2.45596e-16)
(6.04632 -6.71274 0)
(5.75764 -6.31366 1.65443e-17)
(5.48137 -5.89249 -3.2881e-17)
(5.20259 -5.46213 -3.44199e-17)
(4.93458 -5.01339 -6.34063e-17)
(4.67951 -4.54646 -4.0287e-18)
(4.44545 -4.06209 8.22975e-18)
(4.23866 -3.55837 -4.07431e-18)
(4.0751 -3.04241 0)
(3.97109 -2.52851 5.86686e-17)
(3.92373 -2.01833 -6.8972e-17)
(3.92881 -1.51983 1.74768e-17)
(3.98345 -1.03474 -1.60996e-16)
(4.08316 -0.572282 1.56714e-16)
(4.22213 -0.132161 -9.28889e-18)
(4.39334 0.277166 9.61962e-18)
(4.59214 0.653699 0)
(4.81447 0.997075 1.48984e-16)
(5.05578 1.30316 1.00353e-17)
(5.31511 1.57647 -1.8385e-16)
(5.58562 1.81398 -1.46896e-16)
(5.86395 2.02136 0)
(6.14234 2.1991 -1.96775e-16)
(6.41715 2.3495 4.40438e-17)
(6.6889 2.47667 -2.24912e-17)
(6.95263 2.58119 -1.83945e-16)
(7.20941 2.66685 1.61978e-16)
(7.45596 2.73435 2.15415e-16)
(7.69232 2.78559 1.92578e-16)
(7.92006 2.82321 -2.45619e-17)
(8.13694 2.84798 4.2486e-16)
(8.34464 2.86184 0)
(8.54139 2.86586 2.0692e-16)
(8.72784 2.86112 0)
(8.9048 2.8489 2.65139e-17)
(9.07158 2.82989 1.8792e-16)
(9.22928 2.80478 -4.33712e-16)
(9.37687 2.77466 -2.20963e-16)
(9.51556 2.74043 0)
(9.64501 2.7016 -2.26268e-16)
(9.76444 2.6574 2.84982e-16)
(6.3584 -6.54551 7.6873e-18)
(6.08879 -6.17777 -1.53377e-17)
(5.82783 -5.79102 3.04932e-17)
(5.56192 -5.3964 0)
(5.30278 -4.98538 6.06289e-17)
(5.05212 -4.55742 0)
(4.8171 -4.11288 0)
(4.60289 -3.64889 -6.01748e-17)
(4.4228 -3.16988 -6.17316e-17)
(4.29549 -2.68854 6.16594e-17)
(4.21985 -2.20689 0)
(4.19307 -1.73166 -8.00584e-18)
(4.21323 -1.26451 1.63626e-17)
(4.27761 -0.814144 1.34709e-16)
(4.3824 -0.380532 -8.50271e-18)
(4.52135 0.0275529 1.40983e-16)
(4.6895 0.408263 0)
(4.88325 0.759261 -1.38477e-21)
(5.0972 1.07713 0)
(5.33128 1.36404 1.30824e-16)
(5.57949 1.61716 3.83828e-17)
(5.8399 1.84009 -1.92871e-17)
(6.10513 2.03309 -1.99911e-17)
(6.36991 2.19844 5.99447e-22)
(6.63396 2.34016 4.11551e-17)
(6.89243 2.45834 1.47275e-16)
(7.14589 2.55681 -3.39e-16)
(7.39035 2.63636 -1.7528e-16)
(7.62565 2.69887 -1.76416e-16)
(7.85332 2.74689 -2.25086e-17)
(8.07099 2.78113 -1.14556e-16)
(8.28016 2.8037 -2.31083e-16)
(8.47896 2.81563 -4.27178e-16)
(8.66793 2.81808 4.77622e-17)
(8.84779 2.81244 -4.87057e-17)
(9.01776 2.79943 4.93432e-17)
(9.17895 2.77987 1.99404e-16)
(9.33032 2.7547 -2.23903e-21)
(9.47274 2.72487 2.04306e-16)
(9.60667 2.69073 0)
(9.73052 2.65097 5.24811e-17)
(6.66777 -6.37789 -6.22406e-18)
(6.41642 -6.03934 -1.50784e-17)
(6.17064 -5.68456 1.76409e-18)
(5.91801 -5.32321 -1.73885e-18)
(5.66885 -4.94742 3.50409e-18)
(5.42447 -4.55616 5.17365e-17)
(5.1912 -4.14938 -7.01465e-18)
(4.97309 -3.72399 6.93461e-17)
(4.78082 -3.28186 4.25736e-17)
(4.63429 -2.83369 -9.91225e-17)
(4.53413 -2.38216 -1.15991e-16)
(4.47874 -1.93263 -7.32688e-18)
(4.46698 -1.48642 1.12094e-16)
(4.49753 -1.05169 -1.15144e-16)
(4.56788 -0.628237 0)
(4.67423 -0.225245 -1.2895e-16)
(4.81096 0.155943 1.28823e-16)
(4.97513 0.511967 -1.32849e-16)
(5.16126 0.838508 0)
(5.36847 1.13749 -1.7071e-17)
(5.59227 1.40439 1.75223e-17)
(5.83111 1.64293 1.76178e-17)
(6.07942 1.85136 -1.82484e-17)
(6.3316 2.03198 -1.4719e-16)
(6.5859 2.18875 0)
(6.83703 2.32139 1.53752e-16)
(7.08541 2.43357 -1.73491e-21)
(7.32675 2.52588 0)
(7.56006 2.60046 -4.03336e-17)
(7.78674 2.6598 4.11848e-17)
(8.00439 2.70446 -4.19373e-17)
(8.21436 2.73662 2.11645e-16)
(8.41467 2.75728 3.91301e-16)
(8.60569 2.76768 -8.75684e-17)
(8.78807 2.76933 8.93324e-17)
(8.96091 2.76292 -2.71636e-16)
(9.1253 2.74949 1.83091e-16)
(9.28018 2.72983 4.20023e-16)
(9.42624 2.70488 -1.87791e-16)
(9.56386 2.67549 4.78741e-17)
(9.69266 2.64075 -4.82723e-17)
(9.8129 2.60083 -2.44836e-16)
(6.97401 -6.21009 -7.38792e-18)
(6.74008 -5.89867 2.86626e-17)
(6.50924 -5.57353 -4.88811e-18)
(6.2701 -5.24303 -2.24949e-17)
(6.03177 -4.89998 3.23398e-18)
(5.7952 -4.54304 -5.41156e-17)
(5.56588 -4.17179 5.16793e-17)
(5.34705 -3.78347 0)
(5.14696 -3.37763 0)
(4.98516 -2.96273 -6.49298e-18)
(4.86442 -2.54229 1.32741e-17)
(4.78406 -2.12032 -6.69716e-18)
(4.74351 -1.69762 0)
(4.74257 -1.2817 0)
(4.77961 -0.872219 1.4144e-17)
(4.85296 -0.477767 -1.46863e-17)
(4.95816 -0.100306 1.47026e-17)
(5.09171 0.257535 -7.36556e-23)
(5.24936 0.589446 1.07097e-16)
(5.42907 0.897769 0)
(5.62679 1.17684 1.27735e-16)
(5.84169 1.42943 0)
(6.06926 1.65323 0)
(6.3052 1.84928 -5.65068e-22)
(6.54717 2.0214 0)
(6.78885 2.16904 -1.40159e-16)
(7.03002 2.29576 1.06009e-16)
(7.26648 2.40174 1.82588e-16)
(7.49675 2.48913 0)
(7.72148 2.56058 1.1281e-16)
(7.93818 2.6166 -1.1493e-16)
(8.14815 2.65933 -1.54784e-16)
(8.34927 2.68963 -1.98739e-16)
(8.54181 2.70884 4.00608e-17)
(8.72626 2.71856 -1.22647e-16)
(8.90161 2.7195 1.24384e-16)
(9.06888 2.71284 -1.67788e-16)
(9.227 2.69933 -1.7114e-16)
(9.37653 2.67989 -1.723e-16)
(9.5176 2.65553 -1.75763e-16)
(9.65059 2.62607 -4.4328e-17)
(9.77497 2.5909 4.49785e-16)
(7.27674 -6.0423 6.04828e-18)
(7.05939 -5.75607 -1.20694e-17)
(6.84312 -5.45831 2.40228e-17)
(6.61753 -5.15635 4.44413e-17)
(6.39064 -4.84361 -3.87152e-17)
(6.16311 -4.51859 2.3166e-22)
(5.9396 -4.18058 -5.34407e-17)
(5.72263 -3.82731 0)
(5.51897 -3.4567 0)
(5.34561 -3.07483 5.94814e-17)
(5.20825 -2.68577 3.89559e-21)
(5.10681 -2.29262 -1.22245e-17)
(5.04101 -1.89548 0)
(5.01156 -1.50105 0)
(5.01749 -1.10885 1.28477e-17)
(5.05856 -0.726878 -2.66903e-17)
(5.13197 -0.356719 1.33994e-17)
(5.23491 -0.00154849 -9.64951e-17)
(5.36297 0.332711 -1.85917e-21)
(5.51473 0.64703 -1.55761e-16)
(5.68558 0.93571 -8.71105e-17)
(5.87483 1.20057 -8.76746e-17)
(6.07912 1.4384 9.06538e-17)
(6.29491 1.64966 2.43995e-16)
(6.52092 1.83728 -1.24643e-16)
(6.75056 2.00024 1.27473e-16)