/*--------------------------------*- C++ -*----------------------------------*\
  =========                 |
  \\      /  F ield         | OpenFOAM: The Open Source CFD Toolbox
   \\    /   O peration     | Website:  https://openfoam.org
    \\  /    A nd           | Version:  8
     \\/     M anipulation  |
\*---------------------------------------------------------------------------*/
FoamFile
{
    version     2.0;
    format      ascii;
    class       volScalarField;
    location    "12";
    object      nut;
}
// * * * * * * * * * * * * * * * * * * * * * * * * * * * * * * * * * * * * * //

dimensions      [0 2 -1 0 0 0 0];

internalField   nonuniform List<scalar> 
277560
(
0.139658
0.138975
0.138299
0.137628
0.13696
0.136298
0.13564
0.134987
0.13434
0.1337
0.133067
0.132442
0.131825
0.131216
0.130615
0.130023
0.129439
0.128865
0.128299
0.127744
0.127199
0.126664
0.126142
0.125631
0.125133
0.12465
0.124182
0.123731
0.123298
0.122883
0.122489
0.122117
0.121767
0.121442
0.121142
0.120869
0.120622
0.120404
0.120214
0.120054
0.119922
0.11982
0.119747
0.119704
0.119689
0.119701
0.119741
0.119808
0.119899
0.120014
0.120152
0.120312
0.120492
0.12069
0.120905
0.121136
0.121381
0.121639
0.121909
0.122188
0.122476
0.122772
0.123073
0.12338
0.123691
0.124004
0.12432
0.124637
0.124954
0.125271
0.125587
0.125902
0.126214
0.126524
0.12683
0.127134
0.127433
0.127729
0.128021
0.128308
0.128591
0.12887
0.129143
0.129412
0.129676
0.129936
0.13019
0.13044
0.130685
0.130925
0.131161
0.131392
0.131619
0.131841
0.132059
0.132272
0.132481
0.132686
0.132888
0.133085
0.133278
0.133468
0.133654
0.133836
0.134015
0.134191
0.134363
0.134532
0.134698
0.134861
0.135021
0.135179
0.135333
0.135485
0.135634
0.13578
0.135924
0.136065
0.136204
0.136341
0.139658
0.138976
0.138301
0.13763
0.136963
0.1363
0.135642
0.134989
0.134343
0.133703
0.13307
0.132445
0.131827
0.131218
0.130618
0.130026
0.129442
0.128868
0.128303
0.127748
0.127203
0.126669
0.126146
0.125635
0.125138
0.124655
0.124187
0.123735
0.123302
0.122887
0.122493
0.12212
0.12177
0.121445
0.121145
0.120871
0.120624
0.120405
0.120215
0.120055
0.119923
0.119821
0.119748
0.119705
0.11969
0.119703
0.119743
0.11981
0.119902
0.120018
0.120157
0.120317
0.120497
0.120697
0.120913
0.121145
0.121392
0.121651
0.121921
0.122202
0.122492
0.122789
0.123092
0.1234
0.123712
0.124028
0.124345
0.124663
0.124982
0.1253
0.125617
0.125933
0.126247
0.126557
0.126865
0.12717
0.127471
0.127767
0.12806
0.128348
0.128632
0.128911
0.129185
0.129454
0.129719
0.129979
0.130234
0.130484
0.130729
0.130969
0.131205
0.131436
0.131663
0.131885
0.132102
0.132315
0.132524
0.132729
0.13293
0.133127
0.133319
0.133508
0.133694
0.133875
0.134054
0.134228
0.1344
0.134568
0.134733
0.134895
0.135054
0.13521
0.135364
0.135514
0.135662
0.135807
0.13595
0.13609
0.136228
0.136363
0.139659
0.138979
0.138305
0.137635
0.136968
0.136305
0.135647
0.134994
0.134347
0.133706
0.133073
0.132448
0.131831
0.131222
0.130622
0.13003
0.129447
0.128873
0.128309
0.127754
0.127209
0.126675
0.126152
0.125642
0.125144
0.124661
0.124193
0.123741
0.123307
0.122892
0.122497
0.122124
0.121774
0.121448
0.121147
0.120873
0.120626
0.120407
0.120216
0.120055
0.119924
0.119822
0.119749
0.119706
0.119691
0.119705
0.119746
0.119814
0.119907
0.120024
0.120165
0.120327
0.120509
0.12071
0.120929
0.121164
0.121413
0.121674
0.121948
0.122231
0.122524
0.122824
0.12313
0.123441
0.123756
0.124074
0.124394
0.124715
0.125037
0.125358
0.125678
0.125996
0.126312
0.126625
0.126935
0.127242
0.127545
0.127843
0.128138
0.128427
0.128712
0.128993
0.129268
0.129539
0.129804
0.130065
0.13032
0.130571
0.130816
0.131057
0.131293
0.131524
0.13175
0.131972
0.132189
0.132402
0.13261
0.132814
0.133014
0.13321
0.133401
0.133589
0.133773
0.133953
0.13413
0.134303
0.134473
0.13464
0.134803
0.134963
0.13512
0.135274
0.135425
0.135574
0.135719
0.135862
0.136003
0.13614
0.136276
0.136409
0.13966
0.138984
0.138312
0.137643
0.136976
0.136313
0.135654
0.135001
0.134353
0.133712
0.133079
0.132454
0.131837
0.131228
0.130628
0.130037
0.129454
0.128881
0.128317
0.127762
0.127218
0.126684
0.126161
0.125651
0.125153
0.12467
0.124201
0.123749
0.123315
0.122899
0.122504
0.12213
0.121779
0.121452
0.121151
0.120876
0.120628
0.120409
0.120218
0.120057
0.119925
0.119823
0.119751
0.119708
0.119694
0.119709
0.119752
0.119821
0.119916
0.120035
0.120178
0.120343
0.120528
0.120732
0.120954
0.121192
0.121445
0.12171
0.121988
0.122275
0.122572
0.122876
0.123186
0.123502
0.123821
0.124143
0.124468
0.124793
0.125119
0.125444
0.125768
0.12609
0.12641
0.126726
0.12704
0.127349
0.127655
0.127957
0.128253
0.128546
0.128833
0.129115
0.129392
0.129664
0.129931
0.130193
0.130449
0.1307
0.130947
0.131188
0.131424
0.131655
0.131881
0.132102
0.132319
0.132531
0.132738
0.132941
0.133139
0.133334
0.133524
0.13371
0.133892
0.134071
0.134245
0.134416
0.134583
0.134747
0.134908
0.135065
0.135219
0.13537
0.135518
0.135664
0.135806
0.135945
0.136082
0.136217
0.136348
0.136478
0.139663
0.138991
0.138322
0.137654
0.136988
0.136324
0.135665
0.13501
0.134362
0.133721
0.133088
0.132463
0.131846
0.131237
0.130637
0.130046
0.129464
0.128891
0.128328
0.127774
0.12723
0.126696
0.126174
0.125663
0.125166
0.124682
0.124213
0.123761
0.123326
0.12291
0.122513
0.122139
0.121787
0.121459
0.121157
0.120881
0.120632
0.120412
0.120221
0.120059
0.119928
0.119826
0.119754
0.119712
0.1197
0.119716
0.11976
0.119831
0.119929
0.120051
0.120197
0.120365
0.120554
0.120762
0.120988
0.121231
0.121488
0.121759
0.122041
0.122334
0.122636
0.122945
0.123261
0.123582
0.123908
0.124236
0.124566
0.124897
0.125228
0.125558
0.125887
0.126215
0.126539
0.12686
0.127178
0.127492
0.127802
0.128107
0.128407
0.128703
0.128993
0.129277
0.129557
0.129831
0.1301
0.130363
0.13062
0.130873
0.131119
0.131361
0.131597
0.131828
0.132054
0.132275
0.132491
0.132702
0.132909
0.13311
0.133307
0.1335
0.133688
0.133872
0.134052
0.134228
0.1344
0.134568
0.134732
0.134893
0.13505
0.135203
0.135354
0.135501
0.135645
0.135786
0.135924
0.136059
0.136191
0.136321
0.136448
0.136572
0.139667
0.139001
0.138336
0.137669
0.137003
0.136339
0.135678
0.135023
0.134375
0.133733
0.1331
0.132474
0.131858
0.13125
0.13065
0.13006
0.129478
0.128906
0.128343
0.127789
0.127246
0.126712
0.12619
0.12568
0.125183
0.124699
0.124229
0.123776
0.123341
0.122923
0.122526
0.122151
0.121798
0.121469
0.121165
0.120888
0.120639
0.120418
0.120226
0.120064
0.119933
0.119831
0.11976
0.119719
0.119708
0.119726
0.119772
0.119846
0.119946
0.120072
0.120221
0.120394
0.120587
0.1208
0.121031
0.121279
0.121542
0.121819
0.122107
0.122407
0.122715
0.123032
0.123355
0.123683
0.124015
0.12435
0.124687
0.125025
0.125363
0.125701
0.126036
0.12637
0.1267
0.127028
0.127351
0.12767
0.127985
0.128295
0.128599
0.128898
0.129192
0.12948
0.129762
0.130038
0.130308
0.130573
0.130831
0.131084
0.131331
0.131572
0.131808
0.132038
0.132263
0.132482
0.132696
0.132906
0.13311
0.133309
0.133504
0.133694
0.133879
0.13406
0.134237
0.134409
0.134578
0.134742
0.134903
0.13506
0.135213
0.135363
0.135509
0.135652
0.135792
0.135928
0.136061
0.136191
0.136319
0.136443
0.136565
0.136684
0.139673
0.139015
0.138353
0.137688
0.137021
0.136356
0.135695
0.135039
0.134389
0.133748
0.133114
0.132489
0.131873
0.131265
0.130666
0.130077
0.129496
0.128924
0.128362
0.127809
0.127266
0.126733
0.126212
0.125702
0.125204
0.12472
0.12425
0.123796
0.12336
0.122941
0.122543
0.122166
0.121812
0.121482
0.121177
0.120899
0.120649
0.120427
0.120235
0.120072
0.11994
0.119839
0.119769
0.119729
0.11972
0.11974
0.119788
0.119865
0.119969
0.120098
0.120252
0.120428
0.120627
0.120845
0.121082
0.121337
0.121607
0.12189
0.122186
0.122494
0.12281
0.123135
0.123466
0.123803
0.124144
0.124487
0.124833
0.125179
0.125526
0.125871
0.126215
0.126556
0.126894
0.127227
0.127557
0.127881
0.1282
0.128514
0.128821
0.129122
0.129418
0.129707
0.129989
0.130266
0.130536
0.1308
0.131057
0.131309
0.131555
0.131795
0.132029
0.132257
0.132479
0.132697
0.132908
0.133115
0.133316
0.133513
0.133704
0.133891
0.134073
0.134251
0.134424
0.134592
0.134757
0.134918
0.135074
0.135227
0.135376
0.135521
0.135663
0.135801
0.135936
0.136068
0.136196
0.136322
0.136444
0.136563
0.13668
0.136793
0.139682
0.139033
0.138375
0.137711
0.137044
0.136377
0.135714
0.135057
0.134407
0.133765
0.133131
0.132507
0.131891
0.131284
0.130686
0.130098
0.129518
0.128947
0.128385
0.127834
0.127291
0.126759
0.126238
0.125728
0.12523
0.124746
0.124276
0.123821
0.123383
0.122964
0.122565
0.122186
0.121831
0.121499
0.121193
0.120913
0.120662
0.120439
0.120246
0.120083
0.119951
0.119851
0.119781
0.119743
0.119735
0.119757
0.119808
0.119888
0.119995
0.120129
0.120287
0.120469
0.120673
0.120898
0.121142
0.121404
0.121681
0.121973
0.122278
0.122594
0.12292
0.123254
0.123595
0.123941
0.124292
0.124646
0.125002
0.125358
0.125714
0.126068
0.126419
0.126767
0.12711
0.127448
0.127781
0.128108
0.128429
0.128744
0.129053
0.129355
0.12965
0.129939
0.130221
0.130497
0.130766
0.131029
0.131285
0.131535
0.131779
0.132016
0.132248
0.132474
0.132694
0.132908
0.133117
0.13332
0.133519
0.133712
0.1339
0.134083
0.134261
0.134435
0.134604
0.134769
0.13493
0.135086
0.135238
0.135386
0.135531
0.135672
0.135809
0.135942
0.136072
0.136199
0.136323
0.136443
0.13656
0.136675
0.136786
0.136894
0.139695
0.139057
0.138402
0.137738
0.13707
0.136401
0.135736
0.135078
0.134427
0.133784
0.133151
0.132527
0.131913
0.131307
0.13071
0.130123
0.129544
0.128975
0.128414
0.127863
0.127322
0.126791
0.12627
0.12576
0.125262
0.124778
0.124307
0.123851
0.123413
0.122992
0.122591
0.122211
0.121854
0.121521
0.121213
0.120932
0.120679
0.120455
0.120261
0.120098
0.119966
0.119865
0.119797
0.119759
0.119753
0.119778
0.119832
0.119915
0.120026
0.120164
0.120328
0.120516
0.120726
0.120958
0.12121
0.121479
0.121766
0.122067
0.122381
0.122707
0.123044
0.123389
0.123741
0.124099
0.124461
0.124826
0.125191
0.125557
0.12592
0.12628
0.126637
0.126988
0.127335
0.127676
0.12801
0.128339
0.128661
0.128976
0.129285
0.129587
0.129882
0.13017
0.130451
0.130725
0.130993
0.131254
0.131508
0.131756
0.131998
0.132233
0.132462
0.132685
0.132902
0.133113
0.133319
0.133519
0.133714
0.133903
0.134087
0.134267
0.134441
0.134611
0.134776
0.134937
0.135093
0.135245
0.135393
0.135536
0.135676
0.135812
0.135945
0.136074
0.136199
0.136321
0.13644
0.136555
0.136667
0.136776
0.136883
0.136986
0.139708
0.139084
0.138435
0.13777
0.137099
0.136428
0.135761
0.135101
0.134449
0.133807
0.133174
0.132551
0.131937
0.131333
0.130738
0.130152
0.129576
0.129008
0.128449
0.127899
0.127359
0.126828
0.126308
0.125798
0.125301
0.124815
0.124344
0.123888
0.123448
0.123026
0.122623
0.122241
0.121882
0.121547
0.121237
0.120954
0.1207
0.120475
0.12028
0.120116
0.119984
0.119884
0.119816
0.11978
0.119775
0.119802
0.119859
0.119946
0.120061
0.120204
0.120374
0.120568
0.120785
0.121025
0.121285
0.121563
0.121859
0.12217
0.122496
0.122833
0.123181
0.123538
0.123903
0.124272
0.124645
0.125019
0.125393
0.125764
0.126133
0.126497
0.126857
0.127211
0.12756
0.127902
0.128238
0.128567
0.128889
0.129205
0.129513
0.129814
0.130108
0.130395
0.130675
0.130948
0.131214
0.131473
0.131725
0.131971
0.13221
0.132442
0.132668
0.132888
0.133102
0.13331
0.133512
0.133709
0.1339
0.134086
0.134266
0.134442
0.134612
0.134778
0.134938
0.135095
0.135247
0.135394
0.135538
0.135677
0.135812
0.135944
0.136071
0.136196
0.136316
0.136433
0.136547
0.136658
0.136765
0.136869
0.136971
0.137069
0.139719
0.139112
0.138471
0.137807
0.137133
0.136458
0.135787
0.135126
0.134473
0.133831
0.133199
0.132577
0.131966
0.131363
0.130771
0.130187
0.129612
0.129046
0.128488
0.12794
0.127401
0.126872
0.126352
0.125843
0.125345
0.12486
0.124388
0.12393
0.123489
0.123065
0.122661
0.122277
0.121916
0.121579
0.121267
0.120982
0.120726
0.120499
0.120303
0.120138
0.120006
0.119906
0.119838
0.119803
0.119801
0.11983
0.11989
0.119981
0.120101
0.120249
0.120424
0.120625
0.12085
0.121098
0.121367
0.121655
0.121961
0.122283
0.12262
0.12297
0.123331
0.123701
0.124077
0.124456
0.124838
0.125218
0.125598
0.125973
0.126346
0.126713
0.127075
0.127431
0.127781
0.128124
0.128461
0.12879
0.129113
0.129428
0.129735
0.130036
0.130329
0.130614
0.130893
0.131164
0.131428
0.131684
0.131934
0.132177
0.132414
0.132643
0.132867
0.133083
0.133294
0.133499
0.133697
0.13389
0.134078
0.13426
0.134436
0.134608
0.134774
0.134935
0.135092
0.135244
0.135391
0.135535
0.135673
0.135808
0.135939
0.136066
0.136189
0.136308
0.136424
0.136537
0.136646
0.136752
0.136855
0.136954
0.137051
0.137145
0.139729
0.139137
0.138506
0.137846
0.137169
0.13649
0.135816
0.135152
0.134499
0.133858
0.133227
0.132607
0.131997
0.131398
0.130807
0.130226
0.129653
0.129089
0.128534
0.127988
0.12745
0.126922
0.126403
0.125895
0.125397
0.124911
0.124438
0.123979
0.123537
0.123111
0.122705
0.122319
0.121955
0.121616
0.121302
0.121015
0.120756
0.120528
0.12033
0.120165
0.120032
0.119932
0.119865
0.119831
0.11983
0.119861
0.119925
0.120019
0.120144
0.120297
0.120479
0.120687
0.12092
0.121176
0.121454
0.121753
0.12207
0.122405
0.122754
0.123117
0.12349
0.123871
0.124256
0.124644
0.125031
0.125417
0.1258
0.12618
0.126555
0.126924
0.127288
0.127646
0.127997
0.128341
0.128678
0.129007
0.129329
0.129644
0.129951
0.13025
0.130542
0.130826
0.131103
0.131372
0.131634
0.131888
0.132136
0.132376
0.13261
0.132836
0.133057
0.13327
0.133478
0.133679
0.133874
0.134063
0.134247
0.134425
0.134598
0.134765
0.134927
0.135084
0.135237
0.135385
0.135528
0.135666
0.135801
0.135931
0.136058
0.13618
0.136299
0.136413
0.136525
0.136633
0.136737
0.136839
0.136937
0.137032
0.137124
0.137214
0.139738
0.13916
0.138539
0.137885
0.137208
0.136524
0.135846
0.135181
0.134528
0.133887
0.133258
0.13264
0.132033
0.131436
0.130848
0.13027
0.1297
0.129139
0.128586
0.128042
0.127506
0.126979
0.126462
0.125954
0.125456
0.124969
0.124496
0.124036
0.123591
0.123164
0.122755
0.122367
0.122001
0.121659
0.121342
0.121053
0.120792
0.120561
0.120362
0.120195
0.120061
0.119961
0.119894
0.119861
0.119862
0.119896
0.119962
0.120061
0.12019
0.120349
0.120537
0.120752
0.120994
0.121259
0.121547
0.121857
0.122186
0.122533
0.122895
0.12327
0.123655
0.124044
0.124437
0.12483
0.125223
0.125613
0.125999
0.126382
0.126759
0.12713
0.127496
0.127854
0.128206
0.12855
0.128887
0.129217
0.129539
0.129853
0.130159
0.130457
0.130747
0.13103
0.131305
0.131572
0.131832
0.132084
0.132329
0.132567
0.132798
0.133021
0.133239
0.133449
0.133653
0.133851
0.134042
0.134228
0.134408
0.134582
0.134751
0.134914
0.135072
0.135225
0.135374
0.135517
0.135656
0.135791
0.135921
0.136047
0.136169
0.136287
0.136401
0.136511
0.136618
0.136722
0.136822
0.136919
0.137013
0.137104
0.137192
0.137277
0.139746
0.139181
0.13857
0.137921
0.137246
0.136559
0.135878
0.13521
0.134557
0.133918
0.133291
0.132676
0.132072
0.131478
0.130894
0.130319
0.129753
0.129195
0.128645
0.128103
0.127569
0.127044
0.126527
0.12602
0.125522
0.125036
0.124561
0.1241
0.123654
0.123224
0.122813
0.122422
0.122053
0.121708
0.121389
0.121096
0.120833
0.1206
0.120399
0.12023
0.120095
0.119994
0.119928
0.119896
0.119898
0.119934
0.120003
0.120105
0.12024
0.120404
0.120599
0.120822
0.121071
0.121346
0.121645
0.121966
0.122307
0.122667
0.123041
0.123427
0.12382
0.124216
0.124615
0.125013
0.125409
0.125803
0.126192
0.126577
0.126956
0.12733
0.127696
0.128056
0.128408
0.128753
0.12909
0.129419
0.129741
0.130054
0.130359
0.130656
0.130945
0.131226
0.1315
0.131765
0.132022
0.132272
0.132515
0.13275
0.132978
0.133199
0.133413
0.13362
0.133821
0.134015
0.134203
0.134385
0.134561
0.134732
0.134897
0.135056
0.13521
0.135359
0.135503
0.135643
0.135777
0.135908
0.136033
0.136155
0.136273
0.136386
0.136496
0.136602
0.136705
0.136804
0.1369
0.136993
0.137083
0.137169
0.137253
0.137334
0.139752
0.139199
0.138597
0.137954
0.137282
0.136593
0.135909
0.135241
0.134588
0.133951
0.133327
0.132715
0.132115
0.131525
0.130945
0.130374
0.129811
0.129257
0.12871
0.128171
0.12764
0.127117
0.126601
0.126094
0.125597
0.12511
0.124634
0.124171
0.123723
0.123292
0.122878
0.122484
0.122112
0.121764
0.121441
0.121146
0.120879
0.120644
0.12044
0.12027
0.120134
0.120032
0.119965
0.119933
0.119936
0.119975
0.120047
0.120153
0.120292
0.120462
0.120663
0.120894
0.121152
0.121436
0.121746
0.122078
0.122432
0.122804
0.123189
0.123583
0.123982
0.124385
0.124788
0.125191
0.125591
0.125987
0.12638
0.126766
0.127148
0.127522
0.12789
0.12825
0.128603
0.128949
0.129286
0.129615
0.129936
0.130248
0.130552
0.130848
0.131136
0.131415
0.131687
0.13195
0.132206
0.132453
0.132693
0.132926
0.133151
0.133369
0.13358
0.133784
0.133981
0.134172
0.134357
0.134535
0.134708
0.134874
0.135035
0.135191
0.135341
0.135486
0.135626
0.135761
0.135892
0.136018
0.13614
0.136257
0.136371
0.13648
0.136586
0.136688
0.136786
0.136881
0.136973
0.137062
0.137147
0.13723
0.13731
0.137387
0.139758
0.139215
0.13862
0.137984
0.137314
0.136626
0.13594
0.135272
0.134621
0.133986
0.133365
0.132758
0.132162
0.131577
0.131001
0.130435
0.129876
0.129326
0.128783
0.128247
0.127719
0.127197
0.126683
0.126177
0.12568
0.125192
0.124715
0.124251
0.123801
0.123367
0.12295
0.122553
0.122178
0.121826
0.1215
0.121201
0.120931
0.120693
0.120487
0.120314
0.120176
0.120073
0.120005
0.119974
0.119978
0.120018
0.120093
0.120203
0.120346
0.120522
0.12073
0.120968
0.121235
0.121529
0.121849
0.122193
0.122559
0.122941
0.123334
0.123736
0.124141
0.124549
0.124957
0.125363
0.125766
0.126165
0.12656
0.126949
0.127332
0.127708
0.128077
0.128438
0.128791
0.129137
0.129474
0.129803
0.130123
0.130435
0.130738
0.131033
0.131319
0.131597
0.131867
0.132128
0.132382
0.132627
0.132865
0.133095
0.133317
0.133532
0.13374
0.133941
0.134135
0.134323
0.134504
0.134679
0.134848
0.135011
0.135168
0.13532
0.135466
0.135607
0.135743
0.135874
0.136001
0.136123
0.136241
0.136354
0.136463
0.136569
0.13667
0.136768
0.136863
0.136954
0.137041
0.137126
0.137207
0.137286
0.137362
0.137435
0.139763
0.139228
0.138641
0.13801
0.137344
0.136657
0.135971
0.135303
0.134654
0.134023
0.133407
0.132804
0.132213
0.131633
0.131063
0.130502
0.129948
0.129402
0.128863
0.128331
0.127805
0.127286
0.126774
0.126268
0.125771
0.125283
0.124805
0.124339
0.123887
0.12345
0.12303
0.12263
0.122251
0.121895
0.121565
0.121263
0.120989
0.120747
0.120538
0.120363
0.120222
0.120118
0.12005
0.120018
0.120023
0.120064
0.120142
0.120255
0.120403
0.120584
0.120798
0.121044
0.121319
0.121623
0.121954
0.122309
0.122685
0.123076
0.123477
0.123885
0.124295
0.124707
0.125119
0.125529
0.125935
0.126337
0.126734
0.127125
0.127509
0.127886
0.128256
0.128618
0.128972
0.129318
0.129655
0.129984
0.130304
0.130615
0.130917
0.131211
0.131496
0.131773
0.132041
0.1323
0.132551
0.132795
0.13303
0.133257
0.133477
0.133689
0.133894
0.134092
0.134283
0.134467
0.134645
0.134816
0.134982
0.135141
0.135295
0.135442
0.135585
0.135722
0.135854
0.135982
0.136104
0.136222
0.136336
0.136445
0.136551
0.136652
0.13675
0.136844
0.136934
0.137021
0.137105
0.137186
0.137263
0.137338
0.13741
0.137479
0.139767
0.139239
0.138658
0.138032
0.13737
0.136685
0.136
0.135334
0.134689
0.134062
0.133451
0.132854
0.132269
0.131695
0.131131
0.130575
0.130027
0.129486
0.128951
0.128423
0.127901
0.127384
0.126873
0.126369
0.125872
0.125383
0.124904
0.124436
0.123981
0.123542
0.123119
0.122715
0.122332
0.121972
0.121637
0.121331
0.121053
0.120807
0.120594
0.120416
0.120273
0.120167
0.120097
0.120065
0.12007
0.120113
0.120193
0.120309
0.120461
0.120647
0.120868
0.12112
0.121404
0.121718
0.122059
0.122425
0.12281
0.123208
0.123616
0.124028
0.124444
0.12486
0.125275
0.125688
0.126097
0.126501
0.1269
0.127293
0.127679
0.128058
0.128429
0.128792
0.129147
0.129493
0.12983
0.130158
0.130478
0.130788
0.13109
0.131383
0.131666
0.131941
0.132208
0.132465
0.132715
0.132956
0.133188
0.133413
0.13363
0.13384
0.134042
0.134237
0.134425
0.134606
0.13478
0.134948
0.13511
0.135266
0.135416
0.13556
0.135699
0.135832
0.135961
0.136084
0.136203
0.136317
0.136427
0.136532
0.136634
0.136731
0.136825
0.136915
0.137001
0.137085
0.137164
0.137241
0.137315
0.137386
0.137455
0.13752
0.13977
0.139249
0.138673
0.138051
0.137392
0.13671
0.136027
0.135365
0.134725
0.134104
0.133499
0.132908
0.13233
0.131763
0.131205
0.130655
0.130113
0.129578
0.129048
0.128524
0.128005
0.127491
0.126982
0.126478
0.125981
0.125492
0.125012
0.124542
0.124085
0.123642
0.123215
0.122807
0.12242
0.122056
0.121717
0.121405
0.121123
0.120873
0.120656
0.120474
0.120328
0.120219
0.120148
0.120115
0.12012
0.120164
0.120245
0.120364
0.12052
0.120711
0.120938
0.121197
0.121489
0.121812
0.122163
0.122538
0.122931
0.123336
0.123749
0.124167
0.124586
0.125006
0.125425
0.125841
0.126252
0.126659
0.12706
0.127455
0.127843
0.128223
0.128595
0.128959
0.129314
0.12966
0.129998
0.130326
0.130645
0.130955
0.131256
0.131548
0.13183
0.132104
0.132369
0.132625
0.132872
0.133111
0.133342
0.133564
0.133779
0.133985
0.134185
0.134377
0.134562
0.134739
0.134911
0.135075
0.135234
0.135386
0.135532
0.135673
0.135808
0.135938
0.136062
0.136182
0.136297
0.136407
0.136513
0.136615
0.136712
0.136806
0.136896
0.136982
0.137065
0.137144
0.13722
0.137294
0.137364
0.137431
0.137496
0.137558
0.139773
0.139256
0.138685
0.138066
0.137411
0.136732
0.136053
0.135396
0.134763
0.134148
0.13355
0.132967
0.132396
0.131836
0.131285
0.130743
0.130207
0.129678
0.129154
0.128634
0.128119
0.127607
0.1271
0.126598
0.126101
0.125611
0.125129
0.124657
0.124197
0.123751
0.12332
0.122908
0.122516
0.122147
0.121803
0.121486
0.121199
0.120944
0.120723
0.120537
0.120387
0.120276
0.120202
0.120168
0.120173
0.120217
0.120299
0.120421
0.12058
0.120776
0.121007
0.121274
0.121574
0.121905
0.122266
0.122649
0.123049
0.123459
0.123877
0.124299
0.124723
0.125146
0.125568
0.125987
0.126401
0.126811
0.127214
0.127611
0.128
0.128381
0.128755
0.129119
0.129475
0.129822
0.13016
0.130488
0.130807
0.131116
0.131416
0.131707
0.131989
0.132261
0.132524
0.132778
0.133024
0.133261
0.133489
0.133709
0.133921
0.134126
0.134322
0.134511
0.134693
0.134868
0.135036
0.135198
0.135353
0.135501
0.135644
0.135781
0.135913
0.136039
0.13616
0.136276
0.136387
0.136494
0.136596
0.136694
0.136788
0.136877
0.136964
0.137046
0.137125
0.137201
0.137273
0.137343
0.137409
0.137473
0.137534
0.137593
0.139775
0.139262
0.138694
0.138078
0.137426
0.136751
0.136078
0.135428
0.134802
0.134195
0.133605
0.13303
0.132467
0.131915
0.131373
0.130838
0.130309
0.129786
0.129268
0.128753
0.128242
0.127733
0.127228
0.126727
0.12623
0.125739
0.125256
0.124782
0.124319
0.123869
0.123434
0.123017
0.12262
0.122246
0.121896
0.121574
0.121282
0.121021
0.120795
0.120604
0.120451
0.120336
0.12026
0.120224
0.120227
0.120271
0.120355
0.120478
0.12064
0.12084
0.121077
0.12135
0.121657
0.121997
0.122365
0.122756
0.123161
0.123577
0.124
0.124426
0.124853
0.12528
0.125705
0.126127
0.126544
0.126955
0.127361
0.127759
0.12815
0.128533
0.128908
0.129273
0.12963
0.129977
0.130315
0.130644
0.130962
0.131271
0.131571
0.131861
0.132141
0.132412
0.132674
0.132927
0.133171
0.133406
0.133632
0.13385
0.13406
0.134261
0.134455
0.134642
0.134821
0.134992
0.135157
0.135316
0.135467
0.135613
0.135752
0.135886
0.136014
0.136137
0.136254
0.136366
0.136474
0.136577
0.136675
0.136769
0.13686
0.136946
0.137028
0.137107
0.137182
0.137254
0.137323
0.137389
0.137452
0.137512
0.13757
0.137625
0.139777
0.139266
0.138701
0.138088
0.137438
0.136767
0.136102
0.135461
0.134843
0.134245
0.133664
0.133098
0.132545
0.132002
0.131467
0.130941
0.13042
0.129904
0.129392
0.128882
0.128375
0.127869
0.127366
0.126866
0.126369
0.125878
0.125393
0.124916
0.12445
0.123996
0.123557
0.123135
0.122732
0.122352
0.121997
0.121669
0.121371
0.121104
0.120872
0.120677
0.120519
0.1204
0.120321
0.120282
0.120284
0.120327
0.120412
0.120536
0.120701
0.120904
0.121146
0.121424
0.121738
0.122085
0.122461
0.122858
0.123269
0.12369
0.124116
0.124546
0.124977
0.125407
0.125835
0.12626
0.12668
0.127094
0.127501
0.127902
0.128295
0.128679
0.129055
0.129422
0.129779
0.130127
0.130465
0.130794
0.131112
0.131421
0.13172
0.132009
0.132289
0.132559
0.132819
0.133071
0.133313
0.133546
0.13377
0.133986
0.134193
0.134393
0.134584
0.134768
0.134944
0.135113
0.135275
0.13543
0.135578
0.135721
0.135857
0.135987
0.136112
0.136231
0.136345
0.136453
0.136557
0.136657
0.136751
0.136842
0.136928
0.137011
0.13709
0.137165
0.137237
0.137305
0.13737
0.137433
0.137492
0.137549
0.137603
0.137654
0.139778
0.139269
0.138705
0.138094
0.137447
0.136782
0.136126
0.135495
0.134887
0.134299
0.133728
0.133172
0.132628
0.132095
0.13157
0.131052
0.13054
0.130032
0.129526
0.129021
0.128518
0.128016
0.127515
0.127016
0.126519
0.126027
0.12554
0.125061
0.124591
0.124133
0.123689
0.123261
0.122853
0.122467
0.122105
0.121771
0.121466
0.121194
0.120956
0.120754
0.120591
0.120468
0.120385
0.120343
0.120343
0.120385
0.120469
0.120595
0.120761
0.120967
0.121213
0.121497
0.121817
0.122171
0.122553
0.122955
0.123371
0.123796
0.124227
0.124661
0.125095
0.125529
0.12596
0.126387
0.126809
0.127226
0.127636
0.128038
0.128433
0.128819
0.129196
0.129564
0.129922
0.130271
0.13061
0.130938
0.131257
0.131566
0.131864
0.132153
0.132432
0.132701
0.13296
0.13321
0.13345
0.133682
0.133904
0.134118
0.134323
0.13452
0.134709
0.13489
0.135063
0.13523
0.135389
0.135541
0.135686
0.135825
0.135958
0.136085
0.136206
0.136322
0.136432
0.136538
0.136638
0.136734
0.136825
0.136912
0.136995
0.137074
0.137149
0.13722
0.137288
0.137353
0.137415
0.137474
0.13753
0.137583
0.137634
0.137682
0.139778
0.139271
0.138707
0.138098
0.137454
0.136795
0.13615
0.13553
0.134934
0.134357
0.133797
0.133251
0.132718
0.132196
0.131681
0.131173
0.130669
0.130169
0.129669
0.129171
0.128672
0.128173
0.127674
0.127176
0.12668
0.126186
0.125697
0.125215
0.124742
0.124279
0.12383
0.123397
0.122983
0.12259
0.122221
0.12188
0.121568
0.121289
0.121044
0.120837
0.120668
0.120539
0.120452
0.120407
0.120404
0.120444
0.120527
0.120653
0.120821
0.12103
0.121279
0.121567
0.121893
0.122253
0.122641
0.123048
0.123468
0.123897
0.124332
0.124769
0.125207
0.125643
0.126078
0.126508
0.126933
0.127352
0.127764
0.128169
0.128565
0.128953
0.129331
0.1297
0.13006
0.130409
0.130749
0.131078
0.131397
0.131705
0.132004
0.132292
0.13257
0.132838
0.133096
0.133345
0.133584
0.133814
0.134034
0.134246
0.134449
0.134644
0.13483
0.135009
0.13518
0.135343
0.135499
0.135649
0.135791
0.135927
0.136057
0.13618
0.136298
0.13641
0.136517
0.136619
0.136716
0.136808
0.136896
0.13698
0.137059
0.137134
0.137206
0.137274
0.137338
0.1374
0.137458
0.137513
0.137566
0.137615
0.137663
0.137707
0.139778
0.13927
0.138708
0.1381
0.137459
0.136808
0.136176
0.135568
0.134984
0.134419
0.133871
0.133337
0.132816
0.132304
0.131801
0.131303
0.130808
0.130316
0.129823
0.129331
0.128836
0.128341
0.127844
0.127347
0.126851
0.126356
0.125866
0.12538
0.124903
0.124435
0.12398
0.123541
0.123121
0.122721
0.122345
0.121996
0.121677
0.12139
0.121139
0.120924
0.120749
0.120615
0.120522
0.120473
0.120467
0.120505
0.120586
0.120712
0.12088
0.121091
0.121343
0.121635
0.121966
0.122331
0.122724
0.123135
0.12356
0.123993
0.124431
0.124871
0.125312
0.125752
0.126189
0.126622
0.12705
0.127472
0.127886
0.128293
0.128691
0.129081
0.129461
0.129832
0.130192
0.130543
0.130883
0.131212
0.131532
0.13184
0.132139
0.132426
0.132704
0.132971
0.133229
0.133476
0.133714
0.133942
0.134161
0.134371
0.134572
0.134765
0.134949
0.135125
0.135293
0.135454
0.135607
0.135754
0.135893
0.136026
0.136153
0.136273
0.136388
0.136497
0.1366
0.136699
0.136792
0.136881
0.136965
0.137045
0.137121
0.137193
0.137261
0.137325
0.137386
0.137444
0.137499
0.137551
0.1376
0.137646
0.13769
0.137731
0.139778
0.139269
0.138706
0.138099
0.137463
0.136822
0.136203
0.135609
0.135038
0.134486
0.13395
0.13343
0.132921
0.132421
0.131929
0.131442
0.130957
0.130473
0.129988
0.129501
0.129012
0.12852
0.128026
0.12753
0.127034
0.126538
0.126044
0.125556
0.125074
0.124601
0.124141
0.123695
0.123267
0.12286
0.122477
0.12212
0.121793
0.121498
0.121239
0.121016
0.120834
0.120694
0.120596
0.120541
0.120532
0.120566
0.120646
0.12077
0.120939
0.12115
0.121404
0.1217
0.122035
0.122405
0.122802
0.123218
0.123646
0.124082
0.124524
0.124968
0.125412
0.125855
0.126295
0.126731
0.127162
0.127586
0.128003
0.128412
0.128812
0.129204
0.129586
0.129958
0.13032
0.130671
0.131012
0.131342
0.131662
0.131971
0.132269
0.132557
0.132834
0.133101
0.133357
0.133604
0.13384
0.134067
0.134284
0.134493
0.134692
0.134882
0.135065
0.135238
0.135404
0.135562
0.135713
0.135857
0.135993
0.136123
0.136247
0.136364
0.136475
0.136581
0.136681
0.136777
0.136867
0.136952
0.137033
0.137109
0.137181
0.13725
0.137314
0.137375
0.137433
0.137487
0.137538
0.137586
0.137632
0.137675
0.137715
0.137753
0.139777
0.139266
0.138703
0.138097
0.137466
0.136837
0.136234
0.135654
0.135096
0.134558
0.134037
0.133529
0.133034
0.132547
0.132067
0.131591
0.131116
0.130641
0.130164
0.129683
0.129199
0.128711
0.128219
0.127724
0.127227
0.12673
0.126234
0.125742
0.125256
0.124778
0.124311
0.123858
0.123423
0.123008
0.122616
0.122251
0.121915
0.121612
0.121344
0.121114
0.120924
0.120777
0.120672
0.120612
0.120598
0.120629
0.120706
0.120828
0.120996
0.121208
0.121464
0.121762
0.1221
0.122475
0.122875
0.123294
0.123726
0.124166
0.124611
0.125058
0.125506
0.125952
0.126395
0.126834
0.127267
0.127694
0.128114
0.128525
0.128928
0.129321
0.129705
0.130079
0.130442
0.130795
0.131137
0.131468
0.131788
0.132097
0.132396
0.132683
0.13296
0.133226
0.133482
0.133728
0.133963
0.134189
0.134405
0.134612
0.134809
0.134998
0.135178
0.135349
0.135513
0.135668
0.135817
0.135957
0.136091
0.136218
0.136339
0.136453
0.136561
0.136664
0.136761
0.136853
0.136939
0.137021
0.137099
0.137172
0.13724
0.137305
0.137366
0.137424
0.137478
0.137529
0.137576
0.137621
0.137663
0.137703
0.13774
0.137774
0.139775
0.139263
0.138697
0.138093
0.137469
0.136855
0.136267
0.135702
0.13516
0.134636
0.134129
0.133637
0.133155
0.132683
0.132215
0.13175
0.131286
0.13082
0.13035
0.129876
0.129397
0.128913
0.128424
0.12793
0.127433
0.126934
0.126436
0.125939
0.125448
0.124964
0.124491
0.124031
0.123588
0.123164
0.122764
0.12239
0.122045
0.121733
0.121456
0.121217
0.121019
0.120863
0.120752
0.120686
0.120666
0.120693
0.120766
0.120886
0.121052
0.121264
0.121521
0.121821
0.122162
0.12254
0.122944
0.123366
0.123801