/*--------------------------------*- C++ -*----------------------------------*\
  =========                 |
  \\      /  F ield         | OpenFOAM: The Open Source CFD Toolbox
   \\    /   O peration     | Website:  https://openfoam.org
    \\  /    A nd           | Version:  8
     \\/     M anipulation  |
\*---------------------------------------------------------------------------*/
FoamFile
{
    version     2.0;
    format      ascii;
    class       volScalarField;
    location    "8.3";
    object      p;
}
// * * * * * * * * * * * * * * * * * * * * * * * * * * * * * * * * * * * * * //

dimensions      [0 2 -2 0 0 0 0];

internalField   nonuniform List<scalar> 
262620
(
-1.35599
-1.35621
-1.35688
-1.3579
-1.35924
-1.36088
-1.36281
-1.36502
-1.36748
-1.37018
-1.37311
-1.37624
-1.37956
-1.38305
-1.38671
-1.39052
-1.39447
-1.39854
-1.40273
-1.40701
-1.41139
-1.41585
-1.42038
-1.42498
-1.42963
-1.43432
-1.43906
-1.44382
-1.44861
-1.45342
-1.45824
-1.46306
-1.46789
-1.47271
-1.47752
-1.48232
-1.48711
-1.49187
-1.4966
-1.50131
-1.50599
-1.51064
-1.51524
-1.51981
-1.52434
-1.52883
-1.53327
-1.53767
-1.54202
-1.54632
-1.55057
-1.55476
-1.55891
-1.56301
-1.56705
-1.57104
-1.57497
-1.57885
-1.58267
-1.58644
-1.59016
-1.59382
-1.59742
-1.60097
-1.60446
-1.6079
-1.61129
-1.61462
-1.6179
-1.62112
-1.62429
-1.62741
-1.63048
-1.63349
-1.63645
-1.63937
-1.64223
-1.64504
-1.6478
-1.65052
-1.65319
-1.65581
-1.65838
-1.66091
-1.66339
-1.66583
-1.66823
-1.67058
-1.67289
-1.67515
-1.67738
-1.67956
-1.68171
-1.68381
-1.68588
-1.68791
-1.6899
-1.69185
-1.69377
-1.69565
-1.6975
-1.69931
-1.70109
-1.70283
-1.70455
-1.70623
-1.70788
-1.70949
-1.71108
-1.71264
-1.71417
-1.71567
-1.71714
-1.71859
-1.72001
-1.7214
-1.72276
-1.7241
-1.72542
-1.7267
-1.35586
-1.35607
-1.35674
-1.35776
-1.3591
-1.36074
-1.36267
-1.36488
-1.36734
-1.37004
-1.37296
-1.37609
-1.37941
-1.38291
-1.38657
-1.39038
-1.39433
-1.3984
-1.40258
-1.40687
-1.41125
-1.41571
-1.42025
-1.42484
-1.42949
-1.43419
-1.43893
-1.44369
-1.44848
-1.45329
-1.45811
-1.46294
-1.46777
-1.47259
-1.47741
-1.48221
-1.487
-1.49176
-1.4965
-1.50121
-1.50589
-1.51054
-1.51515
-1.51972
-1.52425
-1.52874
-1.53319
-1.53759
-1.54194
-1.54624
-1.5505
-1.5547
-1.55885
-1.56295
-1.56699
-1.57098
-1.57492
-1.5788
-1.58263
-1.5864
-1.59012
-1.59378
-1.59739
-1.60094
-1.60444
-1.60788
-1.61127
-1.6146
-1.61788
-1.62111
-1.62428
-1.6274
-1.63047
-1.63349
-1.63645
-1.63937
-1.64223
-1.64505
-1.64782
-1.65053
-1.6532
-1.65583
-1.6584
-1.66093
-1.66342
-1.66586
-1.66826
-1.67061
-1.67292
-1.67519
-1.67742
-1.67961
-1.68175
-1.68386
-1.68593
-1.68796
-1.68995
-1.69191
-1.69383
-1.69571
-1.69756
-1.69938
-1.70116
-1.70291
-1.70462
-1.7063
-1.70795
-1.70957
-1.71116
-1.71273
-1.71426
-1.71576
-1.71723
-1.71868
-1.7201
-1.72149
-1.72286
-1.7242
-1.72551
-1.7268
-1.35562
-1.35584
-1.3565
-1.35752
-1.35885
-1.36049
-1.36242
-1.36463
-1.36709
-1.36979
-1.37271
-1.37584
-1.37916
-1.38266
-1.38632
-1.39013
-1.39408
-1.39815
-1.40234
-1.40663
-1.41101
-1.41547
-1.42001
-1.42461
-1.42926
-1.43396
-1.4387
-1.44347
-1.44826
-1.45308
-1.4579
-1.46273
-1.46757
-1.47239
-1.47721
-1.48202
-1.48681
-1.49158
-1.49632
-1.50104
-1.50572
-1.51038
-1.51499
-1.51957
-1.52411
-1.5286
-1.53305
-1.53746
-1.54181
-1.54612
-1.55038
-1.55459
-1.55874
-1.56284
-1.56689
-1.57089
-1.57483
-1.57872
-1.58255
-1.58633
-1.59005
-1.59372
-1.59733
-1.60089
-1.60439
-1.60784
-1.61123
-1.61457
-1.61785
-1.62108
-1.62426
-1.62739
-1.63046
-1.63348
-1.63645
-1.63937
-1.64224
-1.64506
-1.64783
-1.65055
-1.65323
-1.65586
-1.65844
-1.66097
-1.66346
-1.66591
-1.66831
-1.67066
-1.67298
-1.67525
-1.67748
-1.67967
-1.68182
-1.68393
-1.686
-1.68804
-1.69003
-1.69199
-1.69392
-1.6958
-1.69766
-1.69947
-1.70126
-1.70301
-1.70473
-1.70641
-1.70807
-1.70969
-1.71128
-1.71284
-1.71438
-1.71588
-1.71736
-1.71881
-1.72023
-1.72163
-1.72299
-1.72434
-1.72566
-1.72695
-1.35528
-1.35548
-1.35615
-1.35716
-1.35849
-1.36012
-1.36205
-1.36425
-1.36671
-1.36941
-1.37233
-1.37546
-1.37878
-1.38228
-1.38594
-1.38975
-1.3937
-1.39778
-1.40196
-1.40626
-1.41064
-1.41511
-1.41965
-1.42425
-1.42891
-1.43361
-1.43836
-1.44313
-1.44793
-1.45275
-1.45758
-1.46242
-1.46726
-1.47209
-1.47692
-1.48173
-1.48653
-1.4913
-1.49605
-1.50078
-1.50547
-1.51013
-1.51475
-1.51934
-1.52388
-1.52838
-1.53284
-1.53725
-1.54162
-1.54593
-1.5502
-1.55441
-1.55858
-1.56269
-1.56674
-1.57075
-1.5747
-1.57859
-1.58243
-1.58622
-1.58995
-1.59362
-1.59724
-1.60081
-1.60432
-1.60777
-1.61117
-1.61452
-1.61781
-1.62105
-1.62423
-1.62737
-1.63045
-1.63348
-1.63645
-1.63938
-1.64226
-1.64508
-1.64786
-1.65059
-1.65327
-1.6559
-1.65849
-1.66103
-1.66353
-1.66598
-1.66838
-1.67075
-1.67307
-1.67535
-1.67758
-1.67978
-1.68194
-1.68405
-1.68613
-1.68817
-1.69017
-1.69214
-1.69406
-1.69596
-1.69781
-1.69964
-1.70142
-1.70318
-1.7049
-1.70659
-1.70825
-1.70988
-1.71148
-1.71304
-1.71458
-1.71609
-1.71757
-1.71903
-1.72045
-1.72185
-1.72322
-1.72457
-1.72589
-1.72719
-1.35482
-1.35502
-1.35567
-1.35668
-1.358
-1.35963
-1.36156
-1.36376
-1.36621
-1.36891
-1.37183
-1.37496
-1.37828
-1.38177
-1.38544
-1.38925
-1.3932
-1.39728
-1.40147
-1.40577
-1.41016
-1.41463
-1.41917
-1.42378
-1.42844
-1.43315
-1.4379
-1.44269
-1.44749
-1.45232
-1.45716
-1.462
-1.46685
-1.47169
-1.47653
-1.48135
-1.48615
-1.49094
-1.4957
-1.50043
-1.50513
-1.5098
-1.51443
-1.51903
-1.52358
-1.5281
-1.53256
-1.53699
-1.54136
-1.54569
-1.54996
-1.55419
-1.55836
-1.56248
-1.56655
-1.57056
-1.57452
-1.57843
-1.58228
-1.58607
-1.58981
-1.5935
-1.59713
-1.6007
-1.60422
-1.60769
-1.6111
-1.61445
-1.61775
-1.621
-1.6242
-1.62734
-1.63043
-1.63347
-1.63645
-1.63939
-1.64227
-1.64511
-1.64789
-1.65063
-1.65332
-1.65596
-1.65856
-1.66111
-1.66361
-1.66607
-1.66848
-1.67086
-1.67318
-1.67547
-1.67771
-1.67992
-1.68208
-1.6842
-1.68629
-1.68833
-1.69034
-1.69231
-1.69425
-1.69615
-1.69801
-1.69984
-1.70164
-1.7034
-1.70513
-1.70682
-1.70849
-1.71012
-1.71172
-1.7133
-1.71484
-1.71635
-1.71784
-1.7193
-1.72073
-1.72213
-1.72351
-1.72486
-1.72619
-1.72749
-1.35425
-1.35444
-1.35509
-1.35609
-1.3574
-1.35903
-1.36095
-1.36315
-1.3656
-1.36829
-1.37121
-1.37434
-1.37766
-1.38115
-1.38482
-1.38863
-1.39259
-1.39667
-1.40087
-1.40517
-1.40956
-1.41403
-1.41858
-1.4232
-1.42787
-1.43259
-1.43734
-1.44213
-1.44695
-1.45178
-1.45663
-1.46149
-1.46634
-1.4712
-1.47604
-1.48087
-1.48569
-1.49049
-1.49526
-1.5
-1.50472
-1.5094
-1.51404
-1.51865
-1.52322
-1.52774
-1.53222
-1.53665
-1.54104
-1.54538
-1.54967
-1.55391
-1.55809
-1.56223
-1.56631
-1.57033
-1.57431
-1.57822
-1.58209
-1.5859
-1.58965
-1.59334
-1.59699
-1.60057
-1.60411
-1.60758
-1.611
-1.61437
-1.61769
-1.62095
-1.62415
-1.6273
-1.63041
-1.63345
-1.63645
-1.6394
-1.64229
-1.64514
-1.64794
-1.65069
-1.65339
-1.65604
-1.65864
-1.6612
-1.66372
-1.66619
-1.66861
-1.67099
-1.67333
-1.67562
-1.67788
-1.68009
-1.68226
-1.6844
-1.68649
-1.68854
-1.69056
-1.69254
-1.69448
-1.69639
-1.69826
-1.7001
-1.7019
-1.70367
-1.70541
-1.70711
-1.70878
-1.71042
-1.71204
-1.71362
-1.71517
-1.71669
-1.71818
-1.71965
-1.72108
-1.72249
-1.72388
-1.72524
-1.72657
-1.72787
-1.35357
-1.35375
-1.35439
-1.35538
-1.35669
-1.35831
-1.36023
-1.36242
-1.36487
-1.36756
-1.37047
-1.3736
-1.37692
-1.38042
-1.38408
-1.3879
-1.39186
-1.39594
-1.40014
-1.40445
-1.40885
-1.41333
-1.41789
-1.42251
-1.42719
-1.43191
-1.43668
-1.44148
-1.4463
-1.45115
-1.45601
-1.46087
-1.46574
-1.47061
-1.47547
-1.48031
-1.48514
-1.48995
-1.49473
-1.49949
-1.50422
-1.50892
-1.51358
-1.5182
-1.52278
-1.52732
-1.53181
-1.53626
-1.54066
-1.54502
-1.54932
-1.55357
-1.55777
-1.56192
-1.56602
-1.57006
-1.57405
-1.57798
-1.58186
-1.58568
-1.58945
-1.59316
-1.59682
-1.60042
-1.60397
-1.60746
-1.61089
-1.61428
-1.6176
-1.62088
-1.6241
-1.62726
-1.63038
-1.63344
-1.63645
-1.63941
-1.64232
-1.64518
-1.64799
-1.65075
-1.65346
-1.65613
-1.65875
-1.66132
-1.66384
-1.66632
-1.66876
-1.67115
-1.6735
-1.67581
-1.67807
-1.6803
-1.68248
-1.68462
-1.68673
-1.68879
-1.69082
-1.69281
-1.69476
-1.69668
-1.69856
-1.7004
-1.70222
-1.704
-1.70574
-1.70745
-1.70913
-1.71078
-1.7124
-1.71399
-1.71555
-1.71708
-1.71858
-1.72005
-1.7215
-1.72292
-1.72431
-1.72567
-1.72701
-1.72832
-1.35279
-1.35296
-1.35359
-1.35457
-1.35587
-1.35748
-1.35939
-1.36158
-1.36402
-1.36671
-1.36962
-1.37274
-1.37606
-1.37956
-1.38323
-1.38705
-1.39101
-1.3951
-1.39931
-1.40362
-1.40802
-1.41251
-1.41708
-1.42171
-1.4264
-1.43113
-1.43591
-1.44072
-1.44556
-1.45042
-1.45529
-1.46017
-1.46505
-1.46993
-1.4748
-1.47966
-1.4845
-1.48933
-1.49413
-1.4989
-1.50365
-1.50836
-1.51304
-1.51767
-1.52227
-1.52683
-1.53134
-1.53581
-1.54023
-1.5446
-1.54892
-1.55319
-1.55741
-1.56157
-1.56569
-1.56975
-1.57375
-1.5777
-1.5816
-1.58544
-1.58922
-1.59295
-1.59662
-1.60024
-1.6038
-1.60731
-1.61077
-1.61416
-1.61751
-1.6208
-1.62403
-1.62722
-1.63035
-1.63343
-1.63645
-1.63943
-1.64235
-1.64523
-1.64805
-1.65082
-1.65355
-1.65623
-1.65886
-1.66145
-1.66399
-1.66648
-1.66893
-1.67134
-1.6737
-1.67602
-1.6783
-1.68053
-1.68273
-1.68488
-1.687
-1.68908
-1.69112
-1.69312
-1.69508
-1.69701
-1.6989
-1.70076
-1.70258
-1.70437
-1.70613
-1.70785
-1.70954
-1.7112
-1.71283
-1.71443
-1.716
-1.71753
-1.71905
-1.72053
-1.72198
-1.72341
-1.72481
-1.72618
-1.72753
-1.72885
-1.35191
-1.35206
-1.35268
-1.35365
-1.35494
-1.35654
-1.35844
-1.36062
-1.36306
-1.36575
-1.36866
-1.37178
-1.3751
-1.3786
-1.38227
-1.38609
-1.39005
-1.39415
-1.39836
-1.40268
-1.40709
-1.41159
-1.41616
-1.4208
-1.4255
-1.43025
-1.43504
-1.43986
-1.44471
-1.44959
-1.45447
-1.45937
-1.46426
-1.46916
-1.47405
-1.47892
-1.48378
-1.48863
-1.49345
-1.49824
-1.503
-1.50773
-1.51242
-1.51708
-1.5217
-1.52627
-1.53081
-1.53529
-1.53973
-1.54412
-1.54846
-1.55275
-1.55699
-1.56118
-1.56531
-1.56939
-1.57341
-1.57738
-1.5813
-1.58516
-1.58896
-1.59271
-1.5964
-1.60004
-1.60362
-1.60715
-1.61062
-1.61404
-1.6174
-1.62071
-1.62396
-1.62716
-1.63031
-1.63341
-1.63645
-1.63944
-1.64239
-1.64528
-1.64812
-1.65091
-1.65365
-1.65635
-1.659
-1.6616
-1.66415
-1.66666
-1.66913
-1.67155
-1.67393
-1.67626
-1.67855
-1.6808
-1.68301
-1.68518
-1.68731
-1.6894
-1.69145
-1.69347
-1.69544
-1.69739
-1.69929
-1.70116
-1.703
-1.7048
-1.70656
-1.7083
-1.71
-1.71167
-1.71331
-1.71492
-1.7165
-1.71805
-1.71957
-1.72106
-1.72253
-1.72396
-1.72538
-1.72676
-1.72812
-1.72944
-1.35092
-1.35106
-1.35166
-1.35262
-1.3539
-1.35549
-1.35739
-1.35956
-1.36199
-1.36467
-1.36758
-1.3707
-1.37402
-1.37752
-1.38119
-1.38502
-1.38899
-1.39309
-1.39731
-1.40163
-1.40605
-1.41056
-1.41514
-1.4198
-1.42451
-1.42927
-1.43407
-1.43891
-1.44377
-1.44866
-1.45356
-1.45847
-1.46339
-1.4683
-1.47321
-1.4781
-1.48298
-1.48784
-1.49268
-1.49749
-1.50228
-1.50703
-1.51174
-1.51642
-1.52106
-1.52566
-1.53021
-1.53472
-1.53918
-1.54359
-1.54795
-1.55226
-1.55653
-1.56073
-1.56489
-1.56899
-1.57304
-1.57703
-1.58096
-1.58485
-1.58867
-1.59244
-1.59616
-1.59981
-1.60342
-1.60697
-1.61046
-1.6139
-1.61728
-1.62061
-1.62388
-1.6271
-1.63027
-1.63339
-1.63645
-1.63946
-1.64242
-1.64533
-1.64819
-1.651
-1.65377
-1.65648
-1.65915
-1.66176
-1.66434
-1.66686
-1.66935
-1.67178
-1.67418
-1.67653
-1.67884
-1.6811
-1.68333
-1.68551
-1.68766
-1.68976
-1.69183
-1.69386
-1.69585
-1.69781
-1.69973
-1.70161
-1.70346
-1.70527
-1.70705
-1.7088
-1.71052
-1.7122
-1.71385
-1.71547
-1.71706
-1.71863
-1.72016
-1.72166
-1.72314
-1.72459
-1.72601
-1.7274
-1.72877
-1.73011
-1.34984
-1.34996
-1.35055
-1.35149
-1.35276
-1.35434
-1.35623
-1.35839
-1.36082
-1.36349
-1.3664
-1.36952
-1.37284
-1.37634
-1.38001
-1.38384
-1.38781
-1.39192
-1.39614
-1.40048
-1.40491
-1.40943
-1.41402
-1.41868
-1.42341
-1.42818
-1.433
-1.43785
-1.44273
-1.44764
-1.45256
-1.45749
-1.46242
-1.46735
-1.47228
-1.4772
-1.4821
-1.48698
-1.49184
-1.49667
-1.50148
-1.50625
-1.51099
-1.51569
-1.52035
-1.52497
-1.52955
-1.53408
-1.53857
-1.543
-1.54739
-1.55173
-1.55601
-1.56025
-1.56442
-1.56855
-1.57262
-1.57664
-1.5806
-1.5845
-1.58835
-1.59215
-1.59588
-1.59957
-1.60319
-1.60676
-1.61028
-1.61374
-1.61715
-1.6205
-1.6238
-1.62704
-1.63023
-1.63337
-1.63645
-1.63948
-1.64247
-1.6454
-1.64828
-1.65111
-1.65389
-1.65662
-1.65931
-1.66195
-1.66454
-1.66709
-1.66959
-1.67204
-1.67445
-1.67682
-1.67915
-1.68143
-1.68368
-1.68588
-1.68804
-1.69016
-1.69225
-1.69429
-1.6963
-1.69827
-1.7002
-1.7021
-1.70397
-1.7058
-1.70759
-1.70935
-1.71108
-1.71278
-1.71445
-1.71608
-1.71769
-1.71926
-1.72081
-1.72232
-1.72381
-1.72527
-1.72671
-1.72811
-1.72949
-1.73084
-1.34865
-1.34876
-1.34933
-1.35026
-1.35151
-1.35308
-1.35496
-1.35712
-1.35954
-1.36221
-1.36511
-1.36823
-1.37154
-1.37505
-1.37872
-1.38255
-1.38653
-1.39064
-1.39488
-1.39922
-1.40366
-1.40819
-1.4128
-1.41747
-1.42221
-1.427
-1.43183
-1.4367
-1.4416
-1.44652
-1.45146
-1.45641
-1.46137
-1.46632
-1.47127
-1.47621
-1.48113
-1.48604
-1.49092
-1.49578
-1.50061
-1.50541
-1.51017
-1.5149
-1.51959
-1.52423
-1.52883
-1.53339
-1.5379
-1.54237
-1.54678
-1.55114
-1.55545
-1.55971
-1.56392
-1.56807
-1.57217
-1.57621
-1.5802
-1.58413
-1.588
-1.59182
-1.59559
-1.5993
-1.60295
-1.60654
-1.61009
-1.61357
-1.617
-1.62038
-1.6237
-1.62697
-1.63018
-1.63334
-1.63645
-1.63951
-1.64251
-1.64547
-1.64837
-1.65122
-1.65403
-1.65678
-1.65949
-1.66215
-1.66476
-1.66733
-1.66985
-1.67233
-1.67476
-1.67715
-1.67949
-1.68179
-1.68406
-1.68628
-1.68846
-1.6906
-1.6927
-1.69476
-1.69679
-1.69878
-1.70073
-1.70264
-1.70452
-1.70637
-1.70818
-1.70996
-1.7117
-1.71342
-1.7151
-1.71675
-1.71837
-1.71995
-1.72151
-1.72304
-1.72455
-1.72602
-1.72747
-1.72889
-1.73028
-1.73163
-1.34738
-1.34746
-1.34801
-1.34893
-1.35017
-1.35173
-1.35359
-1.35574
-1.35815
-1.36082
-1.36371
-1.36683
-1.37015
-1.37365
-1.37733
-1.38116
-1.38515
-1.38927
-1.39351
-1.39786
-1.40231
-1.40685
-1.41147
-1.41616
-1.42091
-1.42572
-1.43057
-1.43546
-1.44038
-1.44532
-1.45028
-1.45525
-1.46023
-1.4652
-1.47017
-1.47514
-1.48009
-1.48502
-1.48993
-1.49481
-1.49967
-1.50449
-1.50928
-1.51404
-1.51875
-1.52343
-1.52806
-1.53264
-1.53718
-1.54167
-1.54612
-1.55051
-1.55485
-1.55914
-1.56337
-1.56755
-1.57168
-1.57575
-1.57976
-1.58372
-1.58763
-1.59147
-1.59527
-1.599
-1.60268
-1.60631
-1.60987
-1.61339
-1.61684
-1.62025
-1.6236
-1.62689
-1.63013
-1.63332
-1.63645
-1.63953
-1.64256
-1.64554
-1.64847
-1.65134
-1.65417
-1.65695
-1.65968
-1.66237
-1.665
-1.66759
-1.67013
-1.67263
-1.67509
-1.6775
-1.67986
-1.68219
-1.68447
-1.68671
-1.68891
-1.69107
-1.69319
-1.69527
-1.69732
-1.69932
-1.70129
-1.70323
-1.70512
-1.70699
-1.70882
-1.71061
-1.71237
-1.7141
-1.7158
-1.71747
-1.7191
-1.72071
-1.72228
-1.72383
-1.72534
-1.72683
-1.72829
-1.72973
-1.73113
-1.7325
-1.346
-1.34606
-1.3466
-1.3475
-1.34872
-1.35027
-1.35212
-1.35426
-1.35667
-1.35932
-1.36222
-1.36533
-1.36865
-1.37215
-1.37583
-1.37967
-1.38366
-1.38779
-1.39204
-1.3964
-1.40086
-1.40541
-1.41005
-1.41475
-1.41952
-1.42435
-1.42922
-1.43412
-1.43906
-1.44403
-1.44901
-1.454
-1.459
-1.464
-1.469
-1.47399
-1.47896
-1.48392
-1.48886
-1.49377
-1.49866
-1.50351
-1.50833
-1.51311
-1.51786
-1.52256
-1.52722
-1.53184
-1.53641
-1.54093
-1.5454
-1.54983
-1.5542
-1.55852
-1.56278
-1.56699
-1.57115
-1.57525
-1.5793
-1.58329
-1.58722
-1.5911
-1.59492
-1.59869
-1.6024
-1.60605
-1.60965
-1.61319
-1.61668
-1.62011
-1.62348
-1.62681
-1.63007
-1.63329
-1.63645
-1.63956
-1.64261
-1.64562
-1.64857
-1.65148
-1.65433
-1.65714
-1.65989
-1.6626
-1.66526
-1.66787
-1.67044
-1.67296
-1.67544
-1.67787
-1.68026
-1.68261
-1.68491
-1.68717
-1.6894
-1.69158
-1.69372
-1.69582
-1.69789
-1.69991
-1.7019
-1.70386
-1.70577
-1.70766
-1.7095
-1.71132
-1.7131
-1.71484
-1.71656
-1.71824
-1.71989
-1.72151
-1.7231
-1.72467
-1.7262
-1.7277
-1.72918
-1.73063
-1.73205
-1.73343
-1.34454
-1.34458
-1.34509
-1.34597
-1.34718
-1.34871
-1.35055
-1.35268
-1.35508
-1.35773
-1.36062
-1.36373
-1.36704
-1.37055
-1.37423
-1.37808
-1.38207
-1.38621
-1.39046
-1.39484
-1.39931
-1.40388
-1.40853
-1.41325
-1.41804
-1.42288
-1.42777
-1.4327
-1.43766
-1.44264
-1.44765
-1.45267
-1.45769
-1.46272
-1.46774
-1.47276
-1.47776
-1.48275
-1.48772
-1.49266
-1.49757
-1.50246
-1.50731
-1.51212
-1.5169
-1.52164
-1.52633
-1.53098
-1.53558
-1.54014
-1.54464
-1.5491
-1.5535
-1.55785
-1.56215
-1.56639
-1.57058
-1.57472
-1.5788
-1.58282
-1.58679
-1.5907
-1.59455
-1.59835
-1.60209
-1.60578
-1.60941
-1.61298
-1.6165
-1.61996
-1.62336
-1.62672
-1.63001
-1.63326
-1.63645
-1.63959
-1.64267
-1.64571
-1.64869
-1.65162
-1.6545
-1.65733
-1.66011
-1.66285
-1.66554
-1.66817
-1.67077
-1.67331
-1.67582
-1.67827
-1.68069
-1.68306
-1.68539
-1.68767
-1.68992
-1.69212
-1.69429
-1.69641
-1.6985
-1.70054
-1.70255
-1.70453
-1.70647
-1.70837
-1.71024
-1.71207
-1.71387
-1.71563
-1.71737
-1.71907
-1.72074
-1.72238
-1.72399
-1.72557
-1.72712
-1.72864
-1.73013
-1.7316
-1.73303
-1.73442
-1.34299
-1.343
-1.34349
-1.34435
-1.34554
-1.34706
-1.34888
-1.351
-1.35339
-1.35604
-1.35892
-1.36203
-1.36534
-1.36885
-1.37253
-1.37638
-1.38039
-1.38453
-1.38879
-1.39318
-1.39766
-1.40225
-1.40691
-1.41165
-1.41646
-1.42132
-1.42623
-1.43118
-1.43616
-1.44117
-1.4462
-1.45125
-1.4563
-1.46136
-1.46641
-1.47145
-1.47649
-1.4815
-1.4865
-1.49148
-1.49642
-1.50134
-1.50622
-1.51107
-1.51588
-1.52065
-1.52538
-1.53006
-1.5347
-1.53929
-1.54383
-1.54832
-1.55276
-1.55715
-1.56148
-1.56576
-1.56998
-1.57415
-1.57827
-1.58232
-1.58633
-1.59027
-1.59416
-1.59799
-1.60177
-1.60548
-1.60915
-1.61275
-1.6163
-1.6198
-1.62324
-1.62662
-1.62995
-1.63323
-1.63645
-1.63962
-1.64273
-1.6458
-1.64881
-1.65177
-1.65468
-1.65754
-1.66035
-1.66311
-1.66583
-1.6685
-1.67112
-1.67369
-1.67622
-1.6787
-1.68114
-1.68354
-1.68589
-1.6882
-1.69047
-1.6927
-1.69489
-1.69704
-1.69914
-1.70122
-1.70325
-1.70525
-1.7072
-1.70913
-1.71102
-1.71287
-1.71469
-1.71648
-1.71823
-1.71995
-1.72164
-1.7233
-1.72493
-1.72652
-1.72809
-1.72963
-1.73114
-1.73262
-1.73408
-1.73548
-1.34134
-1.34133
-1.3418
-1.34264
-1.34381
-1.34531
-1.34712
-1.34923
-1.35161
-1.35424
-1.35712
-1.36023
-1.36354
-1.36705
-1.37074
-1.37459
-1.3786
-1.38275
-1.38703
-1.39142
-1.39592
-1.40052
-1.4052
-1.40996
-1.41478
-1.41967
-1.4246
-1.42957
-1.43458
-1.43962
-1.44467
-1.44975
-1.45483
-1.45991
-1.46499
-1.47007
-1.47514
-1.48019
-1.48522
-1.49022
-1.4952
-1.50016
-1.50508
-1.50996
-1.51481
-1.51961
-1.52438
-1.52909
-1.53377
-1.5384
-1.54297
-1.5475
-1.55198
-1.5564
-1.56077
-1.56509
-1.56935
-1.57355
-1.5777
-1.5818
-1.58584
-1.58982
-1.59374
-1.59761
-1.60142
-1.60518
-1.60887
-1.61251
-1.6161
-1.61963
-1.6231
-1.62652
-1.62988
-1.63319
-1.63645
-1.63965
-1.6428
-1.64589
-1.64894
-1.65193
-1.65487
-1.65776
-1.6606
-1.6634
-1.66614
-1.66884
-1.67149
-1.67409
-1.67665
-1.67916
-1.68162
-1.68405
-1.68643
-1.68876
-1.69106
-1.69331
-1.69553
-1.6977
-1.69983
-1.70193
-1.70399
-1.706
-1.70799
-1.70993
-1.71185
-1.71372
-1.71556
-1.71737
-1.71914
-1.72089
-1.7226
-1.72427
-1.72592
-1.72754
-1.72913
-1.73068
-1.73221
-1.73372
-1.73518
-1.73661
-1.33961
-1.33957
-1.34001
-1.34083
-1.34198
-1.34346
-1.34526
-1.34736
-1.34973
-1.35236
-1.35523
-1.35833
-1.36164
-1.36515
-1.36884
-1.3727
-1.37672
-1.38088
-1.38516
-1.38957
-1.39409
-1.3987
-1.4034
-1.40818
-1.41302
-1.41792
-1.42288
-1.42788
-1.43291
-1.43798
-1.44306
-1.44816
-1.45327
-1.45839
-1.4635
-1.46861
-1.47371
-1.47879
-1.48386
-1.4889
-1.49392
-1.49891
-1.50386
-1.50878
-1.51367
-1.51851
-1.52331
-1.52807
-1.53278
-1.53745
-1.54207
-1.54663
-1.55115
-1.55561
-1.56002
-1.56437
-1.56868
-1.57292
-1.57711
-1.58124
-1.58532
-1.58934
-1.5933
-1.59721
-1.60106
-1.60485
-1.60858
-1.61226
-1.61589
-1.61945
-1.62296
-1.62642
-1.62981
-1.63316
-1.63645
-1.63968
-1.64287
-1.646
-1.64907
-1.6521
-1.65507
-1.658
-1.66087
-1.66369
-1.66647
-1.6692
-1.67188
-1.67451
-1.6771
-1.67964
-1.68213
-1.68458
-1.68699
-1.68936
-1.69168
-1.69396
-1.6962
-1.6984
-1.70056
-1.70268
-1.70476
-1.70681
-1.70881
-1.71079
-1.71272
-1.71462
-1.71648
-1.71831
-1.72011
-1.72187
-1.72361
-1.72531
-1.72697
-1.72861
-1.73022
-1.7318
-1.73335
-1.73487
-1.73635
-1.73779
-1.33779
-1.33772
-1.33814
-1.33893
-1.34006
-1.34153
-1.34331
-1.34539
-1.34775
-1.35037
-1.35324
-1.35634
-1.35965
-1.36316
-1.36685
-1.37072
-1.37474
-1.37891
-1.38321
-1.38763
-1.39216
-1.39679
-1.40151
-1.4063
-1.41117
-1.41609
-1.42107
-1.4261
-1.43116
-1.43625
-1.44137
-1.4465
-1.45164
-1.45679
-1.46193
-1.46708
-1.47221
-1.47733
-1.48243
-1.48751
-1.49257
-1.49759
-1.50259
-1.50755
-1.51247
-1.51736
-1.5222
-1.527
-1.53175
-1.53646
-1.54111
-1.54572
-1.55028
-1.55478
-1.55923
-1.56363
-1.56797
-1.57225
-1.57649
-1.58066
-1.58478
-1.58884
-1.59284
-1.59679
-1.60067
-1.60451
-1.60828
-1.612
-1.61566
-1.61926
-1.62281
-1.6263
-1.62974
-1.63312
-1.63645
-1.63972
-1.64294
-1.6461
-1.64922
-1.65228
-1.65529
-1.65824
-1.66115
-1.66401
-1.66682
-1.66958
-1.67229
-1.67495
-1.67757
-1.68014
-1.68267
-1.68515
-1.68759
-1.68998
-1.69233
-1.69464
-1.69691
-1.69914
-1.70133
-1.70347
-1.70558
-1.70765
-1.70969
-1.71168
-1.71364
-1.71556
-1.71745
-1.71931
-1.72113
-1.72292
-1.72467
-1.72639
-1.72808
-1.72974
-1.73137
-1.73297
-1.73454
-1.73608
-1.73759
-1.73904
-1.33589
-1.33579
-1.33618
-1.33695
-1.33806
-1.33951
-1.34127
-1.34334
-1.34569
-1.3483
-1.35116
-1.35425
-1.35756
-1.36107
-1.36477
-1.36864
-1.37267
-1.37685
-1.38116
-1.38559
-1.39014
-1.39478
-1.39952
-1.40434
-1.40923
-1.41418
-1.41918
-1.42423
-1.42932
-1.43444
-1.43959
-1.44475
-1.44993
-1.45511
-1.46029
-1.46547
-1.47064
-1.4758
-1.48094
-1.48606
-1.49115
-1.49622
-1.50125
-1.50625
-1.51122
-1.51614
-1.52103
-1.52587
-1.53066
-1.53541
-1.54011
-1.54476
-1.54936
-1.55391
-1.5584
-1.56284
-1.56723
-1.57156
-1.57583
-1.58005
-1.58421
-1.58831
-1.59235
-1.59634
-1.60027
-1.60415
-1.60796
-1.61172
-1.61542
-1.61907
-1.62265
-1.62619
-1.62966
-1.63308
-1.63645
-1.63976
-1.64301
-1.64622
-1.64937
-1.65246
-1.65551
-1.6585
-1.66145
-1.66434
-1.66718
-1.66997
-1.67272
-1.67542
-1.67807
-1.68067
-1.68323
-1.68574
-1.68821
-1.69064
-1.69302
-1.69536
-1.69766
-1.69991
-1.70213
-1.7043
-1.70644
-1.70854
-1.7106
-1.71262
-1.71461
-1.71656
-1.71847
-1.72035
-1.7222
-1.72401
-1.72579
-1.72753
-1.72925
-1.73093
-1.73258
-1.7342
-1.73579
-1.73736
-1.73888
-1.74036
-1.3339
-1.33377
-1.33414
-1.33488
-1.33596
-1.33739
-1.33914
-1.34119
-1.34353
-1.34613
-1.34899
-1.35207
-1.35538
-1.35889
-1.36259
-1.36647
-1.37051
-1.37469
-1.37902
-1.38347
-1.38803
-1.39269
-1.39745
-1.40229
-1.4072
-1.41217
-1.4172
-1.42228
-1.4274
-1.43255
-1.43773
-1.44293
-1.44814
-1.45335
-1.45857
-1.46379
-1.469
-1.47419
-1.47937
-1.48453
-1.48967
-1.49478
-1.49985
-1.5049
-1.5099
-1.51487
-1.5198
-1.52469
-1.52953
-1.53432
-1.53907
-1.54376
-1.5484
-1.553
-1.55754
-1.56202
-1.56645
-1.57082
-1.57514
-1.5794
-1.58361
-1.58776
-1.59185
-1.59588
-1.59985
-1.60377
-1.60763
-1.61143
-1.61517
-1.61886
-1.62249
-1.62606
-1.62958
-1.63304
-1.63645
-1.6398
-1.64309
-1.64633
-1.64952
-1.65266
-1.65574
-1.65877
-1.66175
-1.66468
-1.66756
-1.67039
-1.67317
-1.6759
-1.67859
-1.68123
-1.68382
-1.68637
-1.68887
-1.69132
-1.69374
-1.69611
-1.69844
-1.70072
-1.70297
-1.70518
-1.70734
-1.70947
-1.71156
-1.71361
-1.71562
-1.7176
-1.71954
-1.72144
-1.72332
-1.72515
-1.72696
-1.72873
-1.73046
-1.73217
-1.73385
-1.73549
-1.73711
-1.73869
-1.74024
-1.74173
-1.33183
-1.33167
-1.33201
-1.33272
-1.33378
-1.33519
-1.33692
-1.33896
-1.34128
-1.34387
-1.34672
-1.34981
-1.35311
-1.35662
-1.36033
-1.36421
-1.36825
-1.37245
-1.37679
-1.38125
-1.38583
-1.39051
-1.39529
-1.40015
-1.40508
-1.41008
-1.41514
-1.42025
-1.4254
-1.43058
-1.43579
-1.44102
-1.44627
-1.45152
-1.45678
-1.46203
-1.46728
-1.47252
-1.47774
-1.48294
-1.48812
-1.49327
-1.49839
-1.50348
-1.50853
-1.51355
-1.51852
-1.52345
-1.52834
-1.53318
-1.53797
-1.54271
-1.54741
-1.55205
-1.55663
-1.56116
-1.56564
-1.57006
-1.57443
-1.57873
-1.58298
-1.58718
-1.59131
-1.59539
-1.59941
-1.60337
-1.60728
-1.61112
-1.61491
-1.61864
-1.62232
-1.62593
-1.62949
-1.633
-1.63645
-1.63984
-1.64318
-1.64646
-1.64969
-1.65286
-1.65599
-1.65906
-1.66207
-1.66504
-1.66796
-1.67083
-1.67364
-1.67641
-1.67913
-1.68181
-1.68443
-1.68702
-1.68955
-1.69204
-1.69449
-1.69689
-1.69925
-1.70157
-1.70385
-1.70609
-1.70828
-1.71044
-1.71256
-1.71464
-1.71668
-1.71868
-1.72065
-1.72259
-1.72448
-1.72635
-1.72818
-1.72997
-1.73174
-1.73347
-1.73517
-1.73684
-1.73848
-1.74009
-1.74166
-1.74317
-1.32968
-1.32948
-1.32979
-1.33048
-1.33152
-1.3329
-1.33461
-1.33663
-1.33894
-1.34153
-1.34437
-1.34745
-1.35075
-1.35426
-1.35797
-1.36186
-1.36591
-1.37012
-1.37447
-1.37894
-1.38354
-1.38824
-1.39304
-1.39792
-1.40288
-1.40791
-1.413
-1.41813
-1.42331
-1.42853
-1.43378
-1.43904
-1.44432
-1.44962
-1.45491
-1.46021
-1.4655
-1.47078
-1.47604
-1.48129
-1.48651
-1.49171
-1.49687
-1.50201
-1.50711
-1.51217
-1.51719
-1.52217
-1.5271
-1.53199
-1.53683
-1.54162
-1.54636
-1.55105
-1.55569
-1.56027
-1.56479
-1.56926
-1.57368
-1.57803
-1.58233
-1.58658
-1.59076
-1.59489
-1.59895
-1.60296
-1.60691
-1.61081
-1.61464
-1.61842
-1.62214
-1.6258
-1.6294
-1.63295
-1.63644
-1.63988
-1.64326
-1.64659
-1.64986
-1.65307
-1.65624
-1.65935
-1.66241
-1.66542
-1.66837
-1.67128
-1.67413
-1.67694
-1.6797
-1.68241
-1.68508
-1.68769
-1.69026
-1.69279
-1.69527
-1.69771
-1.7001
-1.70245
-1.70476
-1.70703
-1.70926
-1.71145
-1.7136
-1.71571
-1.71778
-1.71982
-1.72181
-1.72378
-1.7257
-1.72759
-1.72945
-1.73127
-1.73306
-1.73482
-1.73655
-1.73824
-1.73991
-1.74154
-1.74313
-1.74467
-1.32745
-1.32722
-1.3275
-1.32815
-1.32917
-1.33053
-1.33222
-1.33422
-1.33652
-1.33909
-1.34193
-1.345
-1.3483
-1.35181
-1.35552
-1.35942
-1.36348
-1.3677
-1.37206
-1.37655
-1.38116
-1.38588
-1.3907
-1.39561
-1.4006
-1.40565
-1.41077
-1.41594
-1.42115
-1.4264
-1.43168
-1.43698
-1.4423
-1.44764
-1.45297
-1.45831
-1.46364
-1.46897
-1.47427
-1.47956
-1.48483
-1.49008
-1.49529
-1.50048
-1.50562
-1.51073
-1.51581
-1.52083
-1.52582
-1.53076
-1.53565
-1.54049
-1.54528
-1.55002
-1.55471
-1.55934
-1.56392
-1.56844
-1.5729
-1.57731
-1.58166
-1.58595
-1.59018
-1.59436
-1.59848
-1.60253
-1.60653
-1.61048
-1.61436
-1.61818
-1.62195
-1.62566
-1.62931
-1.6329
-1.63644
-1.63992
-1.64335
-1.64672
-1.65003
-1.65329
-1.6565
-1.65966
-1.66276
-1.66581
-1.6688
-1.67175
-1.67465
-1.67749
-1.68029
-1.68304
-1.68574
-1.6884
-1.691
-1.69357
-1.69608
-1.69856
-1.70099
-1.70337
-1.70572
-1.70802
-1.71028
-1.7125
-1.71468
-1.71683
-1.71893
-1.72099
-1.72302
-1.72501
-1.72697
-1.72889
-1.73078
-1.73263
-1.73445
-1.73623
-1.73798
-1.7397
-1.74139
-1.74305
-1.74467
-1.74622
-1.32515
-1.32487
-1.32512
-1.32575
-1.32673
-1.32807
-1.32974
-1.33173
-1.33401
-1.33657
-1.3394
-1.34247
-1.34576
-1.34928
-1.35299
-1.35689
-1.36096
-1.36519
-1.36956
-1.37407
-1.3787
-1.38344
-1.38828
-1.39322
-1.39823
-1.40331
-1.40846
-1.41366
-1.41891
-1.42419
-1.42951
-1.43485
-1.44021
-1.44558
-1.45096
-1.45634
-1.46172
-1.46709
-1.47244
-1.47778
-1.4831
-1.48839
-1.49365
-1.49889
-1.50408
-1.50925
-1.51437
-1.51945
-1.52449
-1.52948
-1.53442
-1.53931
-1.54416
-1.54895
-1.55369
-1.55837
-1.563
-1.56758
-1.57209
-1.57655
-1.58095
-1.5853
-1.58958
-1.59381
-1.59798
-1.60209
-1.60614
-1.61013
-1.61406
-1.61794
-1.62175
-1.62551
-1.62921
-1.63285
-1.63644
-1.63997
-1.64344
-1.64686
-1.65022
-1.65352
-1.65677
-1.65997
-1.66312
-1.66621
-1.66925
-1.67224
-1.67518
-1.67806
-1.6809
-1.68369
-1.68643
-1.68913
-1.69177
-1.69437
-1.69693
-1.69944
-1.70191
-1.70433
-1.70671
-1.70905
-1.71134
-1.7136
-1.71581
-1.71799
-1.72012
-1.72222
-1.72428
-1.7263
-1.72829
-1.73024
-1.73215
-1.73403
-1.73588
-1.73769
-1.73947
-1.74122
-1.74294
-1.74462
-1.74627
-1.74784
-1.32276
-1.32245
-1.32266
-1.32326
-1.32422
-1.32553
-1.32718
-1.32915
-1.33142
-1.33397
-1.33678
-1.33985
-1.34314
-1.34665
-1.35037
-1.35427
-1.35835
-1.36259
-1.36698
-1.3715
-1.37615
-1.38092
-1.38578
-1.39074
-1.39578
-1.40089
-1.40607
-1.4113
-1.41658
-1.4219
-1.42726
-1.43264
-1.43804
-1.44346
-1.44888
-1.4543
-1.45973
-1.46514
-1.47054
-1.47593
-1.4813
-1.48664
-1.49195
-1.49724
-1.50249
-1.5077
-1.51288
-1.51801
-1.5231
-1.52815
-1.53314
-1.53809
-1.54299
-1.54784
-1.55263
-1.55737
-1.56205
-1.56668
-1.57125
-1.57577
-1.58022
-1.58462
-1.58896
-1.59324
-1.59746
-1.60163
-1.60573
-1.60977
-1.61376
-1.61768
-1.62155
-1.62536
-1.62911
-1.6328
-1.63644
-1.64001
-1.64353
-1.647
-1.65041
-1.65376
-1.65706
-1.6603
-1.66349
-1.66663
-1.66971
-1.67275
-1.67573
-1.67866
-1.68154
-1.68437
-1.68715
-1.68989
-1.69257
-1.69521
-1.69781
-1.70035
-1.70286
-1.70532
-1.70773
-1.71011
-1.71244
-1.71473
-1.71698
-1.71919
-1.72136
-1.72349
-1.72558
-1.72764
-1.72965
-1.73164
-1.73358
-1.73549
-1.73737
-1.73921
-1.74102
-1.7428
-1.74454
-1.74626
-1.74793
-1.74952
-1.3203
-1.31995
-1.32013
-1.32069
-1.32162
-1.32291
-1.32454
-1.32649
-1.32874
-1.33128
-1.33408
-1.33714
-1.34043
-1.34395
-1.34767
-1.35157
-1.35566
-1.35991
-1.36431
-1.36885
-1.37352
-1.37831
-1.38319
-1.38818
-1.39324
-1.39839
-1.4036
-1.40886
-1.41418
-1.41954
-1.42493
-1.43036
-1.4358
-1.44126
-1.44672
-1.4522
-1.45766
-1.46313
-1.46858
-1.47402
-1.47943
-1.48483
-1.4902
-1.49553
-1.50084
-1.50611
-1.51134
-1.51652
-1.52167
-1.52677
-1.53183
-1.53683
-1.54178
-1.54669
-1.55154
-1.55633
-1.56107
-1.56576
-1.57039
-1.57496
-1.57947
-1.58392
-1.58832
-1.59265
-1.59693
-1.60115
-1.60531
-1.6094
-1.61344
-1.61742
-1.62134
-1.6252
-1.629
-1.63275
-1.63643
-1.64006
-1.64363
-1.64715
-1.6506
-1.654
-1.65735
-1.66064
-1.66388
-1.66706
-1.67019
-1.67327
-1.6763
-1.67927
-1.68219
-1.68507
-1.68789
-1.69067
-1.6934
-1.69608
-1.69871
-1.7013
-1.70385
-1.70634
-1.7088
-1.71121
-1.71358
-1.7159
-1.71819
-1.72043
-1.72264
-1.7248
-1.72693
-1.72902
-1.73107
-1.73308
-1.73506
-1.737
-1.73891
-1.74078
-1.74262
-1.74443
-1.7462
-1.74794
-1.74964
-1.75126
-1.31777
-1.31738
-1.31752
-1.31805
-1.31895
-1.32021
-1.32181
-1.32374
-1.32598
-1.3285
-1.3313
-1.33435
-1.33764
-1.34115
-1.34488
-1.34879
-1.35289
-1.35715
-1.36156
-1.36612
-1.37081
-1.37561
-1.38053
-1.38553
-1.39063
-1.3958
-1.40105
-1.40635
-1.4117
-1.4171
-1.42253
-1.428
-1.43348
-1.43899
-1.4445
-1.45002
-1.45554
-1.46105
-1.46655
-1.47204
-1.47751
-1.48296
-1.48838
-1.49377
-1.49913
-1.50446
-1.50974
-1.51499
-1.52019
-1.52535
-1.53046
-1.53552
-1.54054
-1.5455
-1.55041
-1.55526
-1.56006
-1.5648
-1.56949
-1.57412