/*--------------------------------*- C++ -*----------------------------------*\
  =========                 |
  \\      /  F ield         | OpenFOAM: The Open Source CFD Toolbox
   \\    /   O peration     | Website:  https://openfoam.org
    \\  /    A nd           | Version:  8
     \\/     M anipulation  |
\*---------------------------------------------------------------------------*/
FoamFile
{
    version     2.0;
    format      ascii;
    class       volScalarField;
    location    "0.8";
    object      nuTilda;
}
// * * * * * * * * * * * * * * * * * * * * * * * * * * * * * * * * * * * * * //

dimensions      [0 2 -1 0 0 0 0];

internalField   nonuniform List<scalar> 
277560
(
0.0100017
0.0100057
0.0100098
0.0100139
0.010018
0.0100219
0.0100257
0.0100293
0.0100329
0.0100363
0.0100396
0.0100427
0.0100458
0.0100488
0.0100517
0.0100546
0.0100574
0.0100601
0.0100627
0.0100654
0.0100679
0.0100705
0.010073
0.0100755
0.010078
0.0100804
0.0100829
0.0100853
0.0100878
0.0100902
0.0100926
0.0100951
0.0100976
0.0101
0.0101025
0.010105
0.0101075
0.0101099
0.0101124
0.0101149
0.0101173
0.0101197
0.010122
0.0101243
0.0101265
0.0101286
0.0101305
0.0101323
0.010134
0.0101355
0.0101367
0.0101377
0.0101385
0.0101389
0.0101391
0.0101388
0.0101383
0.0101373
0.0101359
0.0101342
0.010132
0.0101293
0.0101263
0.0101228
0.0101189
0.0101146
0.0101099
0.0101049
0.0100995
0.0100938
0.0100879
0.0100818
0.0100754
0.0100689
0.0100623
0.0100557
0.010049
0.0100424
0.0100358
0.0100294
0.010023
0.0100169
0.0100109
0.0100052
0.00999973
0.00999452
0.00998959
0.00998494
0.00998058
0.00997652
0.00997275
0.00996926
0.00996605
0.00996311
0.00996042
0.00995798
0.00995576
0.00995375
0.00995194
0.0099503
0.00994882
0.00994749
0.00994629
0.0099452
0.00994422
0.00994332
0.00994251
0.00994177
0.00994108
0.00994046
0.00993989
0.00993937
0.0099389
0.00993848
0.00993812
0.00993782
0.00993759
0.00993743
0.00993735
0.00993738
0.0100025
0.0100071
0.0100114
0.0100156
0.0100196
0.0100234
0.0100271
0.0100307
0.0100342
0.0100375
0.0100407
0.0100438
0.0100468
0.0100498
0.0100526
0.0100554
0.0100581
0.0100608
0.0100634
0.010066
0.0100685
0.010071
0.0100735
0.010076
0.0100784
0.0100809
0.0100833
0.0100857
0.0100882
0.0100906
0.010093
0.0100955
0.0100979
0.0101004
0.0101029
0.0101054
0.0101078
0.0101103
0.0101128
0.0101153
0.0101177
0.0101201
0.0101224
0.0101247
0.0101269
0.010129
0.010131
0.0101328
0.0101344
0.0101359
0.0101372
0.0101382
0.0101389
0.0101393
0.0101395
0.0101392
0.0101386
0.0101377
0.0101363
0.0101345
0.0101323
0.0101296
0.0101265
0.010123
0.0101191
0.0101148
0.0101101
0.010105
0.0100996
0.0100939
0.010088
0.0100818
0.0100755
0.010069
0.0100624
0.0100558
0.0100491
0.0100425
0.010036
0.0100296
0.0100233
0.0100173
0.0100114
0.0100057
0.0100004
0.00999525
0.00999043
0.00998589
0.00998166
0.00997771
0.00997407
0.00997071
0.00996762
0.00996481
0.00996225
0.00995993
0.00995783
0.00995594
0.00995423
0.0099527
0.00995132
0.00995007
0.00994895
0.00994793
0.009947
0.00994615
0.00994537
0.00994465
0.00994398
0.00994335
0.00994277
0.00994223
0.00994173
0.00994128
0.00994087
0.00994051
0.00994022
0.00994001
0.00993988
0.00993985
0.0100025
0.0100072
0.0100115
0.0100156
0.0100195
0.0100232
0.0100267
0.0100301
0.0100333
0.0100365
0.0100395
0.0100425
0.0100453
0.0100481
0.0100508
0.0100534
0.010056
0.0100586
0.0100611
0.0100636
0.010066
0.0100684
0.0100708
0.0100732
0.0100756
0.010078
0.0100804
0.0100827
0.0100851
0.0100875
0.0100899
0.0100923
0.0100948
0.0100972
0.0100997
0.0101021
0.0101046
0.0101071
0.0101096
0.010112
0.0101144
0.0101168
0.0101192
0.0101215
0.0101236
0.0101257
0.0101277
0.0101295
0.0101312
0.0101326
0.0101339
0.0101349
0.0101356
0.0101361
0.0101362
0.0101359
0.0101353
0.0101343
0.0101329
0.0101311
0.0101289
0.0101262
0.0101231
0.0101196
0.0101156
0.0101112
0.0101065
0.0101014
0.010096
0.0100903
0.0100843
0.0100781
0.0100718
0.0100653
0.0100587
0.0100521
0.0100455
0.0100389
0.0100324
0.0100261
0.0100199
0.0100139
0.0100082
0.0100027
0.00999741
0.00999245
0.00998778
0.00998342
0.00997937
0.00997562
0.00997217
0.00996901
0.00996613
0.00996353
0.00996117
0.00995905
0.00995715
0.00995544
0.00995392
0.00995256
0.00995134
0.00995024
0.00994925
0.00994835
0.00994752
0.00994676
0.00994604
0.00994537
0.00994474
0.00994413
0.00994355
0.00994299
0.00994246
0.00994196
0.00994149
0.00994107
0.00994071
0.00994042
0.00994022
0.00994013
0.0100023
0.0100067
0.0100108
0.0100146
0.0100181
0.0100215
0.0100248
0.0100279
0.0100308
0.0100337
0.0100365
0.0100392
0.0100418
0.0100443
0.0100468
0.0100493
0.0100517
0.0100541
0.0100564
0.0100588
0.0100611
0.0100634
0.0100657
0.0100679
0.0100702
0.0100725
0.0100748
0.0100771
0.0100794
0.0100817
0.0100841
0.0100865
0.0100889
0.0100913
0.0100937
0.0100962
0.0100986
0.0101011
0.0101036
0.010106
0.0101085
0.0101108
0.0101132
0.0101155
0.0101176
0.0101197
0.0101217
0.0101235
0.0101252
0.0101266
0.0101279
0.0101289
0.0101297
0.0101301
0.0101302
0.01013
0.0101294
0.0101284
0.010127
0.0101251
0.0101229
0.0101202
0.010117
0.0101134
0.0101095
0.010105
0.0101003
0.0100951
0.0100896
0.0100839
0.0100779
0.0100716
0.0100652
0.0100587
0.0100521
0.0100455
0.0100389
0.0100324
0.010026
0.0100197
0.0100136
0.0100077
0.0100021
0.00999673
0.00999166
0.00998688
0.00998242
0.00997827
0.00997445
0.00997094
0.00996774
0.00996484
0.00996222
0.00995988
0.00995779
0.00995594
0.0099543
0.00995285
0.00995157
0.00995044
0.00994944
0.00994855
0.00994775
0.00994702
0.00994634
0.00994571
0.00994511
0.00994454
0.00994397
0.00994341
0.00994286
0.00994231
0.00994177
0.00994124
0.00994073
0.00994025
0.00993983
0.00993946
0.00993919
0.00993903
0.010002
0.0100059
0.0100095
0.0100128
0.010016
0.010019
0.0100218
0.0100245
0.0100271
0.0100296
0.0100321
0.0100344
0.0100368
0.010039
0.0100413
0.0100435
0.0100457
0.0100479
0.01005
0.0100522
0.0100544
0.0100565
0.0100587
0.0100608
0.010063
0.0100652
0.0100674
0.0100696
0.0100718
0.0100741
0.0100764
0.0100787
0.0100811
0.0100835
0.0100859
0.0100884
0.0100909
0.0100933
0.0100958
0.0100983
0.0101007
0.0101031
0.0101054
0.0101077
0.0101099
0.010112
0.010114
0.0101158
0.0101175
0.010119
0.0101203
0.0101213
0.0101221
0.0101225
0.0101227
0.0101225
0.0101219
0.0101209
0.0101195
0.0101177
0.0101154
0.0101127
0.0101095
0.0101059
0.0101018
0.0100973
0.0100925
0.0100873
0.0100817
0.0100759
0.0100698
0.0100635
0.010057
0.0100505
0.0100438
0.0100372
0.0100306
0.0100241
0.0100177
0.0100114
0.0100054
0.00999963
0.00999412
0.00998891
0.00998401
0.00997943
0.00997519
0.00997128
0.00996771
0.00996448
0.00996157
0.00995897
0.00995666
0.00995463
0.00995285
0.00995131
0.00994998
0.00994884
0.00994786
0.00994702
0.0099463
0.00994567
0.00994511
0.00994461
0.00994414
0.00994369
0.00994325
0.00994281
0.00994236
0.00994189
0.0099414
0.00994089
0.00994037
0.00993984
0.00993931
0.0099388
0.00993832
0.0099379
0.00993755
0.00993732
0.0100017
0.0100049
0.0100079
0.0100107
0.0100133
0.0100157
0.0100181
0.0100203
0.0100225
0.0100246
0.0100267
0.0100287
0.0100307
0.0100327
0.0100347
0.0100366
0.0100386
0.0100406
0.0100426
0.0100446
0.0100466
0.0100486
0.0100506
0.0100526
0.0100546
0.0100567
0.0100588
0.010061
0.0100631
0.0100654
0.0100677
0.01007
0.0100724
0.0100748
0.0100772
0.0100797
0.0100822
0.0100847
0.0100872
0.0100897
0.0100921
0.0100945
0.0100969
0.0100992
0.0101014
0.0101035
0.0101055
0.0101074
0.0101092
0.0101107
0.0101121
0.0101132
0.010114
0.0101146
0.0101148
0.0101147
0.0101141
0.0101132
0.0101118
0.01011
0.0101077
0.0101049
0.0101017
0.010098
0.0100939
0.0100894
0.0100844
0.0100791
0.0100734
0.0100675
0.0100612
0.0100548
0.0100483
0.0100416
0.0100349
0.0100281
0.0100215
0.0100149
0.0100085
0.0100022
0.00999627
0.00999056
0.00998515
0.00998007
0.00997533
0.00997095
0.00996693
0.00996327
0.00995997
0.00995702
0.00995441
0.00995213
0.00995016
0.00994847
0.00994704
0.00994585
0.00994487
0.00994407
0.00994343
0.00994293
0.00994252
0.0099422
0.00994193
0.0099417
0.00994148
0.00994126
0.00994103
0.00994077
0.00994047
0.00994013
0.00993975
0.00993932
0.00993885
0.00993835
0.00993782
0.0099373
0.00993678
0.00993631
0.0099359
0.00993559
0.0100013
0.0100038
0.0100061
0.0100082
0.0100102
0.0100121
0.0100139
0.0100156
0.0100174
0.0100191
0.0100207
0.0100224
0.0100241
0.0100257
0.0100275
0.0100292
0.0100309
0.0100327
0.0100346
0.0100364
0.0100383
0.0100401
0.010042
0.0100439
0.0100459
0.0100479
0.0100499
0.010052
0.0100542
0.0100564
0.0100587
0.0100611
0.0100635
0.010066
0.0100685
0.0100711
0.0100737
0.0100762
0.0100788
0.0100813
0.0100838
0.0100862
0.0100886
0.0100909
0.0100932
0.0100954
0.0100975
0.0100995
0.0101014
0.0101031
0.0101046
0.0101058
0.0101068
0.0101075
0.0101078
0.0101078
0.0101074
0.0101065
0.0101052
0.0101034
0.0101011
0.0100984
0.0100951
0.0100914
0.0100871
0.0100825
0.0100774
0.0100719
0.0100661
0.0100599
0.0100535
0.010047
0.0100402
0.0100333
0.0100264
0.0100195
0.0100127
0.010006
0.00999946
0.00999315
0.00998713
0.00998143
0.00997608
0.00997109
0.00996649
0.00996227
0.00995845
0.00995501
0.00995197
0.0099493
0.00994699
0.00994502
0.00994338
0.00994204
0.00994096
0.00994014
0.00993952
0.00993909
0.00993881
0.00993866
0.00993861
0.00993862
0.00993867
0.00993874
0.00993881
0.00993886
0.00993886
0.00993882
0.00993872
0.00993854
0.0099383
0.00993798
0.00993759
0.00993715
0.00993665
0.00993613
0.0099356
0.00993509
0.00993462
0.00993425
0.0100009
0.0100026
0.0100041
0.0100055
0.0100068
0.0100081
0.0100094
0.0100107
0.010012
0.0100132
0.0100145
0.0100159
0.0100172
0.0100186
0.0100201
0.0100217
0.0100233
0.010025
0.0100267
0.0100284
0.0100302
0.010032
0.0100337
0.0100356
0.0100375
0.0100394
0.0100415
0.0100436
0.0100459
0.0100482
0.0100506
0.010053
0.0100556
0.0100583
0.0100609
0.0100637
0.0100664
0.0100691
0.0100718
0.0100744
0.0100769
0.0100793
0.0100817
0.0100842
0.0100866
0.0100889
0.0100913
0.0100935
0.0100956
0.0100975
0.0100993
0.0101008
0.0101021
0.0101031
0.0101037
0.010104
0.0101038
0.0101031
0.010102
0.0101004
0.0100982
0.0100956
0.0100924
0.0100887
0.0100845
0.0100798
0.0100746
0.010069
0.010063
0.0100566
0.0100499
0.010043
0.0100358
0.0100285
0.0100211
0.0100136
0.0100063
0.00999905
0.00999205
0.00998536
0.00997906
0.00997323
0.00996788
0.00996293
0.00995839
0.00995427
0.00995058
0.00994731
0.00994446
0.00994202
0.00993996
0.00993828
0.00993693
0.00993591
0.00993517
0.00993469
0.00993443
0.00993435
0.00993444
0.00993465
0.00993494
0.0099353
0.00993569
0.00993608
0.00993646
0.00993679
0.00993706
0.00993726
0.00993737
0.00993739
0.00993731
0.00993713
0.00993685
0.00993648
0.00993604
0.00993554
0.00993501
0.00993447
0.00993395
0.00993351
0.0100005
0.0100013
0.010002
0.0100026
0.0100032
0.010004
0.0100048
0.0100057
0.0100066
0.0100075
0.0100084
0.0100095
0.0100106
0.0100119
0.0100133
0.0100147
0.0100163
0.0100179
0.0100196
0.0100214
0.0100231
0.0100248
0.0100265
0.0100283
0.0100303
0.0100324
0.0100346
0.0100369
0.0100393
0.0100418
0.0100445
0.0100473
0.0100502
0.0100532
0.0100562
0.0100593
0.0100625
0.0100656
0.0100687
0.0100718
0.0100748
0.0100778
0.0100807
0.0100836
0.0100864
0.0100892
0.0100918
0.0100944
0.0100969
0.0100992
0.0101015
0.0101035
0.0101053
0.0101067
0.0101078
0.0101084
0.0101085
0.0101081
0.0101072
0.0101058
0.0101038
0.0101013
0.0100981
0.0100945
0.0100902
0.0100854
0.0100801
0.0100743
0.0100681
0.0100614
0.0100543
0.010047
0.0100393
0.0100314
0.0100234
0.0100153
0.0100072
0.00999909
0.00999113
0.00998339
0.00997609
0.00996929
0.00996303
0.00995738
0.00995237
0.00994805
0.0099443
0.00994103
0.00993824
0.0099359
0.00993399
0.00993249
0.00993137
0.00993059
0.00993012
0.00992994
0.00992999
0.00993024
0.00993066
0.0099312
0.00993184
0.00993253
0.00993325
0.00993396
0.00993464
0.00993526
0.00993581
0.00993626
0.0099366
0.00993683
0.00993693
0.0099369
0.00993674
0.00993647
0.0099361
0.00993563
0.00993511
0.00993455
0.00993399
0.00993348
0.01
0.00999983
0.00999959
0.00999949
0.00999961
0.00999992
0.0100004
0.0100009
0.0100016
0.0100023
0.0100029
0.0100038
0.010005
0.0100063
0.0100077
0.0100093
0.010011
0.0100129
0.0100149
0.010017
0.0100192
0.0100214
0.0100236
0.0100259
0.0100283
0.0100307
0.0100333
0.0100359
0.0100386
0.0100415
0.0100445
0.0100478
0.0100512
0.0100548
0.0100584
0.010062
0.0100656
0.0100693
0.0100729
0.0100764
0.0100799
0.0100834
0.0100868
0.0100902
0.0100934
0.0100966
0.0100996
0.0101026
0.0101054
0.010108
0.0101104
0.0101125
0.0101144
0.0101159
0.010117
0.0101177
0.0101179
0.0101176
0.0101168
0.0101154
0.0101134
0.0101109
0.0101077
0.0101039
0.0100996
0.0100947
0.0100892
0.0100831
0.0100766
0.0100696
0.0100622
0.0100544
0.0100463
0.0100379
0.0100294
0.0100207
0.010012
0.0100033
0.0099948
0.00998645
0.00997838
0.00997065
0.00996334
0.00995653
0.00995046
0.00994517
0.00994069
0.00993702
0.00993402
0.00993158
0.00992964
0.00992817
0.00992713
0.00992649
0.0099262
0.00992622
0.00992651
0.00992702
0.00992772
0.00992855
0.00992949
0.00993049
0.00993151
0.00993252
0.00993349
0.00993439
0.00993521
0.00993591
0.00993648
0.00993691
0.00993719
0.00993732
0.0099373
0.00993714
0.00993683
0.00993642
0.00993591
0.00993533
0.00993474
0.00993417
0.00999936
0.00999808
0.00999698
0.00999641
0.00999628
0.00999645
0.00999686
0.00999749
0.00999835
0.0099994
0.0100006
0.0100019
0.0100033
0.0100049
0.0100066
0.0100085
0.0100105
0.0100128
0.0100154
0.0100181
0.0100208
0.0100235
0.0100262
0.010029
0.0100318
0.0100347
0.0100376
0.0100406
0.0100438
0.010047
0.0100503
0.0100538
0.0100575
0.0100612
0.010065
0.0100689
0.0100728
0.0100767
0.0100806
0.0100845
0.0100884
0.0100923
0.0100961
0.0100998
0.0101034
0.0101069
0.0101103
0.0101136
0.0101166
0.0101195
0.0101221
0.0101244
0.0101264
0.0101281
0.0101293
0.0101301
0.0101303
0.0101301
0.0101293
0.0101279
0.0101259
0.0101232
0.01012
0.0101161
0.0101116
0.0101065
0.0101007
0.0100944
0.0100876
0.0100802
0.0100724
0.0100642
0.0100556
0.0100468
0.0100377
0.0100285
0.0100192
0.01001
0.0100008
0.0099918
0.00998306
0.00997465
0.00996665
0.00995912
0.00995215
0.0099458
0.00994031
0.00993575
0.0099321
0.00992931
0.00992715
0.00992554
0.00992445
0.00992381
0.00992358
0.00992371
0.00992415
0.00992485
0.00992576
0.00992683
0.00992801
0.00992927
0.00993055
0.00993183
0.00993307
0.00993423
0.00993528
0.00993622
0.00993701
0.00993764
0.0099381
0.00993838
0.00993849
0.00993843
0.0099382
0.00993783
0.00993734
0.00993676
0.00993613
0.0099355
0.00999869
0.00999696
0.00999602
0.00999564
0.00999567
0.00999601
0.00999662
0.00999752
0.00999886
0.0100005
0.0100022
0.010004
0.0100058
0.0100078
0.0100099
0.0100121
0.0100144
0.0100169
0.0100196
0.0100225
0.0100254
0.0100284
0.0100314
0.0100345
0.0100377
0.0100409
0.0100442
0.0100476
0.010051
0.0100546
0.0100583
0.010062
0.0100659
0.0100699
0.010074
0.0100781
0.0100823
0.0100865
0.0100907
0.010095
0.0100992
0.0101034
0.0101075
0.0101116
0.0101156
0.0101194
0.0101232
0.0101267
0.0101301
0.0101332
0.010136
0.0101385
0.0101407
0.0101424
0.0101438
0.0101446
0.010145
0.0101447
0.0101439
0.0101425
0.0101404
0.0101377
0.0101344
0.0101303
0.0101256
0.0101202
0.0101142
0.0101076
0.0101004
0.0100927
0.0100845
0.0100758
0.0100667
0.0100574
0.0100478
0.010038
0.0100281
0.0100183
0.0100085
0.00999882
0.00998942
0.00998034
0.00997167
0.00996346
0.00995581
0.00994878
0.00994244
0.00993694
0.00993245
0.00992898
0.00992643
0.00992456
0.00992329
0.00992255
0.00992228
0.00992243
0.00992294
0.00992375
0.0099248
0.00992604
0.00992742
0.00992889
0.00993039
0.00993189
0.00993336
0.00993474
0.00993602
0.00993716
0.00993814
0.00993895
0.00993958
0.00994
0.00994024
0.00994027
0.00994012
0.0099398
0.00993933
0.00993874
0.00993808
0.00993739
0.0099988
0.00999754
0.00999721
0.00999735
0.0099978
0.0099985
0.00999944
0.0100006
0.0100021
0.0100039
0.0100058
0.0100078
0.0100099
0.0100122
0.0100145
0.010017
0.0100197
0.0100224
0.0100254
0.0100284
0.0100316
0.0100348
0.0100382
0.0100416
0.010045
0.0100486
0.0100522
0.010056
0.0100598
0.0100637
0.0100677
0.0100718
0.010076
0.0100803
0.0100846
0.0100891
0.0100936
0.0100981
0.0101027
0.0101072
0.0101118
0.0101163
0.0101208
0.0101252
0.0101295
0.0101337
0.0101377
0.0101415
0.0101452
0.0101485
0.0101516
0.0101543
0.0101566
0.0101585
0.0101599
0.0101609
0.0101613
0.010161
0.0101602
0.0101588
0.0101566
0.0101538
0.0101503
0.010146
0.0101411
0.0101355
0.0101292
0.0101222
0.0101147
0.0101065
0.0100978
0.0100887
0.0100791
0.0100693
0.0100591
0.0100487
0.0100383
0.0100278
0.0100173
0.010007
0.00999697
0.00998723
0.00997788
0.00996902
0.00996071
0.00995303
0.00994605
0.00993983
0.00993453
0.00993034
0.00992723
0.009925
0.00992346
0.00992254
0.00992217
0.00992227
0.00992278
0.00992364
0.00992478
0.00992614
0.00992766
0.00992929
0.00993097
0.00993266
0.00993431
0.00993588
0.00993735
0.00993867
0.00993982
0.00994079
0.00994155
0.00994211
0.00994245
0.00994257
0.00994248
0.00994221
0.00994176
0.00994117
0.00994048
0.00993974
0.00999962
0.0099992
0.00999928
0.00999974
0.0100005
0.0100015
0.0100028
0.0100043
0.010006
0.010008
0.0100101
0.0100124
0.0100148
0.0100174
0.01002
0.0100228
0.0100258
0.0100288
0.010032
0.0100353
0.0100388
0.0100423
0.010046
0.0100497
0.0100535
0.0100574
0.0100614
0.0100655
0.0100696
0.0100739
0.0100783
0.0100827
0.0100872
0.0100919
0.0100966
0.0101013
0.0101062
0.010111
0.0101159
0.0101208
0.0101257
0.0101306
0.0101354
0.0101401
0.0101448
0.0101493
0.0101536
0.0101577
0.0101616
0.0101652
0.0101684
0.0101713
0.0101738
0.0101759
0.0101774
0.0101784
0.0101788
0.0101786
0.0101778
0.0101762
0.010174
0.010171
0.0101673
0.0101629
0.0101577
0.0101518
0.0101451
0.0101378
0.0101299
0.0101213
0.0101122
0.0101025
0.0100925
0.010082
0.0100713
0.0100603
0.0100492
0.0100381
0.010027
0.0100161
0.0100053
0.00999493
0.00998493
0.00997541
0.00996646
0.00995816
0.00995056
0.00994375
0.00993777
0.00993288
0.00992915
0.00992652
0.0099247
0.00992356
0.00992304
0.00992305
0.00992353
0.00992439
0.00992558
0.00992701
0.00992864
0.00993039
0.00993221
0.00993404
0.00993585
0.00993758
0.0099392
0.00994067
0.00994196
0.00994306
0.00994395
0.0099446
0.00994503
0.00994523
0.00994519
0.00994495
0.00994452
0.00994392
0.00994321
0.00994242
0.0100001
0.0100005
0.0100012
0.0100021
0.0100033
0.0100047
0.0100063
0.0100081
0.0100102
0.0100124
0.0100148
0.0100174
0.0100201
0.010023
0.010026
0.0100291
0.0100324
0.0100358
0.0100393
0.0100429
0.0100467
0.0100505
0.0100545
0.0100586
0.0100627
0.010067
0.0100714
0.0100758
0.0100803
0.010085
0.0100897
0.0100945
0.0100994
0.0101044
0.0101095
0.0101146
0.0101198
0.010125
0.0101302
0.0101355
0.0101407
0.010146
0.0101511
0.0101562
0.0101611
0.0101659
0.0101705
0.0101749
0.0101791
0.0101829
0.0101864
0.0101894
0.0101921
0.0101942
0.0101959
0.0101969
0.0101973
0.0101971
0.0101962
0.0101946
0.0101922
0.0101891
0.0101852
0.0101805
0.010175
0.0101688
0.0101618
0.0101541
0.0101457
0.0101367
0.0101271
0.0101169
0.0101063
0.0100953
0.010084
0.0100724
0.0100607
0.0100489
0.0100372
0.0100256
0.0100142
0.0100031
0.00999249
0.00998234
0.00997277
0.00996386
0.00995568
0.00994831
0.00994181
0.00993628
0.00993199
0.00992891
0.00992676
0.00992538
0.00992469
0.00992458
0.00992499
0.00992584
0.00992704
0.00992852
0.00993022
0.00993206
0.00993399
0.00993594
0.00993787
0.00993973
0.00994147
0.00994307
0.00994448
0.00994568
0.00994666
0.0099474
0.0099479
0.00994815
0.00994816
0.00994794
0.00994751
0.00994691
0.00994617
0.00994535
0.0100005
0.0100016
0.0100028
0.0100042
0.0100059
0.0100077
0.0100097
0.010012
0.0100144
0.010017
0.0100197
0.0100226
0.0100257
0.0100289
0.0100323
0.0100358
0.0100394
0.0100431
0.010047
0.0100509
0.010055
0.0100593
0.0100636
0.010068
0.0100725
0.0100772
0.0100819
0.0100867
0.0100917
0.0100967
0.0101018
0.010107
0.0101123
0.0101177
0.0101231
0.0101286
0.0101342
0.0101398
0.0101454
0.010151
0.0101566
0.0101622
0.0101677
0.0101731
0.0101783
0.0101834
0.0101883
0.010193
0.0101974
0.0102014
0.0102051
0.0102083
0.0102111
0.0102133
0.010215
0.0102161
0.0102165
0.0102163
0.0102153
0.0102136
0.010211
0.0102077
0.0102036
0.0101986
0.0101929
0.0101863
0.0101789
0.0101708
0.010162
0.0101525
0.0101424
0.0101317
0.0101205
0.0101089
0.0100969
0.0100848
0.0100724
0.01006
0.0100476
0.0100354
0.0100233
0.0100116
0.0100003
0.00998956
0.00997938
0.00996988
0.00996115
0.00995324
0.00994622
0.00994017
0.00993537
0.00993186
0.0099294
0.00992778
0.00992691
0.00992668
0.00992701
0.00992782
0.00992902
0.00993053
0.00993228
0.00993419
0.0099362
0.00993825
0.00994028
0.00994224
0.00994409
0.00994578
0.00994728
0.00994857
0.00994962
0.00995043
0.00995097
0.00995126
0.00995129
0.00995109
0.00995066
0.00995004
0.00994928
0.00994842
0.0100008
0.0100025
0.0100043
0.0100062
0.0100083
0.0100106
0.0100131
0.0100157
0.0100185
0.0100215
0.0100246
0.0100279
0.0100314
0.010035
0.0100387
0.0100425
0.0100465
0.0100506
0.0100549
0.0100592
0.0100637
0.0100683
0.010073
0.0100778
0.0100827
0.0100878
0.0100929
0.0100981
0.0101035
0.0101089
0.0101144
0.01012
0.0101257
0.0101315
0.0101373
0.0101432
0.0101492
0.0101552
0.0101612
0.0101672
0.0101731
0.010179
0.0101849
0.0101906
0.0101962
0.0102016
0.0102068
0.0102117
0.0102163
0.0102205
0.0102244
0.0102278
0.0102307
0.010233
0.0102347
0.0102358
0.0102362
0.0102359
0.0102348
0.0102329
0.0102302
0.0102267
0.0102223
0.010217
0.0102109
0.010204
0.0101962
0.0101877
0.0101784
0.0101684
0.0101577
0.0101465
0.0101347
0.0101225
0.01011
0.0100972
0.0100842
0.0100711
0.0100581
0.0100452
0.0100325
0.0100202
0.0100083
0.00999688
0.00998611
0.00997605
0.00996677
0.00995836
0.00995087
0.00994438
0.00993909
0.00993514
0.00993241
0.00993058
0.00992953
0.00992918
0.00992943
0.0099302
0.00993138
0.00993291
0.00993469
0.00993666
0.00993874
0.00994086
0.00994297
0.00994501
0.00994694
0.00994871
0.00995028
0.00995163
0.00995274
0.00995359
0.00995417
0.00995448
0.00995452
0.00995431
0.00995387
0.00995324
0.00995244
0.00995155
0.010001
0.0100032
0.0100056
0.010008
0.0100106
0.0100134
0.0100163
0.0100193
0.0100226
0.010026
0.0100295
0.0100332
0.0100371
0.010041
0.0100452
0.0100494
0.0100538
0.0100583
0.0100629
0.0100677
0.0100726
0.0100776
0.0100827
0.0100879
0.0100932
0.0100987
0.0101042
0.0101099
0.0101156
0.0101215
0.0101274
0.0101334
0.0101396
0.0101458
0.010152
0.0101583
0.0101647
0.010171
0.0101774
0.0101838
0.0101901
0.0101964
0.0102026
0.0102086
0.0102145
0.0102202
0.0102257
0.0102308
0.0102357
0.0102401
0.0102441
0.0102476
0.0102506
0.010253
0.0102548
0.0102559
0.0102562
0.0102558
0.0102546
0.0102525
0.0102496
0.0102458
0.0102411
0.0102356
0.0102291
0.0102218
0.0102136
0.0102046
0.0101948
0.0101842
0.010173
0.0101612
0.0101489
0.0101361
0.0101229
0.0101095
0.0100958
0.0100821
0.0100685
0.0100549
0.0100416
0.0100286
0.0100161
0.0100041
0.0099928
0.0099822
0.00997241
0.00996351
0.00995558
0.00994868
0.00994296
0.00993865
0.00993565
0.00993361
0.0099324
0.00993194
0.00993211
0.00993283
0.009934
0.00993554
0.00993735
0.00993936
0.00994149
0.00994368
0.00994585
0.00994796
0.00994995
0.00995177
0.0099534
0.0099548
0.00995595
0.00995682
0.00995742
0.00995774
0.00995778
0.00995755
0.00995709
0.00995643
0.0099556
0.00995467
0.0100013
0.0100039
0.0100067
0.0100097
0.0100127
0.010016
0.0100193
0.0100228
0.0100265
0.0100303
0.0100343
0.0100384
0.0100427
0.0100471
0.0100516
0.0100563
0.0100611
0.010066
0.0100711
0.0100763
0.0100816
0.010087
0.0100925
0.0100982
0.0101039
0.0101098
0.0101158
0.0101219
0.0101281
0.0101343
0.0101407
0.0101472
0.0101537
0.0101604
0.010167
0.0101738
0.0101805
0.0101873
0.0101941
0.0102009
0.0102076
0.0102142
0.0102207
0.0102271
0.0102333
0.0102393
0.010245
0.0102504
0.0102554
0.01026
0.0102642
0.0102678
0.0102708
0.0102733
0.010275
0.0102761
0.0102764
0.0102758
0.0102744
0.0102722
0.010269
0.010265
0.01026
0.010254
0.0102472
0.0102394
0.0102308
0.0102213
0.010211
0.0101999
0.0101881
0.0101757
0.0101628
0.0101494
0.0101356
0.0101215
0.0101072
0.0100929
0.0100786
0.0100644
0.0100505
0.0100369
0.0100238
0.0100112
0.00999933
0.0099882
0.00997792
0.00996857
0.00996022
0.00995294
0.00994685
0.00994222
0.00993897
0.00993674
0.0099354
0.00993483
0.00993493
0.00993561
0.00993677
0.00993831
0.00994014
0.00994219
0.00994436
0.0099466
0.00994883
0.00995099
0.00995303
0.0099549
0.00995657
0.009958
0.00995917
0.00996006
0.00996066
0.00996097
0.00996099
0.00996075
0.00996026
0.00995956
0.00995869
0.00995773
0.0100015
0.0100046
0.0100079
0.0100113
0.0100148
0.0100185
0.0100223
0.0100262
0.0100304
0.0100346
0.010039
0.0100436
0.0100483
0.0100531
0.0100581
0.0100632
0.0100684
0.0100738
0.0100793
0.0100849
0.0100906
0.0100965
0.0101025
0.0101086
0.0101148
0.0101211
0.0101275
0.0101341
0.0101407
0.0101474
0.0101543
0.0101612
0.0101682
0.0101752
0.0101824
0.0101895
0.0101967
0.0102039
0.0102111
0.0102182
0.0102253
0.0102323
0.0102392
0.0102459
0.0102524
0.0102586
0.0102646
0.0102702
0.0102754
0.0102802
0.0102844
0.0102881
0.0102912
0.0102937
0.0102954
0.0102964
0.0102965
0.0102959
0.0102943
0.0102918
0.0102884
0.010284
0.0102786
0.0102723
0.0102651
0.0102568
0.0102477
0.0102377
0.0102269
0.0102152
0.0102029
0.0101899
0.0101764
0.0101623
0.0101479
0.0101332
0.0101182
0.0101033
0.0100883
0.0100735
0.010059
0.0100448
0.0100311
0.010018
0.0100056
0.00999396
0.00998321
0.00997343
0.00996468
0.00995706
0.00995064
0.00994574
0.00994227
0.00993988
0.00993841
0.00993774
0.00993779
0.00993843
0.00993958
0.00994113
0.00994298
0.00994506
0.00994727
0.00994955
0.00995182
0.00995403
0.00995611
0.00995801
0.00995971
0.00996116
0.00996234
0.00996323
0.00996382
0.00996412
0.00996412
0.00996384
0.00996331
0.00996257
0.00996166
0.00996066
0.0100017
0.0100052
0.0100089
0.0100128
0.0100167
0.0100209
0.0100251
0.0100295
0.0100341
0.0100388
0.0100437
0.0100487
0.0100538
0.0100591
0.0100645
0.0100701
0.0100757
0.0100816
0.0100875
0.0100936
0.0100998
0.0101061
0.0101125
0.0101191
0.0101257
0.0101325
0.0101394
0.0101464
0.0101535
0.0101607
0.010168
0.0101754
0.0101829
0.0101904
0.0101979
0.0102055
0.0102131
0.0102208
0.0102283
0.0102359
0.0102433
0.0102507
0.0102579
0.0102649
0.0102717
0.0102782
0.0102844
0.0102902
0.0102955
0.0103004
0.0103048
0.0103086
0.0103117
0.0103141
0.0103158
0.0103167
0.0103167
0.0103158
0.010314
0.0103113
0.0103075
0.0103028
0.0102971
0.0102904
0.0102826
0.010274
0.0102643
0.0102538
0.0102424
0.0102302
0.0102172
0.0102036
0.0101895
0.0101748
0.0101597
0.0101444
0.0101288
0.0101132
0.0100976
0.0100822
0.010067
0.0100523
0.010038
0.0100244
0.0100115
0.00999938
0.0099882
0.00997801
0.0099689
0.00996095
0.00995425
0.00994911
0.00994546
0.00994292
0.00994134
0.0099406
0.0099406
0.00994122
0.00994236
0.00994391
0.00994579
0.00994789
0.00995014
0.00995246
0.00995477
0.009957
0.00995911
0.00996105
0.00996276
0.00996422
0.0099654
0.00996628
0.00996686
0.00996713
0.0099671
0.00996678
0.00996621
0.00996542
0.00996447
0.00996342
0.0100019
0.0100059
0.01001
0.0100142
0.0100187
0.0100232
0.0100279
0.0100328
0.0100378
0.010043
0.0100483
0.0100537
0.0100593
0.010065
0.0100709
0.0100769
0.0100831
0.0100893
0.0100957
0.0101023
0.010109
0.0101157
0.0101227
0.0101297
0.0101368
0.0101441
0.0101515
0.010159
0.0101665
0.0101742
0.010182
0.0101898
0.0101977
0.0102057
0.0102137
0.0102218
0.0102298
0.0102378
0.0102458
0.0102537
0.0102616
0.0102693
0.0102768
0.0102841
0.0102912
0.0102979
0.0103043
0.0103103
0.0103158
0.0103208
0.0103252
0.010329
0.0103322
0.0103345
0.0103361
0.0103368
0.0103367
0.0103356
0.0103335
0.0103305
0.0103264
0.0103213
0.0103152
0.010308
0.0102998
0.0102907
0.0102805
0.0102694
0.0102574
0.0102446
0.0102311
0.0102169
0.0102021
0.0101867
0.010171
0.010155
0.0101388
0.0101226
0.0101064
0.0100904
0.0100746
0.0100593
0.0100445
0.0100304
0.010017
0.0100044
0.00999282
0.00998225
0.0099728
0.00996455
0.0099576
0.00995226
0.00994846
0.0099458
0.00994413
0.00994333
0.00994329
0.00994389
0.00994503
0.00994659
0.00994849
0.00995063
0.00995291
0.00995525
0.00995759
0.00995986
0.00996199
0.00996394
0.00996567
0.00996713
0.0099683
0.00996917
0.00996972
0.00996996
0.00996989
0.00996953
0.00996891
0.00996807
0.00996707
0.00996597
0.0100021
0.0100065
0.010011
0.0100157
0.0100205
0.0100255
0.0100307
0.010036
0.0100414
0.010047
0.0100528
0.0100587
0.0100648
0.010071
0.0100773
0.0100838
0.0100904
0.0100972
0.010104
0.0101111
0.0101182
0.0101255
0.0101329
0.0101404
0.010148
0.0101558
0.0101637
0.0101716
0.0101797
0.0101879
0.0101961
0.0102044
0.0102128
0.0102213
0.0102297
0.0102382
0.0102467
0.0102551
0.0102635
0.0102718
0.01028
0.010288
0.0102959
0.0103035
0.0103108
0.0103178
0.0103243
0.0103305
0.0103361
0.0103412
0.0103457
0.0103495
0.0103526
0.0103548
0.0103563
0.0103569
0.0103565
0.0103552
0.0103528
0.0103494
0.010345
0.0103395
0.0103329
0.0103253
0.0103166
0.0103069
0.0102962
0.0102845
0.0102719
0.0102585
0.0102444
0.0102295
0.0102141
0.0101981
0.0101818
0.0101651
0.0101483
0.0101314
0.0101146
0.010098
0.0100817
0.0100658
0.0100505
0.0100359
0.010022
0.010009
0.00999701
0.00998609
0.00997633
0.00996782
0.00996065
0.00995515
0.00995122
0.00994845
0.00994671
0.00994586
0.0099458
0.00994639
0.00994753
0.00994911
0.00995103
0.0099532
0.00995551
0.00995788
0.00996025
0.00996254
0.00996469
0.00996665
0.00996838
0.00996984
0.009971
0.00997184
0.00997237
0.00997257
0.00997245
0.00997204
0.00997137
0.00997047
0.00996942
0.00996828
0.0100023
0.0100071
0.010012
0.0100171
0.0100224
0.0100278
0.0100334
0.0100391
0.0100451
0.0100511
0.0100573
0.0100637
0.0100702
0.0100769
0.0100837
0.0100907
0.0100978
0.010105
0.0101124
0.0101199
0.0101275
0.0101353
0.0101432
0.0101512
0.0101594
0.0101676
0.010176
0.0101845
0.0101931
0.0102017
0.0102105
0.0102193
0.0102281
0.010237
0.0102459
0.0102549
0.0102638
0.0102726
0.0102814
0.0102901
0.0102986
0.010307
0.0103151
0.010323
0.0103305
0.0103377
0.0103445
0.0103507
0.0103565
0.0103616
0.0103661
0.0103699
0.0103729
0.010375
0.0103763
0.0103767
0.0103761
0.0103744
0.0103718
0.010368
0.0103632
0.0103573
0.0103502
0.0103421
0.0103329
0.0103226
0.0103113
0.010299
0.0102859
0.0102718
0.010257
0.0102415
0.0102254
0.0102088
0.0101919
0.0101746
0.0101571
0.0101396
0.0101222
0.010105
0.0100882
0.0100718
0.010056
0.0100408
0.0100265
0.0100131
0.0100008
0.0099895
0.00997945
0.00997069
0.00996334
0.0099577
0.00995367
0.00995083
0.00994903
0.00994815
0.00994806
0.00994866
0.00994981
0.00995141
0.00995336
0.00995555
0.00995789
0.0099603
0.00996269
0.009965
0.00996716