/*--------------------------------*- C++ -*----------------------------------*\
  =========                 |
  \\      /  F ield         | OpenFOAM: The Open Source CFD Toolbox
   \\    /   O peration     | Website:  https://openfoam.org
    \\  /    A nd           | Version:  8
     \\/     M anipulation  |
\*---------------------------------------------------------------------------*/
FoamFile
{
    version     2.0;
    format      ascii;
    class       volScalarField;
    location    "0.8";
    object      p;
}
// * * * * * * * * * * * * * * * * * * * * * * * * * * * * * * * * * * * * * //

dimensions      [0 2 -2 0 0 0 0];

internalField   nonuniform List<scalar> 
277560
(
-9.82228e-05
-0.000174397
-0.00020915
-0.000261563
-0.000316252
-0.00036782
-0.000418439
-0.00046855
-0.000517763
-0.000566132
-0.000613415
-0.000660088
-0.000705654
-0.000750501
-0.000794237
-0.000837216
-0.000879137
-0.00092034
-0.000960544
-0.00100008
-0.0010387
-0.00107672
-0.00111389
-0.00115057
-0.00118646
-0.00122196
-0.00125676
-0.00129128
-0.00132519
-0.00135892
-0.00139216
-0.00142532
-0.00145808
-0.00149088
-0.00152339
-0.00155604
-0.0015885
-0.00162123
-0.00165386
-0.00168686
-0.00171988
-0.00175337
-0.00178699
-0.00182118
-0.00185559
-0.00189068
-0.00192609
-0.00196227
-0.00199887
-0.00203634
-0.00207431
-0.00211324
-0.00215277
-0.00219334
-0.0022346
-0.00227699
-0.00232014
-0.0023645
-0.00240971
-0.00245621
-0.00250363
-0.00255241
-0.00260219
-0.00265341
-0.0027057
-0.00275951
-0.00281445
-0.00287097
-0.0029287
-0.00298808
-0.00304873
-0.0031111
-0.00317481
-0.0032403
-0.00330721
-0.00337595
-0.00344617
-0.00351829
-0.00359196
-0.00366759
-0.00374483
-0.00382408
-0.00390502
-0.00398802
-0.00407277
-0.00415964
-0.00424832
-0.00433917
-0.00443189
-0.00452683
-0.0046237
-0.00472286
-0.00482399
-0.00492746
-0.00503296
-0.00514085
-0.00525083
-0.00536325
-0.00547781
-0.00559486
-0.00571411
-0.0058359
-0.00595993
-0.00608657
-0.0062155
-0.0063471
-0.00648104
-0.00661772
-0.00675679
-0.00689865
-0.00704297
-0.00719016
-0.00733986
-0.00749251
-0.00764774
-0.00780589
-0.00796669
-0.00813241
-0.00830337
-0.00845334
-9.62022e-05
-0.000175023
-0.00021008
-0.000261459
-0.000316359
-0.000368219
-0.000418928
-0.000469128
-0.000518491
-0.000566905
-0.000614415
-0.000661092
-0.00070682
-0.00075176
-0.000795642
-0.000838713
-0.000880771
-0.000922055
-0.000962399
-0.00100201
-0.00104077
-0.00107886
-0.00111618
-0.0011529
-0.00118895
-0.00122449
-0.00125946
-0.00129401
-0.00132809
-0.00136186
-0.00139526
-0.00142844
-0.00146138
-0.00149419
-0.00152687
-0.00155952
-0.00159216
-0.00162487
-0.00165768
-0.00169066
-0.00172386
-0.00175733
-0.00179113
-0.00182529
-0.0018599
-0.00189495
-0.00193056
-0.0019667
-0.00200349
-0.00204091
-0.00207908
-0.00211796
-0.00215769
-0.00219821
-0.00223966
-0.00228199
-0.00232534
-0.00236963
-0.00241504
-0.00246146
-0.00250908
-0.00255778
-0.00260776
-0.00265889
-0.00271137
-0.00276507
-0.00282021
-0.00287661
-0.00293453
-0.00299378
-0.00305462
-0.00311686
-0.00318075
-0.0032461
-0.00331318
-0.00338176
-0.00345215
-0.00352412
-0.00359795
-0.00367341
-0.0037508
-0.00382991
-0.00391099
-0.00399385
-0.00407874
-0.00416547
-0.0042543
-0.00434501
-0.00443787
-0.00453268
-0.00462971
-0.00472872
-0.00483001
-0.00493334
-0.005039
-0.00514676
-0.0052569
-0.00536918
-0.0054839
-0.00560082
-0.00572022
-0.00584187
-0.00596606
-0.00609255
-0.00622164
-0.00635307
-0.00648715
-0.00662363
-0.00676283
-0.00690448
-0.0070489
-0.00719584
-0.00734562
-0.00749796
-0.00765323
-0.00781099
-0.00797178
-0.00813712
-0.00830803
-0.00845759
-9.61187e-05
-0.000175382
-0.000210446
-0.000261814
-0.000317028
-0.000369148
-0.000420036
-0.000470431
-0.000519999
-0.000568632
-0.000616334
-0.000663144
-0.000709146
-0.000754171
-0.000798338
-0.000841512
-0.000883839
-0.000925222
-0.000965821
-0.00100553
-0.00104454
-0.00108272
-0.00112028
-0.0011571
-0.00119339
-0.00122901
-0.00126422
-0.00129885
-0.00133317
-0.001367
-0.00140064
-0.00143388
-0.00146704
-0.00149991
-0.00153281
-0.00156552
-0.00159837
-0.00163113
-0.00166414
-0.00169717
-0.00173057
-0.00176408
-0.00179807
-0.00183228
-0.00186706
-0.00190216
-0.00193793
-0.00197412
-0.00201108
-0.00204853
-0.00208686
-0.00212578
-0.00216566
-0.00220621
-0.00224781
-0.00229016
-0.00233365
-0.00237797
-0.0024235
-0.00246994
-0.00251768
-0.0025664
-0.00261649
-0.00266762
-0.00272021
-0.00277391
-0.00282913
-0.00288554
-0.00294353
-0.00300278
-0.00306369
-0.00312591
-0.00318985
-0.00325518
-0.0033223
-0.00339087
-0.00346129
-0.00353322
-0.00360708
-0.00368251
-0.00375992
-0.00383899
-0.00392008
-0.0040029
-0.00408781
-0.0041745
-0.00426333
-0.00435401
-0.00444688
-0.00454166
-0.00463869
-0.00473769
-0.00483899
-0.00494231
-0.00504798
-0.00515573
-0.0052659
-0.00537819
-0.00549294
-0.00560988
-0.00572933
-0.005851
-0.00597526
-0.00610178
-0.00623094
-0.00636242
-0.00649658
-0.00663313
-0.00677241
-0.00691413
-0.00705865
-0.00720566
-0.00735553
-0.00750795
-0.00766331
-0.00782115
-0.00798203
-0.00814745
-0.00831844
-0.00846806
-9.60552e-05
-0.000175522
-0.000210898
-0.000262593
-0.000318132
-0.000370554
-0.000421735
-0.000472423
-0.000522296
-0.000571204
-0.000619211
-0.000666306
-0.000712539
-0.000757836
-0.000802295
-0.000845738
-0.000888347
-0.00092999
-0.000970855
-0.00101083
-0.00105008
-0.00108853
-0.00112633
-0.00116341
-0.00119992
-0.00123581
-0.00127123
-0.00130613
-0.00134064
-0.00137475
-0.00140856
-0.00144208
-0.00147541
-0.00150855
-0.0015416
-0.00157457
-0.00160756
-0.00164058
-0.00167371
-0.001707
-0.00174051
-0.00177428
-0.00180837
-0.00184284
-0.0018777
-0.00191306
-0.00194891
-0.00198536
-0.00202238
-0.00206009
-0.00209847
-0.00213765
-0.00217756
-0.00221837
-0.00225999
-0.0023026
-0.0023461
-0.00239066
-0.00243619
-0.00248288
-0.0025306
-0.00257955
-0.00262961
-0.00268098
-0.00273351
-0.00278744
-0.0028426
-0.00289922
-0.00295714
-0.00301659
-0.0030774
-0.00313982
-0.00320366
-0.00326918
-0.00333619
-0.00340494
-0.00347523
-0.00354734
-0.00362105
-0.00369665
-0.00377392
-0.00385314
-0.0039341
-0.00401707
-0.00410184
-0.00418867
-0.00427737
-0.0043682
-0.00446095
-0.00455588
-0.00465279
-0.00475194
-0.00485313
-0.00495662
-0.00506219
-0.00517012
-0.00528019
-0.00539268
-0.00550735
-0.00562449
-0.00574387
-0.00586578
-0.00598997
-0.00611674
-0.00624585
-0.00637759
-0.00651172
-0.00664855
-0.00678781
-0.00692983
-0.00707433
-0.00722166
-0.00737154
-0.00752432
-0.0076797
-0.00783793
-0.00799884
-0.00816468
-0.00833576
-0.00848575
-9.60067e-05
-0.000175739
-0.000211586
-0.000263735
-0.000319659
-0.000372464
-0.000424032
-0.000475104
-0.000525351
-0.000574665
-0.000623016
-0.000670492
-0.000717027
-0.000762743
-0.000807477
-0.000851355
-0.00089425
-0.000936314
-0.000977451
-0.00101783
-0.00105735
-0.00109619
-0.00113425
-0.00117172
-0.00120848
-0.00124476
-0.00128041
-0.00131569
-0.00135043
-0.0013849
-0.00141893
-0.00145281
-0.00148633
-0.00151982
-0.00155306
-0.00158638
-0.00161954
-0.00165289
-0.00168619
-0.0017198
-0.00175346
-0.00178754
-0.00182178
-0.00185654
-0.00189155
-0.00192719
-0.00196318
-0.00199989
-0.00203705
-0.00207502
-0.00211353
-0.00215294
-0.00219298
-0.00223401
-0.00227575
-0.00231857
-0.00236217
-0.00240694
-0.00245257
-0.00249944
-0.00254724
-0.00259637
-0.00264649
-0.00269802
-0.00275061
-0.00280468
-0.00285988
-0.00291663
-0.00297458
-0.00303414
-0.00309497
-0.00315748
-0.00322133
-0.00328693
-0.00335393
-0.00342274
-0.00349301
-0.00356517
-0.00363886
-0.0037145
-0.00379174
-0.00387098
-0.00395191
-0.0040349
-0.00411964
-0.0042065
-0.00429517
-0.00438602
-0.00447875
-0.00457371
-0.00467062
-0.0047698
-0.004871
-0.00497454
-0.00508013
-0.00518813
-0.00529824
-0.00541081
-0.00552555
-0.0056428
-0.00576227
-0.0058843
-0.0060086
-0.00613553
-0.00626478
-0.0063967
-0.006531
-0.00666804
-0.0068075
-0.00694976
-0.00709449
-0.00724209
-0.00739223
-0.00754531
-0.00770099
-0.00785955
-0.0080208
-0.008187
-0.00835846
-0.0085088
-9.60163e-05
-0.000176075
-0.000212486
-0.000265193
-0.000321583
-0.000374851
-0.000426894
-0.000478433
-0.000529151
-0.000578906
-0.000627742
-0.000675637
-0.000722626
-0.000768737
-0.000813905
-0.00085823
-0.000901552
-0.000944049
-0.000985602
-0.0010264
-0.00106633
-0.00110557
-0.00114403
-0.00118188
-0.00121905
-0.00125568
-0.00129174
-0.00132736
-0.00136249
-0.00139729
-0.00143171
-0.00146589
-0.0014998
-0.00153357
-0.00156719
-0.00160077
-0.00163431
-0.0016679
-0.00170156
-0.00173538
-0.00176941
-0.00180369
-0.00183828
-0.00187323
-0.00190859
-0.0019444
-0.00198073
-0.0020176
-0.00205509
-0.0020932
-0.00213204
-0.00217157
-0.00221193
-0.00225306
-0.00229512
-0.00233802
-0.00238193
-0.00242676
-0.00247269
-0.00251961
-0.0025677
-0.00261685
-0.00266726
-0.00271879
-0.00277166
-0.00282571
-0.00288117
-0.00293788
-0.00299608
-0.00305559
-0.00311665
-0.00317909
-0.00324316
-0.00330866
-0.00337587
-0.00344457
-0.00351504
-0.00358707
-0.00366095
-0.00373645
-0.00381387
-0.00389298
-0.00397408
-0.00405694
-0.00414184
-0.00422857
-0.00431741
-0.00440814
-0.00450104
-0.00459589
-0.00469297
-0.00479206
-0.00489344
-0.0049969
-0.0051027
-0.00521064
-0.00532098
-0.0054335
-0.00554849
-0.00566571
-0.00578546
-0.00590749
-0.00603211
-0.00615906
-0.00628865
-0.00642062
-0.0065553
-0.00669241
-0.00683229
-0.00697465
-0.00711984
-0.00726758
-0.00741821
-0.00757144
-0.00772764
-0.00788639
-0.0080482
-0.00821463
-0.00838666
-0.00853723
-9.60725e-05
-0.000176527
-0.00021359
-0.000266948
-0.000323886
-0.000377695
-0.000430292
-0.000482382
-0.000533637
-0.000583947
-0.000633297
-0.000681724
-0.000729235
-0.000775805
-0.000821539
-0.000866295
-0.000910196
-0.000953129
-0.000995247
-0.00103646
-0.00107694
-0.00111658
-0.00115558
-0.00119382
-0.00123152
-0.00126853
-0.0013051
-0.00134107
-0.00137671
-0.00141185
-0.00144676
-0.00148126
-0.00151565
-0.00154973
-0.00158382
-0.00161769
-0.00165167
-0.00168554
-0.00171963
-0.00175371
-0.00178814
-0.00182268
-0.00185766
-0.00189285
-0.00192859
-0.00196463
-0.00200132
-0.00203841
-0.00207624
-0.00211456
-0.00215373
-0.00219346
-0.00223413
-0.00227545
-0.0023178
-0.00236087
-0.00240506
-0.00245006
-0.00249624
-0.00254331
-0.00259164
-0.00264093
-0.00269156
-0.00274322
-0.00279629
-0.00285045
-0.0029061
-0.0029629
-0.00302126
-0.00308085
-0.00314206
-0.00320456
-0.00326875
-0.0033343
-0.00340161
-0.00347034
-0.0035409
-0.00361295
-0.0036869
-0.00376241
-0.00383989
-0.003919
-0.00400015
-0.00408302
-0.00416796
-0.0042547
-0.00434359
-0.00443433
-0.00452728
-0.00462216
-0.0047193
-0.00481843
-0.00491989
-0.0050234
-0.0051293
-0.00523731
-0.00534777
-0.00546039
-0.00557552
-0.00569287
-0.00581278
-0.00593497
-0.00605977
-0.00618691
-0.00631672
-0.00644891
-0.00658384
-0.0067212
-0.00686136
-0.007004
-0.0071495
-0.00729756
-0.00744854
-0.00760211
-0.00775869
-0.00791782
-0.00808004
-0.00824689
-0.00841936
-0.00857031
-9.61762e-05
-0.000177089
-0.00021489
-0.000268983
-0.000326543
-0.000380971
-0.000434201
-0.000486918
-0.000538796
-0.000589701
-0.000639684
-0.000688704
-0.000736794
-0.000783961
-0.000830239
-0.000875572
-0.00092006
-0.000963563
-0.00100625
-0.00104802
-0.00108905
-0.00112924
-0.00116877
-0.00120754
-0.00124574
-0.00128328
-0.00132033
-0.00135682
-0.00139292
-0.00142857
-0.00146391
-0.00149892
-0.00153371
-0.00156829
-0.00160275
-0.0016371
-0.00167144
-0.00170577
-0.0017402
-0.00177474
-0.00180948
-0.00184446
-0.00187973
-0.00191535
-0.00195136
-0.00198782
-0.00202476
-0.00206226
-0.00210032
-0.00213904
-0.00217841
-0.00221853
-0.00225939
-0.00230109
-0.0023436
-0.00238705
-0.00243138
-0.00247673
-0.00252304
-0.00257046
-0.00261889
-0.00266852
-0.00271923
-0.00277122
-0.00282434
-0.00287882
-0.00293451
-0.00299162
-0.00305
-0.00310988
-0.00317109
-0.00323387
-0.00329804
-0.00336385
-0.00343111
-0.0035001
-0.00357059
-0.00364287
-0.00371674
-0.00379247
-0.00386986
-0.00394918
-0.00403023
-0.00411329
-0.00419815
-0.00428508
-0.00437388
-0.00446481
-0.00455769
-0.00465276
-0.00474984
-0.00484918
-0.00495059
-0.00505433
-0.00516019
-0.00526845
-0.00537888
-0.00549178
-0.00560691
-0.00572456
-0.00584449
-0.005967
-0.00609185
-0.00621934
-0.00634922
-0.0064818
-0.00661682
-0.0067546
-0.00689487
-0.00703797
-0.00718361
-0.00733214
-0.00748328
-0.00763738
-0.00779415
-0.00795383
-0.00811626
-0.00828368
-0.00845642
-0.00860789
-9.63198e-05
-0.000177752
-0.000216373
-0.000271281
-0.000329537
-0.000384657
-0.000438595
-0.000492013
-0.000544576
-0.000596186
-0.000646824
-0.000696533
-0.000745282
-0.000793109
-0.000839987
-0.00088602
-0.000931081
-0.000975292
-0.00101855
-0.00106101
-0.00110259
-0.00114346
-0.00118351
-0.00122295
-0.00126165
-0.00129983
-0.00133737
-0.00137449
-0.00141105
-0.00144731
-0.0014831
-0.0015187
-0.00155392
-0.00158906
-0.00162393
-0.00165883
-0.00169355
-0.00172842
-0.00176321
-0.00179826
-0.00183334
-0.00186881
-0.00190441
-0.0019405
-0.00197682
-0.00201374
-0.00205097
-0.0020889
-0.00212725
-0.00216638
-0.00220601
-0.00224653
-0.00228764
-0.00232972
-0.00237247
-0.00241627
-0.00246083
-0.00250652
-0.00255304
-0.00260077
-0.00264941
-0.00269934
-0.00275024
-0.0028025
-0.00285581
-0.00291054
-0.00296639
-0.00302375
-0.00308228
-0.00314238
-0.00320373
-0.00326671
-0.003331
-0.003397
-0.00346438
-0.00353353
-0.00360412
-0.00367656
-0.00375051
-0.00382637
-0.00390381
-0.00398324
-0.00406434
-0.00414749
-0.0042324
-0.00431942
-0.00440827
-0.0044993
-0.00459223
-0.0046874
-0.00478454
-0.00488399
-0.00498547
-0.00508933
-0.00519529
-0.00530368
-0.00541423
-0.00552727
-0.00564253
-0.00576035
-0.00588044
-0.00600315
-0.00612818
-0.00625589
-0.00638598
-0.0065188
-0.00665405
-0.0067921
-0.00693263
-0.00707603
-0.00722195
-0.0073708
-0.00752225
-0.0076767
-0.0078338
-0.00799385
-0.00815664
-0.00832444
-0.00849756
-0.00864941
-9.65051e-05
-0.000178507
-0.000218027
-0.000273824
-0.000332846
-0.000388728
-0.000443446
-0.000497634
-0.000550965
-0.000603314
-0.000654723
-0.000705164
-0.000754647
-0.000803186
-0.000850794
-0.000897503
-0.00094327
-0.000988193
-0.00103215
-0.0010753
-0.00111755
-0.00115908
-0.0011998
-0.00123987
-0.00127923
-0.00131802
-0.0013562
-0.0013939
-0.00143109
-0.0014679
-0.0015043
-0.00154042
-0.00157624
-0.00161188
-0.00164733
-0.0016827
-0.00171798
-0.00175329
-0.00178862
-0.00182408
-0.0018597
-0.00189555
-0.00193167
-0.00196812
-0.00200495
-0.0020422
-0.00207993
-0.00211817
-0.002157
-0.00219642
-0.00223653
-0.00227731
-0.00231888
-0.0023612
-0.0024044
-0.00244842
-0.00249341
-0.0025393
-0.00258625
-0.00263416
-0.0026832
-0.00273329
-0.00278459
-0.00283699
-0.00289068
-0.00294554
-0.00300176
-0.00305921
-0.0031181
-0.00317828
-0.00323997
-0.00330302
-0.00336765
-0.00343369
-0.00350139
-0.00357057
-0.00364148
-0.00371392
-0.00378817
-0.00386403
-0.00394176
-0.00402117
-0.00410253
-0.00418564
-0.00427077
-0.00435774
-0.00444681
-0.0045378
-0.00463095
-0.00472609
-0.00482346
-0.00492288
-0.00502461
-0.00512845
-0.00523466
-0.00534304
-0.00545386
-0.00556691
-0.00568246
-0.00580029
-0.0059207
-0.00604344
-0.00616881
-0.00629657
-0.00642702
-0.0065599
-0.00669555
-0.00683368
-0.00697463
-0.00711812
-0.00726449
-0.00741346
-0.00756538
-0.00771995
-0.00787755
-0.00803774
-0.00820104
-0.00836901
-0.00854262
-0.00869465
-9.67255e-05
-0.000179343
-0.000219839
-0.000276596
-0.000336451
-0.000393163
-0.000448727
-0.000503755
-0.00055791
-0.000611094
-0.000663299
-0.000714553
-0.000764839
-0.000814164
-0.000862557
-0.000909995
-0.000956577
-0.0010022
-0.00104697
-0.00109081
-0.00113387
-0.00117606
-0.00121756
-0.00125827
-0.00129839
-0.0013378
-0.00137671
-0.00141501
-0.00145292
-0.00149029
-0.0015274
-0.00156406
-0.00160056
-0.00163671
-0.00167282
-0.00170868
-0.0017446
-0.00178037
-0.00181632
-0.00185221
-0.00188841
-0.00192469
-0.00196137
-0.00199823
-0.0020356
-0.00207324
-0.00211149
-0.00215011
-0.00218944
-0.00222921
-0.0022698
-0.00231093
-0.00235295
-0.00239559
-0.00243923
-0.00248356
-0.00252897
-0.00257515
-0.00262249
-0.00267068
-0.00272011
-0.00277046
-0.00282211
-0.00287476
-0.00292879
-0.00298388
-0.00304042
-0.0030981
-0.00315728
-0.00321767
-0.00327964
-0.00334288
-0.00340777
-0.00347399
-0.00354193
-0.00361128
-0.0036824
-0.00375501
-0.00382946
-0.00390546
-0.00398338
-0.00406292
-0.00414446
-0.00422769
-0.00431298
-0.00440005
-0.00448927
-0.00458034
-0.00467363
-0.00476887
-0.00486638
-0.0049659
-0.00506777
-0.00517172
-0.00527808
-0.00538657
-0.00549756
-0.00561073
-0.00572646
-0.00584443
-0.00596502
-0.00608792
-0.00621349
-0.00634142
-0.00647208
-0.00660516
-0.00674103
-0.00687937
-0.00702056
-0.00716428
-0.00731091
-0.00746012
-0.00761231
-0.00776713
-0.00792501
-0.00808547
-0.00824906
-0.00841731
-0.00859122
-0.0087435
-9.69806e-05
-0.000180249
-0.000221791
-0.000279579
-0.000340329
-0.000397936
-0.000454414
-0.000510344
-0.000565394
-0.00061945
-0.000672553
-0.000724666
-0.000775816
-0.000825995
-0.000875221
-0.000923502
-0.00097088
-0.00101732
-0.00106292
-0.00110756
-0.00115142
-0.0011944
-0.00123667
-0.00127815
-0.001319
-0.00135916
-0.00139879
-0.00143782
-0.00147641
-0.00151451
-0.00155226
-0.00158962
-0.00162674
-0.00166358
-0.00170027
-0.00173679
-0.00177326
-0.00180968
-0.00184614
-0.00188267
-0.00191935
-0.00195623
-0.00199338
-0.00203083
-0.00206864
-0.00210686
-0.00214552
-0.0021847
-0.00222442
-0.00226475
-0.00230569
-0.00234735
-0.00238971
-0.00243288
-0.00247682
-0.00252167
-0.00256736
-0.00261404
-0.00266164
-0.00271032
-0.00275998
-0.0028108
-0.00286268
-0.00291578
-0.00297001
-0.00302555
-0.00308227
-0.00314037
-0.00319972
-0.00326052
-0.00332263
-0.00338627
-0.00345129
-0.00351789
-0.00358594
-0.00365566
-0.00372688
-0.00379984
-0.00387437
-0.00395071
-0.00402869
-0.00410856
-0.00419013
-0.00427367
-0.00435899
-0.00444636
-0.00453558
-0.00462693
-0.00472022
-0.00481572
-0.00491323
-0.00501302
-0.00511489
-0.0052191
-0.00532546
-0.00543424
-0.00554522
-0.00565869
-0.00577442
-0.0058927
-0.0060133
-0.00613652
-0.0062621
-0.00639036
-0.00652105
-0.00665447
-0.00679037
-0.00692907
-0.00707029
-0.00721438
-0.00736104
-0.00751064
-0.00766287
-0.0078181
-0.00797601
-0.00813688
-0.00830052
-0.00846918
-0.00864316
-0.00879582
-9.7264e-05
-0.000181216
-0.000223874
-0.000282759
-0.000344466
-0.00040303
-0.000460484
-0.000517381
-0.00057338
-0.000628399
-0.000682421
-0.000735477
-0.000787546
-0.000838643
-0.000888768
-0.000937947
-0.000986166
-0.00103353
-0.00107994
-0.00112551
-0.00117016
-0.00121404
-0.00125708
-0.00129944
-0.00134104
-0.00138206
-0.0014224
-0.00146226
-0.00150154
-0.00154045
-0.00157885
-0.00161701
-0.00165475
-0.00169235
-0.00172964
-0.0017669
-0.00180394
-0.00184108
-0.00187808
-0.00191529
-0.00195249
-0.00199004
-0.00202768
-0.00206577
-0.00210406
-0.00214289
-0.00218201
-0.00222179
-0.00226194
-0.00230284
-0.00234421
-0.00238642
-0.00242918
-0.00247287
-0.00251721
-0.00256255
-0.00260862
-0.00265578
-0.00270374
-0.00275287
-0.00280288
-0.00285413
-0.00290633
-0.00295985
-0.00301439
-0.00307032
-0.00312734
-0.00318581
-0.00324544
-0.00330659
-0.00336897
-0.00343294
-0.00349821
-0.00356513
-0.00363341
-0.00370342
-0.00377486
-0.0038481
-0.00392283
-0.00399943
-0.00407759
-0.0041577
-0.00423945
-0.00432322
-0.0044087
-0.00449627
-0.00458564
-0.00467719
-0.00477061
-0.00486628
-0.00496392
-0.00506388
-0.00516588
-0.00527026
-0.00537675
-0.00548569
-0.0055968
-0.00571044
-0.0058263
-0.00594475
-0.00606548
-0.00618887
-0.00631459
-0.00644304
-0.00657387
-0.00670747
-0.00684352
-0.00698241
-0.00712379
-0.00726807
-0.0074149
-0.00756468
-0.00771708
-0.0078725
-0.00803058
-0.00819165
-0.00835545
-0.0085243
-0.00869843
-0.00885129
-9.75767e-05
-0.000182238
-0.000226081
-0.000286127
-0.000348849
-0.000408432
-0.000466923
-0.000524844
-0.000581863
-0.000637875
-0.000692914
-0.000746952
-0.000799999
-0.000852069
-0.000903156
-0.000953276
-0.00100245
-0.00105071
-0.00109804
-0.00114454
-0.0011901
-0.00123488
-0.0012788
-0.00132203
-0.00136449
-0.00140634
-0.00144752
-0.00148819
-0.00152829
-0.00156797
-0.00160717
-0.00164606
-0.00168459
-0.00172289
-0.00176094
-0.00179886
-0.00183665
-0.00187441
-0.00191213
-0.00194994
-0.00198784
-0.00202594
-0.00206427
-0.00210289
-0.00214184
-0.00218118
-0.00222096
-0.00226121
-0.002302
-0.00234335
-0.00238534
-0.00242797
-0.00247134
-0.00251543
-0.00256035
-0.00260607
-0.00265271
-0.00270022
-0.00274874
-0.0027982
-0.00284875
-0.00290031
-0.00295304
-0.00300684
-0.00306189
-0.00311808
-0.00317559
-0.00323431
-0.00329442
-0.0033558
-0.00341864
-0.00348281
-0.00354852
-0.00361563
-0.00368434
-0.00375451
-0.00382636
-0.00389973
-0.00397486
-0.00405157
-0.00413012
-0.00421032
-0.00429244
-0.00437628
-0.00446212
-0.00454975
-0.00463947
-0.00473106
-0.0048248
-0.0049205
-0.00501844
-0.00511842
-0.00522071
-0.0053251
-0.00543188
-0.00554082
-0.00565223
-0.00576585
-0.00588201
-0.00600045
-0.00612148
-0.00624485
-0.00637088
-0.0064993
-0.00663044
-0.00676403
-0.00690039
-0.00703925
-0.00718095
-0.00732519
-0.00747234
-0.00762209
-0.00777481
-0.00793018
-0.00808858
-0.00824959
-0.00841371
-0.00858249
-0.00875688
-0.00890973
-9.79151e-05
-0.000183314
-0.000228406
-0.000289675
-0.000353467
-0.000414126
-0.000473711
-0.000532716
-0.000590803
-0.000647889
-0.000703968
-0.000759057
-0.000813142
-0.000866235
-0.000918343
-0.000969466
-0.00101964
-0.00106884
-0.0011172
-0.0011646
-0.00121118
-0.00125685
-0.00130177
-0.00134586
-0.00138929
-0.00143197
-0.0014741
-0.00151556
-0.00155658
-0.00159703
-0.00163713
-0.00167675
-0.00171615
-0.00175515
-0.00179405
-0.00183265
-0.00187125
-0.00190965
-0.00194816
-0.00198658
-0.00202524
-0.00206393
-0.00210299
-0.00214218
-0.00218184
-0.00222173
-0.00226219
-0.00230297
-0.00234442
-0.00238627
-0.0024289
-0.00247202
-0.002516
-0.00256056
-0.00260607
-0.00265225
-0.00269945
-0.0027474
-0.00279646
-0.00284634
-0.0028974
-0.00294936
-0.00300258
-0.00305678
-0.00311229
-0.00316886
-0.00322681
-0.00328588
-0.00334641
-0.00340813
-0.00347137
-0.00353587
-0.00360196
-0.00366937
-0.00373844
-0.00380889
-0.00388108
-0.00395472
-0.00403017
-0.00410712
-0.00418598
-0.0042664
-0.00434881
-0.00443285
-0.00451895
-0.00460678
-0.00469674
-0.00478851
-0.00488247
-0.00497833
-0.00507647
-0.0051766
-0.00527907
-0.00538361
-0.00549056
-0.00559964
-0.00571121
-0.00582496
-0.00594128
-0.00605984
-0.00618103
-0.00630452
-0.00643069
-0.00655922
-0.0066905
-0.00682419
-0.00696069
-0.00709965
-0.00724148
-0.00738582
-0.00753308
-0.00768292
-0.00783575
-0.0079912
-0.00814971
-0.00831078
-0.00847499
-0.00864383
-0.00881828
-0.00897119
-9.82797e-05
-0.000184438
-0.000230841
-0.000293391
-0.000358308
-0.000420096
-0.000480831
-0.000540973
-0.000600187
-0.00065838
-0.000715584
-0.000771763
-0.000826939
-0.000881109
-0.000934287
-0.000986469
-0.00103768
-0.00108793
-0.00113728
-0.0011857
-0.0012333
-0.00127997
-0.00132587
-0.00137093
-0.00141531
-0.00145894
-0.00150199
-0.00154438
-0.00158628
-0.00162763
-0.00166858
-0.00170908
-0.00174929
-0.00178915
-0.00182882
-0.00186825
-0.00190759
-0.0019468
-0.00198601
-0.00202522
-0.00206454
-0.002104
-0.00214369
-0.00218363
-0.0022239
-0.00226452
-0.00230555
-0.00234705
-0.00238905
-0.0024316
-0.00247475
-0.00251855
-0.00256302
-0.00260825
-0.00265423
-0.00270105
-0.00274869
-0.00279727
-0.00284674
-0.00289724
-0.00294869
-0.00300125
-0.00305484
-0.00310961
-0.00316548
-0.0032226
-0.00328088
-0.00334049
-0.00340133
-0.00346356
-0.00352709
-0.00359208
-0.00365843
-0.00372632
-0.00379562
-0.00386654
-0.00393894
-0.00401303
-0.00408865
-0.00416606
-0.00424505
-0.00432591
-0.00440843
-0.00449289
-0.00457909
-0.0046673
-0.00475734
-0.00484947
-0.00494349
-0.00503969
-0.00513788
-0.00523833
-0.00534084
-0.00544568
-0.00555265
-0.00566203
-0.0057736
-0.00588764
-0.00600394
-0.00612279
-0.00624395
-0.00636771
-0.00649384
-0.00662265
-0.00675387
-0.00688783
-0.00702424
-0.00716347
-0.00730519
-0.00744979
-0.00759694
-0.00774702
-0.00789971
-0.0080554
-0.00821376
-0.00837506
-0.0085391
-0.00870814
-0.00888241
-0.00903551
-9.86667e-05
-0.000185604
-0.00023338
-0.000297267
-0.000363357
-0.000426328
-0.000488264
-0.000549595
-0.000609982
-0.000669355
-0.000727702
-0.000785041
-0.000841353
-0.000896654
-0.000950948
-0.00100424
-0.00105654
-0.00110789
-0.00115827
-0.0012078
-0.00125639
-0.00130416
-0.00135104
-0.00139718
-0.0014425
-0.00148718
-0.00153114
-0.00157456
-0.00161733
-0.00165968
-0.00170147
-0.00174294
-0.00178396
-0.00182477
-0.00186521
-0.00190556
-0.00194564
-0.00198574
-0.00202566
-0.00206572
-0.00210572
-0.00214601
-0.00218636
-0.0022271
-0.002268
-0.0023094
-0.00235105
-0.0023933
-0.00243588
-0.00247917
-0.00252288
-0.00256738
-0.00261241
-0.00265831
-0.00270482
-0.00275229
-0.00280045
-0.00284965
-0.00289962
-0.0029507
-0.00300264
-0.00305577
-0.00310982
-0.00316513
-0.00322144
-0.00327908
-0.00333779
-0.0033979
-0.00345914
-0.00352184
-0.00358575
-0.0036512
-0.0037179
-0.00378622
-0.00385586
-0.00392718
-0.0039999
-0.00407437
-0.00415029
-0.00422805
-0.00430732
-0.0043885
-0.00447128
-0.00455605
-0.00464248
-0.00473098
-0.00482122
-0.00491361
-0.00500783
-0.00510426
-0.00520262
-0.00530327
-0.00540594
-0.00551097
-0.00561808
-0.00572763
-0.00583932
-0.00595353
-0.00606994
-0.00618893
-0.00631018
-0.00643407
-0.00656029
-0.00668921
-0.00682049
-0.00695454
-0.00709102
-0.00723032
-0.00737209
-0.00751674
-0.00766392
-0.00781404
-0.00796675
-0.00812246
-0.0082808
-0.00844211
-0.00860613
-0.00877514
-0.00894934
-0.00910245
-9.9076e-05
-0.000186808
-0.000236014
-0.000301291
-0.000368603
-0.000432806
-0.000495993
-0.00055856
-0.000620176
-0.000680756
-0.000740325
-0.000798856
-0.000856354
-0.000912833
-0.000968292
-0.00102274
-0.00107619
-0.00112865
-0.00118017
-0.00123077
-0.00128046
-0.00132933
-0.00137729
-0.00142449
-0.00147086
-0.00151658
-0.00156156
-0.00160597
-0.00164974
-0.00169304
-0.00173581
-0.0017782
-0.00182017
-0.00186186
-0.00190322
-0.00194442
-0.0019854
-0.0020263
-0.00206711
-0.00210793
-0.00214879
-0.0021898
-0.00223099
-0.00227243
-0.00231415
-0.00235621
-0.00239866
-0.00244154
-0.00248491
-0.0025288
-0.00257328
-0.00261837
-0.00266413
-0.00271059
-0.00275782
-0.00280582
-0.00285468
-0.00290438
-0.00295503
-0.0030066
-0.0030592
-0.00311277
-0.00316747
-0.00322321
-0.00328014
-0.00333819
-0.00339749
-0.00345798
-0.0035198
-0.00358286
-0.00364732
-0.00371309
-0.00378034
-0.00384895
-0.00391911
-0.0039907
-0.00406391
-0.00413862
-0.00421503
-0.00429299
-0.00437273
-0.00445409
-0.00453732
-0.00462223
-0.00470909
-0.0047977
-0.00488834
-0.00498081
-0.00507539
-0.00517189
-0.00527059
-0.00537129
-0.00547427
-0.00557933
-0.00568674
-0.00579629
-0.00590828
-0.00602246
-0.00613915
-0.00625809
-0.00637961
-0.00650343
-0.0066299
-0.00675872
-0.00689025
-0.00702419
-0.00716088
-0.00730004
-0.00744202
-0.00758652
-0.00773388
-0.00788383
-0.0080367
-0.0081922
-0.0083507
-0.00851176
-0.00867591
-0.00884466
-0.0090189
-0.00917183
-9.95046e-05
-0.000188045
-0.000238737
-0.000305453
-0.000374032
-0.000439513
-0.000503998
-0.00056785
-0.000630734
-0.000692586
-0.000753397
-0.000813176
-0.00087191
-0.000929609
-0.000986281
-0.00104193
-0.00109657
-0.00115021
-0.00120289
-0.00125461
-0.00130548
-0.00135542
-0.00140456
-0.00145281
-0.00150034
-0.00154707
-0.00159316
-0.00163856
-0.00168343
-0.00172767
-0.00177151
-0.00181481
-0.00185782
-0.00190038
-0.00194276
-0.00198479
-0.00202675
-0.00206847
-0.00211022
-0.00215182
-0.00219359
-0.00223536
-0.00227743
-0.0023196
-0.00236218
-0.00240494
-0.00244823
-0.00249179
-0.00253597
-0.00258051
-0.00262578
-0.00267149
-0.00271802
-0.00276508
-0.00281304
-0.00286163
-0.00291119
-0.00296147
-0.00301279
-0.00306491
-0.00311815
-0.00317227
-0.00322758
-0.00328383
-0.00334135
-0.00339989
-0.00345976
-0.00352071
-0.00358307
-0.00364657
-0.00371155
-0.00377774
-0.00384547
-0.00391447
-0.0039851
-0.00405705
-0.0041307
-0.00420575
-0.00428256
-0.00436085
-0.00444097
-0.00452262
-0.0046062
-0.00469137
-0.00477855
-0.0048674
-0.00495833
-0.00505102
-0.00514586
-0.00524255
-0.00534148
-0.00544235
-0.00554554
-0.00565075
-0.00575835
-0.00586803
-0.00598017
-0.00609446
-0.00621129
-0.00633032
-0.00645194
-0.00657583
-0.00670239
-0.00683126
-0.00696284
-0.0070968
-0.00723354
-0.0073727
-0.0075147
-0.00765916
-0.00780652
-0.00795642
-0.00810926
-0.00826468
-0.00842312
-0.00858408
-0.00874814
-0.00891675
-0.00909085
-0.00924366
-9.99522e-05
-0.000189308
-0.000241541
-0.000309744
-0.000379632
-0.000446437
-0.000512264
-0.000577443
-0.000641644
-0.000704794
-0.000766916
-0.000827974
-0.000887985
-0.000946948
-0.00100488
-0.00106177
-0.00111764
-0.0011725
-0.00122638
-0.0012793
-0.00133132
-0.00138244
-0.00143274
-0.00148214
-0.0015308
-0.00157865
-0.00162585
-0.00167233
-0.00171826
-0.00176357
-0.00180843
-0.00185277
-0.00189676
-0.00194034
-0.00198366
-0.00202668
-0.00206955
-0.00211223
-0.00215485
-0.00219739
-0.00223999
-0.00228267
-0.00232554
-0.0023686
-0.00241194
-0.00245558
-0.0024996
-0.00254401
-0.00258889
-0.00263428
-0.00268021
-0.00272674
-0.0027739
-0.00282177
-0.00287034
-0.0029197
-0.00296984
-0.00302087
-0.00307275
-0.0031256
-0.00317938
-0.0032342
-0.00329001
-0.00334695
-0.00340495
-0.00346414
-0.00352446
-0.00358605
-0.00364882
-0.00371294
-0.0037783
-0.00384508
-0.00391317
-0.00398275
-0.00405369
-0.0041262
-0.00420014
-0.00427572
-0.00435279
-0.00443157
-0.00451192
-0.00459405
-0.00467781
-0.00476345
-0.00485077
-0.00494006
-0.00503111
-0.0051242
-0.00521913
-0.00531619
-0.00541518
-0.00551639
-0.00561962
-0.00572514
-0.00583275
-0.00594273
-0.00605485
-0.00616941
-0.00628619
-0.00640547
-0.00652702
-0.00665114
-0.00677758
-0.00690666
-0.00703811
-0.00717226
-0.00730882
-0.00744814
-0.00758993
-0.00773454
-0.00788166
-0.00803166
-0.00818423
-0.00833974
-0.00849788
-0.00865891
-0.00882263
-0.00899126
-0.009165
-0.00931784
-0.000100417
-0.000190593
-0.000244419
-0.000314154
-0.000385391
-0.00045356
-0.000520772
-0.00058732
-0.000652874
-0.000717381
-0.000780827
-0.000843222
-0.000904548
-0.000964818
-0.00102404
-0.00108221
-0.00113935
-0.00119548
-0.0012506
-0.00130476
-0.00135797
-0.00141033
-0.00146178
-0.00151242
-0.0015622
-0.00161126
-0.00165954
-0.00170721
-0.00175419
-0.00180066
-0.00184652
-0.001892
-0.00193696
-0.00198163
-0.00202589
-0.00206999