/*--------------------------------*- C++ -*----------------------------------*\
  =========                 |
  \\      /  F ield         | OpenFOAM: The Open Source CFD Toolbox
   \\    /   O peration     | Website:  https://openfoam.org
    \\  /    A nd           | Version:  8
     \\/     M anipulation  |
\*---------------------------------------------------------------------------*/
FoamFile
{
    version     2.0;
    format      ascii;
    class       volScalarField;
    location    "0.8";
    object      p;
}
// * * * * * * * * * * * * * * * * * * * * * * * * * * * * * * * * * * * * * //

dimensions      [0 2 -2 0 0 0 0];

internalField   nonuniform List<scalar> 
277560
(
-0.0349889
-0.034992
-0.034993
-0.0349935
-0.0349933
-0.0349924
-0.0349909
-0.0349887
-0.034986
-0.0349826
-0.0349788
-0.0349743
-0.0349694
-0.034964
-0.0349581
-0.0349518
-0.034945
-0.0349379
-0.0349304
-0.0349225
-0.0349142
-0.0349056
-0.0348967
-0.0348874
-0.0348779
-0.0348679
-0.0348577
-0.0348472
-0.0348363
-0.0348252
-0.0348137
-0.0348019
-0.0347899
-0.0347775
-0.0347649
-0.0347519
-0.0347387
-0.0347251
-0.0347113
-0.0346971
-0.0346827
-0.0346678
-0.0346528
-0.0346373
-0.0346216
-0.0346055
-0.0345891
-0.0345723
-0.0345553
-0.0345378
-0.03452
-0.0345018
-0.0344833
-0.0344644
-0.0344451
-0.0344254
-0.0344054
-0.0343849
-0.034364
-0.0343427
-0.034321
-0.0342988
-0.0342762
-0.0342531
-0.0342297
-0.0342056
-0.0341813
-0.0341563
-0.0341309
-0.034105
-0.0340786
-0.0340517
-0.0340243
-0.0339963
-0.0339678
-0.0339388
-0.0339092
-0.0338791
-0.0338484
-0.0338171
-0.0337853
-0.0337529
-0.0337199
-0.0336862
-0.033652
-0.0336172
-0.0335817
-0.0335456
-0.0335089
-0.0334715
-0.0334335
-0.0333948
-0.0333554
-0.0333153
-0.0332745
-0.0332331
-0.0331909
-0.033148
-0.0331044
-0.03306
-0.0330149
-0.0329691
-0.0329225
-0.0328751
-0.032827
-0.0327781
-0.0327284
-0.0326779
-0.0326265
-0.0325744
-0.0325214
-0.0324676
-0.032413
-0.0323575
-0.0323011
-0.0322439
-0.0321857
-0.032126
-0.0320647
-0.0320113
-0.0349896
-0.0349922
-0.0349932
-0.0349936
-0.0349934
-0.0349925
-0.0349911
-0.0349889
-0.0349862
-0.0349828
-0.0349789
-0.0349745
-0.0349696
-0.0349641
-0.0349582
-0.0349519
-0.0349452
-0.0349381
-0.0349305
-0.0349227
-0.0349144
-0.0349058
-0.0348969
-0.0348876
-0.034878
-0.0348681
-0.0348579
-0.0348474
-0.0348365
-0.0348254
-0.0348139
-0.0348022
-0.0347902
-0.0347778
-0.0347652
-0.0347523
-0.034739
-0.0347255
-0.0347117
-0.0346975
-0.0346831
-0.0346683
-0.0346532
-0.0346378
-0.0346221
-0.0346061
-0.0345897
-0.034573
-0.0345559
-0.0345385
-0.0345207
-0.0345026
-0.0344841
-0.0344653
-0.034446
-0.0344264
-0.0344063
-0.0343859
-0.0343651
-0.0343438
-0.0343222
-0.0343001
-0.0342775
-0.0342545
-0.0342311
-0.0342072
-0.0341828
-0.034158
-0.0341326
-0.0341068
-0.0340805
-0.0340537
-0.0340263
-0.0339984
-0.03397
-0.0339411
-0.0339116
-0.0338816
-0.033851
-0.0338198
-0.0337881
-0.0337557
-0.0337228
-0.0336893
-0.0336552
-0.0336205
-0.0335851
-0.0335491
-0.0335125
-0.0334752
-0.0334372
-0.0333986
-0.0333593
-0.0333192
-0.0332785
-0.0332371
-0.033195
-0.0331521
-0.0331085
-0.0330642
-0.0330191
-0.0329732
-0.0329265
-0.0328791
-0.0328309
-0.0327818
-0.032732
-0.0326813
-0.0326298
-0.0325774
-0.0325242
-0.0324701
-0.0324152
-0.0323593
-0.0323026
-0.0322449
-0.0321863
-0.032126
-0.032064
-0.0320102
-0.0349903
-0.0349928
-0.0349937
-0.0349942
-0.034994
-0.0349932
-0.0349917
-0.0349896
-0.0349869
-0.0349836
-0.0349797
-0.0349752
-0.0349703
-0.0349649
-0.034959
-0.0349526
-0.0349459
-0.0349388
-0.0349312
-0.0349233
-0.0349151
-0.0349065
-0.0348976
-0.0348883
-0.0348787
-0.0348688
-0.0348586
-0.0348481
-0.0348373
-0.0348261
-0.0348147
-0.034803
-0.034791
-0.0347787
-0.034766
-0.0347531
-0.0347399
-0.0347264
-0.0347126
-0.0346985
-0.0346841
-0.0346694
-0.0346543
-0.0346389
-0.0346232
-0.0346072
-0.0345909
-0.0345742
-0.0345572
-0.0345398
-0.0345221
-0.034504
-0.0344855
-0.0344667
-0.0344475
-0.034428
-0.0344079
-0.0343876
-0.0343668
-0.0343456
-0.0343239
-0.0343019
-0.0342794
-0.0342565
-0.0342331
-0.0342093
-0.0341849
-0.0341602
-0.0341349
-0.0341092
-0.0340829
-0.0340562
-0.0340288
-0.0340011
-0.0339727
-0.0339439
-0.0339144
-0.0338845
-0.033854
-0.0338229
-0.0337912
-0.033759
-0.0337262
-0.0336928
-0.0336587
-0.0336241
-0.0335888
-0.0335529
-0.0335163
-0.0334791
-0.0334412
-0.0334027
-0.0333634
-0.0333235
-0.0332829
-0.0332415
-0.0331994
-0.0331566
-0.0331131
-0.0330687
-0.0330237
-0.0329778
-0.0329312
-0.0328837
-0.0328355
-0.0327864
-0.0327365
-0.0326857
-0.0326341
-0.0325816
-0.0325283
-0.032474
-0.0324189
-0.0323628
-0.0323058
-0.0322478
-0.0321888
-0.0321281
-0.0320657
-0.0320114
-0.0349906
-0.0349934
-0.0349946
-0.0349952
-0.0349951
-0.0349944
-0.034993
-0.0349909
-0.0349882
-0.0349849
-0.034981
-0.0349766
-0.0349716
-0.0349662
-0.0349603
-0.0349539
-0.0349472
-0.03494
-0.0349325
-0.0349246
-0.0349163
-0.0349077
-0.0348988
-0.0348896
-0.03488
-0.0348701
-0.0348599
-0.0348494
-0.0348386
-0.0348274
-0.034816
-0.0348043
-0.0347923
-0.03478
-0.0347675
-0.0347546
-0.0347414
-0.0347279
-0.0347142
-0.0347001
-0.0346857
-0.034671
-0.034656
-0.0346407
-0.0346251
-0.0346091
-0.0345928
-0.0345762
-0.0345592
-0.0345419
-0.0345242
-0.0345062
-0.0344878
-0.0344691
-0.0344499
-0.0344304
-0.0344105
-0.0343902
-0.0343695
-0.0343484
-0.0343269
-0.0343049
-0.0342825
-0.0342596
-0.0342364
-0.0342126
-0.0341884
-0.0341637
-0.0341386
-0.0341129
-0.0340868
-0.0340601
-0.034033
-0.0340053
-0.0339771
-0.0339483
-0.0339191
-0.0338892
-0.0338589
-0.0338279
-0.0337964
-0.0337642
-0.0337316
-0.0336983
-0.0336644
-0.0336298
-0.0335947
-0.0335589
-0.0335225
-0.0334854
-0.0334476
-0.0334092
-0.0333701
-0.0333302
-0.0332897
-0.0332484
-0.0332064
-0.0331637
-0.0331202
-0.0330759
-0.0330309
-0.032985
-0.0329384
-0.032891
-0.0328427
-0.0327936
-0.0327436
-0.0326928
-0.032641
-0.0325884
-0.0325349
-0.0324805
-0.0324251
-0.0323688
-0.0323114
-0.0322532
-0.0321938
-0.0321327
-0.0320699
-0.0320154
-0.0349907
-0.0349943
-0.0349958
-0.0349965
-0.0349967
-0.0349961
-0.0349947
-0.0349927
-0.0349901
-0.0349867
-0.0349829
-0.0349784
-0.0349734
-0.034968
-0.0349621
-0.0349557
-0.0349489
-0.0349418
-0.0349342
-0.0349263
-0.0349181
-0.0349095
-0.0349005
-0.0348913
-0.0348817
-0.0348718
-0.0348616
-0.0348511
-0.0348403
-0.0348292
-0.0348179
-0.0348062
-0.0347942
-0.0347819
-0.0347694
-0.0347566
-0.0347434
-0.03473
-0.0347163
-0.0347022
-0.0346879
-0.0346732
-0.0346583
-0.034643
-0.0346275
-0.0346115
-0.0345953
-0.0345788
-0.0345619
-0.0345446
-0.034527
-0.0345091
-0.0344908
-0.0344721
-0.034453
-0.0344336
-0.0344138
-0.0343935
-0.034373
-0.0343519
-0.0343305
-0.0343086
-0.0342863
-0.0342635
-0.0342404
-0.0342167
-0.0341927
-0.0341681
-0.0341431
-0.0341175
-0.0340915
-0.0340649
-0.034038
-0.0340104
-0.0339823
-0.0339537
-0.0339246
-0.0338948
-0.0338646
-0.0338338
-0.0338024
-0.0337704
-0.0337379
-0.0337047
-0.0336709
-0.0336365
-0.0336015
-0.0335658
-0.0335295
-0.0334926
-0.0334549
-0.0334166
-0.0333776
-0.0333379
-0.0332974
-0.0332562
-0.0332143
-0.0331717
-0.0331282
-0.033084
-0.033039
-0.0329933
-0.0329467
-0.0328993
-0.032851
-0.0328019
-0.0327519
-0.0327011
-0.0326494
-0.0325967
-0.0325432
-0.0324887
-0.0324332
-0.0323768
-0.0323194
-0.0322611
-0.0322016
-0.0321403
-0.0320773
-0.0320226
-0.0349909
-0.0349954
-0.0349973
-0.0349984
-0.0349987
-0.0349983
-0.034997
-0.0349951
-0.0349924
-0.0349891
-0.0349852
-0.0349808
-0.0349758
-0.0349703
-0.0349644
-0.034958
-0.0349512
-0.034944
-0.0349365
-0.0349285
-0.0349203
-0.0349117
-0.0349027
-0.0348935
-0.0348839
-0.034874
-0.0348638
-0.0348534
-0.0348426
-0.0348315
-0.0348202
-0.0348085
-0.0347966
-0.0347844
-0.0347718
-0.034759
-0.0347459
-0.0347326
-0.0347189
-0.0347049
-0.0346906
-0.034676
-0.0346612
-0.034646
-0.0346304
-0.0346146
-0.0345984
-0.034582
-0.0345651
-0.034548
-0.0345304
-0.0345126
-0.0344943
-0.0344758
-0.0344568
-0.0344375
-0.0344177
-0.0343976
-0.0343771
-0.0343562
-0.0343348
-0.0343131
-0.0342909
-0.0342683
-0.0342452
-0.0342217
-0.0341977
-0.0341733
-0.0341484
-0.034123
-0.0340971
-0.0340707
-0.0340438
-0.0340164
-0.0339885
-0.03396
-0.033931
-0.0339015
-0.0338714
-0.0338407
-0.0338094
-0.0337776
-0.0337452
-0.0337122
-0.0336786
-0.0336443
-0.0336094
-0.0335739
-0.0335378
-0.0335009
-0.0334634
-0.0334253
-0.0333864
-0.0333468
-0.0333065
-0.0332654
-0.0332236
-0.0331811
-0.0331378
-0.0330937
-0.0330488
-0.0330031
-0.0329566
-0.0329093
-0.0328611
-0.0328121
-0.0327622
-0.0327114
-0.0326598
-0.0326071
-0.0325536
-0.0324992
-0.0324438
-0.0323874
-0.03233
-0.0322716
-0.0322122
-0.0321509
-0.0320879
-0.0320334
-0.0349915
-0.0349969
-0.0349993
-0.0350007
-0.0350013
-0.035001
-0.0349998
-0.0349979
-0.0349953
-0.034992
-0.0349881
-0.0349836
-0.0349786
-0.0349731
-0.0349672
-0.0349607
-0.0349539
-0.0349467
-0.0349391
-0.0349312
-0.0349229
-0.0349143
-0.0349054
-0.0348961
-0.0348865
-0.0348767
-0.0348665
-0.034856
-0.0348453
-0.0348343
-0.0348229
-0.0348113
-0.0347994
-0.0347872
-0.0347747
-0.034762
-0.0347489
-0.0347356
-0.034722
-0.0347081
-0.0346938
-0.0346793
-0.0346645
-0.0346494
-0.0346339
-0.0346182
-0.0346021
-0.0345857
-0.0345689
-0.0345519
-0.0345344
-0.0345167
-0.0344985
-0.03448
-0.0344611
-0.0344419
-0.0344223
-0.0344023
-0.0343819
-0.0343611
-0.0343398
-0.0343182
-0.0342961
-0.0342737
-0.0342507
-0.0342274
-0.0342035
-0.0341792
-0.0341544
-0.0341292
-0.0341034
-0.0340772
-0.0340504
-0.0340232
-0.0339954
-0.0339671
-0.0339382
-0.0339088
-0.0338788
-0.0338484
-0.0338172
-0.0337856
-0.0337533
-0.0337205
-0.033687
-0.0336529
-0.0336182
-0.0335828
-0.0335468
-0.0335101
-0.0334727
-0.0334347
-0.033396
-0.0333565
-0.0333164
-0.0332755
-0.0332338
-0.0331914
-0.0331482
-0.0331043
-0.0330596
-0.033014
-0.0329677
-0.0329205
-0.0328725
-0.0328236
-0.0327739
-0.0327233
-0.0326718
-0.0326193
-0.032566
-0.0325117
-0.0324566
-0.0324003
-0.0323432
-0.032285
-0.0322258
-0.0321647
-0.0321019
-0.0320476
-0.0349926
-0.0349989
-0.0350019
-0.0350036
-0.0350044
-0.0350042
-0.0350032
-0.0350013
-0.0349987
-0.0349954
-0.0349915
-0.034987
-0.0349819
-0.0349764
-0.0349704
-0.034964
-0.0349571
-0.0349499
-0.0349423
-0.0349343
-0.034926
-0.0349174
-0.0349084
-0.0348992
-0.0348896
-0.0348798
-0.0348696
-0.0348592
-0.0348484
-0.0348374
-0.0348261
-0.0348145
-0.0348027
-0.0347905
-0.0347781
-0.0347654
-0.0347524
-0.0347391
-0.0347256
-0.0347117
-0.0346976
-0.0346831
-0.0346684
-0.0346533
-0.0346379
-0.0346223
-0.0346063
-0.0345899
-0.0345733
-0.0345563
-0.034539
-0.0345213
-0.0345032
-0.0344849
-0.0344661
-0.034447
-0.0344275
-0.0344076
-0.0343873
-0.0343666
-0.0343455
-0.034324
-0.034302
-0.0342797
-0.0342569
-0.0342336
-0.0342099
-0.0341857
-0.0341611
-0.034136
-0.0341104
-0.0340843
-0.0340578
-0.0340306
-0.034003
-0.0339749
-0.0339462
-0.0339169
-0.0338872
-0.0338568
-0.0338259
-0.0337943
-0.0337623
-0.0337296
-0.0336963
-0.0336623
-0.0336278
-0.0335926
-0.0335567
-0.0335202
-0.033483
-0.0334452
-0.0334066
-0.0333674
-0.0333274
-0.0332867
-0.0332452
-0.033203
-0.03316
-0.0331163
-0.0330718
-0.0330264
-0.0329803
-0.0329333
-0.0328855
-0.0328369
-0.0327874
-0.032737
-0.0326857
-0.0326336
-0.0325805
-0.0325265
-0.0324715
-0.0324156
-0.0323586
-0.0323008
-0.0322418
-0.0321811
-0.0321187
-0.0320647
-0.0349945
-0.0350016
-0.0350051
-0.0350071
-0.0350081
-0.035008
-0.0350071
-0.0350052
-0.0350026
-0.0349993
-0.0349954
-0.0349908
-0.0349857
-0.0349802
-0.0349741
-0.0349676
-0.0349607
-0.0349535
-0.0349458
-0.0349378
-0.0349295
-0.0349209
-0.0349119
-0.0349027
-0.0348931
-0.0348832
-0.0348731
-0.0348627
-0.034852
-0.034841
-0.0348297
-0.0348182
-0.0348064
-0.0347942
-0.0347819
-0.0347692
-0.0347563
-0.0347431
-0.0347296
-0.0347158
-0.0347017
-0.0346873
-0.0346727
-0.0346577
-0.0346424
-0.0346268
-0.0346109
-0.0345946
-0.0345781
-0.0345612
-0.034544
-0.0345264
-0.0345085
-0.0344902
-0.0344716
-0.0344525
-0.0344332
-0.0344134
-0.0343932
-0.0343726
-0.0343517
-0.0343303
-0.0343085
-0.0342862
-0.0342636
-0.0342405
-0.034217
-0.0341929
-0.0341685
-0.0341435
-0.0341181
-0.0340921
-0.0340658
-0.0340388
-0.0340114
-0.0339834
-0.0339549
-0.0339258
-0.0338962
-0.033866
-0.0338353
-0.0338039
-0.0337721
-0.0337395
-0.0337064
-0.0336727
-0.0336383
-0.0336033
-0.0335677
-0.0335313
-0.0334944
-0.0334567
-0.0334183
-0.0333793
-0.0333395
-0.033299
-0.0332578
-0.0332158
-0.0331731
-0.0331296
-0.0330853
-0.0330402
-0.0329943
-0.0329476
-0.0329001
-0.0328518
-0.0328025
-0.0327525
-0.0327015
-0.0326497
-0.0325969
-0.0325433
-0.0324887
-0.0324331
-0.0323766
-0.0323191
-0.0322606
-0.0322003
-0.0321383
-0.0320847
-0.0349974
-0.0350051
-0.0350089
-0.0350113
-0.0350124
-0.0350125
-0.0350115
-0.0350097
-0.0350071
-0.0350037
-0.0349997
-0.0349951
-0.03499
-0.0349843
-0.0349782
-0.0349717
-0.0349648
-0.0349575
-0.0349498
-0.0349418
-0.0349334
-0.0349248
-0.0349158
-0.0349065
-0.034897
-0.0348871
-0.034877
-0.0348666
-0.0348559
-0.0348449
-0.0348337
-0.0348222
-0.0348104
-0.0347984
-0.0347861
-0.0347735
-0.0347606
-0.0347474
-0.034734
-0.0347203
-0.0347063
-0.034692
-0.0346774
-0.0346625
-0.0346473
-0.0346318
-0.034616
-0.0345999
-0.0345834
-0.0345666
-0.0345495
-0.034532
-0.0345142
-0.034496
-0.0344775
-0.0344586
-0.0344394
-0.0344197
-0.0343997
-0.0343792
-0.0343584
-0.0343372
-0.0343155
-0.0342934
-0.0342709
-0.034248
-0.0342246
-0.0342008
-0.0341764
-0.0341517
-0.0341264
-0.0341007
-0.0340744
-0.0340477
-0.0340204
-0.0339926
-0.0339643
-0.0339354
-0.033906
-0.033876
-0.0338455
-0.0338144
-0.0337826
-0.0337503
-0.0337174
-0.0336839
-0.0336498
-0.033615
-0.0335796
-0.0335435
-0.0335067
-0.0334693
-0.0334312
-0.0333924
-0.0333529
-0.0333127
-0.0332717
-0.03323
-0.0331876
-0.0331444
-0.0331004
-0.0330556
-0.03301
-0.0329636
-0.0329165
-0.0328684
-0.0328195
-0.0327698
-0.0327192
-0.0326677
-0.0326153
-0.032562
-0.0325078
-0.0324527
-0.0323966
-0.0323395
-0.0322814
-0.0322216
-0.0321602
-0.0321071
-0.0350013
-0.0350094
-0.0350136
-0.0350161
-0.0350174
-0.0350175
-0.0350165
-0.0350147
-0.035012
-0.0350086
-0.0350046
-0.0349999
-0.0349947
-0.034989
-0.0349828
-0.0349762
-0.0349692
-0.0349618
-0.0349541
-0.0349461
-0.0349377
-0.034929
-0.03492
-0.0349108
-0.0349012
-0.0348914
-0.0348813
-0.0348709
-0.0348602
-0.0348493
-0.0348381
-0.0348266
-0.0348149
-0.0348029
-0.0347906
-0.0347781
-0.0347653
-0.0347522
-0.0347388
-0.0347252
-0.0347113
-0.0346971
-0.0346825
-0.0346678
-0.0346526
-0.0346373
-0.0346215
-0.0346055
-0.0345891
-0.0345725
-0.0345554
-0.0345381
-0.0345204
-0.0345024
-0.0344839
-0.0344652
-0.034446
-0.0344266
-0.0344066
-0.0343864
-0.0343657
-0.0343446
-0.0343231
-0.0343012
-0.0342788
-0.0342561
-0.0342328
-0.0342092
-0.034185
-0.0341605
-0.0341353
-0.0341098
-0.0340837
-0.0340572
-0.0340301
-0.0340026
-0.0339744
-0.0339458
-0.0339166
-0.0338869
-0.0338565
-0.0338257
-0.0337942
-0.0337621
-0.0337294
-0.0336961
-0.0336622
-0.0336277
-0.0335925
-0.0335567
-0.0335202
-0.033483
-0.0334452
-0.0334067
-0.0333674
-0.0333275
-0.0332868
-0.0332454
-0.0332033
-0.0331604
-0.0331167
-0.0330723
-0.0330271
-0.032981
-0.0329342
-0.0328865
-0.0328381
-0.0327887
-0.0327386
-0.0326875
-0.0326356
-0.0325827
-0.032529
-0.0324743
-0.0324187
-0.0323622
-0.0323046
-0.0322453
-0.0321844
-0.0321318
-0.0350063
-0.0350146
-0.035019
-0.0350217
-0.035023
-0.0350231
-0.0350221
-0.0350202
-0.0350175
-0.035014
-0.0350098
-0.0350051
-0.0349998
-0.034994
-0.0349878
-0.0349811
-0.034974
-0.0349666
-0.0349588
-0.0349508
-0.0349424
-0.0349337
-0.0349247
-0.0349154
-0.0349058
-0.034896
-0.0348859
-0.0348755
-0.0348649
-0.034854
-0.0348428
-0.0348314
-0.0348197
-0.0348078
-0.0347956
-0.0347831
-0.0347703
-0.0347573
-0.0347441
-0.0347305
-0.0347166
-0.0347025
-0.0346881
-0.0346734
-0.0346584
-0.0346431
-0.0346275
-0.0346116
-0.0345953
-0.0345788
-0.0345619
-0.0345446
-0.0345271
-0.0345092
-0.0344909
-0.0344723
-0.0344533
-0.0344339
-0.0344142
-0.034394
-0.0343735
-0.0343526
-0.0343312
-0.0343095
-0.0342873
-0.0342647
-0.0342417
-0.0342182
-0.0341943
-0.0341698
-0.034145
-0.0341196
-0.0340938
-0.0340674
-0.0340406
-0.0340132
-0.0339853
-0.0339569
-0.033928
-0.0338984
-0.0338683
-0.0338377
-0.0338064
-0.0337746
-0.0337422
-0.0337091
-0.0336755
-0.0336412
-0.0336063
-0.0335708
-0.0335346
-0.0334977
-0.0334602
-0.033422
-0.0333831
-0.0333435
-0.0333032
-0.0332621
-0.0332203
-0.0331778
-0.0331345
-0.0330905
-0.0330456
-0.033
-0.0329536
-0.0329063
-0.0328583
-0.0328094
-0.0327596
-0.032709
-0.0326575
-0.0326051
-0.0325519
-0.0324977
-0.0324426
-0.0323865
-0.0323295
-0.0322707
-0.0322104
-0.0321585
-0.0350126
-0.0350208
-0.0350253
-0.035028
-0.0350293
-0.0350293
-0.0350283
-0.0350263
-0.0350234
-0.0350198
-0.0350156
-0.0350107
-0.0350053
-0.0349994
-0.0349931
-0.0349864
-0.0349792
-0.0349717
-0.0349639
-0.0349558
-0.0349473
-0.0349386
-0.0349296
-0.0349203
-0.0349108
-0.0349009
-0.0348908
-0.0348805
-0.0348699
-0.034859
-0.0348479
-0.0348365
-0.0348249
-0.034813
-0.0348009
-0.0347884
-0.0347758
-0.0347628
-0.0347497
-0.0347362
-0.0347224
-0.0347084
-0.0346941
-0.0346794
-0.0346646
-0.0346493
-0.0346339
-0.034618
-0.0346019
-0.0345855
-0.0345687
-0.0345516
-0.0345342
-0.0345164
-0.0344983
-0.0344798
-0.034461
-0.0344417
-0.0344222
-0.0344022
-0.0343819
-0.0343611
-0.03434
-0.0343184
-0.0342964
-0.034274
-0.0342511
-0.0342278
-0.0342041
-0.0341799
-0.0341553
-0.0341301
-0.0341045
-0.0340784
-0.0340518
-0.0340247
-0.033997
-0.0339688
-0.0339402
-0.0339109
-0.0338811
-0.0338506
-0.0338197
-0.0337881
-0.033756
-0.0337232
-0.0336899
-0.0336559
-0.0336213
-0.0335861
-0.0335502
-0.0335137
-0.0334765
-0.0334386
-0.0334001
-0.0333608
-0.0333208
-0.0332801
-0.0332387
-0.0331966
-0.0331537
-0.03311
-0.0330656
-0.0330204
-0.0329744
-0.0329276
-0.03288
-0.0328316
-0.0327823
-0.0327322
-0.0326812
-0.0326294
-0.0325766
-0.032523
-0.0324684
-0.0324129
-0.0323564
-0.0322982
-0.0322386
-0.0321872
-0.0350201
-0.0350279
-0.0350324
-0.0350351
-0.0350362
-0.0350362
-0.035035
-0.0350329
-0.0350299
-0.0350262
-0.0350218
-0.0350168
-0.0350113
-0.0350053
-0.0349988
-0.034992
-0.0349848
-0.0349772
-0.0349693
-0.0349611
-0.0349527
-0.0349439
-0.0349349
-0.0349256
-0.034916
-0.0349062
-0.0348961
-0.0348858
-0.0348752
-0.0348644
-0.0348533
-0.034842
-0.0348304
-0.0348186
-0.0348065
-0.0347942
-0.0347816
-0.0347687
-0.0347556
-0.0347422
-0.0347285
-0.0347146
-0.0347004
-0.0346859
-0.0346711
-0.034656
-0.0346406
-0.034625
-0.034609
-0.0345926
-0.034576
-0.0345591
-0.0345418
-0.0345241
-0.0345062
-0.0344878
-0.0344692
-0.0344501
-0.0344307
-0.0344109
-0.0343907
-0.0343702
-0.0343492
-0.0343278
-0.034306
-0.0342838
-0.0342612
-0.0342381
-0.0342146
-0.0341907
-0.0341662
-0.0341413
-0.0341159
-0.0340901
-0.0340637
-0.0340369
-0.0340095
-0.0339816
-0.0339531
-0.0339241
-0.0338946
-0.0338645
-0.0338338
-0.0338025
-0.0337707
-0.0337382
-0.0337052
-0.0336716
-0.0336373
-0.0336024
-0.0335669
-0.0335307
-0.0334939
-0.0334564
-0.0334182
-0.0333793
-0.0333397
-0.0332995
-0.0332585
-0.0332168
-0.0331743
-0.0331311
-0.0330871
-0.0330424
-0.0329968
-0.0329505
-0.0329034
-0.0328554
-0.0328067
-0.032757
-0.0327066
-0.0326552
-0.032603
-0.0325499
-0.0324959
-0.032441
-0.0323851
-0.0323275
-0.0322685
-0.0322178
-0.0350287
-0.0350359
-0.0350403
-0.0350428
-0.0350439
-0.0350436
-0.0350422
-0.0350399
-0.0350368
-0.0350329
-0.0350284
-0.0350232
-0.0350176
-0.0350115
-0.0350049
-0.034998
-0.0349907
-0.034983
-0.0349751
-0.0349668
-0.0349583
-0.0349495
-0.0349405
-0.0349311
-0.0349216
-0.0349118
-0.0349017
-0.0348914
-0.0348809
-0.0348701
-0.034859
-0.0348478
-0.0348362
-0.0348245
-0.0348125
-0.0348002
-0.0347877
-0.0347749
-0.0347619
-0.0347486
-0.034735
-0.0347212
-0.0347071
-0.0346927
-0.034678
-0.0346631
-0.0346478
-0.0346323
-0.0346164
-0.0346002
-0.0345837
-0.0345669
-0.0345498
-0.0345323
-0.0345145
-0.0344964
-0.0344778
-0.034459
-0.0344397
-0.0344202
-0.0344001
-0.0343798
-0.034359
-0.0343379
-0.0343163
-0.0342943
-0.0342719
-0.0342491
-0.0342258
-0.0342021
-0.0341779
-0.0341532
-0.0341281
-0.0341025
-0.0340764
-0.0340498
-0.0340227
-0.0339951
-0.0339669
-0.0339382
-0.0339089
-0.0338791
-0.0338487
-0.0338178
-0.0337863
-0.0337542
-0.0337215
-0.0336882
-0.0336543
-0.0336197
-0.0335846
-0.0335488
-0.0335123
-0.0334752
-0.0334374
-0.033399
-0.0333598
-0.03332
-0.0332794
-0.0332381
-0.0331961
-0.0331534
-0.0331098
-0.0330656
-0.0330205
-0.0329747
-0.0329281
-0.0328807
-0.0328324
-0.0327834
-0.0327335
-0.0326827
-0.0326311
-0.0325786
-0.0325252
-0.0324709
-0.0324156
-0.0323586
-0.0323003
-0.0322502
-0.0350386
-0.0350449
-0.035049
-0.0350513
-0.0350521
-0.0350516
-0.03505
-0.0350475
-0.0350441
-0.0350401
-0.0350353
-0.0350301
-0.0350243
-0.035018
-0.0350113
-0.0350043
-0.0349969
-0.0349891
-0.0349811
-0.0349728
-0.0349642
-0.0349554
-0.0349463
-0.034937
-0.0349274
-0.0349176
-0.0349076
-0.0348973
-0.0348868
-0.0348761
-0.0348651
-0.0348539
-0.0348424
-0.0348307
-0.0348187
-0.0348066
-0.0347941
-0.0347815
-0.0347685
-0.0347553
-0.0347419
-0.0347281
-0.0347141
-0.0346999
-0.0346853
-0.0346705
-0.0346554
-0.03464
-0.0346242
-0.0346082
-0.0345919
-0.0345752
-0.0345583
-0.034541
-0.0345233
-0.0345053
-0.034487
-0.0344683
-0.0344493
-0.0344299
-0.0344101
-0.03439
-0.0343694
-0.0343485
-0.0343271
-0.0343054
-0.0342832
-0.0342606
-0.0342376
-0.0342141
-0.0341902
-0.0341658
-0.034141
-0.0341156
-0.0340898
-0.0340635
-0.0340367
-0.0340093
-0.0339815
-0.033953
-0.0339241
-0.0338946
-0.0338646
-0.033834
-0.0338028
-0.033771
-0.0337387
-0.0337058
-0.0336722
-0.0336381
-0.0336033
-0.0335679
-0.0335319
-0.0334952
-0.0334578
-0.0334198
-0.0333811
-0.0333417
-0.0333016
-0.0332608
-0.0332192
-0.033177
-0.033134
-0.0330902
-0.0330457
-0.0330004
-0.0329543
-0.0329074
-0.0328597
-0.0328112
-0.0327619
-0.0327117
-0.0326606
-0.0326087
-0.0325559
-0.0325023
-0.0324476
-0.0323913
-0.0323337
-0.0322843
-0.0350495
-0.0350547
-0.0350585
-0.0350605
-0.0350609
-0.0350601
-0.0350583
-0.0350555
-0.0350519
-0.0350476
-0.0350427
-0.0350372
-0.0350313
-0.0350249
-0.035018
-0.0350109
-0.0350034
-0.0349955
-0.0349874
-0.0349791
-0.0349704
-0.0349616
-0.0349525
-0.0349431
-0.0349336
-0.0349238
-0.0349138
-0.0349035
-0.034893
-0.0348823
-0.0348714
-0.0348602
-0.0348488
-0.0348372
-0.0348254
-0.0348132
-0.0348009
-0.0347883
-0.0347755
-0.0347624
-0.0347491
-0.0347354
-0.0347216
-0.0347074
-0.034693
-0.0346783
-0.0346633
-0.0346481
-0.0346325
-0.0346166
-0.0346005
-0.034584
-0.0345672
-0.03455
-0.0345326
-0.0345148
-0.0344967
-0.0344782
-0.0344594
-0.0344402
-0.0344207
-0.0344007
-0.0343804
-0.0343597
-0.0343386
-0.0343171
-0.0342952
-0.0342728
-0.0342501
-0.0342268
-0.0342032
-0.0341791
-0.0341545
-0.0341295
-0.034104
-0.0340779
-0.0340514
-0.0340244
-0.0339969
-0.0339688
-0.0339402
-0.033911
-0.0338814
-0.0338511
-0.0338203
-0.0337889
-0.0337569
-0.0337244
-0.0336912
-0.0336575
-0.0336231
-0.0335881
-0.0335525
-0.0335162
-0.0334793
-0.0334418
-0.0334035
-0.0333646
-0.033325
-0.0332846
-0.0332436
-0.0332018
-0.0331594
-0.0331161
-0.0330722
-0.0330274
-0.0329819
-0.0329356
-0.0328885
-0.0328405
-0.0327918
-0.0327422
-0.0326918
-0.0326406
-0.0325884
-0.0325354
-0.0324814
-0.0324258
-0.0323689
-0.0323202
-0.0350615
-0.0350653
-0.0350687
-0.0350702
-0.0350703
-0.0350692
-0.035067
-0.035064
-0.0350601
-0.0350556
-0.0350504
-0.0350447
-0.0350386
-0.035032
-0.0350251
-0.0350178
-0.0350101
-0.0350022
-0.034994
-0.0349856
-0.0349769
-0.034968
-0.0349589
-0.0349495
-0.03494
-0.0349302
-0.0349202
-0.03491
-0.0348995
-0.0348889
-0.034878
-0.0348669
-0.0348556
-0.034844
-0.0348322
-0.0348202
-0.034808
-0.0347955
-0.0347828
-0.0347698
-0.0347566
-0.0347431
-0.0347293
-0.0347153
-0.0347011
-0.0346865
-0.0346717
-0.0346566
-0.0346412
-0.0346255
-0.0346095
-0.0345932
-0.0345766
-0.0345596
-0.0345424
-0.0345248
-0.0345069
-0.0344886
-0.03447
-0.034451
-0.0344317
-0.034412
-0.0343919
-0.0343715
-0.0343506
-0.0343294
-0.0343077
-0.0342857
-0.0342632
-0.0342402
-0.0342169
-0.034193
-0.0341688
-0.034144
-0.0341188
-0.0340931
-0.0340669
-0.0340402
-0.034013
-0.0339853
-0.033957
-0.0339283
-0.0338989
-0.0338691
-0.0338386
-0.0338077
-0.0337761
-0.033744
-0.0337112
-0.0336779
-0.0336439
-0.0336094
-0.0335742
-0.0335384
-0.033502
-0.0334649
-0.0334271
-0.0333887
-0.0333496
-0.0333098
-0.0332693
-0.033228
-0.0331861
-0.0331434
-0.0331
-0.0330558
-0.0330109
-0.0329652
-0.0329186
-0.0328713
-0.0328232
-0.0327743
-0.0327245
-0.0326739
-0.0326224
-0.0325701
-0.0325168
-0.0324619
-0.0324057
-0.0323578
-0.0350744
-0.0350767
-0.0350795
-0.0350806
-0.0350803
-0.0350787
-0.0350762
-0.0350728
-0.0350687
-0.0350638
-0.0350585
-0.0350526
-0.0350462
-0.0350395
-0.0350324
-0.0350249
-0.0350172
-0.0350092
-0.0350009
-0.0349924
-0.0349837
-0.0349747
-0.0349656
-0.0349562
-0.0349466
-0.0349369
-0.0349269
-0.0349167
-0.0349063
-0.0348957
-0.0348849
-0.0348738
-0.0348626
-0.0348511
-0.0348394
-0.0348275
-0.0348154
-0.034803
-0.0347904
-0.0347775
-0.0347644
-0.0347511
-0.0347374
-0.0347236
-0.0347095
-0.0346951
-0.0346804
-0.0346655
-0.0346502
-0.0346347
-0.0346189
-0.0346028
-0.0345864
-0.0345697
-0.0345526
-0.0345352
-0.0345175
-0.0344995
-0.0344811
-0.0344624
-0.0344433
-0.0344239
-0.034404
-0.0343838
-0.0343632
-0.0343423
-0.0343209
-0.0342991
-0.0342769
-0.0342543
-0.0342312
-0.0342077
-0.0341837
-0.0341593
-0.0341344
-0.034109
-0.0340832
-0.0340568
-0.03403
-0.0340027
-0.0339747
-0.0339464
-0.0339174
-0.033888
-0.0338579
-0.0338274
-0.0337962
-0.0337645
-0.0337322
-0.0336993
-0.0336658
-0.0336317
-0.033597
-0.0335617
-0.0335257
-0.0334891
-0.0334518
-0.0334139
-0.0333753
-0.033336
-0.033296
-0.0332554
-0.033214
-0.0331719
-0.033129
-0.0330854
-0.0330411
-0.032996
-0.0329501
-0.0329035
-0.032856
-0.0328077
-0.0327586
-0.0327087
-0.0326579
-0.0326063
-0.0325537
-0.0324995
-0.0324442
-0.032397
-0.0350881
-0.0350888
-0.035091
-0.0350915
-0.0350907
-0.0350887
-0.0350858
-0.035082
-0.0350776
-0.0350725
-0.0350668
-0.0350607
-0.0350541
-0.0350472
-0.0350399
-0.0350324
-0.0350245
-0.0350164
-0.035008
-0.0349994
-0.0349906
-0.0349817
-0.0349725
-0.0349631
-0.0349535
-0.0349438
-0.0349338
-0.0349237
-0.0349133
-0.0349027
-0.034892
-0.034881
-0.0348699
-0.0348585
-0.0348469
-0.0348351
-0.034823
-0.0348108
-0.0347983
-0.0347856
-0.0347726
-0.0347594
-0.0347459
-0.0347322
-0.0347182
-0.034704
-0.0346895
-0.0346747
-0.0346597
-0.0346444
-0.0346287
-0.0346128
-0.0345966
-0.0345801
-0.0345633
-0.0345461
-0.0345287
-0.0345109
-0.0344927
-0.0344742
-0.0344554
-0.0344362
-0.0344167
-0.0343967
-0.0343764
-0.0343557
-0.0343347
-0.0343132
-0.0342913
-0.0342689
-0.0342462
-0.034223
-0.0341993
-0.0341752
-0.0341507
-0.0341257
-0.0341002
-0.0340742
-0.0340477
-0.0340207
-0.0339933
-0.0339652
-0.0339367
-0.0339076
-0.0338781
-0.0338479
-0.0338172
-0.0337859
-0.033754
-0.0337216
-0.0336885
-0.0336549
-0.0336207
-0.0335858
-0.0335504
-0.0335142
-0.0334775
-0.0334401
-0.0334021
-0.0333633
-0.0333239
-0.0332838
-0.0332431
-0.0332015
-0.0331593
-0.0331163
-0.0330726
-0.0330282
-0.0329829
-0.0329369
-0.0328901
-0.0328425
-0.0327941
-0.0327449
-0.0326949
-0.032644
-0.0325921
-0.0325387
-0.0324842
-0.0324378
-0.0351026
-0.0351014
-0.035103
-0.0351029
-0.0351015
-0.0350991
-0.0350957
-0.0350916
-0.0350868
-0.0350814
-0.0350754
-0.0350691
-0.0350623
-0.0350552
-0.0350477
-0.03504
-0.035032
-0.0350238
-0.0350154
-0.0350067
-0.0349978
-0.0349888
-0.0349796
-0.0349702
-0.0349606
-0.0349509
-0.034941
-0.0349309
-0.0349206
-0.0349101
-0.0348994
-0.0348885
-0.0348774
-0.0348661
-0.0348546
-0.0348429
-0.034831
-0.0348188
-0.0348065
-0.0347939
-0.0347811
-0.034768
-0.0347547
-0.0347411
-0.0347274
-0.0347133
-0.034699
-0.0346844
-0.0346696
-0.0346544
-0.034639
-0.0346233
-0.0346073
-0.034591
-0.0345744
-0.0345575
-0.0345403
-0.0345227
-0.0345049
-0.0344866
-0.0344681
-0.0344491
-0.0344299
-0.0344102
-0.0343902
-0.0343698
-0.034349
-0.0343278
-0.0343062
-0.0342842
-0.0342618
-0.0342389
-0.0342156
-0.0341919
-0.0341677
-0.034143
-0.0341179
-0.0340923
-0.0340662
-0.0340396
-0.0340126
-0.0339849
-0.0339569
-0.0339282
-0.033899
-0.0338693
-0.033839
-0.0338082
-0.0337768
-0.0337448
-0.0337123
-0.0336791
-0.0336454
-0.033611
-0.0335761
-0.0335405
-0.0335043
-0.0334675
-0.03343
-0.0333918
-0.033353
-0.0333135
-0.0332733
-0.0332324
-0.0331908
-0.0331485
-0.0331054
-0.0330616
-0.0330171
-0.0329718
-0.0329257
-0.0328788
-0.0328311
-0.0327826
-0.0327333
-0.0326832
-0.0326321
-0.0325795
-0.0325258
-0.0324802
-0.0351177
-0.0351146
-0.0351155
-0.0351148
-0.0351128
-0.0351098
-0.035106
-0.0351014
-0.0350963
-0.0350905
-0.0350843
-0.0350777
-0.0350707
-0.0350634
-0.0350558
-0.0350479
-0.0350398
-0.0350314
-0.0350229
-0.0350142
-0.0350053
-0.0349962
-0.0349869
-0.0349775
-0.034968
-0.0349582
-0.0349484
-0.0349383
-0.034928
-0.0349176
-0.034907
-0.0348962
-0.0348852
-0.034874
-0.0348626
-0.034851
-0.0348392
-0.0348272
-0.034815
-0.0348025
-0.0347899
-0.034777
-0.0347638
-0.0347505
-0.0347368
-0.034723
-0.0347088
-0.0346944
-0.0346798
-0.0346649
-0.0346497
-0.0346342
-0.0346184
-0.0346024
-0.034586
-0.0345693
-0.0345524
-0.0345351
-0.0345175
-0.0344995
-0.0344812
-0.0344626
-0.0344436
-0.0344242
-0.0344045
-0.0343844
-0.0343639
-0.0343431
-0.0343218
-0.0343001
-0.034278
-0.0342555
-0.0342325
-0.0342092
-0.0341853
-0.0341611
-0.0341363
-0.0341111
-0.0340854
-0.0340593
-0.0340326
-0.0340054
-0.0339777
-0.0339496
-0.0339208
-0.0338916
-0.0338617
-0.0338314
-0.0338004
-0.033769
-0.0337369
-0.0337043
-0.0336711
-0.0336373
-0.0336028
-0.0335678
-0.0335322
-0.0334959
-0.033459
-0.0334214
-0.0333832
-0.0333443
-0.0333048
-0.0332645
-0.0332236
-0.0331819
-0.0331395
-0.0330964
-0.0330525
-0.0330079
-0.0329626
-0.0329164
-0.0328695
-0.0328217
-0.0327732
-0.0327238
-0.0326735
-0.0326217
-0.0325689
-0.0325242
-0.0351332
-0.0351282
-0.0351284
-0.035127
-0.0351244
-0.0351209
-0.0351166
-0.0351116
-0.035106
-0.0350999
-0.0350934
-0.0350865
-0.0350793
-0.0350718
-0.035064
-0.0350559
-0.0350477
-0.0350393
-0.0350306
-0.0350218
-0.0350129
-0.0350037
-0.0349945
-0.0349851
-0.0349755
-0.0349658
-0.0349559
-0.0349459
-0.0349357
-0.0349254
-0.0349148
-0.0349041
-0.0348932
-0.0348822
-0.0348709
-0.0348594
-0.0348477
-0.0348359
-0.0348238
-0.0348115
-0.034799
-0.0347863
-0.0347733
-0.0347601
-0.0347466
-0.034733
-0.034719
-0.0347049
-0.0346904
-0.0346757
-0.0346607
-0.0346455