/*--------------------------------*- C++ -*----------------------------------*\
  =========                 |
  \\      /  F ield         | OpenFOAM: The Open Source CFD Toolbox
   \\    /   O peration     | Website:  https://openfoam.org
    \\  /    A nd           | Version:  10
     \\/     M anipulation  |
\*---------------------------------------------------------------------------*/
FoamFile
{
    format      ascii;
    class       volScalarField;
    location    "0.002";
    object      p;
}
// * * * * * * * * * * * * * * * * * * * * * * * * * * * * * * * * * * * * * //

dimensions      [1 -1 -2 0 0 0 0];

internalField   nonuniform List<scalar> 
8910
(
99640.3
99638.5
99636.6
99634.8
99633
99631.2
99629.6
99627.9
99626.3
99624.8
99623.4
99622.3
99621.2
99620.4
99619.8
99619.4
99619.7
99619.9
99621.2
99622.6
99625
99628.5
99632.4
99638.6
99645.5
99656
99668.7
99687.3
99709.5
99736.1
99769.8
99809.8
99854.1
99906.5
99983.2
100018
99640.3
99638.5
99636.6
99634.8
99633.1
99631.3
99629.7
99627.9
99626.4
99625
99623.5
99622.5
99621.3
99620.7
99620.1
99619.8
99620.2
99620.5
99622
99623.6
99626.2
99629.9
99634.2
99640.8
99648.2
99659.5
99673.2
99693
99716.2
99744.4
99779.2
99819.9
99864.6
99917.5
99988.9
100026
99640.4
99638.6
99636.7
99635
99633.2
99631.5
99629.9
99628.2
99626.7
99625.3
99624
99623
99622
99621.4
99620.9
99620.8
99621.4
99621.9
99623.6
99625.5
99628.5
99632.7
99637.6
99644.8
99653.3
99665.4
99680.3
99700.9
99724.3
99753.9
99789.4
99830.3
99875.3
99928.7
99994.2
100034
99640.5
99638.8
99636.9
99635.2
99633.4
99631.7
99630.2
99628.6
99627.2
99625.8
99624.6
99623.6
99622.8
99622.3
99622
99622.1
99622.8
99623.6
99625.6
99627.9
99631.3
99635.9
99641.5
99649.4
99658.7
99671.7
99687.9
99709.5
99734
99764.4
99800.2
99841.3
99886.1
99939.3
99999.7
100041
99640.7
99638.9
99637.1
99635.4
99633.7
99632.1
99630.5
99629
99627.7
99626.4
99625.3
99624.4
99623.7
99623.4
99623.2
99623.5
99624.5
99625.6
99627.9
99630.5
99634.5
99639.6
99645.9
99654.5
99664.8
99678.9
99696.3
99718.8
99744.4
99775.3
99811.2
99852.4
99897.1
99949.5
100006
100047
99640.9
99639.2
99637.4
99635.7
99634.1
99632.5
99631
99629.5
99628.3
99627.1
99626.1
99625.3
99624.7
99624.6
99624.7
99625.2
99626.4
99627.9
99630.5
99633.6
99638.1
99643.7
99650.8
99660.4
99671.9
99687.1
99705.5
99728.5
99754.8
99786.4
99822.7
99863.9
99908.3
99959.5
100012
100054
99641.1
99639.4
99637.7
99636.1
99634.5
99632.9
99631.5
99630.1
99629
99627.9
99627
99626.4
99626
99626.1
99626.3
99627.2
99628.6
99630.5
99633.5
99637.1
99642.2
99648.6
99656.6
99667.1
99679.6
99695.5
99714.9
99738.7
99765.9
99798.1
99834.6
99875.6
99919.5
99969.1
100018
100060
99643.2
99641.5
99639.8
99638.1
99636.5
99635
99633.5
99632.2
99630.9
99629.8
99628.9
99628.2
99627.7
99627.5
99627.8
99628.3
99629.4
99631.2
99633.5
99637
99641.3
99647
99654.2
99663.1
99674.2
99687.6
99704.6
99725
99749.6
99777.6
99810.3
99846.8
99887.5
99930.7
99978.4
100024
100065
99643.5
99641.8
99640.2
99638.6
99637.1
99635.6
99634.2
99633
99631.8
99630.9
99630.1
99629.5
99629.3
99629.2
99629.7
99630.6
99632
99634.2
99637
99641.1
99646
99652.5
99660.3
99669.9
99681.9
99696.3
99714.3
99735.8
99761.2
99789.9
99822.9
99859.3
99899.5
99941.6
99987.4
100030
100070
99644
99642.3
99640.7
99639.2
99637.7
99636.4
99635.1
99633.9
99632.9
99632.1
99631.4
99631.1
99631
99631.2
99632
99633.1
99635
99637.7
99641.1
99645.8
99651.3
99658.3
99666.8
99677.3
99690.2
99705.8
99724.8
99747.2
99773.3
99802.6
99835.7
99872
99911.4
99952.3
99996
100036
100075
99644.4
99642.9
99641.4
99639.9
99638.5
99637.2
99636.1
99635
99634.1
99633.5
99633
99632.8
99633
99633.5
99634.6
99636.2
99638.6
99641.8
99645.7
99650.8
99656.9
99664.6
99673.9
99685.4
99699.3
99716
99736
99759.3
99785.9
99815.7
99848.8
99884.8
99923.2
99962.8
100004
100042
100079
99645
99643.5
99642.1
99640.7
99639.4
99638.2
99637.2
99636.3
99635.5
99635.1
99634.8
99634.8
99635.3
99636.2
99637.7
99639.8
99642.6
99646.1
99650.6
99656.2
99663
99671.6
99681.8
99694.3
99709.2
99727
99747.9
99771.9
99799.1
99829.1
99862
99897.6
99934.9
99972.9
100012
100047
100083
99645.7
99644.3
99642.9
99641.6
99640.5
99639.4
99638.5
99637.7
99637.2
99636.9
99636.9
99637.3
99638.1
99639.4
99641.2
99643.7
99646.9
99650.9
99655.9
99662.3
99669.9
99679.2
99690.4
99703.9
99719.9
99738.7
99760.4
99785.2
99812.7
99842.8
99875.3
99910.3
99946.2
99982.6
100019
100052
100087
99648
99646.5
99645.2
99643.9
99642.7
99641.7
99640.7
99640
99639.4
99639.1
99639
99639.3
99640.1
99641.2
99642.8
99645
99647.9
99651.6
99656.2
99661.9
99668.9
99677.4
99687.7
99699.8
99714.4
99731.3
99751.1
99773.6
99798.9
99826.6
99856.6
99888.7
99922.7
99957.2
99991.8
100026
100057
100090
99648.8
99647.5
99646.2
99645
99644
99643
99642.3
99641.7
99641.4
99641.3
99641.6
99642.2
99643.2
99644.6
99646.6
99649.2
99652.6
99656.9
99662.1
99668.5
99676.4
99685.7
99696.9
99710.1
99725.7
99743.6
99764.3
99787.4
99813.1
99840.8
99870.5
99902.1
99934.9
99967.8
100001
100033
100062
100092
99649.8
99648.5
99647.4
99646.3
99645.4
99644.7
99644.1
99643.8
99643.7
99643.9
99644.4
99645.3
99646.6
99648.4
99650.8
99653.9
99657.8
99662.7
99668.7
99675.9
99684.6
99694.9
99707
99721.2
99737.8
99756.6
99778.1
99801.7
99827.6
99855.1
99884.4
99915.3
99946.7
99978
100009
100039
100066
100095
99650.9
99649.7
99648.7
99647.9
99647.1
99646.6
99646.3
99646.2
99646.3
99646.7
99647.5
99648.7
99650.4
99652.6
99655.5
99659.2
99663.7
99669.3
99676
99684.1
99693.6
99704.9
99718
99733.2
99750.8
99770.4
99792.5
99816.5
99842.3
99869.5
99898.3
99928.3
99958.1
99987.7
100017
100045
100070
100096
99653.2
99652.2
99651.2
99650.3
99649.7
99649.2
99648.8
99648.7
99648.8
99649.2
99649.9
99651
99652.5
99654.7
99657.4
99660.8
99665.1
99670.3
99676.6
99684.1
99693.1
99703.5
99715.8
99729.9
99746.1
99764.5
99784.9
99807.4
99831.5
99857.3
99884
99912
99940.6
99968.9
99996.6
100024
100050
100073
100098
99654.7
99653.7
99652.9
99652.3
99651.8
99651.4
99651.3
99651.3
99651.7
99652.4
99653.4
99654.9
99656.9
99659.5
99662.7
99666.7
99671.7
99677.6
99684.7
99693.1
99703
99714.4
99727.7
99742.8
99759.9
99779
99799.9
99822.8
99847
99872.2
99898.1
99925.4
99952.4
99979.1
100005
100030
100054
100076
100099
99656.3
99655.6
99654.9
99654.4
99654.1
99653.9
99654
99654.3
99655
99656
99657.4
99659.3
99661.8
99664.9
99668.7
99673.4
99679
99685.8
99693.8
99703.1
99713.9
99726.3
99740.5
99756.5
99774.4
99794.2
99815.5
99838.5
99862.3
99886.9
99912.1
99938.2
99963.7
99988.6
100013
100036
100058
100078
100100
99659
99658.2
99657.6
99657.1
99656.8
99656.6
99656.7
99657
99657.7
99658.7
99660
99661.9
99664.3
99667.3
99671
99675.5
99680.9
99687.3
99694.9
99703.8
99714
99725.8
99739.2
99754.3
99771.1
99789.7
99810
99831.5
99854.3
99877.5
99901.3
99925.7
99950.3
99974.2
99997.4
100020
100041
100062
100080
100100
99660.9
99660.3
99659.9
99659.6
99659.4
99659.5
99659.9
99660.5
99661.5
99662.9
99664.7
99667
99669.9
99673.5
99677.9
99683.1
99689.3
99696.5
99705
99714.8
99726
99738.8
99753
99769
99786.6
99805.8
99826.2
99847.6
99870
99892.5
99915.3
99938.7
99961.7
99984
100006
100026
100046
100065
100082
100100
99663.7
99663.1
99662.7
99662.4
99662.3
99662.4
99662.8
99663.5
99664.5
99665.8
99667.6
99669.9
99672.8
99676.3
99680.5
99685.6
99691.6
99698.6
99706.8
99716.2
99726.9
99739.1
99752.8
99767.9
99784.7
99802.8
99822.1
99842.6
99863.7
99885.4
99907
99928.9
99950.9
99972.4
99993
100013
100032
100050
100067
100083
100100
99666
99665.6
99665.4
99665.3
99665.5
99665.9
99666.6
99667.6
99669
99670.8
99673.1
99675.9
99679.4
99683.5
99688.5
99694.3
99701.2
99709.1
99718.1
99728.4
99740.1
99753.2
99767.8
99783.7
99801
99819.3
99838.8
99859
99879.6
99900.5
99920.9
99941.9
99962.3
99982.2
100001
100019
100037
100053
100069
100084
100099
99668.6
99668.4
99668.4
99668.6
99669.1
99669.8
99670.9
99672.3
99674.1
99676.4
99679.3
99682.7
99686.8
99691.7
99697.4
99704.1
99711.8
99720.6
99730.6
99741.8
99754.5
99768.4
99783.8
99800.2
99817.8
99836.2
99855.5
99875.2
99895
99914.9
99934.4
99954
99972.8
99991.1
100009
100025
100041
100056
100071
100084
100098
99671.6
99671.5
99671.6
99671.9
99672.4
99673.2
99674.3
99675.8
99677.6
99680
99682.8
99686.3
99690.4
99695.3
99700.9
99707.5
99715
99723.6
99733.4
99744.2
99756.4
99769.9
99784.6
99800.5
99817.2
99834.9
99853.2
99872
99891
99909.9
99928.6
99947.1
99965.1
99982.4
99999.2
100015
100030
100045
100059
100072
100084
100097
99674.8
99674.8
99674.9
99675.3
99675.8
99676.7
99677.9
99679.4
99681.4
99683.8
99686.7
99690.2
99694.3
99699.1
99704.8
99711.2
99718.7
99727.1
99736.6
99747.3
99759.1
99772.2
99786.4
99801.5
99817.7
99834.5
99852.1
99870
99888.2
99906.2
99924
99941.7
99958.7
99975.2
99991.1
100006
100021
100035
100048
100060
100073
100084
100095
99678.2
99678.4
99678.8
99679.5
99680.4
99681.7
99683.3
99685.3
99687.8
99690.8
99694.3
99698.5
99703.4
99709
99715.4
99722.8
99731.1
99740.5
99750.9
99762.5
99775.1
99788.8
99803.5
99818.9
99835.2
99851.9
99869.1
99886.3
99903.7
99920.7
99937.3
99953.8
99969.3
99984.3
99998.8
100013
100026
100038
100050
100062
100073
100083
100094
99681.7
99682
99682.5
99683.3
99684.3
99685.7
99687.4
99689.5
99692.1
99695.2
99698.8
99703
99707.9
99713.6
99720.1
99727.4
99735.6
99744.8
99755.1
99766.4
99778.8
99792
99806.2
99821.1
99836.7
99852.8
99869.1
99885.7
99902
99918.4
99934.2
99949.8
99964.8
99978.9
99992.5
100006
100018
100030
100041
100052
100063
100073
100082
100092
99685.8
99686.4
99687.3
99688.4
99689.9
99691.7
99694
99696.7
99699.8
99703.6
99707.9
99712.9
99718.6
99725.1
99732.4
99740.6
99749.7
99759.8
99771
99783
99795.9
99809.5
99824
99839
99854.4
99870.1
99885.8
99901.6
99916.9
99932.1
99946.9
99961.1
99974.6
99987.3
99999.6
100011
100023
100033
100044
100054
100063
100072
100081
100090
99689.7
99690.5
99691.5
99692.8
99694.4
99696.4
99698.7
99701.5
99704.8
99708.7
99713.1
99718.2
99724
99730.6
99737.9
99746.1
99755.2
99765.2
99776.2
99787.9
99800.5
99813.8
99827.6
99842
99856.8
99871.8
99886.9
99901.7
99916.5
99930.7
99944.8
99958.4
99971.2
99983.4
99994.8
100006
100016
100027
100036
100046
100055
100063
100071
100079
100087
99693.9
99694.8
99695.9
99697.4
99699.1
99701.2
99703.8
99706.7
99710.2
99714.2
99718.8
99724
99729.9
99736.5
99743.8
99752.1
99761.1
99771.1
99781.8
99793.4
99805.6
99818.5
99831.9
99845.7
99859.9
99874.2
99888.6
99902.8
99916.7
99930.4
99943.5
99956.4
99968.6
99980.1
99991.1
100001
100011
100021
100030
100039
100047
100055
100063
100070
100077
100085
99698.3
99699.3
99700.6
99702.2
99704.1
99706.4
99709.1
99712.2
99715.9
99720
99724.8
99730.1
99736.1
99742.8
99750.3
99758.5
99767.7
99777.5
99788.1
99799.3
99811.3
99823.8
99836.8
99850.1
99863.6
99877.3
99890.9
99904.5
99917.8
99930.5
99943.1
99955.2
99966.8
99977.6
99987.9
99997.7
100007
100016
100024
100032
100040
100048
100055
100062
100069
100075
100082
99703
99704.2
99705.6
99707.4
99709.5
99711.9
99714.8
99718.1
99722
99726.3
99731.2
99736.7
99742.9
99749.7
99757.2
99765.5
99774.7
99784.4
99794.9
99805.9
99817.5
99829.7
99842.2
99855
99868
99880.9
99894
99906.7
99919.3
99931.5
99943.2
99954.7
99965.5
99975.8
99985.5
99994.7
100003
100011
100019
100027
100034
100041
100048
100055
100061
100067
100073
100080
99709.3
99710.9
99712.9
99715.2
99717.8
99720.9
99724.4
99728.4
99733
99738.1
99743.8
99750
99757
99764.7
99773.1
99782.1
99791.8
99802.1
99812.9
99824.3
99835.9
99848.1
99860.3
99872.7
99885.2
99897.4
99909.6
99921.3
99932.9
99944
99954.7
99964.9
99974.5
99983.7
99992.3
100000
100008
100015
100022
100029
100036
100042
100048
100054
100060
100066
100071
100077
99714.8
99716.6
99718.7
99721.2
99724.1
99727.4
99731.2
99735.4
99740.1
99745.4
99751.3
99757.7
99764.8
99772.6
99781.1
99790.1
99799.6
99809.8
99820.4
99831.4
99842.8
99854.3
99866.1
99877.9
99889.7
99901.4
99912.7
99923.9
99934.6
99945.1
99955.2
99964.7
99973.8
99982.3
99990.4
99998
100005
100012
100018
100025
100031
100037
100043
100048
100053
100059
100064
100069
100074
99720.6
99722.6
99725
99727.7
99730.8
99734.3
99738.3
99742.8
99747.7
99753.2
99759.2
99765.9
99773.1
99781
99789.5
99798.4
99807.9
99817.8
99828.2
99838.9
99849.8
99861
99872.1
99883.4
99894.5
99905.6
99916.3
99926.7
99936.9
99946.6
99956.1
99965
99973.4
99981.4
99988.9
99996.1
100003
100009
100015
100021
100027
100032
100037
100043
100048
100052
100057
100062
100066
100071
99724.8
99726.8
99729
99731.6
99734.6
99738
99741.7
99745.9
99750.6
99755.8
99761.5
99767.7
99774.5
99781.9
99789.8
99798.3
99807.2
99816.5
99826.2
99836.3
99846.7
99857.2
99867.8
99878.5
99889.1
99899.7
99910
99920.1
99929.9
99939.2
99948.6
99957.2
99965.5
99973.4
99980.8
99987.9
99994.5
100001
100007
100012
100018
100023
100028
100033
100038
100042
100047
100051
100056
100060
100064
100068
99731.2
99733.4
99735.9
99738.8
99742
99745.6
99749.6
99754
99758.9
99764.3
99770.2
99776.6
99783.6
99791.1
99799
99807.4
99816.2
99825.4
99834.9
99844.7
99854.6
99864.7
99874.8
99885
99895.1
99904.9
99914.7
99924
99933.2
99942.1
99950.5
99958.7
99966.4
99973.7
99980.6
99987.1
99993.4
99999.2
100005
100010
100015
100020
100024
100029
100033
100037
100042
100046
100050
100054
100058
100061
100065
99738.1
99740.5
99743.2
99746.3
99749.8
99753.7
99757.9
99762.6
99767.7
99773.3
99779.4
99786
99793.1
99800.6
99808.5
99816.9
99825.5
99834.5
99843.7
99853.1
99862.7
99872.3
99882
99891.5
99901
99910.3
99919.3
99928.2
99936.6
99944.9
99952.8
99960.2
99967.4
99974.2
99980.6
99986.7
99992.4
99997.9
100003
100008
100013
100017
100021
100025
100029
100033
100037
100041
100045
100048
100052
100056
100059
100063
99745.3
99748
99751
99754.4
99758.1
99762.2
99766.7
99771.6
99777
99782.8
99789
99795.8
99802.9
99810.5
99818.3
99826.5
99835
99843.7
99852.7
99861.7
99870.8
99880
99889.1
99898.1
99907
99915.6
99924.1
99932.1
99940.2
99947.8
99955.1
99962
99968.5
99974.9
99980.8
99986.4
99991.8
99996.8
100002
100006
100010
100014
100018
100022
100026
100029
100033
100037
100040
100043
100047
100050
100053
100056
100060
99753.1
99756
99759.3
99762.9
99766.9
99771.3
99776
99781.1
99786.7
99792.7
99799.1
99805.9
99813
99820.5
99828.3
99836.3
99844.6
99853.1
99861.6
99870.3
99878.9
99887.6
99896.2
99904.5
99912.9
99920.9
99928.7
99936.3
99943.6
99950.7
99957.4
99963.8
99969.9
99975.6
99981.1
99986.3
99991.2
99995.9
100000
100005
100009
100012
100016
100019
100023
100026
100029
100033
100036
100039
100042
100045
100048
100051
100054
100057
99758.4
99761.3
99764.6
99768.1
99772
99776.2
99780.8
99785.7
99791
99796.8
99802.9
99809.4
99816.2
99823.3
99830.7
99838.3
99846.2
99854.2
99862.3
99870.5
99878.7
99886.9
99895
99903
99910.9
99918.5
99926.1
99933.3
99940.3
99947.1
99953.5
99959.7
99965.5
99971.2
99976.5
99981.5
99986.4
99990.9
99995.2
99999.3
100003
100007
100010
100014
100017
100020
100023
100026
100029
100032
100035
100038
100041
100043
100046
100049
100051
100054
99766.9
99770.1
99773.5
99777.3
99781.4
99785.9
99790.7
99795.8
99801.3
99807.2
99813.4
99819.9
99826.7
99833.7
99840.9
99848.4
99856
99863.7
99871.4
99879.2
99887
99894.6
99902.3
99909.7
99917
99924.1
99930.9
99937.7
99944.2
99950.4
99956.3
99961.9
99967.4
99972.5
99977.4
99982
99986.4
99990.7
99994.6
99998.4
100002
100005
100009
100012
100015
100018
100020
100023
100026
100029
100031
100034
100037
100039
100042
100044
100047
100049
100052
99772.8
99775.9
99779.3
99783
99787
99791.3
99796
99800.9
99806.2
99811.9
99817.9
99824.1
99830.5
99837.2
99844.1
99851.2
99858.3
99865.6
99872.9
99880.3
99887.6
99894.9
99902.1
99909.1
99916.1
99922.8
99929.4
99935.8
99941.9
99947.9
99953.5
99958.9
99964.1
99969
99973.8
99978.3
99982.5
99986.6
99990.4
99994.2
99997.6
100001
100004
100007
100010
100013
100016
100018
100021
100023
100026
100028
100030
100033
100035
100038
100040
100042
100044
100047
100049
99781.9
99785.3
99788.9
99792.8
99797.1
99801.6
99806.4
99811.5
99816.9
99822.7
99828.6
99834.8
99841.1
99847.7
99854.4
99861.1
99868.1
99875
99881.9
99888.9
99895.7
99902.5
99909.2
99915.8
99922.1
99928.4
99934.4
99940.3
99945.9
99951.3
99956.5
99961.4
99966.2
99970.7
99975
99979.2
99983.1
99986.8
99990.4
99993.7
99997
100000
100003
100006
100008
100011
100014
100016
100018
100020
100023
100025
100027
100030
100032
100034
100036
100038
100040
100042
100044
100047
99788.2
99791.5
99795.1
99798.9
99803
99807.4
99812.1
99817
99822.3
99827.8
99833.4
99839.3
99845.4
99851.6
99858
99864.4
99870.9
99877.4
99884
99890.5
99897.1
99903.4
99909.8
99916
99921.9
99927.9
99933.6
99939.1
99944.5
99949.6
99954.6
99959.3
99963.8
99968.1
99972.3
99976.2
99980
99983.6
99987
99990.3
99993.4
99996.3
99999.2
100002
100005
100007
100009
100012
100014
100016
100018
100020
100022
100024
100027
100028
100030
100032
100034
100036
100038
100040
100042
100044
99794.7
99797.9
99801.4
99805.2
99809.2
99813.5
99818
99822.8
99827.8
99833.1
99838.5
99844.2
99849.9
99855.8
99861.9
99868
99874.1
99880.3
99886.5
99892.6
99898.8
99904.8
99910.7
99916.5
99922.2
99927.8
99933.2
99938.5
99943.5
99948.4
99953.1
99957.6
99961.9
99966
99970
99973.7
99977.3
99980.8
99984
99987.2
99990.2
99993.1
99995.9
99998.4
100001
100003
100006
100008
100010
100012
100014
100016
100018
100020
100022
100024
100026
100027
100029
100031
100033
100035
100036
100038
100040
100042
99804.5
99808
99811.7
99815.6
99819.8
99824.1
99828.7
99833.6
99838.7
99843.9
99849.2
99854.7
99860.3
99866
99871.8
99877.6
99883.4
99889.2
99895
99900.8
99906.4
99912.1
99917.5
99922.9
99928.1
99933.2
99938.2
99942.9
99947.6
99952
99956.3
99960.3
99964.3
99968
99971.6
99975.1
99978.4
99981.5
99984.6
99987.4
99990.2
99992.8
99995.4
99997.8
100000
100002
100004
100007
100009
100010
100012
100014
100016
100018
100019
100021
100023
100025
100026
100028
100030
100031
100033
100035
100036
100038
100039
99811.3
99814.7
99818.3
99822.1
99826.2
99830.4
99834.8
99839.5
99844.3
99849.3
99854.4
99859.6
99865
99870.3
99875.8
99881.3
99886.8
99892.2
99897.7
99903.1
99908.4
99913.7
99918.8
99923.9
99928.7
99933.6
99938.2
99942.7
99947.1
99951.2
99955.3
99959.1
99962.9
99966.4
99969.9
99973.2
99976.3
99979.3
99982.2
99985
99987.6
99990.1
99992.6
99994.9
99997.1
99999.3
100001
100003
100005
100007
100009
100011
100012
100014
100016
100017
100019
100021
100022
100024
100025
100027
100028
100030
100031
100033
100034
100036
100037
99818.2
99821.5
99825
99828.8
99832.7
99836.8
99841
99845.5
99850.1
99854.9
99859.7
99864.7
99869.7
99874.8
99880
99885.1
99890.3
99895.4
99900.5
99905.6
99910.6
99915.5
99920.3
99925.1
99929.7
99934.2
99938.6
99942.8
99946.9
99950.8
99954.6
99958.3
99961.8
99965.2
99968.4
99971.6
99974.5
99977.4
99980.1
99982.8
99985.3
99987.8
99990.1
99992.3
99994.5
99996.5
99998.5
100000
100002
100004
100006
100007
100009
100011
100012
100014
100015
100017
100018
100020
100021
100023
100024
100025
100027
100028
100030
100031
100032
100034
100035
99825.1
99828.4
99831.8
99835.5
99839.2
99843.2
99847.3
99851.6
99856
99860.5
99865.1
99869.8
99874.6
99879.4
99884.2
99889.1
99893.9
99898.7
99903.5
99908.3
99912.9
99917.6
99922.1
99926.5
99930.8
99935.1
99939.1
99943.1
99946.9
99950.7
99954.2
99957.7
99961
99964.2
99967.3
99970.2
99973.1
99975.8
99978.4
99980.9
99983.3
99985.7
99987.9
99990
99992.1
99994.1
99996
99997.8
99999.6
100001
100003
100005
100006
100008
100009
100011
100012
100013
100015
100016
100018
100019
100020
100022
100023
100024
100025
100027
100028
100029
100031
100032
100033
99832.2
99835.3
99838.7
99842.2
99845.8
99849.6
99853.6
99857.7
99861.9
99866.1
99870.5
99875
99879.4
99884
99888.5
99893.1
99897.6
99902.1
99906.6
99911
99915.4
99919.7
99923.9
99928.1
99932.1
99936.1
99939.9
99943.6
99947.2
99950.7
99954.1
99957.3
99960.4
99963.5
99966.4
99969.2
99971.9
99974.4
99976.9
99979.3
99981.6
99983.8
99985.9
99988
99990
99991.9
99993.7
99995.5
99997.2
99998.8
100000
100002
100003
100005
100006
100008
100009
100010
100012
100013
100014
100016
100017
100018
100019
100020
100022
100023
100024
100025
100026
100028
100029
100030
100031
99839.2
99842.3
99845.5
99848.9
99852.4
99856.1
99859.8
99863.7
99867.7
99871.8
99875.9
99880.1
99884.3
99888.6
99892.8
99897.1
99901.3
99905.6
99909.8
99913.9
99918
99922
99925.9
99929.8
99933.6
99937.3
99940.8
99944.3
99947.7
99951
99954.1
99957.2
99960.1
99962.9
99965.7
99968.3
99970.9
99973.3
99975.7
99977.9
99980.1
99982.2
99984.3
99986.2
99988.1
99989.9
99991.7
99993.4
99995
99996.5
99998.1
99999.6
100001
100002
100004
100005
100006
100008
100009
100010
100011
100013
100014
100015
100016
100017
100018
100019
100021
100022
100023
100024
100025
100026
100027
100028
100029
99846.2
99849.2
99852.3
99855.6
99859
99862.4
99866
99869.7
99873.5
99877.3
99881.2
99885.2
99889.1
99893.1
99897.1
99901.1
99905.1
99909
99912.9
99916.8
99920.6
99924.3
99928
99931.6
99935.1
99938.6
99941.9
99945.2
99948.3
99951.4
99954.3
99957.2
99959.9
99962.6
99965.2
99967.7
99970.1
99972.4
99974.6
99976.8
99978.9
99980.8
99982.8
99984.6
99986.4
99988.2
99989.8
99991.5
99993
99994.5
99996
99997.4
99998.8
100000
100001
100003
100004
100005
100006
100008
100009
100010
100011
100012
100013
100014
100015
100016
100017
100018
100019
100020
100021
100022
100023
100024
100026
100027
100028
99853.2
99856.1
99859.1
99862.2
99865.4
99868.7
99872.1
99875.6
99879.2
99882.8
99886.5
99890.2
99893.9
99897.6
99901.3
99905.1
99908.8
99912.4
99916.1
99919.7
99923.2
99926.7
99930.1
99933.5
99936.8
99940
99943.1
99946.1
99949
99951.9
99954.7
99957.3
99959.9
99962.4
99964.9
99967.2
99969.5
99971.7
99973.8
99975.8
99977.8
99979.6
99981.5
99983.3
99985
99986.6
99988.2
99989.8
99991.2
99992.7
99994.1
99995.5
99996.8
99998
99999.3
100001
100002
100003
100004
100005
100006
100007
100008
100009
100011
100012
100013
100014
100014
100015
100016
100017
100018
100019
100020
100021
100022
100023
100024
100025
100026
99860.1
99862.9
99865.7
99868.7
99871.7
99874.9
99878.1
99881.4
99884.8
99888.2
99891.6
99895.1
99898.5
99902
99905.5
99909
99912.4
99915.8
99919.2
99922.6
99925.9
99929.1
99932.3
99935.4
99938.5
99941.4
99944.3
99947.1
99949.9
99952.5
99955.1
99957.6
99960.1
99962.4
99964.7
99966.9
99969
99971.1
99973.1
99975
99976.8
99978.6
99980.4
99982.1
99983.7
99985.3
99986.8
99988.3
99989.7
99991.1
99992.4
99993.7
99995
99996.2
99997.4
99998.5
99999.7
100001
100002
100003
100004
100005
100006
100007
100008
100009
100010
100011
100012
100013
100014
100015
100015
100016
100017
100018
100019
100020
100021
100022
100022
100023
100024
99866.9
99869.5
99872.2
99875.1
99878
99880.9
99884
99887.1
99890.2
99893.4
99896.6
99899.8
99903.1
99906.3
99909.6
99912.8
99916
99919.2
99922.3
99925.4
99928.5
99931.5
99934.5
99937.3
99940.2
99942.9
99945.6
99948.2
99950.8
99953.3
99955.7
99958
99960.3
99962.5
99964.6
99966.7
99968.7
99970.7
99972.5
99974.3
99976.1
99977.8
99979.4
99981
99982.6
99984.1
99985.5
99986.9
99988.3
99989.6
99990.9
99992.1
99993.3
99994.5
99995.6
99996.8
99997.9
99999
100000
100001
100002
100003
100004
100005
100006
100007
100008
100009
100010
100010
100011
100012
100013
100014
100015
100015
100016
100017
100018
100019
100019
100020
100021
100022
100023
99871.1
99873.5
99876
99878.6
99881.3
99884
99886.8
99889.7
99892.6
99895.5
99898.5
99901.5
99904.5
99907.5
99910.5
99913.5
99916.5
99919.5
99922.4
99925.4
99928.3
99931.1
99933.9
99936.6
99939.3
99941.9
99944.5
99947
99949.4
99951.8
99954.1
99956.4
99958.5
99960.7
99962.7
99964.7
99966.7
99968.5
99970.4
99972.1
99973.8
99975.5
99977.1
99978.7
99980.2
99981.6
99983
99984.4
99985.8
99987.1
99988.3
99989.5
99990.7
99991.9
99993
99994.1
99995.2
99996.2
99997.3
99998.3
99999.3
100000
100001
100002
100003
100004
100005
100006
100007
100007
100008
100009
100010
100011
100011
100012
100013
100014
100014
100015
100016
100017
100017
100018
100019
100020
100020
100021
99877.7
99880
99882.4
99884.8
99887.3
99889.9
99892.5
99895.2
99897.9
99900.6
99903.4
99906.2
99909
99911.8
99914.6
99917.4
99920.2
99922.9
99925.7
99928.4
99931
99933.6
99936.2
99938.8
99941.2
99943.7
99946
99948.4
99950.6
99952.8
99955
99957.1
99959.1
99961.1
99963
99964.9
99966.7
99968.5
99970.2
99971.9
99973.5
99975
99976.5
99978
99979.4
99980.8
99982.2
99983.5
99984.7
99986
99987.2
99988.3
99989.5
99990.6
99991.7
99992.7
99993.8
99994.8
99995.8
99996.7
99997.7
99998.6
99999.5
100000
100001
100002
100003
100004
100005
100005
100006
100007
100008
100008
100009
100010
100011
100011
100012
100013
100013
100014
100015
100016
100016
100017
100018
100018
100019
100020
99884.2
99886.3
99888.6
99890.9
99893.2
99895.6
99898
99900.5
99903.1
99905.6
99908.2
99910.8
99913.4
99915.9
99918.5
99921.1
99923.7
99926.2
99928.8
99931.3
99933.7
99936.1
99938.5
99940.9
99943.2
99945.4
99947.6
99949.8
99951.9
99953.9
99955.9
99957.9
99959.8
99961.6
99963.4
99965.2
99966.9
99968.5
99970.1
99971.7
99973.2
99974.7
99976.1
99977.5
99978.8
99980.1
99981.4
99982.7
99983.9
99985
99986.2
99987.3
99988.4
99989.5
99990.5
99991.5
99992.5
99993.5
99994.4
99995.3
99996.2
99997.1
99998
99998.8
99999.6
100000
100001
100002
100003
100004
100004
100005
100006
100006
100007
100008
100009
100009
100010
100011
100011
100012
100013
100013
100014
100015
100015
100016
100017
100017
100018
100018
99890.5
99892.5
99894.6
99896.7
99898.9
99901.1
99903.4
99905.7
99908
99910.4
99912.8
99915.2
99917.6
99920
99922.3
99924.7
99927.1
99929.5
99931.8
99934.1
99936.4
99938.6
99940.8
99943
99945.1
99947.2
99949.2
99951.2
99953.2
99955.1
99956.9
99958.7
99960.5
99962.2
99963.9
99965.5
99967.1
99968.7
99970.2
99971.6
99973.1
99974.4
99975.8
99977.1
99978.4
99979.6
99980.8
99982
99983.1
99984.3
99985.4
99986.4
99987.5
99988.5
99989.5
99990.4
99991.4
99992.3
99993.2
99994.1
99994.9
99995.8
99996.6
99997.4
99998.2
99999
99999.7
100000
100001
100002
100003
100003
100004
100005
100005
100006
100007
100007
100008
100009
100009
100010
100010
100011
100012
100012
100013
100014
100014
100015
100015
100016
100017
100017
99894.7
99896.6
99898.4
99900.4
99902.4
99904.4
99906.4
99908.6
99910.7
99912.8
99915
99917.2
99919.4
99921.6
99923.8
99926
99928.2
99930.4
99932.6
99934.7
99936.9
99938.9
99941
99943
99945
99947
99948.9
99950.8
99952.7
99954.5
99956.2
99958
99959.6
99961.3
99962.9
99964.4
99966
99967.4
99968.9
99970.3
99971.7
99973
99974.3
99975.6
99976.8
99978
99979.2
99980.3
99981.5
99982.6
99983.6
99984.7
99985.7
99986.6
99987.6
99988.6
99989.5
99990.4
99991.3
99992.1
99992.9
99993.8
99994.6
99995.4
99996.1
99996.9
99997.6
99998.3
99999.1
99999.7
100000
100001
100002
100002
100003
100004
100004
100005
100006
100006
100007
100007
100008
100009
100009
100010
100010
100011
100011
100012
100013
100013
100014
100014
100015
100015
100016
99900.8
99902.4
99904.2
99906
99907.8
99909.7
99911.6
99913.5
99915.5
99917.5
99919.5
99921.5
99923.5
99925.5
99927.6
99929.6
99931.6
99933.6
99935.6
99937.6
99939.5
99941.5
99943.4
99945.2
99947.1
99948.9
99950.7
99952.4
99954.1
99955.8
99957.4
99959
99960.6
99962.1
99963.6
99965.1
99966.5
99967.9
99969.2
99970.5
99971.8
99973.1
99974.3
99975.5
99976.7
99977.8
99978.9
99980
99981
99982.1
99983.1
99984.1
99985
99986
99986.9
99987.8
99988.6
99989.5
99990.3
99991.1
99991.9
99992.7
99993.5
99994.2
99995
99995.7
99996.4
99997.1
99997.8
99998.4
99999.1
99999.7
100000
100001
100002
100002
100003
100003
100004
100005
100005
100006
100006
100007
100007
100008
100008
100009
100010
100010
100011
100011
100012
100012
100013
100013
100014
100014
100015
99906.6
99908.2
99909.8
99911.4
99913.1
99914.8
99916.5
99918.3
99920.1
99921.9
99923.8
99925.6
99927.5
99929.3
99931.2
99933.1
99934.9
99936.7
99938.6
99940.4
99942.2
99943.9
99945.7
99947.4
99949.1
99950.7
99952.4
99954
99955.6
99957.1
99958.6
99960.1
99961.6
99963
99964.4
99965.7
99967.1
99968.4
99969.6
99970.9
99972.1
99973.2
99974.4
99975.5
99976.6
99977.7
99978.7
99979.8
99980.8
99981.7
99982.7
99983.6
99984.5
99985.4
99986.3
99987.1
99987.9
99988.7
99989.5
99990.3
99991.1
99991.8
99992.5
99993.3
99994
99994.6
99995.3
99996
99996.6
99997.3
99997.9
99998.5
99999.1
99999.7
100000
100001
100001
100002
100003
100003
100004
100004
100005
100005
100006
100006
100007
100007
100008
100008
100009
100009
100010
100010
100011
100011
100012
100012
100013
100013
100014
99911.1
99912.4
99913.7
99915.2
99916.6
99918.2
99919.7
99921.3
99923
99924.6
99926.3
99927.9
99929.6
99931.3
99933
99934.7
99936.4
99938.1
99939.8
99941.4
99943.1
99944.7
99946.4
99948
99949.5
99951.1
99952.6
99954.1
99955.6
99957.1
99958.5
99959.9
99961.3
99962.6
99963.9
99965.2
99966.5
99967.7
99968.9
99970.1
99971.3
99972.4
99973.5
99974.6
99975.6
99976.7
99977.7
99978.6
99979.6
99980.5
99981.5
99982.4
99983.2
99984.1
99984.9
99985.7
99986.5
99987.3
99988.1
99988.8
99989.6
99990.3
99991
99991.7
99992.4
99993.1
99993.7
99994.3
99995
99995.6
99996.2
99996.8
99997.4
99998
99998.5
99999.1
99999.6
100000
100001
100001
100002
100002
100003
100003
100004
100004
100005
100005
100006
100006
100007
100007
100008
100008
100009
100009
100010
100010
100011
100011
100011
100012
100012
100013
99915.9
99917
99918
99919.2
99920.4
99921.7
99923.1
99924.5
99925.9
99927.4
99928.9
99930.4
99931.9
99933.5
99935
99936.6
99938.1
99939.7
99941.2
99942.7
99944.3
99945.8
99947.3
99948.7
99950.2
99951.7
99953.1
99954.5
99955.9
99957.2
99958.6
99959.9
99961.2
99962.5
99963.7
99964.9
99966.1
99967.3
99968.4
99969.6
99970.7
99971.7
99972.8
99973.8
99974.8
99975.8
99976.8
99977.7
99978.6
99979.5
99980.4
99981.3
99982.1
99983
99983.8
99984.6
99985.3
99986.1
99986.8
99987.6
99988.3
99989
99989.6
99990.3
99991
99991.6
99992.3
99992.9
99993.5
99994.1
99994.7
99995.3
99995.8
99996.4
99996.9
99997.5
99998
99998.6
99999.1
99999.6
100000
100001
100001
100002
100002
100003
100003
100003
100004
100004
100005
100005
100006
100006
100007
100007
100008
100008
100008
100009
100009
100010
100010
100011
100011
100012
100012
99921.7
99922.6
99923.5
99924.5
99925.6
99926.7
99927.9
99929.1
99930.4
99931.7
99933
99934.4
99935.8
99937.2
99938.6
99940
99941.4
99942.8
99944.2
99945.6
99947
99948.3
99949.7
99951.1
99952.4
99953.7
99955
99956.3
99957.6
99958.8
99960.1
99961.3
99962.5
99963.7
99964.8
99965.9
99967
99968.1
99969.2
99970.2
99971.3
99972.3
99973.2
99974.2
99975.1
99976.1
99977
99977.8
99978.7
99979.6
99980.4
99981.2
99982
99982.8
99983.5
99984.3
99985
99985.7
99986.4
99987.1
99987.8
99988.5
99989.1
99989.7
99990.4
99991
99991.6
99992.2
99992.8
99993.3
99993.9
99994.4
99995
99995.5
99996
99996.6
99997.1
99997.6
99998.1
99998.6
99999