/*--------------------------------*- C++ -*----------------------------------*\
  =========                 |
  \\      /  F ield         | OpenFOAM: The Open Source CFD Toolbox
   \\    /   O peration     | Website:  https://openfoam.org
    \\  /    A nd           | Version:  10
     \\/     M anipulation  |
\*---------------------------------------------------------------------------*/
FoamFile
{
    format      ascii;
    class       surfaceScalarField;
    location    "0.002";
    object      phi;
}
// * * * * * * * * * * * * * * * * * * * * * * * * * * * * * * * * * * * * * //

dimensions      [1 0 -1 0 0 0 0];

internalField   nonuniform List<scalar> 
17531
(
-6.02525e-05
6.58838e-07
-6.08604e-05
6.05551e-07
-6.165e-05
7.9148e-07
-6.24962e-05
8.43244e-07
-6.34641e-05
9.68938e-07
-6.47706e-05
1.30343e-06
-6.60877e-05
1.3163e-06
-6.76649e-05
1.57688e-06
-6.9321e-05
1.65575e-06
-7.12294e-05
1.9083e-06
-7.34778e-05
2.24846e-06
-7.58149e-05
2.33719e-06
-7.87763e-05
2.96145e-06
-8.17521e-05
2.976e-06
-8.52067e-05
3.45478e-06
-8.9191e-05
3.9842e-06
-9.31451e-05
3.95233e-06
-9.77745e-05
4.63061e-06
-0.000102318
4.54305e-06
-0.000107445
5.12887e-06
-0.000112708
5.26271e-06
-0.000118043
5.33639e-06
-0.000124041
5.99749e-06
-0.000130408
6.37007e-06
-0.000139273
8.86533e-06
-0.000150609
1.13382e-05
-0.000167331
1.67225e-05
-0.000187765
2.04346e-05
-0.000210664
2.28998e-05
-0.000232078
2.14142e-05
-0.000250254
1.81763e-05
-0.000261428
1.11749e-05
-0.000264602
3.17377e-06
-0.00026594
1.33851e-06
-0.000234018
-3.19217e-05
-1.52968e-06
-0.000142399
2.78256e-06
-0.000144608
2.8129e-06
-0.000147074
3.25829e-06
-0.000149671
3.43847e-06
-0.000152528
3.82566e-06
-0.000155656
4.42969e-06
-0.000158946
4.60528e-06
-0.000162738
5.36818e-06
-0.00016668
5.59767e-06
-0.000171105
6.33291e-06
-0.00017593
7.07337e-06
-0.000181028
7.43498e-06
-0.000186773
8.70616e-06
-0.000192738
8.94127e-06
-0.000199487
1.02041e-05
-0.000206712
1.12093e-05
-0.000214406
1.16455e-05
-0.0002229
1.31247e-05
-0.000231781
1.34245e-05
-0.000241776
1.51252e-05
-0.000252322
1.58081e-05
-0.000264052
1.70678e-05
-0.000276889
1.88338e-05
-0.00029088
2.03627e-05
-0.000306575
2.45607e-05
-0.000322766
2.75314e-05
-0.000339766
3.3723e-05
-0.000354421
3.50898e-05
-0.000366149
3.46284e-05
-0.000373823
2.90886e-05
-0.000377141
2.14953e-05
-0.000374734
8.76795e-06
-0.000366899
-4.66073e-06
-0.000352833
-1.2727e-05
-0.000317084
-6.76695e-05
-2.02005e-05
-0.000178761
5.53418e-06
-0.000181679
5.7303e-06
-0.00018491
6.48941e-06
-0.000188304
6.83211e-06
-0.000192041
7.56342e-06
-0.000196035
8.42247e-06
-0.000200271
8.84151e-06
-0.000204969
1.00661e-05
-0.000209872
1.05009e-05
-0.000215346
1.18073e-05
-0.000221189
1.29164e-05
-0.000227443
1.36887e-05
-0.00023433
1.55932e-05
-0.000241524
1.61358e-05
-0.000249607
1.82875e-05
-0.000258097
1.96989e-05
-0.000267263
2.08112e-05
-0.000277241
2.31024e-05
-0.000287731
2.39148e-05
-0.000299415
2.68102e-05
-0.000311608
2.8e-05
-0.000325069
3.05296e-05
-0.000339304
3.30682e-05
-0.000354326
3.53853e-05
-0.000369995
4.023e-05
-0.000384982
4.25185e-05
-0.000399201
4.79424e-05
-0.000410271
4.61594e-05
-0.000418363
4.27209e-05
-0.000421949
3.26741e-05
-0.00042139
2.09363e-05
-0.000414614
1.99196e-06
-0.000401497
-1.77777e-05
-0.000382171
-3.20523e-05
-0.000349015
-0.000100825
-4.61542e-05
-0.000208387
8.79326e-06
-0.000211826
9.16885e-06
-0.000215608
1.02709e-05
-0.000219576
1.08e-05
-0.000223941
1.19285e-05
-0.000228583
1.3063e-05
-0.000233517
1.37749e-05
-0.00023892
1.54697e-05
-0.000244559
1.61397e-05
-0.000250842
1.80896e-05
-0.000257494
1.95687e-05
-0.000264624
2.08189e-05
-0.000272412
2.33809e-05
-0.000280542
2.42659e-05
-0.000289615
2.73599e-05
-0.000299074
2.91585e-05
-0.000309298
3.10348e-05
-0.000320334
3.41389e-05
-0.000331886
3.54663e-05
-0.000344614
3.95392e-05
-0.000357718
4.11034e-05
-0.000371958
4.477e-05
-0.000386583
4.76935e-05
-0.000401498
5.03012e-05
-0.000416305
5.50371e-05
-0.000429863
5.60776e-05
-0.000441963
6.0043e-05
-0.000450839
5.50353e-05
-0.000456753
4.86349e-05
-0.000458186
3.41076e-05
-0.000454962
1.77126e-05
-0.000445769
-7.19999e-06
-0.000430356
-3.31908e-05
-0.000408041
-5.43672e-05
-0.000375307
-0.000133559
-7.60496e-05
-0.000239007
1.25345e-05
-0.000242959
1.312e-05
-0.000247287
1.45998e-05
-0.000251816
1.5329e-05
-0.000256783
1.68957e-05
-0.000262045
1.83241e-05
-0.000267635
1.93649e-05
-0.000273728
2.15631e-05
-0.000280072
2.24845e-05
-0.000287125
2.51423e-05
-0.00029455
2.69934e-05
-0.000302491
2.87604e-05
-0.000311113
3.20028e-05
-0.000320075
3.32284e-05
-0.000329991
3.72753e-05
-0.000340287
3.94546e-05
-0.000351361
4.21084e-05
-0.000363206
4.59839e-05
-0.000375488
4.77481e-05
-0.000388843
5.2895e-05
-0.00040235
5.46103e-05
-0.000416742
5.91619e-05
-0.000431135
6.20866e-05
-0.000445422
6.45879e-05
-0.000459207
6.8822e-05
-0.000471365
6.82357e-05
-0.000481555
7.02331e-05
-0.000488552
6.20325e-05
-0.000492712
5.27943e-05
-0.000492526
3.39221e-05
-0.000487111
1.22975e-05
-0.000475893
-1.84181e-05
-0.00045854
-5.05436e-05
-0.000433949
-7.8959e-05
-0.000400818
-0.00016669
-0.000108649
-0.000271883
1.6774e-05
-0.000276357
1.75933e-05
-0.000281238
1.94812e-05
-0.000286327
2.04171e-05
-0.000291896
2.24653e-05
-0.00029777
2.41973e-05
-0.000304005
2.55997e-05
-0.000310775
2.83325e-05
-0.000317799
2.95084e-05
-0.000325583
3.29269e-05
-0.00033373
3.51401e-05
-0.000342415
3.7445e-05
-0.000351783
4.13711e-05
-0.000361455
4.29e-05
-0.000372075
4.78958e-05
-0.000383036
5.04151e-05
-0.000394738
5.38107e-05
-0.000407116
5.83617e-05
-0.000419797
6.04299e-05
-0.000433392
6.64904e-05
-0.000446899
6.81173e-05
-0.000461071
7.33337e-05
-0.000475017
7.60332e-05
-0.000488525
7.80965e-05
-0.000501061
8.13574e-05
-0.000511831
7.90064e-05
-0.000520756
7.91588e-05
-0.000526525
6.78013e-05
-0.00052911
5.53795e-05
-0.000527104
3.19166e-05
-0.000519621
4.81492e-06
-0.000506588
-3.14511e-05
-0.000487273
-6.98584e-05
-0.000460677
-0.000105555
-0.000426837
-0.00020053
-0.000143464
-0.000307654
2.1524e-05
-0.000312654
2.25937e-05
-0.000318087
2.49137e-05
-0.000323731
2.60615e-05
-0.000329896
2.86303e-05
-0.000336368
3.06696e-05
-0.000343226
3.24578e-05
-0.000350637
3.57437e-05
-0.000358293
3.71653e-05
-0.000366749
4.13826e-05
-0.000375541
4.39326e-05
-0.000384872
4.67756e-05
-0.000394859
5.1358e-05
-0.000405069
5.31101e-05
-0.000416239
5.9066e-05
-0.000427655
6.18309e-05
-0.000439727
6.58825e-05
-0.000452333
7.09679e-05
-0.000465106
7.32032e-05
-0.000478667
8.00514e-05
-0.000492044
8.14943e-05
-0.000505875
8.71649e-05
-0.000519034
8.91914e-05
-0.000531556
9.06182e-05
-0.000543239
9.30404e-05
-0.000553202
8.89691e-05
-0.000561058
8.70156e-05
-0.000565525
7.22681e-05
-0.000566495
5.63496e-05
-0.00056267
2.80915e-05
-0.000553196
-4.65928e-06
-0.000538363
-4.62844e-05
-0.000517024
-9.1198e-05
-0.000488561
-0.000134017
-0.000453844
-0.000235248
-0.000180227
-0.00034147
2.48969e-05
-0.000346725
2.67791e-05
-0.000352238
2.81066e-05
-0.000358205
3.08813e-05
-0.000364379
3.22353e-05
-0.000371108
3.5359e-05
-0.000378139
3.76998e-05
-0.000385567
3.98858e-05
-0.000393552
4.3729e-05
-0.000401761
4.53739e-05
-0.000410789
5.04104e-05
-0.000420108
5.32514e-05
-0.00042994
5.66082e-05
-0.000440336
6.1754e-05
-0.000450908
6.36824e-05
-0.000462389
7.0547e-05
-0.000474013
7.34542e-05
-0.000486227
7.80971e-05
-0.000498893
8.36341e-05
-0.000511709
8.60189e-05
-0.000525201
9.35435e-05
-0.000538115
9.44084e-05
-0.000551254
0.000100305
-0.000563849
0.000101787
-0.000575924
0.000102693
-0.000587
0.000104117
-0.000596104
9.80737e-05
-0.000602823
9.37344e-05
-0.000605954
7.53999e-05
-0.000605281
5.56761e-05
-0.000599629
2.24396e-05
-0.000588141
-1.61463e-05
-0.000571432
-6.2994e-05
-0.000548018
-0.000114612
-0.000517774
-0.00016426
-0.00048207
-0.000270952
-0.000218761
-0.00038356
3.03276e-05
-0.000389282
3.2501e-05
-0.000395271
3.40955e-05
-0.000401726
3.73367e-05
-0.000408377
3.88862e-05
-0.000415606
4.25885e-05
-0.000423119
4.52129e-05
-0.000431027
4.77947e-05
-0.000439481
5.21831e-05
-0.000448122
5.40148e-05
-0.000457574
5.98624e-05
-0.000467248
6.29254e-05
-0.000477393
6.67534e-05
-0.000487994
7.23547e-05
-0.000498752
7.44409e-05
-0.00051039
8.2185e-05
-0.000522128
8.51919e-05
-0.000534502
9.04716e-05
-0.000547272
9.64042e-05
-0.000559878
9.86241e-05
-0.000572901
0.000106567
-0.000585471
0.000106978
-0.000598418
0.000113252
-0.000610729
0.000114097
-0.000622368
0.000114331
-0.000632757
0.000114505
-0.000640935
0.000106252
-0.000646452
9.92516e-05
-0.000648168
7.71155e-05
-0.000645743
5.32514e-05
-0.000638172
1.48678e-05
-0.000624643
-2.96744e-05
-0.000605907
-8.17309e-05
-0.000580385
-0.000140134
-0.000548419
-0.000196225
-0.000511653
-0.000307719
-0.000258933
-0.000429202
3.61685e-05
-0.000435334
3.86336e-05
-0.000441733
4.04941e-05
-0.000448604
4.42078e-05
-0.000455654
4.59361e-05
-0.000463291
5.02256e-05
-0.000471182
5.31035e-05
-0.000479455
5.60683e-05
-0.000488246
6.09734e-05
-0.000497178
6.29471e-05
-0.0005069
6.95848e-05
-0.000516784
7.28089e-05
-0.000527068
7.70377e-05
-0.000537835
8.31219e-05
-0.000548763
8.53683e-05
-0.000560633
9.40555e-05
-0.000572582
9.71409e-05
-0.00058494
0.000102829
-0.000597435
0.000108899
-0.00060985
0.00011104
-0.00062284
0.000119557
-0.000635357
0.000119495
-0.000648164
0.000126059
-0.000660167
0.000126101
-0.000671309
0.000125473
-0.000680938
0.000124135
-0.00068809
0.000113404
-0.000692274
0.000103435
-0.00069241
7.72517e-05
-0.000688063
4.89049e-05
-0.00067842
5.22497e-06
-0.000662813
-4.52809e-05
-0.000641862
-0.000102682
-0.000614213
-0.000167783
-0.000580569
-0.00022987
-0.000542691
-0.000345596
-0.000300628
-0.000478361
4.23581e-05
-0.000484829
4.51014e-05
-0.000491568
4.72326e-05
-0.000498775
5.14157e-05
-0.000506138
5.32991e-05
-0.000514085
5.81733e-05
-0.000522249
6.12677e-05
-0.000530779
6.45978e-05
-0.000539797
6.99918e-05
-0.000548926
7.20766e-05
-0.000558842
7.95009e-05
-0.000568863
8.28303e-05
-0.000579341
8.75153e-05
-0.000590378
9.4159e-05
-0.000601593
9.65836e-05
-0.000613574
0.000106036
-0.00062539
0.000108957
-0.000637672
0.000115111
-0.00065024
0.000121467
-0.000662766
0.000123566
-0.000675819
0.000132611
-0.000688295
0.000131971
-0.000700939
0.000138703
-0.000712587
0.000137748
-0.000723146
0.000136032
-0.000731886
0.000132875
-0.000737846
0.000119365
-0.000740493
0.000106082
-0.000738829
7.55871e-05
-0.000732346
4.24222e-05
-0.000720453
-6.6687e-06
-0.000702608
-6.31258e-05
-0.000679357
-0.000125932
-0.000649572
-0.000197569
-0.000614286
-0.000265155
-0.000575263
-0.000384619
-0.00034374
-0.000531086
4.88283e-05
-0.000537827
5.18416e-05
-0.000544837
5.42432e-05
-0.000552307
5.88855e-05
-0.000559903
6.08953e-05
-0.000568077
6.63472e-05
-0.000576437
6.96272e-05
-0.000585156
7.33174e-05
-0.00059436
7.91953e-05
-0.000603678
8.1395e-05
-0.000613815
8.96373e-05
-0.000624074
9.309e-05
-0.000634888
9.83291e-05
-0.000646111
0.000105382
-0.000657287
0.00010776
-0.000669261
0.00011801
-0.000681223
0.000120919
-0.000693732
0.00012762
-0.000706496
0.000134231
-0.000719165
0.000136236
-0.000732284
0.000145729
-0.000744702
0.000144389
-0.000757135
0.000151136
-0.000768337
0.00014895
-0.000778169
0.000145865
-0.000785831
0.000140537
-0.000790372
0.000123906
-0.000791228
0.000106939
-0.000787504
7.18624e-05
-0.000778645
3.3564e-05
-0.000764308
-2.1006e-05
-0.000744076
-8.33575e-05
-0.00071845
-0.000151558
-0.000686526
-0.000229492
-0.000649631
-0.000302051
-0.000609442
-0.000424807
-0.00038817
-0.000587566
5.55224e-05
-0.00059452
5.87947e-05
-0.000601741
6.14652e-05
-0.000609408
6.65519e-05
-0.000617174
6.86618e-05
-0.000625521
7.46942e-05
-0.000634045
7.81519e-05
-0.000642961
8.22337e-05
-0.0006524
8.86343e-05
-0.000662024
9.1019e-05
-0.000672446
0.00010006
-0.000682921
0.000103565
-0.000693756
0.000109164
-0.00070501
0.000116636
-0.000716377
0.000119127
-0.000728647
0.00013028
-0.000740893
0.000133166
-0.000753674
0.000140401
-0.000766648
0.000147205
-0.000779461
0.000149049
-0.000792626
0.000158894
-0.000804934
0.000156697
-0.000817052
0.000163255
-0.000827656
0.000159553
-0.000836559
0.000154768
-0.000842896
0.000146873
-0.000845747
0.000126757
-0.000844525
0.000105716
-0.000838459
6.57973e-05
-0.000826978
2.20822e-05
-0.000809998
-3.7986e-05
-0.000787255
-0.0001061
-0.000759199
-0.000179614
-0.000725146
-0.000263545
-0.000686664
-0.000340533
-0.000645296
-0.000466175
-0.000433825
-0.000641223
5.83151e-05
-0.000648084
6.23838e-05
-0.000655188
6.58987e-05
-0.000662558
6.88355e-05
-0.000670367
7.436e-05
-0.000678271
7.65663e-05
-0.000686797
8.322e-05
-0.000695541
8.68958e-05
-0.000704776
9.14688e-05
-0.000714581
9.84398e-05
-0.000724347
0.000100784
-0.00073481
0.000110523
-0.000745335
0.00011409
-0.000756397
0.000120226
-0.000767981
0.00012822
-0.000779688
0.000130834
-0.000792311
0.000142902
-0.000804869
0.000145724
-0.000817934
0.000153465
-0.000831119
0.000160389
-0.00084405
0.000161981
-0.000857193
0.000172037
-0.000869281
0.000168784
-0.000880918
0.000174892
-0.000890707
0.000169343
-0.000898414
0.000162475
-0.000903129
0.000151588
-0.000903979
0.000127607
-0.000900366
0.000102103
-0.000891683
5.71144e-05
-0.000877344
7.74367e-06
-0.000857713
-5.76166e-05
-0.000832178
-0.000131635
-0.000801657
-0.000210134
-0.000765495
-0.000299708
-0.000725449
-0.000380578
-0.000682902
-0.000508722
-0.000480614
-0.000705921
6.48667e-05
-0.000712898
6.93608e-05
-0.000720109
7.31099e-05
-0.000727597
7.63237e-05
-0.000735551
8.23143e-05
-0.000743649
8.46644e-05
-0.000752489
9.206e-05
-0.000761586
9.5993e-05
-0.000771048
0.000100931
-0.00078081
0.000108202
-0.000790628
0.000110602
-0.00080134
0.000121235
-0.000812211
0.000124961
-0.000823661
0.000131677
-0.000835643
0.000140202
-0.00084773
0.000142921
-0.000860734
0.000155907
-0.000873622
0.000158613
-0.000886968
0.000166811
-0.00090033
0.000173751
-0.000913308
0.000174959
-0.00092631
0.000185039
-0.000938005
0.000180479
-0.000948924
0.000185811
-0.000957615
0.000178033
-0.000963794
0.000168654
-0.000966533
0.000154327
-0.000965033
0.000126107
-0.000958699
9.57694e-05
-0.000947125
4.55405e-05
-0.000929711
-9.67067e-06
-0.000907267
-8.00606e-05
-0.000878865
-0.000160037
-0.000845878
-0.000243122
-0.000807636
-0.00033795
-0.000766055
-0.000422159
-0.000722338
-0.000552439
-0.000528452
-0.000775233
7.14917e-05
-0.000782311
7.64393e-05
-0.000789652
8.04502e-05
-0.000797324
8.3996e-05
-0.000805573
9.05639e-05
-0.000813999
9.309e-05
-0.000823044
0.000101105
-0.000832169
0.000105118
-0.000841638
0.0001104
-0.000851627
0.000118191
-0.000861794
0.000120769
-0.000872922
0.000132363
-0.000884215
0.000136254
-0.000896104
0.000143566
-0.000908523
0.000152621
-0.000921021
0.000155419
-0.000934423
0.000169309
-0.000947633
0.000171822
-0.000961219
0.000180398
-0.000974682
0.000187214
-0.000987582
0.000187859
-0.00100026
0.000197715
-0.00101132
0.000191543
-0.00102122
0.000195707
-0.00102846
0.000185273
-0.00103272
0.000172918
-0.00103309
0.000154693
-0.00102886
0.000121881
-0.00101947
8.63792e-05
-0.00100474
3.08109e-05
-0.000984056
-3.03542e-05
-0.00095867
-0.000105447
-0.000927369
-0.000191337
-0.00089193
-0.00027856
-0.000851643
-0.000378237
-0.000808558
-0.000465245
-0.00076369
-0.000597307
-0.000577264
-0.000849602
7.82272e-05
-0.00085686
8.36968e-05
-0.000864492
8.80825e-05
-0.000872472
9.19766e-05
-0.000880873
9.89649e-05
-0.000889298
0.000101515
-0.00089842
0.000110227
-0.000907744
0.000114443
-0.000917546
0.000120202
-0.000927949
0.000128594
-0.000938548
0.000131368
-0.000950151
0.000143966
-0.000961914
0.000148017
-0.000974284
0.000155936
-0.000987171
0.000165507
-0.00100009
0.000168338
-0.00101387
0.000183094
-0.00102736
0.000185307
-0.0010411
0.000194137
-0.00105453
0.000200642
-0.00106716
0.000200491
-0.00107925
0.000209811
-0.00108937
0.000201664
-0.00109787
0.000204202
-0.00110325
0.000190651
-0.00110516
0.000174828
-0.00110273
0.000152261
-0.0010954
0.000114556
-0.00108264
7.36156e-05
-0.00106451
1.2688e-05
-0.00104044
-5.443e-05
-0.00101197
-0.000133916
-0.000977771
-0.000225536
-0.000939914
-0.000316417
-0.00089763
-0.000420521
-0.000853044
-0.000509831
-0.000807056
-0.000643294
-0.000626987
-0.000922769
8.25954e-05
-0.000929784
8.52425e-05
-0.000937329
9.12415e-05
-0.000945049
9.58028e-05
-0.000952988
9.99158e-05
-0.000961467
0.000107444
-0.000970147
0.000110195
-0.000979606
0.000119686
-0.000989286
0.000124123
-0.000999533
0.000130449
-0.00101042
0.000139477
-0.0010215
0.000142453
-0.00103363
0.000156095
-0.0010459
0.000160291
-0.00105878
0.000168811
-0.00107214
0.000178864
-0.00108545
0.000181653
-0.00109956
0.000197204
-0.00111322
0.00019897
-0.00112697
0.000207881
-0.00114016
0.000213833
-0.00115226
0.00021259
-0.00116344
0.000220989
-0.00117223
0.000210456
-0.00117887
0.000210847
-0.00118192
0.0001937
-0.00118102
0.000173923
-0.00117537
0.000146615
-0.00116459
0.000103778
-0.00114814
5.71636e-05
-0.00112639
-9.06348e-06
-0.00109894
-8.1878e-05
-0.00106723
-0.000165625
-0.00103012
-0.000262648
-0.000989891
-0.000356646
-0.000945689
-0.000464723
-0.000899627
-0.000555893
-0.000852531
-0.00069039
-0.000677568
-0.00100907
8.95867e-05
-0.00101612
9.22833e-05
-0.0010236
9.87284e-05
-0.00103139
0.000103595
-0.00103961
0.000108135
-0.00104846
0.000116289
-0.00105751
0.000119247
-0.00106735
0.000129524
-0.0010775
0.000134275
-0.00108826
0.000141205
-0.00109968
0.000150898
-0.0011113
0.000154072
-0.00112399
0.000168788
-0.00113679
0.000173095
-0.00115017
0.000182187
-0.00116396
0.00019266
-0.00117761
0.0001953
-0.00119194
0.000211531
-0.00120562
0.000212654
-0.00121915
0.000221413
-0.00123182
0.000226504
-0.00124304
0.000223808
-0.00125288
0.000230827
-0.00125987
0.000217447
-0.00126415
0.000215123
-0.00126437
0.000193919
-0.00126018
0.000169736
-0.00125091
0.000137343
-0.00123629
8.9165e-05
-0.00121588
3.67468e-05
-0.00119034
-3.45974e-05
-0.00115938
-0.000112839
-0.00112443
-0.000200581
-0.00108446
-0.000302617
-0.00104192
-0.00039918
-0.000995869
-0.000510778
-0.000948402
-0.00060336
-0.000900183
-0.000738609
-0.000728946
-0.0011017
9.65199e-05
-0.00110883
9.94076e-05
-0.00111659
0.000106492
-0.00112474
0.000111742
-0.00113336
0.000116752
-0.00114261
0.000125544
-0.00115205
0.00012868
-0.0011624
0.000139879
-0.00117309
0.000144967
-0.00118442
0.000152529
-0.00119643
0.000162906
-0.00120861
0.000166258
-0.00122188
0.000182058
-0.0012352
0.000186418
-0.00124904
0.000196022
-0.0012632
0.000206818
-0.00127705
0.000209157
-0.00129142
0.000225898
-0.00130489
0.000226124
-0.00131791
0.000234428
-0.00132968
0.000238281
-0.00133958
0.000233702
-0.00134756
0.000238813
-0.00135221
0.000222097
-0.00135357
0.000216484
-0.00135045
0.000190797
-0.00134248
0.000161768
-0.00132914
0.000123995
-0.00131039
7.04181e-05
-0.0012858
1.21575e-05
-0.00125643
-6.39686e-05
-0.00122181
-0.000147452
-0.00118363
-0.000238761
-0.00114088
-0.000345368
-0.00109612
-0.000443943
-0.00104828
-0.000558619
-0.000999466
-0.000652172
-0.00095012
-0.000787955
-0.000781069
-0.00119452
9.5655e-05
-0.00120172
0.000103723
-0.00120918
0.000106866
-0.00121734
0.000114652
-0.00122592
0.000120321
-0.00123496
0.000125799
-0.00124464
0.000135216
-0.0012546
0.000138642
-0.00126554
0.000150824
-0.00127683
0.000156258
-0.00128877
0.000164464
-0.00130139
0.000175525
-0.00131414
0.000179014
-0.00132797
0.000195884
-0.00134176
0.000200206
-0.00135596
0.000210225
-0.00137034
0.000221197
-0.00138422
0.000223035
-0.00139836
0.000240046
-0.0014113
0.000239057
-0.00142339
0.000246523
-0.0014338
0.000248689
-0.00144183
0.000241735
-0.00144738
0.000244361
-0.00144912
0.000223838
-0.00144699
0.000214356
-0.00143994
0.000183746
-0.00142771
0.000149539
-0.00140993
0.000106215
-0.00138676
4.72417e-05
-0.00135783
-1.67666e-05
-0.00132461
-9.71896e-05
-0.00128628
-0.000185783
-0.00124495
-0.000280092
-0.0011995
-0.000390815
-0.00115259
-0.00049086
-0.00110302
-0.000608183
-0.00105289
-0.000702309
-0.00100248
-0.000838366
-0.000833906
-0.00130259
0.000102513
-0.00131018
0.000111311
-0.00131805
0.000114743
-0.00132668
0.000123277
-0.0013357
0.000129348
-0.00134519
0.000135288
-0.00135544
0.000145463
-0.001366
0.000149199
-0.00137758
0.000162409
-0.0013895
0.000168181
-0.00140207
0.000177027
-0.00141529
0.000188751
-0.00142859
0.000192307
-0.0014429
0.0002102
-0.00145705
0.000214351
-0.00147146
0.000224637
-0.00148584
0.000235582
-0.00149946
0.000236653
-0.00151303
0.000253616
-0.001525
0.000251021
-0.00153566
0.000257184
-0.00154411
0.000257143
-0.00154968
0.000247301
-0.00155216
0.000246844
-0.00155037
0.000222043
-0.00154407
0.000208061
-0.00153259
0.000172266
-0.00151566
0.000132607
-0.00149311
8.36653e-05
-0.00146529
1.94246e-05
-0.00143191
-5.01437e-05
-0.00139482
-0.000134279
-0.00135285
-0.00022776
-0.00130847
-0.000324467
-0.00126043
-0.000438855
-0.00121145
-0.000539844
-0.00116022
-0.000659407
-0.00110879
-0.000753741
-0.00105733
-0.000889823
-0.000887412
-0.00141269
0.000106012
-0.00141995
0.000109779
-0.00142799
0.000119351
-0.00143635
0.000123102
-0.00144544
0.000132366
-0.00145494
0.000138852
-0.00146503
0.000145372
-0.00147592
0.000156353
-0.00148711
0.000160396
-0.00149937
0.000174665
-0.00151193
0.000180744
-0.00152511
0.0001902
-0.00153889
0.000202537
-0.00155264
0.000206054
-0.00156731
0.000224875
-0.00158164
0.000228673
-0.00159601
0.000239015
-0.00161009
0.000249658
-0.00162306
0.000249627
-0.00163558
0.000266129
-0.00164602
0.000261465
-0.00165463
0.000265789
-0.00166048
0.000262997
-0.00166291
0.000249736
-0.0016616
0.000245531
-0.00165556
0.000216006
-0.00164454
0.000197032
-0.0016281
0.000155833
-0.00160608
0.000110587
-0.00157851
5.60933e-05
-0.00154595
-1.31378e-05
-0.00150824
-8.7848e-05
-0.00146717
-0.000175352
-0.00142164
-0.000273294
-0.00137432
-0.000371779
-0.0013238
-0.000489379
-0.00127283
-0.000590813
-0.00122001
-0.000712232
-0.00116732
-0.00080643
-0.00111485
-0.000942285
-0.000941633
-0.00153985
0.000113346
-0.00154758
0.000117509
-0.00155614
0.000127916
-0.00156495
0.000131913
-0.00157457
0.000141982
-0.0015847
0.000148982
-0.00159544
0.000156109
-0.00160701
0.000167922
-0.00161886
0.00017225
-0.00163178
0.000187585
-0.00164495
0.000193914
-0.00165867
0.000203919
-0.00167291
0.000216776
-0.00168696
0.000220103
-0.00170178
0.000239697
-0.001716
0.000242896
-0.00173
0.000253008
-0.00174333
0.000262993
-0.00175515
0.000261443
-0.00176599
0.000276975
-0.00177426
0.000269734
-0.00178011
0.000271642
-0.00178264
0.000265527
-0.00178113
0.000248222
-0.00177528
0.000239677
-0.00176436
0.000205089
-0.001748
0.000180676
-0.00172619
0.000134015
-0.00169879
8.31958e-05
-0.00166604
2.33434e-05
-0.00162866
-5.05176e-05
-0.00158665
-0.000129865
-0.0015417
-0.000220301
-0.00149276
-0.000322227
-0.00144264
-0.000421902
-0.00138975
-0.000542271
-0.00133688
-0.000643684
-0.00128251
-0.000766606
-0.00122859
-0.000860348
-0.00117514
-0.000995728
-0.000996592
-0.00167826
0.00012119
-0.00168652
0.000125765
-0.00169554
0.000136937
-0.00170492
0.000141288
-0.00171519
0.000152255
-0.00172599
0.000159788
-0.00173741
0.000167529
-0.00174967
0.000180177
-0.00176216
0.000184743
-0.0017757
0.00020112
-0.00178939
0.000207604
-0.00180352
0.000218051
-0.00181803
0.000231284
-0.00183214
0.000234211
-0.00184679
0.000254346
-0.00186052
0.000256626
-0.00187364
0.000266134
-0.00188566
0.00027501
-0.00189567
0.000271456
-0.00190414
0.000285445
-0.0019095
0.000275092
-0.00191179
0.000273938
-0.00191008
0.000263814
-0.00190387
0.000242011
-0.00189272
0.000228531
-0.00187629
0.000188654
-0.00185412
0.000158505
-0.0018266
0.000106497
-0.00179365
5.02432e-05
-0.00175567
-1.46326e-05
-0.00171362
-9.25733e-05
-0.00166726
-0.000176222
-0.00161856
-0.000269001
-0.00156638
-0.000374403
-0.00151358
-0.000474704
-0.00145843
-0.00059742
-0.00140373
-0.000698387
-0.00134785
-0.000822483
-0.00129271
-0.000915484
-0.00123833
-0.00105011
-0.00105233
-0.00182067
0.000120917
-0.00182903
0.000129552
-0.00183775
0.000134478
-0.0018474
0.00014659
-0.00185743
0.000151324
-0.0018684
0.000163226
-0.0018799
0.000171284
-0.00189199
0.000179621
-0.00190489
0.000193081
-0.00191795
0.000197803
-0.00193199
0.000215157
-0.00194604
0.000221653
-0.00196036
0.000232376
-0.00197485
0.000245771
-0.00198866
0.000248018
-0.00200268
0.00026837
-0.00201538
0.000269323
-0.002027
0.000277757
-0.00203699
0.000284997
-0.00204445
0.000278918
-0.00204973
0.000290723
-0.00205126
0.000276624
-0.00204904
0.00027172
-0.00204228
0.000257047
-0.00203054
0.00023028
-0.00201341
0.000211394
-0.00199093
0.000166179
-0.00196258
0.000130151
-0.00192915
7.30666e-05
-0.00189055
1.16458e-05
-0.00184735
-5.78359e-05
-0.00180072
-0.000139203
-0.00175017
-0.000226766
-0.00169791
-0.000321267
-0.00164265
-0.000429654
-0.00158731
-0.000530054
-0.00153
-0.000654722
-0.00147353
-0.000754858
-0.00141619
-0.00087983
-0.00135983
-0.000971835
-0.00130453
-0.00110542
-0.00110889
-0.00197617
0.000121723
-0.00198439
0.000129139
-0.00199326
0.00013842
-0.00200262
0.000143832
-0.00201296
0.000156936
-0.00202368
0.000162044
-0.00203535
0.000174891
-0.0020475
0.00018344
-0.00206021
0.000192324
-0.00207366
0.000206531
-0.00208713
0.000211281
-0.00210147
0.00022949
-0.00211561
0.000235792
-0.00212979
0.000246555
-0.00214383
0.000259815
-0.00215683
0.000261017
-0.00216961
0.000281149
-0.00218057
0.00028029
-0.00218993
0.00028711
-0.00219707
0.000292135
-0.0022011
0.000282955
-0.00220213
0.000291746
-0.00219887
0.000273371
-0.00219122
0.000264072
-0.00217851
0.000244333
-0.00216052
0.000212292
-0.00213682
0.000187691
-0.00210791
0.00013727
-0.00207314
9.53805e-05
-0.0020337
3.36253e-05
-0.00198948
-3.25688e-05
-0.00194127
-0.000106051
-0.00189011
-0.000190359
-0.00183557
-0.000281308
-0.00177993
-0.000376913
-0.00172176
-0.000487816
-0.00166399
-0.000587827
-0.00160463
-0.000714083
-0.00154644
-0.000813045
-0.00148766
-0.000938615
-0.00143011
-0.00102938
-0.0013738
-0.00116173
-0.00116629
-0.00215408
0.000129821
-0.00216287
0.000137927
-0.00217241
0.000147953
-0.00218244
0.000153863
-0.00219348
0.00016798
-0.00220486
0.000173423
-0.00221716
0.000187196
-0.00222989
0.000196166
-0.00224307
0.000205501
-0.00225687
0.000220338
-0.00227052
0.000224932
-0.00228483
0.000243798
-0.00229866
0.000249624
-0.00231221
0.0002601
-0.00232522
0.000272825
-0.00233673
0.000272528
-0.00234748
0.0002919
-0.00235588
0.000288695
-0.00236207
0.000293295
-0.00236535
0.000295411
-0.00236482
0.000282432
-0.00236059
0.000287515
-0.00235154
0.000264319
-0.00233752
0.000250048
-0.00231807
0.000224886
-0.00229322
0.000187445
-0.00226252
0.00015699
-0.00222693
0.000101674
-0.00218564
5.40912e-05
-0.00214021
-1.17991e-05
-0.0020905
-8.2279e-05
-0.00203743
-0.000159121
-0.00198196
-0.00024583
-0.00192365
-0.000339619
-0.00186481
-0.000435752
-0.00180389
-0.000548732
-0.00174381
-0.000647912
-0.00168247
-0.000775426
-0.0016226
-0.000872911
-0.00156238
-0.000998838
-0.00150368
-0.00108808
-0.00144628
-0.00121912
-0.00122456
-0.00233945
0.000131253
-0.00234817
0.000138546
-0.00235762
0.000147378
-0.00236783
0.000158166
-0.00237852
0.000164551
-0.00239021
0.00017967
-0.00240216
0.000185375
-0.00241498
0.000200012
-0.00242809
0.000209279
-0.00244151
0.000218914
-0.00245536
0.000234192
-0.0024688
0.000238371
-0.0024826
0.000257602
-0.00249556
0.000262578
-0.00250779
0.000272333
-0.00251899
0.00028402
-0.00252816
0.000281704
-0.00253596
0.000299694
-0.00254082
0.000293553
-0.00254266
0.000295143
-0.00254089
0.000293634
-0.00253476
0.000276309
-0.00252416
0.000276906
-0.00250833
0.000248489
-0.0024871
0.000228822
-0.00246028
0.000198067
-0.00242813
0.000155291
-0.00239016
0.000119026
-0.00234778
5.92944e-05
-0.00230001
6.31842e-06
-0.00224872
-6.30932e-05
-0.00219382
-0.000137175
-0.00213604
-0.000216904
-0.00207648
-0.000305386
-0.00201462
-0.000401484
-0.00195276
-0.000497611
-0.00188923
-0.000612258
-0.00182694
-0.000710206
-0.00176368
-0.000838685
-0.00170216
-0.000934426
-0.00164051
-0.00106049
-0.00158061
-0.00114798
-0.0015221
-0.00127764
-0.00128374
-0.00255061
0.000140054
-0.00255998
0.000147916
-0.00257008
0.000157478
-0.00258093
0.00016901
-0.00259219
0.00017581
-0.00260439
0.000191878
-0.00261674
0.000197725
-0.00262983
0.000213103
-0.00264303
0.000222479
-0.0026563
0.000232185
-0.00266974
0.000247627
-0.00268241
0.000251042
-0.00269504
0.000270232
-0.00270634
0.00027388
-0.00271639
0.000282385
-0.00272483
0.000292462
-0.00273067
0.000287545
-0.00273438
0.000303399
-0.00273435
0.000293525
-0.00273068
0.000291469
-0.00272267
0.000285626
-0.00270978
0.00026342
-0.00269175
0.000258879
-0.0026683
0.000225035
-0.00263921
0.000199733
-0.00260456
0.000163417
-0.00256484
0.000115568
-0.00251953
7.37153e-05
-0.00247041
1.0177e-05
-0.00241631
-4.77824e-05
-0.00235947
-0.000119936
-0.00229952
-0.000197124
-0.0022373
-0.000279122
-0.00217391
-0.000368776
-0.0021087
-0.000466693
-0.00204399
-0.000562327
-0.00197797
-0.000678268
-0.00191355
-0.00077463
-0.00184844
-0.000903797
-0.00178529
-0.00099757
-0.00172222
-0.00112357
-0.00166103
-0.00120917
-0.00160135
-0.00133732
-0.00134391
-0.00277163
0.000137147
-0.00278106
0.000149483
-0.00279103
0.000157883
-0.00280169
0.000168137
-0.00281303
0.000180352
-0.00282468
0.000187459
-0.00283717
0.000204365
-0.00284961
0.00021017
-0.0028626
0.000226088
-0.00287542
0.0002353
-0.00288799
0.000244755
-0.00290034
0.000259972
-0.00291146
0.000262169
-0.00292202
0.000280791
-0.0029307
0.000282561
-0.00293753
0.000289212
-0.00294208
0.000297011
-0.00294328
0.000288742
-0.00294146
0.000301586
-0.00293536
0.000287419
-0.00292485
0.000280962
-0.00290938
0.00027016
-0.00288868
0.000242713
-0.00286235
0.000232557
-0.00283061
0.000193295
-0.00279321
0.000162327
-0.00275048
0.000120687
-0.00270312
6.82087e-05
-0.00265054
2.11387e-05
-0.00259486
-4.5509e-05
-0.00253472
-0.000107918
-0.00247256
-0.000182092
-0.00240787
-0.000261822
-0.00234151
-0.000345484
-0.00227452
-0.000435757
-0.00220618
-0.000535035
-0.00213877
-0.000629741
-0.00207039
-0.000746647
-0.00200388
-0.00084114
-0.00193692
-0.000970755
-0.00187211
-0.00106238
-0.00180764
-0.00118804
-0.00174507
-0.00127175
-0.00168414
-0.00139825
-0.00140515
-0.00301334
0.000140101
-0.00302239
0.0001462
-0.00303235
0.000159439
-0.00304277
0.000168309
-0.00305381
0.000179171
-0.0030654
0.000191948
-0.00307713