/*--------------------------------*- C++ -*----------------------------------*\
  =========                 |
  \\      /  F ield         | OpenFOAM: The Open Source CFD Toolbox
   \\    /   O peration     | Website:  https://openfoam.org
    \\  /    A nd           | Version:  10
     \\/     M anipulation  |
\*---------------------------------------------------------------------------*/
FoamFile
{
    format      ascii;
    class       volVectorField;
    location    "0.002";
    object      U;
}
// * * * * * * * * * * * * * * * * * * * * * * * * * * * * * * * * * * * * * //

dimensions      [0 1 -1 0 0 0 0];

internalField   nonuniform List<vector> 
8910
(
(7.22285 -2.09189 1.19932e-17)
(7.26089 -2.17923 0)
(7.29507 -2.26848 0)
(7.33732 -2.36747 0)
(7.38134 -2.47025 3.25864e-15)
(7.4355 -2.58434 -1.29682e-17)
(7.52353 -2.71703 1.30522e-17)
(7.58678 -2.84833 3.35777e-15)
(7.6686 -2.99746 -3.44928e-15)
(7.75151 -3.15457 0)
(7.84236 -3.33156 -3.49891e-15)
(7.94502 -3.52497 -3.51549e-15)
(8.04631 -3.73037 -3.52932e-15)
(8.17158 -3.95963 1.40108e-17)
(8.28533 -4.20119 -3.54089e-15)
(8.40911 -4.47503 -7.20763e-15)
(8.54344 -4.77564 0)
(8.66129 -5.09879 -3.58121e-15)
(8.7766 -5.45655 3.60735e-15)
(8.84993 -5.82212 -3.55402e-15)
(8.90759 -6.22766 -1.81412e-15)
(8.91555 -6.64227 6.96158e-18)
(8.86575 -7.07478 1.79411e-15)
(8.7838 -7.55366 7.01377e-18)
(8.6712 -8.10239 -6.94909e-18)
(8.58579 -8.83897 0)
(8.5089 -9.82201 0)
(8.47048 -11.171 -3.13192e-18)
(8.38088 -12.81 1.48769e-15)
(8.1048 -14.4255 -1.41028e-15)
(7.44199 -15.8828 -2.6122e-18)
(6.42482 -16.9896 2.55615e-18)
(5.0658 -17.6456 -1.29173e-15)
(3.36473 -17.735 0)
(1.64842 -16.88 0)
(0.443814 -15.5588 0)
(15.4981 -4.6265 0)
(15.6442 -4.83794 0)
(15.7907 -5.0583 -1.49314e-15)
(15.9437 -5.29478 -1.50941e-15)
(16.0974 -5.54279 -1.52783e-15)
(16.2558 -5.80794 6.1044e-18)
(16.4105 -6.08688 -6.15196e-18)
(16.5764 -6.38553 0)
(16.7514 -6.70717 1.62063e-15)
(16.925 -7.046 0)
(17.1034 -7.41266 3.27353e-15)
(17.2817 -7.80532 3.27979e-15)
(17.4553 -8.22242 6.40595e-18)
(17.6341 -8.67277 1.66216e-15)
(17.798 -9.15174 -6.39104e-18)
(17.9595 -9.67414 1.65663e-15)
(18.1065 -10.234 0)
(18.2291 -10.832 1.64022e-15)
(18.3266 -11.4807 -1.64822e-15)
(18.3806 -12.1685 1.62601e-15)
(18.3999 -12.9208 0)
(18.3565 -13.7258 0)
(18.25 -14.6009 3.21142e-18)
(18.0621 -15.5589 2.26213e-22)
(17.7769 -16.5973 -8.2126e-16)
(17.3763 -17.743 0)
(16.8319 -18.9232 -3.11739e-18)
(16.1135 -20.1227 3.13186e-18)
(15.1739 -21.1689 0)
(13.7123 -21.9718 0)
(12.0363 -22.5687 1.4946e-18)
(10.0908 -22.8708 -1.52199e-18)
(7.91365 -22.8214 -8.04081e-19)
(5.51437 -22.2658 7.67548e-19)
(3.0391 -20.7034 0)
(1.49599 -19.0596 0)
(17.9089 -5.3829 -7.29462e-16)
(18.0864 -5.63109 0)
(18.2671 -5.89068 -1.02675e-21)
(18.4528 -6.16766 7.74466e-16)
(18.64 -6.45916 -7.85588e-16)
(18.832 -6.76984 6.26168e-18)
(19.0236 -7.09787 0)
(19.2207 -7.44465 -8.1809e-16)
(19.4208 -7.81512 -1.7005e-15)
(19.6191 -8.2071 8.42455e-16)
(19.8194 -8.62792 4.41496e-21)
(20.0138 -9.07624 -8.69601e-16)
(20.2033 -9.55333 8.78917e-16)
(20.3865 -10.0647 -8.96683e-16)
(20.5552 -10.6101 0)
(20.7129 -11.1995 9.02028e-16)
(20.8452 -11.8265 0)
(20.9521 -12.4968 0)
(21.0214 -13.2174 9.14471e-16)
(21.0461 -13.9829 3.56148e-18)
(21.0198 -14.8098 4.72018e-16)
(20.9196 -15.6889 -3.63081e-18)
(20.7397 -16.6305 0)
(20.4427 -17.6314 0)
(20.0118 -18.675 4.87496e-16)
(19.4094 -19.7536 1.92777e-18)
(18.5532 -20.7872 -4.87931e-16)
(17.4419 -21.7544 -3.90116e-18)
(16.0396 -22.5473 4.88678e-16)
(14.371 -23.1348 1.93039e-18)
(12.4603 -23.4529 0)
(10.3871 -23.5613 0)
(8.14164 -23.1696 2.48463e-16)
(5.75304 -22.3384 0)
(3.35973 -20.8868 0)
(1.8036 -19.2416 0)
(19.2284 -5.8125 5.29843e-16)
(19.4198 -6.08079 -7.61597e-23)
(19.6148 -6.36171 5.46085e-16)
(19.8139 -6.66069 -5.681e-16)
(20.0144 -6.97549 5.72008e-16)
(20.2193 -7.31037 -4.56514e-18)
(20.4245 -7.66367 5.90263e-16)
(20.6315 -8.03598 6.07528e-16)
(20.8386 -8.4326 6.20234e-16)
(21.0424 -8.85293 -4.81982e-18)
(21.2452 -9.30318 -1.26841e-15)
(21.439 -9.78111 4.9953e-18)
(21.6251 -10.2891 0)
(21.7998 -10.8312 -6.52211e-21)
(21.9569 -11.4084 0)
(22.0963 -12.0287 -6.65288e-16)
(22.2043 -12.6859 -6.69898e-16)
(22.2815 -13.3867 6.7215e-16)
(22.3125 -14.1354 -6.82532e-16)
(22.2906 -14.9267 0)
(22.2035 -15.7733 -2.71573e-18)
(22.029 -16.6632 6.93974e-16)
(21.7544 -17.6018 0)
(21.34 -18.574 -3.57778e-16)
(20.7645 -19.5545 0)
(19.9768 -20.5267 -1.41066e-18)
(18.947 -21.4271 7.08754e-16)
(17.6613 -22.2273 -3.59123e-16)
(16.1578 -22.8556 -3.49519e-16)
(14.4426 -23.3119 3.56601e-16)
(12.5136 -23.5046 0)
(10.4273 -23.444 3.60065e-16)
(8.18929 -22.9642 -1.76068e-16)
(5.86492 -22.0704 6.91534e-19)
(3.6262 -20.6665 1.64804e-19)
(2.04151 -19.0682 -1.78312e-19)
(20.3121 -6.17642 -3.61294e-18)
(20.512 -6.46111 3.69575e-18)
(20.7151 -6.75941 -4.80331e-16)
(20.9213 -7.07619 -1.35984e-21)
(21.1281 -7.40938 4.9521e-16)
(21.338 -7.7627 4.01406e-18)
(21.5469 -8.13492 -5.2274e-16)
(21.7552 -8.52749 5.29649e-16)
(21.961 -8.94446 5.44783e-16)
(22.1614 -9.38572 -5.37853e-16)
(22.3574 -9.85728 -4.35355e-18)
(22.5411 -10.3559 5.61004e-16)
(22.7131 -10.885 5.65521e-16)
(22.869 -11.4467 5.73129e-16)
(23.0027 -12.0428 4.45771e-18)
(23.1116 -12.68 5.88701e-16)
(23.183 -13.3517 5.80493e-16)
(23.2159 -14.0647 -2.27581e-18)
(23.1938 -14.8201 5.92897e-16)
(23.1083 -15.612 -5.84729e-16)
(22.9442 -16.449 -3.00888e-16)
(22.6797 -17.3156 -2.28728e-18)
(22.2989 -18.2131 -2.34516e-18)
(21.7641 -19.1213 2.98963e-16)
(21.0514 -20.0196 2.30971e-18)
(20.126 -20.8921 0)
(18.9952 -21.6761 -2.84598e-16)
(17.6608 -22.3458 2.86062e-16)
(16.129 -22.8626 -2.78477e-16)
(14.3711 -23.2189 -2.81525e-16)
(12.4369 -23.3276 -2.78792e-16)
(10.3694 -23.1454 -2.81202e-16)
(8.21126 -22.6181 1.37601e-16)
(5.98733 -21.6975 -1.37621e-16)
(3.8949 -20.3399 -6.60685e-17)
(2.31622 -18.7979 1.37257e-19)
(21.2783 -6.51051 -1.34695e-17)
(21.4829 -6.80954 4.47688e-16)
(21.6897 -7.1229 8.95073e-16)
(21.8983 -7.45482 4.58088e-16)
(22.1065 -7.80315 -4.64686e-16)
(22.3161 -8.1716 3.73548e-18)
(22.5222 -8.55949 4.89886e-16)
(22.7255 -8.96835 -4.96112e-16)
(22.9233 -9.40114 -5.05815e-16)
(23.113 -9.85813 0)
(23.2945 -10.3451 5.15916e-16)
(23.4598 -10.8579 -5.19209e-16)
(23.6088 -11.4005 -5.22789e-16)
(23.7364 -11.9734 0)
(23.8364 -12.5788 0)
(23.9044 -13.2223 -1.07317e-15)
(23.928 -13.8963 4.17176e-18)
(23.9046 -14.6073 -4.1632e-18)
(23.8176 -15.3533 -5.37683e-16)
(23.6579 -16.1277 5.28616e-16)
(23.4088 -16.9352 0)
(23.0494 -17.7584 -5.20645e-16)
(22.5619 -18.6021 -2.65779e-16)
(21.9139 -19.4476 2.0062e-18)
(21.1035 -20.2633 2.51379e-16)
(20.1139 -21.0344 -2.47681e-16)
(18.926 -21.7263 -2.37697e-16)
(17.5331 -22.317 -1.86708e-18)
(15.9666 -22.7518 2.31678e-16)
(14.2174 -23.0166 2.34403e-16)
(12.3186 -23.0373 2.31096e-16)
(10.3114 -22.7816 -4.50618e-19)
(8.23462 -22.2156 -1.12915e-16)
(6.12066 -21.2813 2.25181e-16)
(4.1621 -19.9737 5.381e-17)
(2.61272 -18.4899 2.84792e-17)
(22.1692 -6.82802 0)
(22.3748 -7.13974 -4.15653e-16)
(22.5813 -7.46618 -4.35206e-16)
(22.7879 -7.81057 4.41669e-16)
(22.9926 -8.17139 -6.94005e-18)
(23.1962 -8.55271 4.63615e-16)
(23.3937 -8.95314 -4.70717e-16)
(23.5856 -9.37463 3.6624e-18)
(23.7686 -9.81906 4.88314e-16)
(23.9402 -10.2871 -3.70706e-23)
(24.0993 -10.7842 -3.81642e-18)
(24.2379 -11.3051 0)
(24.3552 -11.8546 -4.92517e-16)
(24.4453 -12.431 0)
(24.502 -13.0372 4.87093e-16)
(24.5198 -13.6778 5.02456e-16)
(24.4862 -14.3436 0)
(24.3971 -15.0401 3.84587e-18)
(24.2373 -15.7631 9.74767e-16)
(23.9983 -16.5066 4.76281e-16)
(23.6622 -17.2758 -4.82681e-16)
(23.208 -18.0587 -4.58159e-16)
(22.6298 -18.8457 2.29261e-16)
(21.9131 -19.6145 2.23351e-16)
(21.0387 -20.3578 -2.17956e-16)
(19.985 -21.065 4.28875e-16)
(18.7497 -21.688 4.12691e-16)
(17.3389 -22.1995 2.07991e-16)
(15.7729 -22.5567 -7.79224e-19)
(14.0467 -22.7443 -2.00385e-16)
(12.1952 -22.6942 -7.67191e-19)
(10.2548 -22.3846 -1.94418e-16)
(8.26522 -21.785 9.44728e-17)
(6.26638 -20.8456 -9.45213e-17)
(4.43246 -19.5902 0)
(2.92617 -18.1652 -2.38641e-17)
(22.7958 -6.8261 0)
(22.9998 -7.13389 6.25254e-18)
(23.2022 -7.45644 -6.3813e-18)
(23.4039 -7.79349 -4.20359e-16)
(23.6034 -8.14789 -4.19195e-16)
(23.7987 -8.5189 -4.27551e-16)
(23.9901 -8.91036 -4.4523e-16)
(24.1724 -9.31998 -4.44107e-16)
(24.3461 -9.75029 -4.48003e-16)
(24.507 -10.2021 -4.50918e-16)
(24.6526 -10.6764 0)
(24.7812 -11.1782 -4.61778e-16)
(24.8846 -11.7013 0)
(24.9614 -12.2507 -7.43409e-21)
(25.0051 -12.8229 0)
(25.0093 -13.4216 -4.52634e-16)
(24.9686 -14.0498 -4.55558e-16)
(24.8719 -14.698 -4.47001e-16)
(24.7143 -15.3713 -4.41063e-16)
(24.4814 -16.0664 -4.40732e-16)
(24.1623 -16.7826 3.32108e-18)
(23.7466 -17.5137 4.22279e-16)
(23.2266 -18.2384 4.05556e-16)
(22.5853 -18.9687 -2.0088e-16)
(21.8041 -19.6882 -1.95364e-16)
(20.8735 -20.3803 -1.89148e-16)
(19.7819 -21.0242 -1.89132e-16)
(18.5266 -21.5796 -3.62879e-16)
(17.1134 -22.0218 -3.6036e-16)
(15.5604 -22.3113 -1.76147e-16)
(13.8685 -22.4309 -6.88473e-19)
(12.074 -22.3213 6.66098e-19)
(10.2049 -21.9658 1.68136e-16)
(8.30823 -21.3377 -8.05632e-17)
(6.42583 -20.4006 -8.17777e-17)
(4.70898 -19.198 -1.54192e-19)
(3.25503 -17.8321 2.06545e-17)
(23.5704 -7.1104 3.90333e-16)
(23.768 -7.42735 -6.03398e-18)
(23.9621 -7.7581 -6.14316e-18)
(24.1533 -8.10322 4.09882e-16)
(24.3396 -8.46535 4.07841e-16)
(24.519 -8.84374 -6.38398e-18)
(24.6915 -9.24194 0)
(24.8518 -9.65703 4.21188e-16)
(24.9998 -10.092 4.16353e-16)
(25.1312 -10.5466 4.37033e-16)
(25.243 -11.0222 4.29996e-16)
(25.3328 -11.5228 4.28029e-16)
(25.3931 -12.0418 -6.62984e-18)
(25.4222 -12.5842 4.19932e-16)
(25.4141 -13.1461 -4.20761e-16)
(25.3625 -13.731 -4.07404e-16)
(25.2625 -14.3412 8.14707e-16)
(25.1042 -14.9692 7.94899e-16)
(24.8796 -15.6238 -3.05067e-18)
(24.5792 -16.2931 3.01701e-18)
(24.1991 -16.967 -3.7231e-16)
(23.7264 -17.6528 0)
(23.1458 -18.342 0)
(22.4474 -19.0335 1.76391e-16)
(21.6206 -19.7066 0)
(20.6551 -20.3464 1.67602e-16)
(19.5407 -20.9319 -1.6528e-16)
(18.2756 -21.4262 1.60046e-16)
(16.8692 -21.8052 1.59891e-16)
(15.3386 -22.0319 1.54741e-16)
(13.6898 -22.0889 0)
(11.9587 -21.9261 0)
(10.1656 -21.5303 5.80372e-19)
(8.36608 -20.8795 7.10116e-17)
(6.59934 -19.9508 7.14465e-17)
(4.9929 -18.801 3.47126e-17)
(3.59806 -17.4946 -3.586e-17)
(24.2758 -7.38052 -3.62212e-16)
(24.4615 -7.70377 -3.68277e-16)
(24.6416 -8.0403 0)
(24.8162 -8.39118 0)
(24.9834 -8.75833 -3.85242e-16)
(25.1407 -9.14092 3.78426e-16)
(25.2879 -9.54227 6.10786e-18)
(25.4198 -9.95906 -6.13585e-18)
(25.5357 -10.3945 1.22461e-17)
(25.6313 -10.8474 -4.02173e-16)
(25.7034 -11.3196 -3.80812e-16)
(25.7495 -11.8143 -4.00306e-16)
(25.7638 -12.3246 5.9758e-18)
(25.7445 -12.8562 3.76352e-16)
(25.6861 -13.4049 -9.1706e-21)
(25.5823 -13.9753 3.62448e-16)
(25.426 -14.5723 -3.61451e-16)
(25.2102 -15.1833 -3.51945e-16)
(24.9311 -15.8076 -3.45325e-16)
(24.5799 -16.442 0)
(24.146 -17.0888 -3.28788e-16)
(23.6204 -17.7465 0)
(22.9941 -18.4019 0)
(22.2553 -19.0546 2.43433e-18)
(21.3957 -19.6839 -2.36985e-18)
(20.4043 -20.2753 0)
(19.2749 -20.8061 1.46502e-16)
(18.0081 -21.2421 0)
(16.6161 -21.5602 0)
(15.1151 -21.7266 1.37028e-16)
(13.5161 -21.7249 1.39826e-16)
(11.8525 -21.5127 1.04443e-18)
(10.1398 -21.0809 0)
(8.43988 -20.4137 6.37288e-17)
(6.78674 -19.4986 -2.483e-19)
(5.28473 -18.4009 -3.07056e-17)
(3.95394 -17.1543 1.59164e-17)
(24.8994 -7.6318 1.07127e-17)
(25.0682 -7.95911 3.5815e-16)
(25.2293 -8.29945 -3.62327e-16)
(25.3823 -8.65371 -3.5294e-16)
(25.5254 -9.02312 3.48352e-16)
(25.656 -9.40698 1.11665e-17)
(25.7732 -9.80832 3.61377e-16)
(25.8723 -10.2236 -5.63877e-18)
(25.9522 -10.6562 3.63377e-16)
(26.0093 -11.1044 0)
(26.0406 -11.5703 3.43795e-16)
(26.0442 -12.0567 7.03314e-16)
(26.0156 -12.5568 5.35559e-18)
(25.9515 -13.0778 -3.41749e-16)
(25.8461 -13.6177 6.70376e-16)
(25.6932 -14.1771 -3.23173e-16)
(25.4888 -14.752 0)
(25.2279 -15.3365 4.89628e-18)
(24.9017 -15.9398 -9.61889e-18)
(24.5036 -16.5538 -2.98927e-16)
(24.0261 -17.1766 2.92456e-16)
(23.4608 -17.8057 0)
(22.7989 -18.4294 2.79772e-16)
(22.028 -19.0459 -2.77378e-16)
(21.1424 -19.6338 2.11158e-18)
(20.1318 -20.1782 -2.06702e-18)
(18.9943 -20.6554 1.3087e-16)
(17.7323 -21.0339 -1.25231e-16)
(16.3606 -21.2922 -1.99455e-18)
(14.8952 -21.3996 -1.24126e-16)
(13.3512 -21.3421 -1.25757e-16)
(11.7578 -21.084 0)
(10.1297 -20.6202 0)
(8.53026 -19.9422 -5.73555e-17)
(6.98767 -19.0453 -5.71596e-17)
(5.58474 -17.9988 2.7893e-17)
(4.32137 -16.8123 -1.42935e-17)
(25.436 -7.86247 1.00858e-17)
(25.584 -8.19238 3.15655e-16)
(25.7225 -8.53454 3.18187e-16)
(25.8507 -8.89 1.02747e-17)
(25.9665 -9.2594 -3.33623e-16)
(26.0674 -9.64221 -3.29856e-16)
(26.1522 -10.0412 -6.53056e-16)
(26.2172 -10.4529 -1.02947e-17)
(26.261 -10.8808 -3.25093e-16)
(26.2811 -11.3228 0)
(26.2748 -11.7815 -3.15434e-16)
(26.2397 -12.2598 -3.14607e-16)
(26.1709 -12.7538 0)
(26.0644 -13.2678 4.73006e-18)
(25.9172 -13.7918 1.00922e-20)
(25.7239 -14.3306 2.85834e-16)
(25.4782 -14.889 4.51938e-18)
(25.1758 -15.459 1.76396e-22)
(24.8095 -16.045 2.71564e-16)
(24.3744 -16.6382 2.72517e-16)
(23.8618 -17.2379 2.62476e-16)
(23.264 -17.8404 -2.61724e-16)
(22.5723 -18.4342 -2.51113e-16)
(21.7748 -19.0156 2.49069e-16)
(20.8688 -19.5625 2.40943e-16)
(19.8446 -20.0597 3.71805e-18)
(18.7047 -20.4831 -1.21481e-16)
(17.453 -20.8043 3.56921e-18)
(16.107 -21.0032 5.09751e-22)
(14.6824 -21.0528 -1.75532e-18)
(13.1981 -20.9423 0)
(11.6767 -20.6421 0)
(10.1368 -20.1503 0)
(8.63757 -19.4666 -4.06767e-19)
(7.20177 -18.592 8.06401e-19)
(5.89298 -17.5955 -2.57511e-17)
(4.69904 -16.4693 1.29537e-17)
(25.8881 -8.07351 9.50022e-18)
(26.0127 -8.40443 2.54026e-21)
(26.1263 -8.74677 0)
(26.2277 -9.1018 2.96356e-16)
(26.3147 -9.46948 9.64678e-18)
(26.3849 -9.84964 5.97727e-16)
(26.4376 -10.245 3.13353e-16)
(26.4697 -10.6519 3.00636e-16)
(26.4801 -11.0746 0)
(26.4664 -11.511 0)
(26.425 -11.9656 2.86349e-16)
(26.3531 -12.439 8.91757e-18)
(26.2473 -12.9214 2.71022e-16)
(26.1046 -13.419 2.65702e-16)
(25.9211 -13.9302 -2.64268e-16)
(25.6908 -14.4587 0)
(25.409 -15.0046 -2.61615e-16)
(25.0724 -15.5598 3.97471e-18)
(24.6728 -16.1287 2.45512e-16)
(24.2064 -16.7024 0)
(23.6637 -17.2802 -4.70857e-16)
(23.0377 -17.857 4.65893e-16)
(22.3206 -18.4211 -2.23626e-16)
(21.5011 -18.9669 -3.52218e-18)
(20.5792 -19.4721 -2.19842e-16)
(19.5466 -19.921 1.68401e-18)
(18.4096 -20.29 1.66928e-18)
(17.1737 -20.5536 1.02516e-16)
(15.8585 -20.6937 3.27648e-18)
(14.4799 -20.6871 -1.0396e-16)
(13.059 -20.5261 0)
(11.6112 -20.188 7.71197e-19)
(10.162 -19.673 -9.91402e-17)
(8.76191 -18.9887 -4.75491e-17)
(7.42861 -18.1395 4.73936e-17)
(6.20936 -17.1918 0)
(5.08574 -16.1257 0)
(26.1524 -7.94797 -2.87749e-16)
(26.262 -8.26669 0)
(26.3615 -8.59726 -5.73077e-16)
(26.4487 -8.93844 2.951e-16)
(26.5224 -9.29165 -2.92485e-16)
(26.5804 -9.65642 8.8961e-18)
(26.6211 -10.033 -5.6643e-16)
(26.6438 -10.4242 0)
(26.6456 -10.8271 -2.74635e-16)
(26.6248 -11.2477 0)
(26.5788 -11.6809 -2.77796e-16)
(26.5047 -12.1264 8.15567e-18)
(26.4001 -12.5866 0)
(26.2619 -13.059 -2.54454e-16)
(26.0861 -13.5494 -2.49336e-16)
(25.8705 -14.0519 0)
(25.609 -14.5697 -7.45756e-18)
(25.2966 -15.103 -1.21755e-20)
(24.9304 -15.6441 -2.23668e-16)
(24.5017 -16.1969 -2.26347e-16)
(24.0076 -16.7517 -2.27083e-16)
(23.438 -17.3079 2.15436e-16)
(22.7871 -17.8586 3.37728e-18)
(22.0479 -18.3918 -2.03395e-20)
(21.21 -18.9006 0)
(20.2764 -19.3623 1.97014e-16)
(19.2401 -19.7614 1.01329e-16)
(18.1113 -20.0751 -3.04703e-18)
(16.8966 -20.281 4.46108e-18)
(15.6177 -20.363 9.44209e-17)
(14.2904 -20.303 9.23053e-17)
(12.9352 -20.0942 -9.245e-17)
(11.5635 -19.7226 -1.41005e-18)
(10.2065 -19.19 9.08155e-17)
(8.90331 -18.5098 4.43334e-17)
(7.66779 -17.6884 4.39011e-17)
(6.53368 -16.7885 -5.00625e-19)
(5.48021 -15.782 1.69671e-19)
(26.4772 -8.12511 2.86649e-16)
(26.5624 -8.44308 -2.83737e-16)
(26.6364 -8.77233 2.83073e-16)
(26.6973 -9.11141 -2.81568e-16)
(26.744 -9.46195 5.39355e-16)
(26.775 -9.82336 2.69715e-16)
(26.7883 -10.1972 2.47599e-16)
(26.7828 -10.5874 -2.54521e-16)
(26.7557 -10.9887 0)
(26.7054 -11.4019 2.46474e-16)
(26.6304 -11.8243 2.45742e-16)
(26.5272 -12.2621 -2.37781e-16)
(26.393 -12.7173 2.36682e-16)
(26.2261 -13.1837 0)
(26.0222 -13.6664 2.3414e-16)
(25.779 -14.1601 -2.32622e-16)
(25.4901 -14.6678 0)
(25.1505 -15.1894 2.0932e-16)
(24.7577 -15.717 6.5512e-18)
(24.3025 -16.2537 1.99544e-16)
(23.7832 -16.7896 2.09833e-16)
(23.1892 -17.3232 0)
(22.516 -17.8465 3.07867e-18)
(21.7574 -18.347 3.70667e-16)
(20.9045 -18.8165 -1.81245e-16)
(19.963 -19.2325 -1.85688e-16)
(18.9277 -19.5797 -1.79795e-16)
(17.8121 -19.8371 -8.93424e-17)
(16.6242 -19.9853 2.7307e-18)
(15.387 -20.0107 -9.09135e-17)
(14.1159 -19.9003 0)
(12.8282 -19.6477 -1.14237e-20)
(11.5358 -19.2469 0)
(10.2704 -18.7026 0)
(9.06154 -18.0308 -3.96182e-17)
(7.9189 -17.2394 -4.0838e-17)
(6.86558 -16.3862 0)
(5.88127 -15.4385 0)
(26.7332 -8.28718 0)
(26.7946 -8.60373 2.47155e-16)
(26.8444 -8.93113 -2.45931e-16)
(26.881 -9.26786 1.52518e-17)
(26.9027 -9.61659 -2.55269e-16)
(26.9083 -9.97806 -1.4985e-17)
(26.8955 -10.351 -2.19464e-16)
(26.8631 -10.735 4.65786e-16)
(26.8097 -11.1278 0)
(26.7333 -11.5351 -4.50592e-16)
(26.6322 -11.9542 0)
(26.5032 -12.388 0)
(26.3437 -12.8378 -4.32193e-16)
(26.1519 -13.2981 0)
(25.9229 -13.7737 -2.0072e-16)
(25.6549 -14.2591 3.98723e-16)
(25.3411 -14.7573 2.04358e-16)
(24.9766 -15.2672 2.03293e-16)
(24.5592 -15.7812 -6.00268e-18)
(24.0796 -16.3015 -1.8796e-16)
(23.5368 -16.8173 0)
(22.9204 -17.3268 5.59973e-18)
(22.227 -17.8206 -1.84482e-16)
(21.4515 -18.286 -1.77561e-16)
(20.5869 -18.7134 1.76576e-16)
(19.6416 -19.0812 1.67568e-16)
(18.6123 -19.3746 8.25005e-17)
(17.5153 -19.5749 8.21092e-17)
(16.3597 -19.6659 -2.51499e-18)
(15.1693 -19.6368 5.08281e-18)
(13.9584 -19.4791 -4.95336e-18)
(12.7394 -19.1878 8.15962e-17)
(11.528 -18.763 7.63421e-17)
(10.3531 -18.2125 1.19565e-18)
(9.23551 -17.553 3.6059e-17)
(8.18131 -16.7931 5.81958e-19)
(7.20461 -15.9858 -5.7208e-19)
(6.28774 -15.0958 0)
(26.9277 -8.43578 -1.446e-17)
(26.9673 -8.75089 1.42433e-17)
(26.9948 -9.07747 2.26436e-16)
(27.0084 -9.41531 -1.40245e-17)
(27.0064 -9.76363 1.37928e-17)
(26.9876 -10.1194 -4.40172e-16)
(26.9507 -10.4857 2.01296e-16)
(26.8946 -10.8658 -1.86808e-16)
(26.8179 -11.2562 3.61276e-23)
(26.7184 -11.6609 1.93477e-16)
(26.5947 -12.0765 -2.05573e-16)
(26.4432 -12.5062 -1.98866e-16)
(26.261 -12.9511 2.10142e-16)
(26.0466 -13.4057 3.10989e-22)
(25.7946 -13.8747 -1.77736e-17)
(25.5036 -14.3521 5.89305e-18)
(25.1665 -14.8405 -3.6261e-16)
(24.7785 -15.3386 -1.85961e-16)
(24.3378 -15.8382 1.75363e-16)
(23.835 -16.3406 -4.75892e-22)
(23.2702 -16.8349 -5.496e-22)
(22.633 -17.318 5.1284e-18)
(21.9215 -17.7796 0)
(21.1321 -18.2069 -4.93585e-18)
(20.2595 -18.5893 4.9115e-18)
(19.3149 -18.9065 -3.07974e-16)
(18.2968 -19.1445 0)
(17.2241 -19.2875 0)
(16.1063 -19.3228 -7.43047e-17)
(14.9666 -19.2423 0)
(13.8179 -19.0414 0)
(12.6681 -18.7171 0)
(11.5394 -18.2733 -7.05363e-17)
(10.4533 -17.7219 1.1063e-18)
(9.42368 -17.0782 3.45139e-17)
(8.45361 -16.3508 -1.08012e-18)
(7.55011 -15.5881 -2.65943e-19)
(6.69812 -14.7544 2.69002e-19)
(27.0385 -8.26853 1.3359e-17)
(27.0696 -8.5752 2.13442e-16)
(27.0886 -8.89197 -1.19772e-22)
(27.0945 -9.21855 -1.30345e-17)
(27.0857 -9.55083 2.06532e-16)
(27.0618 -9.89387 0)
(27.0214 -10.2474 1.89692e-16)
(26.9635 -10.6127 2.09681e-16)
(26.8868 -10.9909 1.22564e-17)
(26.7898 -11.3791 -2.41292e-17)
(26.6699 -11.7812 -1.89395e-16)
(26.5258 -12.1937 3.88882e-16)
(26.3536 -12.6197 1.70983e-16)
(26.1504 -13.0601 1.92654e-16)
(25.9147 -13.5094 0)
(25.641 -13.9716 1.7375e-16)
(25.3281 -14.4408 -1.72459e-16)
(24.9686 -14.919 1.66147e-16)
(24.558 -15.4042 1.6524e-16)
(24.0948 -15.888 -1.60736e-16)
(23.57 -16.3707 1.57706e-16)
(22.9844 -16.841 -1.55888e-16)
(22.328 -17.2948 1.5062e-16)
(21.6008 -17.7212 1.50491e-16)
(20.8006 -18.1071 0)
(19.9244 -18.4416 0)
(18.9857 -18.706 1.41851e-16)
(17.9847 -18.8877 -4.37833e-18)
(16.9416 -18.9744 6.55196e-18)
(15.8655 -18.9568 6.87391e-17)
(14.7795 -18.8287 -7.3919e-17)
(13.6948 -18.5883 2.10338e-18)
(12.6174 -18.2365 0)
(11.5723 -17.7798 1.02074e-18)
(10.5723 -17.2318 -2.05077e-18)
(9.62643 -16.6072 -3.10514e-17)
(8.73519 -15.9135 -3.16385e-17)
(7.90145 -15.1939 -4.95035e-19)
(7.11076 -14.4146 0)
(27.1533 -8.40389 -2.44219e-22)
(27.1647 -8.71005 -2.46174e-17)
(27.1634 -9.02226 2.42149e-17)
(27.1494 -9.34458 -2.40264e-16)
(27.121 -9.67612 -1.66448e-16)
(27.0778 -10.0192 1.86902e-16)
(27.0189 -10.3719 1.74521e-16)
(26.9427 -10.7358 -1.70157e-16)
(26.8477 -11.1123 0)
(26.7323 -11.4988 1.10832e-17)
(26.5936 -11.8987 1.63043e-16)
(26.4305 -12.3085 -1.73047e-16)
(26.2388 -12.731 0)
(26.0156 -13.167 -3.4307e-16)
(25.7595 -13.6107 1.01729e-17)
(25.4647 -14.0659 1.00565e-20)
(25.1304 -14.526 0)
(24.7491 -14.9928 1.52403e-16)
(24.3164 -15.4636 -1.42052e-16)
(23.8314 -15.9297 1.38226e-16)
(23.2853 -16.3902 -1.44705e-16)
(22.6802 -16.8336 2.81695e-16)
(22.0067 -17.2548 -1.34046e-16)
(21.2666 -17.6425 -1.38308e-16)
(20.4594 -17.9837 0)
(19.5844 -18.2675 -1.33244e-16)
(18.657 -18.4777 -1.34987e-16)
(17.6781 -18.6036 4.04444e-18)
(16.6687 -18.6361 0)
(15.6393 -18.5682 6.37093e-17)
(14.612 -18.3966 6.42242e-17)
(13.5934 -18.1221 6.2186e-17)
(12.5917 -17.7469 1.94964e-18)
(11.6285 -17.2833 -3.7851e-18)
(10.7109 -16.7429 1.90309e-18)
(9.84416 -16.1402 9.31472e-19)
(9.0264 -15.4812 2.89748e-17)
(8.25805 -14.8037 2.30684e-19)
(7.52521 -14.0765 -2.32795e-19)
(27.225 -8.52937 2.27903e-17)
(27.2182 -8.8328 -1.8173e-16)
(27.1992 -9.14516 1.78636e-16)
(27.1676 -9.46806 -3.97927e-21)
(27.1225 -9.79959 -1.53303e-16)
(27.0627 -10.1422 -1.93567e-16)
(26.9874 -10.494 -1.71267e-16)
(26.8948 -10.8569 -1.66959e-16)
(26.7827 -11.2325 0)
(26.6499 -11.6176 0)
(26.4934 -12.0156 0)
(26.312 -12.4228 0)
(26.1015 -12.8418 -1.53713e-16)
(25.8587 -13.273 1.43125e-16)
(25.5825 -13.7106 9.33596e-18)
(25.267 -14.1577 -1.46223e-16)
(24.9114 -14.6077 1.45073e-16)
(24.5085 -15.0614 1.21028e-20)
(24.0541 -15.5158 -8.69159e-18)
(23.548 -15.9615 8.46009e-18)
(22.9817 -16.3968 -1.3291e-16)
(22.3586 -16.8099 -1.31438e-16)
(21.6705 -17.1948 7.95404e-18)
(20.9209 -17.5402 1.19305e-16)
(20.1114 -17.8335 -1.19276e-16)
(19.2426 -18.0649 1.19011e-16)
(18.3306 -18.2209 -1.9129e-20)
(17.3787 -18.2918 0)
(16.4092 -18.2724 5.98749e-17)
(15.433 -18.1578 -5.90837e-17)
(14.4685 -17.9463 5.92477e-17)
(13.5163 -17.6434 -5.7481e-17)
(12.5914 -17.2513 5.77453e-17)
(11.7072 -16.7861 0)
(10.8679 -16.2572 0)
(10.0755 -15.6783 -2.85921e-17)
(9.32637 -15.0545 -2.78454e-17)
(8.6186 -14.418 8.59822e-19)
(7.94096 -13.7406 0)
(27.2721 -8.35464 2.14099e-17)
(27.2606 -8.65017 -2.10368e-17)
(27.2381 -8.95454 -2.09537e-17)
(27.2039 -9.26741 4.11784e-17)
(27.1572 -9.59061 3.06042e-16)
(27.0971 -9.92216 -4.40298e-21)
(27.0224 -10.2644 0)
(26.9319 -10.616 0)
(26.8235 -10.9785 1.53606e-16)
(26.6951 -11.3534 0)
(26.5456 -11.7373 0)
(26.3717 -12.1334 0)
(26.1724 -12.5377 0)
(25.9432 -12.9527 2.82359e-16)
(25.6808 -13.3786 0)
(25.3845 -13.8091 -1.3712e-16)
(25.048 -14.2468 -8.38866e-18)
(24.6713 -14.6848 -2.4958e-16)
(24.2469 -15.1233 -2.64855e-16)
(23.7711 -15.5586 0)
(23.2446 -15.9807 7.77016e-18)
(22.6595 -16.3873 1.0683e-16)
(22.0207 -16.7663 7.54985e-18)
(21.3213 -17.1111 1.17096e-16)
(20.5665 -17.4109 -1.17122e-16)
(19.759 -17.6544 1.13494e-16)
(18.9003 -17.8327 1.13366e-16)
(18.0098 -17.9343 1.08161e-16)
(17.0922 -17.952 3.45998e-18)
(16.1698 -17.8835 -3.45752e-18)
(15.2507 -17.7266 5.81324e-17)
(14.3494 -17.4805 7.29626e-21)
(13.4655 -17.1544 0)
(12.6163 -16.7522 -1.08583e-16)
(11.8077 -16.29 3.25837e-18)
(11.0423 -15.7758 3.56278e-22)
(10.3194 -15.2225 2.41781e-17)
(9.63398 -14.6336 2.67271e-17)
(8.98252 -14.0371 -4.00503e-19)
(8.35699 -13.4076 -6.8617e-18)
(27.2929 -8.47478 -1.58128e-16)
(27.2677 -8.77135 -1.94147e-17)
(27.2316 -9.07649 1.93265e-17)
(27.1837 -9.39017 -3.037e-16)
(27.1232 -9.71387 -1.69185e-16)
(27.0494 -10.0457 1.67161e-16)
(26.9604 -10.3882 0)
(26.8551 -10.7399 0)
(26.7314 -11.1023 0)
(26.5871 -11.4765 1.40073e-16)
(26.421 -11.859 0)
(26.2297 -12.2528 -1.68607e-17)
(26.0123 -12.6538 1.67458e-17)
(25.7642 -13.064 -1.29618e-16)
(25.482 -13.4834 0)
(25.1653 -13.9053 1.25809e-16)
(24.8078 -14.3318 0)
(24.4098 -14.7556 -1.18882e-20)
(23.964 -15.1761 1.17858e-16)
(23.4675 -15.589 -1.24468e-16)
(22.9217 -15.984 -8.59944e-22)
(22.3199 -16.358 7.00976e-18)
(21.6684 -16.6989 0)
(20.9614 -17.0001 -1.0099e-16)
(20.205 -17.2523 -6.73776e-18)
(19.4036 -17.4444 0)
(18.5621 -17.5688 1.7044e-20)
(17.7012 -17.6169 6.44897e-18)
(16.8249 -17.5837 -6.40171e-18)
(15.9539 -17.4704 -5.13388e-17)
(15.0945 -17.2759 6.97855e-21)
(14.2561 -17.0022 -5.04301e-17)
(13.442 -16.658 -3.07256e-18)
(12.6661 -16.2518 5.25628e-17)
(11.9294 -15.7968 0)
(11.2331 -15.3001 0)
(10.5747 -14.7735 -2.54776e-17)
(9.94843 -14.2192 1.5066e-18)
(9.34987 -13.6614 0)
(8.77323 -13.0776 6.00823e-18)
(27.3175 -8.30726 -1.8355e-16)
(27.2896 -8.59645 1.4588e-16)
(27.2518 -8.89414 0)
(27.203 -9.20047 1.42501e-16)
(27.1425 -9.51507 2.79802e-16)
(27.0691 -9.83947 -1.55774e-16)
(26.9819 -10.172 1.70908e-17)
(26.8789 -10.515 0)
(26.7591 -10.8671 0)
(26.6201 -11.2292 0)
(26.4596 -11.6025 -2.41218e-16)
(26.2768 -11.9832 -1.57984e-17)
(26.0678 -12.3741 -1.23812e-16)
(25.8319 -12.7709 -1.07534e-16)
(25.5645 -13.1751 -1.33802e-16)
(25.262 -13.5865 0)
(24.9245 -13.9978 -1.44224e-17)
(24.5457 -14.4107 2.82327e-17)
(24.1263 -14.8174 9.79382e-17)
(23.6598 -15.2166 0)
(23.1435 -15.6034 1.20878e-16)
(22.5805 -15.9672 9.16812e-17)
(21.9647 -16.3044 6.43782e-18)
(21.3038 -16.6038 -1.08363e-16)
(20.5922 -16.8593 0)
(19.839 -17.0615 6.20058e-18)
(19.0512 -17.2011 -6.02758e-18)
(18.2353 -17.2717 -9.04338e-17)
(17.4104 -17.2683 8.33801e-17)
(16.5804 -17.1883 1.18396e-17)
(15.7644 -17.0357 1.28389e-21)
(14.9654 -16.8082 -5.22912e-17)
(14.1904 -16.513 0)
(13.446 -16.1576 -2.83929e-18)
(12.74 -15.7524 5.71942e-18)
(12.071 -15.3081 4.20152e-17)
(11.4391 -14.8312 1.41333e-18)
(10.8403 -14.3321 2.08797e-17)
(10.2687 -13.8118 2.24007e-17)
(9.71942 -13.2916 -1.11003e-17)
(9.18861 -12.7511 0)
(27.3051 -8.43026 -3.38556e-17)
(27.2658 -8.72096 0)
(27.2162 -9.02021 -1.31969e-16)
(27.1556 -9.32776 4.05959e-21)
(27.083 -9.64347 -1.28755e-16)
(26.9968 -9.96892 3.18348e-17)
(26.8962 -10.3024 -3.14226e-17)
(26.7792 -10.6461 3.08133e-17)
(26.6445 -10.9983 9.17708e-17)
(26.4899 -11.3598 8.94069e-17)
(26.313 -11.7316 1.62297e-16)
(26.1128 -12.1099 -1.44896e-17)
(25.8856 -12.4968 1.13516e-16)
(25.6306 -12.8881 1.12602e-16)
(25.3431 -13.2847 2.18018e-16)
(25.0198 -13.6859 -1.35073e-17)
(24.6612 -14.0842 2.64233e-17)
(24.2609 -14.4804 1.10338e-21)
(23.8206 -14.8667 -1.28142e-17)
(23.3343 -15.2406 -1.23904e-17)
(22.8002 -15.5971 2.462e-17)
(22.2224 -15.9257 -1.08088e-16)
(21.5955 -16.2229 0)
(20.9279 -16.4782 -1.51505e-20)
(20.2173 -16.6849 0)
(19.4752 -16.8355 -9.12242e-17)
(18.7092 -16.9222 -5.55291e-18)
(17.9253 -16.9409 -1.12747e-21)
(17.1418 -16.8898 1.10036e-17)
(16.3623 -16.768 -5.46756e-18)
(15.6037 -16.5813 0)
(14.8644 -16.3275 -4.2779e-17)
(14.1541 -16.0159 4.28366e-17)
(13.4771 -15.6559 4.19355e-17)
(12.8372 -15.2559 0)
(12.2313 -14.8254 -4.14842e-17)
(11.6588 -14.3701 0)
(11.1149 -13.8989 0)
(10.5936 -13.4119 -2.0784e-17)
(10.0899 -12.928 1.03074e-17)
(9.60153 -12.4283 -5.1813e-18)
(27.2745 -8.55735 -3.11879e-17)
(27.2243 -8.84986 3.09416e-17)
(27.1635 -9.15059 1.21434e-16)
(27.0913 -9.45959 -2.1111e-16)
(27.0064 -9.77671 -1.18348e-16)
(26.9072 -10.1034 5.84893e-17)
(26.793 -10.4379 5.76926e-17)
(26.6614 -10.7819 -5.65517e-17)
(26.5115 -11.1338 -1.96341e-16)
(26.3407 -11.4941 -8.19623e-17)
(26.1466 -11.8637 -2.70354e-17)
(25.9283 -12.2382 2.6541e-17)
(25.682 -12.6198 -2.59837e-17)
(25.4072 -13.0038 0)
(25.0991 -13.3905 9.47182e-21)
(24.7545 -13.7789 -9.88591e-17)
(24.3745 -14.1611 0)
(23.9531 -14.5371 9.46666e-17)
(23.4929 -14.8989 -1.17228e-17)
(22.9884 -15.2435 1.02098e-16)
(22.4388 -15.5657 1.12699e-17)
(21.8484 -15.8559 -1.10023e-17)
(21.2135 -16.1097 0)
(20.5453 -16.3178 8.58337e-17)
(19.844 -16.4737 -8.36492e-17)
(19.1206 -16.572 8.37773e-17)
(18.3828 -16.6073 0)
(17.6367 -16.5774 5.11565e-18)
(16.8993 -16.4834 -8.60803e-17)
(16.1736 -16.3258 -5.03838e-18)
(15.4727 -16.1098 8.01172e-17)
(14.793 -15.8362 8.84709e-17)
(14.1471 -15.5148 -4.92595e-17)
(13.5342 -15.1553 -2.89943e-17)
(12.9561 -14.7642 -4.87442e-18)
(12.4087 -14.3501 -4.07459e-17)
(11.8909 -13.9175 2.4206e-18)
(11.3972 -13.4742 -1.19591e-18)
(10.922 -13.0195 1.20313e-18)
(10.4604 -12.5706 8.95685e-18)
(10.0113 -12.1094 5.39954e-18)
(27.2787 -8.40233 -3.47698e-21)
(27.2278 -8.68974 -2.86856e-17)
(27.1668 -8.98398 1.13755e-16)
(27.0948 -9.28636 1.11566e-16)
(27.0106 -9.59712 1.10737e-16)
(26.913 -9.91573 1.08592e-16)
(26.8005 -10.2436 -1.34094e-16)
(26.672 -10.5786 1.32183e-16)
(26.5253 -10.9225 2.59041e-17)
(26.3594 -11.2734 7.70238e-17)
(26.1715 -11.6315 1.00037e-16)
(25.9593 -11.9976 1.23653e-16)
(25.722 -12.3669 -1.21336e-16)
(25.4558 -12.7412 0)
(25.1603 -13.1155 -7.05924e-17)
(24.8311 -13.4895 -1.13971e-16)
(24.465 -13.8619 9.02862e-17)
(24.0639 -14.2242 0)
(23.6224 -14.5759 1.15326e-20)
(23.144 -14.9091 0)
(22.6234 -15.2203 -8.29641e-17)
(22.0599 -15.505 -8.2423e-17)
(21.4608 -15.753 0)
(20.8245 -15.9602 -8.92223e-17)
(20.164 -16.1185 -1.68303e-21)
(19.479 -16.223 9.57505e-18)
(18.7809 -16.2703 -9.60752e-18)
(18.0773 -16.2573 9.38632e-18)
(17.3741 -16.1834 0)
(16.6866 -16.052 0)
(16.0163 -15.8642 -4.6198e-18)
(15.372 -15.6253 9.18404e-18)
(14.7526 -15.3375 -4.50752e-18)
(14.1686 -15.0128 0)
(13.616 -14.658 0)
(13.0952 -14.279 -3.59201e-17)
(12.6016 -13.8831 3.31749e-17)
(12.1337 -13.4741 2.23439e-18)
(11.686 -13.0583 1.98972e-17)
(11.2531 -12.6351 -3.33685e-18)
(10.8305 -12.2194 -1.60185e-17)
(10.4173 -11.7945 3.88254e-18)
(27.2789 -8.25689 7.2022e-23)
(27.2273 -8.53868 -3.60988e-21)
(27.166 -8.82809 -5.26742e-17)
(27.0941 -9.12423 -1.04355e-16)
(27.0103 -9.42857 -1.02306e-16)
(26.9135 -9.74102 1.26834e-16)
(26.8027 -10.0609 -4.97283e-17)
(26.6759 -10.3894 2.20895e-16)
(26.5324 -10.7243 -2.41736e-17)
(26.3697 -11.0673 -4.73698e-17)
(26.1867 -11.4161 -2.34553e-17)
(25.9808 -11.7707 2.28526e-17)
(25.7495 -12.1315 -1.80599e-16)
(25.4923 -12.4935 1.7715e-16)