/*--------------------------------*- C++ -*----------------------------------*\
  =========                 |
  \\      /  F ield         | OpenFOAM: The Open Source CFD Toolbox
   \\    /   O peration     | Website:  https://openfoam.org
    \\  /    A nd           | Version:  8
     \\/     M anipulation  |
\*---------------------------------------------------------------------------*/
FoamFile
{
    version     2.0;
    format      ascii;
    class       surfaceScalarField;
    location    "0.19";
    object      phi;
}
// * * * * * * * * * * * * * * * * * * * * * * * * * * * * * * * * * * * * * //

dimensions      [0 3 -1 0 0 0 0];

internalField   nonuniform List<scalar> 
217113
(
-0.0035998
0.0263998
-0.00840013
0.0708003
-0.0119998
0.1152
-0.0167993
0.1596
-0.0215988
0.203999
-0.0251984
0.2484
-0.0287981
0.2916
-0.0323977
0.336
-0.0359973
0.3792
-0.0395969
0.4248
-0.0419965
0.4668
-0.0455961
0.5112
-0.0491957
0.5556
-0.0527953
0.5976
-0.0539949
0.6408
-0.0575945
0.6852
-0.061194
0.7272
-0.0635936
0.7704
-0.0659932
0.8124
-0.0671928
0.8544
-0.0707923
0.8976
-0.0719919
0.9384
-0.0743915
0.9804
-0.075591
1.0224
-0.0779906
1.0632
-0.0791901
1.104
-0.0815897
1.146
-0.0827892
1.1844
-0.0839888
1.2252
-0.0863883
1.266
-0.0875879
1.3044
-0.0887875
1.344
-0.089987
1.3824
-0.0899866
1.4208
-0.0911862
1.4592
-0.0911857
1.4964
-0.0923853
1.5348
-0.0935849
1.572
-0.0935844
1.608
-0.094784
1.644
-0.0947836
1.68
-0.0947832
1.716
-0.0947828
1.7496
-0.0947823
1.7856
-0.0947819
1.8192
-0.0947815
1.8528
-0.0947811
1.8864
-0.0935807
1.9188
-0.0935803
1.9512
-0.09358
1.9836
-0.0923796
2.0136
-0.0923792
2.046
-0.0911788
2.0748
-0.0905784
2.10564
-0.0897381
2.13468
-0.0887777
2.16336
-0.0878174
2.19168
-0.086857
2.2194
-0.0856567
2.24652
-0.0844563
2.27304
-0.083256
2.2992
-0.0819357
2.32464
-0.0804954
2.34948
-0.0790551
2.37384
-0.0776148
2.3976
-0.0760545
2.42076
-0.0743742
2.4432
-0.0728139
2.46528
-0.0711336
2.48664
-0.0693333
2.50728
-0.0675331
2.52744
-0.0656128
2.54688
-0.0636926
2.56572
-0.0616523
2.58396
-0.0596121
2.6016
-0.0576919
2.61864
-0.0555316
2.63484
-0.0533714
2.65044
-0.0512112
2.66556
-0.048931
2.67984
-0.0467708
2.69364
-0.0446106
2.7066
-0.0422104
2.71884
-0.0399303
2.73072
-0.0375301
2.74164
-0.0351299
2.75196
-0.0327298
2.76168
-0.0303296
2.77068
-0.0279295
2.77896
-0.0254094
2.78652
-0.0228892
2.79348
-0.0203691
2.79972
-0.017849
2.80536
-0.0152089
2.81004
-0.0128089
2.81436
-0.0102288
2.8178
-0.00767272
2.82058
-0.00510464
2.82266
-0.00253661
2.82404
3.14631e-05
2.82475
0.00259948
2.82475
0.00516754
2.82404
0.00773555
2.82266
0.0102916
2.82058
0.0128716
2.8178
0.0152716
2.81436
0.0179116
2.81004
0.0204316
2.80536
0.0229515
2.79972
0.0254715
2.79348
0.0279914
2.78652
0.0303914
2.77896
0.0327913
2.77068
0.0351913
2.76168
0.0375912
2.75196
0.0399911
2.74164
0.042271
2.73072
0.0446709
2.71884
0.0468308
2.7066
0.0489907
2.69364
0.0512706
2.67984
0.0534304
2.66556
0.0555903
2.65044
0.0577501
2.63484
0.05967
2.61864
0.0617098
2.6016
0.0637496
2.58396
0.0656694
2.56572
0.0675893
2.54688
0.0693891
2.52744
0.0711889
2.50728
0.0728686
2.48664
0.0744284
2.46528
0.0761082
2.4432
0.0776679
2.42076
0.0791077
2.3976
0.0805474
2.37384
0.0819871
2.34948
0.0833069
2.32464
0.0845066
2.2992
0.0857063
2.27304
0.086906
2.24652
0.0878657
2.2194
0.0888254
2.19168
0.089785
2.16336
0.0906247
2.13468
0.0912244
2.10564
0.092424
2.0748
0.0924237
2.046
0.0936233
2.0136
0.0936229
1.9836
0.0936226
1.9512
0.0948222
1.9188
0.0948218
1.8864
0.0948214
1.8528
0.094821
1.8192
0.0948206
1.7856
0.0948202
1.7496
0.0948197
1.716
0.0948193
1.68
0.0936189
1.644
0.0936184
1.608
0.0924179
1.572
0.0912175
1.5348
0.091217
1.4964
0.0900166
1.4592
0.0900161
1.4208
0.0888156
1.3824
0.0876152
1.344
0.0864147
1.3044
0.0840142
1.266
0.0828137
1.2252
0.0816132
1.1844
0.0792127
1.146
0.0780122
1.104
0.0756116
1.0632
0.0744111
1.0224
0.0720106
0.980401
0.0708101
0.9384
0.0672096
0.897601
0.0660091
0.854401
0.0636086
0.812401
0.061208
0.770401
0.0576075
0.727201
0.054007
0.685201
0.0528065
0.640801
0.0492059
0.597601
0.0456054
0.555601
0.0420048
0.511201
0.0396043
0.466801
0.0360038
0.424801
0.0324033
0.379201
0.0288028
0.336
0.0252023
0.2916
0.0216017
0.248401
0.016801
0.204001
0.0120002
0.159601
0.00839977
0.1152
0.00360029
0.0707995
0.0264003
-0.00479885
0.0311986
-0.00959908
0.0756006
-0.0131993
0.1188
-0.0179987
0.164399
-0.0215974
0.207598
-0.0239961
0.250798
-0.0287949
0.296398
-0.0323938
0.339599
-0.0359927
0.382799
-0.0395915
0.428398
-0.0431903
0.470398
-0.0467891
0.514798
-0.0479879
0.556798
-0.0515866
0.601198
-0.0551853
0.644398
-0.0575841
0.687598
-0.0599828
0.729598
-0.0623815
0.772798
-0.0647802
0.814798
-0.0683788
0.857998
-0.0695775
0.898798
-0.0731761
0.941998
-0.0743748
0.981598
-0.0767735
1.0248
-0.0779722
1.0644
-0.0803708
1.1064
-0.0815694
1.1472
-0.0839681
1.1868
-0.0851667
1.2264
-0.0851654
1.266
-0.0863641
1.3056
-0.0875627
1.3452
-0.0887614
1.3836
-0.08996
1.422
-0.0911587
1.4604
-0.0923574
1.4976
-0.0923561
1.5348
-0.0923548
1.572
-0.0935534
1.6092
-0.0935522
1.644
-0.0947508
1.6812
-0.0935496
1.7148
-0.0947483
1.7508
-0.0947471
1.7856
-0.0947458
1.8192
-0.0947446
1.8528
-0.0947433
1.8864
-0.0935422
1.9176
-0.093541
1.9512
-0.0923398
1.9824
-0.0935386
2.0148
-0.0911375
2.0436
-0.0911364
2.0748
-0.0905352
2.10504
-0.0896941
2.13384
-0.088853
2.16252
-0.0877719
2.1906
-0.0866909
2.21832
-0.0856099
2.24544
-0.0845289
2.27196
-0.0832078
2.29788
-0.0818869
2.32332
-0.0804459
2.34804
-0.0791249
2.37252
-0.0775641
2.39604
-0.0760031
2.4192
-0.0744422
2.44164
-0.0727614
2.4636
-0.0709605
2.48484
-0.0691597
2.50548
-0.0673589
2.52564
-0.0654381
2.54496
-0.0636373
2.56392
-0.0617166
2.58204
-0.0596759
2.59956
-0.0575151
2.61648
-0.0554745
2.6328
-0.0534338
2.6484
-0.0511532
2.66328
-0.0489925
2.67768
-0.0467119
2.69136
-0.0444314
2.70432
-0.0421508
2.71656
-0.0397503
2.72832
-0.0374698
2.73936
-0.0350693
2.74956
-0.0326689
2.75928
-0.0301484
2.76816
-0.0277481
2.77656
-0.0253476
2.78412
-0.0228273
2.79096
-0.0203069
2.7972
-0.0177867
2.80284
-0.0152664
2.80752
-0.0127461
2.81184
-0.0101538
2.81521
-0.00759758
2.81802
-0.00502939
2.8201
-0.00247325
2.82149
9.49114e-05
2.82218
0.00266302
2.82218
0.00521915
2.82149
0.00778723
2.8201
0.0103433
2.81802
0.0129353
2.81521
0.0154553
2.81184
0.0179752
2.80752
0.0204952
2.80284
0.0230151
2.7972
0.0255351
2.79096
0.0279349
2.78412
0.0303348
2.77656
0.0328545
2.76816
0.0352543
2.75928
0.0376541
2.74956
0.0399339
2.73936
0.0423336
2.72832
0.0446133
2.71656
0.046893
2.70432
0.0491726
2.69136
0.0513322
2.67768
0.0536118
2.66328
0.0556514
2.6484
0.0576909
2.6328
0.0598504
2.61648
0.0618899
2.59956
0.0638094
2.58204
0.0656089
2.56392
0.0675282
2.54496
0.0693276
2.52564
0.071127
2.50548
0.0729263
2.48484
0.0746057
2.4636
0.0761649
2.44164
0.0777241
2.4192
0.0792834
2.39604
0.0806027
2.37252
0.0820418
2.34804
0.083361
2.32332
0.0846801
2.29788
0.0857592
2.27196
0.0868383
2.24544
0.0879174
2.21832
0.0889964
2.1906
0.0898354
2.16252
0.0906744
2.13384
0.0912734
2.10504
0.0912723
2.0748
0.0936713
2.0436
0.0924701
2.0148
0.093669
1.9824
0.0936678
1.9512
0.0948667
1.9176
0.0948655
1.8864
0.0948643
1.8528
0.0948631
1.8192
0.0948618
1.7856
0.0936605
1.7508
0.0948593
1.7148
0.0936579
1.6812
0.0936566
1.644
0.0924552
1.6092
0.0924538
1.572
0.0924525
1.5348
0.0912511
1.4976
0.0900496
1.4604
0.0888482
1.422
0.0876467
1.3836
0.0864452
1.3452
0.0852437
1.3056
0.0852423
1.266
0.0840408
1.2264
0.0816392
1.1868
0.0804377
1.1472
0.0780361
1.1064
0.0768346
1.0644
0.074433
1.0248
0.0732315
0.981602
0.0696298
0.942002
0.0684283
0.898802
0.0648266
0.858002
0.062425
0.814802
0.0600234
0.772802
0.0576218
0.729602
0.0552202
0.687602
0.0516186
0.644402
0.0480169
0.601202
0.0468154
0.556802
0.0432138
0.514802
0.0396122
0.470402
0.0360105
0.428402
0.032409
0.382802
0.0288075
0.339602
0.0240058
0.296402
0.0216038
0.250803
0.0180019
0.207603
0.013201
0.164402
0.00960141
0.1188
0.00480179
0.0755991
0.0312021
-0.00479827
0.0359969
-0.00839739
0.0791997
-0.0131979
0.1236
-0.0167978
0.167999
-0.0203964
0.211197
-0.0251942
0.255596
-0.0287921
0.299996
-0.0323901
0.343197
-0.0359883
0.386397
-0.0383864
0.430796
-0.0431843
0.475196
-0.0455823
0.517196
-0.0491803
0.560396
-0.0527782
0.604796
-0.0551761
0.646796
-0.057574
0.689996
-0.0611718
0.733196
-0.0635696
0.775196
-0.0659674
0.817196
-0.0671653
0.859196
-0.070763
0.902396
-0.0719609
0.943196
-0.0755585
0.985196
-0.0767563
1.026
-0.079154
1.0668
-0.0803518
1.1076
-0.0815496
1.1484
-0.0827474
1.188
-0.0839451
1.2276
-0.0863428
1.2684
-0.0875405
1.3068
-0.0887383
1.3464
-0.089936
1.3848
-0.0911338
1.4232
-0.0911316
1.4604
-0.0923293
1.4988
-0.0923272
1.5348
-0.0935249
1.5732
-0.0935227
1.6092
-0.0947205
1.6452
-0.0935184
1.68
-0.0947163
1.716
-0.0947141
1.7508
-0.0947119
1.7856
-0.0947099
1.8192
-0.0947078
1.8528
-0.0935058
1.8852
-0.0947037
1.9188
-0.0935017
1.95
-0.0934997
1.9824
-0.0922978
2.0136
-0.0922958
2.0436
-0.0922939
2.0748
-0.090492
2.10324
-0.0896501
2.133
-0.0886883
2.16156
-0.0877265
2.18964
-0.0867647
2.21736
-0.0855629
2.24424
-0.0843612
2.27076
-0.0830395
2.29656
-0.0817179
2.322
-0.0805163
2.34684
-0.0789546
2.37096
-0.077513
2.3946
-0.0759515
2.41764
-0.0742701
2.43996
-0.0725885
2.46192
-0.0709071
2.48316
-0.0692257
2.5038
-0.0673043
2.52372
-0.065503
2.54316
-0.0634617
2.56188
-0.0615404
2.58012
-0.0596192
2.59764
-0.057578
2.61444
-0.0554168
2.63064
-0.0532558
2.64624
-0.0510946
2.66112
-0.0489336
2.67552
-0.0466526
2.68908
-0.0443716
2.70204
-0.0420906
2.71428
-0.0398098
2.72604
-0.037409
2.73696
-0.0350081
2.74716
-0.0326074
2.75688
-0.0302066
2.76576
-0.0276858
2.77404
-0.0251653
2.7816
-0.0227646
2.78856
-0.020244
2.79468
-0.0177235
2.80032
-0.015203
2.805
-0.0126825
2.80932
-0.0101022
2.81263
-0.00754582
2.81546
-0.00497751
2.81753
-0.00240915
2.81892
0.000159103
2.81962
0.0027273
2.81962
0.0052954
2.81892
0.00786355
2.81753
0.0104197
2.81546
0.0129997
2.81263
0.0155198
2.80932
0.0180397
2.805
0.0205596
2.80032
0.0230794
2.79468
0.0254792
2.78856
0.0279991
2.7816
0.0305188
2.77404
0.0329185
2.76576
0.0353181
2.75688
0.0377177
2.74716
0.0401173
2.73696
0.0423969
2.72604
0.0446763
2.71428
0.0469557
2.70204
0.0492351
2.68908
0.0513945
2.67552
0.0535537
2.66112
0.0557131
2.64624
0.0578723
2.63064
0.0599114
2.61444
0.0618306
2.59764
0.0637497
2.58012
0.0657887
2.56188
0.0675877
2.54316
0.0695067
2.52372
0.0711856
2.5038
0.0728645
2.48316
0.0745432
2.46192
0.0762221
2.43996
0.0777808
2.41764
0.0792196
2.3946
0.0807782
2.37096
0.0819768
2.34684
0.0832954
2.322
0.084614
2.29656
0.0858124
2.27076
0.0870109
2.24424
0.0879692
2.21736
0.0889277
2.18964
0.089886
2.16156
0.0907242
2.133
0.0925225
2.10324
0.0925208
2.0748
0.0925189
2.0436
0.093717
2.0136
0.0937151
1.9824
0.0949132
1.95
0.0937111
1.9188
0.0949092
1.8852
0.0949071
1.8528
0.0949051
1.8192
0.0949029
1.7856
0.0949007
1.7508
0.0936985
1.716
0.0948964
1.68
0.0936941
1.6452
0.0936918
1.6092
0.0924895
1.5732
0.0924872
1.5348
0.0912848
1.4988
0.0912824
1.4604
0.09008
1.4232
0.0888775
1.3848
0.0876751
1.3464
0.0864725
1.3068
0.0840699
1.2684
0.0828674
1.2276
0.0816649
1.188
0.0804624
1.1484
0.0792598
1.1076
0.0768571
1.0668
0.0756545
1.026
0.0720518
0.985205
0.0708492
0.943205
0.0672465
0.902405
0.0660439
0.859205
0.0636412
0.817205
0.0612385
0.775205
0.0576358
0.733205
0.0552331
0.690005
0.0528305
0.646805
0.0492277
0.604805
0.045625
0.560405
0.0432224
0.517205
0.0384196
0.475205
0.036017
0.430805
0.0324144
0.386405
0.0288117
0.343205
0.0252086
0.300005
0.0204053
0.255606
0.0168032
0.211205
0.0132032
0.168002
0.00840405
0.123599
0.0048027
0.0792005
0.0360048
-0.00359824
0.0395952
-0.00839596
0.0839974
-0.0131959
0.1284
-0.0167964
0.171599
-0.0215955
0.215996
-0.025193
0.259194
-0.0287899
0.303593
-0.032387
0.346794
-0.0359843
0.389994
-0.0395816
0.434394
-0.0419789
0.477594
-0.0455761
0.520794
-0.0491731
0.563993
-0.0515703
0.607193
-0.0551673
0.650393
-0.0575643
0.692393
-0.0599613
0.735593
-0.0623583
0.777593
-0.0659552
0.820793
-0.0683521
0.861593
-0.0695491
0.903593
-0.0719459
0.945593
-0.0743428
0.987593
-0.0755397
1.02719
-0.0779365
1.06919
-0.0791334
1.10879
-0.0815301
1.15079
-0.082727
1.18919
-0.0851237
1.22999
-0.0863206
1.26959
-0.0875174
1.30799
-0.0875143
1.34639
-0.0887111
1.38599
-0.0899079
1.42439
-0.0911047
1.46159
-0.0911017
1.49879
-0.0934984
1.53719
-0.0934953
1.57319
-0.0934922
1.60919
-0.0934892
1.64519
-0.094686
1.68119
-0.0946831
1.71599
-0.0946801
1.75079
-0.0946771
1.78559
-0.094674
1.81919
-0.0946711
1.85279
-0.0946682
1.88519
-0.0934654
1.91759
-0.0934625
1.94999
-0.0934596
1.98239
-0.0922569
2.01239
-0.0922541
2.04359
-0.0910514
2.07359
-0.0904487
2.10263
-0.0896061
2.13215
-0.0886435
2.16059
-0.0878009
2.18879
-0.0865984
2.21615
-0.0855158
2.24315
-0.0843134
2.26955
-0.083111
2.29535
-0.0817885
2.32067
-0.0803462
2.34539
-0.0789041
2.36951
-0.0774618
2.39315
-0.0757796
2.41596
-0.0743374
2.43852
-0.0726554
2.46024
-0.0708532
2.48136
-0.0690512
2.502
-0.0672493
2.52192
-0.0654475
2.54136
-0.0635256
2.55996
-0.0614838
2.57808
-0.059442
2.5956
-0.0574004
2.6124
-0.0553586
2.6286
-0.0531971
2.64408
-0.0511556
2.65908
-0.048874
2.67324
-0.0465925
2.6868
-0.0443112
2.69976
-0.04215
2.71212
-0.0397486
2.72364
-0.0373473
2.73456
-0.0349462
2.74476
-0.0325451
2.75448
-0.0301441
2.76336
-0.0276231
2.77152
-0.0252222
2.7792
-0.0227013
2.78604
-0.0201804
2.79216
-0.0176596
2.7978
-0.015139
2.80248
-0.0124983
2.80668
-0.0100377
2.81017
-0.00746912
2.81289
-0.00491269
2.81497
-0.00234429
2.81635
0.000224066
2.81705
0.00279236
2.81705
0.00536061
2.81635
0.00791682
2.81497
0.0104849
2.8129
0.012945
2.81017
0.0155849
2.80668
0.0181049
2.80248
0.0206247
2.7978
0.0231445
2.79216
0.0256642
2.78604
0.0280639
2.7792
0.0305836
2.77152
0.0329831
2.76336
0.0353827
2.75448
0.0377822
2.74476
0.0401815
2.73456
0.0425807
2.72364
0.04474
2.71212
0.0470193
2.69976
0.0492984
2.6868
0.0515774
2.67324
0.0536165
2.65908
0.0557754
2.64408
0.0578142
2.6286
0.0598532
2.6124
0.0618918
2.5956
0.0639306
2.57808
0.0658492
2.55996
0.0676478
2.54136
0.0694464
2.52192
0.0712448
2.502
0.0730431
2.48136
0.0747215
2.46024
0.0761598
2.43852
0.077838
2.41596
0.079276
2.39316
0.0807142
2.36952
0.0821523
2.3454
0.0834702
2.32068
0.0846681
2.29536
0.085866
2.26956
0.0869437
2.24316
0.0881415
2.21617
0.0889792
2.18881
0.0899368
2.16061
0.0907744
2.13217
0.0913719
2.10265
0.0925693
2.07361
0.0925667
2.04361
0.0937642
2.01241
0.0937613
1.98241
0.0937586
1.95001
0.0949559
1.91761
0.0949529
1.88521
0.09495
1.85281
0.094947
1.81921
0.094944
1.78561
0.094941
1.75081
0.094938
1.71601
0.0937347
1.68121
0.0937315
1.64521
0.0937283
1.60921
0.0937251
1.57321
0.0913216
1.53721
0.0913183
1.49881
0.0901149
1.46161
0.0889114
1.42441
0.087708
1.38601
0.0877045
1.34641
0.086501
1.30801
0.0852975
1.26961
0.0828938
1.23001
0.0816902
1.18921
0.0792865
1.15081
0.0780829
1.10881
0.0756792
1.06921
0.0744756
1.02721
0.0720718
0.987609
0.069668
0.945608
0.0684644
0.903608
0.0660606
0.861608
0.0624568
0.820809
0.060053
0.777609
0.0576493
0.735609
0.0552455
0.692409
0.0516417
0.650409
0.0492379
0.607209
0.0456341
0.564009
0.0420303
0.520809
0.0396266
0.477609
0.0360229
0.434408
0.0324192
0.390008
0.028815
0.346809
0.0252104
0.30361
0.0216068
0.259209
0.0168055
0.216006
0.0132064
0.171601
0.00840631
0.128399
0.00360276
0.084004
0.0396075
-0.00479808
0.0443932
-0.00959492
0.0887942
-0.0131936
0.131999
-0.0167941
0.1752
-0.0203941
0.219596
-0.025192
0.263991
-0.0287883
0.30719
-0.0323844
0.35039
-0.0359808
0.39359
-0.0395773
0.43799
-0.0431737
0.48119
-0.0467701
0.52439
-0.0491665
0.56639
-0.0527627
0.61079
-0.0551589
0.65279
-0.058755
0.695989
-0.0611512
0.737989
-0.0635473
0.779989
-0.0647435
0.821989
-0.0683394
0.865189
-0.0707354
0.905989
-0.0731314
0.947989
-0.0743274
0.988789
-0.0767233
1.02959
-0.0779193
1.07039
-0.0803152
1.11119
-0.0815111
1.15199
-0.0827071
1.19039
-0.0839029
1.23119
-0.0850988
1.27079
-0.0862947
1.30919
-0.0886905
1.34879
-0.0898863
1.38719
-0.0898823
1.42439
-0.0910782
1.46279
-0.0922741
1.49999
-0.0922701
1.53719
-0.0922662
1.57319
-0.0934621
1.61039
-0.0934581
1.64519
-0.0934541
1.68119
-0.0946501
1.71719
-0.0946461
1.75079
-0.0946423
1.78559
-0.0946384
1.81919
-0.0934347
1.85159
-0.0934309
1.88519
-0.094627
1.91879
-0.0934233
1.94879
-0.0922197
1.98119
-0.092216
2.01239
-0.0910124
2.04239
-0.0910089
2.07359
-0.0904054
2.10203
-0.0895619
2.13131
-0.0887185
2.15975
-0.0876351
2.18771
-0.0865519
2.21507
-0.0854686
2.24207
-0.0842654
2.26835
-0.0830622
2.29415
-0.0817392
2.31935
-0.0802962
2.34395
-0.0789731
2.36819
-0.0774102
2.39159
-0.0758473
2.41439
-0.0741645
2.43683
-0.0724817
2.45855
-0.0707992
2.47967
-0.0691165
2.50031
-0.0673139
2.52011
-0.0652715
2.53931
-0.0634691
2.55815
-0.0615465
2.57615
-0.0595044
2.59355
-0.0574621
2.61035
-0.0553001
2.62643
-0.0531378
2.64191
-0.0509758
2.65691
-0.0488138
2.67107
-0.0465321
2.68451
-0.0442502
2.69748
-0.0419684
2.70984
-0.0395667
2.72124
-0.0372851
2.73228
-0.0348837
2.74236
-0.0324821
2.75208
-0.0299607
2.76084
-0.0276794
2.76924
-0.0250382
2.77656
-0.022637
2.78364
-0.0201161
2.78964
-0.017595
2.79528
-0.0150742
2.79996
-0.0125532
2.80416
-0.00996054
2.80758
-0.0074159
2.81035
-0.00484716
2.8124
-0.00227864
2.81378
0.000289823
2.81448
0.00285821
2.81448
0.00542654
2.81378
0.00799464
2.8124
0.0105388
2.81035
0.013131
2.80758
0.0156509
2.80416
0.0181709
2.79996
0.0206907
2.79528
0.0232106
2.78964
0.0256102
2.78364
0.0282498
2.77656
0.0305293
2.76924
0.0330488
2.76084
0.035448
2.75208
0.0378473
2.74236
0.0401265
2.73228
0.0425256
2.72124
0.0448045
2.70984
0.0470834
2.69748
0.0493624
2.68452
0.0515211
2.67108
0.0536798
2.65692
0.0558383
2.64192
0.057997
2.62644
0.0600353
2.61036
0.0620739
2.59356
0.063992
2.57616
0.0657902
2.55816
0.0678285
2.53932
0.0696265
2.52013
0.0713044
2.50033
0.0729824
2.47969
0.0746602
2.45857
0.0763379
2.43685
0.0778956
2.41441
0.0794532
2.39161
0.0807705
2.36821
0.082208
2.34397
0.0835254
2.31937
0.0847226
2.29417
0.0859198
2.26837
0.0869969
2.24209
0.088074
2.21509
0.089151
2.18773
0.0899878
2.15977
0.0908246
2.13133
0.0914213
2.10205
0.0914181
2.07361
0.0926147
2.04241
0.0926111
2.01241
0.0938077
1.98121
0.0950041
1.94881
0.0938003
1.91881
0.0937965
1.88521
0.0949929
1.85161
0.094989
1.81921
0.0949851
1.78561
0.0949811
1.75081
0.0937769
1.71721
0.0937728
1.68121
0.0937687
1.64521
0.0925644
1.61041
0.0925603
1.57321
0.092556
1.53721
0.0913516
1.50001
0.0901472
1.46281
0.0901428
1.42441
0.0889382
1.38721
0.0865336
1.34881
0.0853291
1.30921
0.0841244
1.27081
0.0829197
1.23121
0.0817152
1.19041
0.0805104
1.15201
0.0781057
1.11121
0.076901
1.07041
0.0744962
1.02961
0.0732915
0.988813
0.0708866
0.948013
0.0684818
0.906013
0.0648767
0.865214
0.063672
0.822013
0.0612672
0.780013
0.0588624
0.738013
0.0552574
0.696014
0.0528526
0.652813
0.0492476
0.610814
0.0468428
0.566413
0.0432379
0.524414
0.0396331
0.481213
0.0360283
0.438013
0.0324231
0.393613
0.0288174
0.350415
0.0252121
0.307215
0.0204089
0.264013
0.016809
0.219606
0.0132099
0.1752
0.00960797
0.132001
0.00480303
0.0888089
0.0444106
-0.004798
0.0491912
-0.00839457
0.0923908
-0.0131917
0.136796
-0.0179913
0.179999
-0.0215918
0.223196
-0.0251907
0.26759
-0.0287871
0.310786
-0.0323824
0.353985
-0.0371776
0.398386
-0.0395734
0.440386
-0.043169
0.484786
-0.0455647
0.526786
-0.0491602
0.569985
-0.0515557
0.613185
-0.055151
0.656385
-0.0575464
0.698385
-0.0599417
0.740385
-0.0635368
0.783584
-0.065932
0.824384
-0.0671273
0.866384
-0.0695225
0.908384
-0.0719175
0.950384
-0.0743125
0.991184
-0.0767075
1.03198
-0.0779025
1.07158
-0.0802974
1.11358
-0.0814924
1.15318
-0.0838873
1.19278
-0.0850823
1.23238
-0.0862773
1.27198
-0.0874722
1.31038
-0.0886671
1.34998
-0.0886622
1.38718
-0.0898571
1.42558
-0.091052
1.46398
-0.0922469
1.50118
-0.092242
1.53718
-0.093437
1.57438
-0.093432
1.61038
-0.094627
1.64638
-0.0946222
1.68118
-0.0946173
1.71718
-0.0946125
1.75078
-0.0946077
1.78558
-0.0946029
1.81918
-0.0945981
1.85158
-0.0945935
1.88518
-0.0933888
1.91759
-0.0933842
1.94879
-0.0933797
1.98119
-0.0921752
2.01119
-0.0921707
2.04239
-0.0909662
2.07239
-0.090362
2.10143
-0.0895177
2.13047
-0.0885535
2.15879
-0.0875894
2.18675
-0.0866251
2.21411
-0.0854211
2.24087
-0.0842171
2.26715
-0.0830134
2.29295
-0.0816894
2.31803
-0.0803657
2.34263
-0.0788019
2.36663
-0.0772384
2.39003
-0.0757949
2.41295
-0.0742312
2.43527
-0.0725478
2.45687
-0.0708644
2.47799
-0.0689413
2.49839
-0.0671382
2.51831
-0.0653349
2.53751
-0.0634119
2.55623
-0.061369
2.57411
-0.0593261
2.59151
-0.0572833
2.60831
-0.0552407
2.62439
-0.0531981
2.63987
-0.0509155
2.65463
-0.0486333
2.66879
-0.0464707
2.68235
-0.0443084
2.69531
-0.0419063
2.70743
-0.0396243
2.71895
-0.0371024
2.72975
-0.0348204
2.74007
-0.0324186
2.74967
-0.0300169
2.75843
-0.0274953
2.76671
-0.0250938
2.77416
-0.0224523
2.781
-0.0200509
2.78724
-0.0175298
2.79276
-0.0150084
2.79744
-0.0124876
2.80164
-0.00990635
2.805
-0.00733755
2.80778
-0.00478082
2.80985
-0.00221219
2.81121
0.00035639
2.81191
0.00292487
2.81191
0.00549329
2.81121
0.00804961
2.80985
0.0106179
2.80778
0.0131976
2.805
0.0157179
2.80164
0.0182375
2.79744
0.0207574
2.79276
0.0231571
2.78724
0.0257966
2.781
0.0281961
2.77416
0.0307155
2.76672
0.0331148
2.75844
0.035514
2.74968
0.037793
2.74008
0.0403121
2.72976
0.0425911
2.71896
0.0449899
2.70744
0.0471486
2.69532
0.0493069
2.68236
0.0515855
2.6688
0.0538639
2.65465
0.0559022
2.63989
0.0579404
2.62441
0.0599785
2.60833
0.0620163
2.59153
0.0640543
2.57413
0.0659721
2.55625
0.0677695
2.53753
0.0695672
2.51833
0.0714848
2.49841
0.0731621
2.47801
0.0748394
2.45689
0.0763964
2.43529
0.0778334
2.41297
0.0793906
2.39005
0.0809474
2.36665
0.0822642
2.34265
0.0835808
2.31805
0.0847776
2.29297
0.0859741
2.26717
0.0871706
2.24089
0.0881266
2.21413
0.089083
2.18677
0.0900391
2.15881
0.0908751
2.13049
0.0914712
2.10145
0.092667
2.07241
0.0926627
2.04241
0.0938585
2.01121
0.0938541
1.98121
0.0938496
1.94881
0.0950451
1.91761
0.0950405
1.88521
0.0950357
1.85161
0.095031
1.81922
0.095026
1.78562
0.0950212
1.75082
0.0950162
1.71722
0.0950112
1.68122
0.0938059
1.64642
0.0938008
1.61042
0.0925954
1.57442
0.0925902
1.53722
0.0913847
1.50122
0.0901792
1.46402
0.0889737
1.42562
0.0889683
1.38722
0.0877626
1.35002
0.086557
1.31042
0.0853513
1.27202
0.0841456
1.23242
0.0817398
1.19282
0.080534
1.15322
0.0781281
1.11362
0.0769223
1.07162
0.0745163
1.03202
0.0721104
0.991219
0.0697044
0.950419
0.0672984
0.908419
0.0660927
0.866419
0.0636867
0.824419
0.0600806
0.78362
0.0576746
0.740419
0.0552687
0.698419
0.0516626
0.65642
0.0492567
0.61322
0.0456507
0.570019
0.0432449
0.526819
0.039639
0.484819
0.037233
0.440419
0.0324262
0.39842
0.0288193
0.354021
0.0252142
0.31082
0.0216125
0.267614
0.0180135
0.223205
0.0132131
0.18
0.00840858
0.136806
0.00480319
0.0924143
0.0492138
-0.00359814
0.0527894
-0.00839442
0.0971871
-0.0119904
0.140392
-0.0167886
0.184798
-0.0215889
0.227997
-0.0251887
0.27119
-0.0287859
0.314383
-0.0323809
0.35758
-0.0359753
0.40198
-0.03957
0.443981
-0.0419649
0.487181
-0.0455597
0.53038
-0.0491544
0.57358
-0.052749
0.61678
-0.0551436
0.658779
-0.0575381
0.700779
-0.0611324
0.743979
-0.062327
0.784779
-0.0659212
0.827979
-0.0683154
0.868778
-0.0707096
0.910778
-0.071904
0.951578
-0.074298
0.993578
-0.0754922
1.03318
-0.0790861
1.07518
-0.0790804
1.11358
-0.0814743
1.15558
-0.0826683
1.19398
-0.0838624
1.23358
-0.0850564
1.27318
-0.0874501
1.31278
-0.0874443
1.34998
-0.0898381
1.38958
-0.091032
1.42678
-0.0910262
1.46398
-0.0910203
1.50118
-0.0922143
1.53838
-0.0934082
1.57558
-0.0934023
1.61038
-0.0933966
1.64638
-0.0945906
1.68238
-0.0933849
1.71598
-0.0945789
1.75198
-0.0945732
1.78558
-0.0933676
1.81798
-0.0945618
1.85278
-0.0945561
1.88518
-0.0933507
1.91638
-0.0933452
1.94878
-0.0933397
1.98118
-0.0933343
2.01118
-0.092129
2.04118
-0.0909238
2.07118
-0.0903186
2.10082
-0.0893534
2.1295
-0.0885083
2.15794
-0.0875433
2.18578
-0.0864585
2.21302
-0.0853737
2.23978
-0.0841688
2.26594
-0.082964
2.29174
-0.0816395
2.3167
-0.0801948
2.34118
-0.0787506
2.36518
-0.0773061
2.38858
-0.0757418
2.41138
-0.0740578
2.43358
-0.0724937
2.4553
-0.0706896
2.47619
-0.0690056
2.49671
-0.0670818
2.51639
-0.0652781
2.53571
-0.0632344
2.55419
-0.0613109
2.57219
-0.0593876
2.58959
-0.0572243
2.60615
-0.0551808
2.62235
-0.0530177
2.63771
-0.0508547
2.65247
-0.0486917
2.66663
-0.046529
2.68019
-0.0441263
2.69291
-0.0418438
2.70515
-0.0394412
2.71655
-0.0371586
2.72747
-0.0347564
2.73767
-0.0323543
2.74727
-0.0299523
2.75603
-0.0274301
2.76419
-0.0250285
2.77175
-0.0225067
2.77847
-0.019985
2.78471
-0.0174635
2.79023
-0.0149422
2.79491
-0.0123008
2.799
-0.00983974
2.80254
-0.00728254
2.80522
-0.00471366
2.80728
-0.0021449
2.80865
0.000423787
2.80934
0.00299237
2.80934
0.00556087
2.80865
0.00812926
2.80728
0.0106853
2.80523
0.0131455
2.80254
0.0157854
2.799
0.0183054
2.79492
0.020825
2.79024
0.0233446
2.78472
0.0258641
2.77848
0.0282637
2.77176
0.0307827
2.7642
0.0331819
2.75604
0.0355809
2.74728
0.0379799
2.73768
0.0402585
2.72748
0.0426571
2.71656
0.0449357
2.70517
0.0473341
2.69293
0.0494925
2.68021
0.0516506
2.66665
0.0538087
2.65249
0.0559666
2.63773
0.0580042
2.62237
0.0601619
2.60617
0.0620795
2.58961
0.063997
2.57221
0.0660342
2.55421
0.0678315
2.53573
0.0697485
2.51641
0.0714254
2.49673
0.0732222
2.47621
0.0747789
2.45533
0.0764557
2.43361
0.0780122
2.41141
0.0794484
2.38861
0.0808849
2.36521
0.0823209
2.34121
0.0836369
2.31673
0.0848327
2.29177
0.0860284
2.26598
0.0871042
2.23982
0.0881799
2.21306
0.0891353
2.18582
0.0899706
2.15798
0.0909259
2.12954
0.091521
2.10086
0.0927161
2.07122
0.0939111
2.04122
0.0939059
2.01122
0.0939006
1.98122
0.0938952
1.94882
0.09509
1.91642
0.0950843
1.88522
0.0938785
1.85282
0.0950729
1.81802
0.0950671
1.78562
0.093861
1.75202
0.0950552
1.71602
0.0938489
1.68242
0.0938429
1.64642
0.0938367
1.61042
0.0926303
1.57562
0.0914238
1.53842
0.0914175
1.50122
0.0914112
1.46402
0.0902046
1.42682
0.0877977
1.38962
0.0877912
1.35002
0.0853842
1.31283
0.0841775
1.27323
0.0829707
1.23363
0.0817639
1.19403
0.0793568
1.15563
0.0793502
1.11363
0.0757429
1.07523
0.0745361
1.03323
0.0721289
0.993626
0.0709221
0.951626
0.068515
0.910826
0.0661079
0.868826
0.0625007
0.828027
0.0612938
0.784826
0.0576866
0.744027
0.0552796
0.700826
0.0528726
0.658827
0.0492654
0.616827
0.0456582
0.573627
0.0420512
0.530426
0.0396442
0.487226
0.0360367
0.444027
0.0324286
0.402028
0.0288214
0.357629
0.0252174
0.314424
0.0216172
0.271214
0.0168178
0.228004
0.0120151
0.184803
0.00840886
0.140412
0.003603
0.0972202
0.0528168
-0.00479778
0.0575872
-0.00959416
0.101983
-0.0131895
0.143988
-0.0167862
0.188394
-0.0203857
0.231596
-0.023986
0.27479
-0.0287841
0.319181
-0.0323796
0.361176
-0.0359734
0.405574
-0.0395671
0.447574
-0.043161
0.490775
-0.046755
0.533974
-0.049149
0.575974
-0.051543
0.619174
-0.0551366
0.662373
-0.0575303
0.703173
-0.059924
0.746373
-0.0635173
0.788372
-0.064711
0.829172
-0.0683041
0.872372
-0.0694977
0.911972
-0.0730906
0.955171
-0.0742841
0.994771
-0.0766771
1.03557
-0.0778703
1.07637
-0.0802634
1.11597
-0.0814565
1.15677
-0.0826497
1.19517
-0.0850425
1.23597
-0.0862356
1.27437
-0.0862288
1.31277
-0.0886216
1.35237
-0.0886147
1.38957
-0.0898077
1.42797
-0.0910007
1.46517
-0.0921938
1.50237
-0.0921868
1.53837
-0.09218
1.57557
-0.0933731
1.61157
-0.0945659
1.64757
-0.0933594
1.68117
-0.0945524
1.71717
-0.0945458
1.75197
-0.094539
1.78557
-0.0945324
1.81797
-0.0945257
1.85277
-0.0933193
1.88397
-0.0945125
1.91757
-0.0933062
1.94757
-0.0921
1.97997
-0.0920936
2.01117
-0.0920871
2.04117
-0.0908812
2.06997
-0.0902749
2.10021
-0.0894291
2.12866
-0.0885831
2.1571
-0.0874972
2.1847
-0.0865315
2.21206
-0.0853258
2.23858
-0.0842401
2.26486
-0.0827947
2.2903
-0.0814693
2.31538
-0.0801441
2.33986
-0.0788187
2.36386
-0.0772536
2.38702
-0.0756886
2.40982
-0.0741236
2.43202
-0.0723188
2.4535
-0.0706343
2.4745
-0.0688296
2.4949
-0.067025
2.51458
-0.0651008
2.53378
-0.0632964
2.55238
-0.0613723
2.57026
-0.0592081
2.58742
-0.0572842
2.60422
-0.0551204
2.62018
-0.0529568
2.63554
-0.0507934
2.65031
-0.0486297
2.66447
-0.0463466
2.67791
-0.0440633
2.69063
-0.0417801
2.70287
-0.0394973
2.71427
-0.0370943
2.72507
-0.0346917
2.73527
-0.0322892
2.74487
-0.0297666
2.75351
-0.0273645
2.76179
-0.0248421
2.76923
-0.02244
2.77607
-0.0199183
2.78219
-0.0173965
2.78771
-0.014875
2.79239
-0.0123534
2.79647
-0.00976012
2.79994
-0.00720298
2.80267
-0.00464567
2.80472
-0.00207677
2.80608
0.000492035
2.80677
0.00306072
2.80677
0.00562931
2.80608
0.00818548
2.80472
0.0107418
2.80267
0.013334
2.79995
0.0158539
2.79648
0.0183739
2.7924
0.0208935
2.78772
0.0234133
2.7822
0.0258126
2.77608
0.0283316
2.76924
0.030731
2.7618
0.0332497
2.75352
0.0356486
2.74488
0.0380474
2.73529
0.0404458
2.72509
0.0427243
2.71429
0.0450025
2.70289
0.0472805
2.69065
0.0495587
2.67793
0.0517162
2.66449
0.0538742
2.65033
0.0560317
2.63557
0.0581892
2.62021
0.0601065
2.60425
0.0622634
2.58745
0.0641805
2.57029
0.0659771
2.55241
0.067894
2.53381
0.0696904
2.51461
0.0714868
2.49493
0.0731633
2.47454
0.0749594
2.45354
0.0765154
2.43206
0.0780712
2.40986
0.079627
2.38706
0.0809424
2.3639
0.0822579
2.3399
0.0835733
2.31542
0.0850086
2.29034
0.0860835
2.2649
0.0872784
2.23862
0.0882333
2.2121
0.0893079
2.18474
0.0901424
2.15714
0.090977
2.1287
0.0915711
2.10026
0.0927656
2.07002
0.0927593
2.04122
0.0927532
2.01123
0.0939472
1.98003
0.0951411
1.94763
0.0939343
1.91763
0.0951281
1.88403
0.0951213
1.85283
0.0951147
1.81803
0.0951078
1.78563
0.095101
1.75203
0.0938938
1.71723
0.0950871
1.68123
0.0938795
1.64763
0.0926723
1.61163
0.092665
1.57563
0.0926575
1.53843
0.0914501
1.50243
0.0902424
1.46523
0.0890347
1.42803
0.0890271
1.38963
0.086619
1.35243
0.0866115
1.31283
0.0854037
1.27443
0.0829954
1.23603
0.0817876
1.19523
0.0805797
1.15683
0.0781715
1.11603
0.0769635
1.07643
0.0745552
1.03563
0.0733474
0.994834
0.0697388
0.955235
0.0685309
0.912034
0.0649224
0.872435
0.0637145
0.829235
0.0601061
0.788435
0.057698
0.746435
0.0552899
0.703235
0.0516815
0.662435
0.0492734
0.619235
0.0468655
0.576035
0.0432572
0.534035
0.0396487
0.490835
0.0360397
0.447636
0.0324308
0.405637
0.0288242
0.361235