/*--------------------------------*- C++ -*---------------------------------*\ 
| ========                 |                                                 | 
| \      /  F ield         | OpenFOAM: The Open Source CFD Toolbox           | 
|  \    /   O peration     | Version:  v1812                                 | 
|   \  /    A nd           | Web:      www.OpenFOAM.com                      | 
|    \/     M anipulation  |                                                 | 
\*--------------------------------------------------------------------------*/ 
FoamFile
{
    version     2.0;
    format      ascii;
    class       volVectorField;
    location    "/home/james/dafoam/myRuns/bezier_coanda_opt/0.00000000001/";
    object      sens_CL_shapey;
}
// * * * * * * * * * * * * * * * * * * * * * * * * * * * * * * * * * * * * * //

dimensions      [0 0 0 0 0 0 0];
internalField   uniform (0 0 0);
boundaryField
{
    allWalls
    {
        type  wall;
        value nonuniform List<vector>
164
(
(-0.073650 0.026578 0.000419)
(-0.092408 0.049071 0.000334)
(-0.082565 0.062420 0.000338)
(-0.071508 0.071971 0.000426)
(-0.063501 0.080817 0.000427)
(-0.054906 0.089985 0.000660)
(-0.052824 0.111509 0.001008)
(-0.050507 0.128191 0.000781)
(-0.047400 0.144075 0.000441)
(-0.041985 0.150257 0.001445)
(-0.036262 0.158747 0.002493)
(-0.032862 0.172917 0.002808)
(-0.028251 0.185229 0.003246)
(-0.024845 0.207649 0.003863)
(-0.019829 0.227240 0.004995)
(-0.014572 0.256209 0.005324)
(-0.007920 0.292086 0.006147)
(0.000534 0.345193 0.006493)
(0.011789 0.418834 0.006378)
(0.025363 0.494719 0.006035)
(0.037057 0.530383 0.003630)
(0.043785 0.516118 0.001810)
(0.052534 0.542310 0.000974)
(0.056678 0.533327 0.000361)
(0.064085 0.551448 -0.000064)
(0.073462 0.595722 -0.000212)
(0.076815 0.587705 -0.000189)
(0.083427 0.609749 -0.000189)
(0.088748 0.623333 -0.000189)
(0.093590 0.635473 -0.000189)
(0.097953 0.646153 -0.000273)
(0.101357 0.651990 -0.000356)
(0.103204 0.649436 -0.000355)
(0.104935 0.648318 -0.000355)
(0.107436 0.652476 -0.000355)
(0.107762 0.642948 -0.000355)
(0.102012 0.590029 -0.000265)
(0.094903 0.540105 -0.000176)
(0.083394 0.416756 -0.000176)
(0.101157 0.594055 -0.000176)
(-0.069704 0.470794 -0.000176)
(-0.004195 0.003345 -0.000176)
(-0.038178 0.210881 -0.000176)
(-0.052774 0.312105 -0.000265)
(-0.056862 0.338497 -0.000355)
(-0.056611 0.344336 -0.000355)
(-0.058489 0.360847 -0.000355)
(-0.060188 0.378256 -0.000355)
(-0.061252 0.393041 -0.000272)
(-0.061233 0.402774 -0.000189)
(-0.060248 0.407979 -0.000189)
(-0.058616 0.410638 -0.000189)
(-0.056436 0.411362 -0.000189)
(-0.053583 0.409197 0.000365)
(-0.050523 0.408187 0.000950)
(-0.045826 0.395061 0.000988)
(-0.046657 0.440964 0.000970)
(-0.040318 0.412127 0.000868)
(-0.031028 0.366620 0.000655)
(-0.028677 0.411777 -0.000192)
(-0.020369 0.399281 -0.001104)
(-0.010299 0.359587 -0.001463)
(-0.000919 0.300030 -0.001683)
(0.006142 0.244294 -0.001745)
(0.011754 0.214714 -0.002034)
(0.016524 0.192479 -0.002079)
(0.020661 0.170950 -0.001747)
(0.027518 0.172516 -0.001569)
(0.029420 0.152641 -0.001388)
(0.029091 0.125247 -0.001378)
(0.035058 0.128828 -0.001218)
(0.034356 0.111370 -0.000300)
(0.036343 0.094622 -0.000067)
(0.041091 0.080321 -0.000444)
(0.051103 0.060491 0.000009)
(0.021826 -0.011288 0.000399)
(0.008555 -0.048014 0.000157)
(0.066179 0.043016 0.000162)
(0.073406 0.116379 0.000413)
(-0.001282 0.072082 0.000417)
(0.053177 0.734953 -0.000176)
(-0.023026 0.538175 -0.000193)
(-0.007631 0.520937 -0.000211)
(0.031394 1.199339 -0.000211)
(0.052985 1.822711 -0.000211)
(0.051134 1.374024 -0.000211)
(0.076063 0.717939 -0.000211)
(0.351044 6.256521 -0.000211)
(1.357864 24.794887 -0.000211)
(-36.009987 -5.707157 -0.000129)
(369.328212 -655.060836 -0.000211)
(-43.877690 -40.566361 -0.000129)
(-352.310623 501.071397 -0.000129)
(15.007281 325.183304 -0.000048)
(16.499041 129.553670 -0.000048)
(8.168724 49.832100 -0.000048)
(4.030157 18.237305 -0.000048)
(1.965959 5.433006 -0.000048)
(0.867046 1.476685 -0.000048)
(1.109334 1.856674 -0.000048)
(0.303360 0.100993 -0.000048)
(1.793628 3.117848 -0.000027)
(2.179693 4.953222 -0.000005)
(0.681451 1.446200 -0.000005)
(1.769224 3.004310 -0.000005)
(1.886917 2.728003 -0.000005)
(7.392914 7.740712 -0.000005)
(16.917241 15.694636 -0.000005)
(6.154866 8.801215 -0.000005)
(-34.159838 -23.962019 -0.000005)
(-7.855913 -9.766235 -0.000005)
(75.286689 44.444396 -0.000005)
(71.863300 30.424845 -0.000005)
(-63.899162 -40.042968 -0.000005)
(-124.082941 -37.063383 -0.000005)
(-61.421199 -19.082357 -0.000005)
(-13.430375 -23.899959 -0.000005)
(33.201750 5.170340 -0.000005)
(41.242588 12.247489 -0.000005)
(15.105417 4.188557 -0.000005)
(2.113965 -1.424631 -0.000005)
(1.710987 -1.720387 -0.000005)
(2.077807 -1.378584 -0.000005)
(1.584989 -1.108976 -0.000005)
(2.670632 -1.361912 -0.000005)
(4.746459 -1.712728 -0.000005)
(4.063576 -1.445828 -0.000005)
(3.017058 -0.952497 -0.000005)
(1.399888 -0.359972 -0.000005)
(0.453863 0.014837 -0.000005)
(0.160803 0.106693 -0.000005)
(-0.214732 0.238516 -0.000005)
(-0.512128 0.342710 -0.000005)
(-0.692796 0.454174 -0.000005)
(-0.808852 0.594156 -0.000005)
(-0.865726 0.709781 -0.000005)
(-0.848963 0.749443 -0.000005)
(-0.803572 0.754330 -0.000005)
(-0.671621 0.648394 -0.000005)
(-0.434377 0.408559 -0.000005)
(-0.252247 0.224717 -0.000005)
(-0.142633 0.109413 -0.000005)
(-0.036467 -0.035522 -0.000027)
(0.062630 -0.205896 -0.000048)
(0.125569 -0.350165 -0.000048)
(0.172892 -0.515594 -0.000048)
(0.185752 -0.619633 -0.000048)
(0.160440 -0.618165 -0.000048)
(0.144004 -0.592283 -0.000048)
(0.121606 -0.441598 -0.000048)
(0.066718 -0.244507 -0.000048)
(-159.631987 -0.108069 -0.000129)
(159.703260 0.097289 -0.000129)
(1.698247 -9.785111 -0.000048)
(1.551896 -5.774504 -0.000129)
(-0.172493 5.248519 -0.000211)
(-0.035541 0.969809 -0.000211)
(-0.008335 0.148218 -0.000211)
(-0.014447 0.610791 -0.000211)
(-0.015960 0.610520 -0.000211)
(-0.013083 0.394031 -0.000211)
(0.007031 0.137310 -0.000211)
(0.032838 0.047979 -0.000193)
(-0.059748 0.570261 -0.000176)
)
;
    }
}
