/*--------------------------------*- C++ -*---------------------------------*\ 
| ========                 |                                                 | 
| \      /  F ield         | OpenFOAM: The Open Source CFD Toolbox           | 
|  \    /   O peration     | Version:  v1812                                 | 
|   \  /    A nd           | Web:      www.OpenFOAM.com                      | 
|    \/     M anipulation  |                                                 | 
\*--------------------------------------------------------------------------*/ 
FoamFile
{
    version     2.0;
    format      ascii;
    class       volVectorField;
    location    "/home/james/dafoam/myRuns/bezier_coanda_opt/0.00000000001/";
    object      sens_CL_shapey;
}
// * * * * * * * * * * * * * * * * * * * * * * * * * * * * * * * * * * * * * //

dimensions      [0 0 0 0 0 0 0];
internalField   uniform (0 0 0);
boundaryField
{
    allWalls
    {
        type  wall;
        value nonuniform List<vector>
164
(
(-0.043186 0.018389 0.000377)
(-0.090270 0.043189 0.000216)
(-0.131222 0.080668 0.000134)
(-0.105320 0.085683 0.000295)
(-0.065600 0.076054 0.000377)
(-0.050417 0.079347 0.000795)
(-0.049479 0.108501 0.000795)
(-0.052277 0.145330 0.000377)
(-0.043472 0.153451 0.000812)
(-0.036783 0.161878 0.001741)
(-0.031496 0.168319 0.002482)
(-0.026741 0.177717 0.002938)
(-0.022843 0.190014 0.003470)
(-0.018895 0.203670 0.003938)
(-0.015355 0.222512 0.004329)
(-0.011513 0.244825 0.004812)
(-0.007479 0.278357 0.005729)
(-0.002574 0.333980 0.006072)
(0.004223 0.405300 0.006668)
(0.013774 0.477778 0.006377)
(0.022461 0.499147 0.003835)
(0.031053 0.519642 0.001999)
(0.038252 0.533709 0.001088)
(0.045981 0.545396 0.000403)
(0.059206 0.623867 -0.000085)
(0.068630 0.650190 -0.000410)
(0.074798 0.636116 -0.000386)
(0.085102 0.660813 -0.000235)
(0.097214 0.695489 -0.000235)
(0.109451 0.724604 -0.000235)
(0.122075 0.750776 -0.000235)
(0.134369 0.769726 -0.000274)
(0.145531 0.778090 -0.000313)
(0.155871 0.779300 -0.000313)
(0.163462 0.763693 -0.000313)
(0.167914 0.735243 -0.000313)
(0.162622 0.654817 -0.000267)
(0.160270 0.601325 -0.000222)
(0.141934 0.438231 -0.000222)
(0.122911 0.422335 -0.000222)
(-0.156966 0.478647 -0.000222)
(0.126881 -0.648985 -0.000222)
(-0.055813 0.034302 -0.000222)
(-0.116706 0.396654 -0.000267)
(-0.082895 0.350492 -0.000313)
(-0.070613 0.344580 -0.000313)
(-0.072784 0.389489 -0.000313)
(-0.069074 0.406546 -0.000313)
(-0.063943 0.407037 -0.000313)
(-0.058791 0.404233 -0.000275)
(-0.054752 0.404741 -0.000235)
(-0.050340 0.400074 -0.000235)
(-0.046320 0.396386 -0.000235)
(-0.042182 0.389997 -0.000235)
(-0.038548 0.388375 0.000393)
(-0.033212 0.365746 0.001033)
(-0.033987 0.425242 0.001030)
(-0.029080 0.401600 0.000965)
(-0.019733 0.331203 0.000818)
(-0.017610 0.379709 0.000794)
(-0.012220 0.383958 -0.000126)
(-0.005705 0.333796 -0.001432)
(0.000243 0.274583 -0.001764)
(0.004802 0.238371 -0.001471)
(0.008369 0.203670 -0.001239)
(0.012249 0.189601 -0.001358)
(0.015478 0.172115 -0.001413)
(0.020405 0.167412 -0.001248)
(0.024998 0.161731 -0.001233)
(0.032012 0.157991 -0.001378)
(0.034269 0.143188 -0.001259)
(0.031364 0.111042 -0.001215)
(0.052142 0.132190 -0.000945)
(0.032667 0.057023 -0.000121)
(0.020247 -0.022822 0.000377)
(-0.016395 -0.081852 0.000009)
(-0.000939 -0.072467 0.000009)
(0.134984 0.102307 0.000377)
(0.102041 0.154416 0.000377)
(-0.009385 0.065529 0.000377)
(0.056193 0.564183 -0.000222)
(-0.024801 0.546270 -0.000229)
(-0.017474 0.506928 -0.000235)
(0.024448 1.069067 -0.000235)
(0.050277 1.747394 -0.000235)
(0.050828 1.403765 -0.000235)
(0.078325 0.775845 -0.000235)
(0.356017 6.317820 -0.000235)
(1.405341 25.134362 -0.000235)
(-38.885493 -5.996292 -0.000144)
(432.951854 -732.428672 -0.000144)
(-47.489811 -43.537754 -0.000054)
(-415.511995 559.261701 -0.000144)
(17.301279 369.558116 -0.000054)
(18.692836 145.969093 -0.000054)
(9.417127 56.298785 -0.000054)
(4.624782 20.718708 -0.000054)
(2.058248 5.580022 -0.000054)
(0.611566 0.647916 -0.000054)
(1.443582 2.412363 -0.000054)
(1.897363 3.142192 -0.000054)
(0.270336 0.630996 -0.000030)
(1.502683 3.611653 -0.000007)
(1.306423 2.608038 -0.000007)
(1.468720 2.485448 -0.000007)
(1.974124 2.951146 -0.000007)
(6.252834 6.421951 -0.000007)
(16.618847 14.588875 -0.000007)
(12.135607 13.668207 -0.000007)
(-35.897650 -23.654904 -0.000007)
(-27.134772 -23.690116 -0.000007)
(25.353039 13.141847 -0.000007)
(45.413806 18.939029 -0.000007)
(19.028815 -1.924684 -0.000007)
(-46.286122 -6.098554 -0.000007)
(-63.964250 5.459551 -0.000007)
(-43.916921 -21.627100 -0.000007)
(0.324351 -22.080911 -0.000007)
(33.818518 -1.215642 -0.000007)
(20.074633 0.094323 -0.000007)
(-0.388778 -0.526992 -0.000007)
(-1.323046 -1.132408 -0.000007)
(1.854375 -1.267423 -0.000007)
(2.434932 -0.997683 -0.000007)
(2.879029 -1.025848 -0.000007)
(4.069595 -1.275509 -0.000007)
(4.821290 -1.244052 -0.000007)
(4.008654 -0.818200 -0.000007)
(2.259041 -0.225817 -0.000007)
(0.989961 0.142095 -0.000007)
(0.653414 0.099346 -0.000007)
(0.250660 0.119167 -0.000007)
(-0.122766 0.180481 -0.000007)
(-0.342016 0.237609 -0.000007)
(-0.457778 0.315217 -0.000007)
(-0.529640 0.407050 -0.000007)
(-0.554101 0.467836 -0.000007)
(-0.521445 0.471445 -0.000007)
(-0.463372 0.446636 -0.000007)
(-0.364888 0.367038 -0.000007)
(-0.254917 0.268422 -0.000007)
(-0.184673 0.208890 -0.000007)
(-0.116800 0.126174 -0.000030)
(-0.041135 0.004015 -0.000054)
(0.022995 -0.122349 -0.000054)
(0.069372 -0.246384 -0.000054)
(0.100461 -0.366121 -0.000054)
(0.106140 -0.436865 -0.000054)
(0.082046 -0.404419 -0.000054)
(0.041573 -0.269025 -0.000054)
(0.005775 -0.141927 -0.000054)
(-159.681448 -0.063832 -0.000144)
(159.739268 0.103563 -0.000235)
(1.354185 -6.923283 -0.000144)
(1.216507 -4.322130 -0.000144)
(-0.123629 3.387606 -0.000235)
(-0.018789 0.476763 -0.000235)
(-0.004843 0.043784 -0.000235)
(-0.008471 0.410726 -0.000235)
(-0.011508 0.354254 -0.000235)
(-0.019589 0.300000 -0.000235)
(0.030304 0.078238 -0.000235)
(0.101974 -0.184864 -0.000229)
(-0.212696 0.834813 -0.000222)
)
;
    }
}
