/*--------------------------------*- C++ -*---------------------------------*\ 
| ========                 |                                                 | 
| \      /  F ield         | OpenFOAM: The Open Source CFD Toolbox           | 
|  \    /   O peration     | Version:  v1812                                 | 
|   \  /    A nd           | Web:      www.OpenFOAM.com                      | 
|    \/     M anipulation  |                                                 | 
\*--------------------------------------------------------------------------*/ 
FoamFile
{
    version     2.0;
    format      ascii;
    class       volVectorField;
    location    "/home/james/dafoam/myRuns/bezier_coanda_opt/0.00000000001/";
    object      sens_CL_shapey;
}
// * * * * * * * * * * * * * * * * * * * * * * * * * * * * * * * * * * * * * //

dimensions      [0 0 0 0 0 0 0];
internalField   uniform (0 0 0);
boundaryField
{
    allWalls
    {
        type  wall;
        value nonuniform List<vector>
164
(
(-0.044369 0.018839 0.000377)
(-0.090985 0.043296 0.000216)
(-0.130530 0.080107 0.000133)
(-0.104078 0.084536 0.000294)
(-0.064970 0.075304 0.000377)
(-0.050418 0.079178 0.000794)
(-0.049603 0.108691 0.000794)
(-0.052412 0.145586 0.000377)
(-0.043523 0.153517 0.000809)
(-0.036847 0.161991 0.001738)
(-0.031534 0.168362 0.002481)
(-0.026773 0.177732 0.002936)
(-0.022866 0.189978 0.003469)
(-0.018921 0.203649 0.003937)
(-0.015383 0.222486 0.004329)
(-0.011543 0.244803 0.004812)
(-0.007511 0.278311 0.005729)
(-0.002610 0.333891 0.006073)
(0.004184 0.405235 0.006671)
(0.013732 0.477711 0.006381)
(0.022428 0.499139 0.003837)
(0.031026 0.519562 0.002002)
(0.038227 0.533496 0.001090)
(0.045973 0.545292 0.000404)
(0.059203 0.623701 -0.000084)
(0.068630 0.649930 -0.000409)
(0.074818 0.635927 -0.000385)
(0.085142 0.660664 -0.000234)
(0.097271 0.695343 -0.000234)
(0.109528 0.724455 -0.000234)
(0.122174 0.750628 -0.000234)
(0.134494 0.769576 -0.000274)
(0.145683 0.777958 -0.000314)
(0.156039 0.779126 -0.000314)
(0.163619 0.763367 -0.000314)
(0.168100 0.734964 -0.000314)
(0.162853 0.654694 -0.000267)
(0.160303 0.600323 -0.000219)
(0.141401 0.435032 -0.000219)
(0.123277 0.423551 -0.000219)
(-0.156908 0.478457 -0.000219)
(0.127284 -0.650662 -0.000219)
(-0.055744 0.033669 -0.000219)
(-0.116735 0.396600 -0.000267)
(-0.082839 0.350117 -0.000314)
(-0.070554 0.344202 -0.000314)
(-0.072751 0.389200 -0.000314)
(-0.069038 0.406226 -0.000314)
(-0.063912 0.406746 -0.000315)
(-0.058779 0.404030 -0.000275)
(-0.054730 0.404475 -0.000234)
(-0.050330 0.399893 -0.000234)
(-0.046315 0.396234 -0.000234)
(-0.042174 0.389826 -0.000234)
(-0.038548 0.388272 0.000394)
(-0.033209 0.365613 0.001034)
(-0.033996 0.425258 0.001031)
(-0.029084 0.401545 0.000966)
(-0.019728 0.331074 0.000819)
(-0.017612 0.379698 0.000798)
(-0.012220 0.383945 -0.000121)
(-0.005705 0.333832 -0.001431)
(0.000246 0.274620 -0.001763)
(0.004807 0.238399 -0.001470)
(0.008375 0.203687 -0.001238)
(0.012257 0.189632 -0.001358)
(0.015488 0.172137 -0.001414)
(0.020419 0.167455 -0.001249)
(0.025016 0.161781 -0.001235)
(0.032022 0.157986 -0.001382)
(0.034285 0.143208 -0.001261)
(0.031359 0.111019 -0.001218)
(0.052150 0.132181 -0.000948)
(0.032686 0.057046 -0.000121)
(0.020239 -0.022906 0.000377)
(-0.016450 -0.082035 0.000008)
(-0.000969 -0.072607 0.000008)
(0.135115 0.102494 0.000377)
(0.102142 0.154793 0.000377)
(-0.009768 0.065944 0.000377)
(0.056733 0.566095 -0.000219)
(-0.025236 0.542985 -0.000227)
(-0.017630 0.504583 -0.000235)
(0.024463 1.068435 -0.000235)
(0.050260 1.746172 -0.000235)
(0.050775 1.401554 -0.000235)
(0.078266 0.773264 -0.000235)
(0.355958 6.312551 -0.000235)
(1.404887 25.121597 -0.000235)
(-38.846447 -6.002487 -0.000144)
(431.603815 -731.243172 -0.000144)
(-47.445034 -43.410622 -0.000053)
(-414.150710 558.449140 -0.000144)
(17.231813 368.538613 -0.000053)
(18.640257 145.675085 -0.000053)
(9.384328 56.174375 -0.000053)
(4.608460 20.651886 -0.000053)
(2.055313 5.577293 -0.000053)
(0.612171 0.652178 -0.000053)
(1.446786 2.424066 -0.000053)
(1.898626 3.148044 -0.000053)
(0.272899 0.635616 -0.000030)
(1.499774 3.600498 -0.000007)
(1.307583 2.604075 -0.000007)
(1.471455 2.486317 -0.000007)
(1.979266 2.955701 -0.000007)
(6.237253 6.408739 -0.000007)
(16.566966 14.545249 -0.000007)
(12.152647 13.663402 -0.000007)
(-35.645416 -23.469067 -0.000007)
(-27.028609 -23.582509 -0.000007)
(25.240379 13.077282 -0.000007)
(45.558647 19.054516 -0.000007)
(19.447432 -1.714930 -0.000007)
(-46.486205 -6.430323 -0.000007)
(-64.404415 5.147901 -0.000007)
(-43.849578 -21.454724 -0.000007)
(0.240328 -22.048971 -0.000007)
(33.741952 -1.242893 -0.000007)
(20.122377 0.096299 -0.000007)
(-0.409731 -0.528162 -0.000007)
(-1.345637 -1.133654 -0.000007)
(1.843657 -1.272192 -0.000007)
(2.434887 -1.002315 -0.000007)
(2.878554 -1.028167 -0.000007)
(4.063912 -1.277120 -0.000007)
(4.817934 -1.247379 -0.000007)
(4.009714 -0.822895 -0.000007)
(2.260481 -0.229808 -0.000007)
(0.990209 0.139656 -0.000007)
(0.653700 0.098568 -0.000007)
(0.251667 0.119529 -0.000007)
(-0.121191 0.181442 -0.000007)
(-0.340337 0.238691 -0.000007)
(-0.456204 0.316139 -0.000007)
(-0.528169 0.407798 -0.000007)
(-0.552831 0.468525 -0.000007)
(-0.520434 0.472141 -0.000007)
(-0.462578 0.447311 -0.000007)
(-0.364346 0.367759 -0.000007)
(-0.254655 0.269265 -0.000007)
(-0.184582 0.209781 -0.000007)
(-0.116818 0.127090 -0.000030)
(-0.041222 0.004944 -0.000053)
(0.022899 -0.121478 -0.000053)
(0.069303 -0.245625 -0.000053)
(0.100423 -0.365481 -0.000053)
(0.106129 -0.436333 -0.000053)
(0.082050 -0.403991 -0.000053)
(0.041585 -0.268722 -0.000053)
(0.005799 -0.141731 -0.000053)
(-159.681512 -0.063736 -0.000144)
(159.739312 0.103367 -0.000235)
(1.353646 -6.921162 -0.000144)
(1.216106 -4.321239 -0.000144)
(-0.123471 3.385563 -0.000235)
(-0.018738 0.476249 -0.000235)
(-0.004824 0.043673 -0.000235)
(-0.008457 0.410460 -0.000235)
(-0.011495 0.354044 -0.000235)
(-0.019580 0.299943 -0.000235)
(0.030285 0.078383 -0.000235)
(0.101918 -0.184247 -0.000227)
(-0.212960 0.836116 -0.000219)
)
;
    }
}
