/*--------------------------------*- C++ -*---------------------------------*\ 
| ========                 |                                                 | 
| \      /  F ield         | OpenFOAM: The Open Source CFD Toolbox           | 
|  \    /   O peration     | Version:  v1812                                 | 
|   \  /    A nd           | Web:      www.OpenFOAM.com                      | 
|    \/     M anipulation  |                                                 | 
\*--------------------------------------------------------------------------*/ 
FoamFile
{
    version     2.0;
    format      ascii;
    class       volVectorField;
    location    "/home/james/dafoam/myRuns/bezier_coanda_opt/0.00000000001/";
    object      sens_CL_shapey;
}
// * * * * * * * * * * * * * * * * * * * * * * * * * * * * * * * * * * * * * //

dimensions      [0 0 0 0 0 0 0];
internalField   uniform (0 0 0);
boundaryField
{
    allWalls
    {
        type  wall;
        value nonuniform List<vector>
164
(
(-0.024894 0.011342 0.000490)
(-0.079400 0.041890 0.000559)
(-0.141583 0.089810 0.000587)
(-0.123985 0.103801 0.000620)
(-0.075092 0.088157 0.000659)
(-0.050272 0.082503 0.000701)
(-0.047391 0.105797 0.000748)
(-0.049780 0.140986 0.000800)
(-0.042536 0.151579 0.000857)
(-0.035956 0.159509 0.000919)
(-0.030992 0.167070 0.001533)
(-0.026350 0.176994 0.002231)
(-0.022691 0.190334 0.002469)
(-0.018727 0.203813 0.002720)
(-0.015176 0.222932 0.002978)
(-0.011310 0.245226 0.003234)
(-0.007285 0.279069 0.004372)
(-0.002348 0.335534 0.005728)
(0.004362 0.407178 0.006379)
(0.013987 0.479863 0.006665)
(0.022711 0.499515 0.006123)
(0.030939 0.515443 0.004295)
(0.039464 0.547668 0.002049)
(0.046406 0.552301 0.000760)
(0.058890 0.620528 0.000076)
(0.069415 0.659775 -0.001083)
(0.075182 0.641683 -0.001834)
(0.085512 0.666885 -0.001667)
(0.097596 0.701809 -0.001481)
(0.109835 0.731443 -0.001224)
(0.122443 0.758039 -0.001046)
(0.134713 0.777279 -0.001004)
(0.145830 0.785817 -0.000682)
(0.156160 0.787420 -0.000387)
(0.163931 0.772891 -0.000477)
(0.167835 0.742304 -0.000477)
(0.161664 0.658041 -0.000387)
(0.162223 0.616778 -0.000387)
(0.151902 0.486966 -0.000387)
(0.116891 0.394219 -0.000330)
(-0.156887 0.477796 -0.000193)
(0.124567 -0.638780 0.000007)
(-0.056095 0.038310 0.000229)
(-0.116377 0.396713 0.000245)
(-0.083055 0.351979 0.000259)
(-0.070776 0.346028 0.000284)
(-0.072845 0.390612 0.000308)
(-0.069099 0.407471 0.000067)
(-0.063946 0.407894 -0.000116)
(-0.058800 0.405034 0.000207)
(-0.054744 0.405348 0.000477)
(-0.050318 0.400606 0.000725)
(-0.046286 0.396827 0.000785)
(-0.042134 0.390308 0.000846)
(-0.038500 0.388612 0.000754)
(-0.033198 0.366288 0.000630)
(-0.033888 0.424694 0.000586)
(-0.029012 0.401542 0.000448)
(-0.019737 0.331810 0.000180)
(-0.017724 0.379486 -0.000799)
(-0.012371 0.383687 -0.001755)
(-0.005697 0.333292 -0.001968)
(0.000251 0.274132 -0.002049)
(0.004638 0.237921 -0.002047)
(0.008031 0.203325 -0.001065)
(0.011886 0.189189 -0.000075)
(0.015104 0.171773 -0.000016)
(0.020152 0.166975 0.000055)
(0.024692 0.161113 0.000133)
(0.031559 0.157587 -0.000015)
(0.033982 0.143027 -0.000156)
(0.031167 0.111034 -0.000068)
(0.051695 0.131641 0.000015)
(0.032635 0.056885 0.000093)
(0.020637 -0.021871 0.000164)
(-0.015871 -0.080370 0.000230)
(-0.000594 -0.071380 0.000289)
(0.133893 0.100526 0.000342)
(0.100491 0.149880 0.000388)
(-0.003955 0.059067 0.000422)
(0.047277 0.525280 -0.000330)
(-0.017791 0.596262 -0.000309)
(-0.015230 0.540268 -0.000230)
(0.023892 1.072797 -0.000230)
(0.050339 1.761379 -0.000230)
(0.051623 1.437683 -0.000230)
(0.079324 0.819413 -0.000230)
(0.356585 6.391791 -0.000230)
(1.410514 25.289882 -0.000230)
(-39.491795 -5.632091 -0.000144)
(456.377113 -753.087967 -0.000230)
(-48.198774 -44.876263 -0.000144)
(-439.070205 573.399346 -0.000144)
(18.370716 386.316085 -0.000058)
(19.548881 151.132953 -0.000058)
(9.917698 58.343926 -0.000058)
(4.863680 21.700037 -0.000058)
(2.219635 5.990681 -0.000058)
(0.875908 1.312649 -0.000058)
(0.905182 1.182607 -0.000058)
(0.350577 -0.083033 -0.000058)
(2.190739 3.809852 -0.000035)
(2.065254 5.027892 -0.000013)
(0.323537 0.907909 -0.000013)
(1.786994 3.125008 -0.000013)
(1.580814 2.394760 -0.000013)
(6.652069 6.880458 -0.000013)
(17.195766 15.014693 -0.000013)
(12.269283 14.030402 -0.000013)
(-39.081177 -25.954411 -0.000013)
(-28.931781 -25.312498 -0.000013)
(26.328083 13.614084 -0.000013)
(44.758688 18.134685 -0.000013)
(15.466022 -3.999355 -0.000013)
(-46.736256 -4.104237 -0.000013)
(-61.729651 8.358890 -0.000013)
(-43.208422 -22.158627 -0.000013)
(2.364781 -22.007908 -0.000013)
(35.242862 -0.875500 -0.000013)
(20.298012 0.160733 -0.000013)
(-0.209384 -0.490917 -0.000013)
(-1.186294 -1.114416 -0.000013)
(1.930296 -1.238179 -0.000013)
(2.429497 -0.973963 -0.000013)
(2.890148 -1.017145 -0.000013)
(4.126824 -1.272236 -0.000013)
(4.868348 -1.228848 -0.000013)
(4.014536 -0.789002 -0.000013)
(2.248058 -0.194329 -0.000013)
(0.981364 0.167311 -0.000013)
(0.649937 0.112094 -0.000013)
(0.244182 0.123636 -0.000013)
(-0.132721 0.180680 -0.000013)
(-0.352150 0.236487 -0.000013)
(-0.466627 0.314504 -0.000013)
(-0.537355 0.406784 -0.000013)
(-0.560241 0.467158 -0.000013)
(-0.525866 0.469972 -0.000013)
(-0.466344 0.444459 -0.000013)
(-0.366849 0.364623 -0.000013)
(-0.255266 0.264571 -0.000013)
(-0.183639 0.203557 -0.000013)
(-0.115772 0.120191 -0.000035)
(-0.040043 -0.002658 -0.000058)
(0.024373 -0.128844 -0.000058)
(0.070636 -0.252380 -0.000058)
(0.101012 -0.369871 -0.000058)
(0.106340 -0.437506 -0.000058)
(0.082355 -0.404215 -0.000058)
(0.041794 -0.268866 -0.000058)
(0.006021 -0.141524 -0.000058)
(-159.680777 -0.063538 -0.000144)
(159.739236 0.105440 -0.000144)
(1.356676 -6.931618 -0.000058)
(1.218103 -4.327099 -0.000144)
(-0.124297 3.395668 -0.000230)
(-0.018911 0.478803 -0.000230)
(-0.004853 0.043546 -0.000230)
(-0.008511 0.411400 -0.000230)
(-0.011550 0.354719 -0.000230)
(-0.019605 0.299917 -0.000230)
(0.030369 0.077438 -0.000230)
(0.102102 -0.187663 -0.000309)
(-0.210862 0.825739 -0.000387)
)
;
    }
}
