/*--------------------------------*- C++ -*---------------------------------*\ 
| ========                 |                                                 | 
| \      /  F ield         | OpenFOAM: The Open Source CFD Toolbox           | 
|  \    /   O peration     | Version:  v1812                                 | 
|   \  /    A nd           | Web:      www.OpenFOAM.com                      | 
|    \/     M anipulation  |                                                 | 
\*--------------------------------------------------------------------------*/ 
FoamFile
{
    version     2.0;
    format      ascii;
    class       volVectorField;
    location    "/home/james/dafoam/myRuns/bezier_coanda_opt/0.00000000001/";
    object      sens_CL_shapey;
}
// * * * * * * * * * * * * * * * * * * * * * * * * * * * * * * * * * * * * * //

dimensions      [0 0 0 0 0 0 0];
internalField   uniform (0 0 0);
boundaryField
{
    allWalls
    {
        type  wall;
        value nonuniform List<vector>
164
(
(-0.046240 0.019533 0.000376)
(-0.092150 0.043513 0.000215)
(-0.129440 0.079293 0.000132)
(-0.102092 0.082784 0.000294)
(-0.063986 0.074185 0.000376)
(-0.050408 0.078938 0.000807)
(-0.049782 0.108993 0.000807)
(-0.052609 0.145928 0.000376)
(-0.043588 0.153541 0.000808)
(-0.036954 0.162132 0.001736)
(-0.031605 0.168397 0.002486)
(-0.026840 0.177722 0.002948)
(-0.022923 0.189894 0.003473)
(-0.018988 0.203604 0.003938)
(-0.015454 0.222444 0.004330)
(-0.011619 0.244766 0.004810)
(-0.007590 0.278236 0.005729)
(-0.002698 0.333780 0.006069)
(0.004090 0.405175 0.006668)
(0.013637 0.477675 0.006378)
(0.022359 0.499264 0.003828)
(0.030983 0.519659 0.001993)
(0.038192 0.533353 0.001081)
(0.045969 0.545212 0.000394)
(0.059229 0.623626 -0.000095)
(0.068687 0.649842 -0.000420)
(0.074918 0.635920 -0.000383)
(0.085294 0.660743 -0.000219)
(0.097485 0.695502 -0.000219)
(0.109803 0.724655 -0.000219)
(0.122518 0.750871 -0.000219)
(0.134908 0.769851 -0.000267)
(0.146171 0.778256 -0.000314)
(0.156581 0.779347 -0.000314)
(0.164146 0.763231 -0.000314)
(0.168669 0.734799 -0.000314)
(0.163481 0.654680 -0.000266)
(0.160615 0.598814 -0.000219)
(0.140754 0.429974 -0.000219)
(0.123845 0.424636 -0.000219)
(-0.156694 0.477708 -0.000219)
(0.128490 -0.655633 -0.000219)
(-0.055524 0.031824 -0.000219)
(-0.116777 0.396327 -0.000266)
(-0.082654 0.348973 -0.000314)
(-0.070355 0.342985 -0.000314)
(-0.072590 0.388055 -0.000314)
(-0.068922 0.405284 -0.000314)
(-0.063809 0.405812 -0.000315)
(-0.058681 0.403105 -0.000267)
(-0.054668 0.403748 -0.000219)
(-0.050279 0.399219 -0.000219)
(-0.046276 0.395637 -0.000219)
(-0.042148 0.389322 -0.000219)
(-0.038529 0.387833 0.000396)
(-0.033190 0.365154 0.001024)
(-0.034013 0.425247 0.001021)
(-0.029090 0.401339 0.000957)
(-0.019709 0.330640 0.000811)
(-0.017615 0.379617 0.000796)
(-0.012220 0.383868 -0.000118)
(-0.005707 0.333887 -0.001432)
(0.000250 0.274677 -0.001768)
(0.004817 0.238451 -0.001471)
(0.008389 0.203714 -0.001237)
(0.012276 0.189688 -0.001357)
(0.015508 0.172169 -0.001413)
(0.020449 0.167521 -0.001242)
(0.025063 0.161925 -0.001228)
(0.032052 0.158002 -0.001381)
(0.034288 0.143122 -0.001261)
(0.031337 0.110935 -0.001218)
(0.052215 0.132293 -0.000948)
(0.032695 0.057040 -0.000122)
(0.020176 -0.023204 0.000376)
(-0.016583 -0.082485 0.000008)
(-0.001067 -0.072994 0.000008)
(0.135411 0.102903 0.000376)
(0.102320 0.155584 0.000376)
(-0.010432 0.066611 0.000376)
(0.057552 0.568354 -0.000219)
(-0.025889 0.537907 -0.000227)
(-0.017890 0.500779 -0.000235)
(0.024468 1.067139 -0.000235)
(0.050230 1.744116 -0.000235)
(0.050704 1.398203 -0.000235)
(0.078197 0.769471 -0.000235)
(0.355907 6.304757 -0.000235)
(1.404369 25.103652 -0.000235)
(-38.797929 -5.998430 -0.000144)
(430.085212 -729.910180 -0.000144)
(-47.390404 -43.188156 -0.000053)
(-412.608744 557.533406 -0.000144)
(17.140801 367.298075 -0.000053)
(18.575301 145.353660 -0.000053)
(9.341079 56.026751 -0.000053)
(4.585777 20.558496 -0.000053)
(2.051713 5.575505 -0.000053)
(0.612668 0.657517 -0.000053)
(1.451038 2.440636 -0.000053)
(1.902973 3.160511 -0.000053)
(0.279406 0.646634 -0.000030)
(1.491379 3.574789 -0.000007)
(1.305360 2.587540 -0.000007)
(1.474499 2.484545 -0.000007)
(1.987487 2.962887 -0.000007)
(6.207235 6.383803 -0.000007)
(16.477546 14.469809 -0.000007)
(12.200537 13.667936 -0.000007)
(-35.210316 -23.142055 -0.000007)
(-26.921859 -23.444221 -0.000007)
(24.966157 12.908265 -0.000007)
(45.879264 19.292342 -0.000007)
(20.284604 -1.325642 -0.000007)
(-47.215250 -7.270041 -0.000007)
(-65.464318 4.535328 -0.000007)
(-43.338621 -20.853734 -0.000007)
(0.337622 -21.856400 -0.000007)
(33.654826 -1.274806 -0.000007)
(20.295788 0.116242 -0.000007)
(-0.454306 -0.525282 -0.000007)
(-1.405544 -1.131833 -0.000007)
(1.809971 -1.278291 -0.000007)
(2.424129 -1.008702 -0.000007)
(2.859356 -1.036726 -0.000007)
(4.027515 -1.299163 -0.000007)
(4.821334 -1.292794 -0.000007)
(4.042113 -0.870556 -0.000007)
(2.241588 -0.249499 -0.000007)
(0.943154 0.136037 -0.000007)
(0.633112 0.094193 -0.000007)
(0.249588 0.116974 -0.000007)
(-0.119973 0.183207 -0.000007)
(-0.337572 0.241363 -0.000007)
(-0.452459 0.318170 -0.000007)
(-0.524089 0.409230 -0.000007)
(-0.549021 0.469721 -0.000007)
(-0.517263 0.473374 -0.000007)
(-0.460269 0.448852 -0.000007)
(-0.363607 0.370603 -0.000007)
(-0.254573 0.272165 -0.000007)
(-0.182005 0.207705 -0.000007)
(-0.115976 0.128027 -0.000030)
(-0.045442 0.016095 -0.000053)
(0.022739 -0.120176 -0.000053)
(0.070746 -0.247401 -0.000053)
(0.099313 -0.360847 -0.000053)
(0.105969 -0.434427 -0.000053)
(0.081806 -0.401838 -0.000053)
(0.041496 -0.267451 -0.000053)
(0.005782 -0.140931 -0.000053)
(-159.681700 -0.063364 -0.000144)
(159.739338 0.102394 -0.000235)
(1.349773 -6.907187 -0.000144)
(1.212744 -4.312731 -0.000144)
(-0.122931 3.376885 -0.000235)
(-0.018593 0.474545 -0.000235)
(-0.004778 0.043458 -0.000235)
(-0.008413 0.409454 -0.000235)
(-0.011455 0.353303 -0.000235)
(-0.019559 0.299748 -0.000235)
(0.030234 0.078729 -0.000235)
(0.101767 -0.182547 -0.000227)
(-0.213723 0.839854 -0.000219)
)
;
    }
}
