/*--------------------------------*- C++ -*---------------------------------*\ 
| ========                 |                                                 | 
| \      /  F ield         | OpenFOAM: The Open Source CFD Toolbox           | 
|  \    /   O peration     | Version:  v1812                                 | 
|   \  /    A nd           | Web:      www.OpenFOAM.com                      | 
|    \/     M anipulation  |                                                 | 
\*--------------------------------------------------------------------------*/ 
FoamFile
{
    version     2.0;
    format      ascii;
    class       volVectorField;
    location    "/home/james/dafoam/myRuns/bezier_coanda_opt/0.00000000001/";
    object      sens_CL_shapey;
}
// * * * * * * * * * * * * * * * * * * * * * * * * * * * * * * * * * * * * * //

dimensions      [0 0 0 0 0 0 0];
internalField   uniform (0 0 0);
boundaryField
{
    allWalls
    {
        type  wall;
        value nonuniform List<vector>
164
(
(-0.026786 0.012092 0.000490)
(-0.080545 0.042031 0.000559)
(-0.140519 0.088845 0.000587)
(-0.122007 0.101881 0.000620)
(-0.074042 0.086853 0.000658)
(-0.050265 0.082154 0.000701)
(-0.047599 0.106080 0.000748)
(-0.050018 0.141462 0.000800)
(-0.042643 0.151802 0.000857)
(-0.036059 0.159763 0.000918)
(-0.031044 0.167212 0.001525)
(-0.026386 0.177076 0.002221)
(-0.022703 0.190302 0.002472)
(-0.018740 0.203797 0.002738)
(-0.015187 0.222891 0.003011)
(-0.011323 0.245203 0.003282)
(-0.007300 0.278999 0.004399)
(-0.002366 0.335259 0.005725)
(0.004336 0.406668 0.006375)
(0.013952 0.479381 0.006660)
(0.022716 0.500032 0.006119)
(0.031335 0.522043 0.004025)
(0.038630 0.538000 0.001747)
(0.046210 0.547903 0.001114)
(0.059585 0.628437 0.000476)
(0.069138 0.656743 -0.000930)
(0.075163 0.641348 -0.001592)
(0.085430 0.666002 -0.001498)
(0.097528 0.701071 -0.001176)
(0.109754 0.730608 -0.000903)
(0.122357 0.757166 -0.000868)
(0.134626 0.776375 -0.000676)
(0.145748 0.784906 -0.000502)
(0.156075 0.786464 -0.000488)
(0.163824 0.771849 -0.000568)
(0.167786 0.741512 -0.000556)
(0.161714 0.657675 -0.000451)
(0.161970 0.615129 -0.000441)
(0.150815 0.481803 -0.000231)
(0.117525 0.397367 -0.000207)
(-0.156903 0.477823 -0.000259)
(0.124763 -0.639796 -0.000090)
(-0.056064 0.037839 0.000125)
(-0.116406 0.396662 0.000152)
(-0.083053 0.351882 0.000163)
(-0.070774 0.345950 0.000201)
(-0.072851 0.390575 0.000220)
(-0.069099 0.407419 -0.000047)
(-0.063951 0.407858 -0.000071)
(-0.058813 0.405034 0.000317)
(-0.054747 0.405310 0.000401)
(-0.050324 0.400594 0.000524)
(-0.046293 0.396827 0.000551)
(-0.042135 0.390300 0.000565)
(-0.038498 0.388603 0.000608)
(-0.033198 0.366259 0.000624)
(-0.033897 0.424768 0.000534)
(-0.029017 0.401555 0.000345)
(-0.019736 0.331767 0.000018)
(-0.017727 0.379512 -0.000897)
(-0.012372 0.383720 -0.001757)
(-0.005698 0.333344 -0.001970)
(0.000251 0.274174 -0.002050)
(0.004640 0.237956 -0.002047)
(0.008035 0.203362 -0.001066)
(0.011892 0.189231 -0.000083)
(0.015112 0.171808 -0.000035)
(0.020162 0.167016 0.000027)
(0.024707 0.161168 0.000096)
(0.031575 0.157639 -0.000035)
(0.033993 0.143050 -0.000156)
(0.031170 0.111041 -0.000068)
(0.051727 0.131708 0.000016)
(0.032655 0.056910 0.000093)
(0.020620 -0.021971 0.000164)
(-0.015915 -0.080514 0.000230)
(-0.000612 -0.071469 0.000289)
(0.134029 0.100701 0.000342)
(0.100691 0.150339 0.000388)
(-0.004480 0.059756 0.000422)
(0.048214 0.529561 -0.000407)
(-0.018547 0.590971 -0.000327)
(-0.015468 0.536791 -0.000227)
(0.023955 1.072522 -0.000227)
(0.050336 1.760017 -0.000227)
(0.051540 1.434132 -0.000227)
(0.079220 0.814770 -0.000227)
(0.356560 6.384443 -0.000227)
(1.410039 25.275042 -0.000227)
(-39.428483 -5.676330 -0.000143)
(453.876278 -750.874084 -0.000143)
(-48.124184 -44.750220 -0.000060)
(-436.557745 571.883676 -0.000143)
(18.258548 384.542980 -0.000060)
(19.458398 150.580360 -0.000060)
(9.864650 58.123243 -0.000060)
(4.838829 21.596686 -0.000060)
(2.215237 5.984296 -0.000060)
(0.878388 1.321503 -0.000060)
(0.913704 1.205689 -0.000060)
(0.354404 -0.069308 -0.000060)
(2.185864 3.803500 -0.000035)
(2.062668 5.015300 -0.000011)
(0.330032 0.914296 -0.000011)
(1.788893 3.124272 -0.000011)
(1.585639 2.398536 -0.000011)
(6.630332 6.860455 -0.000011)
(17.121920 14.952872 -0.000011)
(12.259387 13.999999 -0.000011)
(-38.770098 -25.733073 -0.000011)
(-28.730267 -25.134914 -0.000011)
(26.237353 13.572454 -0.000011)
(44.799382 18.202186 -0.000011)
(15.786039 -3.803109 -0.000011)
(-46.622840 -4.256016 -0.000011)
(-61.880214 8.088535 -0.000011)
(-43.316684 -22.143341 -0.000011)
(2.135648 -22.026402 -0.000011)
(35.088201 -0.909736 -0.000011)
(20.256107 0.151983 -0.000011)
(-0.225760 -0.494975 -0.000011)
(-1.195115 -1.116196 -0.000011)
(1.924048 -1.240133 -0.000011)
(2.428574 -0.975187 -0.000011)
(2.889709 -1.017312 -0.000011)
(4.122202 -1.271940 -0.000011)
(4.863658 -1.229433 -0.000011)
(4.013495 -0.790925 -0.000011)
(2.249024 -0.196821 -0.000011)
(0.982392 0.165058 -0.000011)
(0.650292 0.110837 -0.000011)
(0.244666 0.123026 -0.000011)
(-0.131990 0.180397 -0.000011)
(-0.351436 0.236317 -0.000011)
(-0.466045 0.314321 -0.000011)
(-0.536883 0.406592 -0.000011)
(-0.559898 0.467031 -0.000011)
(-0.525652 0.469943 -0.000011)
(-0.466223 0.444511 -0.000011)
(-0.366823 0.364771 -0.000011)
(-0.255337 0.264824 -0.000011)
(-0.183753 0.203868 -0.000011)
(-0.115642 0.121114 -0.000035)
(-0.039760 -0.001389 -0.000060)
(0.024488 -0.128047 -0.000060)
(0.070634 -0.251981 -0.000060)
(0.100921 -0.369799 -0.000060)
(0.106174 -0.437700 -0.000060)
(0.082125 -0.404635 -0.000060)
(0.041508 -0.269491 -0.000060)
(0.005688 -0.142325 -0.000060)
(-159.680993 -0.064123 -0.000143)
(159.739031 0.104550 -0.000227)
(1.356300 -6.931661 -0.000143)
(1.218117 -4.326082 -0.000143)
(-0.124162 3.396238 -0.000227)
(-0.018960 0.479647 -0.000227)
(-0.004887 0.044133 -0.000227)
(-0.008508 0.411413 -0.000227)
(-0.011547 0.354730 -0.000227)
(-0.019604 0.299938 -0.000227)
(0.030371 0.077461 -0.000227)
(0.102108 -0.187576 -0.000323)
(-0.211010 0.826408 -0.000419)
)
;
    }
}
