/*--------------------------------*- C++ -*---------------------------------*\ 
| ========                 |                                                 | 
| \      /  F ield         | OpenFOAM: The Open Source CFD Toolbox           | 
|  \    /   O peration     | Version:  v1812                                 | 
|   \  /    A nd           | Web:      www.OpenFOAM.com                      | 
|    \/     M anipulation  |                                                 | 
\*--------------------------------------------------------------------------*/ 
FoamFile
{
    version     2.0;
    format      ascii;
    class       volVectorField;
    location    "/home/james/dafoam/myRuns/bezier_coanda_opt/0.00000000001/";
    object      sens_CL_shapey;
}
// * * * * * * * * * * * * * * * * * * * * * * * * * * * * * * * * * * * * * //

dimensions      [0 0 0 0 0 0 0];
internalField   uniform (0 0 0);
boundaryField
{
    allWalls
    {
        type  wall;
        value nonuniform List<vector>
164
(
(-0.035228 0.015424 0.000487)
(-0.085603 0.042634 0.000555)
(-0.135707 0.084520 0.000584)
(-0.113183 0.093328 0.000617)
(-0.069433 0.081131 0.000655)
(-0.050250 0.080624 0.000698)
(-0.048511 0.107349 0.000745)
(-0.051079 0.143564 0.000797)
(-0.043098 0.152728 0.000854)
(-0.036525 0.160889 0.000915)
(-0.031275 0.167813 0.001523)
(-0.026548 0.177437 0.002220)
(-0.022764 0.190184 0.002470)
(-0.018807 0.203752 0.002735)
(-0.015243 0.222689 0.003007)
(-0.011388 0.245008 0.003278)
(-0.007369 0.278653 0.004391)
(-0.002451 0.334572 0.005713)
(0.004230 0.405908 0.006361)
(0.013808 0.478478 0.006647)
(0.022592 0.499488 0.006112)
(0.031181 0.520656 0.004026)
(0.038430 0.535628 0.001753)
(0.046092 0.546508 0.001123)
(0.059367 0.625853 0.000485)
(0.068823 0.653029 -0.000920)
(0.074918 0.638367 -0.001581)
(0.085191 0.663044 -0.001489)
(0.097269 0.697851 -0.001169)
(0.109468 0.727096 -0.000896)
(0.122059 0.753439 -0.000862)
(0.134322 0.772496 -0.000672)
(0.145446 0.780918 -0.000499)
(0.155758 0.782313 -0.000484)
(0.163418 0.767261 -0.000565)
(0.167637 0.738015 -0.000552)
(0.161997 0.656063 -0.000448)
(0.160898 0.607829 -0.000437)
(0.146009 0.458888 -0.000229)
(0.120354 0.411156 -0.000206)
(-0.157002 0.478517 -0.000256)
(0.125548 -0.643224 -0.000088)
(-0.055980 0.036498 0.000127)
(-0.116543 0.396712 0.000154)
(-0.083026 0.351460 0.000165)
(-0.070758 0.345626 0.000204)
(-0.072867 0.390372 0.000223)
(-0.069118 0.407253 -0.000043)
(-0.063972 0.407707 -0.000067)
(-0.058835 0.404895 0.000323)
(-0.054779 0.405244 0.000408)
(-0.050356 0.400536 0.000531)
(-0.046320 0.396757 0.000559)
(-0.042163 0.390258 0.000575)
(-0.038528 0.388602 0.000618)
(-0.033215 0.366155 0.000633)
(-0.033942 0.425056 0.000543)
(-0.029048 0.401650 0.000353)
(-0.019737 0.331597 0.000025)
(-0.017742 0.379650 -0.000900)
(-0.012378 0.383881 -0.001771)
(-0.005701 0.333575 -0.001984)
(0.000259 0.274389 -0.002062)
(0.004654 0.238169 -0.002056)
(0.008054 0.203513 -0.001070)
(0.011920 0.189403 -0.000083)
(0.015145 0.171958 -0.000034)
(0.020212 0.167218 0.000028)
(0.024777 0.161431 0.000098)
(0.031645 0.157823 -0.000034)
(0.034045 0.143143 -0.000157)
(0.031189 0.111068 -0.000069)
(0.051853 0.131953 0.000014)
(0.032721 0.056966 0.000091)
(0.020585 -0.022336 0.000162)
(-0.016065 -0.081096 0.000228)
(-0.000695 -0.071892 0.000287)
(0.134616 0.101475 0.000339)
(0.101547 0.152373 0.000385)
(-0.006849 0.062798 0.000419)
(0.052394 0.548374 -0.000404)
(-0.021889 0.567397 -0.000324)
(-0.016513 0.521216 -0.000226)
(0.024230 1.071034 -0.000226)
(0.050308 1.753585 -0.000226)
(0.051155 1.418075 -0.000226)
(0.078728 0.793978 -0.000226)
(0.356266 6.349539 -0.000226)
(1.407584 25.202442 -0.000226)
(-39.138737 -5.858662 -0.000142)
(442.609266 -740.952197 -0.000142)
(-47.786985 -44.146820 -0.000059)
(-425.231460 565.093330 -0.000142)
(17.752775 376.537471 -0.000059)
(19.049692 148.091231 -0.000059)
(9.630642 57.160314 -0.000059)
(4.727077 21.139808 -0.000059)
(2.076436 5.599685 -0.000059)
(0.603895 0.610336 -0.000059)
(1.422614 2.336759 -0.000059)
(1.897093 3.117334 -0.000059)
(0.262109 0.614079 -0.000035)
(1.512203 3.660479 -0.000010)
(1.292455 2.610308 -0.000010)
(1.453833 2.478893 -0.000010)
(1.949887 2.931755 -0.000010)
(6.341337 6.499898 -0.000010)
(16.929244 14.849510 -0.000010)
(12.127544 13.761507 -0.000010)
(-37.273380 -24.646414 -0.000010)
(-27.911141 -24.402671 -0.000010)
(25.834781 13.389705 -0.000010)
(45.004173 18.516185 -0.000010)
(17.281326 -2.900305 -0.000010)
(-46.206424 -5.008823 -0.000010)
(-62.652349 6.843751 -0.000010)
(-43.737336 -22.012150 -0.000010)
(1.143233 -22.088040 -0.000010)
(34.403785 -1.063618 -0.000010)
(20.093172 0.115317 -0.000010)
(-0.302858 -0.513042 -0.000010)
(-1.241536 -1.124771 -0.000010)
(1.892755 -1.251020 -0.000010)
(2.424128 -0.983196 -0.000010)
(2.886608 -1.020090 -0.000010)
(4.099356 -1.272563 -0.000010)
(4.841420 -1.234469 -0.000010)
(4.008478 -0.802091 -0.000010)
(2.252943 -0.209998 -0.000010)
(0.986427 0.153651 -0.000010)
(0.651655 0.104464 -0.000010)
(0.246979 0.119977 -0.000010)
(-0.128326 0.179056 -0.000010)
(-0.347747 0.235573 -0.000010)
(-0.462921 0.313521 -0.000010)
(-0.534239 0.405717 -0.000010)
(-0.557866 0.466419 -0.000010)
(-0.524270 0.469757 -0.000010)
(-0.465326 0.444683 -0.000010)
(-0.366441 0.365381 -0.000010)
(-0.255490 0.265951 -0.000010)
(-0.184173 0.205291 -0.000010)
(-0.116178 0.122690 -0.000035)
(-0.040338 0.000288 -0.000059)
(0.023969 -0.126445 -0.000059)
(0.070236 -0.250583 -0.000059)
(0.100638 -0.368622 -0.000059)
(0.105978 -0.436721 -0.000059)
(0.081996 -0.403875 -0.000059)
(0.041429 -0.269018 -0.000059)
(0.005649 -0.142099 -0.000059)
(-159.681218 -0.064060 -0.000142)
(159.739082 0.104042 -0.000226)
(1.355034 -6.928079 -0.000142)
(1.217024 -4.324082 -0.000142)
(-0.124051 3.392846 -0.000226)
(-0.018934 0.478452 -0.000226)
(-0.004893 0.044064 -0.000226)
(-0.008509 0.411262 -0.000226)
(-0.011544 0.354648 -0.000226)
(-0.019606 0.300004 -0.000226)
(0.030346 0.077756 -0.000226)
(0.102065 -0.186654 -0.000321)
(-0.211700 0.829774 -0.000415)
)
;
    }
}
