/*--------------------------------*- C++ -*----------------------------------*\
  =========                 |
  \\      /  F ield         | OpenFOAM: The Open Source CFD Toolbox
   \\    /   O peration     | Website:  https://openfoam.org
    \\  /    A nd           | Version:  8
     \\/     M anipulation  |
\*---------------------------------------------------------------------------*/
FoamFile
{
    version     2.0;
    format      ascii;
    class       volScalarField;
    location    "1.4";
    object      p;
}
// * * * * * * * * * * * * * * * * * * * * * * * * * * * * * * * * * * * * * //

dimensions      [0 2 -2 0 0 0 0];

internalField   nonuniform List<scalar> 
262620
(
0.17912
0.17905
0.178828
0.178493
0.178054
0.177514
0.176877
0.176151
0.17534
0.17445
0.173487
0.172454
0.171357
0.170201
0.16899
0.167727
0.166418
0.165067
0.163675
0.162249
0.160789
0.159301
0.157787
0.15625
0.154692
0.153116
0.151526
0.149922
0.148308
0.146685
0.145056
0.143422
0.141785
0.140147
0.13851
0.136874
0.135241
0.133613
0.13199
0.130374
0.128766
0.127166
0.125577
0.123997
0.122429
0.120873
0.11933
0.1178
0.116283
0.114781
0.113293
0.11182
0.110363
0.108922
0.107496
0.106087
0.104695
0.103319
0.10196
0.100617
0.0992923
0.0979841
0.0966934
0.0954197
0.0941633
0.092924
0.0917021
0.0904972
0.0893095
0.0881387
0.086985
0.085848
0.0847279
0.0836243
0.0825374
0.0814666
0.0804123
0.0793739
0.0783516
0.077345
0.0763541
0.0753785
0.0744183
0.0734731
0.072543
0.0716274
0.0707265
0.0698398
0.0689675
0.0681089
0.0672643
0.0664331
0.0656155
0.064811
0.0640196
0.0632408
0.0624748
0.0617211
0.0609798
0.0602503
0.0595328
0.0588269
0.0581326
0.0574493
0.0567774
0.0561162
0.0554658
0.0548259
0.0541964
0.053577
0.0529678
0.0523682
0.0517785
0.051198
0.0506271
0.0500651
0.0495124
0.0489681
0.0484322
0.0479079
0.179164
0.179093
0.178873
0.178538
0.1781
0.17756
0.176924
0.176198
0.175388
0.174498
0.173535
0.172502
0.171406
0.17025
0.169038
0.167776
0.166467
0.165115
0.163724
0.162297
0.160838
0.159349
0.157835
0.156297
0.154739
0.153164
0.151573
0.149969
0.148354
0.146731
0.145102
0.143467
0.14183
0.140192
0.138553
0.136917
0.135284
0.133655
0.132031
0.130415
0.128806
0.127206
0.125616
0.124036
0.122467
0.12091
0.119366
0.117835
0.116318
0.114815
0.113327
0.111853
0.110396
0.108953
0.107527
0.106117
0.104724
0.103347
0.101987
0.100645
0.0993187
0.0980099
0.0967183
0.095444
0.0941868
0.0929469
0.0917242
0.0905186
0.0893301
0.0881587
0.0870042
0.0858666
0.0847456
0.0836414
0.0825537
0.0814824
0.0804272
0.0793883
0.0783652
0.077358
0.0763663
0.0753901
0.0744292
0.0734834
0.0725525
0.0716363
0.0707347
0.0698475
0.0689744
0.0681153
0.06727
0.0664383
0.0656199
0.0648149
0.0640227
0.0632435
0.0624768
0.0617226
0.0609805
0.0602506
0.0595324
0.058826
0.0581309
0.0574473
0.0567746
0.0561129
0.0554618
0.0548214
0.0541912
0.0535714
0.0529614
0.0523613
0.0517708
0.0511899
0.0506182
0.0500557
0.0495021
0.0489573
0.0484206
0.0478957
0.179241
0.179171
0.178952
0.178618
0.178181
0.177642
0.177006
0.176281
0.175471
0.174582
0.173619
0.172587
0.171491
0.170335
0.169124
0.167862
0.166553
0.165201
0.163809
0.162382
0.160922
0.159434
0.157919
0.156381
0.154822
0.153246
0.151654
0.15005
0.148435
0.146811
0.14518
0.143545
0.141907
0.140268
0.138628
0.136991
0.135357
0.133727
0.132102
0.130485
0.128875
0.127273
0.125682
0.124101
0.122531
0.120973
0.119428
0.117895
0.116377
0.114873
0.113383
0.111908
0.110449
0.109006
0.107578
0.106167
0.104772
0.103394
0.102033
0.100689
0.0993618
0.0980518
0.0967589
0.0954832
0.0942248
0.0929836
0.0917596
0.0905528
0.089363
0.0881904
0.0870346
0.0858958
0.0847736
0.0836682
0.0825793
0.0815068
0.0804505
0.0794104
0.0783862
0.0773778
0.076385
0.0754078
0.0744457
0.0734989
0.0725669
0.0716497
0.070747
0.0698588
0.0689847
0.0681246
0.0672783
0.0664456
0.0656263
0.0648203
0.0640272
0.0632471
0.0624794
0.0617243
0.0609814
0.0602506
0.0595315
0.0588243
0.0581283
0.0574438
0.0567703
0.0561078
0.0554559
0.0548146
0.0541836
0.0535629
0.0529521
0.0523512
0.0517598
0.0511781
0.0506055
0.0500422
0.0494877
0.0489419
0.0484043
0.0478787
0.179355
0.179286
0.179069
0.178737
0.178301
0.177764
0.177129
0.176405
0.175596
0.174708
0.173745
0.172714
0.171618
0.170462
0.169252
0.16799
0.166681
0.165329
0.163937
0.16251
0.16105
0.15956
0.158045
0.156506
0.154947
0.15337
0.151778
0.150172
0.148556
0.146931
0.145299
0.143663
0.142023
0.140383
0.138742
0.137103
0.135467
0.133836
0.13221
0.130591
0.128979
0.127376
0.125783
0.1242
0.122628
0.121069
0.119521
0.117987
0.116467
0.114961
0.113469
0.111993
0.110532
0.109086
0.107657
0.106244
0.104847
0.103467
0.102104
0.100758
0.099429
0.098117
0.0968222
0.0955446
0.0942842
0.0930412
0.0918152
0.0906065
0.0894148
0.0882403
0.0870827
0.085942
0.084818
0.0837108
0.08262
0.0815458
0.0804876
0.0794458
0.0784197
0.0774097
0.0764151
0.0754362
0.0744724
0.0735239
0.0725902
0.0716714
0.070767
0.0698772
0.0690014
0.0681398
0.0672918
0.0664576
0.0656367
0.0648292
0.0640345
0.0632529
0.0624837
0.0617272
0.0609827
0.0602505
0.0595299
0.0588212
0.0581239
0.0574379
0.056763
0.0560991
0.0554458
0.0548032
0.0541708
0.0535487
0.0529366
0.0523344
0.0517417
0.0511586
0.0505847
0.0500201
0.0494643
0.0489173
0.0483784
0.0478517
0.179506
0.17944
0.179225
0.178894
0.178461
0.177925
0.177292
0.176569
0.175761
0.174874
0.173912
0.172882
0.171786
0.170631
0.169421
0.168159
0.16685
0.165498
0.164106
0.162678
0.161218
0.159728
0.158212
0.156672
0.155112
0.153534
0.15194
0.150333
0.148716
0.147089
0.145456
0.143818
0.142177
0.140534
0.138892
0.137251
0.135613
0.13398
0.132352
0.13073
0.129117
0.127511
0.125916
0.124331
0.122757
0.121195
0.119645
0.118108
0.116586
0.115077
0.113583
0.112104
0.11064
0.109192
0.10776
0.106345
0.104945
0.103563
0.102197
0.100848
0.0995166
0.098202
0.0969047
0.0956245
0.0943616
0.0931159
0.0918875
0.0906762
0.0894821
0.088305
0.087145
0.0860018
0.0848754
0.0837657
0.0826726
0.0815958
0.0805355
0.0794911
0.0784629
0.0774504
0.0764537
0.0754724
0.0745065
0.0735556
0.0726198
0.0716987
0.0707924
0.0699003
0.0690225
0.0681587
0.0673088
0.0664725
0.0656497
0.06484
0.0640436
0.0632598
0.0624889
0.0617303
0.0609841
0.0602498
0.0595276
0.058817
0.0581179
0.0574301
0.0567535
0.0560877
0.0554328
0.0547884
0.0541544
0.0535305
0.0529168
0.0523128
0.0517186
0.0511338
0.0505584
0.049992
0.0494348
0.0488861
0.0483458
0.0478176
0.179692
0.17963
0.179417
0.179089
0.178658
0.178124
0.177493
0.176772
0.175965
0.175079
0.174119
0.173089
0.171995
0.17084
0.16963
0.168368
0.167059
0.165707
0.164315
0.162887
0.161426
0.159935
0.158418
0.156877
0.155316
0.153737
0.152141
0.150533
0.148914
0.147286
0.145651
0.144011
0.142367
0.140722
0.139078
0.137435
0.135794
0.134158
0.132528
0.130903
0.129287
0.127679
0.126081
0.124493
0.122916
0.121351
0.119798
0.118258
0.116732
0.115221
0.113723
0.112241
0.110774
0.109323
0.107888
0.106469
0.105067
0.103681
0.102312
0.10096
0.0996255
0.0983078
0.0970072
0.0957239
0.0944578
0.093209
0.0919774
0.090763
0.0895658
0.0883857
0.0872225
0.0860763
0.0849469
0.0838342
0.0827381
0.0816584
0.0805951
0.0795478
0.0785167
0.0775013
0.0765018
0.0755176
0.074549
0.0735953
0.0726568
0.071733
0.070824
0.0699292
0.0690488
0.0681824
0.06733
0.0664911
0.0656658
0.0648536
0.0640547
0.0632685
0.0624951
0.0617342
0.0609856
0.060249
0.0595245
0.0588115
0.0581102
0.0574201
0.0567413
0.0560734
0.0554163
0.0547697
0.0541336
0.0535076
0.0528919
0.0522858
0.0516896
0.0511027
0.0505254
0.0499571
0.0493979
0.0488472
0.0483051
0.0477753
0.179914
0.179855
0.179646
0.179321
0.178892
0.178361
0.177732
0.177013
0.176208
0.175324
0.174365
0.173336
0.172242
0.171088
0.169879
0.168617
0.167308
0.165956
0.164563
0.163135
0.161673
0.160181
0.158663
0.157121
0.155559
0.153978
0.152381
0.15077
0.149149
0.147519
0.145882
0.144239
0.142593
0.140946
0.139299
0.137652
0.136009
0.13437
0.132737
0.131109
0.12949
0.127878
0.126277
0.124685
0.123105
0.121536
0.11998
0.118437
0.116907
0.115392
0.113891
0.112405
0.110934
0.109479
0.10804
0.106618
0.105212
0.103822
0.102449
0.101094
0.0997549
0.0984333
0.097129
0.0958418
0.0945721
0.0933194
0.0920842
0.090866
0.0896651
0.0884812
0.0873145
0.0861646
0.0850316
0.0839153
0.0828157
0.0817324
0.0806656
0.0796149
0.0785803
0.0775615
0.0765586
0.0755711
0.0745991
0.0736422
0.0727004
0.0717734
0.0708612
0.0699632
0.0690798
0.0682102
0.0673547
0.0665128
0.0656845
0.0648694
0.0640676
0.0632785
0.0625023
0.0617384
0.0609871
0.0602478
0.0595205
0.0588048
0.0581009
0.0574082
0.0567268
0.0560562
0.0553966
0.0547475
0.0541089
0.0534805
0.0528623
0.0522538
0.0516552
0.051066
0.0504864
0.0499157
0.0493543
0.0488014
0.0482571
0.0477253
0.180171
0.180116
0.17991
0.179588
0.179163
0.178634
0.178008
0.177291
0.176489
0.175606
0.174649
0.173621
0.172528
0.171375
0.170166
0.168905
0.167596
0.166243
0.164851
0.163421
0.161959
0.160466
0.158947
0.157403
0.155839
0.154256
0.152657
0.151045
0.149421
0.147789
0.146149
0.144503
0.142855
0.141204
0.139554
0.137904
0.136258
0.134615
0.132978
0.131347
0.129724
0.128109
0.126503
0.124908
0.123323
0.12175
0.12019
0.118643
0.117109
0.115589
0.114084
0.112594
0.111119
0.10966
0.108216
0.106789
0.105379
0.103985
0.102608
0.101248
0.0999044
0.0985785
0.0972697
0.0959783
0.0947041
0.0934472
0.0922075
0.0909851
0.0897799
0.0885918
0.0874208
0.0862667
0.0851295
0.0840091
0.0829053
0.081818
0.0807471
0.0796924
0.0786538
0.0776312
0.0766242
0.0756329
0.074657
0.0736964
0.0727507
0.0718201
0.070904
0.0700026
0.0691154
0.0682424
0.0673832
0.0665379
0.0657061
0.0648876
0.0640823
0.06329
0.0625103
0.0617434
0.0609886
0.0602462
0.0595157
0.058797
0.0580898
0.0573942
0.0567096
0.0560362
0.0553735
0.0547216
0.0540801
0.0534489
0.0528278
0.0522167
0.0516152
0.0510234
0.0504409
0.0498678
0.0493036
0.0487483
0.0482014
0.0476676
0.180461
0.18041
0.180209
0.179891
0.179469
0.178944
0.178321
0.177606
0.176806
0.175926
0.17497
0.173944
0.172852
0.1717
0.170491
0.169231
0.167922
0.166569
0.165176
0.163746
0.162282
0.160788
0.159268
0.157723
0.156156
0.154572
0.152971
0.151356
0.149729
0.148094
0.146451
0.144803
0.143151
0.141497
0.139843
0.13819
0.13654
0.134893
0.133252
0.131617
0.129989
0.12837
0.12676
0.12516
0.123571
0.121993
0.120428
0.118876
0.117338
0.115813
0.114303
0.112808
0.111328
0.109864
0.108416
0.106984
0.105568
0.104169
0.102787
0.101422
0.100074
0.0987429
0.0974292
0.0961328
0.0948536
0.0935918
0.0923472
0.09112
0.0899099
0.088717
0.0875411
0.0863823
0.0852403
0.0841152
0.0830067
0.0819148
0.0808393
0.0797801
0.0787369
0.0777098
0.0766984
0.0757027
0.0747224
0.0737575
0.0728076
0.0718727
0.0709525
0.0700469
0.0691556
0.0682785
0.0674153
0.066566
0.0657302
0.0649079
0.0640987
0.0633026
0.0625192
0.0617486
0.0609902
0.0602442
0.05951
0.0587878
0.0580772
0.0573781
0.0566901
0.0560134
0.0553473
0.0546922
0.0540474
0.053413
0.0527887
0.0521745
0.0515699
0.0509751
0.0503896
0.0498135
0.0492464
0.0486881
0.0481384
0.0476021
0.180784
0.180739
0.180542
0.180228
0.17981
0.179289
0.178669
0.177957
0.17716
0.176282
0.175328
0.174303
0.173213
0.172062
0.170854
0.169594
0.168285
0.166932
0.165538
0.164107
0.162643
0.161148
0.159625
0.158079
0.15651
0.154923
0.15332
0.151702
0.150073
0.148434
0.146788
0.145136
0.143481
0.141823
0.140165
0.138508
0.136853
0.135203
0.133557
0.131917
0.130285
0.128661
0.127046
0.125441
0.123847
0.122264
0.120694
0.119137
0.117593
0.116063
0.114547
0.113047
0.111561
0.110092
0.108638
0.1072
0.105779
0.104375
0.102987
0.101616
0.100263
0.0989263
0.097607
0.0963051
0.0950204
0.0937531
0.092503
0.0912703
0.0900548
0.0888566
0.0876753
0.0865112
0.0853639
0.0842336
0.0831198
0.0820228
0.080942
0.0798778
0.0788295
0.0777975
0.0767811
0.0757805
0.0747953
0.0738256
0.0728709
0.0719313
0.0710063
0.0700962
0.0692002
0.0683187
0.067451
0.0665973
0.0657571
0.0649305
0.064117
0.0633166
0.062529
0.0617542
0.0609918
0.0602417
0.0595036
0.0587775
0.0580629
0.0573599
0.0566682
0.0559877
0.0553179
0.0546591
0.0540107
0.0533728
0.0527449
0.0521272
0.0515192
0.050921
0.0503321
0.0497527
0.0491823
0.0486208
0.048068
0.047529
0.18114
0.1811
0.180908
0.1806
0.180186
0.179668
0.179052
0.178344
0.177549
0.176673
0.175722
0.174699
0.17361
0.17246
0.171253
0.169993
0.168685
0.167331
0.165937
0.164505
0.16304
0.161543
0.160019
0.158471
0.1569
0.15531
0.153704
0.152084
0.150451
0.148809
0.14716
0.145504
0.143844
0.142183
0.14052
0.138859
0.137199
0.135544
0.133893
0.132248
0.130611
0.128981
0.127361
0.12575
0.124151
0.122562
0.120987
0.119423
0.117874
0.116338
0.114816
0.11331
0.111819
0.110343
0.108883
0.107439
0.106012
0.104601
0.103208
0.101831
0.100471
0.0991282
0.0978029
0.0964948
0.0952041
0.0939307
0.0926747
0.0914359
0.0902145
0.0890102
0.0878231
0.086653
0.0855
0.0843638
0.0832444
0.0821415
0.0810552
0.0799852
0.0789315
0.0778938
0.0768721
0.0758659
0.0748755
0.0739003
0.0729405
0.0719956
0.0710656
0.0701502
0.0692493
0.0683626
0.0674901
0.0666314
0.0657865
0.064955
0.0641369
0.0633318
0.0625397
0.0617602
0.0609934
0.0602387
0.0594963
0.0587657
0.058047
0.0573397
0.0566438
0.055959
0.0552854
0.0546223
0.0539701
0.0533281
0.0526965
0.0520748
0.0514631
0.050861
0.0502686
0.0496854
0.0491116
0.0485463
0.0479902
0.0474481
0.181527
0.181494
0.181307
0.181004
0.180595
0.180082
0.17947
0.178765
0.177974
0.177101
0.176151
0.175131
0.174043
0.172895
0.171688
0.170429
0.16912
0.167767
0.166372
0.164939
0.163472
0.161974
0.160449
0.158898
0.157325
0.155733
0.154123
0.1525
0.150864
0.149218
0.147564
0.145905
0.144241
0.142575
0.140907
0.139241
0.137577
0.135916
0.13426
0.132609
0.130966
0.129331
0.127705
0.126088
0.124482
0.122888
0.121306
0.119736
0.11818
0.116638
0.11511
0.113597
0.112099
0.110617
0.10915
0.1077
0.106266
0.104848
0.103448
0.102064
0.100698
0.0993486
0.0980166
0.0967018
0.0954045
0.0941245
0.0928618
0.0916165
0.0903886
0.0891778
0.0879842
0.0868078
0.0856484
0.0845058
0.0833801
0.082271
0.0811786
0.0801024
0.0790426
0.0779989
0.0769711
0.0759591
0.0749628
0.0739818
0.0730162
0.0720656
0.07113
0.070209
0.0693026
0.0684105
0.0675326
0.0666685
0.0658183
0.0649816
0.0641583
0.0633481
0.062551
0.0617665
0.0609947
0.0602352
0.059488
0.0587527
0.0580293
0.0573173
0.0566169
0.0559276
0.0552495
0.0545821
0.0539254
0.0532792
0.0526433
0.0520174
0.0514017
0.0507955
0.050199
0.0496119
0.049034
0.0484649
0.047905
0.0473596
0.181946
0.181919
0.181739
0.181441
0.181037
0.180529
0.179921
0.17922
0.178432
0.177562
0.176615
0.175597
0.174511
0.173364
0.172158
0.170899
0.169591
0.168237
0.166842
0.165408
0.16394
0.162441
0.160913
0.15936
0.157784
0.156189
0.154577
0.15295
0.15131
0.14966
0.148002
0.146338
0.14467
0.142999
0.141326
0.139654
0.137985
0.136318
0.134656
0.133
0.131351
0.129709
0.128077
0.126454
0.124841
0.12324
0.121651
0.120075
0.118512
0.116963
0.115428
0.113907
0.112402
0.110913
0.109439
0.107982
0.106541
0.105116
0.103708
0.102317
0.100944
0.099587
0.0982478
0.0969258
0.0956213
0.0943341
0.0930644
0.0918119
0.0905769
0.0893591
0.0881586
0.0869751
0.0858089
0.0846594
0.0835269
0.082411
0.0813119
0.0802291
0.0791628
0.0781124
0.0770783
0.0760598
0.0750571
0.0740698
0.073098
0.0721412
0.0711995
0.0702725
0.0693601
0.068462
0.0675783
0.0667085
0.0658526
0.0650102
0.0641813
0.0633656
0.062563
0.0617731
0.060996
0.0602312
0.0594788
0.0587383
0.0580098
0.0572929
0.0565875
0.0558933
0.0552104
0.0545382
0.0538768
0.0532259
0.0525855
0.051955
0.0513348
0.0507242
0.0501234
0.0495319
0.0489498
0.0483764
0.0478125
0.0472635
0.182395
0.182376
0.182202
0.18191
0.181512
0.181009
0.180405
0.179709
0.178924
0.178058
0.177114
0.176097
0.175014
0.173868
0.172663
0.171405
0.170097
0.168743
0.167347
0.165912
0.164443
0.162941
0.161412
0.159856
0.158278
0.15668
0.155064
0.153433
0.151789
0.150135
0.148473
0.146804
0.14513
0.143454
0.141776
0.140099
0.138423
0.136751
0.135082
0.13342
0.131764
0.130116
0.128476
0.126846
0.125227
0.123619
0.122023
0.120439
0.118868
0.117312
0.115769
0.114241
0.112729
0.111231
0.10975
0.108285
0.106836
0.105403
0.103988
0.102589
0.101208
0.0998434
0.0984963
0.0971666
0.0958543
0.0945595
0.093282
0.092022
0.0907793
0.089554
0.0883459
0.087155
0.0859812
0.0848245
0.0836846
0.0825615
0.0814551
0.0803652
0.0792917
0.0782344
0.0771932
0.0761679
0.0751583
0.0741643
0.0731857
0.0722224
0.071274
0.0703405
0.0694216
0.0685173
0.0676272
0.0667512
0.065889
0.0650407
0.0642057
0.0633841
0.0625755
0.06178
0.060997
0.0602267
0.0594685
0.0587226
0.0579886
0.0572663
0.0565555
0.0558562
0.0551679
0.0544907
0.0538241
0.0531683
0.0525228
0.0518876
0.0512624
0.0506472
0.0500415
0.0494455
0.0488587
0.0482809
0.0477125
0.0471598
0.182875
0.182863
0.182696
0.182411
0.182019
0.181521
0.180922
0.18023
0.17945
0.178586
0.177645
0.176632
0.17555
0.174405
0.173202
0.171944
0.170637
0.169282
0.167886
0.16645
0.164979
0.163476
0.161944
0.160386
0.158805
0.157203
0.155584
0.153949
0.152301
0.150643
0.148975
0.147301
0.145623
0.143941
0.142257
0.140573
0.138892
0.137212
0.135538
0.133868
0.132205
0.13055
0.128903
0.127266
0.125639
0.124023
0.122419
0.120828
0.119249
0.117685
0.116134
0.114598
0.113077
0.111572
0.110082
0.108608
0.107151
0.105711
0.104287
0.10288
0.10149
0.100117
0.0987619
0.0974239
0.0961033
0.0948002
0.0935146
0.0922464
0.0909955
0.0897621
0.088546
0.0873471
0.0861654
0.0850008
0.083853
0.0827222
0.081608
0.0805105
0.0794294
0.0783646
0.0773159
0.0762832
0.0752663
0.0742651
0.0732793
0.0723088
0.0713534
0.070413
0.0694872
0.0685761
0.0676792
0.0667966
0.0659278
0.0650729
0.0642315
0.0634036
0.0625887
0.0617869
0.0609978
0.0602214
0.0594572
0.0587054
0.0579655
0.0572375
0.056521
0.055816
0.0551221
0.0544394
0.0537675
0.0531063
0.0524555
0.0518151
0.0511847
0.0505644
0.0499537
0.0493527
0.0487609
0.0481783
0.0476052
0.0470484
0.183384
0.18338
0.18322
0.182942
0.182556
0.182064
0.181471
0.180783
0.180007
0.179148
0.17821
0.177199
0.176119
0.174977
0.173774
0.172517
0.17121
0.169855
0.168458
0.167021
0.165549
0.164044
0.162509
0.160949
0.159364
0.157759
0.156136
0.154497
0.152845
0.151182
0.14951
0.14783
0.146146
0.144458
0.142768
0.141078
0.139389
0.137704
0.136022
0.134345
0.132675
0.131012
0.129357
0.127712
0.126077
0.124453
0.122841
0.121241
0.119654
0.118081
0.116522
0.114977
0.113448
0.111934
0.110435
0.108953
0.107487
0.106037
0.104604
0.103189
0.10179
0.100408
0.0990442
0.0976975
0.0963681
0.0950563
0.0937618
0.092485
0.0912254
0.0899835
0.0887587
0.0875514
0.0863611
0.0851881
0.084032
0.082893
0.0817705
0.0806649
0.0795756
0.0785029
0.0774462
0.0764057
0.0753809
0.0743721
0.0733785
0.0724006
0.0714376
0.0704898
0.0695567
0.0686383
0.0677342
0.0668445
0.0659687
0.0651069
0.0642586
0.0634239
0.0626023
0.061794
0.0609983
0.0602154
0.0594449
0.0586868
0.0579406
0.0572064
0.0564838
0.0557729
0.055073
0.0543845
0.0537067
0.0530399
0.0523834
0.0517375
0.0511015
0.0504758
0.0498597
0.0492535
0.0486565
0.0480686
0.0474906
0.0469294
0.183922
0.183927
0.183775
0.183504
0.183125
0.182639
0.182051
0.181369
0.180597
0.179741
0.178807
0.177799
0.176722
0.17558
0.17438
0.173123
0.171816
0.170461
0.169063
0.167626
0.166152
0.164645
0.163108
0.161544
0.159957
0.158348
0.156721
0.155078
0.153421
0.151752
0.150075
0.14839
0.146699
0.145005
0.143309
0.141612
0.139916
0.138223
0.136534
0.13485
0.133172
0.131501
0.129838
0.128185
0.126541
0.124909
0.123288
0.121679
0.120083
0.118501
0.116933
0.115379
0.11384
0.112317
0.110809
0.109317
0.107842
0.106383
0.104941
0.103516
0.102108
0.100717
0.0993433
0.0979872
0.0966485
0.0953273
0.0940237
0.0927375
0.0914689
0.0902177
0.088984
0.0877675
0.0865684
0.0853864
0.0842215
0.0830736
0.0819426
0.0808282
0.0797305
0.0786491
0.0775841
0.0765351
0.0755022
0.074485
0.0734835
0.0724974
0.0715266
0.0705708
0.0696301
0.0687039
0.0677923
0.0668949
0.0660118
0.0651425
0.0642871
0.063445
0.0626165
0.0618009
0.0609985
0.0602086
0.0594314
0.0586665
0.0579138
0.057173
0.0564441
0.0557266
0.0550206
0.0543257
0.053642
0.0529689
0.0523066
0.0516546
0.051013
0.0503813
0.0497597
0.0491477
0.0485453
0.0479518
0.0473686
0.0468027
0.184488
0.184502
0.184358
0.184095
0.183723
0.183244
0.182662
0.181985
0.181218
0.180366
0.179435
0.17843
0.177356
0.176216
0.175017
0.173762
0.172455
0.1711
0.169701
0.168262
0.166787
0.165278
0.163738
0.162172
0.160581
0.158968
0.157337
0.155689
0.154027
0.152354
0.15067
0.148979
0.147283
0.145582
0.143879
0.142175
0.140472
0.138771
0.137074
0.135382
0.133696
0.132016
0.130345
0.128683
0.127031
0.125389
0.123759
0.122141
0.120536
0.118944
0.117366
0.115803
0.114254
0.112721
0.111204
0.109702
0.108217
0.106748
0.105296
0.103861
0.102443
0.101042
0.0996588
0.0982927
0.0969443
0.0956133
0.0942998
0.093004
0.0917257
0.0904648
0.0892215
0.0879955
0.0867869
0.0855955
0.0844213
0.0832641
0.0821239
0.0810003
0.0798936
0.0788032
0.0777293
0.0766715
0.0756299
0.074604
0.073594
0.0725994
0.0716202
0.0706561
0.0697071
0.0687727
0.0678531
0.0669478
0.0660568
0.0651797
0.0643166
0.063467
0.0626309
0.0618079
0.0609981
0.060201
0.0594167
0.0586446
0.057885
0.0571373
0.0564015
0.0556773
0.0549647
0.0542632
0.053573
0.0528935
0.0522249
0.0515666
0.0509188
0.0502811
0.0496535
0.0490355
0.0484272
0.0478279
0.0472392
0.0466683
0.185082
0.185106
0.184971
0.184715
0.184351
0.183878
0.183303
0.182631
0.181869
0.181022
0.180095
0.179093
0.178021
0.176884
0.175686
0.174432
0.173125
0.17177
0.170371
0.168931
0.167453
0.165942
0.1644
0.162831
0.161236
0.15962
0.157984
0.156332
0.154665
0.152985
0.151296
0.149599
0.147896
0.146188
0.144478
0.142767
0.141056
0.139347
0.137642
0.135941
0.134246
0.132558
0.130878
0.129207
0.127545
0.125894
0.124254
0.122626
0.121012
0.11941
0.117822
0.116248
0.11469
0.113146
0.111619
0.110107
0.108611
0.107132
0.105669
0.104224
0.102795
0.101384
0.0999905
0.098614
0.0972553
0.0959139
0.0945902
0.0932841
0.0919956
0.0907246
0.0894712
0.0882351
0.0870166
0.0858153
0.0846313
0.0834642
0.0823144
0.0811812
0.0800649
0.0789651
0.0778818
0.0768147
0.0757639
0.0747289
0.0737099
0.0727063
0.0717183
0.0707454
0.0697878
0.0688448
0.0679168
0.0670031
0.0661038
0.0652185
0.0643473
0.0634896
0.0626456
0.0618148
0.0609973
0.0601925
0.0594007
0.0586212
0.0578542
0.0570991
0.0563562
0.0556249
0.0549053
0.0541969
0.0534998
0.0528136
0.0521383
0.0514734
0.0508192
0.050175
0.0495411
0.0489168
0.0483024
0.0476969
0.0471023
0.0465263
0.185704
0.185738
0.185611
0.185365
0.185008
0.184542
0.183974
0.183308
0.182551
0.181709
0.180785
0.179787
0.178718
0.177583
0.176386
0.175133
0.173827
0.172472
0.171072
0.169631
0.168152
0.166638
0.165094
0.163521
0.161923
0.160302
0.158662
0.157005
0.155332
0.153647
0.151952
0.150248
0.148538
0.146823
0.145106
0.143387
0.141668
0.139951
0.138237
0.136528
0.134824
0.133126
0.131437
0.129756
0.128084
0.126423
0.124773
0.123136
0.12151
0.119898
0.1183
0.116716
0.115146
0.113592
0.112054
0.110531
0.109024
0.107534
0.106061
0.104604
0.103165
0.101743
0.100338
0.098951
0.0975812
0.0962291
0.0948946
0.0935778
0.0922785
0.0909969
0.0897329
0.0884864
0.0872573
0.0860456
0.0848512
0.083674
0.0825139
0.0813707
0.0802443
0.0791347
0.0780415
0.0769647
0.0759041
0.0748597
0.073831
0.0728182
0.0718208
0.0708388
0.0698719
0.0689201
0.067983
0.0670606
0.0661525
0.0652588
0.0643789
0.063513
0.0626605
0.0618216
0.0609958
0.0601832
0.0593832
0.0585961
0.0578212
0.0570587
0.056308
0.0555694
0.0548423
0.0541267
0.0534223
0.0527291
0.0520467
0.0513751
0.0507138
0.050063
0.0494223
0.0487916
0.0481705
0.0475587
0.0469578
0.0463765
0.186352
0.186397
0.18628
0.186042
0.185694
0.185235
0.184673
0.184014
0.183263
0.182425
0.181506
0.180511
0.179445
0.178312
0.177117
0.175865
0.17456
0.173205
0.171804
0.170361
0.168881
0.167365
0.165817
0.164241
0.16264
0.161015
0.15937
0.157707
0.15603
0.154339
0.152637
0.150926
0.149209
0.147487
0.145762
0.144035
0.142308
0.140582
0.138859
0.13714
0.135427
0.13372
0.132021
0.13033
0.128648
0.126977
0.125316
0.123668
0.122032
0.120409
0.118799
0.117204
0.115624
0.114058
0.112508
0.110974
0.109456
0.107955
0.10647
0.105002
0.103552
0.102118
0.100702
0.0993032
0.0979221
0.0965587
0.0952129
0.0938848
0.0925744
0.0912816
0.0900065
0.088749
0.0875089
0.0862864
0.0850811
0.0838932
0.0827224
0.0815687
0.0804318
0.0793117
0.0782082
0.0771213
0.0760505
0.074996
0.0739575
0.0729348
0.0719276
0.0709361
0.0699596
0.0689984
0.068052
0.0671203
0.0662031
0.0653003
0.0644115
0.0635367
0.0626756
0.0618281
0.0609938
0.0601727
0.0593644
0.058569
0.0577861
0.0570155
0.056257
0.0555105
0.0547757
0.0540525
0.0533406
0.05264
0.0519502
0.0512713
0.0506029
0.0499451
0.0492973
0.0486597
0.0480318
0.0474133
0.0468059
0.0462189
0.187027
0.187083
0.186975
0.186747
0.186407
0.185957
0.185402
0.184749
0.184003
0.183171
0.182256
0.181265
0.180202
0.179072
0.177879
0.176628
0.175323
0.173967
0.172566
0.171123
0.16964
0.168122
0.166572
0.164992
0.163387
0.161758
0.160108
0.15844
0.156756
0.155059
0.153351
0.151633
0.149909
0.148179
0.146445
0.14471
0.142974
0.14124
0.139508
0.137779
0.136056
0.134339
0.13263
0.130928
0.129236
0.127554
0.125882
0.124223
0.122576
0.120941
0.11932
0.117714
0.116122
0.114545
0.112983
0.111437
0.109907
0.108394
0.106897
0.105417
0.103955
0.102509
0.101081
0.0996708
0.0982778
0.0969026
0.0955449
0.0942051
0.0928829
0.0915786
0.0902918
0.0890229
0.0877713
0.0865375
0.0853209
0.0841218
0.0829398
0.081775
0.0806271
0.0794963
0.0783819
0.0772843
0.076203
0.0751381
0.0740891
0.0730561
0.0720388
0.0710372
0.0700507
0.0690797
0.0681234
0.0671822
0.0662554
0.0653432
0.064445
0.0635611
0.0626907
0.0618343
0.060991
0.0601612
0.0593442
0.0585403
0.0577487
0.0569699
0.056203
0.0554484
0.0547055
0.0539744
0.0532545
0.0525461
0.0518486
0.0511622
0.0504863
0.0498211
0.049166
0.0485212
0.0478861
0.0472606
0.0466464
0.0460535
0.187728
0.187795
0.187698
0.187479
0.187148
0.186706
0.186158
0.185512
0.184773
0.183945
0.183035
0.182048
0.180988
0.179861
0.17867
0.17742
0.176115
0.17476
0.173359
0.171914
0.170429
0.168909
0.167356
0.165773
0.164163
0.16253
0.160875
0.159202
0.157512
0.155809
0.154093
0.152369
0.150637
0.148899
0.147157
0.145413
0.143668
0.141924
0.140183
0.138444
0.136711
0.134984
0.133263
0.131551
0.129848
0.128155
0.126472
0.124801
0.123142
0.121496
0.119863
0.118244
0.11664
0.115051
0.113477
0.111919
0.110377
0.108851
0.107342
0.10585
0.104375
0.102917
0.101476
0.100053
0.0986481
0.0972605
0.0958906
0.0945385
0.0932042
0.0918877
0.0905889
0.0893079
0.0880445
0.0867987
0.0855704
0.0843595
0.083166
0.0819896
0.0808304
0.0796881
0.0785626
0.0774538
0.0763615
0.0752855
0.0742258
0.073182
0.0721542
0.0711419
0.0701452
0.0691637
0.0681974
0.067246
0.0663094
0.0653872
0.0644794
0.0635857
0.062706
0.0618399
0.0609876
0.0601484
0.0593225
0.0585094
0.0577092
0.0569214
0.0561461
0.0553828
0.0546316
0.053892
0.0531641
0.0524474
0.051742
0.0510475
0.050364
0.0496908
0.0490283
0.0483759
0.0477335
0.0471004
0.0464793
0.04588
0.188455
0.188533
0.188446
0.188237
0.187916
0.187482
0.186943
0.186303
0.18557
0.184748
0.183843
0.18286
0.181804
0.180679
0.17949
0.178241
0.176938
0.175583
0.17418
0.172734
0.171248
0.169725
0.168169
0.166583
0.164969
0.163331
0.161671
0.159992
0.158296
0.156586
0.154864
0.153132
0.151392
0.149646
0.147896
0.146143
0.144389
0.142635
0.140883
0.139135
0.137391
0.135653
0.133922
0.132198
0.130484
0.128779
0.127084
0.125401
0.12373
0.122072
0.120427
0.118795
0.117179
0.115577
0.11399
0.112419
0.110864
0.109326
0.107804
0.106299
0.104811
0.10334
0.101887
0.100451
0.0990329
0.0976324
0.0962499
0.094885
0.0935381
0.0922088
0.0908976
0.0896039
0.0883282
0.08707
0.0858295
0.0846064
0.0834008
0.0822124
0.0810414
0.0798872
0.0787501
0.0776296
0.0765259
0.0754384
0.0743675
0.0733125
0.0722736
0.0712504
0.0702429
0.0692506
0.0682738
0.0673118
0.0663649
0.0654323
0.0645145
0.0636107
0.0627211
0.0618452
0.0609832
0.0601344
0.0592991
0.0584767
0.0576673
0.0568703
0.056086
0.0553138
0.0545538
0.0538055
0.0530691
0.0523439
0.0516303
0.0509275
0.0502358
0.0495546
0.0488841
0.0482238
0.0475737
0.0469329
0.0463044
0.0456987
0.189206
0.189296
0.189221
0.189022
0.188711
0.188286
0.187754
0.187122
0.186395
0.185579
0.184679
0.1837
0.182648
0.181526
0.180339
0.179092
0.177789
0.176434
0.175031
0.173584
0.172096
0.170571
0.169012
0.167422
0.165804
0.164161
0.162496
0.160811
0.159109
0.157392
0.155663
0.153923
0.152175
0.150421
0.148661
0.146899
0.145135
0.143372
0.14161
0.139851
0.138096
0.136347
0.134604
0.132869
0.131143
0.129426
0.127719
0.126024
0.12434
0.122669
0.121011
0.119367
0.117738
0.116123
0.114523
0.112939
0.11137
0.109819
0.108283
0.106765
0.105263
0.103779
0.102313
0.100864
0.099432
0.0980183
0.0966224
0.0952444
0.0938842
0.092542
0.0912176
0.0899111
0.0886223
0.0873514
0.0860981
0.0848624
0.0836442
0.0824434
0.0812599
0.0800935
0.0789442
0.0778117
0.0766959
0.0755968
0.074514
0.0734475
0.072397
0.0713625
0.0703436
0.0693404
0.0683524
0.0673796
0.0664217
0.0654787
0.0645501
0.0636361
0.062736
0.0618501
0.0609779
0.0601193
0.059274
0.058442
0.0576228
0.0568166
0.0560227
0.0552414
0.0544721
0.053715
0.0529695
0.0522357
0.0515131
0.0508019
0.0501015
0.0494122
0.0487333
0.048065
0.0474066
0.0467579
0.0461217
0.0455094
0.189982
0.190085
0.190021
0.189833
0.189531
0.189115
0.188592
0.187968
0.187248
0.186438
0.185543
0.184569
0.18352
0.182401
0.181216
0.179971
0.178669
0.177314
0.175911
0.174462
0.172972
0.171445
0.169883
0.168289
0.166667
0.165019
0.163349
0.161658
0.15995
0.158226
0.156489
0.154742
0.152985
0.151222
0.149453
0.147682
0.145908
0.144134
0.142362
0.140592
0.138826
0.137066
0.135311
0.133564
0.131825
0.130096
0.128377
0.126669
0.124972
0.123288
0.121617
0.119959
0.118316
0.116688
0.115074
0.113477
0.111895
0.110329
0.10878
0.107248
0.105732
0.104234
0.102754
0.101291
0.0998455
0.098418
0.0970083
0.0956166
0.0942428
0.0928869
0.091549
0.090229
0.0889269
0.0876427
0.0863761
0.0851274
0.0838961
0.0826824
0.081486
0.080307
0.0791449
0.078
0.0768718
0.0757604
0.0746654
0.0735869
0.0725244
0.0714781
0.0704475
0.0694327
0.0684332
0.0674492
0.0664801
0.065526
0.0645864
0.0636615
0.0627508
0.0618543
0.0609716
0.0601027
0.0592471
0.058405
0.0575759
0.0567598
0.0559562
0.0551653
0.0543865
0.05362
0.0528652
0.0521223
0.0513907
0.0506706
0.0499615
0.0492634
0.0485759
0.0478991
0.0472323
0.0465754
0.0459312
0.0453119
0.190782
0.190898
0.190845
0.190669
0.190377
0.189971
0.189456