/*--------------------------------*- C++ -*----------------------------------*\
  =========                 |
  \\      /  F ield         | OpenFOAM: The Open Source CFD Toolbox
   \\    /   O peration     | Website:  https://openfoam.org
    \\  /    A nd           | Version:  8
     \\/     M anipulation  |
\*---------------------------------------------------------------------------*/
FoamFile
{
    version     2.0;
    format      ascii;
    class       volScalarField;
    location    "1.9";
    object      nuTilda;
}
// * * * * * * * * * * * * * * * * * * * * * * * * * * * * * * * * * * * * * //

dimensions      [0 2 -1 0 0 0 0];

internalField   nonuniform List<scalar> 
277560
(
0.139551
0.138714
0.137944
0.137239
0.136595
0.136009
0.135477
0.134998
0.134567
0.134182
0.133839
0.133536
0.13327
0.133038
0.132839
0.132669
0.132526
0.132409
0.132316
0.132244
0.132192
0.132158
0.132141
0.13214
0.132152
0.132177
0.132214
0.132262
0.132319
0.132386
0.13246
0.132541
0.132628
0.132722
0.13282
0.132923
0.133029
0.13314
0.133253
0.133368
0.133486
0.133606
0.133727
0.133849
0.133971
0.134095
0.134218
0.134342
0.134465
0.134588
0.13471
0.134832
0.134952
0.135072
0.13519
0.135307
0.135423
0.135537
0.13565
0.135761
0.13587
0.135977
0.136083
0.136186
0.136288
0.136387
0.136485
0.13658
0.136673
0.136765
0.136853
0.13694
0.137025
0.137107
0.137188
0.137266
0.137341
0.137415
0.137486
0.137555
0.137622
0.137687
0.137749
0.137809
0.137867
0.137923
0.137976
0.138028
0.138077
0.138123
0.138168
0.13821
0.13825
0.138288
0.138324
0.138357
0.138388
0.138417
0.138443
0.138468
0.13849
0.138509
0.138527
0.138542
0.138555
0.138565
0.138573
0.138579
0.138582
0.138583
0.138582
0.138578
0.138572
0.138563
0.138551
0.138538
0.138521
0.138502
0.138481
0.138457
0.13955
0.138712
0.137942
0.137237
0.136592
0.136006
0.135475
0.134995
0.134564
0.134179
0.133836
0.133533
0.133267
0.133035
0.132836
0.132666
0.132524
0.132407
0.132313
0.132241
0.132189
0.132155
0.132138
0.132136
0.132149
0.132174
0.132211
0.132258
0.132315
0.132381
0.132455
0.132536
0.132624
0.132717
0.132815
0.132918
0.133024
0.133134
0.133247
0.133363
0.13348
0.1336
0.13372
0.133842
0.133965
0.134088
0.134211
0.134335
0.134458
0.134581
0.134703
0.134824
0.134945
0.135064
0.135183
0.1353
0.135415
0.135529
0.135642
0.135753
0.135862
0.135969
0.136075
0.136178
0.13628
0.136379
0.136477
0.136572
0.136665
0.136756
0.136845
0.136932
0.137017
0.137099
0.13718
0.137258
0.137333
0.137407
0.137478
0.137547
0.137614
0.137679
0.137741
0.137802
0.13786
0.137915
0.137969
0.13802
0.138069
0.138116
0.138161
0.138203
0.138243
0.138281
0.138316
0.13835
0.138381
0.13841
0.138436
0.138461
0.138483
0.138502
0.13852
0.138535
0.138548
0.138558
0.138566
0.138572
0.138575
0.138576
0.138575
0.138571
0.138565
0.138556
0.138544
0.138531
0.138514
0.138495
0.138474
0.13845
0.139549
0.13871
0.137938
0.137231
0.136586
0.135999
0.135467
0.134987
0.134556
0.13417
0.133827
0.133524
0.133257
0.133026
0.132826
0.132656
0.132513
0.132396
0.132302
0.13223
0.132177
0.132143
0.132126
0.132124
0.132136
0.132161
0.132197
0.132245
0.132302
0.132367
0.132441
0.132522
0.132609
0.132701
0.132799
0.132902
0.133008
0.133118
0.13323
0.133346
0.133463
0.133582
0.133703
0.133824
0.133947
0.13407
0.134193
0.134316
0.134439
0.134562
0.134684
0.134806
0.134926
0.135045
0.135164
0.135281
0.135396
0.13551
0.135623
0.135734
0.135843
0.13595
0.136056
0.136159
0.136261
0.136361
0.136458
0.136554
0.136647
0.136738
0.136827
0.136914
0.136999
0.137082
0.137162
0.13724
0.137316
0.13739
0.137461
0.137531
0.137598
0.137663
0.137725
0.137786
0.137844
0.1379
0.137953
0.138005
0.138054
0.138101
0.138145
0.138188
0.138228
0.138266
0.138302
0.138335
0.138367
0.138395
0.138422
0.138447
0.138469
0.138488
0.138506
0.138521
0.138534
0.138544
0.138553
0.138558
0.138562
0.138563
0.138561
0.138557
0.138551
0.138542
0.13853
0.138516
0.1385
0.138481
0.138459
0.138435
0.139547
0.138705
0.137932
0.137223
0.136577
0.135989
0.135456
0.134975
0.134542
0.134156
0.133812
0.133508
0.133242
0.133009
0.132809
0.132639
0.132496
0.132378
0.132284
0.132211
0.132158
0.132124
0.132106
0.132103
0.132115
0.13214
0.132176
0.132223
0.132279
0.132344
0.132417
0.132498
0.132584
0.132677
0.132774
0.132876
0.132982
0.133092
0.133204
0.133319
0.133436
0.133555
0.133675
0.133797
0.133919
0.134042
0.134165
0.134288
0.134411
0.134534
0.134656
0.134777
0.134897
0.135017
0.135135
0.135252
0.135368
0.135482
0.135595
0.135706
0.135815
0.135922
0.136028
0.136132
0.136233
0.136333
0.136431
0.136527
0.13662
0.136712
0.136801
0.136888
0.136973
0.137056
0.137137
0.137215
0.137291
0.137365
0.137437
0.137507
0.137574
0.137639
0.137702
0.137762
0.137821
0.137877
0.137931
0.137983
0.138032
0.138079
0.138124
0.138167
0.138207
0.138245
0.138281
0.138315
0.138346
0.138375
0.138402
0.138427
0.138449
0.138469
0.138487
0.138502
0.138515
0.138525
0.138533
0.138539
0.138542
0.138543
0.138542
0.138538
0.138531
0.138522
0.138511
0.138496
0.13848
0.13846
0.138438
0.138414
0.139545
0.1387
0.137924
0.137213
0.136564
0.135975
0.13544
0.134958
0.134525
0.134137
0.133793
0.133488
0.133221
0.132988
0.132787
0.132616
0.132472
0.132354
0.132259
0.132186
0.132132
0.132097
0.132079
0.132076
0.132087
0.132111
0.132146
0.132193
0.132249
0.132313
0.132386
0.132466
0.132552
0.132644
0.132741
0.132843
0.132948
0.133057
0.133169
0.133284
0.133401
0.133519
0.133639
0.13376
0.133883
0.134005
0.134128
0.134251
0.134374
0.134496
0.134618
0.13474
0.13486
0.13498
0.135098
0.135215
0.135331
0.135445
0.135558
0.135669
0.135778
0.135886
0.135992
0.136096
0.136198
0.136298
0.136396
0.136492
0.136586
0.136678
0.136767
0.136855
0.13694
0.137023
0.137104
0.137183
0.13726
0.137334
0.137406
0.137476
0.137544
0.137609
0.137673
0.137734
0.137792
0.137849
0.137903
0.137955
0.138005
0.138052
0.138098
0.138141
0.138181
0.13822
0.138256
0.13829
0.138322
0.138351
0.138378
0.138403
0.138425
0.138445
0.138463
0.138478
0.138491
0.138502
0.13851
0.138516
0.138519
0.13852
0.138518
0.138514
0.138507
0.138498
0.138486
0.138472
0.138455
0.138436
0.138413
0.138389
0.139543
0.138694
0.137914
0.137201
0.13655
0.135958
0.135422
0.134938
0.134503
0.134115
0.133769
0.133463
0.133195
0.132961
0.132759
0.132588
0.132443
0.132324
0.132228
0.132155
0.1321
0.132065
0.132046
0.132042
0.132052
0.132075
0.13211
0.132156
0.132211
0.132275
0.132347
0.132427
0.132512
0.132604
0.1327
0.132801
0.132906
0.133015
0.133127
0.133241
0.133357
0.133476
0.133595
0.133716
0.133838
0.133961
0.134083
0.134206
0.134329
0.134452
0.134574
0.134695
0.134815
0.134935
0.135053
0.135171
0.135287
0.135401
0.135514
0.135626
0.135735
0.135843
0.135949
0.136054
0.136156
0.136256
0.136355
0.136451
0.136546
0.136638
0.136728
0.136816
0.136902
0.136985
0.137067
0.137146
0.137223
0.137298
0.13737
0.137441
0.137509
0.137575
0.137639
0.1377
0.137759
0.137816
0.137871
0.137923
0.137974
0.138022
0.138067
0.138111
0.138152
0.138191
0.138227
0.138261
0.138293
0.138323
0.13835
0.138375
0.138398
0.138418
0.138436
0.138451
0.138464
0.138475
0.138483
0.138489
0.138492
0.138493
0.138491
0.138487
0.13848
0.138471
0.138459
0.138444
0.138427
0.138407
0.138385
0.13836
0.13954
0.138687
0.137903
0.137186
0.136533
0.135938
0.1354
0.134914
0.134478
0.134088
0.133741
0.133434
0.133165
0.13293
0.132727
0.132554
0.132409
0.132289
0.132193
0.132118
0.132063
0.132026
0.132007
0.132002
0.132012
0.132034
0.132068
0.132113
0.132168
0.132231
0.132302
0.132381
0.132466
0.132557
0.132653
0.132753
0.132858
0.132966
0.133077
0.133191
0.133307
0.133425
0.133545
0.133665
0.133787
0.133909
0.134032
0.134155
0.134278
0.1344
0.134522
0.134643
0.134764
0.134884
0.135002
0.13512
0.135236
0.135351
0.135464
0.135576
0.135686
0.135794
0.135901
0.136005
0.136108
0.136209
0.136308
0.136405
0.1365
0.136593
0.136683
0.136772
0.136858
0.136942
0.137024
0.137104
0.137182
0.137257
0.13733
0.137401
0.13747
0.137536
0.137601
0.137663
0.137722
0.13778
0.137835
0.137888
0.137939
0.137987
0.138033
0.138077
0.138119
0.138158
0.138195
0.13823
0.138262
0.138292
0.138319
0.138345
0.138367
0.138388
0.138406
0.138422
0.138435
0.138446
0.138454
0.13846
0.138463
0.138464
0.138462
0.138457
0.138451
0.138441
0.138429
0.138414
0.138396
0.138376
0.138353
0.138328
0.139537
0.138679
0.137891
0.137171
0.136514
0.135916
0.135376
0.134888
0.13445
0.134058
0.13371
0.133401
0.133131
0.132895
0.132691
0.132517
0.132371
0.13225
0.132153
0.132077
0.132021
0.131983
0.131963
0.131957
0.131966
0.131988
0.132021
0.132065
0.132119
0.132181
0.132252
0.13233
0.132414
0.132504
0.1326
0.132699
0.132804
0.132911
0.133022
0.133135
0.133251
0.133369
0.133488
0.133608
0.13373
0.133852
0.133975
0.134097
0.13422
0.134343
0.134465
0.134586
0.134707
0.134827
0.134946
0.135063
0.13518
0.135295
0.135409
0.135521
0.135631
0.13574
0.135847
0.135952
0.136056
0.136157
0.136257
0.136354
0.136449
0.136543
0.136634
0.136723
0.13681
0.136895
0.136978
0.137058
0.137136
0.137213
0.137286
0.137358
0.137427
0.137495
0.137559
0.137622
0.137682
0.137741
0.137796
0.13785
0.137901
0.13795
0.137997
0.138041
0.138083
0.138123
0.13816
0.138195
0.138228
0.138258
0.138286
0.138312
0.138335
0.138356
0.138374
0.13839
0.138403
0.138414
0.138422
0.138428
0.138431
0.138432
0.13843
0.138426
0.138419
0.138409
0.138396
0.138381
0.138363
0.138343
0.138319
0.138293
0.139534
0.13867
0.137878
0.137153
0.136493
0.135893
0.135349
0.134859
0.134419
0.134025
0.133675
0.133365
0.133093
0.132856
0.132651
0.132476
0.132329
0.132207
0.132108
0.132031
0.131975
0.131936
0.131914
0.131908
0.131916
0.131936
0.131969
0.132012
0.132065
0.132127
0.132196
0.132273
0.132357
0.132446
0.132541
0.13264
0.132744
0.132851
0.132961
0.133074
0.13319
0.133307
0.133426
0.133546
0.133667
0.133789
0.133912
0.134035
0.134157
0.13428
0.134402
0.134524
0.134645
0.134765
0.134884
0.135002
0.135119
0.135234
0.135349
0.135461
0.135572
0.135681
0.135789
0.135895
0.135999
0.136101
0.136201
0.136299
0.136395
0.136489
0.136581
0.136671
0.136759
0.136844
0.136928
0.137009
0.137088
0.137165
0.137239
0.137312
0.137382
0.13745
0.137515
0.137579
0.13764
0.137699
0.137755
0.137809
0.137861
0.137911
0.137958
0.138003
0.138046
0.138086
0.138124
0.138159
0.138192
0.138223
0.138251
0.138277
0.138301
0.138322
0.13834
0.138356
0.13837
0.138381
0.138389
0.138395
0.138398
0.138399
0.138397
0.138392
0.138385
0.138375
0.138362
0.138346
0.138328
0.138307
0.138283
0.138257
0.139531
0.138661
0.137864
0.137135
0.13647
0.135867
0.13532
0.134828
0.134385
0.133989
0.133638
0.133326
0.133053
0.132814
0.132608
0.132432
0.132283
0.13216
0.13206
0.131982
0.131924
0.131885
0.131862
0.131855
0.131861
0.131881
0.131912
0.131955
0.132007
0.132067
0.132136
0.132213
0.132295
0.132384
0.132478
0.132577
0.13268
0.132786
0.132896
0.133008
0.133123
0.13324
0.133359
0.133479
0.1336
0.133722
0.133844
0.133967
0.13409
0.134213
0.134335
0.134457
0.134578
0.134698
0.134818
0.134936
0.135054
0.13517
0.135284
0.135397
0.135509
0.135619
0.135727
0.135833
0.135938
0.136041
0.136142
0.136241
0.136337
0.136432
0.136525
0.136616
0.136704
0.136791
0.136875
0.136957
0.137037
0.137114
0.13719
0.137263
0.137334
0.137402
0.137469
0.137533
0.137595
0.137654
0.137712
0.137766
0.137819
0.137869
0.137917
0.137963
0.138006
0.138047
0.138085
0.138121
0.138155
0.138186
0.138215
0.138241
0.138265
0.138286
0.138305
0.138321
0.138334
0.138346
0.138354
0.13836
0.138363
0.138364
0.138362
0.138357
0.138349
0.138339
0.138326
0.13831
0.138292
0.13827
0.138246
0.138218
0.139528
0.138652
0.137849
0.137115
0.136446
0.135839
0.135289
0.134794
0.134349
0.133951
0.133597
0.133284
0.133009
0.132769
0.132562
0.132384
0.132234
0.13211
0.132009
0.13193
0.131871
0.13183
0.131806
0.131798
0.131803
0.131822
0.131852
0.131893
0.131944
0.132004
0.132072
0.132148
0.13223
0.132318
0.132411
0.132509
0.132611
0.132717
0.132826
0.132938
0.133053
0.13317
0.133288
0.133408
0.133529
0.13365
0.133773
0.133896
0.134018
0.134141
0.134264
0.134386
0.134507
0.134628
0.134748
0.134867
0.134985
0.135101
0.135216
0.13533
0.135442
0.135553
0.135662
0.135769
0.135874
0.135978
0.136079
0.136179
0.136277
0.136372
0.136466
0.136557
0.136647
0.136734
0.136819
0.136902
0.136983
0.137061
0.137138
0.137212
0.137283
0.137353
0.13742
0.137485
0.137548
0.137608
0.137666
0.137722
0.137775
0.137826
0.137875
0.137921
0.137965
0.138006
0.138045
0.138082
0.138116
0.138147
0.138176
0.138203
0.138227
0.138249
0.138268
0.138284
0.138298
0.138309
0.138318
0.138324
0.138327
0.138328
0.138325
0.13832
0.138313
0.138302
0.138289
0.138273
0.138253
0.138231
0.138206
0.138179
0.139524
0.138641
0.137832
0.137093
0.13642
0.135809
0.135256
0.134758
0.13431
0.13391
0.133555
0.13324
0.132963
0.132722
0.132513
0.132334
0.132183
0.132057
0.131955
0.131875
0.131814
0.131773
0.131747
0.131738
0.131742
0.13176
0.131789
0.131829
0.131879
0.131938
0.132005
0.132079
0.132161
0.132248
0.13234
0.132437
0.132539
0.132644
0.132753
0.132865
0.132979
0.133095
0.133213
0.133333
0.133454
0.133575
0.133698
0.13382
0.133943
0.134066
0.134189
0.134311
0.134433
0.134554
0.134675
0.134794
0.134912
0.135029
0.135145
0.135259
0.135372
0.135483
0.135593
0.135701
0.135807
0.135912
0.136014
0.136115
0.136213
0.13631
0.136404
0.136497
0.136587
0.136675
0.136761
0.136845
0.136927
0.137006
0.137083
0.137158
0.137231
0.137302
0.13737
0.137435
0.137499
0.13756
0.137619
0.137675
0.13773
0.137781
0.137831
0.137877
0.137922
0.137964
0.138003
0.138041
0.138075
0.138107
0.138137
0.138164
0.138188
0.13821
0.13823
0.138246
0.13826
0.138272
0.13828
0.138286
0.13829
0.13829
0.138288
0.138283
0.138275
0.138264
0.13825
0.138234
0.138214
0.138191
0.138166
0.138137
0.13952
0.13863
0.137815
0.13707
0.136392
0.135777
0.135221
0.13472
0.13427
0.133867
0.13351
0.133193
0.132915
0.132672
0.132461
0.132281
0.132129
0.132002
0.131899
0.131817
0.131755
0.131712
0.131686
0.131675
0.131678
0.131695
0.131723
0.131762
0.131811
0.131869
0.131935
0.132008
0.132088
0.132175
0.132266
0.132363
0.132464
0.132568
0.132677
0.132788
0.132901
0.133017
0.133135
0.133255
0.133375
0.133497
0.133619
0.133742
0.133865
0.133988
0.134111
0.134234
0.134356
0.134477
0.134598
0.134718
0.134837
0.134954
0.135071
0.135186
0.135299
0.135411
0.135522
0.135631
0.135738
0.135843
0.135946
0.136048
0.136147
0.136245
0.13634
0.136434
0.136525
0.136614
0.136701
0.136786
0.136869
0.136949
0.137027
0.137103
0.137177
0.137248
0.137317
0.137384
0.137449
0.137511
0.13757
0.137628
0.137682
0.137735
0.137785
0.137833
0.137878
0.13792
0.137961
0.137998
0.138033
0.138066
0.138096
0.138124
0.138148
0.138171
0.13819
0.138207
0.138221
0.138233
0.138242
0.138248
0.138251
0.138251
0.138249
0.138244
0.138236
0.138224
0.13821
0.138193
0.138173
0.13815
0.138124
0.138095
0.139516
0.138618
0.137796
0.137046
0.136363
0.135743
0.135183
0.134679
0.134226
0.133822
0.133462
0.133144
0.132864
0.13262
0.132408
0.132226
0.132072
0.131944
0.13184
0.131757
0.131694
0.13165
0.131622
0.13161
0.131612
0.131627
0.131654
0.131692
0.13174
0.131797
0.131862
0.131934
0.132013
0.132099
0.13219
0.132285
0.132386
0.13249
0.132597
0.132708
0.132821
0.132937
0.133054
0.133173
0.133294
0.133415
0.133538
0.133661
0.133784
0.133907
0.13403
0.134153
0.134276
0.134398
0.134519
0.134639
0.134759
0.134877
0.134994
0.13511
0.135224
0.135337
0.135448
0.135558
0.135666
0.135772
0.135876
0.135979
0.136079
0.136178
0.136274
0.136369
0.136461
0.136551
0.136639
0.136725
0.136809
0.13689
0.136969
0.137046
0.137121
0.137193
0.137263
0.137331
0.137396
0.137459
0.13752
0.137578
0.137634
0.137687
0.137738
0.137786
0.137832
0.137876
0.137917
0.137955
0.137991
0.138024
0.138054
0.138082
0.138107
0.13813
0.13815
0.138167
0.138182
0.138193
0.138202
0.138208
0.138211
0.138212
0.138209
0.138204
0.138195
0.138184
0.138169
0.138152
0.138131
0.138108
0.138081
0.138051
0.139511
0.138606
0.137776
0.13702
0.136331
0.135707
0.135144
0.134636
0.134181
0.133774
0.133413
0.133093
0.132811
0.132565
0.132352
0.132169
0.132014
0.131885
0.131779
0.131695
0.131631
0.131585
0.131556
0.131543
0.131544
0.131558
0.131584
0.13162
0.131667
0.131723
0.131787
0.131858
0.131936
0.132021
0.132111
0.132206
0.132305
0.132408
0.132515
0.132626
0.132738
0.132854
0.132971
0.13309
0.13321
0.133331
0.133454
0.133577
0.1337
0.133823
0.133947
0.13407
0.134193
0.134316
0.134437
0.134558
0.134678
0.134797
0.134915
0.135031
0.135146
0.13526
0.135372
0.135483
0.135592
0.135699
0.135804
0.135907
0.136009
0.136109
0.136206
0.136302
0.136395
0.136486
0.136575
0.136662
0.136747
0.13683
0.13691
0.136988
0.137064
0.137137
0.137208
0.137277
0.137343
0.137407
0.137468
0.137527
0.137584
0.137638
0.13769
0.137739
0.137786
0.13783
0.137871
0.13791
0.137947
0.13798
0.138011
0.13804
0.138065
0.138088
0.138108
0.138126
0.138141
0.138152
0.138161
0.138167
0.138171
0.138171
0.138168
0.138163
0.138154
0.138142
0.138127
0.138109
0.138088
0.138064
0.138037
0.138006
0.139506
0.138592
0.137754
0.136991
0.136297
0.135668
0.135101
0.134591
0.134133
0.133724
0.133361
0.13304
0.132757
0.132509
0.132295
0.132111
0.131954
0.131824
0.131717
0.131631
0.131566
0.131519
0.131489
0.131474
0.131474
0.131487
0.131511
0.131547
0.131592
0.131647
0.131709
0.13178
0.131857
0.13194
0.132029
0.132124
0.132222
0.132325
0.132431
0.132541
0.132653
0.132768
0.132885
0.133004
0.133124
0.133245
0.133367
0.13349
0.133614
0.133737
0.133861
0.133985
0.134108
0.134231
0.134353
0.134475
0.134595
0.134715
0.134834
0.134951
0.135067
0.135181
0.135294
0.135406
0.135516
0.135624
0.13573
0.135834
0.135937
0.136038
0.136136
0.136233
0.136327
0.13642
0.13651
0.136598
0.136684
0.136767
0.136849
0.136928
0.137005
0.137079
0.137151
0.137221
0.137288
0.137353
0.137415
0.137475
0.137533
0.137588
0.13764
0.13769
0.137738
0.137783
0.137825
0.137864
0.137901
0.137936
0.137967
0.137996
0.138022
0.138045
0.138066
0.138084
0.138099
0.13811
0.13812
0.138126
0.138129
0.138129
0.138126
0.13812
0.138111
0.138099
0.138084
0.138066
0.138044
0.138019
0.137991
0.13796
0.139501
0.138576
0.13773
0.136959
0.136259
0.135626
0.135055
0.134542
0.134082
0.133672
0.133307
0.132984
0.1327
0.132451
0.132236
0.13205
0.131893
0.131761
0.131653
0.131566
0.1315
0.131452
0.13142
0.131404
0.131403
0.131414
0.131437
0.131471
0.131515
0.131569
0.13163
0.1317
0.131776
0.131858
0.131947
0.13204
0.132138
0.13224
0.132345
0.132454
0.132566
0.132681
0.132797
0.132916
0.133035
0.133157
0.133279
0.133402
0.133526
0.133649
0.133773
0.133897
0.134021
0.134144
0.134267
0.134389
0.134511
0.134631
0.13475
0.134868
0.134985
0.1351
0.135214
0.135327
0.135438
0.135547
0.135654
0.135759
0.135863
0.135965
0.136065
0.136162
0.136258
0.136351
0.136443
0.136532
0.136619
0.136704
0.136786
0.136866
0.136944
0.13702
0.137093
0.137164
0.137232
0.137298
0.137361
0.137422
0.137481
0.137537
0.13759
0.137641
0.137689
0.137734
0.137777
0.137817
0.137855
0.13789
0.137922
0.137951
0.137978
0.138001
0.138022
0.13804
0.138055
0.138068
0.138077
0.138083
0.138086
0.138086
0.138083
0.138077
0.138068
0.138056
0.13804
0.138021
0.137999
0.137974
0.137945
0.137913
0.139495
0.138558
0.137702
0.136924
0.136218
0.13558
0.135006
0.13449
0.134029
0.133617
0.13325
0.132926
0.132641
0.132392
0.132175
0.131989
0.13183
0.131697
0.131588
0.1315
0.131432
0.131383
0.13135
0.131333
0.13133
0.13134
0.131362
0.131395
0.131438
0.13149
0.13155
0.131618
0.131693
0.131775
0.131862
0.131954
0.132051
0.132153
0.132258
0.132366
0.132477
0.132591
0.132708
0.132826
0.132945
0.133066
0.133189
0.133312
0.133435
0.13356
0.133684
0.133808
0.133932
0.134056
0.134179
0.134302
0.134424
0.134545
0.134665
0.134784
0.134901
0.135018
0.135133
0.135246
0.135358
0.135468
0.135576
0.135683
0.135788
0.13589
0.135991
0.13609
0.136187
0.136282
0.136374
0.136464
0.136553
0.136639
0.136722
0.136803
0.136882
0.136959
0.137033
0.137105
0.137174
0.137241
0.137306
0.137368
0.137427
0.137484
0.137538
0.13759
0.137639
0.137685
0.137728
0.137769
0.137808
0.137843
0.137876
0.137905
0.137932
0.137956
0.137978
0.137996
0.138011
0.138024
0.138033
0.138039
0.138042
0.138042
0.138039
0.138033
0.138023
0.138011
0.137995
0.137975
0.137953
0.137926
0.137897
0.137864
0.139487
0.138537
0.13767
0.136883
0.136171
0.135529
0.134952
0.134434
0.133971
0.133558
0.133191
0.132867
0.132581
0.13233
0.132113
0.131926
0.131766
0.131632
0.131522
0.131433
0.131364
0.131313
0.131279
0.13126
0.131256
0.131265
0.131285
0.131317
0.131359
0.131409
0.131469
0.131536
0.13161
0.13169
0.131776
0.131868
0.131964
0.132064
0.132169
0.132276
0.132387
0.132501
0.132616
0.132734
0.132854
0.132975
0.133097
0.13322
0.133344
0.133468
0.133592
0.133717
0.133842
0.133966
0.13409
0.134213
0.134335
0.134457
0.134578
0.134698
0.134816
0.134933
0.135049
0.135164
0.135276
0.135387
0.135497
0.135605
0.13571
0.135814
0.135916
0.136016
0.136114
0.13621
0.136304
0.136395
0.136485
0.136572
0.136657
0.136739
0.136819
0.136897
0.136972
0.137045
0.137116
0.137184
0.137249
0.137312
0.137372
0.13743
0.137485
0.137537
0.137587
0.137634
0.137679
0.13772
0.137759
0.137795
0.137828
0.137858
0.137886
0.13791
0.137932
0.13795
0.137966
0.137978
0.137988
0.137994
0.137997
0.137997
0.137994
0.137987
0.137978
0.137965
0.137948
0.137928
0.137905
0.137878
0.137848
0.137814
0.139478
0.138512
0.137631
0.136835
0.136117
0.135472
0.134893
0.134374
0.13391
0.133497
0.13313
0.132804
0.132518
0.132267
0.132049
0.131861
0.131701
0.131566
0.131455
0.131365
0.131294
0.131242
0.131207
0.131187
0.131182
0.131189
0.131208
0.131238
0.131279
0.131328
0.131386
0.131452
0.131525
0.131604
0.131689
0.13178
0.131875
0.131975
0.132078
0.132185
0.132295
0.132408
0.132524
0.132641
0.13276
0.132881
0.133003
0.133126
0.13325
0.133375
0.133499
0.133624
0.133749
0.133874
0.133998
0.134122
0.134245
0.134368
0.134489
0.13461
0.134729
0.134847
0.134964
0.135079
0.135193
0.135305
0.135416
0.135525
0.135632
0.135737
0.13584
0.135941
0.13604
0.136137
0.136232
0.136325
0.136415
0.136504
0.13659
0.136673
0.136755
0.136833
0.13691
0.136984
0.137055
0.137124
0.137191
0.137255
0.137316
0.137375
0.137431
0.137484
0.137535
0.137582
0.137628
0.13767
0.137709
0.137746
0.13778
0.13781
0.137838
0.137863
0.137885
0.137904
0.13792
0.137932
0.137942
0.137948
0.137951
0.137951
0.137948
0.137941
0.137931
0.137917
0.1379
0.13788
0.137856
0.137829
0.137798
0.137763
0.139467
0.138478
0.137583
0.136778
0.136055
0.135408
0.134828
0.134309
0.133845
0.133432
0.133065
0.13274
0.132454
0.132203
0.131984
0.131796
0.131635
0.131499
0.131387
0.131296
0.131224
0.131171
0.131135
0.131114
0.131107
0.131113
0.13113
0.131159
0.131198
0.131246
0.131303
0.131368
0.131439
0.131517
0.131601
0.131691
0.131785
0.131884
0.131987
0.132093
0.132202
0.132315
0.13243
0.132547
0.132666
0.132786
0.132908
0.133031
0.133155
0.13328
0.133405
0.13353
0.133655
0.133781
0.133905
0.13403
0.134154
0.134277
0.134399
0.13452
0.134641
0.13476
0.134877
0.134994
0.135109
0.135222
0.135333
0.135443
0.135551
0.135658
0.135762
0.135864
0.135965
0.136063
0.136159
0.136253
0.136345
0.136434
0.136521
0.136606
0.136689
0.136769
0.136846
0.136921
0.136994
0.137064
0.137131
0.137196
0.137259
0.137318
0.137375
0.137429
0.137481
0.137529
0.137575
0.137618
0.137658
0.137696
0.13773
0.137761
0.13779
0.137815
0.137837
0.137856
0.137872
0.137885
0.137895
0.137901
0.137904
0.137904
0.1379
0.137893
0.137883
0.137869
0.137852
0.137831
0.137806
0.137778
0.137746
0.137711
0.13945
0.138433
0.137521
0.136708
0.135982
0.135334
0.134755
0.134238
0.133775
0.133363
0.132997
0.132673
0.132387
0.132136
0.131918
0.131729
0.131568
0.131432
0.131318
0.131226
0.131154
0.1311
0.131062
0.131039
0.131031
0.131036
0.131052
0.13108
0.131117
0.131164
0.131219
0.131283
0.131353
0.13143
0.131513
0.131601
0.131694
0.131792
0.131894
0.132
0.132108
0.13222
0.132335
0.132451
0.13257
0.13269
0.132812
0.132935
0.133059
0.133184
0.133309
0.133434
0.13356
0.133686
0.133811
0.133936
0.134061
0.134184
0.134307
0.134429
0.134551
0.13467
0.134789
0.134906
0.135022
0.135137
0.135249
0.13536
0.13547
0.135577
0.135683
0.135786
0.135888
0.135987
0.136084
0.13618
0.136273
0.136363
0.136452
0.136538
0.136621
0.136702
0.136781
0.136857
0.136931
0.137002
0.137071
0.137137
0.1372
0.137261
0.137318
0.137374
0.137426
0.137475
0.137522
0.137566
0.137606
0.137644
0.137679
0.137711
0.13774
0.137765
0.137788
0.137807
0.137824
0.137837
0.137846
0.137853
0.137856
0.137855
0.137852
0.137844
0.137834
0.137819
0.137802
0.13778
0.137755
0.137726
0.137694
0.137657
0.139424
0.13837
0.137439
0.13662
0.135895
0.13525
0.134674
0.13416
0.133701
0.133291
0.132927
0.132604
0.132319
0.132069
0.131851
0.131662
0.1315
0.131363
0.131249
0.131157
0.131083
0.131028
0.130989
0.130965
0.130955
0.130959
0.130974
0.131
0.131036
0.131081
0.131135
0.131197
0.131266
0.131342
0.131423
0.13151
0.131603
0.1317
0.131801
0.131905
0.132014
0.132125
0.132239
0.132355
0.132473
0.132593
0.132715
0.132838
0.132962
0.133086
0.133212
0.133337
0.133463
0.133589
0.133715
0.133841
0.133966
0.13409
0.134214
0.134337
0.134459
0.13458
0.134699
0.134818
0.134935
0.13505
0.135164
0.135276
0.135386
0.135495
0.135602
0.135706
0.135809
0.13591
0.136008
0.136105
0.136199
0.136291
0.13638
0.136468
0.136552
0.136635
0.136715
0.136792
0.136867
0.136939
0.137009
0.137076
0.13714
0.137202
0.13726
0.137316
0.13737
0.13742
0.137467
0.137512
0.137553
0.137592
0.137627
0.137659
0.137689
0.137715
0.137738
0.137757
0.137774
0.137787
0.137797
0.137803
0.137806
0.137806
0.137802
0.137794
0.137783
0.137769
0.13775
0.137728
0.137703
0.137673
0.13764
0.137603
0.139378
0.138273
0.137329
0.136511
0.135792
0.135154
0.134584
0.134075
0.13362
0.133214
0.132853
0.132532
0.132249
0.132
0.131782
0.131594
0.131432
0.131295
0.13118
0.131087
0.131012
0.130956
0.130916
0.130891
0.130879
0.130881
0.130895
0.130919
0.130954
0.130998
0.131051
0.131111
0.131179
0.131253
0.131333
0.131419
0.131511
0.131606
0.131707
0.13181
0.131918
0.132028
0.132142
0.132257
0.132375
0.132495
0.132616
0.132739
0.132863
0.132988
0.133113
0.133239
0.133365
0.133492
0.133618
0.133744
0.13387
0.133995
0.13412
0.134243
0.134366
0.134488
0.134608
0.134727
0.134845
0.134962
0.135077
0.13519
0.135302
0.135411
0.135519
0.135625
0.135729
0.135831
0.135931
0.136028
0.136124
0.136217
0.136308
0.136396
0.136482
0.136566
0.136647
0.136725
0.136801
0.136875
0.136946
0.137014
0.137079
0.137141
0.137201
0.137258
0.137312
0.137363
0.137411
0.137457
0.137499
0.137538
0.137574
0.137607
0.137637
0.137663
0.137686
0.137706
0.137723
0.137736
0.137746
0.137753
0.137755
0.137755
0.137751
0.137743
0.137732
0.137717
0.137698
0.137675
0.137649
0.137618
0.137584
0.137546
0.139282
0.138123
0.137179
0.136374
0.13567
0.135044
0.134485
0.133984
0.133535
0.133134
0.132776
0.132458
0.132177
0.131929
0.131713
0.131525
0.131363
0.131226
0.131111
0.131017
0.130941
0.130884
0.130843
0.130816
0.130804
0.130804
0.130816
0.130839
0.130872
0.130915
0.130966
0.131025
0.131091
0.131164
0.131243
0.131328
0.131418
0.131513
0.131612
0.131715
0.131821
0.131931
0.132044
0.132159
0.132276
0.132396
0.132517
0.132639
0.132763
0.132888
0.133014
0.13314
0.133266
0.133393
0.13352
0.133646
0.133773
0.133898
0.134024
0.134148
0.134272
0.134394
0.134516
0.134636
0.134755
0.134872
0.134988
0.135103
0.135215
0.135326
0.135435
0.135542
0.135648
0.135751
0.135852
0.135951
0.136047
0.136142
0.136234
0.136323
0.136411
0.136495
0.136578
0.136657
0.136735
0.136809
0.136881
0.13695
0.137016
0.13708
0.137141
0.137198
0.137253
0.137305
0.137354
0.1374
0.137443
0.137483
0.137519
0.137553
0.137583
0.13761
0.137634
0.137654
0.137671
0.137684
0.137694
0.137701
0.137704
0.137703
0.137699
0.137691
0.137679
0.137663
0.137644
0.137621
0.137594
0.137563
0.137528
0.137489
0.139048
0.137886
0.136979
0.136208
0.135528
0.134921
0.134375
0.133885
0.133444
0.133049
0.132696
0.132382
0.132103
0.131858
0.131642
0.131455
0.131294
0.131157
0.131041
0.130947
0.130871
0.130812
0.13077
0.130742
0.130728
0.130727
0.130738
0.130759
0.130791
0.130832
0.130881
0.130939
0.131004
0.131075
0.131153
0.131236
0.131325
0.131419
0.131517
0.131619
0.131724
0.131833
0.131945
0.13206
0.132177
0.132296
0.132417
0.132539
0.132663
0.132787
0.132913
0.133039
0.133166
0.133293
0.13342
0.133547
0.133674
0.1338
0.133926
0.134051
0.134176
0.134299
0.134422
0.134543
0.134663
0.134781
0.134898
0.135014
0.135128
0.13524
0.13535
0.135458
0.135565
0.135669
0.135771
0.135871
0.135969
0.136065
0.136158
0.136249
0.136338
0.136424
0.136507
0.136588
0.136666
0.136742
0.136815
0.136885
0.136952
0.137017
0.137079
0.137137
0.137193
0.137246
0.137296
0.137343
0.137386
0.137427
0.137464
0.137498
0.137528
0.137556
0.13758
0.1376
0.137617
0.137631
0.137641
0.137648
0.13765
0.13765
0.137645
0.137637
0.137625
0.137609
0.137589
0.137565
0.137537
0.137505
0.13747
0.13743
0.138388
0.137527
0.136726
0.136011
0.135368
0.134785
0.134257
0.133779
0.133348
0.132961
0.132614
0.132304
0.132028
0.131785
0.131572
0.131386
0.131225
0.131088
0.130972
0.130877
0.1308
0.130741
0.130697
0.130668
0.130653
0.13065
0.13066
0.13068
0.13071
0.130749
0.130797
0.130853
0.130916
0.130986
0.131062
0.131144
0.131232
0.131324
0.131421
0.131522
0.131627
0.131735
0.131846
0.13196
0.132076
0.132195
0.132315
0.132437
0.132561
0.132686
0.132811
0.132938
0.133065
0.133192
0.133319
0.133447
0.133574
0.133701
0.133828
0.133953
0.134079
0.134203
0.134326
0.134448
0.134569
0.134689
0.134807
0.134923
0.135038
0.135152
0.135263
0.135373
0.13548
0.135586
0.135689
0.135791
0.13589
0.135987
0.136081
0.136173
0.136263
0.13635
0.136435
0.136517
0.136597
0.136673
0.136747
0.136819
0.136887
0.136953
0.137015
0.137075
0.137132
0.137186
0.137236
0.137284
0.137328
0.137369
0.137407
0.137441
0.137472
0.1375
0.137525
0.137545
0.137563
0.137577
0.137587
0.137593
0.137596
0.137595
0.13759
0.137582
0.137569
0.137553
0.137532
0.137508
0.137479
0.137447
0.13741
0.137369
0.137706
0.137105
0.136436
0.135792
0.135192
0.134638
0.13413
0.133668
0.133248
0.132869
0.132529
0.132224
0.131953
0.131712
0.131501
0.131316
0.131156
0.131019
0.130903
0.130808
0.13073
0.13067
0.130625
0.130595
0.130578
0.130574
0.130582
0.1306
0.130629
0.130666
0.130712
0.130767
0.130828
0.130897
0.130972
0.131052
0.131139
0.13123
0.131325
0.131425
0.131529
0.131636
0.131746
0.13186
0.131975
0.132093
0.132213
0.132335
0.132458
0.132583
0.132708
0.132835
0.132962
0.133089
0.133217
0.133345
0.133473
0.1336