/*--------------------------------*- C++ -*----------------------------------*\
  =========                 |
  \\      /  F ield         | OpenFOAM: The Open Source CFD Toolbox
   \\    /   O peration     | Website:  https://openfoam.org
    \\  /    A nd           | Version:  8
     \\/     M anipulation  |
\*---------------------------------------------------------------------------*/
FoamFile
{
    version     2.0;
    format      ascii;
    class       volVectorField;
    location    "0.2";
    object      U;
}
// * * * * * * * * * * * * * * * * * * * * * * * * * * * * * * * * * * * * * //

dimensions      [0 1 -1 0 0 0 0];

internalField   nonuniform List<vector> 
112120
(
(14.9999 3.27781e-06 -2.6382e-24)
(15 5.17287e-07 -6.10524e-23)
(14.9999 3.23547e-06 -3.24383e-22)
(14.9998 9.11573e-06 9.74044e-23)
(14.9998 1.57787e-05 1.72624e-21)
(14.9998 2.19139e-05 -1.79818e-21)
(14.9998 2.7131e-05 -6.9842e-23)
(14.9997 3.24237e-05 7.38532e-22)
(14.9997 3.80999e-05 2.38676e-21)
(14.9997 4.42614e-05 -4.01956e-21)
(14.9997 5.02068e-05 -1.08973e-22)
(14.9997 5.61663e-05 7.32962e-21)
(14.9997 6.24243e-05 4.937e-21)
(14.9997 6.85303e-05 5.34061e-21)
(14.9997 7.48021e-05 4.9107e-21)
(14.9997 8.10082e-05 8.43001e-21)
(14.9997 8.72079e-05 -6.45963e-21)
(14.9997 9.37149e-05 1.17035e-20)
(14.9997 9.99847e-05 -8.87327e-21)
(14.9997 0.000106217 -1.34645e-20)
(14.9997 0.000112513 -2.47332e-20)
(14.9997 0.000118954 -1.07555e-20)
(14.9997 0.000125152 -1.1318e-20)
(14.9997 0.000131569 -6.6193e-21)
(14.9997 0.000137787 5.76111e-21)
(14.9997 0.00014425 1.2919e-20)
(14.9997 0.000150569 -2.05799e-20)
(14.9997 0.000156764 2.78415e-20)
(14.9997 0.000163083 -1.94733e-22)
(14.9997 0.0001694 1.48198e-20)
(14.9997 0.000175746 1.48046e-20)
(14.9997 0.000181871 1.83514e-22)
(14.9997 0.000188033 1.54206e-20)
(14.9997 0.000194221 1.60372e-20)
(14.9997 0.000200098 -1.62587e-20)
(14.9997 0.000206188 1.83549e-22)
(14.9997 0.00021211 -2.56498e-20)
(14.9997 0.000218055 1.66022e-20)
(14.9997 0.000224184 -7.20503e-21)
(14.9997 0.000229891 3.3838e-20)
(14.9997 0.000235798 -3.39866e-20)
(14.9997 0.000241503 2.73194e-20)
(14.9997 0.000247022 6.55814e-21)
(14.9997 0.000252605 -1.64583e-22)
(14.9997 0.000258223 1.71177e-20)
(14.9997 0.000263583 5.73189e-21)
(14.9997 0.000269188 1.68717e-20)
(14.9997 0.000274571 -2.82284e-20)
(14.9997 0.000279643 -1.68742e-20)
(14.9997 0.000284943 4.03175e-20)
(14.9997 0.000289954 1.2091e-20)
(14.9997 0.000295088 3.2691e-20)
(14.9997 0.000299987 3.24026e-20)
(14.9997 0.000305051 -1.24516e-20)
(14.9997 0.000309815 -1.27396e-20)
(14.9997 0.000314486 -1.56573e-20)
(14.9997 0.000319128 -3.09175e-20)
(14.9997 0.000323794 1.30353e-20)
(14.9997 0.000328142 1.51391e-20)
(14.9998 0.000332648 -1.48975e-20)
(14.9998 0.000337006 1.46573e-20)
(14.9998 0.000341053 -1.08851e-22)
(14.9998 0.000345284 1.41187e-20)
(14.9998 0.000349279 -1.10868e-22)
(14.9998 0.00035331 1.3547e-20)
(14.9998 0.000357237 -2.73131e-20)
(14.9998 0.000360909 0)
(14.9998 0.000364829 -1.25528e-20)
(14.9998 0.000368447 1.22453e-20)
(14.9998 0.000371921 1.19187e-20)
(14.9998 0.000375325 2.61701e-20)
(14.9998 0.000378637 -1.45816e-20)
(14.9998 0.000381803 -2.1987e-20)
(14.9998 0.000384907 2.55736e-20)
(14.9998 0.0003881 -2.99816e-20)
(14.9998 0.000391088 1.49385e-20)
(14.9998 0.000393759 3.42566e-20)
(14.9999 0.000396724 -6.13516e-21)
(14.9999 0.000399339 0)
(14.9999 0.000401904 0)
(14.9999 0.000404225 0)
(14.9999 0.000406693 -7.63178e-21)
(14.9999 0.000408988 0)
(14.9999 0.000411261 -8.78396e-21)
(14.9999 0.000413245 3.13264e-20)
(14.9999 0.000415114 1.22585e-20)
(14.9999 0.000417148 -5.32465e-20)
(14.9999 0.00041887 1.06112e-20)
(14.9999 0.00042054 1.11104e-20)
(14.9999 0.000422112 -1.59809e-20)
(14.9999 0.000423663 -4.06126e-21)
(14.9999 0.000425117 3.64955e-21)
(14.9999 0.000426357 3.18792e-21)
(15 0.000427509 2.96066e-20)
(15 0.0004285 3.48349e-20)
(15 0.000429486 -1.43166e-20)
(15 0.000430308 -3.26247e-20)
(15 0.000431132 0)
(15 0.000431724 6.46977e-22)
(15 0.000432261 1.64107e-20)
(15 0.000432712 -2.06715e-22)
(15 0.000433079 -1.57806e-20)
(15 0.00043339 0)
(15 0.000433468 3.28638e-20)
(15 0.000433546 -7.78637e-21)
(15 0.000433458 -1.40205e-20)
(15 0.000433364 -5.64279e-21)
(15.0001 0.000433105 -1.63996e-20)
(15.0001 0.000432755 -2.00854e-20)
(15.0001 0.000432184 8.24508e-21)
(15.0001 0.000431513 4.49875e-21)
(15.0001 0.000430816 1.63901e-20)
(15.0001 0.000430016 -5.47295e-21)
(15.0001 0.000429161 1.64113e-20)
(15.0001 0.00042798 -1.26167e-20)
(15.0001 0.000426966 -9.43942e-21)
(15.0001 0.000425829 -2.34413e-20)
(15.0001 0.000424388 7.66817e-21)
(15.0001 0.000422921 4.04142e-20)
(15.0001 0.000421267 -2.4474e-20)
(15.0001 0.000419763 -1.60287e-20)
(15.0001 0.000417998 1.83485e-20)
(15.0002 0.000416175 1.60213e-20)
(15.0002 0.000413979 5.90404e-21)
(15.0002 0.000412086 -5.26225e-20)
(15.0002 0.000409851 1.0941e-20)
(15.0002 0.000407394 4.4612e-21)
(15.0002 0.000405023 -3.14042e-20)
(15.0002 0.000402579 3.97192e-20)
(15.0002 0.000399971 3.10385e-21)
(15.0002 0.000397258 -1.5467e-20)
(15.0002 0.000394461 -1.07068e-20)
(15.0002 0.0003915 2.8791e-20)
(15.0002 0.000388206 -2.91586e-20)
(15.0002 0.00038517 1.32218e-20)
(15.0002 0.000381847 1.51736e-20)
(15.0002 0.000378402 1.49644e-20)
(15.0003 0.000374985 -3.0209e-20)
(15.0003 0.000371299 -4.52058e-20)
(15.0003 0.000367803 1.43856e-22)
(15.0003 0.000363955 1.45806e-20)
(15.0003 0.000359932 0)
(15.0003 0.00035607 1.67609e-20)
(15.0003 0.000351843 0)
(15.0003 0.00034763 -1.42436e-20)
(15.0003 0.00034337 1.77384e-20)
(15.0003 0.000338992 -3.98603e-21)
(15.0003 0.000334265 1.80609e-20)
(15.0003 0.000329704 1.37098e-20)
(15.0003 0.000324866 -3.71025e-20)
(15.0003 0.000320146 -7.9757e-21)
(15.0003 0.000315085 5.77768e-21)
(15.0003 0.000310262 3.21022e-20)
(15.0003 0.000305068 -6.39429e-21)
(15.0003 0.000299603 0)
(15.0003 0.000294395 6.80092e-21)
(15.0004 0.000288871 3.19704e-20)
(15.0004 0.000283366 3.12295e-20)
(15.0004 0.00027791 -3.12831e-20)
(15.0004 0.000272218 7.7885e-21)
(15.0004 0.000266269 2.01713e-22)
(15.0004 0.000260525 1.10817e-20)
(15.0004 0.000254262 -1.10292e-20)
(15.0004 0.000248189 2.17965e-20)
(15.0004 0.000242111 1.28772e-21)
(15.0004 0.000235808 -3.92886e-20)
(15.0004 0.000229727 -9.77742e-21)
(15.0004 0.000223244 -8.84969e-21)
(15.0004 0.000216761 -2.19131e-22)
(15.0004 0.000210287 2.35444e-22)
(15.0004 0.000203512 8.58279e-21)
(15.0004 0.000196734 3.67032e-25)
(15.0004 0.000189912 -4.9861e-20)
(15.0004 0.000183202 2.53327e-20)
(15.0004 0.000176299 -2.44362e-20)
(15.0004 0.000169173 2.2372e-20)
(15.0004 0.000162302 -2.16669e-20)
(15.0004 0.000155137 1.80877e-21)
(15.0004 0.000148191 1.94444e-20)
(15.0004 0.00014089 -1.73728e-21)
(15.0004 0.000133714 -1.22297e-20)
(15.0004 0.000126558 1.14943e-20)
(15.0004 0.000119292 4.25271e-21)
(15.0004 0.000111657 -5.61849e-21)
(15.0004 0.000104344 -2.15535e-20)
(15.0004 9.69486e-05 9.82689e-21)
(15.0004 8.93892e-05 -7.19789e-21)
(15.0004 8.19622e-05 3.79826e-21)
(15.0004 7.42468e-05 7.89426e-21)
(15.0004 6.68363e-05 -3.15574e-21)
(15.0004 5.93396e-05 9.84533e-22)
(15.0004 5.14471e-05 3.39809e-21)
(15.0004 4.41196e-05 -3.74875e-21)
(15.0003 3.72363e-05 2.20071e-21)
(15.0003 3.03383e-05 9.85067e-22)
(15.0003 2.19864e-05 1.40006e-21)
(15.0002 1.26782e-05 -6.87109e-22)
(15.0001 4.5233e-06 -4.77559e-22)
(14.9999 4.99172e-07 2.67596e-22)
(15.0002 4.86318e-06 -3.54699e-23)
(14.9986 7.7169e-06 2.61834e-23)
(14.9994 2.23173e-05 -3.06166e-22)
(14.9997 7.35576e-06 -7.00763e-23)
(14.9996 1.22413e-05 -1.1906e-21)
(14.9994 2.94767e-05 1.67161e-21)
(14.9993 5.06046e-05 -1.26536e-21)
(14.9993 6.93091e-05 -2.80203e-21)
(14.9992 8.56209e-05 1.0903e-22)
(14.9992 0.000101625 1.01902e-21)
(14.9992 0.000119117 2.49169e-22)
(14.9991 0.000137062 -3.68844e-21)
(14.9991 0.000155031 2.04494e-21)
(14.9991 0.000173333 6.41619e-21)
(14.9991 0.000191591 -4.48311e-21)
(14.9991 0.00021029 1.90678e-20)
(14.999 0.000229062 1.7507e-21)
(14.999 0.000247775 -1.3362e-20)
(14.999 0.000266914 -1.93836e-21)
(14.999 0.00028593 9.32621e-21)
(14.999 0.000304984 -4.18675e-23)
(14.999 0.000324076 -5.25013e-21)
(14.999 0.000343415 -1.8836e-20)
(14.999 0.00036246 -1.36881e-20)
(14.999 0.00038179 -4.33045e-23)
(14.999 0.000400853 -6.59531e-21)
(14.999 0.000420186 1.36977e-20)
(14.999 0.000439544 5.85052e-22)
(14.999 0.000458635 4.68455e-22)
(14.999 0.00047769 -8.49945e-21)
(14.999 0.000496828 -8.16818e-21)
(14.999 0.000515863 8.29589e-21)
(14.999 0.000534721 4.35999e-22)
(14.999 0.000553599 -2.72624e-20)
(14.999 0.000572413 7.31185e-20)
(14.999 0.000590818 9.78083e-21)
(14.999 0.000609332 1.84431e-20)
(14.999 0.000627517 -2.02661e-20)
(14.999 0.000645686 -3.63583e-22)
(14.999 0.000664106 1.91573e-20)
(14.999 0.000681824 4.81062e-20)
(14.999 0.000699727 3.0468e-20)
(14.999 0.000717287 -4.00343e-21)
(14.9991 0.000734507 1.88904e-20)
(14.9991 0.000751662 0)
(14.9991 0.000768771 6.92126e-21)
(14.9991 0.000785451 -1.2234e-20)
(14.9991 0.00080235 4.31446e-20)
(14.9991 0.00081869 -2.42048e-20)
(14.9991 0.000834581 -4.37896e-20)
(14.9991 0.00085067 1.26448e-20)
(14.9991 0.000866428 1.83728e-20)
(14.9992 0.000881958 9.23617e-21)
(14.9992 0.000897082 6.19626e-20)
(14.9992 0.000912419 3.12409e-20)
(14.9992 0.000927127 -1.46565e-22)
(14.9992 0.000941652 1.05561e-20)
(14.9992 0.000956025 -1.37731e-20)
(14.9992 0.000970092 -2.83232e-20)
(14.9992 0.000983748 4.67581e-20)
(14.9993 0.000997458 3.21617e-20)
(14.9993 0.00101072 1.21839e-21)
(14.9993 0.00102355 0)
(14.9993 0.00103644 1.51701e-20)
(14.9993 0.00104886 -1.48475e-20)
(14.9993 0.0010611 2.94222e-20)
(14.9993 0.00107302 8.51649e-23)
(14.9994 0.00108469 -1.09187e-22)
(14.9994 0.00109631 -2.86379e-20)
(14.9994 0.00110742 -3.08269e-20)
(14.9994 0.00111817 6.48441e-24)
(14.9994 0.00112864 3.10322e-20)
(14.9994 0.00113897 3.14094e-20)
(14.9995 0.00114888 -1.57425e-20)
(14.9995 0.00115843 6.85361e-21)
(14.9995 0.00116802 -1.58817e-20)
(14.9995 0.00117714 -2.66529e-20)
(14.9995 0.00118577 1.02342e-20)
(14.9996 0.00119455 1.61447e-20)
(14.9996 0.00120271 2.57101e-20)
(14.9996 0.00121058 -9.01542e-21)
(14.9996 0.00121798 2.49901e-20)
(14.9996 0.00122538 8.25244e-21)
(14.9996 0.00123242 -4.08581e-20)
(14.9997 0.00123925 -1.66306e-20)
(14.9997 0.0012455 1.66471e-20)
(14.9997 0.00125145 2.97992e-20)
(14.9997 0.00125736 -3.82667e-24)
(14.9997 0.00126288 1.68358e-20)
(14.9998 0.00126796 4.16332e-23)
(14.9998 0.00127281 -2.17513e-20)
(14.9998 0.00127756 -2.13331e-20)
(14.9998 0.00128179 -3.80014e-20)
(14.9998 0.00128562 3.06935e-20)
(14.9999 0.00128913 3.43113e-20)
(14.9999 0.00129237 7.63675e-21)
(14.9999 0.00129553 6.30055e-21)
(14.9999 0.00129811 -1.89361e-20)
(14.9999 0.00130054 -1.73157e-20)
(15 0.00130235 -5.72014e-24)
(15 0.00130401 1.71204e-20)
(15 0.00130539 1.72022e-20)
(15 0.00130649 -5.19484e-24)
(15.0001 0.00130745 -1.74064e-20)
(15.0001 0.00130778 -3.48461e-20)
(15.0001 0.00130795 1.33411e-20)
(15.0001 0.00130754 1.48423e-20)
(15.0001 0.00130704 -2.03263e-20)
(15.0002 0.00130626 -3.2277e-23)
(15.0002 0.00130515 1.35018e-20)
(15.0002 0.00130363 3.4688e-20)
(15.0002 0.00130156 -3.95284e-20)
(15.0002 0.00129939 -1.72456e-20)
(15.0003 0.00129698 -3.25679e-23)
(15.0003 0.0012941 6.24009e-21)
(15.0003 0.0012908 3.91458e-21)
(15.0003 0.00128746 1.42214e-20)
(15.0003 0.0012838 -1.72384e-20)
(15.0004 0.00127952 8.07059e-21)
(15.0004 0.00127501 1.77559e-22)
(15.0004 0.0012701 -8.9229e-21)
(15.0004 0.00126518 4.35654e-20)
(15.0004 0.00125975 -1.34418e-22)
(15.0005 0.00125401 -3.38936e-20)
(15.0005 0.00124758 -2.76766e-20)
(15.0005 0.0012413 6.0329e-23)
(15.0005 0.00123448 3.98901e-20)
(15.0005 0.00122714 -1.19913e-20)
(15.0006 0.00121983 1.67927e-20)
(15.0006 0.0012121 2.55936e-20)
(15.0006 0.0012039 -2.97992e-20)
(15.0006 0.00119554 -3.3188e-20)
(15.0006 0.00118683 4.73176e-20)
(15.0007 0.00117772 3.24542e-20)
(15.0007 0.00116803 -1.46604e-20)
(15.0007 0.00115826 -1.82979e-22)
(15.0007 0.00114818 -3.15187e-22)
(15.0007 0.00113772 -1.61813e-20)
(15.0008 0.00112703 -4.84731e-20)
(15.0008 0.0011158 9.18237e-22)
(15.0008 0.00110459 5.01844e-20)
(15.0008 0.00109288 3.31501e-20)
(15.0008 0.00108063 -2.14767e-21)
(15.0008 0.0010684 -1.42424e-22)
(15.0009 0.00105567 3.1804e-21)
(15.0009 0.00104256 0)
(15.0009 0.00102924 3.90296e-21)
(15.0009 0.00101567 1.52928e-20)
(15.0009 0.00100134 1.46762e-20)
(15.0009 0.000987208 -2.95809e-20)
(15.001 0.000972561 -5.37081e-21)
(15.001 0.000957605 1.42389e-20)
(15.001 0.000942219 6.47203e-21)
(15.001 0.000926997 2.75276e-20)
(15.001 0.000911206 -2.09121e-20)
(15.001 0.000894716 2.77224e-20)
(15.0011 0.000878409 -2.15711e-20)
(15.0011 0.000861545 3.54277e-20)
(15.0011 0.000844558 -3.54954e-20)
(15.0011 0.00082742 9.14874e-21)
(15.0011 0.000809817 2.13891e-20)
(15.0011 0.000791738 3.13234e-20)
(15.0011 0.000773792 1.23422e-20)
(15.0011 0.000754943 9.48075e-21)
(15.0012 0.000736298 1.23566e-20)
(15.0012 0.000717543 1.13277e-20)
(15.0012 0.000698307 -3.29867e-20)
(15.0012 0.000679101 -3.27592e-20)
(15.0012 0.00065931 1.12434e-20)
(15.0012 0.000639333 -1.07596e-20)
(15.0012 0.00061927 2.6138e-22)
(15.0012 0.00059888 -1.05632e-20)
(15.0012 0.000578243 -5.98829e-20)
(15.0012 0.000557584 4.38546e-22)
(15.0012 0.000536749 2.89487e-20)
(15.0012 0.000515453 1.94429e-20)
(15.0012 0.000494043 1.60591e-20)
(15.0012 0.000472816 -4.31288e-20)
(15.0012 0.000451103 1.70561e-20)
(15.0012 0.000429583 9.12518e-21)
(15.0012 0.000407522 1.58192e-20)
(15.0012 0.000385595 1.24834e-20)
(15.0012 0.000363524 -8.20537e-21)
(15.0012 0.000341304 -5.53396e-21)
(15.0012 0.000318719 -1.70358e-20)
(15.0012 0.000296455 -1.32719e-20)
(15.0012 0.000273891 -4.60632e-21)
(15.0012 0.000251173 -1.23522e-20)
(15.0012 0.000228771 2.91279e-21)
(15.0012 0.000206049 -2.66838e-21)
(15.0012 0.000183475 2.46073e-21)
(15.0011 0.000160616 -1.5707e-22)
(15.0011 0.000138102 -3.26062e-21)
(15.0011 0.000117352 2.30235e-21)
(15.001 9.58153e-05 6.56379e-21)
(15.0009 7.03861e-05 -5.56882e-22)
(15.0008 4.09907e-05 -9.45588e-23)
(15.0006 1.67823e-05 -1.66637e-21)
(15.0004 1.0459e-05 8.94239e-22)
(15.0008 3.22904e-05 -1.51294e-22)
(15.0021 1.15401e-05 -1.31986e-22)
(14.9972 7.07897e-06 3.37322e-23)
(14.9987 4.27826e-05 4.46916e-23)
(14.9993 3.38299e-05 2.34839e-22)
(14.9993 2.55583e-05 -7.10062e-22)
(14.9991 3.87895e-05 -7.09682e-22)
(14.9989 6.97072e-05 3.00843e-21)
(14.9988 0.000104131 -7.95179e-22)
(14.9987 0.000134582 0)
(14.9987 0.000161902 -6.48465e-21)
(14.9986 0.000190061 1.04247e-20)
(14.9986 0.000219612 -9.52087e-21)
(14.9985 0.000249668 2.17035e-21)
(14.9985 0.000279904 2.3477e-21)
(14.9985 0.000310321 -9.6685e-21)
(14.9984 0.000341342 7.57278e-21)
(14.9984 0.000372568 3.76481e-21)
(14.9984 0.000403786 -1.91677e-20)
(14.9984 0.000435445 -2.03599e-20)
(14.9984 0.000467087 6.3348e-21)
(14.9984 0.000498913 6.87813e-21)
(14.9983 0.000530901 2.46772e-20)
(14.9983 0.000563018 5.80882e-21)
(14.9983 0.000595111 7.76463e-21)
(14.9983 0.00062739 -1.44921e-20)
(14.9983 0.00065938 6.85498e-21)
(14.9983 0.00069161 -3.07979e-20)
(14.9983 0.000723949 3.17914e-20)
(14.9983 0.000755931 7.59262e-21)
(14.9983 0.000787812 8.12167e-21)
(14.9983 0.000819875 -8.27758e-21)
(14.9983 0.000851659 -1.76848e-20)
(14.9983 0.000883431 2.67918e-20)
(14.9983 0.000915139 -4.54338e-20)
(14.9983 0.000946703 -2.82606e-20)
(14.9983 0.000977802 3.81985e-20)
(14.9983 0.00100901 3.72495e-20)
(14.9984 0.00103969 1.87815e-20)
(14.9984 0.00107024 -1.04688e-20)
(14.9984 0.00110096 8.18665e-21)
(14.9984 0.00113098 -3.80621e-20)
(14.9984 0.00116087 4.93827e-20)
(14.9984 0.00119059 1.15318e-20)
(14.9984 0.00121976 1.90717e-20)
(14.9984 0.00124894 1.90599e-20)
(14.9984 0.00127778 0)
(14.9985 0.00130597 -1.21997e-20)
(14.9985 0.00133421 5.69088e-21)
(14.9985 0.00136189 3.17642e-20)
(14.9985 0.00138906 -2.58203e-20)
(14.9985 0.0014161 -1.85082e-20)
(14.9986 0.00144283 2.35852e-20)
(14.9986 0.00146923 -3.15562e-20)
(14.9986 0.0014948 -2.25381e-20)
(14.9986 0.0015205 4.9258e-20)
(14.9986 0.00154555 1.37305e-20)
(14.9987 0.00157032 1.74898e-20)
(14.9987 0.00159451 3.71313e-20)
(14.9987 0.00161835 2.67445e-21)
(14.9987 0.00164174 -2.87308e-20)
(14.9988 0.00166482 3.06729e-20)
(14.9988 0.00168735 4.54398e-20)
(14.9988 0.00170926 1.57305e-20)
(14.9988 0.001731 1.48079e-20)
(14.9989 0.00175226 1.05942e-22)
(14.9989 0.00177296 -4.48029e-20)
(14.9989 0.00179317 2.89825e-20)
(14.9989 0.00181303 1.52704e-20)
(14.999 0.00183246 1.3904e-20)
(14.999 0.00185134 -2.90779e-20)
(14.999 0.00186965 -1.85361e-23)
(14.999 0.00188754 2.9518e-21)
(14.9991 0.00190513 -1.56905e-20)
(14.9991 0.00192214 -1.99518e-20)
(14.9991 0.00193842 2.76099e-20)
(14.9992 0.00195437 2.73818e-20)
(14.9992 0.00197001 -1.08487e-20)
(14.9992 0.00198498 -1.04534e-20)
(14.9993 0.0019995 -3.64043e-20)
(14.9993 0.00201344 6.71267e-21)
(14.9993 0.00202692 -9.07208e-21)
(14.9993 0.00203964 -3.32309e-20)
(14.9994 0.00205214 4.16691e-20)
(14.9994 0.00206414 8.76454e-22)
(14.9994 0.00207567 -3.36232e-20)
(14.9995 0.00208633 -5.61857e-23)
(14.9995 0.00209659 4.13151e-23)
(14.9995 0.00210649 -2.3258e-20)
(14.9996 0.00211597 1.70326e-20)
(14.9996 0.0021247 2.887e-20)
(14.9996 0.00213298 4.94839e-21)
(14.9997 0.0021408 4.43021e-21)
(14.9997 0.00214793 2.31156e-23)
(14.9997 0.00215458 -2.08909e-20)
(14.9998 0.00216065 -3.16405e-20)
(14.9998 0.00216627 -1.74493e-20)
(14.9998 0.00217154 5.23609e-20)
(14.9999 0.00217594 1.58056e-20)
(14.9999 0.00217987 -1.75275e-20)
(14.9999 0.0021831 1.67973e-20)
(15 0.00218607 3.00122e-22)
(15 0.00218841 -1.77968e-20)
(15.0001 0.00219013 6.55671e-22)
(15.0001 0.00219159 0)
(15.0001 0.00219235 1.59305e-21)
(15.0002 0.00219262 -1.55584e-20)
(15.0002 0.00219201 -2.52664e-21)
(15.0002 0.00219103 2.0629e-20)
(15.0003 0.00218959 -2.45885e-20)
(15.0003 0.00218756 -1.75712e-20)
(15.0003 0.00218502 1.14119e-24)
(15.0004 0.00218176 -1.49456e-23)
(15.0004 0.00217802 3.51176e-20)
(15.0004 0.0021738 1.74508e-20)
(15.0005 0.0021688 -1.74688e-20)
(15.0005 0.00216334 1.74888e-20)
(15.0005 0.00215748 2.46495e-20)
(15.0006 0.0021512 -3.48967e-20)
(15.0006 0.002144 -2.6558e-20)
(15.0006 0.00213627 8.7574e-21)
(15.0007 0.002128 4.36815e-20)
(15.0007 0.00211947 9.4539e-21)
(15.0007 0.00211012 -2.71864e-20)
(15.0008 0.00210025 0)
(15.0008 0.00208975 1.71965e-20)
(15.0008 0.00207873 2.83976e-20)
(15.0009 0.00206696 -1.70726e-20)
(15.0009 0.00205484 -1.69445e-20)
(15.001 0.00204233 1.69809e-20)
(15.001 0.00202899 -2.62345e-20)
(15.001 0.002015 -1.67643e-20)
(15.0011 0.00200064 1.67925e-20)
(15.0011 0.00198578 3.09935e-20)
(15.0011 0.00197026 -4.61437e-20)
(15.0011 0.00195411 -1.32186e-21)
(15.0012 0.00193742 -1.46075e-20)
(15.0012 0.00192031 1.58243e-20)
(15.0012 0.00190262 -3.25567e-20)
(15.0013 0.00188424 1.62589e-20)
(15.0013 0.0018653 3.31426e-20)
(15.0013 0.0018461 1.74778e-20)
(15.0014 0.00182614 -1.41486e-20)
(15.0014 0.00180552 -1.55861e-20)
(15.0014 0.00178449 4.98359e-20)
(15.0015 0.00176289 -1.50741e-22)
(15.0015 0.00174082 -1.53834e-20)
(15.0015 0.00171802 0)
(15.0015 0.00169483 3.94493e-20)
(15.0016 0.00167084 -4.00424e-20)
(15.0016 0.00164689 0)
(15.0016 0.00162194 2.0544e-20)
(15.0016 0.0015965 -2.07895e-20)
(15.0017 0.00157063 1.45994e-20)
(15.0017 0.00154449 6.59833e-21)
(15.0017 0.00151769 2.88632e-20)
(15.0017 0.00149013 -1.98093e-22)
(15.0018 0.00146251 -4.31996e-20)
(15.0018 0.00143404 1.35301e-20)
(15.0018 0.00140506 -5.22701e-20)
(15.0018 0.00137595 3.515e-20)
(15.0019 0.00134608 -2.20396e-20)
(15.0019 0.00131588 -1.2841e-20)
(15.0019 0.00128539 -2.18604e-20)
(15.0019 0.00125394 9.39906e-21)
(15.0019 0.00122252 3.47042e-20)
(15.0019 0.00119081 -1.06671e-20)
(15.002 0.00115831 -5.63767e-20)
(15.002 0.00112576 -4.30793e-20)
(15.002 0.0010925 3.23945e-20)
(15.002 0.00105887 -4.24999e-20)
(15.002 0.00102498 0)
(15.002 0.000990875 -3.08883e-20)
(15.002 0.000956227 -1.01337e-20)
(15.0021 0.000921591 3.85293e-20)
(15.0021 0.000886605 -1.94156e-20)
(15.0021 0.000850953 2.90806e-20)
(15.0021 0.000815188 -3.51149e-20)
(15.0021 0.000779466 1.80073e-20)
(15.0021 0.000743123 2.45401e-20)
(15.0021 0.00070673 2.37412e-20)
(15.0021 0.000670016 2.23827e-20)
(15.0021 0.000633155 2.00104e-21)
(15.0021 0.000596178 3.9558e-22)
(15.0021 0.0005591 -8.13893e-21)
(15.0021 0.000521646 7.37817e-21)
(15.0021 0.000484374 0)
(15.002 0.000446707 -1.46803e-20)
(15.002 0.000408885 1.89756e-20)
(15.002 0.000371412 -8.592e-21)
(15.002 0.000333714 -4.23013e-21)
(15.0019 0.000295753 2.15332e-21)
(15.0019 0.000257964 -1.49218e-20)
(15.0018 0.000221629 1.90221e-21)
(15.0018 0.000185866 4.76289e-21)
(15.0017 0.000144928 7.6366e-22)
(15.0015 9.74745e-05 9.62823e-23)
(15.0012 5.43198e-05 -1.03016e-21)
(15.0009 3.62253e-05 4.19831e-22)
(15.001 4.92975e-05 -5.85368e-23)
(15.0019 6.22947e-05 -6.08292e-22)
(15.0041 1.06893e-05 3.32776e-23)
(14.9961 8.64224e-06 -2.75048e-23)
(14.9977 5.27701e-05 1.91252e-22)
(14.9987 6.64268e-05 0)
(14.999 5.29313e-05 0)
(14.9988 5.12963e-05 -3.69032e-22)
(14.9985 8.01287e-05 -5.92041e-22)
(14.9983 0.000126882 -1.32524e-21)
(14.9982 0.000173737 -6.72977e-22)
(14.9981 0.000214819 -2.21203e-21)
(14.9981 0.000254133 3.60948e-21)
(14.998 0.000294713 -2.60137e-21)
(14.9979 0.000336611 -2.32771e-21)
(14.9979 0.000378967 -3.74188e-21)
(14.9978 0.000421751 2.33614e-23)
(14.9978 0.000465086 -1.58136e-20)
(14.9978 0.000508719 1.21557e-20)
(14.9978 0.000552558 3.95506e-21)
(14.9977 0.000596816 6.11128e-21)
(14.9977 0.000641299 -1.57618e-20)
(14.9977 0.000685978 6.88345e-21)
(14.9977 0.000730738 -2.51319e-20)
(14.9977 0.000775798 2.16869e-22)
(14.9976 0.000820951 5.79689e-21)
(14.9976 0.000866376 -7.66322e-21)
(14.9976 0.000911466 1.46993e-20)
(14.9976 0.000956746 2.1377e-22)
(14.9976 0.00100213 -3.08349e-20)
(14.9976 0.00104727 -1.6582e-20)
(14.9976 0.00109216 8.22771e-21)
(14.9976 0.00113739 3.20194e-23)
(14.9976 0.00118232 0)
(14.9976 0.00122708 1.78819e-20)
(14.9976 0.0012717 2.73046e-20)
(14.9976 0.00131619 -1.82875e-20)
(14.9977 0.00136028 -1.96506e-20)
(14.9977 0.00140426 -1.89595e-20)
(14.9977 0.00144781 -1.87376e-20)
(14.9977 0.00149116 -1.9275e-20)
(14.9977 0.0015344 2.47952e-21)
(14.9977 0.00157689 -3.83565e-20)
(14.9977 0.00161922 -3.07412e-20)
(14.9978 0.00166115 7.89831e-21)
(14.9978 0.00170255 7.50982e-21)
(14.9978 0.00174391 1.18892e-20)
(14.9978 0.00178481 1.94472e-20)
(14.9978 0.00182485 -1.65046e-22)
(14.9979 0.0018648 1.26227e-20)
(14.9979 0.00190407 3.80943e-20)
(14.9979 0.00194286 1.8897e-20)
(14.9979 0.00198118 -1.30307e-20)
(14.998 0.00201912 1.84541e-20)
(14.998 0.00205642 -1.00174e-20)
(14.998 0.00209314 -1.34267e-20)
(14.998 0.00212951 -1.40019e-20)
(14.9981 0.00216512 1.40167e-20)
(14.9981 0.00220032 2.12662e-20)
(14.9981 0.00223463 -1.42774e-20)
(14.9982 0.0022686 3.14507e-20)
(14.9982 0.00230199 -2.31597e-21)
(14.9982 0.00233474 -4.78103e-20)
(14.9983 0.00236686 -1.48283e-20)
(14.9983 0.00239824 1.48724e-20)
(14.9983 0.00242914 1.51132e-20)
(14.9984 0.00245932 4.5609e-20)
(14.9984 0.00248886 -1.50234e-20)
(14.9985 0.00251781 -3.10232e-20)
(14.9985 0.00254601 1.12742e-21)
(14.9985 0.00257356 1.41048e-20)
(14.9986 0.00260058 -1.5673e-20)
(14.9986 0.00262686 1.32973e-20)
(14.9986 0.00265245 3.18791e-20)
(14.9987 0.0026773 2.53833e-20)
(14.9987 0.00270159 -4.45164e-20)
(14.9988 0.00272495 -2.81431e-20)
(14.9988 0.00274762 1.62824e-20)
(14.9989 0.00276992 5.35992e-21)
(14.9989 0.00279138 1.64417e-20)
(14.9989 0.00281196 6.31909e-21)
(14.999 0.00283182 -1.97442e-20)
(14.999 0.0028511 2.20375e-21)
(14.9991 0.0028695 -3.49107e-20)
(14.9991 0.00288729 2.50804e-20)
(14.9992 0.00290433 -8.61556e-21)
(14.9992 0.00292072 -5.10927e-20)
(14.9993 0.0029361 9.76923e-21)
(14.9993 0.00295086 3.43066e-20)
(14.9993 0.00296492 3.4006e-23)
(14.9994 0.00297835 1.12436e-20)
(14.9994 0.00299091 -1.72345e-20)
(14.9995 0.00300277 -4.71499e-20)
(14.9995 0.00301374 4.5903e-21)
(14.9996 0.00302405 3.63584e-24)
(14.9996 0.00303373 1.75388e-20)
(14.9997 0.00304247 1.76064e-20)
(14.9997 0.00305045 9.47203e-21)
(14.9998 0.00305777 1.32019e-20)
(14.9998 0.00306407 -1.59496e-20)
(14.9999 0.00306968 -1.77764e-20)
(14.9999 0.00307439 -1.77993e-20)
(15 0.00307871 -1.75074e-20)
(15 0.00308205 5.34048e-20)
(15.0001 0.00308441 1.78479e-20)
(15.0001 0.00308638 -1.89662e-20)
(15.0002 0.00308744 -1.78645e-20)
(15.0002 0.0030878 -1.99091e-20)
(15.0003 0.00308712 2.04139e-20)
(15.0003 0.00308576 -4.18181e-20)
(15.0004 0.00308361 -1.78042e-20)
(15.0004 0.00308049 5.74756e-20)
(15.0005 0.00307671 3.55704e-20)
(15.0005 0.00307225 -3.06056e-20)
(15.0006 0.00306685 -6.76857e-21)
(15.0006 0.00306071 -5.07053e-23)
(15.0007 0.00305365 4.15306e-23)
(15.0007 0.00304592 3.54057e-20)
(15.0008 0.00303742 -7.42077e-21)
(15.0008 0.00302826 -2.54517e-20)
(15.0009 0.00301802 -9.31167e-21)
(15.0009 0.00300706 2.64744e-20)
(15.001 0.00299528 3.50332e-20)
(15.001 0.00298283 0)
(15.0011 0.00296941 -1.74759e-20)
(15.0011 0.00295535 -6.73112e-21)
(15.0012 0.00294047 0)
(15.0012 0.00292462 -1.15535e-20)
(15.0012 0.00290782 -1.20049e-20)
(15.0013 0.00289058 -1.24379e-20)
(15.0013 0.00287255 -1.71879e-20)
(15.0014 0.00285347 -1.32243e-20)
(15.0014 0.00283373 1.69709e-20)
(15.0015 0.00281313 -1.70192e-20)
(15.0015 0.00279172 7.91406e-23)
(15.0016 0.00276945 1.85697e-20)
(15.0016 0.00274653 1.53219e-20)
(15.0017 0.00272284 1.29555e-22)
(15.0017 0.00269824 -3.25661e-20)
(15.0018 0.00267294 -1.6397e-20)
(15.0018 0.00264683 0)
(15.0018 0.00261987 -1.93333e-23)
(15.0019 0.00259228 -1.50344e-21)
(15.0019 0.00256379 -3.63628e-20)
(15.002 0.00253449 5.31202e-20)
(15.002 0.00250439 1.84944e-20)
(15.0021 0.00247354 -6.9612e-20)
(15.0021 0.0024422 0)
(15.0021 0.00240977 1.56008e-20)
(15.0022 0.00237676 4.41719e-21)
(15.0022 0.00234277 5.31229e-21)
(15.0022 0.00230826 1.49923e-20)
(15.0023 0.00227296 -2.08387e-20)
(15.0023 0.00223681 0)
(15.0024 0.00220008 1.47381e-20)
(15.0024 0.00216267 -7.12001e-21)
(15.0024 0.00212457 7.32874e-21)
(15.0025 0.00208553 -5.01149e-20)
(15.0025 0.00204623 2.22006e-20)
(15.0025 0.00200577 -2.18375e-22)
(15.0026 0.00196462 -2.20124e-20)
(15.0026 0.00192322 1.32012e-20)
(15.0026 0.00188102 -1.32825e-20)
(15.0026 0.00183818 -1.28523e-20)
(15.0027 0.00179493 4.7965e-20)
(15.0027 0.0017506 1.20872e-20)
(15.0027 0.00170592 1.02228e-20)
(15.0027 0.00166079 -3.42948e-20)
(15.0028 0.00161491 -4.53958e-20)
(15.0028 0.00156865 3.35546e-20)
(15.0028 0.00152168 -1.09636e-20)
(15.0028 0.00147427 2.21526e-22)
(15.0028 0.00142644 1.03629e-20)
(15.0029 0.0013781 0)
(15.0029 0.00132912 4.09356e-20)
(15.0029 0.00128024 -2.00513e-20)
(15.0029 0.00123072 -1.95926e-20)
(15.0029 0.00118059 -3.81095e-20)
(15.0029 0.00113023 -9.94182e-21)
(15.0029 0.00107973 2.58468e-20)
(15.0029 0.00102844 -1.71835e-20)
(15.0029 0.000977088 -7.28261e-21)
(15.0029 0.000925433 -1.55461e-20)
(15.0029 0.000873715 -2.37693e-20)
(15.0029 0.000821638 2.22957e-20)
(15.0029 0.000769325 2.18528e-22)
(15.0029 0.000716784 -2.21624e-22)
(15.0029 0.000664238 1.16363e-20)
(15.0029 0.000611404 1.44919e-20)
(15.0028 0.000558341 5.64913e-21)
(15.0028 0.000505364 1.8422e-21)
(15.0028 0.000452277 -7.19478e-21)
(15.0027 0.000399088 -6.67312e-21)
(15.0026 0.000347014 1.6103e-22)
(15.0026 0.000295945 6.18601e-21)
(15.0025 0.000241386 -7.3817e-21)
(15.0023 0.000177473 2.90592e-21)
(15.0021 0.0001126 1.09075e-23)
(15.0017 7.27307e-05 0)
(15.0015 7.64346e-05 -4.43284e-22)
(15.0019 9.71917e-05 -5.37823e-22)
(15.0033 7.71919e-05 8.54851e-23)
(15.0057 1.31187e-05 4.61889e-23)
(14.9953 9.13834e-06 -5.2267e-23)
(14.9968 5.64338e-05 -2.65068e-22)
(14.9979 9.64826e-05 0)
(14.9985 9.28156e-05 7.38654e-22)
(14.9984 7.68866e-05 3.8753e-22)
(14.9982 9.13223e-05 -1.00474e-21)
(14.9979 0.000140165 -2.12883e-21)
(14.9977 0.000201724 -9.44408e-22)
(14.9976 0.000259008 8.40764e-22)
(14.9975 0.000311239 -4.16916e-21)
(14.9974 0.00036295 6.67604e-21)
(14.9973 0.000416221 -3.50468e-21)
(14.9973 0.000470522 8.85318e-21)
(14.9972 0.000525572 -2.6659e-23)
(14.9972 0.00058113 4.84819e-21)
(14.9971 0.00063726 -3.63178e-21)
(14.9971 0.000693711 1.91499e-20)
(14.9971 0.000750465 1.45236e-20)
(14.9971 0.000807625 -4.35994e-21)
(14.997 0.000865324 -3.85652e-22)
(14.997 0.000923135 -6.89053e-21)
(14.997 0.000981098 -5.85691e-21)
(14.997 0.00103941 -1.3882e-20)
(14.997 0.00109791 -6.30962e-21)
(14.997 0.00115618 -1.52092e-20)
(14.9969 0.00121459 2.98371e-20)
(14.9969 0.00127324 -8.51419e-21)
(14.9969 0.0013317 -1.65751e-20)
(14.9969 0.00138986 -1.69673e-20)
(14.9969 0.00144847 -2.569e-20)
(14.9969 0.00150662 -8.85044e-21)
(14.9969 0.00156461 0)
(14.997 0.00162246 -2.75277e-20)
(14.997 0.00168008 -1.87024e-20)
(14.997 0.00173739 9.84073e-22)
(14.997 0.00179451 -8.79353e-21)
(14.997 0.0018511 -1.91867e-20)
(14.997 0.00190743 -2.98547e-20)
(14.997 0.00196342 -1.95805e-20)
(14.9971 0.00201873 3.9105e-20)
(14.9971 0.00207377 -3.24256e-21)
(14.9971 0.0021285 -3.12499e-20)
(14.9971 0.00218244 -7.83498e-21)
(14.9971 0.00223615 1.78004e-22)
(14.9972 0.00228942 -1.60279e-22)
(14.9972 0.00234158 -1.92994e-20)
(14.9972 0.00239347 1.92074e-20)
(14.9973 0.00244485 -1.91133e-20)
(14.9973 0.00249536 1.90311e-20)
(14.9973 0.00254539 1.82411e-22)
(14.9974 0.0025949 1.31509e-20)
(14.9974 0.00264348 1.90631e-20)
(14.9974 0.00269153 4.59288e-21)
(14.9975 0.00273895 -4.4005e-21)
(14.9975 0.00278546 4.17932e-21)
(14.9975 0.00283138 1.77975e-20)
(14.9976 0.00287639 -1.75669e-20)
(14.9976 0.00292069 -1.76028e-20)
(14.9977 0.0029643 3.19072e-20)
(14.9977 0.00300709 0)
(14.9978 0.0030491 -1.66489e-20)
(14.9978 0.00309039 -3.26993e-20)
(14.9978 0.00313075 1.60375e-20)
(14.9979 0.00317014 -1.57263e-20)
(14.9979 0.00320889 3.08408e-20)
(14.998 0.00324687 1.54973e-20)
(14.998 0.00328377 1.48457e-20)
(14.9981 0.00331981 -1.46721e-21)
(14.9981 0.00335512 -1.58394e-20)
(14.9982 0.00338968 -2.74268e-20)
(14.9982 0.00342327 1.34004e-20)
(14.9983 0.00345562 1.28348e-20)
(14.9983 0.00348735 3.829e-21)
(14.9984 0.00351819 -1.21504e-20)
(14.9985 0.00354802 -7.04131e-21)
(14.9985 0.00357704 -1.12707e-20)
(14.9986 0.00360511 -1.10223e-20)
(14.9986 0.00363216 2.73097e-20)
(14.9987 0.00365826 -3.36286e-20)
(14.9987 0.00368355 -1.28555e-22)
(14.9988 0.00370787 1.71188e-20)
(14.9989 0.00373103 -1.71096e-20)
(14.9989 0.00375332 1.67445e-20)
(14.999 0.00377489 -1.58633e-20)