/*--------------------------------*- C++ -*----------------------------------*\
  =========                 |
  \\      /  F ield         | OpenFOAM: The Open Source CFD Toolbox
   \\    /   O peration     | Website:  https://openfoam.org
    \\  /    A nd           | Version:  8
     \\/     M anipulation  |
\*---------------------------------------------------------------------------*/
FoamFile
{
    version     2.0;
    format      ascii;
    class       volScalarField;
    location    "0.6";
    object      p;
}
// * * * * * * * * * * * * * * * * * * * * * * * * * * * * * * * * * * * * * //

dimensions      [0 2 -2 0 0 0 0];

internalField   nonuniform List<scalar> 
248760
(
0.430547
0.429556
0.427041
0.423305
0.418474
0.412554
0.405591
0.397656
0.388823
0.379155
0.368714
0.35756
0.345751
0.333337
0.320366
0.30688
0.292916
0.278507
0.263683
0.248474
0.232906
0.217005
0.200795
0.184287
0.167508
0.150457
0.133244
0.115913
0.0985448
0.0811512
0.0637498
0.0463689
0.0290188
0.0117562
-0.00542587
-0.0224673
-0.0393993
-0.0561756
-0.0728453
-0.0893799
-0.105832
-0.122184
-0.138474
-0.154681
-0.170818
-0.186854
-0.202777
-0.218552
-0.23416
-0.249574
-0.264778
-0.279769
-0.294536
-0.309101
-0.323449
-0.337627
-0.351607
-0.365451
-0.379103
-0.392636
-0.405966
-0.419167
-0.432135
-0.444949
-0.457492
-0.469847
-0.481896
-0.49373
-0.505233
-0.516508
-0.527438
-0.538137
-0.548489
-0.558609
-0.568376
-0.577899
-0.587052
-0.595928
-0.604398
-0.612544
-0.620245
-0.627574
-0.634424
-0.64088
-0.646847
-0.652422
-0.657521
-0.662253
-0.666533
-0.670472
-0.673974
-0.677143
-0.679877
-0.68227
-0.684215
-0.6858
-0.686923
-0.687666
-0.687941
-0.687823
-0.68724
-0.686266
-0.684841
-0.683037
-0.680808
-0.678221
-0.675238
-0.67193
-0.668259
-0.664298
-0.66001
-0.655483
-0.650672
-0.645681
-0.640452
-0.63512
-0.629591
-0.624009
-0.618175
-0.612866
0.430974
0.430011
0.427518
0.423793
0.418969
0.413058
0.406101
0.398173
0.389345
0.379682
0.369247
0.358099
0.346296
0.333889
0.320926
0.307447
0.29349
0.279089
0.264273
0.249071
0.23351
0.217616
0.201412
0.184913
0.168131
0.151095
0.133867
0.116535
0.0991525
0.0817553
0.0643504
0.0469633
0.0296131
0.0123369
-0.00484275
-0.0218966
-0.0388184
-0.055601
-0.0722557
-0.0887914
-0.10523
-0.121585
-0.13787
-0.154087
-0.17023
-0.186281
-0.202216
-0.218004
-0.23362
-0.249039
-0.264246
-0.279229
-0.293992
-0.308539
-0.322886
-0.33704
-0.351025
-0.364843
-0.378513
-0.392019
-0.405375
-0.418549
-0.431547
-0.444327
-0.456898
-0.469213
-0.481287
-0.493072
-0.504598
-0.515819
-0.526772
-0.537416
-0.547797
-0.557868
-0.567672
-0.577154
-0.586349
-0.595193
-0.60371
-0.61183
-0.619578
-0.626888
-0.633793
-0.64024
-0.64628
-0.651871
-0.657082
-0.661871
-0.666318
-0.670369
-0.674092
-0.677419
-0.680409
-0.682983
-0.685187
-0.686944
-0.688299
-0.689182
-0.689642
-0.689623
-0.689173
-0.688252
-0.686907
-0.685107
-0.682901
-0.680262
-0.677238
-0.673808
-0.670018
-0.665848
-0.661357
-0.656517
-0.651407
-0.645995
-0.640378
-0.634499
-0.62847
-0.622166
-0.615633
-0.609428
0.431775
0.430819
0.428338
0.424624
0.419811
0.41391
0.406962
0.399041
0.390221
0.380565
0.370137
0.358997
0.347202
0.334805
0.321851
0.308382
0.294436
0.280044
0.265238
0.250044
0.234491
0.218604
0.202407
0.185915
0.16914
0.152099
0.134869
0.117512
0.100117
0.0827029
0.0652925
0.0478944
0.0305336
0.013243
-0.00395055
-0.0210146
-0.037943
-0.0547255
-0.071378
-0.0879097
-0.104347
-0.120706
-0.137001
-0.153237
-0.169404
-0.185486
-0.20145
-0.217269
-0.232906
-0.248344
-0.263557
-0.278545
-0.293303
-0.307848
-0.322187
-0.336343
-0.350329
-0.364158
-0.377841
-0.391371
-0.404749
-0.417952
-0.430976
-0.443784
-0.456376
-0.468713
-0.480802
-0.492604
-0.504142
-0.515378
-0.526345
-0.537009
-0.547409
-0.557505
-0.567334
-0.576845
-0.586067
-0.594936
-0.603474
-0.611612
-0.619372
-0.626692
-0.633607
-0.640067
-0.646134
-0.651762
-0.657043
-0.661925
-0.666504
-0.670708
-0.674619
-0.678151
-0.681362
-0.684154
-0.686569
-0.688517
-0.69004
-0.691067
-0.691639
-0.691709
-0.691319
-0.690436
-0.689102
-0.687293
-0.685048
-0.682348
-0.679225
-0.675661
-0.671686
-0.667282
-0.662482
-0.657273
-0.651721
-0.645813
-0.639646
-0.633182
-0.626541
-0.619611
-0.612437
-0.605664
0.432957
0.432021
0.429563
0.425869
0.421075
0.41519
0.408256
0.400349
0.391541
0.381899
0.371484
0.360357
0.348577
0.336194
0.323256
0.309803
0.295872
0.281495
0.266702
0.251522
0.23598
0.220104
0.203917
0.187436
0.170664
0.153636
0.136387
0.119019
0.101596
0.0841678
0.0667452
0.0493349
0.0319642
0.0146519
-0.00255152
-0.0196372
-0.0365662
-0.0533601
-0.0700048
-0.0865427
-0.102976
-0.119348
-0.135657
-0.15192
-0.168118
-0.184238
-0.200239
-0.216094
-0.231761
-0.247218
-0.262446
-0.277436
-0.292199
-0.306736
-0.321082
-0.335232
-0.349236
-0.363068
-0.376784
-0.390326
-0.403749
-0.416969
-0.430038
-0.442859
-0.455492
-0.467834
-0.479958
-0.491762
-0.503333
-0.514574
-0.525581
-0.536258
-0.546707
-0.556826
-0.566711
-0.576252
-0.585531
-0.59443
-0.603021
-0.611188
-0.619
-0.626352
-0.633326
-0.639832
-0.645978
-0.651679
-0.657073
-0.66206
-0.666784
-0.671124
-0.67521
-0.678902
-0.682304
-0.685265
-0.687866
-0.689974
-0.691662
-0.692822
-0.69352
-0.693681
-0.693368
-0.692526
-0.691212
-0.689388
-0.687101
-0.684325
-0.681095
-0.677391
-0.673241
-0.668632
-0.663592
-0.658116
-0.652269
-0.646044
-0.639539
-0.632721
-0.625722
-0.618426
-0.610893
-0.603775
0.43452
0.433611
0.431179
0.427509
0.422736
0.416871
0.409956
0.402066
0.393275
0.383649
0.373251
0.362142
0.350379
0.338015
0.325095
0.311661
0.297748
0.283388
0.268611
0.253444
0.237915
0.22205
0.205874
0.1894
0.172643
0.155609
0.138362
0.120967
0.103523
0.0860679
0.0686286
0.051202
0.0338111
0.0164803
-0.000750256
-0.0178522
-0.0348028
-0.0516027
-0.0682609
-0.0848018
-0.10125
-0.117635
-0.133971
-0.150266
-0.166506
-0.182669
-0.198718
-0.214615
-0.230321
-0.245809
-0.26106
-0.27607
-0.290843
-0.305398
-0.319749
-0.333927
-0.34794
-0.361817
-0.37555
-0.389154
-0.402599
-0.41589
-0.42898
-0.441873
-0.45452
-0.466933
-0.479065
-0.490942
-0.502521
-0.513842
-0.524864
-0.535633
-0.546104
-0.556322
-0.566233
-0.575872
-0.585174
-0.594164
-0.602774
-0.611026
-0.618855
-0.626295
-0.633292
-0.6399
-0.646075
-0.651894
-0.657312
-0.662422
-0.667164
-0.671629
-0.675734
-0.67955
-0.682975
-0.686062
-0.688702
-0.690936
-0.69267
-0.693943
-0.694681
-0.694925
-0.694628
-0.693831
-0.692503
-0.69068
-0.688348
-0.685533
-0.68223
-0.678461
-0.674225
-0.669542
-0.664417
-0.658887
-0.652955
-0.646683
-0.640068
-0.633207
-0.626054
-0.618726
-0.611035
-0.60394
0.436448
0.435573
0.433171
0.429531
0.424785
0.418944
0.412053
0.404185
0.395415
0.385811
0.375434
0.364347
0.352607
0.340265
0.327368
0.313955
0.300063
0.285723
0.270964
0.255812
0.240297
0.224445
0.20828
0.191819
0.175065
0.158046
0.140786
0.123384
0.105905
0.0884291
0.0709616
0.0535181
0.0361041
0.0187488
0.0014908
-0.0156381
-0.0326109
-0.0494313
-0.0661045
-0.0826607
-0.0991261
-0.115533
-0.131899
-0.148228
-0.164512
-0.18072
-0.196819
-0.212759
-0.22851
-0.244033
-0.259317
-0.27435
-0.289148
-0.303721
-0.318097
-0.332297
-0.346343
-0.360254
-0.37403
-0.387676
-0.401173
-0.414511
-0.427655
-0.440596
-0.453295
-0.465754
-0.477938
-0.489864
-0.501501
-0.512881
-0.523972
-0.53481
-0.545358
-0.555653
-0.565642
-0.575353
-0.584726
-0.593783
-0.602456
-0.610767
-0.618657
-0.626159
-0.63322
-0.639894
-0.646139
-0.652031
-0.657522
-0.662708
-0.667529
-0.672075
-0.67626
-0.680158
-0.683669
-0.686842
-0.689569
-0.691882
-0.693691
-0.695029
-0.695827
-0.696121
-0.69587
-0.695111
-0.693819
-0.692026
-0.689723
-0.686933
-0.683654
-0.679905
-0.675685
-0.67101
-0.665888
-0.660342
-0.654385
-0.64808
-0.641436
-0.634556
-0.627409
-0.620131
-0.612552
-0.605612
0.438739
0.437902
0.435536
0.43193
0.427215
0.421404
0.41454
0.406698
0.397955
0.388376
0.378025
0.366964
0.35525
0.342934
0.330062
0.316674
0.302805
0.288487
0.273747
0.258613
0.243113
0.227274
0.211121
0.194669
0.177931
0.160909
0.143662
0.126236
0.10874
0.0912266
0.073735
0.0562672
0.0388272
0.0214466
0.00415179
-0.0130043
-0.0300159
-0.0468578
-0.0635624
-0.0801366
-0.0966309
-0.113062
-0.129463
-0.14583
-0.162158
-0.178414
-0.194561
-0.210553
-0.226349
-0.241918
-0.257238
-0.272311
-0.287137
-0.301748
-0.316149
-0.330393
-0.344468
-0.358432
-0.372242
-0.385953
-0.399489
-0.412898
-0.426083
-0.439098
-0.451838
-0.464372
-0.476599
-0.488605
-0.500295
-0.511764
-0.522917
-0.533854
-0.544472
-0.554867
-0.564925
-0.574731
-0.584166
-0.593303
-0.602028
-0.610411
-0.618348
-0.625917
-0.633025
-0.639768
-0.646062
-0.652021
-0.65756
-0.662813
-0.667676
-0.672281
-0.676498
-0.68045
-0.683993
-0.687222
-0.689988
-0.692367
-0.694231
-0.695648
-0.696517
-0.696903
-0.696737
-0.696077
-0.694877
-0.693188
-0.690983
-0.688301
-0.685126
-0.68149
-0.677384
-0.672834
-0.667837
-0.662431
-0.656617
-0.650466
-0.643978
-0.637259
-0.63027
-0.623137
-0.615685
-0.608854
0.441378
0.440586
0.438261
0.434694
0.430016
0.424238
0.417406
0.409596
0.400883
0.391334
0.381013
0.369982
0.358298
0.346011
0.333168
0.319808
0.305965
0.29167
0.276952
0.261837
0.246354
0.23053
0.214389
0.197949
0.181215
0.164215
0.14696
0.129535
0.112008
0.0944684
0.0769433
0.0594505
0.0419833
0.0245696
0.00724065
-0.00995855
-0.0270055
-0.0438888
-0.0606232
-0.077232
-0.0937543
-0.11022
-0.126654
-0.14306
-0.159432
-0.175735
-0.191933
-0.207975
-0.223822
-0.239438
-0.254806
-0.269919
-0.284791
-0.299436
-0.313887
-0.328161
-0.342293
-0.356286
-0.370164
-0.383906
-0.397518
-0.410959
-0.424228
-0.437274
-0.450104
-0.46267
-0.474994
-0.487036
-0.498833
-0.510346
-0.521618
-0.532606
-0.543351
-0.5538
-0.563983
-0.573838
-0.58339
-0.592571
-0.601403
-0.609824
-0.617863
-0.625466
-0.632677
-0.639452
-0.645852
-0.651834
-0.657475
-0.662727
-0.667675
-0.672253
-0.676544
-0.680462
-0.684082
-0.687301
-0.690173
-0.692592
-0.694606
-0.696119
-0.697169
-0.697684
-0.697704
-0.697182
-0.696155
-0.694597
-0.692543
-0.689984
-0.686948
-0.683434
-0.679467
-0.675054
-0.670225
-0.664985
-0.659384
-0.653428
-0.647191
-0.640656
-0.633914
-0.626875
-0.619574
-0.612668
0.444365
0.443622
0.441343
0.437818
0.433181
0.427442
0.420646
0.412871
0.404192
0.394678
0.384391
0.373394
0.361743
0.34949
0.336678
0.323348
0.309533
0.295264
0.280569
0.265475
0.25001
0.234201
0.218074
0.201644
0.184929
0.167928
0.150693
0.133254
0.115716
0.0981368
0.0805863
0.0630571
0.0455625
0.0281113
0.0107433
-0.00650144
-0.0235956
-0.0405238
-0.0573001
-0.0739475
-0.0905062
-0.107009
-0.123479
-0.139928
-0.15634
-0.172694
-0.188938
-0.205036
-0.220934
-0.236606
-0.252022
-0.267189
-0.282107
-0.296803
-0.311298
-0.325623
-0.339801
-0.353848
-0.367774
-0.381573
-0.395239
-0.408741
-0.422067
-0.435178
-0.448069
-0.460704
-0.473095
-0.485212
-0.497085
-0.508683
-0.520041
-0.531123
-0.541962
-0.552508
-0.562785
-0.572737
-0.582379
-0.591651
-0.600568
-0.609073
-0.617194
-0.624878
-0.632167
-0.639019
-0.645492
-0.651542
-0.657245
-0.66255
-0.667546
-0.672165
-0.676504
-0.680475
-0.684167
-0.687467
-0.690447
-0.692991
-0.695151
-0.696816
-0.698023
-0.698691
-0.698853
-0.698463
-0.69755
-0.696097
-0.694133
-0.691657
-0.68869
-0.685243
-0.681329
-0.676965
-0.672168
-0.666956
-0.661377
-0.655451
-0.649254
-0.642787
-0.636146
-0.629253
-0.622151
-0.615492
0.447684
0.446995
0.444767
0.44129
0.436698
0.431002
0.424247
0.416512
0.407873
0.398397
0.388148
0.377189
0.365575
0.353358
0.340582
0.327285
0.313501
0.29926
0.28459
0.269518
0.254072
0.23828
0.222167
0.205753
0.189043
0.172066
0.154827
0.137401
0.119836
0.102236
0.0846427
0.0670826
0.0495525
0.0320633
0.0146539
-0.00264497
-0.019787
-0.0367722
-0.0535925
-0.0702895
-0.0868875
-0.103432
-0.119942
-0.136432
-0.152891
-0.16929
-0.185587
-0.201736
-0.217692
-0.233418
-0.248896
-0.264115
-0.279094
-0.293839
-0.308395
-0.322766
-0.337007
-0.351097
-0.365091
-0.378932
-0.39267
-0.406217
-0.41962
-0.43278
-0.445753
-0.458439
-0.470917
-0.483092
-0.49506
-0.506724
-0.518188
-0.529347
-0.540298
-0.550927
-0.561321
-0.571359
-0.581116
-0.590472
-0.5995
-0.608088
-0.616311
-0.624071
-0.631455
-0.638376
-0.644932
-0.65104
-0.656818
-0.662173
-0.667237
-0.671901
-0.676311
-0.680333
-0.684106
-0.68747
-0.690547
-0.693176
-0.695448
-0.69721
-0.698531
-0.699298
-0.699565
-0.699261
-0.698432
-0.697048
-0.695145
-0.69272
-0.689798
-0.686395
-0.682527
-0.678218
-0.673489
-0.668365
-0.662894
-0.657102
-0.651064
-0.644776
-0.638334
-0.631654
-0.624779
-0.61831
0.451335
0.450706
0.448531
0.445107
0.440565
0.434916
0.428206
0.420515
0.411919
0.402485
0.392279
0.381361
0.369788
0.35761
0.344871
0.331609
0.317858
0.303648
0.289005
0.273956
0.258531
0.242757
0.226661
0.210259
0.193569
0.176593
0.159378
0.141943
0.124375
0.10674
0.0891151
0.071513
0.0539477
0.0364173
0.01896
0.00160946
-0.0155926
-0.0326326
-0.0495103
-0.0662564
-0.0829029
-0.0994915
-0.116045
-0.132579
-0.149083
-0.165531
-0.18188
-0.198086
-0.214099
-0.229888
-0.245426
-0.260712
-0.275748
-0.290562
-0.30517
-0.319612
-0.3339
-0.348065
-0.362101
-0.376024
-0.389802
-0.403437
-0.416881
-0.430134
-0.443148
-0.455935
-0.468455
-0.480739
-0.492752
-0.504535
-0.51605
-0.527338
-0.538348
-0.549113
-0.55957
-0.569744
-0.579566
-0.589056
-0.598146
-0.60686
-0.615138
-0.623014
-0.630439
-0.637462
-0.644042
-0.650245
-0.65603
-0.661475
-0.666531
-0.671287
-0.675674
-0.679789
-0.683538
-0.687003
-0.690076
-0.69282
-0.695116
-0.697007
-0.69839
-0.699296
-0.699649
-0.699476
-0.698739
-0.697463
-0.695644
-0.693305
-0.690464
-0.68714
-0.683364
-0.679159
-0.674556
-0.669581
-0.664266
-0.658655
-0.65276
-0.646648
-0.640305
-0.633818
-0.627053
-0.620833
0.455302
0.454738
0.452623
0.449256
0.444769
0.439171
0.432511
0.424868
0.416319
0.406932
0.396772
0.385899
0.374371
0.362235
0.349537
0.336313
0.322598
0.308419
0.293805
0.278782
0.26338
0.247625
0.231546
0.215161
0.198479
0.181528
0.164312
0.146893
0.129308
0.111657
0.0939852
0.0763493
0.0587349
0.0411655
0.0236557
0.00625116
-0.0110125
-0.0281129
-0.0450508
-0.0618522
-0.0785517
-0.0951865
-0.111788
-0.128366
-0.14492
-0.161415
-0.17782
-0.194079
-0.210157
-0.226007
-0.241614
-0.256964
-0.272072
-0.286949
-0.301628
-0.316133
-0.330489
-0.344716
-0.358821
-0.372807
-0.386656
-0.400355
-0.413873
-0.427196
-0.440287
-0.453146
-0.465746
-0.478108
-0.490206
-0.502072
-0.513678
-0.525056
-0.53616
-0.547016
-0.557569
-0.567836
-0.577751
-0.58733
-0.59651
-0.605307
-0.613666
-0.621616
-0.629111
-0.636197
-0.642837
-0.649091
-0.654925
-0.660415
-0.665513
-0.670312
-0.674744
-0.678911
-0.68272
-0.68626
-0.689417
-0.692257
-0.694663
-0.696675
-0.698185
-0.699215
-0.699694
-0.699637
-0.699015
-0.697843
-0.696128
-0.693882
-0.691136
-0.687898
-0.684209
-0.680072
-0.675535
-0.670605
-0.665326
-0.659737
-0.653876
-0.647822
-0.641573
-0.63524
-0.628712
-0.622789
0.459588
0.459092
0.457042
0.453736
0.449307
0.443765
0.437158
0.429567
0.42107
0.411733
0.401622
0.390798
0.379317
0.367227
0.354572
0.341389
0.327711
0.313567
0.298983
0.283988
0.268609
0.252875
0.236814
0.220445
0.203784
0.186836
0.169643
0.15222
0.134644
0.11696
0.0992591
0.0815682
0.0639132
0.0462945
0.0287348
0.0112748
-0.00605298
-0.0232143
-0.0402187
-0.0570775
-0.0738339
-0.09052
-0.10717
-0.123798
-0.140398
-0.156946
-0.173402
-0.189722
-0.205858
-0.221776
-0.237449
-0.252873
-0.268047
-0.283001
-0.297744
-0.312326
-0.326743
-0.341049
-0.355213
-0.36928
-0.383187
-0.396973
-0.41055
-0.423963
-0.437116
-0.450071
-0.462737
-0.475198
-0.487365
-0.499335
-0.511013
-0.522494
-0.533669
-0.544628
-0.55525
-0.565614
-0.575595
-0.585267
-0.594512
-0.603398
-0.611821
-0.619858
-0.627418
-0.63459
-0.641293
-0.647635
-0.653533
-0.659111
-0.664273
-0.66916
-0.673655
-0.677907
-0.681775
-0.685395
-0.688606
-0.69152
-0.693981
-0.696068
-0.697641
-0.698753
-0.699308
-0.699342
-0.69881
-0.697736
-0.696118
-0.693972
-0.691327
-0.68819
-0.684607
-0.680581
-0.676166
-0.671371
-0.666248
-0.660836
-0.655175
-0.649333
-0.643306
-0.637195
-0.63088
-0.625159
0.464175
0.463754
0.461772
0.458532
0.454166
0.448684
0.442135
0.4346
0.426158
0.416876
0.406819
0.396047
0.384617
0.372576
0.359967
0.346828
0.333189
0.319081
0.30453
0.289564
0.27421
0.258499
0.242458
0.226108
0.209457
0.192533
0.175342
0.157939
0.140351
0.122656
0.10491
0.0871773
0.0694683
0.0518043
0.0341922
0.0166754
-0.000714164
-0.0179426
-0.0350118
-0.0519344
-0.0687501
-0.0854906
-0.102194
-0.11887
-0.135522
-0.152119
-0.168631
-0.185006
-0.201206
-0.217187
-0.232931
-0.248424
-0.263675
-0.278697
-0.29352
-0.308165
-0.322666
-0.33703
-0.351281
-0.365403
-0.379402
-0.393241
-0.406917
-0.420384
-0.433643
-0.446653
-0.459434
-0.471952
-0.48424
-0.496265
-0.508065
-0.519596
-0.530892
-0.541894
-0.55263
-0.563031
-0.57312
-0.582827
-0.592175
-0.601099
-0.609628
-0.617709
-0.625382
-0.632604
-0.639433
-0.645829
-0.651863
-0.657492
-0.662798
-0.667722
-0.672354
-0.676614
-0.680589
-0.684182
-0.687471
-0.690349
-0.692875
-0.694946
-0.696603
-0.697755
-0.698428
-0.698564
-0.698176
-0.697242
-0.69577
-0.693776
-0.691262
-0.68827
-0.684811
-0.680937
-0.676661
-0.672039
-0.667103
-0.661895
-0.656467
-0.650844
-0.645096
-0.639164
-0.633088
-0.627432
0.469068
0.468725
0.466816
0.463646
0.459346
0.453927
0.44744
0.439966
0.431582
0.422358
0.412358
0.401642
0.390265
0.378276
0.365716
0.352622
0.339026
0.324956
0.31044
0.295504
0.280177
0.26449
0.24847
0.232136
0.215508
0.19859
0.181421
0.164017
0.146439
0.128721
0.11095
0.0931603
0.075409
0.057687
0.0400282
0.0224512
0.00500193
-0.0122957
-0.0294312
-0.0464224
-0.0632989
-0.0801012
-0.0968572
-0.113589
-0.130289
-0.146941
-0.163502
-0.179937
-0.196193
-0.212242
-0.228051
-0.243617
-0.258938
-0.274036
-0.288931
-0.303653
-0.318224
-0.332665
-0.346987
-0.361187
-0.375258
-0.389177
-0.402929
-0.41648
-0.429821
-0.442922
-0.455791
-0.468404
-0.480784
-0.492906
-0.504797
-0.516422
-0.527803
-0.538892
-0.549705
-0.560184
-0.570344
-0.580124
-0.58954
-0.598537
-0.607139
-0.615298
-0.623054
-0.630363
-0.637283
-0.643774
-0.649907
-0.655635
-0.661038
-0.666055
-0.670771
-0.675105
-0.679144
-0.682791
-0.686133
-0.689066
-0.69166
-0.693811
-0.695567
-0.696842
-0.69766
-0.697958
-0.697739
-0.696982
-0.69568
-0.693854
-0.691493
-0.688648
-0.685307
-0.681538
-0.677336
-0.672773
-0.667871
-0.662704
-0.657327
-0.651781
-0.646146
-0.640377
-0.634525
-0.629134
0.474248
0.473988
0.472157
0.469061
0.464832
0.459482
0.45306
0.44565
0.437329
0.428167
0.418228
0.407571
0.396252
0.384317
0.371809
0.358764
0.345212
0.331182
0.316702
0.301799
0.286501
0.270839
0.254841
0.238529
0.221913
0.205018
0.187853
0.170469
0.152884
0.135168
0.117357
0.0995326
0.0817193
0.0639515
0.0462371
0.0286062
0.0110945
-0.00627159
-0.0234774
-0.0405398
-0.0574848
-0.0743504
-0.0911681
-0.107954
-0.124709
-0.14141
-0.158026
-0.174512
-0.190828
-0.206936
-0.222812
-0.238444
-0.25384
-0.269007
-0.28398
-0.29877
-0.313424
-0.327931
-0.342338
-0.356603
-0.370763
-0.384748
-0.398594
-0.412216
-0.425658
-0.438836
-0.451813
-0.464508
-0.477001
-0.489206
-0.501209
-0.512914
-0.524402
-0.535563
-0.546473
-0.557017
-0.567265
-0.577102
-0.586602
-0.595657
-0.604344
-0.612567
-0.620414
-0.627796
-0.634817
-0.641388
-0.647628
-0.65344
-0.658953
-0.664053
-0.668874
-0.673285
-0.677421
-0.681139
-0.684572
-0.687573
-0.690258
-0.692483
-0.694338
-0.695706
-0.69664
-0.697055
-0.696972
-0.696356
-0.69521
-0.693545
-0.691352
-0.688681
-0.685514
-0.681924
-0.677901
-0.673525
-0.668815
-0.663847
-0.65867
-0.653323
-0.647875
-0.642279
-0.636578
-0.631283
0.479721
0.479548
0.477798
0.47478
0.470626
0.465347
0.458994
0.451652
0.443398
0.434301
0.424425
0.413831
0.402572
0.390695
0.378241
0.365246
0.351741
0.337754
0.323312
0.308443
0.293175
0.27754
0.261565
0.245272
0.228679
0.211794
0.194651
0.177269
0.159701
0.14197
0.124145
0.106272
0.0884142
0.0705893
0.0528271
0.0351389
0.0175657
0.000129098
-0.0171506
-0.0342899
-0.0513081
-0.0682462
-0.0851271
-0.101975
-0.118783
-0.135538
-0.152202
-0.168741
-0.185109
-0.201276
-0.217213
-0.232913
-0.248374
-0.263617
-0.278658
-0.29353
-0.308249
-0.322844
-0.337313
-0.35167
-0.36589
-0.379974
-0.393881
-0.407609
-0.421116
-0.434409
-0.447453
-0.460271
-0.47283
-0.485162
-0.497228
-0.509057
-0.5206
-0.531878
-0.542833
-0.553484
-0.563767
-0.573704
-0.583235
-0.592387
-0.601106
-0.609431
-0.617313
-0.624806
-0.631865
-0.638557
-0.644836
-0.650778
-0.656326
-0.661561
-0.666411
-0.670958
-0.675116
-0.678964
-0.682408
-0.685526
-0.688222
-0.690558
-0.692448
-0.693935
-0.694945
-0.6955
-0.695554
-0.695112
-0.69416
-0.692694
-0.690736
-0.688277
-0.685369
-0.682007
-0.678257
-0.674118
-0.669665
-0.664914
-0.659924
-0.654732
-0.649368
-0.643885
-0.638218
-0.633054
0.485467
0.485387
0.483723
0.480787
0.476712
0.471509
0.465229
0.457958
0.449775
0.440747
0.430939
0.420411
0.409215
0.397399
0.385003
0.372061
0.358605
0.344662
0.33026
0.315427
0.300192
0.284585
0.268634
0.252365
0.235788
0.218926
0.201792
0.184429
0.16686
0.149138
0.131289
0.113391
0.0954778
0.0776112
0.0597895
0.0420508
0.0244098
0.00690515
-0.0104571
-0.0276749
-0.0447773
-0.0617893
-0.0787435
-0.0956513
-0.112518
-0.12932
-0.146035
-0.162619
-0.17904
-0.195258
-0.211255
-0.227016
-0.242546
-0.257856
-0.272971
-0.287914
-0.302712
-0.317379
-0.331929
-0.34636
-0.360663
-0.374823
-0.388816
-0.402626
-0.416224
-0.429604
-0.442743
-0.45565
-0.468306
-0.480726
-0.492887
-0.504802
-0.516433
-0.52779
-0.538827
-0.549551
-0.55991
-0.569915
-0.579519
-0.58874
-0.597532
-0.605928
-0.613886
-0.621455
-0.628593
-0.635365
-0.641725
-0.647749
-0.653381
-0.658701
-0.663638
-0.668274
-0.67252
-0.67646
-0.679999
-0.68322
-0.686026
-0.68849
-0.690517
-0.692159
-0.69334
-0.694084
-0.69434
-0.694107
-0.693372
-0.692119
-0.690376
-0.68812
-0.685408
-0.682213
-0.678612
-0.674584
-0.670211
-0.665501
-0.660539
-0.655367
-0.650039
-0.644623
-0.639089
-0.634105
0.491495
0.491511
0.489936
0.487086
0.483093
0.477968
0.471765
0.46457
0.45646
0.447504
0.437767
0.427308
0.416179
0.404426
0.392089
0.379202
0.365797
0.351901
0.337542
0.322746
0.307545
0.291967
0.276043
0.259795
0.243243
0.226394
0.209281
0.191924
0.174373
0.156645
0.138799
0.120865
0.10292
0.0849946
0.0671271
0.0493272
0.0316252
0.0140431
-0.0033998
-0.0207068
-0.0378945
-0.0549895
-0.072016
-0.0889892
-0.10591
-0.122763
-0.139523
-0.156151
-0.172619
-0.188887
-0.204939
-0.220759
-0.236352
-0.251731
-0.266914
-0.281934
-0.296799
-0.311549
-0.326166
-0.340684
-0.355055
-0.369307
-0.38337
-0.397276
-0.410947
-0.424427
-0.43764
-0.45065
-0.463379
-0.475902
-0.488133
-0.500147
-0.511848
-0.523302
-0.534406
-0.545225
-0.555654
-0.565756
-0.575429
-0.584746
-0.59361
-0.602102
-0.610131
-0.617794
-0.625001
-0.631865
-0.638291
-0.644406
-0.650105
-0.655519
-0.660528
-0.665266
-0.669596
-0.673655
-0.677297
-0.680656
-0.683589
-0.686212
-0.688388
-0.690205
-0.691555
-0.692488
-0.692926
-0.692885
-0.692338
-0.691278
-0.689724
-0.687655
-0.685128
-0.682108
-0.678683
-0.674821
-0.670619
-0.666073
-0.661279
-0.656266
-0.651089
-0.645798
-0.640361
-0.635444
0.497782
0.4979
0.496419
0.493659
0.489753
0.484711
0.478588
0.471471
0.463439
0.45456
0.444897
0.43451
0.423451
0.411764
0.39949
0.386662
0.37331
0.359463
0.345148
0.330392
0.315225
0.299679
0.283783
0.267561
0.251028
0.234202
0.217102
0.199765
0.182217
0.164505
0.146648
0.128702
0.110714
0.0927464
0.0748209
0.0569669
0.0391954
0.0215387
0.0040069
-0.0133891
-0.0306684
-0.0478459
-0.0649491
-0.0819856
-0.0989632
-0.115864
-0.132669
-0.149341
-0.165853
-0.18217
-0.198275
-0.214153
-0.22981
-0.245253
-0.260508
-0.275593
-0.290538
-0.305352
-0.320055
-0.334635
-0.349096
-0.36341
-0.37757
-0.391538
-0.405312
-0.418854
-0.432175
-0.445245
-0.458084
-0.470663
-0.483004
-0.495071
-0.506883
-0.518389
-0.529607
-0.540479
-0.551022
-0.561178
-0.570967
-0.580334
-0.589309
-0.597842
-0.605976
-0.613667
-0.620971
-0.627848
-0.634367
-0.640481
-0.646271
-0.651677
-0.656783
-0.661517
-0.665963
-0.670035
-0.673816
-0.677215
-0.680313
-0.683012
-0.685374
-0.687309
-0.688858
-0.689947
-0.690591
-0.690746
-0.690409
-0.689574
-0.688227
-0.6864
-0.68407
-0.681298
-0.678065
-0.674449
-0.670443
-0.666136
-0.661547
-0.656747
-0.651766
-0.646611
-0.641311
-0.636395
0.50434
0.504562
0.503178
0.500512
0.496695
0.491739
0.4857
0.478665
0.470714
0.461913
0.452328
0.442016
0.431029
0.419412
0.407202
0.394434
0.381139
0.367342
0.353073
0.338358
0.323229
0.307715
0.291849
0.275652
0.259144
0.242337
0.225258
0.207932
0.190403
0.172692
0.154842
0.136877
0.118865
0.100844
0.082871
0.0649504
0.047114
0.0293751
0.0117593
-0.00573025
-0.0230982
-0.0403621
-0.0575395
-0.0746437
-0.0916776
-0.10863
-0.125481
-0.142199
-0.158757
-0.175124
-0.191282
-0.20722
-0.222938
-0.238449
-0.253772
-0.268929
-0.283944
-0.298833
-0.313607
-0.328265
-0.3428
-0.357195
-0.371431
-0.385484
-0.399338
-0.41297
-0.426377
-0.439539
-0.452466
-0.465138
-0.477568
-0.489728
-0.501629
-0.513229
-0.524535
-0.535499
-0.546128
-0.556371
-0.566239
-0.575685
-0.584729
-0.593328
-0.601517
-0.609258
-0.616604
-0.623517
-0.630062
-0.636202
-0.642011
-0.647438
-0.652564
-0.657323
-0.661802
-0.665919
-0.669767
-0.673252
-0.676461
-0.679292
-0.68181
-0.683923
-0.685668
-0.686965
-0.687823
-0.688196
-0.688075
-0.687457
-0.686317
-0.68469
-0.682545
-0.679946
-0.676858
-0.673368
-0.669465
-0.665254
-0.66075
-0.656047
-0.651177
-0.646165
-0.641049
-0.63636
0.511145
0.511477
0.510195
0.507626
0.503903
0.499037
0.493086
0.486136
0.478269
0.469552
0.460048
0.449814
0.438903
0.427357
0.415216
0.402511
0.389273
0.37553
0.361309
0.346638
0.331547
0.316068
0.300232
0.284064
0.26758
0.250797
0.233736
0.216429
0.198907
0.181212
0.163359
0.145393
0.127348
0.10929
0.0912553
0.0732719
0.0553645
0.0375483
0.0198493
0.00226829
-0.0151863
-0.0325382
-0.0497901
-0.0669674
-0.0840582
-0.10107
-0.117965
-0.134737
-0.151338
-0.167763
-0.183971
-0.199974
-0.215752
-0.231334
-0.246724
-0.261954
-0.277043
-0.292004
-0.306857
-0.321585
-0.336205
-0.350672
-0.364999
-0.379128
-0.393083
-0.406797
-0.420313
-0.433562
-0.446605
-0.459366
-0.471915
-0.484164
-0.496181
-0.507867
-0.519285
-0.53033
-0.541061
-0.551375
-0.561332
-0.570837
-0.579955
-0.588601
-0.596849
-0.604624
-0.612015
-0.61895
-0.625532
-0.631686
-0.637524
-0.642959
-0.648112
-0.652878
-0.65739
-0.661523
-0.66542
-0.668943
-0.67223
-0.675135
-0.677771
-0.680002
-0.681903
-0.683357
-0.684398
-0.684955
-0.685031
-0.684608
-0.683663
-0.682232
-0.680271
-0.677858
-0.674946
-0.671637
-0.667907
-0.663875
-0.65955
-0.655033
-0.65036
-0.645558
-0.640679
-0.636219
0.518209
0.518653
0.517476
0.515008
0.511382
0.506609
0.500748
0.493887
0.486107
0.477476
0.468055
0.457903
0.44707
0.435599
0.423528
0.410888
0.397711
0.384023
0.369851
0.355225
0.340175
0.324732
0.308929
0.292789
0.276333
0.259573
0.242532
0.225241
0.207737
0.190046
0.172204
0.154229
0.136167
0.118069
0.0999718
0.0819274
0.0639452
0.0460588
0.0282729
0.0106098
-0.00693891
-0.024373
-0.0417108
-0.0589575
-0.0761182
-0.0931826
-0.110135
-0.126952
-0.143608
-0.160081
-0.176351
-0.192409
-0.208257
-0.223903
-0.239367
-0.254669
-0.269831
-0.284868
-0.299794
-0.314605
-0.329297
-0.343853
-0.358257
-0.372487
-0.386522
-0.40035
-0.413951
-0.427325
-0.440454
-0.453346
-0.465978
-0.478357
-0.49045
-0.502258
-0.51374
-0.524894
-0.535674
-0.546082
-0.556073
-0.565656
-0.574793
-0.583503
-0.591757
-0.599588
-0.606972
-0.613957
-0.620521
-0.626723
-0.632532
-0.638014
-0.643125
-0.647937
-0.652391
-0.656566
-0.660393
-0.663962
-0.66719
-0.670158
-0.672774
-0.675096
-0.677038
-0.678627
-0.67979
-0.680523
-0.680791
-0.680576
-0.679884
-0.678681
-0.677016
-0.674845
-0.672248
-0.669185
-0.66576
-0.661961
-0.657907
-0.653626
-0.649201
-0.644685
-0.640099
-0.636027
0.525507
0.526069
0.525002
0.522638
0.519113
0.514437
0.50867
0.501902
0.494213
0.485671
0.476338
0.466271
0.455519
0.444126
0.432127
0.419556
0.406441
0.39281
0.378691
0.364112
0.349104
0.3337
0.317931
0.301823
0.285393
0.268658
0.251641
0.234369
0.216877
0.199201
0.181361
0.163389
0.145314
0.127175
0.109031
0.0909162
0.0728704
0.0549048
0.0370422
0.0192877
0.00164976
-0.0158771
-0.0333012
-0.0506257
-0.067857
-0.0849786
-0.101988
-0.118851
-0.135562
-0.152081
-0.168411
-0.184525
-0.200441
-0.216152
-0.231688
-0.247062
-0.262297
-0.277413
-0.292409
-0.307305
-0.322068
-0.336717
-0.351197
-0.365529
-0.379648
-0.393588
-0.407279
-0.420769
-0.433989
-0.446996
-0.459713
-0.4722
-0.484366
-0.496268
-0.507808
-0.519037
-0.529858
-0.540321
-0.550339
-0.55996
-0.569112
-0.577849
-0.586109
-0.593958
-0.601343
-0.608342
-0.614904
-0.621116
-0.62692
-0.632411
-0.637515
-0.642333
-0.646774
-0.650952
-0.654762
-0.658326
-0.66153
-0.664492
-0.667091
-0.669426
-0.671383
-0.67303
-0.674269
-0.675131
-0.675557
-0.675553
-0.675104
-0.674193
-0.672849
-0.67104
-0.668831
-0.66619
-0.663203
-0.659861
-0.656263
-0.652424
-0.648415
-0.644281
-0.640043
-0.63627
0.533055
0.533737
0.532782
0.530525
0.527104
0.522527
0.516858
0.510185
0.50259
0.49414
0.484897
0.474917
0.46425
0.452936
0.441013
0.428511
0.415461
0.40189
0.387825
0.373295
0.358331
0.342967
0.327234
0.311158
0.294759
0.278052
0.261054
0.243803
0.226328
0.208661
0.190833
0.172862
0.154778
0.136617
0.118424
0.100254
0.0821357
0.0641004
0.0461507
0.0283086
0.0105716
-0.00705029
-0.024567
-0.0419744
-0.0592765
-0.0764616
-0.0935221
-0.110438
-0.127193
-0.143766
-0.160146
-0.176322
-0.192298
-0.208079
-0.223685
-0.239132
-0.254444
-0.269631
-0.284711
-0.299677
-0.314532
-0.329253
-0.343834
-0.358244
-0.372474
-0.386492
-0.400301
-0.413868
-0.427205
-0.440281
-0.453108
-0.465649
-0.477911
-0.489848
-0.501465
-0.51271
-0.523586
-0.534049
-0.544103
-0.553711
-0.562887
-0.5716
-0.579876
-0.587693
-0.595089
-0.602049
-0.60862
-0.614786
-0.6206
-0.626037
-0.631154
-0.635912
-0.640371
-0.644482
-0.64831
-0.651798
-0.655017
-0.657906
-0.660535
-0.662837
-0.66487
-0.666567
-0.667964
-0.668995
-0.669672
-0.669954
-0.669833
-0.669296
-0.668328
-0.66695
-0.665147
-0.66297
-0.660417
-0.657556
-0.654404
-0.651035
-0.647479
-0.64375
-0.639902
-0.63639
0.540824
0.541632
0.540794
0.538649
0.535335
0.530862
0.525293
0.518719
0.511221
0.502867
0.493718
0.483829
0.473249
0.462018
0.450173
0.437744
0.424762
0.411252
0.397243
0.382765
0.367847
0.352525
0.336829
0.320789