/*--------------------------------*- C++ -*----------------------------------*\
  =========                 |
  \\      /  F ield         | OpenFOAM: The Open Source CFD Toolbox
   \\    /   O peration     | Website:  https://openfoam.org
    \\  /    A nd           | Version:  8
     \\/     M anipulation  |
\*---------------------------------------------------------------------------*/
FoamFile
{
    version     2.0;
    format      ascii;
    class       volScalarField;
    location    "0.023088";
    object      nuTilda;
}
// * * * * * * * * * * * * * * * * * * * * * * * * * * * * * * * * * * * * * //

dimensions      [0 2 -1 0 0 0 0];

internalField   nonuniform List<scalar> 
106000
(
0.000605787
8.64447e-05
4.1625e-05
2.83177e-05
2.21369e-05
1.91092e-05
2.59195e-05
2.71739e-05
2.68663e-05
2.64883e-05
2.55587e-05
2.48029e-05
2.40779e-05
2.31135e-05
2.05519e-05
1.87804e-05
1.87512e-05
1.88334e-05
1.88914e-05
1.89401e-05
1.89942e-05
1.90371e-05
1.90689e-05
1.90859e-05
1.90847e-05
1.90654e-05
1.90294e-05
1.89796e-05
1.89098e-05
1.87918e-05
1.86456e-05
1.84873e-05
1.83228e-05
1.81511e-05
1.79688e-05
1.77769e-05
1.75523e-05
1.73231e-05
1.70946e-05
1.6862e-05
1.66204e-05
1.63664e-05
1.60874e-05
1.57619e-05
1.5362e-05
1.48125e-05
1.39672e-05
1.27138e-05
1.15499e-05
1.02314e-05
0.00172043
0.000403681
0.000213193
0.00014614
0.000113472
9.50654e-05
8.44293e-05
7.73169e-05
7.24598e-05
7.19578e-05
7.94792e-05
8.32429e-05
8.60978e-05
8.91361e-05
9.14563e-05
9.31223e-05
9.43919e-05
9.52064e-05
9.57469e-05
9.62016e-05
9.66844e-05
9.70848e-05
9.74052e-05
9.76213e-05
9.771e-05
9.76721e-05
9.75167e-05
9.72657e-05
9.68862e-05
9.61801e-05
9.52765e-05
9.42846e-05
9.32478e-05
9.21639e-05
9.10104e-05
8.9793e-05
8.85308e-05
8.72808e-05
8.60695e-05
8.48806e-05
8.36995e-05
8.25248e-05
8.13099e-05
7.99619e-05
7.83622e-05
7.61624e-05
7.25529e-05
6.67232e-05
5.94712e-05
5.16136e-05
0.00272832
0.000787283
0.000432314
0.000297694
0.00023049
0.000191624
0.000166677
0.000149409
0.000136803
0.000128491
0.000127019
0.000127283
0.000128937
0.000131102
0.000132348
0.000132586
0.00013204
0.000130997
0.000129856
0.000128898
0.000128266
0.000127695
0.000127176
0.000126643
0.000126039
0.000125354
0.00012459
0.000123772
0.000122898
0.000121716
0.000120307
0.000118814
0.00011729
0.000115733
0.000114108
0.000112425
0.000110718
0.000109054
0.000107476
0.000105985
0.000104564
0.000103233
0.00010195
0.000100608
9.90731e-05
9.7e-05
9.35636e-05
8.80244e-05
8.21792e-05
7.72107e-05
0.00364567
0.00122255
0.000682973
0.000472127
0.000365051
0.000301904
0.000260193
0.000230648
0.000208497
0.000191401
0.00017869
0.000171098
0.000169019
0.000168787
0.000167498
0.000165114
0.000161948
0.000158495
0.000155301
0.000152679
0.000150766
0.000149029
0.000147506
0.000146076
0.000144647
0.000143203
0.000141736
0.000140275
0.000138831
0.000137275
0.000135608
0.000133905
0.000132214
0.000130518
0.000128771
0.000126993
0.000125247
0.000123617
0.000122178
0.00012095
0.000119919
0.000119148
0.000118607
0.000118171
0.000117681
0.000116832
0.000114989
0.00011174
0.000109555
0.000111813
0.00448158
0.00168181
0.000955058
0.000663367
0.000512984
0.000422888
0.000362405
0.000318867
0.000285707
0.000259389
0.000237921
0.00022076
0.000210108
0.000204884
0.000199233
0.000193082
0.000186611
0.000180355
0.000174933
0.00017059
0.000167406
0.000164975
0.000162995
0.000161204
0.000159495
0.000157871
0.00015633
0.000154922
0.000153678
0.000152516
0.000151433
0.000150492
0.000149732
0.000149108
0.000148509
0.000147926
0.000147358
0.000146809
0.000146273
0.000145672
0.000144884
0.000144013
0.000143082
0.000142033
0.00014081
0.000139299
0.000137134
0.000133981
0.000132115
0.00013538
0.00524295
0.00214779
0.0012422
0.000867363
0.000671321
0.000552227
0.000471278
0.00041229
0.000366866
0.000330384
0.000300007
0.000274478
0.000254194
0.000240421
0.000228213
0.000217223
0.000207434
0.000199046
0.000192146
0.000186867
0.000183238
0.000180802
0.000179036
0.000177549
0.000176234
0.000175126
0.000174189
0.000173467
0.000172952
0.000172498
0.000172064
0.000171689
0.000171391
0.000171096
0.000170646
0.000170106
0.000169513
0.000168887
0.000168222
0.000167405
0.000166206
0.000164836
0.000163334
0.000161653
0.000159768
0.000157643
0.000155065
0.000151721
0.000149617
0.000152821
0.00593556
0.0026101
0.00153991
0.00108121
0.000837933
0.000688225
0.000585371
0.000509669
0.000450884
0.000403317
0.00036341
0.000329475
0.00030081
0.000278238
0.000259403
0.000243414
0.000230168
0.000219658
0.000211468
0.000205598
0.000201983
0.000199915
0.000198579
0.000197416
0.000196342
0.000195446
0.000194642
0.00019401
0.000193543
0.000193024
0.000192448
0.000191893
0.000191389
0.000190834
0.000189987
0.000189033
0.000188042
0.000187045
0.000186027
0.000184942
0.00018367
0.000182264
0.000180724
0.000178965
0.000176965
0.000174693
0.000172012
0.000168628
0.000166078
0.000168528
0.00656442
0.00306171
0.00184438
0.0013027
0.00101119
0.000829576
0.000703579
0.000610046
0.000536922
0.000477417
0.000427272
0.000385405
0.000350486
0.000321995
0.000298308
0.000278346
0.000261561
0.000247688
0.000236764
0.000229275
0.000225031
0.00022274
0.000221136
0.00021948
0.000217819
0.000216379
0.000214988
0.000213823
0.000212875
0.000211793
0.000210639
0.000209551
0.00020856
0.000207639
0.000206654
0.000205625
0.000204616
0.000203652
0.000202686
0.000201684
0.00020058
0.000199349
0.000197933
0.000196171
0.000194057
0.000191569
0.000188637
0.000185029
0.000181758
0.000183038
0.00713401
0.00349995
0.00215269
0.00153006
0.00118978
0.000975225
0.000825003
0.000712637
0.000624282
0.000552015
0.000492875
0.000444222
0.000403945
0.000370725
0.000343036
0.000319688
0.000299885
0.000283111
0.000269114
0.000258398
0.000251961
0.000248195
0.000245223
0.000242073
0.000239024
0.000236467
0.000233997
0.000231939
0.000230235
0.000228666
0.000227212
0.000225917
0.000224774
0.000223782
0.000222847
0.000221899
0.000220985
0.000220115
0.000219179
0.000218152
0.000217021
0.000215753
0.000214265
0.000212302
0.000209937
0.000207159
0.000203933
0.000200085
0.000196227
0.000196533
0.00764833
0.00392412
0.00246249
0.00176186
0.00137262
0.00112428
0.000948881
0.000816768
0.000712327
0.000628821
0.000561435
0.000506458
0.000461127
0.00042356
0.000392112
0.000365478
0.0003427
0.000323104
0.000306222
0.000292087
0.00028199
0.000275234
0.000269729
0.000264158
0.000259104
0.000255076
0.000251866
0.000249279
0.000247153
0.000245298
0.000243683
0.000242293
0.000241049
0.000239966
0.000238966
0.000237912
0.000236879
0.000235888
0.000234749
0.000233463
0.000232091
0.000230605
0.000228963
0.000226995
0.00022463
0.000221821
0.000218532
0.000214627
0.000210395
0.000209676
0.00811094
0.00433342
0.00277187
0.00199691
0.00155879
0.00127598
0.00107454
0.000921812
0.00080262
0.000708533
0.000633194
0.000571992
0.00052159
0.000479661
0.000444375
0.000414299
0.000388352
0.00036576
0.000345919
0.000328529
0.000314429
0.000303114
0.000293875
0.000285824
0.000279055
0.000273881
0.000270102
0.000267109
0.000264603
0.000262383
0.000260461
0.000258793
0.000257223
0.000255817
0.000254508
0.000253079
0.000251691
0.000250386
0.000249056
0.000247677
0.000246248
0.000244716
0.000243054
0.00024114
0.000238821
0.000236018
0.000232694
0.000228752
0.000224257
0.000222527
0.00852458
0.0047272
0.0030792
0.00223422
0.00174746
0.00142964
0.00120137
0.00102877
0.000895603
0.00079121
0.000707949
0.000640417
0.000584755
0.000538263
0.000498903
0.000465114
0.000435714
0.000409858
0.000386853
0.000366179
0.000348352
0.000333297
0.000320586
0.000309717
0.000300843
0.00029426
0.000289676
0.000285975
0.000282761
0.000279816
0.000277253
0.000275015
0.000272834
0.000270865
0.000269114
0.000267429
0.000265845
0.000264376
0.000262934
0.000261495
0.000260024
0.000258422
0.000256688
0.000254744
0.000252374
0.000249499
0.000246101
0.000242117
0.000237518
0.000235076
0.00889482
0.00510507
0.00338308
0.00247296
0.00193791
0.00158463
0.0013294
0.00113801
0.000991258
0.000876615
0.000785313
0.000711234
0.000650043
0.0005987
0.000554968
0.000517155
0.000483989
0.000454582
0.000428152
0.000404583
0.000383945
0.00036609
0.00035067
0.000337276
0.000325895
0.000317066
0.000310937
0.000305827
0.000301332
0.000297179
0.000293622
0.000290633
0.000287975
0.000285601
0.000283527
0.00028161
0.000279837
0.00027819
0.000276556
0.000274953
0.000273326
0.000271519
0.000269591
0.000267505
0.000265112
0.000262276
0.00025893
0.000255016
0.000250447
0.000247486
0.00922865
0.00546701
0.00368229
0.00271243
0.00212948
0.00174035
0.00145912
0.00124953
0.00108935
0.00096438
0.000864839
0.000783944
0.000716918
0.000660406
0.000611982
0.000569829
0.000532582
0.000499503
0.000470104
0.000444006
0.000420997
0.000400812
0.000383103
0.000367497
0.000353814
0.000342355
0.00033378
0.000326308
0.000319852
0.000314407
0.000310022
0.000306408
0.000303291
0.000300491
0.000298044
0.000295777
0.000293678
0.000291719
0.000289734
0.000287814
0.000285935
0.000284
0.000281974
0.000279819
0.000277428
0.00027463
0.00027134
0.000267507
0.000263004
0.000259666
0.00953141
0.00581317
0.00397609
0.00295159
0.00232155
0.00189667
0.00159056
0.00136312
0.00118953
0.0010541
0.000946082
0.000858081
0.000784905
0.000722901
0.000669468
0.000622655
0.000581399
0.000545038
0.000512904
0.000484438
0.000459226
0.000436888
0.000417047
0.000399342
0.000383496
0.000369493
0.00035783
0.000347835
0.000339389
0.000332525
0.000327211
0.000322836
0.000319067
0.000315614
0.000312601
0.000309771
0.000307153
0.000304766
0.0003025
0.000300349
0.000298271
0.000296207
0.000294066
0.00029181
0.000289368
0.000286531
0.000283233
0.000279442
0.00027505
0.000271542
0.00980717
0.00614385
0.00426387
0.00318951
0.00251351
0.00205381
0.00172355
0.00147847
0.00129145
0.00114537
0.00102862
0.000933223
0.000853584
0.000785773
0.000727011
0.000675677
0.000630739
0.000591294
0.00055652
0.00052571
0.000498303
0.000473822
0.000451847
0.000432029
0.000414021
0.000397911
0.000383925
0.000371726
0.000361165
0.000352407
0.000345688
0.000340084
0.000335263
0.000330786
0.000326952
0.000323556
0.000320499
0.00031774
0.000315184
0.000312781
0.000310452
0.000308181
0.000305831
0.000303379
0.000300796
0.000297935
0.000294678
0.000290977
0.000286736
0.000283173
0.0100592
0.00645942
0.00454508
0.00342535
0.00270481
0.00221169
0.00185784
0.00159525
0.0013947
0.00123779
0.00111207
0.00100899
0.000922586
0.000848653
0.000784667
0.000729114
0.000680662
0.00063821
0.00060079
0.000567576
0.000537891
0.000511181
0.000486979
0.000465074
0.000445235
0.000427372
0.000411526
0.000397476
0.000385033
0.000374251
0.000365578
0.000358033
0.000351616
0.000346125
0.000341543
0.000337569
0.000334023
0.000330817
0.000327862
0.000325093
0.000322389
0.000319793
0.00031723
0.000314627
0.000311938
0.000309044
0.000305803
0.000302173
0.000298059
0.000294492
0.0102902
0.0067603
0.00481928
0.00365836
0.00289489
0.00237008
0.0019931
0.00171309
0.00149894
0.00133101
0.00119608
0.00108503
0.000991573
0.000911506
0.000842601
0.000782994
0.000731095
0.000685625
0.000645491
0.00060976
0.000577666
0.00054858
0.000522294
0.000498546
0.000477051
0.000457608
0.000440127
0.000424415
0.000410259
0.00039756
0.000386641
0.000377138
0.000369034
0.000362316
0.000356815
0.000352056
0.000347807
0.00034396
0.000340421
0.000337177
0.000334144
0.000331264
0.000328483
0.000325703
0.00032287
0.000319884
0.000316584
0.000312962
0.000308961
0.000305472
0.0105023
0.00704694
0.00508607
0.00388782
0.00308415
0.00252869
0.00212899
0.00183164
0.0016038
0.00142468
0.0012803
0.00116104
0.00106034
0.000974471
0.000900826
0.000837239
0.000781885
0.000733335
0.000690376
0.000651985
0.000617313
0.00058605
0.000557855
0.000532387
0.000509308
0.000488339
0.000469296
0.000451989
0.000436175
0.000421861
0.000409189
0.000397969
0.000388142
0.000379839
0.000373
0.000367042
0.000361734
0.00035712
0.000353035
0.000349326
0.000345927
0.000342711
0.000339645
0.000336598
0.000333533
0.000330397
0.000327051
0.000323452
0.000319557
0.000316155
0.0106976
0.00731979
0.00534515
0.00411304
0.0032724
0.00268719
0.00226515
0.00195055
0.00170895
0.00151848
0.00136445
0.0012367
0.00112902
0.00103755
0.000959262
0.000891709
0.000832844
0.000781112
0.000735195
0.000693973
0.000656944
0.000623637
0.000593616
0.000566469
0.000541804
0.000519284
0.00049866
0.000479811
0.000462587
0.000446904
0.000432783
0.00042009
0.000408703
0.00039871
0.000390055
0.000382588
0.000376169
0.00037072
0.000365989
0.000361688
0.000357796
0.000354105
0.000350633
0.0003473
0.000344022
0.000340738
0.000337311
0.000333697
0.000329858
0.000326515
0.0108777
0.00757931
0.00559623
0.00433333
0.00345943
0.00284525
0.00240123
0.00206948
0.00181406
0.0016121
0.00144822
0.00131201
0.00119763
0.00110068
0.00101778
0.000946227
0.000883764
0.000828727
0.000779692
0.000735855
0.000696581
0.000661292
0.000629464
0.000600617
0.000574314
0.000550167
0.000528063
0.000507853
0.000489356
0.000472431
0.000457015
0.000442989
0.000430161
0.000418632
0.000408397
0.0003994
0.000391638
0.000385075
0.000379426
0.000374257
0.000369658
0.000365483
0.000361616
0.000357977
0.000354437
0.000350952
0.000347365
0.000343662
0.000339844
0.000336571
0.011044
0.00782596
0.00583911
0.00454826
0.00364465
0.00300248
0.00253689
0.00218809
0.00191883
0.00170526
0.00153132
0.001387
0.00126608
0.00116373
0.00107621
0.0010006
0.000934429
0.000875943
0.000823973
0.000777634
0.00073617
0.000698906
0.000665242
0.000634638
0.000606604
0.000580959
0.000557498
0.000536019
0.000516311
0.000498188
0.000481532
0.000466219
0.000452176
0.00043939
0.000427838
0.00041747
0.000408292
0.000400274
0.000393288
0.000387158
0.00038182
0.000377083
0.000372725
0.000368685
0.000364767
0.000360983
0.000357221
0.000353427
0.000349605
0.000346371
0.0111978
0.00806016
0.0060736
0.00475745
0.00382743
0.00315852
0.00267176
0.00230607
0.00202296
0.00179767
0.00161377
0.00146159
0.00133427
0.00122655
0.00113438
0.00105463
0.000984619
0.000922807
0.00086803
0.000819249
0.000775606
0.000736338
0.000700776
0.00066832
0.000638706
0.000611652
0.000586892
0.000564177
0.000543261
0.000523924
0.000506087
0.000489665
0.000474558
0.00046068
0.000447974
0.000436382
0.000425853
0.000416438
0.000408108
0.000400836
0.000394553
0.000389041
0.000383972
0.000379362
0.000375056
0.000370966
0.000366985
0.000363048
0.000359159
0.000355907
0.0113401
0.00828233
0.00629956
0.00496111
0.00400719
0.00331298
0.0028055
0.00242311
0.00212616
0.00188903
0.00169553
0.00153568
0.00140204
0.00128896
0.00119208
0.00110812
0.0010343
0.000969306
0.000911799
0.000860597
0.000814751
0.000773423
0.000735872
0.000701719
0.000670602
0.000642179
0.000616132
0.000592166
0.000570001
0.000549528
0.000530633
0.000513199
0.000497111
0.000482218
0.000468433
0.000455746
0.000444111
0.000433526
0.000423976
0.000415472
0.000407957
0.000401332
0.000395472
0.000390246
0.000385465
0.000380984
0.000376682
0.000372503
0.000368494
0.000365215
0.0114721
0.00849286
0.00651684
0.00515897
0.00418335
0.0034655
0.00293779
0.00253888
0.00222814
0.00197928
0.00177648
0.00160912
0.00146922
0.00135078
0.00124914
0.00116084
0.00108344
0.00101538
0.00095518
0.000901547
0.000853453
0.00080998
0.000770585
0.000734808
0.000702224
0.000672435
0.000645077
0.000619809
0.000596494
0.000574968
0.000555078
0.000536674
0.000519634
0.000503738
0.000489007
0.000475388
0.0004628
0.000451206
0.000440574
0.000430879
0.000422149
0.000414373
0.000407555
0.000401524
0.000396071
0.000391025
0.000386322
0.000381875
0.000377701
0.000374341
0.0115945
0.00869212
0.00672531
0.00535076
0.00435533
0.00361576
0.00306827
0.0026531
0.00232861
0.00206832
0.00185648
0.00168175
0.00153565
0.00141181
0.00130533
0.00121286
0.00113199
0.00106092
0.000998047
0.000941951
0.000891537
0.000846042
0.000804878
0.000767516
0.00073347
0.00070229
0.000673564
0.000647105
0.000622707
0.000600169
0.000579302
0.000559927
0.000541922
0.000525158
0.000509581
0.000495125
0.000481671
0.000469149
0.00045756
0.000446886
0.000437123
0.000428262
0.000420371
0.000413248
0.000406926
0.00040125
0.000396068
0.000391253
0.000386806
0.000383282
0.011708
0.00888043
0.00692481
0.00553617
0.00452252
0.00376342
0.00319663
0.00276546
0.00242728
0.002156
0.00193536
0.00175338
0.00160112
0.00147188
0.00136059
0.00126411
0.00117986
0.00110581
0.00104026
0.000981644
0.000928997
0.000881567
0.000838681
0.000799744
0.000764214
0.00073159
0.000701609
0.000674016
0.000648566
0.000625023
0.000603165
0.000582848
0.000563972
0.000546396
0.000530025
0.000514777
0.000500483
0.000487154
0.000474753
0.000463243
0.00045259
0.00044275
0.000433785
0.000425633
0.000418347
0.000411864
0.000406017
0.000400649
0.000395826
0.000392104
0.0118134
0.00905807
0.00711524
0.00571487
0.00468448
0.00390798
0.00332252
0.00287564
0.00252405
0.00224216
0.00201294
0.00182383
0.00166544
0.00153075
0.00141486
0.0013145
0.00122692
0.00114991
0.00108166
0.00102056
0.000965789
0.000916481
0.000871893
0.000831368
0.00079431
0.000760348
0.000729168
0.00070047
0.000673971
0.000649401
0.000626592
0.000605407
0.000585711
0.000567349
0.000550192
0.000534156
0.00051914
0.000505096
0.000491969
0.000479706
0.000468244
0.000457583
0.000447735
0.000438668
0.000430421
0.000422937
0.000416225
0.000410217
0.000404915
0.000400888
0.0119111
0.0092253
0.00729642
0.00588654
0.00484087
0.00404877
0.00344559
0.00298335
0.00261876
0.0023266
0.00208902
0.00189289
0.0017284
0.00158836
0.00146804
0.00136391
0.00127304
0.00119307
0.00112208
0.00105866
0.00100184
0.000950685
0.000904396
0.000862249
0.000823757
0.000788516
0.000756167
0.000726368
0.000698798
0.00067325
0.000649553
0.000627539
0.000607042
0.000587888
0.00056998
0.000553238
0.000537553
0.000522842
0.000509027
0.000496066
0.000483922
0.000472564
0.000461966
0.000452093
0.000442959
0.000434568
0.000426959
0.000420152
0.000414179
0.000409656
0.0120017
0.00938231
0.00746819
0.00605082
0.00499134
0.00418514
0.00356552
0.00308826
0.00271119
0.00240912
0.00216338
0.00196036
0.00178979
0.00164461
0.00152
0.00141219
0.00131808
0.00123513
0.00116152
0.00109586
0.00103704
0.000984063
0.000936051
0.000892357
0.0008525
0.000816018
0.00078251
0.000751592
0.000723001
0.000696532
0.000671981
0.000649151
0.000627845
0.000607942
0.000589345
0.000571942
0.000555612
0.000540246
0.000525802
0.000512231
0.000499479
0.000487501
0.000476227
0.000465665
0.000455806
0.000446643
0.000438208
0.000430501
0.000423715
0.000418559
0.0120855
0.00952925
0.00763034
0.00620735
0.0051355
0.00431641
0.00368195
0.00319003
0.00280113
0.00248948
0.00223581
0.00202601
0.00184948
0.00169937
0.00157061
0.0014592
0.00136186
0.00127599
0.00119989
0.00113206
0.00107128
0.00101648
0.000966794
0.000921634
0.000880461
0.000842755
0.000808078
0.000776086
0.000746534
0.000719179
0.000693788
0.000670131
0.000648069
0.000627468
0.000608216
0.00059017
0.000573192
0.000557232
0.00054222
0.000528089
0.000514768
0.000502203
0.00049036
0.000479219
0.000468743
0.00045891
0.000449743
0.000441272
0.000433686
0.000427733
0.012163
0.0096662
0.00778266
0.00635578
0.00527298
0.0044419
0.00379459
0.00328854
0.00288831
0.00256744
0.00230608
0.00208961
0.00190734
0.00175249
0.00161972
0.00150477
0.00140422
0.00131559
0.0012371
0.00116715
0.00110443
0.00104782
0.000996563
0.000949995
0.000907538
0.000868608
0.0008328
0.0007998
0.000769324
0.000741099
0.000714859
0.000690431
0.000667661
0.00064639
0.000626497
0.000607802
0.000590244
0.000573736
0.000558189
0.000543517
0.000529666
0.000516591
0.000504243
0.000492588
0.000481556
0.00047116
0.000461399
0.000452284
0.000443975
0.000437152
0.0122342
0.0097932
0.00792487
0.0064957
0.00540335
0.00456122
0.00390268
0.00338353
0.00297248
0.00264276
0.00237393
0.00215093
0.00196322
0.00180383
0.00166714
0.00154872
0.00144506
0.0013538
0.00127301
0.001201
0.00113633
0.00107802
0.00102527
0.000977339
0.000933616
0.000893485
0.00085662
0.000822657
0.000791279
0.000762182
0.000735146
0.000709994
0.000686548
0.000664613
0.000644073
0.000624802
0.000606702
0.00058967
0.000573596
0.000558427
0.000544103
0.000530564
0.000517747
0.000505608
0.000494112
0.000483241
0.000472978
0.000463304
0.000454381
0.000446819
0.0122995
0.00991021
0.008057
0.00662672
0.00552618
0.004674
0.00400546
0.00347468
0.00305335
0.00271516
0.00243913
0.00220983
0.00201694
0.00185318
0.00171271
0.00159087
0.00148427
0.00139051
0.00130749
0.00123344
0.00116692
0.001107
0.00105281
0.00100355
0.000958556
0.000917324
0.000879459
0.00084456
0.000812286
0.000782366
0.000754586
0.000728743
0.000704635
0.000682049
0.000660918
0.000641103
0.000622481
0.000604926
0.000588374
0.000572752
0.000557988
0.000544006
0.000530756
0.0005182
0.000506294
0.000495
0.000484288
0.000474157
0.000464723
0.000456538
0.0123587
0.0100171
0.00817871
0.0067484
0.00564101
0.00477982
0.0041021
0.00356169
0.0031306
0.00278436
0.00250139
0.00226612
0.0020683
0.00190036
0.00175622
0.0016311
0.00152172
0.00142556
0.0013404
0.00126433
0.00119608
0.00113464
0.00107907
0.00102848
0.000982312
0.000940038
0.000901216
0.000865397
0.00083227
0.000801585
0.000773099
0.000746582
0.000721807
0.000698642
0.000676961
0.00065662
0.000637476
0.000619451
0.000602457
0.000586408
0.000571216
0.000556831
0.000543197
0.000530264
0.000517975
0.000506303
0.000495218
0.000484701
0.000474819
0.000466066
0.012412
0.0101136
0.00828962
0.00686027
0.00574733
0.00487827
0.00419215
0.00364378
0.00320392
0.00285006
0.00256042
0.00231959
0.00211709
0.00194516
0.00179747
0.00166926
0.00155726
0.0014588
0.00137156
0.00129359
0.00122371
0.00116081
0.0011039
0.00105206
0.00100479
0.000961526
0.000921778
0.000885072
0.000851157
0.000819753
0.000790585
0.000763395
0.000738028
0.000714318
0.000692112
0.000671248
0.000651636
0.000633176
0.000615763
0.000599294
0.000583717
0.00056897
0.000554982
0.000541687
0.000529059
0.000517063
0.000505653
0.000494791
0.000484523
0.000475244
0.0124592
0.0101995
0.00838926
0.00696181
0.00584463
0.00496886
0.00427534
0.00372009
0.00327294
0.00291195
0.00261602
0.00237
0.00216308
0.00198735
0.00183627
0.00170518
0.0015907
0.00149006
0.00140078
0.00132108
0.00124967
0.00118538
0.00112716
0.00107418
0.00102588
0.000981668
0.000941009
0.000903503
0.000868855
0.000836766
0.000806926
0.000779134
0.000753215
0.000728987
0.000706263
0.000684932
0.000664888
0.000646016
0.00062819
0.000611347
0.000595421
0.000580337
0.000566005
0.000552394
0.000539465
0.00052718
0.000515466
0.00050432
0.000493739
0.000483907
0.0124999
0.0102743
0.00847711
0.00705244
0.00593232
0.00505107
0.00435089
0.00378925
0.00333612
0.00296848
0.00266609
0.00241499
0.0022038
0.00202437
0.00187001
0.00173624
0.00161952
0.00151686
0.00142568
0.00134442
0.00127168
0.00120612
0.00114674
0.00109279
0.00104363
0.00099856
0.000957122
0.000918958
0.000883701
0.000850994
0.000820599
0.000792321
0.000765945
0.000741243
0.000718099
0.000696393
0.000675987
0.000656729
0.000638569
0.000621425
0.000605203
0.000589795
0.000575185
0.000561319
0.000548134
0.000535586
0.000523649
0.000512306
0.000501583
0.000491776
0.0125336
0.0103373
0.00855208
0.00712671
0.00600225
0.00511539
0.00440972
0.00384348
0.00338597
0.00301371
0.00270673
0.0024515
0.00223668
0.00205403
0.00189706
0.0017611
0.00164249
0.00153806
0.00144541
0.00136289
0.00128904
0.00122241
0.00116213
0.0011074
0.00105752
0.00101174
0.000969706
0.000931019
0.000895236
0.000862044
0.000831232
0.000802565
0.000775787
0.000750728
0.000727271
0.000705261
0.000684526
0.000664989
0.000646582
0.000629191
0.000612694
0.000597066
0.000582249
0.000568171
0.000554781
0.000542057
0.000529963
0.000518467
0.000507635
0.000497775
0.0125598
0.0103821
0.00860087
0.00717593
0.0060495
0.00515944
0.00445072
0.0038818
0.00342159
0.00304627
0.00273632
0.0024782
0.0022609
0.00207592
0.00191697
0.00177929
0.00165917
0.00155338
0.00145962
0.00137613
0.00130136
0.00123397
0.00117303
0.00111769
0.00106722
0.00102097
0.000978501
0.000939416
0.000903229
0.000869705
0.000838595
0.000809618
0.000782556
0.000757254
0.000733568
0.000711304
0.000690351
0.000670622
0.000652032
0.000634424
0.00061776
0.00060198
0.000587002
0.00057277
0.000559251
0.000546415
0.000534202
0.000522621
0.000511735
0.000501793
0.012571
0.0104005
0.0086213
0.00719803
0.00607214
0.00518139
0.00447235
0.00390288
0.00344176
0.00306515
0.00275377
0.00249406
0.00227524
0.00208885
0.00192868
0.0017899
0.00166872
0.00156212
0.00146764
0.0013835
0.00130816
0.00124029
0.00117894
0.0011232
0.00107237
0.00102585
0.000983108
0.00094376
0.00090739
0.000873676
0.000842374
0.000813207
0.000785994
0.000760547
0.000736704
0.000714302
0.000693228
0.000673371
0.00065465
0.000636937
0.000620179
0.000604297
0.000589224
0.000574917
0.000561324
0.000548419
0.000536167
0.000524574
0.000513681
0.000503655
0.0125691
0.0103976
0.00861844
0.00719611
0.00607118
0.00518118
0.00447391
0.00390593
0.00344596
0.00306974
0.00275848
0.00249851
0.0022792
0.00209233
0.00193173
0.00179247
0.00167084
0.00156385
0.0014691
0.0013847
0.0013091
0.00124104
0.00117954
0.00112366
0.00107272
0.00102609
0.000983275
0.000943855
0.00090743
0.000873688
0.000842355
0.000813172
0.000785948
0.00076049
0.000736628
0.000714219
0.000693138
0.000673267
0.000654528
0.000636809
0.000620045
0.000604148
0.000589069
0.000574755
0.000561161
0.000548248
0.000536001
0.000524412
0.000513536
0.000503517
0.0125622
0.0103863
0.00860624
0.00718513
0.00606185
0.0051735
0.00446773
0.00390101
0.00344209
0.00306654
0.00275581
0.00249619
0.00227705
0.00209033
0.00192982
0.00179062
0.00166904
0.00156207
0.00146738
0.00138301
0.00130744
0.00123942
0.00117795
0.00112212
0.00107121
0.00102461
0.000981839
0.00094245
0.000906064
0.000872351
0.000841052
0.000811896
0.000784705
0.000759276
0.00073543
0.000713044
0.000691981
0.000672134
0.000653412
0.000635706
0.000618957
0.000603077
0.00058801
0.000573714
0.000560136
0.000547237
0.000535009
0.000523443
0.000512591
0.000502584
0.0125509
0.010367
0.00858501
0.00716531
0.00604434
0.0051585
0.00445499
0.00389027
0.00343305
0.00305868
0.00274897
0.00249005
0.00227145
0.00208517
0.00192499
0.00178609
0.00166471
0.00155795
0.00146343
0.00137924
0.00130382
0.00123593
0.0011746
0.00111888
0.00106808
0.0010216
0.000978917
0.000939625
0.000903321
0.000869696
0.000838465
0.000809388
0.000782263
0.000756899
0.000733119
0.000710792
0.000689779
0.000669981
0.000651299
0.000633641
0.000616935
0.000601089
0.000586061
0.000571802
0.000558255
0.000545394
0.000533198
0.000521675
0.000510857
0.000500874
0.0125355
0.0103401
0.00855503
0.00713688
0.0060188
0.0051363
0.0044358
0.00387379
0.00341884
0.00304622
0.002738
0.00248015
0.00226245
0.00207687
0.00191728
0.00177886
0.0016579
0.00155151
0.0014573
0.00137342
0.00129825
0.0012306
0.00116947
0.00111396
0.00106335
0.00101704
0.000974527
0.000935381
0.000899222
0.000865719
0.000834615
0.000805663
0.000778645
0.000753384
0.000729699
0.000707462
0.000686538
0.000666823
0.00064821
0.00063062
0.000613978
0.000598197
0.000583227
0.000569022
0.000555532
0.000542723
0.000530582
0.000519116
0.000508354
0.000498409
0.0125164
0.0103058
0.00851653
0.00710003
0.00598539
0.00510703
0.00441025
0.00385167
0.00339953
0.00302923
0.00272289
0.00246654
0.00225008
0.00206547
0.00190674
0.00176898
0.00164863
0.00154275
0.001449
0.00136553
0.00129074
0.00122343
0.00116261
0.00110739
0.00105703
0.00101097
0.000968669
0.000929739
0.000893763
0.000860444
0.000829516
0.000800727
0.000773862
0.000748744
0.000725188
0.000703073
0.000682266
0.00066266
0.000644149
0.000626657
0.000610106
0.000594405
0.000579519
0.000565391
0.000551973
0.000539238
0.000527168
0.00051576
0.000505054
0.000495142
0.0124939
0.0102645
0.00846973
0.00705493
0.00594423
0.0050708
0.00437846
0.00382398
0.00337521
0.00300777
0.00270372
0.00244927
0.00223435
0.002051
0.00189334
0.00175648
0.00163693
0.00153171
0.00143857
0.00135563
0.00128133
0.00121444
0.00115402
0.00109917
0.00104914
0.00100338
0.000961365
0.000922693
0.000886966
0.000853881
0.000823164
0.000794577
0.000767898
0.000742954
0.000719573
0.000697619
0.000676963
0.000657499
0.000639113
0.000621742
0.000605304
0.000589716
0.000574937
0.000560901
0.00054758
0.000534936
0.000522945
0.000511616
0.000500971
0.000491098
0.012468
0.0102164
0.00841481
0.00700175
0.00589545
0.00502771
0.0043405
0.0037908
0.00334597
0.0029819
0.00268056
0.00242839
0.0022153
0.00203351
0.00187713
0.00174139
0.0016228
0.0015184
0.00142598
0.00134372
0.00127
0.00120364
0.0011437
0.00108927
0.00103965
0.000994261
0.0009526
0.000914246
0.000878825
0.00084602
0.000815568
0.000787221
0.000760776
0.000736045
0.000712871
0.000691111
0.000670633
0.000651336
0.000633117
0.000615898
0.0005996
0.000584139
0.000569484
0.000555571
0.000542366
0.000529822
0.000517935
0.000506697
0.000496123
0.000486297
0.0124385
0.0101615
0.00835191
0.00694046
0.00583918
0.00497775
0.00429647
0.00375222
0.00331187
0.00295168
0.00265346
0.00240396
0.00219298
0.00201304
0.00185816
0.00172373
0.00160627
0.00150286
0.00141127
0.00132976
0.00125672
0.00119101
0.00113163
0.00107772
0.00102859
0.00098364
0.000942388
0.000904421
0.000869353
0.000836884
0.000806737
0.000778683
0.000752504
0.000728031
0.000705104
0.000683572
0.000663302
0.000644202
0.000626171
0.000609128
0.00059299
0.000577692
0.000563186
0.000549409
0.000536333
0.000523918
0.00051215
0.000501009
0.000490526
0.000480753
0.0124049
0.0101001
0.00828117
0.00687119
0.00577552
0.00492103
0.00424647
0.00370823
0.00327301
0.00291712
0.0026225
0.00237596
0.00216746
0.00198958
0.00183647
0.00170351
0.00158729
0.00148498
0.0013944
0.00131376
0.00124153
0.00117655
0.00111785
0.00106454
0.00101597
0.000971524
0.000930759
0.000893226
0.000858577
0.000826485
0.000796699
0.000768971
0.000743108
0.000718923
0.000696268
0.000674997
0.000654977
0.00063611
0.000618298
0.000601459
0.000585504
0.000570385
0.000556047
0.000542434
0.00052951
0.000517235
0.000505594
0.000494576
0.000484193
0.000474491
0.0123673
0.0100316
0.00820267
0.00679408
0.0057046
0.00485767
0.0041906
0.00365895
0.00322945
0.00287832
0.00258775
0.00234449
0.00213877
0.00196319
0.00181198
0.00168063
0.00156586
0.00146482
0.00137539
0.00129576
0.00122445
0.00116031
0.00110236
0.00104974
0.0010018
0.000957947
0.000917716
0.000880696
0.000846504
0.000814853
0.000785462
0.000758115
0.000732597
0.000708745
0.000686399
0.000665422
0.000645681
0.000627073
0.000609505