/*--------------------------------*- C++ -*----------------------------------*\
  =========                 |
  \\      /  F ield         | OpenFOAM: The Open Source CFD Toolbox
   \\    /   O peration     | Website:  https://openfoam.org
    \\  /    A nd           | Version:  8
     \\/     M anipulation  |
\*---------------------------------------------------------------------------*/
FoamFile
{
    version     2.0;
    format      ascii;
    class       surfaceScalarField;
    location    "0.023088";
    object      phi;
}
// * * * * * * * * * * * * * * * * * * * * * * * * * * * * * * * * * * * * * //

dimensions      [1 0 -1 0 0 0 0];

internalField   nonuniform List<scalar> 
210510
(
0.00148644
6.46008e-05
0.00137751
0.000108925
0.00123209
0.000145416
0.00110833
0.000123762
0.00097822
0.000130113
0.000862716
0.000115505
0.00076126
0.000101457
0.000684458
7.6802e-05
0.000635664
4.87957e-05
0.000624175
1.14899e-05
0.000637553
-1.33769e-05
0.000652211
-1.46563e-05
0.000662105
-9.88735e-06
0.000668611
-6.51233e-06
0.00067229
-3.67975e-06
0.000672736
-4.47117e-07
0.000669877
2.85919e-06
0.000664456
5.42079e-06
0.000657647
6.80805e-06
0.000650469
7.17753e-06
0.00064341
7.05906e-06
0.00063659
6.82002e-06
0.000630006
6.58369e-06
0.000623594
6.41155e-06
0.000617252
6.34176e-06
0.000610894
6.35735e-06
0.000604475
6.41919e-06
0.000597917
6.55676e-06
0.000590935
6.98217e-06
0.000583168
7.76709e-06
0.000574532
8.63513e-06
0.000565033
9.49894e-06
0.000554548
1.04843e-05
0.000542773
1.17741e-05
0.000529161
1.36117e-05
0.000513094
1.60669e-05
0.000493188
1.99059e-05
0.000469182
2.40063e-05
0.000440314
2.88676e-05
0.000404092
3.62228e-05
0.000358069
4.60227e-05
0.000299511
5.8558e-05
0.000225512
7.39982e-05
0.000134214
9.12987e-05
2.70239e-05
0.00010719
-8.4162e-05
0.000111186
-0.000180581
9.64189e-05
-0.000261993
8.14124e-05
-0.000346335
8.43419e-05
8.36329e-05
-0.000429968
0.00155118
9.75542e-05
0.00151184
0.000148269
0.00145887
0.000198385
0.00141459
0.000168039
0.00136933
0.000175369
0.00132942
0.000155418
0.00129045
0.000140433
0.0012543
0.000112945
0.00122208
8.10254e-05
0.00119195
4.16116e-05
0.0011645
1.4075e-05
0.00114305
6.80146e-06
0.00112603
7.13135e-06
0.00111107
8.44319e-06
0.0010968
1.05897e-05
0.00108266
1.36985e-05
0.00106841
1.71061e-05
0.00105397
1.98593e-05
0.0010395
2.12807e-05
0.0010253
2.13783e-05
0.00101163
2.07206e-05
0.000998677
1.97771e-05
0.000986494
1.87669e-05
0.000975078
1.78276e-05
0.000964364
1.70553e-05
0.000954262
1.64587e-05
0.000944685
1.59961e-05
0.000935561
1.56808e-05
0.000926824
1.57183e-05
0.000918329
1.62625e-05
0.000909828
1.71354e-05
0.000901104
1.82227e-05
0.000891961
1.96268e-05
0.000882151
2.15843e-05
0.000871353
2.44098e-05
0.00085908
2.83391e-05
0.000844517
3.44691e-05
0.000827136
4.13871e-05
0.0008054
5.06037e-05
0.000778015
6.36078e-05
0.000742701
8.13362e-05
0.000696468
0.000104791
0.000635378
0.000135089
0.000554103
0.000172573
0.000448644
0.00021265
0.000316285
0.000243544
0.000154119
0.000258586
-2.60604e-05
0.000261591
-0.000216891
0.000275173
0.000185123
-0.000318381
0.00157106
0.000121507
0.0015483
0.00017103
0.00152026
0.000226425
0.00149535
0.000192947
0.00147087
0.000199854
0.00144956
0.000176725
0.00142901
0.000160989
0.00140928
0.000132669
0.00138952
0.000100787
0.00136682
6.43115e-05
0.00134185
3.90444e-05
0.00131893
2.9729e-05
0.0012986
2.74567e-05
0.00127992
2.71241e-05
0.00126231
2.81995e-05
0.00124551
3.04932e-05
0.00122935
3.32738e-05
0.0012136
3.56015e-05
0.00119819
3.66922e-05
0.00118316
3.64082e-05
0.00116864
3.524e-05
0.00115478
3.36354e-05
0.00114169
3.18625e-05
0.00112939
3.01246e-05
0.00111788
2.85683e-05
0.0011071
2.72383e-05
0.00109699
2.61049e-05
0.00108751
2.51651e-05
0.00107867
2.45577e-05
0.00107044
2.4485e-05
0.00106265
2.4931e-05
0.00105505
2.58246e-05
0.00104743
2.72455e-05
0.00103958
2.94336e-05
0.00103123
3.27522e-05
0.00102205
3.75226e-05
0.0010118
4.47216e-05
0.000999074
5.41116e-05
0.000983901
6.57769e-05
0.00096509
8.24185e-05
0.00094124
0.000105186
0.000910491
0.000135541
0.000870255
0.000175325
0.00081656
0.000226267
0.000742857
0.000286352
0.000640225
0.000346176
0.000501062
0.000397749
0.000325493
0.00043716
0.000123463
0.000477203
0.000418758
-0.000110172
0.00158192
0.000140319
0.00156594
0.000187006
0.00154858
0.000243788
0.00153192
0.000209603
0.00151575
0.000216026
0.00150156
0.000190913
0.00148795
0.000174595
0.00147472
0.000145906
0.00146091
0.000114597
0.00144513
8.00862e-05
0.00142739
5.67908e-05
0.00140949
4.76252e-05
0.00139207
4.4878e-05
0.00137523
4.39638e-05
0.00135902
4.44145e-05
0.00134349
4.60229e-05
0.0013286
4.8159e-05
0.00131421
4.99934e-05
0.00130017
5.07303e-05
0.00128644
5.01357e-05
0.0012731
4.85802e-05
0.00126028
4.64534e-05
0.00124807
4.40747e-05
0.00123651
4.16868e-05
0.00122562
3.94568e-05
0.0012154
3.74553e-05
0.00120584
3.5672e-05
0.00119689
3.41097e-05
0.00118859
3.28553e-05
0.00118097
3.21088e-05
0.00117392
3.19789e-05
0.00116727
3.24795e-05
0.00116081
3.37021e-05
0.00115436
3.58828e-05
0.00114771
3.94067e-05
0.0011406
4.46282e-05
0.00113285
5.2472e-05
0.00112356
6.34009e-05
0.00111249
7.68463e-05
0.00109889
9.60169e-05
0.00108179
0.000122292
0.0010599
0.000157426
0.00103152
0.000203704
0.000993991
0.000263797
0.000941924
0.000338419
0.000866772
0.000421329
0.000759941
0.00050458
0.000612592
0.00058451
0.000423015
0.000666779
0.000656293
0.00018548
0.00158873
0.00015613
0.00157642
0.000199311
0.00156481
0.000255408
0.00155294
0.000221466
0.00154165
0.000227319
0.00153165
0.000200916
0.00152202
0.000184223
0.00151252
0.000155406
0.00150229
0.000124828
0.0014908
9.15754e-05
0.00147824
6.93483e-05
0.0014654
6.04647e-05
0.00145208
5.82002e-05
0.0014385
5.75375e-05
0.00142507
5.78536e-05
0.00141201
5.9074e-05
0.00139944
6.07343e-05
0.0013873
6.21278e-05
0.00137544
6.25985e-05
0.00136376
6.18105e-05
0.00135232
6.00233e-05
0.00134121
5.75629e-05
0.0013305
5.47844e-05
0.00132024
5.19468e-05
0.00131048
4.92173e-05
0.00130125
4.66849e-05
0.00129256
4.4362e-05
0.0012844
4.22691e-05
0.00127677
4.04812e-05
0.0012697
3.91829e-05
0.00126314
3.85428e-05
0.00125697
3.86499e-05
0.00125104
3.96286e-05
0.0012452
4.17187e-05
0.0012393
4.53081e-05
0.00123316
5.07683e-05
0.00122661
5.90227e-05
0.00121924
7.07747e-05
0.00121061
8.54777e-05
0.00120036
0.000106262
0.00118782
0.000134831
0.00117211
0.000173133
0.00115203
0.000223784
0.00112575
0.000290078
0.00108958
0.000374587
0.00103678
0.000474137
0.00095913
0.000582226
0.000846016
0.000697623
0.000686173
0.000826623
0.000882555
0.000459911
0.00159322
0.000170015
0.00158327
0.000209255
0.00157517
0.00026351
0.0015664
0.000230242
0.00155834
0.000235376
0.00155116
0.000208092
0.00154425
0.000191133
0.00153735
0.000162315
0.00152964
0.000132538
0.00152095
0.000100264
0.00151178
7.85221e-05
0.00150273
6.9512e-05
0.00149327
6.76549e-05
0.00148328
6.75292e-05
0.00147307
6.80622e-05
0.00146295
6.92001e-05
0.00145305
7.06303e-05
0.0014434
7.17748e-05
0.00143389
7.21127e-05
0.00142442
7.12766e-05
0.001415
6.94441e-05
0.00140568
6.6883e-05
0.00139652
6.39464e-05
0.00138757
6.08933e-05
0.00137891
5.78797e-05
0.00137059
5.50085e-05
0.00136263
5.2314e-05
0.00135507
4.98351e-05
0.00134789
4.7658e-05
0.00134112
4.59582e-05
0.00133473
4.49247e-05
0.00132869
4.4697e-05
0.00132288
4.54351e-05
0.00131721
4.73865e-05
0.00131158
5.09373e-05
0.00130588
5.64662e-05
0.00130005
6.48517e-05
0.00129386
7.69671e-05
0.00128681
9.25311e-05
0.00127908
0.000113991
0.00127013
0.000143781
0.00125946
0.000183804
0.00124632
0.000236919
0.00122963
0.00030677
0.00120699
0.000397225
0.00117308
0.000508048
0.00112073
0.00063458
0.00104164
0.000776714
0.000919446
0.000948815
0.00106817
0.000733834
0.00159638
0.000182533
0.00158802
0.000217614
0.00158221
0.000269317
0.00157558
0.000236874
0.0015698
0.000241158
0.00156463
0.000213262
0.00155971
0.000196051
0.00155473
0.000167297
0.00154894
0.000138329
0.00154229
0.000106914
0.00153544
8.5366e-05
0.00152909
7.587e-05
0.00152273
7.40147e-05
0.00151597
7.42903e-05
0.00150888
7.51525e-05
0.00150165
7.64266e-05
0.0014944
7.7883e-05
0.00148715
7.90226e-05
0.00147984
7.94244e-05
0.0014724
7.87173e-05
0.00146481
7.70308e-05
0.0014571
7.45901e-05
0.00144933
7.17235e-05
0.00144155
6.86714e-05
0.00143386
6.55692e-05
0.00142633
6.25314e-05
0.00141903
5.96143e-05
0.001412
5.68732e-05
0.00140524
5.44133e-05
0.00139879
5.24085e-05
0.00139266
5.10551e-05
0.00138683
5.05269e-05
0.00138125
5.10134e-05
0.00137587
5.27639e-05
0.00137064
5.61694e-05
0.00136549
6.1622e-05
0.00136039
6.9945e-05
0.00135542
8.19444e-05
0.00134961
9.83353e-05
0.00134394
0.000119657
0.00133788
0.000149843
0.00133118
0.000190508
0.00132353
0.000244573
0.00131441
0.000315887
0.00130252
0.000409112
0.00128409
0.000526482
0.00125314
0.00066553
0.00120406
0.00082579
0.00112127
0.00103161
0.00120632
0.000983116
0.00159871
0.000194004
0.00159146
0.00022486
0.00158721
0.000273569
0.00158213
0.000241952
0.00157799
0.000245297
0.0015743
0.00021695
0.00157089
0.000199458
0.0015674
0.000170793
0.00156313
0.000142602
0.00155806
0.000111976
0.00155294
9.04934e-05
0.00154848
8.03228e-05
0.00154438
7.81201e-05
0.00154014
7.85313e-05
0.00153563
7.96645e-05
0.0015309
8.11482e-05
0.00152602
8.27709e-05
0.00152096
8.40793e-05
0.00151565
8.47282e-05
0.00151003
8.43397e-05
0.00150408
8.29845e-05
0.00149782
8.08453e-05
0.00149133
7.82193e-05
0.00148468
7.53228e-05
0.00147797
7.22709e-05
0.00147132
6.91892e-05
0.00146477
6.61568e-05
0.0014584
6.32489e-05
0.00145223
6.05853e-05
0.00144629
5.83396e-05
0.00144063
5.67195e-05
0.00143523
5.59252e-05
0.00143008
5.61669e-05
0.00142515
5.769e-05
0.00142043
6.08886e-05
0.00141589
6.61686e-05
0.00141152
7.43123e-05
0.00140737
8.60962e-05
0.00140296
0.000102741
0.00139888
0.000123737
0.00139509
0.000153632
0.00139143
0.000194174
0.00138793
0.000248073
0.00138452
0.00031929
0.00138078
0.000412859
0.00137445
0.000532808
0.00136079
0.000679196
0.0013366
0.000849975
0.00128935
0.00107885
0.00129634
0.00119933
0.00160046
0.000204638
0.00159402
0.000231301
0.00159085
0.000276739
0.00158693
0.000245877
0.00158399
0.000248233
0.00158144
0.0002195
0.00157921
0.00020169
0.00157689
0.000173117
0.00157385
0.000145643
0.00157007
0.000115753
0.00156626
9.43044e-05
0.00156318
8.34033e-05
0.00156066
8.06408e-05
0.00155823
8.09517e-05
0.00155566
8.22355e-05
0.0015529
8.39082e-05
0.00154995
8.57269e-05
0.00154676
8.7266e-05
0.00154325
8.8243e-05
0.00153929
8.82941e-05
0.00153486
8.74167e-05
0.00152999
8.5717e-05
0.00152476
8.34476e-05
0.00151927
8.08079e-05
0.00151364
7.79052e-05
0.00150796
7.48693e-05
0.00150231
7.18037e-05
0.00149675
6.88138e-05
0.00149131
6.60261e-05
0.00148604
6.36097e-05
0.00148098
6.1782e-05
0.00147614
6.07648e-05
0.00147152
6.07871e-05
0.00146711
6.20918e-05
0.00146294
6.50658e-05
0.00145899
7.01179e-05
0.0014553
7.80015e-05
0.00145198
8.94177e-05
0.00144884
0.000105875
0.00144586
0.000126723
0.00144384
0.000155652
0.00144257
0.00019544
0.00144225
0.00024839
0.0014432
0.00031834
0.0014456
0.000410465
0.00144851
0.000529898
0.00144836
0.000679345
0.00144372
0.000854608
0.00142818
0.0010944
0.00134672
0.00137781
0.00160182
0.000214583
0.00159597
0.000237149
0.00159356
0.000279145
0.00159051
0.000248925
0.00158848
0.000250269
0.00158682
0.000221157
0.00158552
0.000202993
0.00158414
0.000174501
0.00158211
0.000147673
0.00157938
0.000118483
0.0015766
9.70834e-05
0.00157453
8.5468e-05
0.00157314
8.2032e-05
0.00157202
8.20738e-05
0.00157087
8.33843e-05
0.00156959
8.51899e-05
0.00156813
8.71868e-05
0.00156644
8.89555e-05
0.00156443
9.02506e-05
0.00156197
9.07543e-05
0.00155897
9.04163e-05
0.00155545
8.92412e-05
0.00155149
8.74016e-05
0.00154722
8.50846e-05
0.00154271
8.24092e-05
0.00153808
7.95041e-05
0.00153339
7.649e-05
0.0015287
7.35025e-05
0.00152405
7.06742e-05
0.0015195
6.81663e-05
0.00151508
6.61966e-05
0.00151084
6.50039e-05
0.00150679
6.48365e-05
0.00150295
6.59382e-05
0.00149933
6.8684e-05
0.00149597
7.34742e-05
0.00149294
8.10378e-05
0.00149039
9.19629e-05
0.00148839
0.000107876
0.00148633
0.000128787
0.00148569
0.00015629
0.00148638
0.00019475
0.00148857
0.000246201
0.00149284
0.000314066
0.00149981
0.000403493
0.00150959
0.000520123
0.00151974
0.000669189
0.00152978
0.000844574
0.00153852
0.00108566
0.00135943
0.00152581
0.00160287
0.00022395
0.00159746
0.000242555
0.00159559
0.000281017
0.00159322
0.000251295
0.00159188
0.000251605
0.00159093
0.000222106
0.00159038
0.00020355
0.00158975
0.000175123
0.00158856
0.000148871
0.00158669
0.000120349
0.00158474
9.90297e-05
0.00158345
8.67563e-05
0.00158289
8.25954e-05
0.0015827
8.22618e-05
0.0015826
8.34905e-05
0.00158242
8.53628e-05
0.00158211
8.74991e-05
0.0015816
8.9472e-05
0.0015808
9.10413e-05
0.00157962
9.19433e-05
0.00157792
9.21114e-05
0.00157569
9.14709e-05
0.00157299
9.01037e-05
0.00156991
8.81678e-05
0.00156652
8.57918e-05
0.00156292
8.31038e-05
0.00155918
8.02305e-05
0.00155536
7.73259e-05
0.0015515
7.45305e-05
0.00154767
7.19997e-05
0.00154392
6.99469e-05
0.0015403
6.86218e-05
0.00153685
6.82904e-05
0.00153358
6.92018e-05
0.00153055
7.17168e-05
0.0015278
7.62215e-05
0.00152542
8.34224e-05
0.00152356
9.38246e-05
0.0015224
0.00010903
0.00152145
0.000129745
0.00152187
0.000155865
0.00152408
0.000192542
0.00152827
0.000242012
0.00153505
0.000307285
0.00154536
0.000393179
0.00156008
0.000505403
0.00157787
0.000651401
0.00159841
0.000824033
0.001624
0.00106007
0.00134112
0.00164231
0.00160369
0.000232823
0.00159861
0.000247627
0.0015971
0.000282528
0.00159526
0.000253141
0.00159449
0.000252375
0.0015941
0.000222492
0.00159415
0.000203504
0.00159415
0.000175124
0.00159363
0.000149385
0.00159249
0.000121495
0.00159123
0.000100287
0.00159056
8.74312e-05
0.00159061
8.25396e-05
0.00159111
8.17612e-05
0.00159178
8.28237e-05
0.00159244
8.46975e-05
0.00159302
8.69263e-05
0.00159342
8.90676e-05
0.0015936
9.08605e-05
0.00159346
9.2088e-05
0.00159289
9.26832e-05
0.00159183
9.25297e-05
0.00159029
9.16413e-05
0.00158833
9.01308e-05
0.001586
8.81162e-05
0.00158338
8.57214e-05
0.00158055
8.30686e-05
0.00157755
8.0317e-05
0.00157447
7.76129e-05
0.00157136
7.51113e-05
0.00156828
7.30223e-05
0.00156531
7.16001e-05
0.00156247
7.11261e-05
0.00155981
7.18589e-05
0.00155738
7.41459e-05
0.00155525
7.83552e-05
0.00155351
8.51657e-05
0.00155225
9.50802e-05
0.00155188
0.000109404
0.00155213
0.000129488
0.00155321
0.00015479
0.00155654
0.000189209
0.0015623
0.000236258
0.001571
0.000298583
0.00158372
0.000380459
0.00160189
0.000487231
0.00162518
0.000628112
0.00165327
0.000795942
0.00169021
0.00102312
0.00130114
0.00173019
0.00160432
0.00024127
0.00159951
0.000252442
0.00159823
0.000283804
0.00159678
0.000254591
0.00159647
0.000252682
0.00159656
0.000222406
0.0015971
0.000202965
0.0015976
0.000174616
0.00159766
0.000149328
0.00159712
0.000122034
0.00159644
0.000100964
0.00159627
8.76059e-05
0.0015968
8.20082e-05
0.00159782
8.0739e-05
0.00159907
8.15758e-05
0.00160038
8.33923e-05
0.00160164
8.56651e-05
0.00160277
8.79343e-05
0.00160373
8.99036e-05
0.00160442
9.13914e-05
0.00160477
9.23371e-05
0.00160469
9.26072e-05
0.00160417
9.21655e-05
0.00160321
9.10884e-05
0.00160186
8.94674e-05
0.00160016
8.74198e-05
0.00159818
8.50508e-05
0.00159599
8.25086e-05
0.00159366
7.99404e-05
0.00159127
7.75062e-05
0.00158887
7.5419e-05
0.00158654
7.39341e-05
0.00158432
7.33416e-05
0.00158227
7.3911e-05
0.00158044
7.59787e-05
0.0015789
7.98941e-05
0.00157777
8.62965e-05
0.00157714
9.57059e-05
0.00157743
0.000109115
0.00157867
0.000128246
0.00158036
0.000153103
0.00158454
0.00018503
0.00159141
0.000229383
0.00160161
0.000288387
0.00161606
0.000366005
0.00163654
0.000466753
0.00166362
0.00060103
0.00169707
0.000762493
0.00174156
0.00097863
0.00124748
0.00179522
0.00160481
0.000249343
0.00160019
0.000257057
0.00159906
0.000284941
0.0015979
0.000255749
0.00159798
0.000252605
0.00159846
0.00022192
0.0015994
0.000202022
0.00160033
0.000173689
0.00160087
0.000148794
0.00160084
0.000122055
0.00160066
0.000101146
0.00160091
8.73619e-05
0.00160181
8.11011e-05
0.00160324
7.93138e-05
0.00160493
7.98816e-05
0.00160674
8.15909e-05
0.00160854
8.38624e-05
0.00161025
8.62184e-05
0.00161183
8.833e-05
0.00161319
9.00294e-05
0.00161427
9.12589e-05
0.00161498
9.18908e-05
0.0016153
9.18508e-05
0.00161521
9.11815e-05
0.00161472
8.99535e-05
0.00161387
8.82729e-05
0.00161269
8.62235e-05
0.00161127
8.39291e-05
0.00160968
8.15345e-05
0.00160798
7.92041e-05
0.00160624
7.71553e-05
0.00160454
7.56429e-05
0.00160292
7.49592e-05
0.00160145
7.53808e-05
0.00160019
7.72378e-05
0.00159922
8.08642e-05
0.00159866
8.68505e-05
0.00159863
9.57403e-05
0.00159949
0.000108256
0.00160144
0.000126294
0.00160417
0.000150371
0.00160868
0.000180524
0.00161634
0.000221719
0.00162758
0.000277147
0.00164329
0.000350296
0.00166524
0.000444807
0.00169474
0.000571528
0.00173177
0.000725457
0.00178104
0.00092936
0.00118547
0.00184305
0.00160518
0.000257073
0.00160073
0.00026151
0.00159965
0.000286019
0.00159871
0.00025669
0.00159911
0.000252209
0.00159993
0.000221097
0.00160121
0.000200743
0.00160248
0.000172414
0.00160342
0.000147854
0.00160385
0.00012163
0.0016041
0.000100898
0.0016047
8.67582e-05
0.00160591
7.98871e-05
0.00160765
7.75739e-05
0.0016097
7.78395e-05
0.00161189
7.94007e-05
0.00161412
8.1632e-05
0.0016163
8.4039e-05
0.00161836
8.62639e-05
0.00162025
8.81388e-05
0.00162191
8.9605e-05
0.00162326
9.05423e-05
0.00162425
9.08552e-05
0.00162488
9.05559e-05
0.00162513
8.96966e-05
0.00162504
8.83713e-05
0.00162461
8.66471e-05
0.00162392
8.46223e-05
0.00162302
8.24341e-05
0.00162198
8.0244e-05
0.00162087
7.82687e-05
0.00161975
7.67606e-05
0.0016187
7.601e-05
0.00161778
7.62983e-05
0.00161707
7.79512e-05
0.00161664
8.12931e-05
0.00161662
8.68632e-05
0.00161714
9.52228e-05
0.00161847
0.00010693
0.00162102
0.000123741
0.00162469
0.000146698
0.0016295
0.000175715
0.00163764
0.000213584
0.00164955
0.000265234
0.00166606
0.000333786
0.00168889
0.000421974
0.00171978
0.000540645
0.001759
0.000686231
0.00181099
0.000877372
0.00111875
0.00187771
0.00160545
0.000264499
0.00160114
0.000265822
0.00160008
0.000287078
0.0015993
0.000257474
0.00159995
0.000251555
0.00160105
0.000219996
0.00160261
0.000199185
0.00160418
0.000170847
0.00160546
0.000146568
0.00160628
0.000120816
0.0016069
0.000100275
0.00160782
8.58407e-05
0.00160929
7.84153e-05
0.00161128
7.55836e-05
0.0016136
7.55222e-05
0.00161609
7.69039e-05
0.00161866
7.90634e-05
0.00162121
8.1491e-05
0.00162367
8.38035e-05
0.00162598
8.58241e-05
0.0016281
8.74902e-05
0.00162995
8.8688e-05
0.0016315
8.93106e-05
0.00163271
8.93438e-05
0.00163359
8.88199e-05
0.00163414
8.78211e-05
0.00163438
8.6408e-05
0.00163434
8.46581e-05
0.00163408
8.26946e-05
0.00163365
8.06724e-05
0.00163312
7.88003e-05
0.00163256
7.73232e-05
0.00163204
7.65258e-05
0.00163165
7.66929e-05
0.00163145
7.81489e-05
0.00163153
8.12138e-05
0.00163202
8.63749e-05
0.00163304
9.41993e-05
0.00163478
0.000105184
0.00163785
0.000120679
0.00164228
0.000142268
0.00164774
0.00017025
0.00165584
0.000205481
0.00166807
0.000253009
0.00168501
0.000316846
0.00170823
0.000398755
0.00173972
0.000509157
0.00178008
0.000645872
0.00183329
0.00082416
0.00104989
0.00190215
0.00160562
0.000271659
0.00160143
0.000270017
0.00160037
0.000288133
0.0015997
0.000258141
0.00160056
0.000250695
0.00160189
0.000218665
0.00160368
0.000197395
0.0016055
0.000169031
0.00160708
0.000144982
0.00160824
0.000119661
0.00160919
9.93201e-05
0.00161039
8.46463e-05
0.00161208
7.67213e-05
0.00161428
7.33898e-05
0.00161681
7.2986e-05
0.00161955
7.4165e-05
0.00162239
7.6228e-05
0.00162523
7.86502e-05
0.001628
8.10275e-05
0.00163066
8.31685e-05
0.00163315
8.50043e-05
0.00163541
8.64249e-05
0.0016374
8.73195e-05
0.00163909
8.76515e-05
0.00164048
8.74334e-05
0.00164157
8.67343e-05
0.00164236
8.56101e-05
0.0016429
8.41239e-05
0.00164321
8.2386e-05
0.00164334
8.05435e-05
0.00164334
7.87928e-05
0.0016433
7.73653e-05
0.00164329
7.65398e-05
0.00164338
7.66008e-05
0.00164366
7.7868e-05
0.00164421
8.06669e-05
0.00164515
8.54312e-05
0.00164663
9.27186e-05
0.00164881
0.000103003
0.00165222
0.000117271
0.00165709
0.000137398
0.00166333
0.000164007
0.0016714
0.000197414
0.00168365
0.000240756
0.00170068
0.000299818
0.00172386
0.000375573
0.00175534
0.000477682
0.00179598
0.000605234
0.00184932
0.000770818
0.000980652
0.00191855
0.00160571
0.00027858
0.00160162
0.00027411
0.00160055
0.000289201
0.00159997
0.000258723
0.00160099
0.000249678
0.0016025
0.000217149
0.00160449
0.00019541
0.00160652
0.000166999
0.00160837
0.000143135
0.00160982
0.000118207
0.00161107
9.80692e-05
0.00161252
8.32056e-05
0.0016144
7.48336e-05
0.00161677
7.10266e-05
0.00161948
7.02743e-05
0.00162241
7.12346e-05
0.00162545
7.31815e-05
0.00162853
7.55766e-05
0.00163156
7.7998e-05
0.00163449
8.02375e-05
0.00163728
8.22172e-05
0.00163987
8.38297e-05
0.00164223
8.49633e-05
0.00164431
8.55649e-05
0.00164612
8.56278e-05
0.00164765
8.52052e-05
0.00164891
8.43481e-05
0.00164992
8.31101e-05
0.00165072
8.15884e-05
0.00165134
7.99225e-05
0.00165184
7.82967e-05
0.00165228
7.69286e-05
0.00165273
7.60875e-05
0.00165327
7.60619e-05
0.00165398
7.71556e-05
0.00165495
7.96946e-05
0.00165631
8.40763e-05
0.00165819
9.08314e-05
0.00166076
0.000100433
0.00166442
0.000113615
0.00166965
0.000132169
0.00167652
0.000157131
0.001685
0.000188939
0.00169678
0.000228975
0.00171358
0.000283018
0.00173638
0.000352768
0.00176736
0.000446708
0.00180757
0.000565024
0.00186023
0.000718159
0.000912362
0.00192852
0.00160574
0.000285284
0.00160173
0.000278115
0.00160064
0.00029029
0.00160013
0.000259236
0.00160127
0.000248539
0.00160293
0.00021549
0.00160508
0.000193258
0.0016073
0.000164777
0.00160938
0.000141059
0.0016111
0.000116485
0.00161262
9.65527e-05
0.00161428
8.15431e-05
0.00161634
7.27749e-05
0.00161884
6.8521e-05
0.00162169
6.74215e-05
0.00162478
6.81529e-05
0.00162799
6.99686e-05
0.00163125
7.23183e-05
0.00163448
7.4765e-05
0.00163764
7.70832e-05
0.00164067
7.91848e-05
0.00164353
8.09636e-05
0.00164619
8.23089e-05
0.0016486
8.31549e-05
0.00165075
8.34773e-05
0.00165264
8.33117e-05
0.00165429
8.27026e-05
0.0016557
8.16963e-05
0.00165691
8.03782e-05
0.00165796
7.88791e-05
0.00165888
7.73742e-05
0.00165974
7.60697e-05
0.0016606
7.52223e-05
0.00166155
7.5117e-05
0.00166265
7.60508e-05
0.00166401
7.83394e-05
0.00166573
8.23517e-05
0.00166798
8.85864e-05
0.00167089
9.75192e-05
0.00167475
0.000109757
0.00168023
0.000126685
0.00168748
0.00014989
0.00169641
0.000180004
0.00170783
0.000217554
0.00172416
0.000266691
0.00174633
0.000330593
0.00177642
0.000416621
0.00181566
0.00052578
0.00186699
0.000666834
0.000845873
0.00193348
0.0016057
0.000291791
0.00160177
0.000282047
0.00160065
0.000291405
0.00160021
0.000259682
0.00160144
0.000247305
0.0016032
0.000213729
0.00160549
0.00019097
0.00160788
0.000162389
0.00161016
0.000138779
0.00161212
0.000114525
0.00161387
9.47961e-05
0.00161574
7.96796e-05
0.00161795
7.05638e-05
0.00162058
6.58944e-05
0.00162354
6.44544e-05
0.00162674
6.4951e-05
0.00163009
6.66243e-05
0.00163349
6.89131e-05
0.00163689
7.13682e-05
0.00164023
7.37476e-05
0.00164346
7.59523e-05
0.00164655
7.78763e-05
0.00164944
7.94101e-05
0.00165212
8.04786e-05
0.00165456
8.10415e-05
0.00165675
8.11164e-05
0.00165872
8.07392e-05
0.00166046
7.99503e-05
0.00166202
7.8824e-05
0.00166341
7.74817e-05
0.0016647
7.60903e-05
0.00166592
7.4847e-05
0.00166714
7.3997e-05
0.00166845
7.38165e-05
0.0016699
7.45963e-05
0.0016716
7.6642e-05
0.00167365
8.02989e-05
0.00167621
8.60309e-05
0.00167942
9.43077e-05
0.00168351
0.00010566
0.00168908
0.000121115
0.00169648
0.000142489
0.00170586
0.000170629
0.0017174
0.00020601
0.00173281
0.000251281
0.00175416
0.000309245
0.00178309
0.000387689
0.00182099
0.000487886
0.00187052
0.000617304
0.000781809
0.00193458
0.0016056
0.00029812
0.00160173
0.000285919
0.00160059
0.000292548
0.0016002
0.000260067
0.00160151
0.000245994
0.00160336
0.000211877
0.00160576
0.00018857
0.00160829
0.000159861
0.00161075
0.000136319
0.00161292
0.000112352
0.0016149
9.28197e-05
0.00161695
7.76327e-05
0.0016193
6.82157e-05
0.00162203
6.3164e-05
0.00162509
6.13943e-05
0.00162838
6.16542e-05
0.00163183
6.31769e-05
0.00163535
6.53921e-05
0.00163888
6.78405e-05
0.00164236
7.02657e-05
0.00164576
7.25573e-05
0.00164902
7.46085e-05
0.00165212
7.63109e-05
0.00165502
7.75823e-05
0.00165769
7.83687e-05
0.00166014
7.86699e-05
0.00166237
7.8512e-05
0.00166439
7.7929e-05
0.00166623
7.69854e-05
0.00166792
7.57919e-05
0.0016695
7.45065e-05
0.00167103
7.33189e-05
0.00167256
7.2464e-05
0.00167417
7.22096e-05
0.00167592
7.28394e-05
0.00167792
7.46493e-05
0.00168025
7.79633e-05
0.00168307
8.32107e-05
0.00168653
9.08472e-05
0.00169083
0.00010136
0.00169641
0.000115535
0.00170389
0.000135008
0.00171348
0.000161047
0.00172518
0.00019431
0.00174014
0.000236313
0.00176024
0.000289153
0.00178781
0.000360116
0.00182408
0.000451611
0.00187151
0.000569875
0.000720583
0.00193274
0.00160546
0.000304286
0.00160163
0.000289746
0.00160045
0.000293725
0.00160013
0.000260391
0.0016015
0.000244623
0.00160343
0.000209942
0.00160594
0.000186069
0.00160859
0.00015721
0.0016112
0.000133706
0.00161356
0.000109997
0.00161573
9.06445e-05
0.00161795
7.54173e-05
0.00162042
6.57439e-05
0.00162324
6.03435e-05
0.00162638
5.82581e-05
0.00162975
5.82824e-05
0.00163328
5.96487e-05
0.00163689
6.17799e-05
0.00164052
6.42087e-05
0.00164412
6.66664e-05
0.00164764
6.9031e-05
0.00165106
7.11934e-05
0.00165432
7.30468e-05
0.0016574
7.45034e-05
0.00166027
7.54978e-05
0.00166293
7.60133e-05
0.00166538
7.60648e-05
0.00166763
7.56793e-05
0.0016697
7.49115e-05
0.00167163
7.38609e-05
0.00167346
7.26762e-05
0.00167524
7.15393e-05
0.00167703
7.06762e-05
0.00167889
7.03469e-05
0.0016809
7.08281e-05
0.00168315
7.24075e-05
0.00168572
7.53897e-05
0.00168876
8.01697e-05
0.00169242
8.71844e-05
0.00169689
9.68934e-05
0.00170248
0.000109945
0.00170992
0.00012757
0.00171945
0.000151513
0.00173138
0.000182386
0.00174608
0.000221611
0.00176491
0.000270319
0.00179094
0.000334088
0.00182537
0.000417179
0.00187048
0.000524767
0.000662421
0.00192864
0.00160526
0.000310307
0.00160147
0.00029354
0.00160026
0.000294934
0.00159999
0.000260653
0.00160141
0.000243203
0.00160342
0.000207932
0.00160602
0.000183471
0.00160879
0.000154443
0.00161154
0.000130956
0.00161405
0.000107483
0.0016164
8.82976e-05
0.00161877
7.3048e-05
0.00162135
6.31588e-05
0.00162425
5.74443e-05
0.00162745
5.50594e-05
0.00163088
5.48517e-05
0.00163447
5.60582e-05
0.00163816
5.80974e-05
0.00164187
6.04956e-05
0.00164556
6.29745e-05
0.00164919
6.53993e-05
0.00165273
6.76588e-05
0.00165613
6.96471e-05
0.00165936
7.12727e-05
0.00166239
7.24613e-05
0.00166523
7.31807e-05
0.00166786
7.34337e-05
0.0016703
7.32393e-05
0.00167257
7.26425e-05
0.0016747
7.17315e-05
0.00167673
7.06444e-05
0.00167871
6.95558e-05
0.00168071
6.86826e-05
0.00168278
6.82774e-05
0.00168499
6.86104e-05
0.00168744
6.99621e-05
0.00169021
7.26213e-05
0.00169343
7.69505e-05
0.00169725
8.33641e-05
0.00170184
9.22982e-05
0.00170748
0.00010431
0.00171472
0.000120328
0.00172414
0.000142096
0.00173602
0.000170505
0.00175058
0.000207051
0.0017688
0.000252092
0.00179283
0.000310059
0.00182524
0.000384767
0.00186785
0.000482165
0.000607438
0.00192283
0.00160502
0.000316197
0.00160124
0.000297317
0.0016
0.000296174
0.00159981
0.000260847
0.00160127
0.00024174
0.00160334
0.000205857
0.00160603
0.000180782
0.00160891
0.000151568
0.00161179
0.000128078
0.00161444
0.000104827
0.00161694
8.58026e-05
0.00161944
7.05435e-05
0.00162213
6.04693e-05
0.0016251
5.44753e-05
0.00162835
5.1809e-05
0.00163183
5.13747e-05
0.00163547
5.24203e-05
0.0016392
5.43616e-05
0.00164298
5.67202e-05
0.00164674
5.92102e-05
0.00165046
6.16839e-05
0.00165409
6.40274e-05
0.0016576
6.6136e-05
0.00166096
6.7916e-05
0.00166413
6.92859e-05
0.00166711
7.01999e-05
0.0016699
7.06477e-05
0.0016725
7.06396e-05
0.00167493
7.02109e-05
0.00167722
6.94382e-05
0.00167942
6.84487e-05
0.00168157
6.74084e-05
0.00168372
6.65256e-05
0.00168595
6.60449e-05
0.00168833
6.62305e-05
0.00169094
6.73571e-05
0.00169386
6.9701e-05
0.00169721
7.35953e-05
0.00170115
7.94291e-05
0.00170583
8.76161e-05
0.00171149
9.86542e-05
0.00171853
0.00011329
0.00172772
0.000132897
0.00173932
0.000158909
0.00175385
0.00019252
0.00177148
0.000234462
0.0017942
0.000287338
0.00182407
0.000354903
0.00186398
0.000442248
0.000555766
0.00191566
0.00160474
0.000321971
0.00160096
0.000301093
0.00159969
0.000297441
0.00159957
0.000260966
0.00160107
0.000240241
0.00160321
0.000203725
0.00160598
0.00017801
0.00160895
0.00014859
0.00161195
0.000125079
0.00161475
0.000102033
0.00161737
8.3178e-05
0.00161999
6.79266e-05
0.00162277
5.76845e-05
0.00162581
5.14437e-05
0.0016291
4.85157e-05
0.00163261
4.78623e-05
0.00163628
4.87474e-05
0.00164006
5.05873e-05
0.00164388
5.28985e-05
0.0016477
5.53909e-05
0.00165148
5.79031e-05
0.00165519
6.03187e-05
0.00165879
6.25344e-05
0.00166225
6.44552e-05
0.00166554
6.59943e-05
0.00166865
6.7094e-05
0.00167157
6.77308e-05
0.0016743
6.79053e-05
0.00167687
6.76433e-05
0.0016793
6.70098e-05
0.00168163
6.612e-05
0.0016839
6.51307e-05
0.00168619
6.42409e-05
0.00168855
6.36873e-05
0.00169105
6.37282e-05
0.00169377
6.46332e-05
0.0016968
6.66692e-05
0.00170026
7.0144e-05
0.00170426
7.54197e-05
0.00170899
8.2888e-05
0.00171464
9.30023e-05
0.00172155
0.000106382
0.00173036
0.000124093
0.00174161
0.000147658
0.00175574
0.000178384
0.00177306
0.00021715
0.0017947
0.000265692
0.00182257
0.000327036
0.00185932
0.000405495
0.000507583
0.00190751
0.00160441
0.000327648
0.00160062
0.000304879
0.00159934
0.000298726
0.0015993
0.000261003
0.00160083
0.000238708
0.00160302
0.000201543
0.00160586
0.000175164
0.00160894
0.000145514
0.00161205
0.000121963
0.00161498
9.9106e-05
0.00161773
8.04315e-05
0.00162044
6.5214e-05
0.0016233
5.48217e-05
0.00162639
4.83555e-05
0.00162972
4.51862e-05
0.00163326
4.4323e-05
0.00163696
4.50501e-05
0.00164076
4.67861e-05
0.00164461
4.90445e-05
0.00164847
5.15314e-05
0.0016523
5.40726e-05
0.00165607
5.65493e-05
0.00165975
5.88596e-05
0.00166329
6.09086e-05
0.00166668
6.26054e-05
0.00166989
6.38819e-05
0.00167292
6.47025e-05
0.00167577
6.50569e-05
0.00167845
6.49614e-05
0.00168099
6.44692e-05
0.00168343
6.36831e-05
0.00168581
6.27496e-05
0.00168819