/*--------------------------------*- C++ -*----------------------------------*\
  =========                 |
  \\      /  F ield         | OpenFOAM: The Open Source CFD Toolbox
   \\    /   O peration     | Website:  https://openfoam.org
    \\  /    A nd           | Version:  8
     \\/     M anipulation  |
\*---------------------------------------------------------------------------*/
FoamFile
{
    version     2.0;
    format      ascii;
    class       volScalarField;
    location    "0.00936";
    object      p;
}
// * * * * * * * * * * * * * * * * * * * * * * * * * * * * * * * * * * * * * //

dimensions      [0 2 -2 0 0 0 0];

internalField   nonuniform List<scalar> 
109028
(
1.32242
1.31084
1.30128
1.29211
1.28319
1.27425
1.26517
1.25597
1.24666
1.23724
1.22769
1.21803
1.20825
1.19836
1.18838
1.17829
1.16809
1.15781
1.14744
1.13699
1.12645
1.11584
1.10516
1.09441
1.08358
1.0727
1.06176
1.05075
1.0397
1.02859
1.01743
1.00623
0.994973
0.983683
0.972347
0.960975
0.949566
0.938118
0.92664
0.91513
0.903592
0.892024
0.880426
0.868801
0.857153
0.84548
0.833785
0.822069
0.810328
0.798569
0.786789
0.774993
0.763177
0.751345
0.739497
0.727633
0.715751
0.703858
0.691948
0.680024
0.66809
0.656139
0.644176
0.6322
0.620213
0.608214
0.596202
0.58418
0.572147
0.560101
0.548046
0.535978
0.5239
0.511811
0.499711
0.487601
0.475477
0.463347
0.451204
0.439051
0.426885
0.41471
0.402523
0.390328
0.378118
0.365895
0.353667
0.341422
0.329167
0.316899
0.304619
0.29233
0.280025
0.267708
0.255378
0.243038
0.230682
0.218311
0.205928
0.193532
0.18112
0.168694
0.156254
0.143798
0.131328
0.118844
0.106343
0.0938248
0.0812914
0.0687445
0.0561772
0.0435937
0.0309938
0.0183748
0.00574385
-0.00691184
-0.0195837
-0.0322701
-0.0449773
-0.0577032
-0.0704502
-0.0832132
-0.0959967
-0.108797
-0.121622
-0.134464
-0.147327
-0.16021
-0.173113
-0.186037
-0.198979
-0.211944
-0.224928
-0.237933
-0.25096
-0.264008
-0.277076
-0.290166
-0.303277
-0.316409
-0.329558
-0.34273
-0.355924
-0.369135
-0.38237
-0.395622
-0.408895
-0.422186
-0.435499
-0.448828
-0.462177
-0.475545
-0.48893
-0.50233
-0.515745
-0.529178
-0.542626
-0.55609
-0.569566
-0.583053
-0.596551
-0.610062
-0.623583
-0.637115
-0.650651
-0.664194
-0.677744
-0.691292
-0.704846
-0.718397
-0.731945
-0.745493
-0.759034
-0.772571
-0.786095
-0.799601
-0.813101
-0.826578
-0.840038
-0.853472
-0.866886
-0.880267
-0.893616
-0.90693
-0.920212
-0.933448
-0.946634
-0.95978
-0.972874
-0.98592
-0.998912
-1.01184
-1.02474
-1.03761
-1.05043
-1.0632
-1.07609
-1.0895
-1.10369
-1.12092
1.32851
1.31727
1.3073
1.29766
1.28854
1.27961
1.27063
1.26153
1.2523
1.24295
1.23348
1.22389
1.21419
1.20436
1.19444
1.1844
1.17427
1.16403
1.15371
1.14329
1.13279
1.12221
1.11155
1.10082
1.09001
1.07914
1.06821
1.05721
1.04615
1.03504
1.02387
1.01265
1.00139
0.990077
0.97872
0.96732
0.955881
0.944402
0.932887
0.921337
0.909754
0.898141
0.886495
0.874818
0.863113
0.851383
0.839629
0.827848
0.816043
0.804215
0.792364
0.780495
0.768604
0.756695
0.744764
0.732818
0.720853
0.708872
0.696873
0.68486
0.67283
0.660786
0.648726
0.636653
0.624566
0.612463
0.600349
0.588222
0.576082
0.563927
0.551763
0.539584
0.527393
0.51519
0.502976
0.490748
0.478508
0.466258
0.453996
0.441721
0.429434
0.417135
0.404825
0.392502
0.380167
0.367818
0.355461
0.343088
0.330703
0.318306
0.305896
0.293474
0.281038
0.268588
0.256125
0.24365
0.23116
0.218657
0.206137
0.193607
0.181057
0.168498
0.155919
0.143328
0.130722
0.1181
0.105462
0.0928069
0.0801372
0.067451
0.054748
0.0420279
0.0292909
0.0165361
0.00376643
-0.00902408
-0.021831
-0.0346553
-0.0474973
-0.0603589
-0.0732386
-0.0861375
-0.0990539
-0.111989
-0.124944
-0.13792
-0.150913
-0.163926
-0.176958
-0.190011
-0.203081
-0.216174
-0.229285
-0.242415
-0.255565
-0.268738
-0.281927
-0.295137
-0.308367
-0.321615
-0.334884
-0.348171
-0.361478
-0.374803
-0.388147
-0.401508
-0.41489
-0.428286
-0.441701
-0.455132
-0.468581
-0.482046
-0.495525
-0.509019
-0.522525
-0.536045
-0.549581
-0.563128
-0.576684
-0.590248
-0.603824
-0.617408
-0.630999
-0.644595
-0.658196
-0.6718
-0.685405
-0.699006
-0.71261
-0.726207
-0.739802
-0.753386
-0.766961
-0.780531
-0.79408
-0.807613
-0.821129
-0.834621
-0.848088
-0.861534
-0.874942
-0.888323
-0.901665
-0.914967
-0.92823
-0.94144
-0.954604
-0.967723
-0.980781
-0.993787
-1.00674
-1.01964
-1.0325
-1.04531
-1.05808
-1.07092
-1.0842
-1.09839
-1.11329
-1.1302
1.33192
1.3231
1.31332
1.30341
1.29398
1.28496
1.27605
1.26703
1.25789
1.24862
1.23923
1.22972
1.22009
1.21034
1.20048
1.1905
1.18042
1.17024
1.15997
1.14959
1.13913
1.12858
1.11795
1.10724
1.09646
1.08561
1.07468
1.06369
1.05264
1.04152
1.03035
1.01913
1.00785
0.99652
0.985142
0.973721
0.962254
0.950746
0.939196
0.927608
0.915985
0.904327
0.892636
0.880909
0.869152
0.857364
0.84555
0.833707
0.82184
0.809944
0.798026
0.786081
0.774117
0.762129
0.750121
0.738093
0.726043
0.713975
0.701889
0.689783
0.677662
0.665521
0.653366
0.641193
0.629004
0.616801
0.604582
0.592348
0.5801
0.567837
0.555559
0.543271
0.530966
0.518646
0.506314
0.49397
0.481611
0.469239
0.456855
0.444457
0.432046
0.41962
0.407185
0.394734
0.382271
0.369792
0.357304
0.344801
0.332283
0.319755
0.307209
0.294654
0.282082
0.269497
0.256899
0.244287
0.231659
0.219018
0.20636
0.193691
0.181004
0.168305
0.155587
0.142857
0.130109
0.117348
0.10457
0.0917759
0.0789644
0.0661397
0.053294
0.040436
0.0275576
0.0146642
0.00175518
-0.0111759
-0.0241206
-0.0370847
-0.0500634
-0.063064
-0.0760813
-0.0891164
-0.102169
-0.115241
-0.128331
-0.141439
-0.154566
-0.167713
-0.180878
-0.194059
-0.207261
-0.220483
-0.233721
-0.246979
-0.260256
-0.27355
-0.286865
-0.300197
-0.313546
-0.326916
-0.3403
-0.353704
-0.367124
-0.380563
-0.394018
-0.407488
-0.420975
-0.434479
-0.447996
-0.461531
-0.475077
-0.488639
-0.502211
-0.515798
-0.529394
-0.543004
-0.556623
-0.570253
-0.583886
-0.597528
-0.611177
-0.624833
-0.638491
-0.652151
-0.665813
-0.679473
-0.693134
-0.706787
-0.720436
-0.734077
-0.747711
-0.761332
-0.77494
-0.788535
-0.80211
-0.815658
-0.82919
-0.842692
-0.856171
-0.869613
-0.883024
-0.896393
-0.909724
-0.923008
-0.936249
-0.949435
-0.96257
-0.97565
-0.988676
-1.00164
-1.01456
-1.02742
-1.04023
-1.05299
-1.06575
-1.07881
-1.09263
-1.10735
-1.12208
-1.1356
1.33421
1.32792
1.31914
1.30931
1.29961
1.2904
1.28145
1.27251
1.26346
1.25427
1.24497
1.23553
1.22598
1.2163
1.20651
1.1966
1.18658
1.17646
1.16623
1.1559
1.14549
1.13497
1.12438
1.1137
1.10294
1.0921
1.08119
1.07021
1.05917
1.04805
1.03688
1.02565
1.01436
1.00302
0.991627
0.980186
0.968694
0.957159
0.945578
0.933955
0.922293
0.910593
0.898855
0.887083
0.875274
0.863432
0.85156
0.83966
0.827727
0.815766
0.803778
0.791764
0.779723
0.76766
0.755575
0.743463
0.731329
0.719176
0.706999
0.694804
0.682589
0.670353
0.6581
0.645829
0.633538
0.621231
0.608906
0.596566
0.584208
0.571835
0.559446
0.547041
0.534622
0.522185
0.509734
0.497271
0.484789
0.472294
0.459787
0.447261
0.434725
0.422172
0.409607
0.397025
0.384431
0.371821
0.359199
0.346561
0.33391
0.321244
0.308563
0.29587
0.283161
0.270437
0.257699
0.244946
0.232178
0.219396
0.206599
0.193786
0.180957
0.168114
0.155256
0.142382
0.129492
0.116586
0.103664
0.0907267
0.0777723
0.0648035
0.0518159
0.038812
0.0257925
0.0127553
-0.000297345
-0.0133689
-0.026456
-0.0395629
-0.0526834
-0.0658243
-0.0789803
-0.0921571
-0.105348
-0.118558
-0.131787
-0.145031
-0.158295
-0.171577
-0.184875
-0.198191
-0.211525
-0.224876
-0.238246
-0.251631
-0.265037
-0.278458
-0.291898
-0.305352
-0.318824
-0.332313
-0.345817
-0.359337
-0.372874
-0.386424
-0.399992
-0.413574
-0.427166
-0.440774
-0.454397
-0.468031
-0.481678
-0.495336
-0.509005
-0.522679
-0.536366
-0.550062
-0.563767
-0.577474
-0.591188
-0.604905
-0.618626
-0.632351
-0.646074
-0.659796
-0.673518
-0.687232
-0.700941
-0.714648
-0.728341
-0.742022
-0.755693
-0.769348
-0.782985
-0.796604
-0.810199
-0.823766
-0.837306
-0.850817
-0.864295
-0.87774
-0.89114
-0.9045
-0.917814
-0.931082
-0.944293
-0.957451
-0.970556
-0.983598
-0.996584
-1.00951
-1.02238
-1.0352
-1.04796
-1.0607
-1.0736
-1.08705
-1.10137
-1.11608
-1.12947
-1.13941
1.33747
1.33202
1.32442
1.31515
1.30542
1.29596
1.28689
1.27797
1.269
1.2599
1.25068
1.24133
1.23185
1.22225
1.21253
1.20269
1.19274
1.18268
1.17251
1.16223
1.15186
1.14139
1.13083
1.12018
1.10945
1.09864
1.08775
1.07678
1.06574
1.05464
1.04347
1.03224
1.02094
1.00959
0.998182
0.986723
0.97521
0.963648
0.952039
0.940384
0.928687
0.916946
0.905163
0.893347
0.881488
0.869594
0.857667
0.845705
0.83371
0.821687
0.809629
0.797546
0.785432
0.773291
0.761126
0.748934
0.736716
0.724475
0.712211
0.699923
0.687615
0.675285
0.662932
0.650559
0.638168
0.625757
0.613325
0.600875
0.588409
0.575924
0.56342
0.550899
0.538362
0.525807
0.513236
0.500648
0.488045
0.475425
0.462789
0.450138
0.437472
0.424787
0.41209
0.399377
0.386649
0.373904
0.361146
0.348371
0.335582
0.322777
0.309957
0.297122
0.284273
0.271406
0.258526
0.24563
0.232719
0.219792
0.206849
0.193892
0.180918
0.167929
0.154924
0.141903
0.128867
0.115814
0.102746
0.0896604
0.0765597
0.063443
0.0503092
0.0371586
0.023993
0.0108091
-0.00238949
-0.0156075
-0.0288396
-0.0420895
-0.0553556
-0.0686413
-0.0819409
-0.0952576
-0.108592
-0.121945
-0.135312
-0.148697
-0.162099
-0.175519
-0.188953
-0.202406
-0.215875
-0.229359
-0.24286
-0.256378
-0.269913
-0.283461
-0.297026
-0.310607
-0.324204
-0.337813
-0.351436
-0.365076
-0.378728
-0.392394
-0.406074
-0.419765
-0.433467
-0.447182
-0.460909
-0.474643
-0.488391
-0.502142
-0.515905
-0.529674
-0.543448
-0.55723
-0.571017
-0.584802
-0.598595
-0.612388
-0.626178
-0.639969
-0.653756
-0.667541
-0.681318
-0.695086
-0.708846
-0.722595
-0.736332
-0.750052
-0.763756
-0.777441
-0.791103
-0.804742
-0.818353
-0.831938
-0.845486
-0.859
-0.872476
-0.885912
-0.899302
-0.912648
-0.925943
-0.939185
-0.952368
-0.965495
-0.978561
-0.991565
-1.00451
-1.01739
-1.03022
-1.04299
-1.05572
-1.06853
-1.0817
-1.0956
-1.11009
-1.1241
-1.13588
-1.1447
1.34147
1.33584
1.32909
1.32068
1.31123
1.30166
1.29242
1.28344
1.27451
1.2655
1.25637
1.2471
1.23771
1.22819
1.21855
1.20878
1.1989
1.1889
1.17878
1.16857
1.15824
1.14782
1.1373
1.12669
1.11599
1.10521
1.09434
1.08339
1.07237
1.06128
1.05011
1.03888
1.02758
1.01622
1.00481
0.993331
0.981799
0.970213
0.958578
0.946893
0.935163
0.923385
0.911561
0.899698
0.887794
0.875847
0.863866
0.851845
0.83979
0.827703
0.815581
0.803427
0.791239
0.779023
0.766777
0.754505
0.742203
0.729875
0.717523
0.705143
0.692741
0.680314
0.667862
0.65539
0.642894
0.630377
0.617839
0.60528
0.592701
0.580103
0.567483
0.554844
0.542188
0.529514
0.516818
0.504109
0.491377
0.478632
0.465866
0.453085
0.440286
0.427471
0.414639
0.401791
0.388925
0.376042
0.363146
0.35023
0.337301
0.324353
0.311391
0.298412
0.285418
0.272406
0.259381
0.246338
0.233279
0.220206
0.207114
0.194008
0.180885
0.167747
0.154591
0.141422
0.128235
0.115032
0.101814
0.0885774
0.0753274
0.0620587
0.0487755
0.0354745
0.0221591
0.00882479
-0.004522
-0.0178892
-0.031271
-0.0446685
-0.0580826
-0.0715132
-0.0849604
-0.0984229
-0.111903
-0.125397
-0.138911
-0.152436
-0.165982
-0.179539
-0.193113
-0.206705
-0.220311
-0.23393
-0.247567
-0.261217
-0.274882
-0.288561
-0.302255
-0.315961
-0.329682
-0.343416
-0.357161
-0.370921
-0.384689
-0.398471
-0.412264
-0.426065
-0.439878
-0.4537
-0.467531
-0.481368
-0.495212
-0.50906
-0.522915
-0.536776
-0.550638
-0.564506
-0.578373
-0.592239
-0.606108
-0.619973
-0.633832
-0.647688
-0.661537
-0.675381
-0.689213
-0.703033
-0.716839
-0.730632
-0.744407
-0.758164
-0.7719
-0.78561
-0.799292
-0.812949
-0.826574
-0.840167
-0.85372
-0.867232
-0.880703
-0.894131
-0.90751
-0.920831
-0.934101
-0.947316
-0.960467
-0.973555
-0.986585
-0.999543
-1.01245
-1.02529
-1.03807
-1.0508
-1.06355
-1.07653
-1.09006
-1.10424
-1.11841
-1.13128
-1.14195
-1.15114
1.3457
1.33964
1.33333
1.32576
1.31689
1.30743
1.29805
1.28896
1.28003
1.27108
1.26203
1.25285
1.24355
1.23411
1.22455
1.21486
1.20505
1.19512
1.18507
1.17491
1.16464
1.15427
1.14379
1.13323
1.12256
1.11181
1.10097
1.09005
1.07904
1.06796
1.0568
1.04558
1.03428
1.02292
1.01149
1.00001
0.98846
0.976855
0.965196
0.953485
0.941719
0.929908
0.918045
0.90614
0.894189
0.882195
0.870158
0.858084
0.84597
0.833818
0.821628
0.809405
0.797148
0.784855
0.772531
0.760179
0.747793
0.73538
0.722937
0.710467
0.697967
0.685445
0.672894
0.660322
0.64772
0.635097
0.622451
0.609781
0.597088
0.584375
0.571638
0.558883
0.546104
0.533307
0.520488
0.507651
0.494792
0.481917
0.469021
0.456106
0.443174
0.430223
0.417252
0.404266
0.391261
0.378238
0.365199
0.35214
0.339067
0.325975
0.312867
0.29974
0.286598
0.27344
0.260262
0.247072
0.233861
0.220637
0.207393
0.194136
0.18086
0.16757
0.15426
0.140938
0.127595
0.114242
0.100866
0.0874783
0.074073
0.0606505
0.0472138
0.0337592
0.0202905
0.00680338
-0.00669765
-0.0202159
-0.0337492
-0.0472984
-0.0608649
-0.0744457
-0.0880408
-0.101653
-0.115281
-0.128922
-0.142581
-0.156253
-0.169941
-0.183642
-0.19736
-0.211089
-0.224835
-0.238593
-0.252365
-0.266151
-0.279949
-0.293759
-0.307585
-0.321418
-0.335267
-0.349123
-0.362993
-0.376872
-0.390761
-0.404657
-0.418565
-0.432477
-0.446399
-0.460329
-0.474262
-0.4882
-0.502144
-0.516091
-0.530039
-0.543988
-0.55794
-0.571891
-0.585839
-0.599782
-0.613726
-0.627659
-0.64159
-0.655509
-0.669418
-0.683318
-0.697203
-0.71107
-0.724921
-0.738755
-0.752567
-0.766352
-0.780117
-0.793851
-0.807553
-0.821223
-0.834857
-0.848454
-0.862009
-0.875515
-0.888979
-0.902391
-0.91575
-0.92905
-0.942294
-0.955471
-0.968587
-0.981637
-0.99462
-1.00754
-1.02039
-1.03319
-1.04593
-1.05866
-1.07151
-1.08475
-1.09857
-1.1127
-1.12616
-1.13791
-1.14805
-1.15801
1.34991
1.34352
1.33732
1.33041
1.32225
1.31313
1.30375
1.29455
1.28557
1.27664
1.26767
1.25858
1.24936
1.24001
1.23053
1.22092
1.21119
1.20133
1.19135
1.18126
1.17105
1.16073
1.15031
1.13978
1.12916
1.11844
1.10763
1.09674
1.08576
1.07469
1.06355
1.05233
1.04104
1.02968
1.01825
1.00675
0.995193
0.983572
0.971891
0.960153
0.948361
0.936516
0.924619
0.912671
0.900677
0.888636
0.876548
0.864418
0.852247
0.840033
0.827777
0.815485
0.803158
0.790793
0.778391
0.765959
0.75349
0.74099
0.728456
0.715896
0.703303
0.690682
0.678032
0.665354
0.652651
0.63992
0.627162
0.614381
0.601574
0.588744
0.57589
0.563012
0.550112
0.53719
0.524245
0.511279
0.498291
0.485283
0.472254
0.459204
0.446133
0.433045
0.419935
0.406807
0.393661
0.380493
0.367309
0.354104
0.340885
0.327642
0.314386
0.301109
0.287816
0.274505
0.261176
0.247831
0.234467
0.221087
0.207689
0.194275
0.180843
0.167396
0.15393
0.140449
0.126951
0.113437
0.0999062
0.0863593
0.0727966
0.0592165
0.0456233
0.0320097
0.018385
0.00474153
-0.00891611
-0.0225911
-0.036279
-0.0499824
-0.0637036
-0.0774365
-0.0911866
-0.104951
-0.118729
-0.132522
-0.146328
-0.160148
-0.173983
-0.18783
-0.201691
-0.215565
-0.229452
-0.24335
-0.257261
-0.271183
-0.285118
-0.299063
-0.313017
-0.326983
-0.340958
-0.354942
-0.368935
-0.382933
-0.396944
-0.410959
-0.42498
-0.439004
-0.453036
-0.467071
-0.481107
-0.495148
-0.509192
-0.523235
-0.537275
-0.551315
-0.565353
-0.579387
-0.593413
-0.607436
-0.62145
-0.635454
-0.649448
-0.66343
-0.677398
-0.69135
-0.705284
-0.719198
-0.733092
-0.746963
-0.760806
-0.774623
-0.78841
-0.802163
-0.815881
-0.829562
-0.8432
-0.8568
-0.870349
-0.883851
-0.897295
-0.910693
-0.924025
-0.9373
-0.950509
-0.963655
-0.976728
-0.989735
-1.00267
-1.01555
-1.02835
-1.0411
-1.05382
-1.06661
-1.07964
-1.09313
-1.10707
-1.12082
-1.13335
-1.14426
-1.15436
-1.1649
1.35392
1.34742
1.34117
1.3347
1.32723
1.31865
1.30946
1.30021
1.29115
1.28222
1.27329
1.26428
1.25515
1.24589
1.2365
1.22697
1.21732
1.20754
1.19763
1.18761
1.17746
1.16721
1.15684
1.14636
1.13578
1.12511
1.11433
1.10347
1.09251
1.08147
1.07035
1.05914
1.04786
1.0365
1.02507
1.01356
1.002
0.990363
0.978664
0.966906
0.955084
0.943211
0.931279
0.919295
0.907259
0.895172
0.883035
0.870853
0.858623
0.84635
0.834032
0.821675
0.809275
0.796838
0.784358
0.771844
0.759293
0.746707
0.734086
0.721433
0.708745
0.696026
0.683276
0.670496
0.657686
0.644848
0.63198
0.619086
0.606162
0.593215
0.580241
0.56724
0.554216
0.541165
0.528093
0.514996
0.501877
0.488734
0.475567
0.462381
0.44917
0.435941
0.422689
0.409416
0.396125
0.38281
0.369477
0.356125
0.342752
0.329361
0.315951
0.302519
0.289072
0.275604
0.26212
0.248616
0.235095
0.221557
0.208
0.194426
0.180834
0.167226
0.153599
0.139958
0.126299
0.112622
0.0989314
0.0852215
0.0714982
0.0577561
0.044
0.0302283
0.0164405
0.00263773
-0.0111798
-0.0250148
-0.038861
-0.0527244
-0.0666021
-0.0804909
-0.0943987
-0.108316
-0.12225
-0.136196
-0.150154
-0.164126
-0.178109
-0.192107
-0.206114
-0.220134
-0.234164
-0.248205
-0.262258
-0.276319
-0.290391
-0.304471
-0.31856
-0.332656
-0.346761
-0.360872
-0.374991
-0.389112
-0.403241
-0.417374
-0.43151
-0.445647
-0.459793
-0.473932
-0.488076
-0.502215
-0.516357
-0.530494
-0.544629
-0.558756
-0.57288
-0.586995
-0.601101
-0.615197
-0.629283
-0.643352
-0.657413
-0.671453
-0.685478
-0.69948
-0.713459
-0.72742
-0.741351
-0.755255
-0.76913
-0.782971
-0.796778
-0.810549
-0.824276
-0.837964
-0.851604
-0.865201
-0.878741
-0.892228
-0.905662
-0.919027
-0.932338
-0.945577
-0.958754
-0.971857
-0.984889
-0.997852
-1.01074
-1.02356
-1.03633
-1.04905
-1.06178
-1.07468
-1.08791
-1.10159
-1.11536
-1.12844
-1.14008
-1.15048
-1.16076
-1.17161
1.35774
1.35131
1.34501
1.33873
1.33185
1.32388
1.31506
1.30589
1.29678
1.28781
1.27891
1.26996
1.26092
1.25175
1.24245
1.23301
1.22344
1.21374
1.20391
1.19396
1.18388
1.17369
1.16338
1.15296
1.14243
1.1318
1.12106
1.11023
1.09931
1.0883
1.07719
1.066
1.05473
1.04338
1.03195
1.02045
1.00887
0.997228
0.985514
0.973736
0.961893
0.949992
0.938029
0.926009
0.913936
0.901803
0.889622
0.877386
0.865103
0.85277
0.840392
0.827968
0.815501
0.802989
0.790434
0.77784
0.765207
0.752537
0.739826
0.72708
0.714299
0.701481
0.688631
0.675745
0.662831
0.649882
0.636903
0.623895
0.610855
0.597786
0.584691
0.571568
0.558415
0.545238
0.532034
0.518806
0.50555
0.492269
0.478966
0.465638
0.452288
0.438913
0.425516
0.412096
0.398655
0.385192
0.371707
0.358201
0.344675
0.331128
0.317562
0.303974
0.290367
0.276741
0.263095
0.249431
0.235749
0.222046
0.208328
0.194589
0.180834
0.16706
0.153271
0.139462
0.125639
0.111797
0.0979386
0.0840655
0.070175
0.0562682
0.0423469
0.0284102
0.014458
0.000490436
-0.0134915
-0.0274883
-0.0414977
-0.0555236
-0.0695611
-0.0836134
-0.0976773
-0.111755
-0.125845
-0.139948
-0.154063
-0.168187
-0.182324
-0.196471
-0.21063
-0.224798
-0.238974
-0.253162
-0.267358
-0.28156
-0.29577
-0.309989
-0.324211
-0.338442
-0.352677
-0.366918
-0.381161
-0.395408
-0.409659
-0.423908
-0.438159
-0.452412
-0.466665
-0.480915
-0.495161
-0.509404
-0.52364
-0.537874
-0.552098
-0.566316
-0.580521
-0.59472
-0.6089
-0.623069
-0.637225
-0.65136
-0.66548
-0.679578
-0.693656
-0.707707
-0.721732
-0.735733
-0.749699
-0.763633
-0.777536
-0.791398
-0.805225
-0.819004
-0.83274
-0.84643
-0.860069
-0.873654
-0.887184
-0.900654
-0.914063
-0.927405
-0.94068
-0.953887
-0.96702
-0.980083
-0.993064
-1.00598
-1.01882
-1.03159
-1.04432
-1.05704
-1.06984
-1.08288
-1.09629
-1.10995
-1.1233
-1.1356
-1.14652
-1.15675
-1.16723
-1.17811
1.36137
1.35513
1.34885
1.34264
1.33613
1.32878
1.32045
1.31152
1.30244
1.29345
1.28454
1.27564
1.26667
1.25758
1.24837
1.23902
1.22954
1.21993
1.21018
1.2003
1.1903
1.18018
1.16993
1.15957
1.1491
1.13851
1.12782
1.11703
1.10614
1.09516
1.08408
1.07291
1.06166
1.05032
1.0389
1.02739
1.01582
1.00416
0.992442
0.980648
0.968789
0.956859
0.944869
0.932818
0.920705
0.908533
0.896305
0.884022
0.871687
0.859297
0.846858
0.834369
0.821833
0.80925
0.796624
0.783949
0.771234
0.758478
0.745679
0.73284
0.719965
0.707048
0.694098
0.68111
0.668085
0.655027
0.641936
0.628811
0.615655
0.602466
0.589246
0.575997
0.562717
0.549409
0.536074
0.522708
0.509316
0.495898
0.482453
0.468982
0.455486
0.441964
0.428418
0.414849
0.401256
0.387639
0.374
0.360336
0.346655
0.332948
0.31922
0.305472
0.291704
0.277913
0.264105
0.250275
0.236426
0.222559
0.208672
0.194766
0.180842
0.1669
0.152941
0.138965
0.12497
0.110958
0.096932
0.0828872
0.0688279
0.0547523
0.040661
0.0265539
0.0124353
-0.00170257
-0.015851
-0.0300151
-0.0441926
-0.0583816
-0.0725856
-0.0868015
-0.101029
-0.115269
-0.12952
-0.143782
-0.158054
-0.172338
-0.186629
-0.200931
-0.215242
-0.229559
-0.243887
-0.258222
-0.272561
-0.286908
-0.301259
-0.315617
-0.329979
-0.344343
-0.35871
-0.373082
-0.387451
-0.401824
-0.416195
-0.430565
-0.444932
-0.459301
-0.473661
-0.488017
-0.502368
-0.516712
-0.531047
-0.545374
-0.559688
-0.573991
-0.588281
-0.602557
-0.616816
-0.631054
-0.645275
-0.659479
-0.673654
-0.687808
-0.701933
-0.716031
-0.730099
-0.744138
-0.758136
-0.772098
-0.786022
-0.799903
-0.81374
-0.827529
-0.841268
-0.854957
-0.868588
-0.882164
-0.895675
-0.909123
-0.922504
-0.935816
-0.949054
-0.962223
-0.975312
-0.988323
-1.00126
-1.01412
-1.02691
-1.03965
-1.05235
-1.06509
-1.078
-1.09118
-1.10466
-1.1181
-1.13084
-1.14236
-1.15284
-1.16309
-1.17368
-1.18441
1.36486
1.35889
1.35269
1.34648
1.3402
1.33335
1.32558
1.31702
1.30808
1.2991
1.29018
1.28131
1.2724
1.26339
1.25427
1.24502
1.23563
1.2261
1.21644
1.20665
1.19672
1.18667
1.17649
1.16619
1.15578
1.14525
1.13461
1.12387
1.11302
1.10207
1.09102
1.07988
1.06864
1.05732
1.04591
1.03441
1.02283
1.01118
0.999449
0.987644
0.975765
0.963817
0.9518
0.939719
0.927571
0.91536
0.903089
0.89076
0.878373
0.86593
0.853432
0.840882
0.828277
0.815626
0.802924
0.790172
0.777376
0.764533
0.751648
0.738719
0.725746
0.712734
0.699681
0.686588
0.673456
0.660287
0.647081
0.633841
0.620565
0.607254
0.59391
0.580533
0.567124
0.553684
0.540211
0.526711
0.513179
0.499619
0.48603
0.472413
0.458769
0.445096
0.4314
0.417676
0.403929
0.390154
0.376357
0.362536
0.34869
0.334822
0.320931
0.307017
0.293083
0.279124
0.265149
0.251149
0.237131
0.223092
0.209033
0.194956
0.18086
0.166745
0.152612
0.138461
0.124294
0.110107
0.0959079
0.081688
0.0674555
0.0532053
0.038941
0.024662
0.0103674
-0.00394025
-0.0182609
-0.0325974
-0.0469434
-0.0613043
-0.0756749
-0.0900602
-0.104455
-0.11886
-0.133275
-0.1477
-0.162136
-0.176577
-0.19103
-0.205488
-0.219953
-0.234426
-0.248904
-0.263388
-0.277876
-0.292367
-0.306863
-0.321362
-0.335863
-0.350364
-0.364866
-0.379364
-0.393866
-0.408363
-0.422855
-0.437347
-0.451831
-0.466313
-0.480783
-0.495246
-0.509702
-0.524145
-0.538577
-0.552995
-0.5674
-0.581787
-0.596159
-0.610514
-0.624847
-0.639155
-0.653442
-0.667703
-0.681938
-0.696142
-0.710315
-0.724455
-0.738561
-0.752631
-0.76666
-0.780647
-0.79459
-0.808484
-0.822331
-0.836124
-0.849861
-0.863543
-0.877165
-0.890721
-0.904211
-0.917633
-0.930986
-0.944259
-0.957459
-0.970579
-0.983623
-0.996585
-1.00947
-1.02228
-1.03503
-1.04773
-1.06044
-1.07324
-1.08625
-1.09952
-1.1129
-1.12591
-1.13797
-1.14887
-1.15914
-1.16952
-1.18012
-1.19058
1.36819
1.36252
1.35647
1.35029
1.34413
1.33764
1.33041
1.32231
1.31364
1.30474
1.29584
1.28698
1.27812
1.26919
1.26015
1.25099
1.2417
1.23226
1.22269
1.21298
1.20314
1.19316
1.18306
1.17283
1.16248
1.15201
1.14143
1.13073
1.11993
1.10901
1.098
1.08689
1.07568
1.06437
1.05298
1.04149
1.02992
1.01827
1.00653
0.994718
0.982827
0.970861
0.958822
0.946713
0.934534
0.922287
0.909977
0.897602
0.885168
0.87267
0.860117
0.847503
0.834838
0.822114
0.80934
0.796513
0.783635
0.770709
0.757737
0.744715
0.731648
0.718537
0.705381
0.692183
0.678945
0.665665
0.652345
0.638985
0.625589
0.612157
0.598685
0.585179
0.571638
0.558063
0.544454
0.530813
0.517139
0.503435
0.489699
0.475933
0.462139
0.448314
0.434463
0.420581
0.406675
0.392742
0.378781
0.364797
0.350787
0.336751
0.322694
0.308609
0.294506
0.280376
0.266227
0.252054
0.237862
0.223647
0.209414
0.195159
0.180887
0.166594
0.152284
0.137954
0.123609
0.109245
0.094865
0.0804672
0.0660573
0.0516264
0.0371865
0.0227279
0.00825722
-0.00622631
-0.0207247
-0.0352344
-0.0497556
-0.0642913
-0.0788343
-0.0933908
-0.107955
-0.12253
-0.137114
-0.151705
-0.166305
-0.180912
-0.195525
-0.210144
-0.224768
-0.239397
-0.254031
-0.268666
-0.283303
-0.297944
-0.312585
-0.327227
-0.341866
-0.356505
-0.371143
-0.385775
-0.400404
-0.41503
-0.429645
-0.444255
-0.458858
-0.473452
-0.488033
-0.502605
-0.517161
-0.531706
-0.546232
-0.560745
-0.575235
-0.589709
-0.604159
-0.618589
-0.632994
-0.647371
-0.66172
-0.67604
-0.690327
-0.704582
-0.718801
-0.73298
-0.747119
-0.761217
-0.775272
-0.789281
-0.803237
-0.817141
-0.830992
-0.844786
-0.858518
-0.872189
-0.885792
-0.899329
-0.912794
-0.926183
-0.939498
-0.952735
-0.965888
-0.978961
-0.991951
-1.00486
-1.0177
-1.03046
-1.04316
-1.05585
-1.06859
-1.08146
-1.09455
-1.10781
-1.12091
-1.13337
-1.14476
-1.15525
-1.16547
-1.17594
-1.18645
-1.19662
1.37137
1.36599
1.36018
1.35409
1.34798
1.34173
1.33494
1.32734
1.31904
1.31032
1.30149
1.29266
1.28383
1.27497
1.26601
1.25694
1.24774
1.2384
1.22892
1.2193
1.20955
1.19966
1.18963
1.17948
1.1692
1.15879
1.14826
1.13762
1.12687
1.116
1.10503
1.09394
1.08277
1.07148
1.06011
1.04864
1.03708
1.02543
1.01369
1.00187
0.989973
0.977992
0.965935
0.953801
0.941594
0.929314
0.916967
0.904551
0.892071
0.879522
0.866913
0.854241
0.841511
0.828721
0.815874
0.802972
0.790016
0.777007
0.763946
0.750833
0.737673
0.724463
0.711205
0.697903
0.684555
0.671163
0.657728
0.64425
0.630732
0.617172
0.603574
0.589936
0.576262
0.56255
0.548802
0.535019
0.521201
0.50735
0.493464
0.479549
0.4656
0.451618
0.437609
0.423568
0.4095
0.395402
0.381276
0.367125
0.352944
0.33874
0.324509
0.310252
0.295973
0.281669
0.267341
0.252993
0.238621
0.224228
0.209813
0.195377
0.180924
0.166448
0.151955
0.137444
0.122914
0.108368
0.0938044
0.0792248
0.06463
0.0500185
0.0353932
0.0207554
0.0061008
-0.00856271
-0.0232415
-0.0379317
-0.0526311
-0.0673442
-0.0820641
-0.0967969
-0.111536
-0.126282
-0.141039
-0.1558
-0.170568
-0.185342
-0.20012
-0.214903
-0.229688
-0.244477
-0.259267
-0.274058
-0.288848
-0.303639
-0.318427
-0.333213
-0.347996
-0.362773
-0.377547
-0.392314
-0.407073
-0.421825
-0.436567
-0.451297
-0.466016
-0.480723
-0.495415
-0.510093
-0.524752
-0.539395
-0.554017
-0.568622
-0.583198
-0.597754
-0.612282
-0.626787
-0.64126
-0.655703
-0.670112
-0.684487
-0.698827
-0.713125
-0.727387
-0.741602
-0.755773
-0.769897
-0.783971
-0.797997
-0.811962
-0.825876
-0.839727
-0.853513
-0.867235
-0.880891
-0.894475
-0.907985
-0.921419
-0.934775
-0.948048
-0.961237
-0.974344
-0.987364
-1.0003
-1.01316
-1.02594
-1.03865
-1.05133
-1.06402
-1.0768
-1.08974
-1.10284
-1.11594
-1.12862
-1.14046
-1.15133
-1.1616
-1.17188
-1.18235
-1.19264
-1.20251
1.37441
1.36934
1.36379
1.35784
1.35178
1.34567
1.33922
1.3321
1.32423
1.3158
1.3071
1.29833
1.28954
1.28074
1.27186
1.26287
1.25377
1.24452
1.23514
1.22562
1.21595
1.20615
1.1962
1.18613
1.17592
1.16558
1.15512
1.14454
1.13384
1.12302
1.11209
1.10105
1.0899
1.07865
1.0673
1.05585
1.0443
1.03266
1.02093
1.00911
0.997202
0.985213
0.973139
0.960986
0.948752
0.936443
0.924062
0.911607
0.899082
0.886485
0.873824
0.861096
0.848301
0.835447
0.82253
0.809553
0.79652
0.783426
0.77028
0.757078
0.743822
0.730513
0.717155
0.703746
0.690287
0.676784
0.663232
0.649635
0.635992
0.622308
0.608581
0.59481
0.581
0.56715
0.55326
0.539335
0.525368
0.511369
0.49733
0.48326
0.469153
0.455014
0.440842
0.42664
0.412403
0.39814
0.383843
0.369521
0.355167
0.340788
0.326381
0.311947
0.297489
0.283004
0.268497
0.253965
0.239409
0.22483
0.210233
0.19561
0.180971
0.166307
0.151629
0.136929
0.122211
0.107476
0.092726
0.0779571
0.0631747
0.0483758
0.0335637
0.0187384
0.00389823
-0.0109517
-0.0258158
-0.0406877
-0.0555745
-0.0704657
-0.0853687
-0.100279
-0.115198
-0.130121
-0.145054
-0.159987
-0.17493
-0.189872
-0.204819
-0.219768
-0.234718
-0.249669
-0.264618
-0.279565
-0.294512
-0.309454
-0.324393
-0.339324
-0.354252
-0.369171
-0.384082
-0.398984
-0.413876
-0.428755
-0.443619
-0.458473
-0.473309
-0.48813
-0.502933
-0.517714
-0.532479
-0.547219
-0.561934
-0.576628
-0.59129
-0.605926
-0.620531
-0.635106
-0.649648
-0.664152
-0.67862
-0.693046
-0.707435
-0.721777
-0.736073
-0.750323
-0.764522
-0.778667
-0.79276
-0.806794
-0.820771
-0.834681
-0.848528
-0.862306
-0.876012
-0.889648
-0.903206
-0.916686
-0.930083
-0.943398
-0.956626
-0.969768
-0.982824
-0.99579
-1.00867
-1.02147
-1.0342
-1.04688
-1.05954
-1.07225
-1.08507
-1.09802
-1.11104
-1.12384
-1.13601
-1.14728
-1.15776
-1.16796
-1.17829
-1.18868
-1.19872
-1.20829
1.37729
1.3725
1.36725
1.36152
1.35556
1.34953
1.34332
1.3366
1.32918
1.32111
1.31263
1.30396
1.29524
1.28649
1.27768
1.26878
1.25977
1.25063
1.24134
1.23191
1.22234
1.21263
1.20277
1.19278
1.18265
1.17239
1.162
1.15148
1.14084
1.13007
1.11919
1.1082
1.09709
1.08587
1.07455
1.06312
1.0516
1.03997
1.02824
1.01643
1.00452
0.992519
0.980434
0.968264
0.95601
0.943673
0.931261
0.918769
0.906204
0.893561
0.88085
0.868066
0.855214
0.842295
0.829309
0.81626
0.803147
0.789974
0.776742
0.763448
0.7501
0.736692
0.723231
0.709718
0.696151
0.682532
0.668863
0.655146
0.64138
0.627567
0.613708
0.599806
0.585857
0.571866
0.557833
0.54376
0.529645
0.515491
0.501301
0.487071
0.472804
0.458505
0.444166
0.429796
0.415392
0.400955
0.386487
0.371987
0.357459
0.342897
0.328312
0.313696
0.299054
0.284384
0.26969
0.25497
0.240227
0.225461
0.210672
0.195859
0.181028
0.166173
0.151301
0.136409
0.121499
0.10657
0.0916263
0.076665
0.0616895
0.0466979
0.0316955
0.0166753
0.00164704
-0.0133957
-0.0284476
-0.0435098
-0.0585823
-0.0736607
-0.0887514
-0.103843
-0.118944
-0.134051
-0.14916
-0.164273
-0.179391
-0.194507
-0.209625
-0.224744
-0.239863
-0.254976
-0.270089
-0.285197
-0.300299
-0.315396
-0.330486
-0.345569
-0.36064
-0.375701
-0.390751
-0.405791
-0.420813
-0.435822
-0.450812
-0.465786
-0.480741
-0.495674
-0.510587
-0.525475
-0.540339
-0.555177
-0.569984
-0.584765
-0.599511
-0.614227
-0.628905
-0.64355
-0.658156
-0.67272
-0.687242
-0.701718
-0.716153
-0.730534
-0.744864
-0.759144
-0.773365
-0.787529
-0.801634
-0.815676
-0.829652
-0.843561
-0.857396
-0.871162
-0.884849
-0.898459
-0.911987
-0.925428
-0.938787
-0.952056
-0.965237
-0.978324
-0.991323
-1.00423
-1.01705
-1.0298
-1.04248
-1.05513
-1.06779
-1.08051
-1.09334
-1.10626
-1.11907
-1.13147
-1.1431
-1.15389
-1.16416
-1.17436
-1.18468
-1.19488
-1.20464
-1.21392
1.38
1.37549
1.37055
1.36508
1.35928
1.35333
1.34728