/*--------------------------------*- C++ -*----------------------------------*\
  =========                 |
  \\      /  F ield         | OpenFOAM: The Open Source CFD Toolbox
   \\    /   O peration     | Website:  https://openfoam.org
    \\  /    A nd           | Version:  9
     \\/     M anipulation  |
\*---------------------------------------------------------------------------*/
FoamFile
{
    format      ascii;
    class       volScalarField;
    location    "0.008099";
    object      nuTilda;
}
// * * * * * * * * * * * * * * * * * * * * * * * * * * * * * * * * * * * * * //

dimensions      [0 2 -1 0 0 0 0];

internalField   nonuniform List<scalar> 
6352
(
0.0125142
0.0124093
0.0124348
0.0125161
0.0126172
0.0127188
0.0128137
0.0128999
0.0129774
0.0130466
0.0131087
0.0131646
0.0132151
0.013261
0.0133028
0.0133412
0.0133763
0.0134086
0.0134384
0.0134659
0.0134914
0.0135151
0.013537
0.0135574
0.0135765
0.0123759
0.012273
0.0122963
0.0123762
0.0124783
0.0125824
0.0126814
0.0127725
0.012855
0.0129294
0.0129964
0.0130568
0.0131114
0.0131612
0.0132069
0.0132489
0.0132876
0.0133233
0.0133563
0.0133869
0.0134154
0.0134419
0.0134666
0.0134897
0.0135113
0.0121256
0.0121494
0.0122288
0.0123288
0.0124329
0.0125347
0.0126299
0.0127175
0.0127972
0.0128697
0.0129356
0.0129956
0.0130503
0.0131005
0.0131465
0.013189
0.0132282
0.0132645
0.0132983
0.0133297
0.013359
0.0133864
0.0134121
0.0134361
0.0119693
0.0119959
0.0120759
0.0121765
0.0122815
0.0123851
0.0124834
0.0125749
0.012659
0.0127361
0.0128066
0.0128711
0.0129303
0.0129847
0.0130347
0.0130809
0.0131237
0.0131634
0.0132003
0.0132347
0.0132668
0.013297
0.0133252
0.0133517
0.0118047
0.0118355
0.0119166
0.0120179
0.0121241
0.0122283
0.0123286
0.0124231
0.012511
0.0125922
0.0126671
0.012736
0.0127996
0.0128582
0.0129124
0.0129625
0.013009
0.0130523
0.0130926
0.0131302
0.0131655
0.0131985
0.0132295
0.0132586
0.0116319
0.0116682
0.0117507
0.0118526
0.0119596
0.0120648
0.012166
0.0122626
0.0123534
0.0124382
0.012517
0.01259
0.0126577
0.0127205
0.0127788
0.0128329
0.0128833
0.0129303
0.0129742
0.0130152
0.0130537
0.0130898
0.0131237
0.0131557
0.0114516
0.0114941
0.0115783
0.0116805
0.0117879
0.0118939
0.0119957
0.0120935
0.0121864
0.012274
0.0123561
0.0124329
0.0125044
0.0125712
0.0126334
0.0126915
0.0127457
0.0127964
0.012844
0.0128885
0.0129304
0.0129697
0.0130068
0.0130418
0.0112646
0.0113136
0.0113994
0.0115017
0.011609
0.0117155
0.0118181
0.0119161
0.0120102
0.0120999
0.0121847
0.0122645
0.0123395
0.0124099
0.0124758
0.0125377
0.0125957
0.0126501
0.0127012
0.0127493
0.0127946
0.0128374
0.0128777
0.0129158
0.0110721
0.011127
0.0112141
0.0113161
0.0114229
0.0115292
0.0116322
0.0117308
0.011825
0.0119157
0.0120025
0.0120849
0.0121629
0.0122364
0.0123058
0.0123711
0.0124326
0.0124906
0.0125453
0.0125969
0.0126457
0.0126917
0.0127353
0.0127766
0.0108748
0.0109348
0.0110227
0.0111238
0.0112295
0.011335
0.0114378
0.0115367
0.0116313
0.011722
0.0118097
0.0118939
0.0119742
0.0120506
0.0121229
0.0121914
0.0122563
0.0123176
0.0123757
0.0124306
0.0124827
0.0125321
0.0125789
0.0126234
0.0106739
0.0107378
0.0108256
0.0109251
0.011029
0.011133
0.0112349
0.0113336
0.0114283
0.0115192
0.0116067
0.0116916
0.0117735
0.0118519
0.0119269
0.0119982
0.0120661
0.0121305
0.0121917
0.0122499
0.0123051
0.0123576
0.0124076
0.0124552
0.0104702
0.0105365
0.0106232
0.0107203
0.0108216
0.0109234
0.0110238
0.0111214
0.0112158
0.0113066
0.0113941
0.0114786
0.0115609
0.0116406
0.0117174
0.011791
0.0118614
0.0119287
0.0119928
0.0120539
0.0121122
0.0121677
0.0122207
0.0122713
0.0103318
0.0104162
0.0105099
0.0106077
0.0107066
0.0108045
0.0109004
0.0109937
0.0110839
0.0111711
0.0112554
0.0113371
0.011417
0.0114947
0.0115698
0.0116422
0.0117117
0.0117783
0.0118421
0.0119032
0.0119616
0.0120174
0.0120708
0.0101246
0.0102055
0.0102947
0.0103882
0.0104831
0.0105777
0.0106711
0.0107624
0.0108514
0.0109377
0.0110215
0.0111027
0.0111817
0.0112591
0.0113348
0.0114083
0.0114794
0.011548
0.011614
0.0116774
0.0117382
0.0117967
0.0118527
0.00991636
0.00999225
0.010076
0.010164
0.0102539
0.0103443
0.0104341
0.0105226
0.0106094
0.0106941
0.0107767
0.0108571
0.0109353
0.0110117
0.0110866
0.0111602
0.011232
0.0113017
0.0113693
0.0114345
0.0114974
0.0115579
0.0116163
0.0097087
0.00977831
0.00985531
0.00993679
0.0100208
0.0101058
0.010191
0.0102756
0.0103592
0.0104414
0.0105219
0.0106007
0.0106777
0.0107529
0.0108265
0.0108988
0.0109701
0.01104
0.0111081
0.0111744
0.0112386
0.0113008
0.0113609
0.00950388
0.00956597
0.00963513
0.00970898
0.00978579
0.00986436
0.00994376
0.0100233
0.0101025
0.010181
0.0102585
0.0103347
0.0104096
0.010483
0.010555
0.0106256
0.0106952
0.0107638
0.0108314
0.0108977
0.0109625
0.0110254
0.0110866
0.00935818
0.00941847
0.00948362
0.00955219
0.00962309
0.0096955
0.00976876
0.00984236
0.00991589
0.00998901
0.0100615
0.0101331
0.0102037
0.0102732
0.0103416
0.010409
0.0104754
0.010541
0.010606
0.01067
0.0107327
0.010794
0.00915836
0.00920901
0.00926459
0.00932393
0.00938608
0.0094503
0.00951598
0.00958264
0.00964984
0.00971726
0.00978459
0.00985161
0.00991812
0.00998397
0.0100491
0.0101134
0.0101768
0.0102396
0.0103019
0.0103636
0.0104246
0.0104847
0.00897035
0.00901088
0.00905632
0.00910568
0.00915818
0.00921318
0.00927014
0.00932859
0.00938814
0.00944845
0.00950922
0.0095702
0.00963116
0.00969193
0.00975236
0.00981235
0.00987181
0.00993079
0.00998931
0.0100474
0.0101051
0.0101625
0.00882822
0.00886333
0.00890237
0.00894469
0.00898975
0.0090371
0.00908632
0.00913706
0.009189
0.00924185
0.00929536
0.0093493
0.00940348
0.00945773
0.00951191
0.00956591
0.00961971
0.00967326
0.00972651
0.00977954
0.00983247
0.00866438
0.00868961
0.00871854
0.00875067
0.00878559
0.00882292
0.00886232
0.00890349
0.00894614
0.00899002
0.00903489
0.00908053
0.00912676
0.0091734
0.0092203
0.00926735
0.00931447
0.00936154
0.00940854
0.00945545
0.00950235
0.00852134
0.00853777
0.00855746
0.00858006
0.00860527
0.00863281
0.00866242
0.00869385
0.00872687
0.00876127
0.00879685
0.0088334
0.00887076
0.00890876
0.00894725
0.00898611
0.00902524
0.00906455
0.00910396
0.00914344
0.00918299
0.00840813
0.00842014
0.00843458
0.00845125
0.00846997
0.00849055
0.00851282
0.00853662
0.00856178
0.00858813
0.00861552
0.0086438
0.00867283
0.00870246
0.00873259
0.00876312
0.00879394
0.00882497
0.00885614
0.00888741
0.00829816
0.00830467
0.00831298
0.00832297
0.00833455
0.00834762
0.00836208
0.00837781
0.00839473
0.0084127
0.00843163
0.00845139
0.00847188
0.00849298
0.00851461
0.00853666
0.00855905
0.00858169
0.0086045
0.00862743
0.00820602
0.00821072
0.00821646
0.00822319
0.0082309
0.00823954
0.00824908
0.00825946
0.00827065
0.00828256
0.00829514
0.00830831
0.008322
0.00833615
0.00835068
0.00836553
0.00838063
0.0083959
0.0084113
0.00811623
0.00812016
0.0081244
0.00812898
0.00813392
0.00813925
0.00814497
0.0081511
0.00815763
0.00816455
0.00817185
0.00817949
0.00818746
0.00819571
0.00820423
0.00821295
0.00822186
0.00823089
0.00824002
0.00803125
0.00803681
0.00804205
0.00804702
0.00805179
0.0080564
0.00806091
0.00806536
0.00806977
0.00807416
0.00807859
0.00808307
0.00808757
0.0080921
0.00809662
0.00810113
0.00810561
0.00811004
0.0079419
0.0079504
0.00795805
0.00796492
0.00797112
0.0079767
0.00798177
0.00798646
0.00799088
0.00799505
0.00799898
0.0080027
0.00800621
0.00800952
0.00801266
0.00801563
0.00801846
0.00782752
0.0078413
0.00785368
0.00786475
0.00787462
0.0078834
0.00789119
0.00789808
0.00790436
0.00791007
0.00791521
0.00791981
0.00792392
0.00792757
0.00793079
0.00793361
0.00793608
0.0077038
0.00772241
0.00773925
0.00775443
0.00776803
0.00778018
0.00779099
0.00780076
0.00780963
0.00781759
0.00782468
0.00783093
0.00783641
0.00784115
0.00784523
0.00784869
0.0075538
0.00757728
0.00759867
0.00761805
0.00763553
0.00765131
0.00766583
0.00767904
0.00769093
0.00770153
0.00771091
0.00771911
0.00772621
0.00773228
0.00773742
0.00733914
0.00736938
0.00739713
0.00742247
0.00744572
0.00746732
0.00748716
0.0075052
0.00752144
0.0075359
0.00754866
0.00755979
0.00756938
0.00757752
0.00758429
0.00710801
0.00714142
0.00717284
0.00720224
0.00722943
0.00725431
0.00727685
0.00729705
0.00731497
0.00733068
0.00734424
0.00735574
0.00736528
0.00737298
0.00682729
0.00686405
0.00689818
0.0069295
0.00695795
0.0069835
0.00700613
0.0070259
0.00704286
0.0070571
0.00706869
0.00707784
0.00708532
0.00645373
0.0064935
0.00653005
0.00656323
0.00659294
0.00661913
0.00664182
0.00666099
0.00667671
0.00668913
0.00669929
0.00670787
0.00671468
0.00606163
0.00609764
0.00612973
0.00615773
0.00618159
0.0062013
0.00621683
0.0062294
0.00624002
0.00624829
0.00625403
0.00625709
0.0056031
0.00563045
0.00565306
0.00567087
0.00568474
0.00569618
0.00570489
0.00571036
0.00571236
0.00570932
0.00569972
0.00507539
0.00508983
0.00510142
0.00511031
0.00511577
0.00511722
0.00511231
0.00510076
0.00508333
0.00506122
0.00448922
0.00449471
0.0044963
0.00449118
0.00447942
0.00446224
0.00443985
0.0044117
0.004376
0.00388979
0.00388477
0.00387435
0.00385758
0.00383362
0.00380134
0.00375967
0.00370794
0.00332683
0.00331941
0.00330347
0.00327899
0.00324521
0.00320183
0.00314816
0.00308407
0.00279706
0.00277283
0.00273928
0.00269604
0.0026426
0.00257819
0.0025027
0.00223953
0.00218824
0.00212641
0.002053
0.00196755
0.00173224
0.00166288
0.00158126
0.00148625
0.00130342
0.00120534
0.00109407
0.0135913
0.0135915
0.0135917
0.0135918
0.013592
0.0135921
0.0135923
0.0135925
0.0135926
0.0135927
0.0135929
0.013593
0.0135931
0.0135933
0.0135934
0.0135935
0.0135936
0.0135937
0.0135938
0.0135939
0.0135281
0.0135283
0.0135285
0.0135287
0.0135289
0.0135291
0.0135293
0.0135294
0.0135296
0.0135297
0.0135299
0.01353
0.0135302
0.0135303
0.0135304
0.0135305
0.0135307
0.0135308
0.0135309
0.013531
0.0134545
0.0134547
0.0134549
0.0134551
0.0134553
0.0134555
0.0134557
0.0134559
0.0134561
0.0134563
0.0134564
0.0134566
0.0134568
0.0134569
0.0134571
0.0134572
0.0134573
0.0134575
0.0134576
0.0134577
0.0133717
0.013372
0.0133722
0.0133725
0.0133727
0.0133729
0.0133732
0.0133734
0.0133736
0.0133738
0.013374
0.0133742
0.0133743
0.0133745
0.0133747
0.0133748
0.013375
0.0133752
0.0133753
0.0133754
0.0132803
0.0132806
0.0132808
0.0132811
0.0132814
0.0132816
0.0132819
0.0132821
0.0132823
0.0132825
0.0132828
0.013283
0.0132832
0.0132834
0.0132836
0.0132837
0.0132839
0.0132841
0.0132842
0.0132844
0.013179
0.0131794
0.0131797
0.0131799
0.0131802
0.0131805
0.0131808
0.013181
0.0131813
0.0131815
0.0131818
0.013182
0.0131822
0.0131824
0.0131826
0.0131828
0.013183
0.0131832
0.0131834
0.0131836
0.0130669
0.0130672
0.0130676
0.0130679
0.0130682
0.0130685
0.0130688
0.0130691
0.0130694
0.0130696
0.0130699
0.0130702
0.0130704
0.0130706
0.0130709
0.0130711
0.0130713
0.0130715
0.0130717
0.0130719
0.0129427
0.0129431
0.0129434
0.0129438
0.0129441
0.0129445
0.0129448
0.0129451
0.0129454
0.0129457
0.012946
0.0129463
0.0129465
0.0129468
0.012947
0.0129473
0.0129475
0.0129477
0.0129479
0.0129481
0.0128053
0.0128058
0.0128062
0.0128066
0.012807
0.0128073
0.0128077
0.012808
0.0128084
0.0128087
0.012809
0.0128093
0.0128096
0.0128099
0.0128101
0.0128104
0.0128106
0.0128108
0.012811
0.0128112
0.0126539
0.0126543
0.0126548
0.0126552
0.0126557
0.0126561
0.0126565
0.0126568
0.0126572
0.0126575
0.0126579
0.0126582
0.0126585
0.0126588
0.0126591
0.0126593
0.0126596
0.0126598
0.01266
0.0126603
0.0124874
0.0124879
0.0124884
0.0124888
0.0124893
0.0124897
0.0124902
0.0124906
0.012491
0.0124913
0.0124917
0.012492
0.0124924
0.0124927
0.012493
0.0124933
0.0124935
0.0124938
0.012494
0.0124942
0.012305
0.0123056
0.0123061
0.0123066
0.0123071
0.0123076
0.0123081
0.0123085
0.0123089
0.0123093
0.0123097
0.0123101
0.0123104
0.0123108
0.0123111
0.0123114
0.0123116
0.0123119
0.0123121
0.0123123
0.0121059
0.0121066
0.0121072
0.0121077
0.0121083
0.0121088
0.0121093
0.0121098
0.0121102
0.0121107
0.0121111
0.0121115
0.0121118
0.0121122
0.0121125
0.0121128
0.0121131
0.0121134
0.0121136
0.0121138
0.0118892
0.0118898
0.0118905
0.0118911
0.0118917
0.0118923
0.0118928
0.0118933
0.0118938
0.0118943
0.0118947
0.0118952
0.0118955
0.0118959
0.0118962
0.0118966
0.0118968
0.0118971
0.0118973
0.0118976
0.0116537
0.0116545
0.0116552
0.0116559
0.0116565
0.0116572
0.0116577
0.0116583
0.0116588
0.0116593
0.0116598
0.0116602
0.0116606
0.011661
0.0116614
0.0116617
0.011662
0.0116623
0.0116625
0.0116627
0.0113991
0.0113999
0.0114007
0.0114014
0.0114021
0.0114028
0.0114034
0.011404
0.0114046
0.0114051
0.0114056
0.0114061
0.0114065
0.0114069
0.0114073
0.0114076
0.0114079
0.0114082
0.0114085
0.0114087
0.0111251
0.011126
0.0111268
0.0111276
0.0111284
0.0111291
0.0111298
0.0111304
0.011131
0.0111316
0.0111321
0.0111326
0.0111331
0.0111335
0.0111339
0.0111342
0.0111346
0.0111349
0.0111351
0.0111353
0.0108323
0.0108332
0.0108341
0.010835
0.0108358
0.0108365
0.0108373
0.010838
0.0108386
0.0108392
0.0108398
0.0108403
0.0108408
0.0108413
0.0108417
0.010842
0.0108424
0.0108427
0.0108429
0.0108432
0.0105221
0.0105231
0.0105241
0.010525
0.0105259
0.0105267
0.0105275
0.0105282
0.0105289
0.0105295
0.0105301
0.0105307
0.0105312
0.0105317
0.0105321
0.0105325
0.0105328
0.0105331
0.0105334
0.0105336
0.0101981
0.0101992
0.0102002
0.0102011
0.010202
0.0102029
0.0102037
0.0102045
0.0102052
0.0102058
0.0102065
0.010207
0.0102076
0.0102081
0.0102085
0.0102089
0.0102093
0.0102096
0.0102099
0.0102101
0.00986536
0.00986643
0.00986745
0.00986842
0.00986934
0.00987021
0.00987103
0.00987181
0.00987253
0.00987322
0.00987385
0.00987444
0.00987498
0.00987548
0.00987594
0.00987635
0.00987672
0.00987704
0.00987733
0.00987757
0.00953135
0.0095324
0.0095334
0.00953436
0.00953526
0.00953612
0.00953692
0.00953768
0.0095384
0.00953906
0.00953968
0.00954026
0.00954078
0.00954127
0.00954171
0.00954211
0.00954246
0.00954278
0.00954305
0.00954327
0.00920709
0.00920808
0.00920903
0.00920992
0.00921077
0.00921156
0.00921232
0.00921302
0.00921368
0.0092143
0.00921487
0.0092154
0.00921588
0.00921633
0.00921673
0.00921708
0.0092174
0.00921768
0.0092179
0.00921804
0.00890612
0.008907
0.00890784
0.00890863
0.00890938
0.00891008
0.00891074
0.00891136
0.00891193
0.00891246
0.00891295
0.0089134
0.00891381
0.00891418
0.0089145
0.00891479
0.00891504
0.00891522
0.00891532
0.00891536
0.00864087
0.00864162
0.00864232
0.00864298
0.00864359
0.00864417
0.00864471
0.00864521
0.00864567
0.0086461
0.00864648
0.00864683
0.00864714
0.00864741
0.00864765
0.00864782
0.00864792
0.00864795
0.00864794
0.00864791
0.00842014
0.00842073
0.00842128
0.00842179
0.00842227
0.00842271
0.00842311
0.00842348
0.00842381
0.00842411
0.00842437
0.0084246
0.00842478
0.00842489
0.00842494
0.00842494
0.00842491
0.00842487
0.0084248
0.00842472
0.00824516
0.00824559
0.00824599
0.00824635
0.00824668
0.00824697
0.00824723
0.00824745
0.00824765
0.00824778
0.00824786
0.00824788
0.00824787
0.00824784
0.0082478
0.00824773
0.00824765
0.00824756
0.00824744
0.00824731
0.00811266
0.00811292
0.00811315
0.00811335
0.00811351
0.00811363
0.00811369
0.00811369
0.00811368
0.00811364
0.00811359
0.00811352
0.00811343
0.00811333
0.0081132
0.00811306
0.0081129
0.00811272
0.00811251
0.00811227
0.00802008
0.00802026
0.00802041
0.00802051
0.00802055
0.00802054
0.00802052
0.00802047
0.0080204
0.00802031
0.0080202
0.00802007
0.00801992
0.00801973
0.00801951
0.00801927
0.008019
0.0080187
0.00801837
0.00801802
0.00793738
0.00793755
0.00793768
0.00793775
0.00793775
0.00793773
0.00793768
0.00793762
0.00793754
0.00793743
0.0079373
0.00793715
0.00793697
0.00793676
0.00793652
0.00793624
0.00793594
0.00793561
0.00793526
0.00793487
0.00785044
0.00785068
0.00785089
0.00785106
0.00785115
0.00785117
0.00785116
0.00785112
0.00785106
0.00785098
0.00785088
0.00785075
0.00785061
0.00785044
0.00785024
0.00785002
0.00784976
0.00784948
0.00784916
0.00784881
0.00773997
0.00774036
0.00774071
0.00774103
0.00774131
0.00774151
0.00774165
0.00774172
0.00774172
0.0077417
0.00774165
0.00774158
0.0077415
0.00774138
0.00774125
0.0077411
0.00774092
0.00774072
0.0077405
0.00774026
0.00758757
0.00758815
0.00758869
0.00758919
0.00758965
0.00759008
0.00759044
0.00759073
0.00759096
0.00759112
0.00759121
0.00759124
0.00759123
0.00759119
0.00759114
0.00759107
0.00759097
0.00759086
0.00759073
0.00759057
0.00737654
0.0073773
0.00737804
0.00737873
0.0073794
0.00738001
0.00738057
0.00738106
0.00738149
0.00738186
0.00738217
0.00738243
0.00738263
0.00738278
0.00738288
0.00738293
0.00738292
0.00738291
0.00738287
0.00738282
0.00708912
0.00709012
0.0070911
0.00709204
0.00709293
0.00709377
0.00709456
0.0070953
0.00709599
0.00709663
0.00709724
0.0070978
0.00709831
0.00709879
0.00709923
0.00709962
0.00709998
0.0071003
0.00710059
0.00710084
0.00671765
0.00671859
0.00671951
0.00672042
0.00672131
0.00672219
0.00672306
0.00672391
0.00672475
0.00672557
0.00672639
0.00672719
0.00672798
0.00672875
0.00672952
0.00673028
0.00673102
0.00673175
0.00673248
0.00673319
0.00625725
0.00625744
0.00625771
0.00625806
0.00625848
0.00625896
0.00625952
0.00626013
0.0062608
0.00626153
0.00626231
0.00626313
0.006264
0.00626491
0.00626587
0.00626687
0.00626793
0.00626905
0.00627025
0.00627154
0.00568932
0.005689
0.00568877
0.00568865
0.00568862
0.00568879
0.0056892
0.00568984
0.00569069
0.00569174
0.00569296
0.00569435
0.00569589
0.00569757
0.00569938
0.00570131
0.00570335
0.00570549
0.00570773
0.00571005
0.00504359
0.00504297
0.00504249
0.00504214
0.00504192
0.00504181
0.00504186
0.00504225
0.00504295
0.00504394
0.00504521
0.00504673
0.0050485
0.00505049
0.00505269
0.0050551
0.00505768
0.00506044
0.00506336
0.00506644
0.00434386
0.00434258
0.00434152
0.00434067
0.00434002
0.00433956
0.0043393
0.00433921
0.00433949
0.00434026
0.00434147
0.00434309
0.0043451
0.00434747
0.00435015
0.00435313
0.00435639
0.00435991
0.00436358
0.00436738
0.00366185
0.00365986
0.00365817
0.00365677
0.00365566
0.00365483
0.00365426
0.00365395
0.0036539
0.00365443
0.0036556
0.00365735
0.00365963
0.00366239
0.0036656
0.00366921
0.00367313
0.00367722
0.00368149
0.00368591
0.00302746
0.00302488
0.00302273
0.003021
0.00301968
0.00301875
0.00301819
0.003018
0.00301845
0.00301979
0.00302195
0.00302483
0.00302836
0.00303242
0.00303676
0.00304135
0.00304618
0.00305124
0.0030565
0.00306196
0.00243511
0.00243189
0.00242931
0.00242733
0.00242592
0.00242507
0.00242474
0.0024252
0.00242692
0.00242973
0.00243348
0.00243788
0.00244267
0.00244782
0.00245329
0.00245907
0.00246512
0.00247144
0.00247799
0.00248476
0.00189077
0.00188701
0.00188414
0.0018821
0.00188085
0.00188034
0.00188083
0.001883
0.00188658
0.00189113
0.00189622
0.0019018
0.00190781
0.00191422
0.00192099
0.00192807
0.00193545
0.00194308
0.00195094
0.00195901
0.00140208
0.00139791
0.00139494
0.00139309
0.00139228
0.00139268
0.00139532
0.00139969
0.00140483
0.00141066
0.00141708
0.00142402
0.00143142
0.00143921
0.00144735
0.00145578
0.00146448
0.00147341
0.00148253
0.00149183
0.000985513
0.000979709
0.000976333
0.000974633
0.00097442
0.000977142
0.000981828
0.000987581
0.000994207
0.00100154
0.00100946
0.00101782
0.00102652
0.0010355
0.00104472
0.00105413
0.0010637
0.0010734
0.00108322
0.00109313
0.000630318
0.000631141
0.000635451
0.000641317
0.000648412
0.00065656
0.000665538
0.000675097
0.000685028
0.000695174
0.000704999
0.0007143
0.000723714
0.000733203
0.000742737
0.000752293
0.000761855
0.000771416
0.000474228
0.000484872
0.000495352
0.000505517
0.000515178
0.000524017
0.000532354
0.000540016
0.0135941
0.0135944
0.0135946
0.0135949
0.0135951
0.0135311
0.0135313
0.0135315
0.0135318
0.013532
0.0134578
0.0134581
0.0134584
0.0134586
0.0134589
0.0133756
0.0133759
0.0133763
0.0133766
0.0133769
0.0132846
0.013285
0.0132853
0.0132857
0.0132861
0.0131838
0.0131842
0.0131846
0.013185
0.0131855
0.0130721
0.0130725
0.013073
0.0130735
0.0130739
0.0129483
0.0129488
0.0129494
0.0129499
0.0129504
0.0128115
0.012812
0.0128126
0.0128131
0.0128136
0.0126605
0.0126611
0.0126617
0.0126622
0.0126628
0.0124944
0.0124951
0.0124957
0.0124963
0.0124969
0.0123126
0.0123132
0.0123138
0.0123145
0.0123151
0.012114
0.0121147
0.0121153
0.012116
0.0121166
0.0118978
0.0118984
0.0118991
0.0118998
0.0119004
0.0116629
0.0116636
0.0116643
0.0116649
0.0116656
0.0114089
0.0114096
0.0114103
0.0114109
0.0114117
0.0111355
0.0111362
0.0111369
0.0111377
0.0111384
0.0108433
0.0108441
0.0108449
0.0108456
0.0108464
0.0105338
0.0105346
0.0105354
0.0105363
0.0105372
0.0102103
0.0102112
0.010212
0.010213
0.0102139
0.00987774
0.00987862
0.00987955
0.00988053
0.00988156
0.00954341
0.00954418
0.00954507
0.00954607
0.00954713
0.00921812
0.00921865
0.00921934
0.00922019
0.00922118
0.00891533
0.00891549
0.00891585
0.0089164
0.00891711
0.00864774
0.00864763
0.0086476
0.00864773
0.00864805
0.0084244
0.00842407
0.00842382
0.00842365
0.00842355
0.00824683
0.0082463
0.00824583
0.00824544
0.00824512
0.00811152
0.00811065
0.00810996
0.00810939
0.00810892
0.00801697
0.00801552
0.0080142
0.008013
0.00801191
0.00793374
0.00793214
0.00793069
0.00792938
0.00792819
0.00784777
0.00784636
0.00784511
0.00784402
0.00784307
0.00773953
0.00773857
0.00773776
0.00773709
0.00773655
0.00759013
0.00758962
0.00758933
0.00758924
0.00758949
0.00738267
0.00738288
0.00738393
0.00738569
0.00738805
0.00710151
0.00710383
0.00710721
0.00711147
0.00711612
0.00673513
0.00673998
0.00674623
0.00675315
0.00676062
0.00627526
0.00628358
0.00629302
0.0063033
0.00631433
0.00571638
0.00572885
0.00574258
0.00575738
0.00577313
0.00507476
0.00509094
0.00510886
0.00512828
0.00514899
0.00437767
0.00439758
0.00441974
0.00444383
0.00446953
0.0036979
0.00372149
0.00374794
0.00377671
0.00380734
0.00307658
0.00310509
0.00313673
0.00317073
0.00320653
0.00250249
0.0025364
0.00257346
0.00261275
0.00265361
0.00197953
0.00201837
0.00206032
0.00210427
0.00214953
0.0015146
0.00155743
0.00160323
0.00165075
0.00169928
0.00111636
0.00116035
0.00120756
0.00125649
0.00130638
0.000792874
0.000833552
0.000876944
0.000922416
0.00096971
0.000556544
0.000589125
0.000619924
0.00065166
0.000687902
0.000373894
0.000390301
0.000405
0.000423457
0.000448014
0.000214893
0.000218874
0.000233983
0.0135953
0.0135955
0.0135957
0.0135959
0.0135962
0.0135966
0.0135969
0.0135974
0.0135978
0.0135984
0.0135991
0.0135999
0.0136008
0.0136018
0.013603
0.0136044
0.013606
0.0136078
0.0136099
0.0136124
0.0136151
0.0136183
0.0136219
0.0136261
0.0136307
0.013636
0.013642
0.0136488
0.0136563
0.0136648
0.0136742
0.0136847
0.0136963
0.0137091
0.0137231
0.0137384
0.0137551
0.0137731
0.0137925
0.0138132
0.0138351
0.013858
0.0138824
0.0139086
0.0139351
0.0139595
0.0139831
0.0140207
0.0140433
0.0140202
0.0135321
0.0135323
0.0135325
0.0135328
0.0135331
0.0135334
0.0135338
0.0135342
0.0135348
0.0135354
0.0135361
0.0135369
0.0135379
0.0135391
0.0135405
0.0135421
0.013544
0.0135463
0.013549
0.013552
0.0135556
0.0135596
0.0135642
0.0135695
0.0135754
0.0135821
0.0135896
0.0135981
0.0136075
0.013618
0.0136296
0.0136425
0.0136565
0.0136719
0.0136887
0.0137068
0.0137263
0.0137473
0.0137696
0.0137932
0.013818
0.0138434
0.0138695
0.0138966
0.0139256
0.0139521
0.0139749
0.0140127
0.0140378
0.0140212
0.0134591
0.0134593
0.0134596
0.01346
0.0134604
0.0134608
0.0134613
0.0134619
0.0134626
0.0134635
0.0134644
0.0134656
0.0134669
0.0134684
0.0134703
0.0134724
0.0134749
0.0134779
0.0134813
0.0134853
0.0134899
0.0134951
0.013501
0.0135077
0.0135152
0.0135237
0.0135332
0.0135438
0.0135556
0.0135686
0.013583
0.0135986
0.0136157
0.0136342
0.0136541
0.0136754
0.0136981
0.0137221
0.0137475
0.0137743
0.0138024
0.0138308
0.0138592
0.0138877
0.0139173
0.0139462
0.0139709
0.0140063
0.0140313
0.0140229
0.0133771
0.0133775
0.0133779
0.0133783
0.0133789
0.0133795
0.0133802
0.013381
0.0133819
0.013383
0.0133843
0.0133858
0.0133876
0.0133896
0.013392
0.0133949
0.0133982
0.0134021
0.0134065
0.0134117
0.0134175
0.0134242
0.0134317
0.0134402
0.0134498
0.0134605
0.0134724
0.0134857
0.0135003
0.0135165
0.0135341
0.0135532
0.0135739
0.0135961
0.0136197
0.0136446
0.0136708
0.0136982
0.0137266
0.0137561
0.0137865
0.0138177
0.0138492
0.0138801
0.0139103
0.013941
0.0139684
0.0140016
0.0140251
0.0140231
0.0132863
0.0132868
0.0132873
0.0132879
0.0132886
0.0132894
0.0132903
0.0132913
0.0132925
0.013294
0.0132956
0.0132975
0.0132998
0.0133025
0.0133056
0.0133093
0.0133136
0.0133186
0.0133243
0.0133308
0.0133382
0.0133467
0.0133562
0.0133669
0.0133789
0.0133923
0.0134072
0.0134237
0.0134418
0.0134617
0.0134832
0.0135064
0.0135313
0.0135577
0.0135856
0.0136147
0.0136449
0.013676
0.0137079
0.0137405
0.0137738
0.0138076
0.0138417
0.0138752
0.0139068
0.0139368
0.0139669
0.0139986
0.0140203
0.0140225
0.0131857
0.0131863
0.0131869
0.0131877
0.0131885
0.0131895
0.0131906
0.0131919
0.0131935
0.0131953
0.0131974
0.0131998
0.0132027
0.0132061
0.0132102
0.0132149
0.0132204
0.0132267
0.0132339
0.0132421
0.0132515
0.0132621
0.013274
0.0132874
0.0133024
0.013319
0.0133375
0.0133578
0.01338
0.0134041
0.0134302
0.0134582
0.0134879
0.0135192
0.0135518
0.0135856
0.0136202
0.0136553
0.0136908
0.0137266
0.0137626
0.013799
0.0138356
0.0138715
0.0139048
0.0139344
0.0139657
0.0139969
0.014017
0.0140215
0.0130742
0.0130749
0.0130757
0.0130766
0.0130776
0.0130789
0.0130803
0.0130819
0.0130838
0.0130861
0.0130887
0.0130918
0.0130955
0.0130998
0.013105
0.0131109
0.0131178
0.0131258
0.0131349
0.0131452
0.0131569
0.0131701
0.0131849
0.0132015
0.01322
0.0132405
0.0132631
0.0132879
0.0133149
0.0133441
0.0133754
0.0134088
0.0134439
0.0134806
0.0135186
0.0135575
0.0135968
0.0136362
0.0136755
0.0137145
0.0137532
0.0137918
0.0138306
0.0138687
0.0139039
0.0139337
0.0139648
0.0139984
0.0140149
0.01402
0.0129507
0.0129515
0.0129525
0.0129536
0.0129548
0.0129563
0.012958
0.01296
0.0129624
0.0129652
0.0129685
0.0129724
0.0129771
0.0129825
0.012989
0.0129965
0.0130051
0.0130151
0.0130264
0.0130393
0.0130539
0.0130702
0.0130886
0.013109
0.0131317
0.0131567
0.0131842
0.0132142
0.0132467
0.0132817
0.013319
0.0133584
0.0133996
0.0134424
0.0134861
0.0135305
0.0135749
0.0136188
0.013662
0.0137042
0.0137454
0.0137861
0.0138266
0.0138666
0.0139037
0.0139338
0.0139642
0.0140005
0.0140138
0.0140183
0.0128141
0.012815
0.0128161
0.0128174
0.0128189
0.0128207
0.0128228
0.0128252
0.0128282
0.0128316
0.0128357
0.0128406
0.0128464
0.0128533
0.0128613
0.0128707
0.0128815
0.0128938
0.0129079
0.0129239
0.0129419
0.012962
0.0129846
0.0130096
0.0130373
0.0130677
0.0131009
0.013137
0.0131758
0.0132173
0.0132613
0.0133075
0.0133554
0.0134046
0.0134546
0.0135048
0.0135545
0.0136031
0.0136503
0.0136956
0.0137392
0.0137816
0.0138236
0.0138652
0.013904
0.0139344
0.0139639
0.0140025
0.0140135
0.0140166
0.0126632
0.0126644
0.0126656
0.0126672
0.012669
0.0126711
0.0126736
0.0126766
0.0126801
0.0126844
0.0126894
0.0126955
0.0127027
0.0127112
0.0127212
0.0127328
0.0127461
0.0127614
0.0127788
0.0127984
0.0128205
0.0128452
0.0128726
0.0129031
0.0129366
0.0129733
0.0130132
0.0130563
0.0131024
0.0131513
0.0132028
0.0132564
0.0133116
0.0133678
0.0134244
0.0134806
0.0135358
0.0135892
0.0136402
0.0136886
0.0137344
0.0137784
0.0138214
0.0138643
0.0139047
0.0139353
0.0139639
0.0140033
0.0140154
0.0140147
0.0124974
0.0124986
0.0125001
0.0125019
0.012504
0.0125065
0.0125095
0.0125131
0.0125174
0.0125226
0.0125288
0.0125362
0.0125451
0.0125556
0.0125679
0.0125821
0.0125985
0.0126172
0.0126385
0.0126625
0.0126893
0.0127193
0.0127526
0.0127894
0.0128297
0.0128737
0.0129213
0.0129723
0.0130267
0.013084
0.0131438
0.0132056
0.0132686
0.0133323
0.0133958
0.0134582
0.0135189
0.013577
0.0136318
0.0136831
0.013731
0.0137762
0.01382
0.0138638
0.0139057
0.0139365
0.0139641
0.0140034
0.0140171
0.014013
0.0123156
0.012317
0.0123187
0.0123208
0.0123232
0.0123262
0.0123298
0.0123341
0.0123393
0.0123455
0.0123531
0.0123622
0.012373
0.0123859
0.0124009
0.0124183
0.0124382
0.012461
0.0124868
0.0125158
0.0125483
0.0125845
0.0126245
0.0126685
0.0127167
0.012769
0.0128253
0.0128855
0.0129491
0.0130157
0.0130847
0.0131554
0.0132269
0.0132984
0.013369
0.0134377
0.0135038
0.0135665
0.013625
0.013679
0.0137287
0.0137749
0.0138193
0.0138636
0.0139069
0.0139378
0.0139645
0.0140032
0.0140173
0.0140114
0.0121172
0.0121187
0.0121207
0.012123
0.0121258
0.0121293
0.0121335
0.0121387
0.0121449
0.0121525
0.0121616
0.0121727
0.0121859
0.0122015
0.0122198
0.0122408
0.012265
0.0122924
0.0123235
0.0123584
0.0123973
0.0124405
0.0124883
0.0125406
0.0125977
0.0126595
0.0127257
0.012796
0.01287
0.0129469
0.0130259
0.0131062
0.0131867
0.0132663
0.0133442
0.0134193
0.0134907
0.0135577
0.0136196
0.0136761
0.0137274
0.0137744
0.0138191
0.0138637
0.0139081
0.0139392
0.0139651
0.0140029
0.0140172
0.0140099
0.011901
0.0119027
0.0119049
0.0119075
0.0119108
0.0119149
0.0119199
0.011926
0.0119335
0.0119426
0.0119537
0.0119671
0.0119831
0.012002
0.012024
0.0120493
0.0120783
0.0121113
0.0121484
0.01219
0.0122363
0.0122877
0.0123442
0.0124061
0.0124732
0.0125456
0.0126228
0.0127044
0.0127898
0.012878
0.0129679
0.0130584
0.0131483
0.0132364
0.0133216
0.0134029
0.0134794
0.0135505
0.0136156
0.0136743
0.0137269
0.0137745
0.0138193
0.013864
0.0139094
0.0139406
0.0139656
0.0140026
0.014017
0.0140087
0.0116662
0.0116681
0.0116706
0.0116736
0.0116774
0.0116822
0.0116881
0.0116954
0.0117044
0.0117154
0.0117288
0.011745
0.0117642
0.0117869
0.0118132
0.0118435
0.0118781
0.0119172
0.0119613
0.0120106
0.0120654
0.0121259
0.0121925
0.012265
0.0123435
0.0124277
0.0125172
0.0126113
0.0127091
0.0128094
0.012911
0.0130123
0.013112
0.0132088
0.0133013
0.0133886
0.01347
0.0135449
0.0136127
0.0136733
0.013727
0.0137751
0.0138198
0.0138644
0.0139106
0.013942
0.0139663
0.0140023
0.0140167
0.0140076
0.0114123
0.0114144
0.0114172
0.0114207
0.0114252
0.0114308
0.0114379
0.0114466
0.0114573
0.0114705
0.0114866
0.011506
0.011529
0.011556
0.0115872
0.0116232
0.0116641
0.0117103
0.0117622
0.0118202
0.0118845
0.0119555
0.0120332
0.0121178
0.012209
0.0123064
0.0124094
0.0125172
0.0126284
0.0127418
0.0128558
0.0129684
0.0130781
0.0131835
0.0132833
0.0133764
0.0134623
0.0135405
0.0136108
0.0136729
0.0137276
0.0137759
0.0138206
0.0138649
0.0139118
0.0139434
0.0139669
0.014002
0.0140164
0.0140068
0.0111391
0.0111415
0.0111447
0.0111488
0.011154
0.0111607
0.0111691
0.0111795
0.0111923
0.011208
0.0112272
0.0112502
0.0112775
0.0113094
0.0113463
0.0113885
0.0114365
0.0114907
0.0115514
0.0116191
0.0116941
0.0117766
0.0118669
0.0119648
0.01207
0.0121821