/*--------------------------------*- C++ -*----------------------------------*\
  =========                 |
  \\      /  F ield         | OpenFOAM: The Open Source CFD Toolbox
   \\    /   O peration     | Website:  https://openfoam.org
    \\  /    A nd           | Version:  8
     \\/     M anipulation  |
\*---------------------------------------------------------------------------*/
FoamFile
{
    version     2.0;
    format      ascii;
    class       volScalarField;
    location    "1.0854";
    object      nut;
}
// * * * * * * * * * * * * * * * * * * * * * * * * * * * * * * * * * * * * * //

dimensions      [0 2 -1 0 0 0 0];

internalField   nonuniform List<scalar> 
127200
(
1.60947e-09
1.79394e-09
1.98734e-09
2.19506e-09
2.41809e-09
2.65379e-09
2.89834e-09
3.14885e-09
3.40317e-09
3.65946e-09
3.91593e-09
4.17086e-09
4.42256e-09
4.66944e-09
4.91002e-09
5.14296e-09
5.36711e-09
5.58153e-09
5.78553e-09
5.97881e-09
6.16165e-09
6.33526e-09
6.50242e-09
6.6683e-09
6.84091e-09
7.02988e-09
7.24164e-09
7.47277e-09
7.71063e-09
7.94452e-09
8.17005e-09
8.38596e-09
8.59204e-09
8.78839e-09
8.97502e-09
9.15113e-09
9.31447e-09
9.46396e-09
9.59909e-09
9.71946e-09
9.82452e-09
9.91289e-09
9.98227e-09
1.00346e-08
1.00718e-08
1.00941e-08
1.01019e-08
1.00954e-08
1.0075e-08
1.0041e-08
9.9936e-09
9.93319e-09
9.86009e-09
9.77466e-09
9.67727e-09
9.56829e-09
9.44814e-09
9.31722e-09
9.17596e-09
9.02481e-09
8.86422e-09
8.69467e-09
8.51662e-09
8.33057e-09
8.13703e-09
7.9365e-09
7.72952e-09
7.5166e-09
7.29831e-09
7.07518e-09
6.84779e-09
6.61672e-09
6.38254e-09
6.14588e-09
5.90735e-09
5.6676e-09
5.4273e-09
5.18718e-09
4.948e-09
4.71059e-09
4.47589e-09
4.24498e-09
4.01915e-09
3.79999e-09
3.58962e-09
3.39089e-09
3.20785e-09
3.04606e-09
2.91229e-09
2.81219e-09
2.74602e-09
2.70658e-09
2.6831e-09
2.66684e-09
2.65288e-09
2.63903e-09
2.62454e-09
2.60934e-09
2.59401e-09
2.5811e-09
1.51844e-07
1.57443e-07
1.63548e-07
1.70669e-07
1.78929e-07
1.87765e-07
1.96475e-07
2.04723e-07
2.12369e-07
2.19337e-07
2.25574e-07
2.31042e-07
2.3572e-07
2.39597e-07
2.42679e-07
2.44982e-07
2.46538e-07
2.47391e-07
2.47597e-07
2.47226e-07
2.46367e-07
2.45143e-07
2.43743e-07
2.42494e-07
2.41999e-07
2.43269e-07
2.47544e-07
2.55194e-07
2.64909e-07
2.75362e-07
2.86103e-07
2.9707e-07
3.08301e-07
3.19884e-07
3.31947e-07
3.44605e-07
3.57504e-07
3.70527e-07
3.83658e-07
3.9689e-07
4.10222e-07
4.2366e-07
4.37203e-07
4.50803e-07
4.64418e-07
4.78034e-07
4.91639e-07
5.05224e-07
5.18777e-07
5.32288e-07
5.45746e-07
5.5914e-07
5.72459e-07
5.85693e-07
5.98831e-07
6.11862e-07
6.24775e-07
6.3756e-07
6.50206e-07
6.62703e-07
6.75039e-07
6.87206e-07
6.99191e-07
7.10986e-07
7.2258e-07
7.33963e-07
7.45126e-07
7.56059e-07
7.66754e-07
7.772e-07
7.8739e-07
7.97314e-07
8.06964e-07
8.16331e-07
8.25408e-07
8.34188e-07
8.42662e-07
8.50824e-07
8.58667e-07
8.66183e-07
8.73368e-07
8.80214e-07
8.86716e-07
8.92868e-07
8.98664e-07
9.04099e-07
9.09167e-07
9.13861e-07
9.18173e-07
9.22097e-07
9.25626e-07
9.28754e-07
9.31477e-07
9.33794e-07
9.35703e-07
9.37205e-07
9.38303e-07
9.3901e-07
9.39359e-07
9.39433e-07
9.71209e-07
9.78198e-07
9.85865e-07
1.00569e-06
1.05644e-06
1.13426e-06
1.22227e-06
1.31527e-06
1.41233e-06
1.51328e-06
1.61808e-06
1.72672e-06
1.8392e-06
1.95551e-06
2.07567e-06
2.19968e-06
2.32755e-06
2.4593e-06
2.59498e-06
2.73462e-06
2.8783e-06
3.02611e-06
3.17819e-06
3.33468e-06
3.49572e-06
3.66133e-06
3.8313e-06
4.00505e-06
4.18183e-06
4.36104e-06
4.54233e-06
4.72544e-06
4.91007e-06
5.09599e-06
5.28292e-06
5.47055e-06
5.65874e-06
5.84742e-06
6.03649e-06
6.22576e-06
6.41508e-06
6.60428e-06
6.79321e-06
6.98171e-06
7.1696e-06
7.35675e-06
7.54299e-06
7.72818e-06
7.91218e-06
8.09486e-06
8.27608e-06
8.45571e-06
8.63364e-06
8.80973e-06
8.98386e-06
9.15592e-06
9.32579e-06
9.49336e-06
9.65851e-06
9.82115e-06
9.98115e-06
1.01384e-05
1.02929e-05
1.04444e-05
1.05929e-05
1.07382e-05
1.08804e-05
1.10192e-05
1.11547e-05
1.12868e-05
1.14153e-05
1.15401e-05
1.16613e-05
1.17787e-05
1.18923e-05
1.20021e-05
1.21078e-05
1.22096e-05
1.23073e-05
1.24008e-05
1.24902e-05
1.25754e-05
1.26562e-05
1.27328e-05
1.2805e-05
1.28729e-05
1.29363e-05
1.29952e-05
1.30496e-05
1.30995e-05
1.31449e-05
1.31856e-05
1.32218e-05
1.32534e-05
1.32803e-05
1.33026e-05
1.33203e-05
1.33333e-05
1.33418e-05
1.33458e-05
4.61641e-06
4.99031e-06
5.39386e-06
5.83138e-06
6.30348e-06
6.80489e-06
7.32926e-06
7.87326e-06
8.43516e-06
9.01367e-06
9.60765e-06
1.0216e-05
1.08376e-05
1.14713e-05
1.21162e-05
1.27711e-05
1.34349e-05
1.41067e-05
1.47854e-05
1.547e-05
1.61596e-05
1.68532e-05
1.75501e-05
1.82493e-05
1.89499e-05
1.96513e-05
2.03525e-05
2.10529e-05
2.17517e-05
2.24483e-05
2.31418e-05
2.38315e-05
2.4517e-05
2.51979e-05
2.58737e-05
2.65441e-05
2.72087e-05
2.78671e-05
2.85189e-05
2.91637e-05
2.98014e-05
3.04314e-05
3.10536e-05
3.16677e-05
3.22734e-05
3.28705e-05
3.34588e-05
3.4038e-05
3.4608e-05
3.51686e-05
3.57197e-05
3.62611e-05
3.67927e-05
3.73144e-05
3.7826e-05
3.83274e-05
3.88186e-05
3.92994e-05
3.97698e-05
4.02297e-05
4.0679e-05
4.11176e-05
4.15454e-05
4.19625e-05
4.23687e-05
4.2764e-05
4.31483e-05
4.35216e-05
4.38839e-05
4.42351e-05
4.45751e-05
4.49039e-05
4.52216e-05
4.5528e-05
4.58232e-05
4.61071e-05
4.63797e-05
4.6641e-05
4.6891e-05
4.71296e-05
4.73568e-05
4.75727e-05
4.77772e-05
4.79702e-05
4.81519e-05
4.83221e-05
4.84809e-05
4.86283e-05
4.87642e-05
4.88888e-05
4.90019e-05
4.91035e-05
4.91938e-05
4.92726e-05
4.93401e-05
4.93961e-05
4.94408e-05
4.94742e-05
4.94963e-05
4.95072e-05
1.74787e-05
1.87589e-05
2.00703e-05
2.14093e-05
2.27712e-05
2.41519e-05
2.55474e-05
2.69546e-05
2.83704e-05
2.97911e-05
3.12135e-05
3.26351e-05
3.40537e-05
3.54673e-05
3.68742e-05
3.8273e-05
3.96621e-05
4.10403e-05
4.24065e-05
4.37597e-05
4.50991e-05
4.64237e-05
4.7733e-05
4.90264e-05
5.03033e-05
5.15634e-05
5.28063e-05
5.40314e-05
5.52387e-05
5.6428e-05
5.75992e-05
5.8752e-05
5.98866e-05
6.10027e-05
6.21003e-05
6.31794e-05
6.42401e-05
6.52822e-05
6.63058e-05
6.73109e-05
6.82975e-05
6.92657e-05
7.02154e-05
7.11468e-05
7.20598e-05
7.29546e-05
7.38312e-05
7.46897e-05
7.55302e-05
7.63527e-05
7.71574e-05
7.79444e-05
7.87137e-05
7.94654e-05
8.01997e-05
8.09166e-05
8.16163e-05
8.22987e-05
8.29641e-05
8.36124e-05
8.42439e-05
8.48585e-05
8.54564e-05
8.60376e-05
8.66021e-05
8.71501e-05
8.76816e-05
8.81966e-05
8.86953e-05
8.91777e-05
8.96439e-05
9.00939e-05
9.05279e-05
9.09457e-05
9.13475e-05
9.17334e-05
9.21034e-05
9.24575e-05
9.27958e-05
9.31184e-05
9.34252e-05
9.37163e-05
9.39918e-05
9.42516e-05
9.44959e-05
9.47246e-05
9.49379e-05
9.51356e-05
9.53179e-05
9.54848e-05
9.56364e-05
9.57726e-05
9.58934e-05
9.5999e-05
9.60894e-05
9.61646e-05
9.62246e-05
9.62695e-05
9.62994e-05
9.63143e-05
4.27185e-05
4.49128e-05
4.70939e-05
4.92603e-05
5.14095e-05
5.35394e-05
5.56477e-05
5.77327e-05
5.97926e-05
6.18262e-05
6.38322e-05
6.58099e-05
6.77587e-05
6.96781e-05
7.15677e-05
7.34275e-05
7.52574e-05
7.70573e-05
7.88274e-05
8.05678e-05
8.22783e-05
8.39593e-05
8.5611e-05
8.72336e-05
8.88273e-05
9.03926e-05
9.19297e-05
9.34389e-05
9.49208e-05
9.63756e-05
9.78038e-05
9.92055e-05
0.000100581
0.000101931
0.000103256
0.000104556
0.000105831
0.000107081
0.000108307
0.00010951
0.000110689
0.000111844
0.000112976
0.000114085
0.000115172
0.000116235
0.000117277
0.000118296
0.000119293
0.000120269
0.000121222
0.000122155
0.000123066
0.000123956
0.000124825
0.000125673
0.000126501
0.000127308
0.000128095
0.000128861
0.000129608
0.000130334
0.000131041
0.000131728
0.000132395
0.000133042
0.00013367
0.000134279
0.000134868
0.000135438
0.000135989
0.000136521
0.000137033
0.000137527
0.000138002
0.000138458
0.000138895
0.000139314
0.000139714
0.000140095
0.000140457
0.000140802
0.000141127
0.000141434
0.000141723
0.000141994
0.000142246
0.000142479
0.000142695
0.000142892
0.000143071
0.000143232
0.000143375
0.0001435
0.000143607
0.000143696
0.000143767
0.00014382
0.000143855
0.000143872
7.53382e-05
7.80223e-05
8.06605e-05
8.3255e-05
8.58068e-05
8.83166e-05
9.07847e-05
9.32111e-05
9.55963e-05
9.79408e-05
0.000100245
0.00010251
0.000104735
0.000106922
0.000109071
0.000111183
0.000113258
0.000115297
0.0001173
0.000119269
0.000121203
0.000123103
0.00012497
0.000126804
0.000128606
0.000130377
0.000132116
0.000133825
0.000135503
0.000137152
0.000138772
0.000140363
0.000141925
0.000143459
0.000144966
0.000146445
0.000147897
0.000149322
0.000150721
0.000152094
0.000153441
0.000154762
0.000156058
0.000157329
0.000158574
0.000159795
0.000160991
0.000162162
0.000163309
0.000164431
0.000165529
0.000166604
0.000167655
0.000168682
0.000169685
0.000170665
0.000171622
0.000172556
0.000173467
0.000174355
0.00017522
0.000176062
0.000176882
0.000177679
0.000178453
0.000179206
0.000179936
0.000180643
0.000181329
0.000181992
0.000182634
0.000183253
0.00018385
0.000184426
0.000184979
0.000185511
0.000186021
0.00018651
0.000186976
0.000187421
0.000187845
0.000188247
0.000188627
0.000188986
0.000189324
0.00018964
0.000189934
0.000190208
0.00019046
0.00019069
0.0001909
0.000191088
0.000191255
0.000191401
0.000191526
0.00019163
0.000191713
0.000191775
0.000191816
0.000191836
0.000110219
0.000113164
0.000116056
0.000118896
0.000121688
0.000124433
0.000127132
0.000129788
0.000132399
0.000134969
0.000137497
0.000139984
0.000142432
0.000144841
0.000147212
0.000149545
0.000151841
0.0001541
0.000156323
0.00015851
0.000160663
0.000162781
0.000164865
0.000166915
0.000168933
0.000170918
0.00017287
0.000174791
0.00017668
0.000178539
0.000180366
0.000182164
0.000183931
0.000185668
0.000187376
0.000189055
0.000190704
0.000192325
0.000193917
0.000195481
0.000197017
0.000198524
0.000200004
0.000201456
0.000202881
0.000204278
0.000205648
0.000206991
0.000208306
0.000209595
0.000210857
0.000212093
0.000213302
0.000214484
0.00021564
0.00021677
0.000217874
0.000218951
0.000220003
0.000221028
0.000222028
0.000223002
0.00022395
0.000224873
0.000225769
0.000226641
0.000227486
0.000228307
0.000229101
0.000229871
0.000230615
0.000231334
0.000232027
0.000232696
0.000233339
0.000233957
0.00023455
0.000235117
0.00023566
0.000236178
0.00023667
0.000237138
0.000237581
0.000237999
0.000238392
0.00023876
0.000239103
0.000239421
0.000239715
0.000239984
0.000240228
0.000240447
0.000240642
0.000240812
0.000240958
0.000241079
0.000241176
0.000241248
0.000241296
0.00024132
0.000145883
0.000149063
0.00015219
0.000155267
0.000158297
0.000161282
0.000164223
0.000167121
0.000169976
0.000172791
0.000175565
0.0001783
0.000180995
0.000183652
0.000186271
0.000188852
0.000191397
0.000193904
0.000196376
0.000198812
0.000201212
0.000203577
0.000205907
0.000208203
0.000210465
0.000212693
0.000214887
0.000217049
0.000219177
0.000221272
0.000223335
0.000225366
0.000227365
0.000229331
0.000231266
0.000233169
0.000235041
0.000236882
0.000238691
0.000240469
0.000242217
0.000243934
0.00024562
0.000247276
0.000248901
0.000250496
0.00025206
0.000253595
0.000255099
0.000256573
0.000258018
0.000259432
0.000260817
0.000262172
0.000263497
0.000264793
0.00026606
0.000267296
0.000268504
0.000269682
0.00027083
0.000271949
0.000273039
0.0002741
0.000275132
0.000276134
0.000277108
0.000278052
0.000278967
0.000279853
0.00028071
0.000281538
0.000282338
0.000283108
0.000283849
0.000284562
0.000285246
0.0002859
0.000286526
0.000287124
0.000287692
0.000288232
0.000288743
0.000289225
0.000289679
0.000290104
0.0002905
0.000290868
0.000291207
0.000291518
0.0002918
0.000292053
0.000292278
0.000292475
0.000292644
0.000292784
0.000292896
0.000292979
0.000293035
0.000293063
0.000182562
0.000186012
0.000189412
0.000192763
0.00019607
0.000199332
0.000202552
0.000205731
0.000208868
0.000211965
0.000215022
0.00021804
0.000221019
0.00022396
0.000226862
0.000229726
0.000232553
0.000235342
0.000238094
0.00024081
0.000243488
0.00024613
0.000248736
0.000251306
0.00025384
0.000256338
0.000258801
0.000261228
0.00026362
0.000265977
0.000268299
0.000270586
0.000272839
0.000275056
0.000277239
0.000279388
0.000281503
0.000283583
0.000285629
0.000287641
0.000289619
0.000291563
0.000293473
0.000295349
0.000297191
0.000299
0.000300775
0.000302516
0.000304224
0.000305899
0.00030754
0.000309147
0.000310721
0.000312262
0.000313769
0.000315243
0.000316684
0.000318091
0.000319466
0.000320807
0.000322115
0.00032339
0.000324632
0.000325841
0.000327016
0.000328159
0.000329269
0.000330345
0.000331389
0.000332399
0.000333377
0.000334322
0.000335234
0.000336113
0.000336959
0.000337772
0.000338553
0.0003393
0.000340015
0.000340697
0.000341346
0.000341963
0.000342546
0.000343097
0.000343615
0.000344101
0.000344554
0.000344974
0.000345362
0.000345717
0.000346039
0.000346329
0.000346586
0.000346811
0.000347004
0.000347164
0.000347292
0.000347388
0.000347452
0.000347483
0.00022077
0.000224535
0.00022825
0.000231918
0.000235541
0.000239121
0.000242658
0.000246154
0.000249608
0.000253022
0.000256396
0.00025973
0.000263024
0.000266278
0.000269493
0.000272669
0.000275805
0.000278903
0.000281962
0.000284982
0.000287963
0.000290906
0.00029381
0.000296676
0.000299504
0.000302293
0.000305045
0.000307758
0.000310433
0.00031307
0.000315669
0.00031823
0.000320753
0.000323239
0.000325687
0.000328097
0.000330469
0.000332804
0.000335101
0.000337361
0.000339583
0.000341768
0.000343915
0.000346024
0.000348097
0.000350131
0.000352129
0.000354089
0.000356011
0.000357897
0.000359744
0.000361555
0.000363328
0.000365064
0.000366763
0.000368425
0.000370049
0.000371636
0.000373186
0.000374699
0.000376174
0.000377612
0.000379013
0.000380377
0.000381704
0.000382994
0.000384246
0.000385461
0.00038664
0.000387781
0.000388885
0.000389952
0.000390982
0.000391974
0.00039293
0.000393849
0.00039473
0.000395575
0.000396382
0.000397153
0.000397886
0.000398583
0.000399242
0.000399865
0.000400451
0.000400999
0.000401511
0.000401986
0.000402424
0.000402826
0.00040319
0.000403518
0.000403809
0.000404064
0.000404282
0.000404463
0.000404608
0.000404716
0.000404788
0.000404824
0.00026096
0.000265077
0.000269144
0.000273162
0.000277136
0.000281064
0.00028495
0.000288793
0.000292593
0.000296351
0.000300068
0.000303743
0.000307376
0.000310969
0.000314519
0.000318029
0.000321497
0.000324924
0.000328309
0.000331653
0.000334956
0.000338218
0.000341439
0.000344618
0.000347756
0.000350852
0.000353908
0.000356922
0.000359895
0.000362826
0.000365717
0.000368566
0.000371373
0.00037414
0.000376865
0.000379549
0.000382191
0.000384792
0.000387352
0.00038987
0.000392347
0.000394783
0.000397177
0.00039953
0.000401842
0.000404112
0.000406341
0.000408528
0.000410674
0.000412779
0.000414842
0.000416864
0.000418844
0.000420783
0.000422681
0.000424537
0.000426352
0.000428125
0.000429857
0.000431547
0.000433196
0.000434804
0.00043637
0.000437895
0.000439378
0.00044082
0.00044222
0.000443579
0.000444897
0.000446173
0.000447407
0.000448601
0.000449753
0.000450863
0.000451932
0.00045296
0.000453946
0.000454891
0.000455794
0.000456656
0.000457477
0.000458256
0.000458994
0.000459691
0.000460346
0.000460961
0.000461533
0.000462065
0.000462555
0.000463005
0.000463413
0.00046378
0.000464106
0.000464391
0.000464635
0.000464838
0.000465
0.000465121
0.000465202
0.000465242
0.000303471
0.000307969
0.000312416
0.000316813
0.000321163
0.000325466
0.000329724
0.000333937
0.000338106
0.00034223
0.000346311
0.000350347
0.00035434
0.000358288
0.000362193
0.000366054
0.00036987
0.000373643
0.000377371
0.000381055
0.000384695
0.00038829
0.000391841
0.000395347
0.000398808
0.000402225
0.000405598
0.000408925
0.000412208
0.000415445
0.000418638
0.000421786
0.000424888
0.000427946
0.000430958
0.000433926
0.000436848
0.000439724
0.000442556
0.000445342
0.000448082
0.000450778
0.000453427
0.000456032
0.00045859
0.000461104
0.000463571
0.000465993
0.00046837
0.000470701
0.000472986
0.000475225
0.000477419
0.000479567
0.00048167
0.000483726
0.000485737
0.000487702
0.000489621
0.000491495
0.000493322
0.000495104
0.00049684
0.00049853
0.000500174
0.000501772
0.000503325
0.000504832
0.000506292
0.000507707
0.000509076
0.000510399
0.000511676
0.000512908
0.000514093
0.000515233
0.000516326
0.000517374
0.000518376
0.000519332
0.000520242
0.000521107
0.000521925
0.000522698
0.000523425
0.000524106
0.000524742
0.000525331
0.000525875
0.000526374
0.000526827
0.000527234
0.000527595
0.000527912
0.000528182
0.000528408
0.000528588
0.000528722
0.000528812
0.000528857
0.000348553
0.000353458
0.000358307
0.000363105
0.000367852
0.000372551
0.000377201
0.000381804
0.00038636
0.000390868
0.00039533
0.000399744
0.000404112
0.000408433
0.000412707
0.000416933
0.000421112
0.000425244
0.000429329
0.000433365
0.000437354
0.000441295
0.000445188
0.000449032
0.000452829
0.000456577
0.000460277
0.000463928
0.00046753
0.000471084
0.000474588
0.000478044
0.000481451
0.000484808
0.000488116
0.000491375
0.000494585
0.000497745
0.000500856
0.000503917
0.000506929
0.000509891
0.000512803
0.000515665
0.000518478
0.000521241
0.000523953
0.000526616
0.000529229
0.000531792
0.000534305
0.000536767
0.00053918
0.000541542
0.000543854
0.000546116
0.000548327
0.000550489
0.0005526
0.000554661
0.000556671
0.000558631
0.000560541
0.0005624
0.000564209
0.000565967
0.000567675
0.000569333
0.00057094
0.000572497
0.000574003
0.000575459
0.000576864
0.000578219
0.000579523
0.000580777
0.000581981
0.000583134
0.000584236
0.000585288
0.00058629
0.000587241
0.000588142
0.000588993
0.000589793
0.000590542
0.000591242
0.000591891
0.00059249
0.000593038
0.000593537
0.000593985
0.000594383
0.000594731
0.000595029
0.000595277
0.000595475
0.000595624
0.000595722
0.000595772
0.000396407
0.000401737
0.00040701
0.000412227
0.000417391
0.000422502
0.000427562
0.00043257
0.000437529
0.000442437
0.000447294
0.000452101
0.000456858
0.000461565
0.000466221
0.000470826
0.00047538
0.000479883
0.000484335
0.000488736
0.000493085
0.000497382
0.000501627
0.000505821
0.000509962
0.00051405
0.000518087
0.00052207
0.000526001
0.000529879
0.000533704
0.000537476
0.000541194
0.00054486
0.000548471
0.000552029
0.000555534
0.000558984
0.000562381
0.000565724
0.000569013
0.000572248
0.000575429
0.000578555
0.000581627
0.000584645
0.000587608
0.000590517
0.000593371
0.000596171
0.000598916
0.000601607
0.000604242
0.000606823
0.00060935
0.000611821
0.000614237
0.000616599
0.000618906
0.000621157
0.000623354
0.000625496
0.000627583
0.000629615
0.000631591
0.000633513
0.000635379
0.000637191
0.000638947
0.000640648
0.000642294
0.000643885
0.000645421
0.000646902
0.000648327
0.000649698
0.000651013
0.000652273
0.000653478
0.000654628
0.000655723
0.000656763
0.000657747
0.000658677
0.000659551
0.000660371
0.000661135
0.000661845
0.000662499
0.000663099
0.000663644
0.000664134
0.000664569
0.000664949
0.000665275
0.000665546
0.000665763
0.000665925
0.000666033
0.000666087
0.000447202
0.000452977
0.000458689
0.000464342
0.000469938
0.000475478
0.000480962
0.000486392
0.000491767
0.000497088
0.000502355
0.000507568
0.000512726
0.00051783
0.00052288
0.000527875
0.000532816
0.000537701
0.000542531
0.000547306
0.000552025
0.000556688
0.000561295
0.000565847
0.000570341
0.000574779
0.000579161
0.000583485
0.000587752
0.000591962
0.000596115
0.00060021
0.000604248
0.000608228
0.000612149
0.000616013
0.000619819
0.000623566
0.000627255
0.000630886
0.000634457
0.000637971
0.000641425
0.000644821
0.000648158
0.000651435
0.000654654
0.000657814
0.000660914
0.000663955
0.000666937
0.000669859
0.000672723
0.000675526
0.00067827
0.000680955
0.00068358
0.000686145
0.000688651
0.000691097
0.000693483
0.00069581
0.000698077
0.000700284
0.000702431
0.000704519
0.000706546
0.000708514
0.000710422
0.00071227
0.000714058
0.000715786
0.000717455
0.000719063
0.000720612
0.0007221
0.000723529
0.000724898
0.000726207
0.000727456
0.000728646
0.000729775
0.000730845
0.000731854
0.000732804
0.000733695
0.000734525
0.000735296
0.000736007
0.000736658
0.00073725
0.000737783
0.000738255
0.000738669
0.000739023
0.000739318
0.000739553
0.00073973
0.000739847
0.000739905
0.000501096
0.00050733
0.000513498
0.000519602
0.000525645
0.000531627
0.00053755
0.000543414
0.000549219
0.000554966
0.000560655
0.000566285
0.000571857
0.000577371
0.000582825
0.000588221
0.000593558
0.000598836
0.000604054
0.000609212
0.000614311
0.000619349
0.000624327
0.000629244
0.0006341
0.000638896
0.00064363
0.000648303
0.000652914
0.000657463
0.00066195
0.000666376
0.000670739
0.00067504
0.000679278
0.000683453
0.000687566
0.000691615
0.000695602
0.000699525
0.000703386
0.000707182
0.000710916
0.000714585
0.000718191
0.000721734
0.000725212
0.000728627
0.000731977
0.000735264
0.000738486
0.000741644
0.000744738
0.000747768
0.000750734
0.000753635
0.000756471
0.000759244
0.000761951
0.000764595
0.000767173
0.000769687
0.000772137
0.000774522
0.000776842
0.000779098
0.000781289
0.000783415
0.000785477
0.000787473
0.000789405
0.000791273
0.000793076
0.000794813
0.000796487
0.000798095
0.000799639
0.000801118
0.000802532
0.000803882
0.000805167
0.000806387
0.000807543
0.000808634
0.000809661
0.000810622
0.00081152
0.000812353
0.000813121
0.000813825
0.000814464
0.00081504
0.000815551
0.000815997
0.00081638
0.000816699
0.000816953
0.000817144
0.000817271
0.000817334
0.000558238
0.000564947
0.000571585
0.000578155
0.000584659
0.000591097
0.000597471
0.000603782
0.00061003
0.000616215
0.000622337
0.000628396
0.000634393
0.000640326
0.000646196
0.000652003
0.000657746
0.000663426
0.000669041
0.000674592
0.000680079
0.0006855
0.000690857
0.000696148
0.000701374
0.000706534
0.000711629
0.000716657
0.000721619
0.000726514
0.000731343
0.000736105
0.000740799
0.000745427
0.000749987
0.00075448
0.000758905
0.000763262
0.000767551
0.000771773
0.000775926
0.000780011
0.000784027
0.000787975
0.000791855
0.000795666
0.000799408
0.000803081
0.000806686
0.000810221
0.000813687
0.000817085
0.000820413
0.000823672
0.000826862
0.000829982
0.000833034
0.000836016
0.000838928
0.000841771
0.000844544
0.000847248
0.000849883
0.000852448
0.000854943
0.000857369
0.000859725
0.000862012
0.000864229
0.000866376
0.000868454
0.000870462
0.000872401
0.00087427
0.000876069
0.000877798
0.000879458
0.000881049
0.00088257
0.000884021
0.000885403
0.000886715
0.000887957
0.000889131
0.000890234
0.000891269
0.000892234
0.000893129
0.000893955
0.000894712
0.0008954
0.000896018
0.000896568
0.000897048
0.00089746
0.000897802
0.000898076
0.000898281
0.000898418
0.000898486
0.000618782
0.00062598
0.000633102
0.000640151
0.000647129
0.000654036
0.000660875
0.000667645
0.000674347
0.000680982
0.000687548
0.000694047
0.000700479
0.000706842
0.000713138
0.000719365
0.000725524
0.000731615
0.000737636
0.000743588
0.000749471
0.000755284
0.000761028
0.000766701
0.000772304
0.000777836
0.000783297
0.000788688
0.000794007
0.000799254
0.00080443
0.000809534
0.000814567
0.000819527
0.000824414
0.000829229
0.000833972
0.000838641
0.000843238
0.000847762
0.000852213
0.00085659
0.000860894
0.000865124
0.000869281
0.000873364
0.000877374
0.000881309
0.000885171
0.000888958
0.000892672
0.000896312
0.000899877
0.000903368
0.000906785
0.000910127
0.000913396
0.000916589
0.000919709
0.000922754
0.000925724
0.00092862
0.000931442
0.000934188
0.000936861
0.000939458
0.000941982
0.00094443
0.000946804
0.000949104
0.000951328
0.000953479
0.000955554
0.000957555
0.000959482
0.000961333
0.000963111
0.000964813
0.000966442
0.000967995
0.000969475
0.00097088
0.00097221
0.000973466
0.000974647
0.000975755
0.000976788
0.000977746
0.000978631
0.000979441
0.000980178
0.00098084
0.000981428
0.000981943
0.000982383
0.00098275
0.000983043
0.000983262
0.000983409
0.000983481
0.000682885
0.000690586
0.000698206
0.000705747
0.000713211
0.0007206
0.000727915
0.000735156
0.000742324
0.000749419
0.000756441
0.000763391
0.000770267
0.000777071
0.000783802
0.000790459
0.000797043
0.000803553
0.000809989
0.00081635
0.000822637
0.00082885
0.000834987
0.00084105
0.000847036
0.000852947
0.000858782
0.000864541
0.000870224
0.000875829
0.000881358
0.000886811
0.000892185
0.000897483
0.000902703
0.000907846
0.00091291
0.000917897
0.000922805
0.000927636
0.000932388
0.000937061
0.000941656
0.000946173
0.00095061
0.000954969
0.000959249
0.00096345
0.000967572
0.000971615
0.000975578
0.000979462
0.000983267
0.000986993
0.000990639
0.000994206
0.000997693
0.0010011
0.00100443
0.00100768
0.00101085
0.00101394
0.00101695
0.00101988
0.00102273
0.0010255
0.00102819
0.0010308
0.00103333
0.00103579
0.00103816
0.00104045
0.00104267
0.0010448
0.00104686
0.00104883
0.00105073
0.00105254
0.00105428
0.00105594
0.00105751
0.00105901
0.00106043
0.00106177
0.00106303
0.00106421
0.00106531
0.00106633
0.00106728
0.00106814
0.00106893
0.00106963
0.00107026
0.00107081
0.00107128
0.00107167
0.00107198
0.00107222
0.00107237
0.00107245
0.000750713
0.00075893
0.00076706
0.000775105
0.000783069
0.000790951
0.000798754
0.000806478
0.000814123
0.000821689
0.000829177
0.000836587
0.000843919
0.000851172
0.000858347
0.000865443
0.00087246
0.000879398
0.000886257
0.000893036
0.000899735
0.000906354
0.000912893
0.000919351
0.000925729
0.000932025
0.00093824
0.000944373
0.000950424
0.000956394
0.000962282
0.000968087
0.000973809
0.000979449
0.000985006
0.000990481
0.000995872
0.00100118
0.0010064
0.00101154
0.0010166
0.00102157
0.00102646
0.00103127
0.00103599
0.00104063
0.00104518
0.00104965
0.00105404
0.00105834
0.00106255
0.00106668
0.00107073
0.00107469
0.00107857
0.00108236
0.00108607
0.00108969
0.00109323
0.00109669
0.00110006
0.00110334
0.00110654
0.00110966
0.00111269
0.00111563
0.00111849
0.00112127
0.00112396
0.00112657
0.00112909
0.00113153
0.00113388
0.00113615
0.00113833
0.00114043
0.00114244
0.00114437
0.00114622
0.00114798
0.00114965
0.00115125
0.00115275
0.00115418
0.00115552
0.00115677
0.00115794
0.00115903
0.00116003
0.00116095
0.00116178
0.00116253
0.0011632
0.00116378
0.00116428
0.0011647
0.00116503
0.00116528
0.00116544
0.00116552
0.000822441
0.000831186
0.000839839
0.000848402
0.000856876
0.000865264
0.000873566
0.000881783
0.000889915
0.000897963
0.000905928
0.000913808
0.000921604
0.000929316
0.000936944
0.000944488
0.000951947
0.000959321
0.00096661
0.000973814
0.000980932
0.000987965
0.000994912
0.00100177
0.00100855
0.00101523
0.00102183
0.00102835
0.00103477
0.00104111
0.00104736
0.00105353
0.0010596
0.00106559
0.00107149
0.0010773
0.00108302
0.00108865
0.00109419
0.00109965
0.00110501
0.00111029
0.00111548
0.00112057
0.00112558
0.0011305
0.00113533
0.00114007
0.00114472
0.00114928
0.00115375
0.00115813
0.00116242
0.00116662
0.00117073
0.00117475
0.00117868
0.00118252
0.00118627
0.00118993
0.0011935
0.00119698
0.00120037
0.00120368
0.00120689
0.00121001
0.00121304
0.00121598
0.00121883
0.00122159
0.00122426
0.00122685
0.00122934
0.00123174
0.00123405
0.00123627
0.00123841
0.00124045
0.00124241
0.00124427
0.00124604
0.00124773
0.00124933
0.00125083
0.00125225
0.00125358
0.00125482
0.00125597
0.00125703
0.001258
0.00125889
0.00125968
0.00126039
0.001261
0.00126153
0.00126197
0.00126232
0.00126259
0.00126276
0.00126285
0.000898257
0.000907543
0.000916731
0.000925822
0.000934819
0.000943723
0.000952535
0.000961256
0.000969886
0.000978426
0.000986876
0.000995235
0.00100351
0.00101168
0.00101977
0.00102777
0.00103568
0.0010435
0.00105123
0.00105886
0.00106641
0.00107386
0.00108122
0.00108849
0.00109567
0.00110275
0.00110974
0.00111664
0.00112344
0.00113016
0.00113678
0.0011433
0.00114973
0.00115607
0.00116231
0.00116846
0.00117452
0.00118048
0.00118634
0.00119211
0.00119779
0.00120337
0.00120886
0.00121425
0.00121955
0.00122475
0.00122985
0.00123487
0.00123978
0.0012446
0.00124933
0.00125396
0.00125849
0.00126293
0.00126728
0.00127153
0.00127568
0.00127974
0.0012837
0.00128757
0.00129135
0.00129502
0.0012986
0.00130209
0.00130548
0.00130878
0.00131198
0.00131509
0.0013181
0.00132102
0.00132384
0.00132656
0.0013292
0.00133173
0.00133417
0.00133652
0.00133877
0.00134093
0.00134299
0.00134496
0.00134684
0.00134862
0.0013503
0.00135189
0.00135339
0.00135479
0.0013561
0.00135731
0.00135843
0.00135946
0.00136039
0.00136123
0.00136197
0.00136263
0.00136318
0.00136365
0.00136402
0.0013643
0.00136448
0.00136458
0.000978362
0.000988201
0.000997935
0.00100757
0.0010171
0.00102653
0.00103586
0.00104509
0.00105423
0.00106327
0.00107222
0.00108106
0.00108982
0.00109847
0.00110703
0.00111549
0.00112386
0.00113213
0.0011403
0.00114837
0.00115635
0.00116423
0.00117201
0.00117969
0.00118727
0.00119476
0.00120215
0.00120943
0.00121662
0.00122371
0.0012307
0.00123759
0.00124438
0.00125108
0.00125767
0.00126416
0.00127055
0.00127684
0.00128303
0.00128912
0.00129511
0.001301
0.00130679
0.00131248
0.00131806
0.00132355
0.00132893
0.00133422
0.0013394
0.00134449
0.00134947
0.00135435
0.00135913
0.00136381
0.00136839
0.00137287
0.00137725
0.00138152
0.0013857
0.00138978
0.00139375
0.00139763
0.0014014
0.00140507
0.00140865
0.00141212
0.00141549
0.00141876
0.00142193
0.001425
0.00142798
0.00143085
0.00143362
0.00143629
0.00143886
0.00144133
0.0014437
0.00144597
0.00144814
0.00145022
0.00145219
0.00145406
0.00145584
0.00145751
0.00145909
0.00146056
0.00146194
0.00146322
0.0014644
0.00146548
0.00146646
0.00146734
0.00146812
0.00146881
0.0014694
0.00146988
0.00147028
0.00147057
0.00147076
0.00147086
0.00106297
0.00107338
0.00108367
0.00109385
0.00110392
0.00111389
0.00112375
0.00113351
0.00114316
0.00115271
0.00116216
0.0011715
0.00118074
0.00118988
0.00119892
0.00120785
0.00121668
0.0012254
0.00123403
0.00124254
0.00125096
0.00125927
0.00126747
0.00127557
0.00128357
0.00129146
0.00129925
0.00130693
0.00131451
0.00132198
0.00132934
0.0013366
0.00134375
0.0013508
0.00135774
0.00136458
0.00137131
0.00137793
0.00138445
0.00139086
0.00139716
0.00140336
0.00140945
0.00141544
0.00142131
0.00142709
0.00143275
0.00143831
0.00144376
0.00144911
0.00145435
0.00145948
0.00146451
0.00146943
0.00147424
0.00147895
0.00148355
0.00148805
0.00149244
0.00149672
0.0015009
0.00150497
0.00150893
0.00151279
0.00151654
0.00152019
0.00152373
0.00152717
0.0015305
0.00153373
0.00153685
0.00153986
0.00154277
0.00154558
0.00154828
0.00155087
0.00155336
0.00155575
0.00155803
0.0015602
0.00156227
0.00156424
0.0015661
0.00156786
0.00156951
0.00157106
0.00157251
0.00157385
0.00157508
0.00157622
0.00157725
0.00157817
0.001579
0.00157972
0.00158033
0.00158084
0.00158125
0.00158156
0.00158177
0.00158187
0.00115232
0.0011633
0.00117416