/*--------------------------------*- C++ -*----------------------------------*\
  =========                 |
  \\      /  F ield         | OpenFOAM: The Open Source CFD Toolbox
   \\    /   O peration     | Website:  https://openfoam.org
    \\  /    A nd           | Version:  8
     \\/     M anipulation  |
\*---------------------------------------------------------------------------*/
FoamFile
{
    version     2.0;
    format      ascii;
    class       surfaceScalarField;
    location    "1.0854";
    object      phi;
}
// * * * * * * * * * * * * * * * * * * * * * * * * * * * * * * * * * * * * * //

dimensions      [0 3 -1 0 0 0 0];

internalField   nonuniform List<scalar> 
253240
(
-2.45224e-05
2.54281e-06
2.19796e-05
-2.71297e-05
2.6073e-06
-2.97977e-05
2.668e-06
-3.25186e-05
2.7209e-06
-3.52829e-05
2.76431e-06
-3.80804e-05
2.79745e-06
-4.09002e-05
2.81982e-06
-4.37314e-05
2.8312e-06
-4.65632e-05
2.83174e-06
-4.93849e-05
2.82173e-06
-5.21865e-05
2.80163e-06
-5.49585e-05
2.77198e-06
-5.76919e-05
2.73341e-06
-6.03785e-05
2.68656e-06
-6.30106e-05
2.63209e-06
-6.55813e-05
2.5707e-06
-6.80843e-05
2.50304e-06
-7.05141e-05
2.42976e-06
-7.28656e-05
2.35148e-06
-7.51343e-05
2.26878e-06
-7.73166e-05
2.18222e-06
-7.94088e-05
2.09228e-06
-8.14083e-05
1.99945e-06
-8.33124e-05
1.90412e-06
-8.51191e-05
1.80669e-06
-8.68266e-05
1.70749e-06
-8.84334e-05
1.60681e-06
-8.99383e-05
1.50491e-06
-9.13403e-05
1.40195e-06
-9.26383e-05
1.29808e-06
-9.38318e-05
1.1935e-06
-9.49203e-05
1.08843e-06
-9.59035e-05
9.83254e-07
-9.67818e-05
8.78267e-07
-9.75554e-05
7.7362e-07
-9.82242e-05
6.68795e-07
-9.87875e-05
5.6325e-07
-9.92446e-05
4.57206e-07
-9.95958e-05
3.51124e-07
-9.98411e-05
2.45358e-07
-9.99814e-05
1.40279e-07
-0.000100018
3.66693e-08
-9.99543e-05
-6.38266e-08
-9.97941e-05
-1.60139e-07
-9.95415e-05
-2.52641e-07
-9.91995e-05
-3.41937e-07
-9.87711e-05
-4.28416e-07
-9.82588e-05
-5.12315e-07
-9.76649e-05
-5.93868e-07
-9.69917e-05
-6.7319e-07
-9.62414e-05
-7.50388e-07
-9.54158e-05
-8.25558e-07
-9.4517e-05
-8.98762e-07
-9.3547e-05
-9.70046e-07
-9.25075e-05
-1.03948e-06
-9.14004e-05
-1.10709e-06
-9.02275e-05
-1.17291e-06
-8.89905e-05
-1.23698e-06
-8.76912e-05
-1.29932e-06
-8.63313e-05
-1.35997e-06
-8.49123e-05
-1.41893e-06
-8.34361e-05
-1.47625e-06
-8.19041e-05
-1.53194e-06
-8.03181e-05
-1.58601e-06
-7.86796e-05
-1.63848e-06
-7.69903e-05
-1.68937e-06
-7.52516e-05
-1.7387e-06
-7.34651e-05
-1.78646e-06
-7.16324e-05
-1.83269e-06
-6.9755e-05
-1.87739e-06
-6.78345e-05
-1.92057e-06
-6.58722e-05
-1.96223e-06
-6.38699e-05
-2.00239e-06
-6.18288e-05
-2.04106e-06
-5.97506e-05
-2.07824e-06
-5.76366e-05
-2.11393e-06
-5.54885e-05
-2.14816e-06
-5.33075e-05
-2.18091e-06
-5.10953e-05
-2.2122e-06
-4.88533e-05
-2.24203e-06
-4.65829e-05
-2.27039e-06
-4.42856e-05
-2.29731e-06
-4.19628e-05
-2.32278e-06
-3.9616e-05
-2.34679e-06
-3.72467e-05
-2.36936e-06
-3.48562e-05
-2.39048e-06
-3.24461e-05
-2.41015e-06
-3.00177e-05
-2.42839e-06
-2.75725e-05
-2.44518e-06
-2.5112e-05
-2.46052e-06
-2.26375e-05
-2.47443e-06
-2.01506e-05
-2.48689e-06
-1.76527e-05
-2.49792e-06
-1.51452e-05
-2.50752e-06
-1.26295e-05
-2.51572e-06
-1.01069e-05
-2.52255e-06
-7.57885e-06
-2.52809e-06
-5.0464e-06
-2.53245e-06
-2.51055e-06
-2.53585e-06
-2.53882e-06
2.82709e-08
-0.000107408
8.73617e-06
0.000101215
-0.000113485
8.68398e-06
-0.000119419
8.60183e-06
-0.000125188
8.48993e-06
-0.000130774
8.35015e-06
-0.00013616
8.18423e-06
-0.000141334
7.99393e-06
-0.000146285
7.78154e-06
-0.000151003
7.54972e-06
-0.000155482
7.30105e-06
-0.000159718
7.038e-06
-0.000163709
6.76285e-06
-0.000167454
6.47774e-06
-0.000170952
6.18461e-06
-0.000174205
5.88528e-06
-0.000177215
5.58134e-06
-0.000179987
5.27426e-06
-0.000182522
4.96534e-06
-0.000184827
4.65572e-06
-0.000186904
4.34642e-06
-0.00018876
4.03829e-06
-0.0001904
3.73212e-06
-0.000191829
3.42854e-06
-0.000193053
3.1281e-06
-0.000194078
2.8313e-06
-0.000194909
2.53854e-06
-0.000195552
2.25023e-06
-0.000196014
1.96666e-06
-0.0001963
1.68806e-06
-0.000196417
1.41455e-06
-0.000196369
1.14615e-06
-0.000196164
8.82757e-07
-0.000195805
6.24504e-07
-0.000195298
3.71749e-07
-0.00019465
1.2495e-07
-0.000193866
-1.14746e-07
-0.000192956
-3.46525e-07
-0.000191928
-5.70917e-07
-0.000190788
-7.88798e-07
-0.000189542
-1.00056e-06
-0.000188196
-1.20636e-06
-0.000186753
-1.40629e-06
-0.000185216
-1.60078e-06
-0.000183586
-1.79027e-06
-0.000181863
-1.97495e-06
-0.000180051
-2.15475e-06
-0.000178149
-2.32976e-06
-0.000176161
-2.5001e-06
-0.000174089
-2.66586e-06
-0.000171935
-2.82717e-06
-0.000169702
-2.98414e-06
-0.00016739
-3.1369e-06
-0.000165004
-3.28554e-06
-0.000162543
-3.43017e-06
-0.000160012
-3.57089e-06
-0.000157411
-3.70776e-06
-0.000154743
-3.84089e-06
-0.00015201
-3.97033e-06
-0.000149213
-4.09617e-06
-0.000146355
-4.21847e-06
-0.000143436
-4.33727e-06
-0.00014046
-4.45264e-06
-0.000137427
-4.56463e-06
-0.00013434
-4.67328e-06
-0.0001312
-4.77864e-06
-0.000128008
-4.88076e-06
-0.000124767
-4.97965e-06
-0.000121479
-5.07537e-06
-0.000118143
-5.16795e-06
-0.000114763
-5.2574e-06
-0.00011134
-5.34376e-06
-0.000107875
-5.42708e-06
-0.00010437
-5.50733e-06
-0.000100827
-5.58459e-06
-9.72462e-05
-5.65883e-06
-9.363e-05
-5.73011e-06
-8.99798e-05
-5.79842e-06
-8.62969e-05
-5.86378e-06
-8.25829e-05
-5.92621e-06
-7.88392e-05
-5.98573e-06
-7.50673e-05
-6.04234e-06
-7.12685e-05
-6.09605e-06
-6.74444e-05
-6.14688e-06
-6.35964e-05
-6.19483e-06
-5.97258e-05
-6.23991e-06
-5.58341e-05
-6.28213e-06
-5.19228e-05
-6.32149e-06
-4.79932e-05
-6.35799e-06
-4.40468e-05
-6.39163e-06
-4.00849e-05
-6.42242e-06
-3.6109e-05
-6.45033e-06
-3.21205e-05
-6.47537e-06
-2.81209e-05
-6.49752e-06
-2.41117e-05
-6.51673e-06
-2.00944e-05
-6.53298e-06
-1.60708e-05
-6.54618e-06
-1.20427e-05
-6.55622e-06
-8.01216e-06
-6.56296e-06
-3.98182e-06
-6.56619e-06
-6.56556e-06
4.49228e-08
-0.000187661
1.44262e-05
0.000181971
-0.000192976
1.39991e-05
-0.000197914
1.354e-05
-0.000202476
1.30522e-05
-0.000206668
1.25419e-05
-0.000210498
1.20145e-05
-0.000213978
1.1474e-05
-0.000217121
1.09242e-05
-0.00021994
1.03686e-05
-0.000222449
9.81035e-06
-0.000224663
9.25231e-06
-0.000226597
8.69677e-06
-0.000228265
8.14573e-06
-0.000229682
7.60086e-06
-0.00023086
7.06351e-06
-0.000231813
6.53478e-06
-0.000232555
6.01558e-06
-0.000233096
5.50654e-06
-0.000233448
5.00816e-06
-0.000233623
4.52082e-06
-0.000233629
4.04472e-06
-0.000233477
3.57997e-06
-0.000233175
3.12662e-06
-0.000232732
2.68461e-06
-0.000232154
2.25388e-06
-0.00023145
1.83426e-06
-0.000230625
1.42563e-06
-0.000229686
1.02778e-06
-0.000228639
6.40433e-07
-0.000227488
2.63495e-07
-0.000226239
-1.02857e-07
-0.000224898
-4.58382e-07
-0.00022347
-8.03389e-07
-0.000221959
-1.13854e-06
-0.00022037
-1.46434e-06
-0.000218703
-1.78161e-06
-0.000216958
-2.09134e-06
-0.000215135
-2.39396e-06
-0.000213235
-2.68951e-06
-0.000211257
-2.97812e-06
-0.000209203
-3.25996e-06
-0.000207075
-3.53519e-06
-0.000204871
-3.80398e-06
-0.000202595
-4.06634e-06
-0.000200248
-4.32233e-06
-0.000197831
-4.57199e-06
-0.000195345
-4.81545e-06
-0.000192792
-5.05283e-06
-0.000190174
-5.28425e-06
-0.000187491
-5.50986e-06
-0.000184746
-5.72974e-06
-0.000181938
-5.94407e-06
-0.000179071
-6.15292e-06
-0.000176145
-6.35643e-06
-0.000173161
-6.55469e-06
-0.000170121
-6.74778e-06
-0.000167026
-6.93581e-06
-0.000163878
-7.11885e-06
-0.000160677
-7.29698e-06
-0.000157425
-7.47027e-06
-0.000154123
-7.63879e-06
-0.000150773
-7.80258e-06
-0.000147376
-7.96173e-06
-0.000143933
-8.11625e-06
-0.000140446
-8.26623e-06
-0.000136915
-8.41168e-06
-0.000133342
-8.55268e-06
-0.000129728
-8.68923e-06
-0.000126075
-8.82138e-06
-0.000122383
-8.94916e-06
-0.000118654
-9.07261e-06
-0.000114889
-9.19175e-06
-0.00011109
-9.30659e-06
-0.000107257
-9.41719e-06
-0.000103393
-9.52353e-06
-9.94972e-05
-9.62566e-06
-9.5572e-05
-9.72358e-06
-9.16185e-05
-9.81732e-06
-8.76378e-05
-9.9069e-06
-8.36312e-05
-9.9923e-06
-7.96e-05
-1.00736e-05
-7.55453e-05
-1.01507e-05
-7.14685e-05
-1.02237e-05
-6.73707e-05
-1.02926e-05
-6.32532e-05
-1.03574e-05
-5.91173e-05
-1.04181e-05
-5.49641e-05
-1.04747e-05
-5.07949e-05
-1.05272e-05
-4.66109e-05
-1.05756e-05
-4.24134e-05
-1.06199e-05
-3.82035e-05
-1.06602e-05
-3.39825e-05
-1.06964e-05
-2.97516e-05
-1.07284e-05
-2.5512e-05
-1.07564e-05
-2.12648e-05
-1.07802e-05
-1.70112e-05
-1.07998e-05
-1.27522e-05
-1.08152e-05
-8.48877e-06
-1.08264e-05
-4.2219e-06
-1.08331e-05
-1.08352e-05
4.77134e-08
-0.00023324
1.73162e-05
0.00023035
-0.000235776
1.65353e-05
-0.000237985
1.57487e-05
-0.000239892
1.49592e-05
-0.000241522
1.41719e-05
-0.000242898
1.33908e-05
-0.000244042
1.26186e-05
-0.000244976
1.18575e-05
-0.000245716
1.11093e-05
-0.000246281
1.03752e-05
-0.000246685
9.65612e-06
-0.000246941
8.9527e-06
-0.000247061
8.2653e-06
-0.000247054
7.59412e-06
-0.00024693
6.93914e-06
-0.000246695
6.30028e-06
-0.000246357
5.67732e-06
-0.00024592
5.06998e-06
-0.00024539
4.47794e-06
-0.00024477
3.90083e-06
-0.000244064
3.33826e-06
-0.000243273
2.78982e-06
-0.000242402
2.2551e-06
-0.000241451
1.73373e-06
-0.000240422
1.2253e-06
-0.000239318
7.29423e-07
-0.000238138
2.45747e-07
-0.000236884
-2.26058e-07
-0.000235557
-6.86278e-07
-0.000234158
-1.13528e-06
-0.000232688
-1.57354e-06
-0.000231144
-2.00175e-06
-0.000229527
-2.42039e-06
-0.000227836
-2.82976e-06
-0.00022607
-3.23023e-06
-0.00022423
-3.62219e-06
-0.000222315
-4.00585e-06
-0.000220328
-4.38133e-06
-0.000218269
-4.74866e-06
-0.000216139
-5.108e-06
-0.000213939
-5.45945e-06
-0.000211671
-5.80317e-06
-0.000209336
-6.13931e-06
-0.000206934
-6.46796e-06
-0.000204467
-6.78927e-06
-0.000201936
-7.10335e-06
-0.000199341
-7.41028e-06
-0.000196684
-7.71019e-06
-0.000193965
-8.0032e-06
-0.000191185
-8.28939e-06
-0.000188346
-8.56887e-06
-0.000185449
-8.84175e-06
-0.000182493
-9.10813e-06
-0.000179482
-9.36809e-06
-0.000176415
-9.62171e-06
-0.000173293
-9.86909e-06
-0.000170119
-1.01103e-05
-0.000166892
-1.03454e-05
-0.000163615
-1.05745e-05
-0.000160287
-1.07976e-05
-0.000156912
-1.10148e-05
-0.000153488
-1.12261e-05
-0.000150018
-1.14316e-05
-0.000146503
-1.16313e-05
-0.000142944
-1.18254e-05
-0.000139342
-1.20137e-05
-0.000135698
-1.21964e-05
-0.000132014
-1.23735e-05
-0.00012829
-1.2545e-05
-0.000124529
-1.27109e-05
-0.00012073
-1.28713e-05
-0.000116895
-1.30262e-05
-0.000113026
-1.31756e-05
-0.000109124
-1.33196e-05
-0.000105189
-1.34581e-05
-0.000101224
-1.35911e-05
-9.72288e-05
-1.37188e-05
-9.32051e-05
-1.3841e-05
-8.91542e-05
-1.39579e-05
-8.50771e-05
-1.40693e-05
-8.09753e-05
-1.41754e-05
-7.68498e-05
-1.42762e-05
-7.2702e-05
-1.43716e-05
-6.8533e-05
-1.44616e-05
-6.43441e-05
-1.45463e-05
-6.01365e-05
-1.46257e-05
-5.59115e-05
-1.46997e-05
-5.16702e-05
-1.47684e-05
-4.7414e-05
-1.48318e-05
-4.31441e-05
-1.48899e-05
-3.88616e-05
-1.49427e-05
-3.45679e-05
-1.49901e-05
-3.02641e-05
-1.50322e-05
-2.59514e-05
-1.5069e-05
-2.1631e-05
-1.51005e-05
-1.73041e-05
-1.51267e-05
-1.29717e-05
-1.51476e-05
-8.63493e-06
-1.51632e-05
-4.29459e-06
-1.51734e-05
-1.51783e-05
4.85649e-08
-0.000250905
1.83482e-05
0.000249873
-0.000251771
1.7401e-05
-0.00025249
1.64681e-05
-0.000253081
1.555e-05
-0.000253558
1.46483e-05
-0.000253931
1.37638e-05
-0.000254209
1.28971e-05
-0.0002544
1.20485e-05
-0.000254509
1.1218e-05
-0.000254539
1.04055e-05
-0.000254494
9.61089e-06
-0.000254375
8.83381e-06
-0.000254184
8.07398e-06
-0.000253921
7.33102e-06
-0.000253586
6.60454e-06
-0.00025318
5.89414e-06
-0.000252702
5.19942e-06
-0.000252152
4.51996e-06
-0.000251529
3.85536e-06
-0.000250834
3.20524e-06
-0.000250065
2.56919e-06
-0.000249222
1.94684e-06
-0.000248304
1.33783e-06
-0.000247313
7.41804e-07
-0.000246246
1.58434e-07
-0.000245104
-4.12665e-07
-0.000243886
-9.71802e-07
-0.000242593
-1.51934e-06
-0.000241223
-2.05564e-06
-0.000239778
-2.58103e-06
-0.000238255
-3.09591e-06
-0.000236656
-3.60057e-06
-0.000234982
-4.09525e-06
-0.000233231
-4.5801e-06
-0.000231406
-5.05534e-06
-0.000229507
-5.5212e-06
-0.000227535
-5.97784e-06
-0.000225491
-6.42543e-06
-0.000223376
-6.8641e-06
-0.00022119
-7.294e-06
-0.000218934
-7.71521e-06
-0.000216609
-8.1279e-06
-0.000214216
-8.53216e-06
-0.000211756
-8.92807e-06
-0.00020923
-9.31577e-06
-0.000206638
-9.69531e-06
-0.000203981
-1.00668e-05
-0.000201261
-1.04304e-05
-0.000198478
-1.0786e-05
-0.000195634
-1.11339e-05
-0.000192728
-1.14741e-05
-0.000189764
-1.18066e-05
-0.00018674
-1.21316e-05
-0.000183659
-1.24492e-05
-0.000180521
-1.27593e-05
-0.000177328
-1.30621e-05
-0.000174081
-1.33577e-05
-0.00017078
-1.3646e-05
-0.000167428
-1.39272e-05
-0.000164024
-1.42012e-05
-0.00016057
-1.44682e-05
-0.000157068
-1.47282e-05
-0.000153519
-1.49812e-05
-0.000149923
-1.52273e-05
-0.000146282
-1.54664e-05
-0.000142597
-1.56987e-05
-0.000138869
-1.59242e-05
-0.0001351
-1.61428e-05
-0.00013129
-1.63546e-05
-0.000127441
-1.65597e-05
-0.000123554
-1.6758e-05
-0.000119631
-1.69496e-05
-0.000115672
-1.71345e-05
-0.000111679
-1.73126e-05
-0.000107653
-1.74841e-05
-0.000103595
-1.76489e-05
-9.95068e-05
-1.78071e-05
-9.53893e-05
-1.79586e-05
-9.12437e-05
-1.81035e-05
-8.70713e-05
-1.82417e-05
-8.28734e-05
-1.83733e-05
-7.86513e-05
-1.84983e-05
-7.44063e-05
-1.86166e-05
-7.01395e-05
-1.87284e-05
-6.58522e-05
-1.88336e-05
-6.15458e-05
-1.89321e-05
-5.72214e-05
-1.90241e-05
-5.28804e-05
-1.91094e-05
-4.8524e-05
-1.91882e-05
-4.41535e-05
-1.92604e-05
-3.97702e-05
-1.9326e-05
-3.53753e-05
-1.9385e-05
-3.097e-05
-1.94374e-05
-2.65558e-05
-1.94833e-05
-2.21337e-05
-1.95226e-05
-1.77051e-05
-1.95553e-05
-1.32712e-05
-1.95815e-05
-8.83335e-06
-1.96011e-05
-4.39265e-06
-1.96141e-05
-1.96206e-05
4.96328e-08
-0.000260047
1.89134e-05
0.000259482
-0.000260545
1.78987e-05
-0.000260978
1.69013e-05
-0.00026135
1.59215e-05
-0.000261661
1.49592e-05
-0.000261911
1.40143e-05
-0.000262101
1.30866e-05
-0.000262228
1.2176e-05
-0.000262292
1.12822e-05
-0.000262292
1.0405e-05
-0.000262225
9.54399e-06
-0.00026209
8.69904e-06
-0.000261886
7.86981e-06
-0.000261611
7.05602e-06
-0.000261264
6.2574e-06
-0.000260843
5.47366e-06
-0.000260348
4.7045e-06
-0.000259778
3.94964e-06
-0.000259131
3.20882e-06
-0.000258408
2.48175e-06
-0.000257607
1.76816e-06
-0.000256728
1.06777e-06
-0.00025577
3.80351e-07
-0.000254734
-2.9442e-07
-0.000253619
-9.56786e-07
-0.000252425
-1.60699e-06
-0.000251151
-2.24531e-06
-0.000249798
-2.87195e-06
-0.000248367
-3.48717e-06
-0.000246857
-4.0912e-06
-0.000245268
-4.68425e-06
-0.000243602
-5.26657e-06
-0.000241859
-5.8383e-06
-0.00024004
-6.39965e-06
-0.000238144
-6.95075e-06
-0.000236174
-7.49175e-06
-0.000234129
-8.02282e-06
-0.00023201
-8.54406e-06
-0.000229819
-9.05557e-06
-0.000227555
-9.5575e-06
-0.000225221
-1.00499e-05
-0.000222816
-1.05329e-05
-0.000220341
-1.10066e-05
-0.000217798
-1.14711e-05
-0.000215188
-1.19264e-05
-0.00021251
-1.23726e-05
-0.000209767
-1.28099e-05
-0.000206959
-1.32382e-05
-0.000204088
-1.36577e-05
-0.000201153
-1.40684e-05
-0.000198157
-1.44703e-05
-0.0001951
-1.48636e-05
-0.000191983
-1.52484e-05
-0.000188808
-1.56245e-05
-0.000185575
-1.59922e-05
-0.000182286
-1.63515e-05
-0.000178941
-1.67024e-05
-0.000175542
-1.70449e-05
-0.00017209
-1.73792e-05
-0.000168586
-1.77052e-05
-0.000165031
-1.80229e-05
-0.000161427
-1.83325e-05
-0.000157775
-1.86339e-05
-0.000154075
-1.89272e-05
-0.000150329
-1.92123e-05
-0.000146538
-1.94894e-05
-0.000142704
-1.97585e-05
-0.000138827
-2.00195e-05
-0.000134909
-2.02725e-05
-0.000130952
-2.05174e-05
-0.000126955
-2.07544e-05
-0.000122921
-2.09834e-05
-0.000118851
-2.12045e-05
-0.000114746
-2.14176e-05
-0.000110608
-2.16227e-05
-0.000106437
-2.18199e-05
-0.000102235
-2.20092e-05
-9.80026e-05
-2.21906e-05
-9.37421e-05
-2.2364e-05
-8.94542e-05
-2.25296e-05
-8.51403e-05
-2.26872e-05
-8.08016e-05
-2.28369e-05
-7.64395e-05
-2.29788e-05
-7.20552e-05
-2.31127e-05
-6.765e-05
-2.32387e-05
-6.32253e-05
-2.33569e-05
-5.87822e-05
-2.34671e-05
-5.43222e-05
-2.35695e-05
-4.98464e-05
-2.3664e-05
-4.53563e-05
-2.37505e-05
-4.0853e-05
-2.38292e-05
-3.6338e-05
-2.39001e-05
-3.18124e-05
-2.3963e-05
-2.72776e-05
-2.40181e-05
-2.2735e-05
-2.40653e-05
-1.81857e-05
-2.41046e-05
-1.36312e-05
-2.4136e-05
-9.07273e-06
-2.41595e-05
-4.51159e-06
-2.41752e-05
-2.41831e-05
5.08777e-08
-0.00026947
1.94511e-05
0.000268933
-0.000269954
1.83824e-05
-0.000270381
1.73287e-05
-0.00027075
1.62905e-05
-0.000271059
1.52676e-05
-0.000271305
1.42601e-05
-0.000271486
1.32678e-05
-0.0002716
1.22905e-05
-0.000271646
1.13282e-05
-0.000271622
1.03807e-05
-0.000271526
9.44803e-06
-0.000271357
8.52987e-06
-0.000271113
7.62616e-06
-0.000270794
6.73674e-06
-0.000270398
5.86145e-06
-0.000269924
5.00013e-06
-0.000269373
4.15262e-06
-0.000268742
3.31875e-06
-0.000268031
2.49835e-06
-0.000267241
1.69125e-06
-0.00026637
8.97264e-07
-0.000265418
1.16225e-07
-0.000264386
-6.5204e-07
-0.000263273
-1.40774e-06
-0.000262078
-2.15101e-06
-0.000260803
-2.88205e-06
-0.000259448
-3.601e-06
-0.000258011
-4.30804e-06
-0.000256495
-5.00334e-06
-0.000254899
-5.68707e-06
-0.000253224
-6.35937e-06
-0.00025147
-7.02039e-06
-0.000249639
-7.67027e-06
-0.000247729
-8.30912e-06
-0.000245743
-8.93707e-06
-0.00024368
-9.55421e-06
-0.000241542
-1.01607e-05
-0.00023933
-1.07565e-05
-0.000237044
-1.13419e-05
-0.000234684
-1.19168e-05
-0.000232253
-1.24814e-05
-0.00022975
-1.30357e-05
-0.000227177
-1.35798e-05
-0.000224534
-1.41138e-05
-0.000221823
-1.46378e-05
-0.000219044
-1.51517e-05
-0.000216198
-1.56556e-05
-0.000213286
-1.61497e-05
-0.00021031
-1.66339e-05
-0.00020727
-1.71083e-05
-0.000204167
-1.7573e-05
-0.000201003
-1.80279e-05
-0.000197778
-1.84732e-05
-0.000194494
-1.89089e-05
-0.000191151
-1.9335e-05
-0.000187751
-1.97516e-05
-0.000184295
-2.01586e-05
-0.000180784
-2.05562e-05
-0.000177218
-2.09443e-05
-0.000173601
-2.1323e-05
-0.000169931
-2.16923e-05
-0.000166212
-2.20522e-05
-0.000162443
-2.24028e-05
-0.000158626
-2.2744e-05
-0.000154762
-2.30759e-05
-0.000150853
-2.33985e-05
-0.0001469
-2.37118e-05
-0.000142903
-2.40159e-05
-0.000138865
-2.43107e-05
-0.000134786
-2.45962e-05
-0.000130668
-2.48725e-05
-0.000126512
-2.51396e-05
-0.000122319
-2.53974e-05
-0.000118091
-2.5646e-05
-0.000113828
-2.58853e-05
-0.000109533
-2.61155e-05
-0.000105206
-2.63364e-05
-0.000100848
-2.65482e-05
-9.64613e-05
-2.67507e-05
-9.20469e-05
-2.6944e-05
-8.7606e-05
-2.71281e-05
-8.31399e-05
-2.7303e-05
-7.865e-05
-2.74687e-05
-7.41375e-05
-2.76252e-05
-6.96038e-05
-2.77724e-05
-6.50502e-05
-2.79105e-05
-6.04779e-05
-2.80394e-05
-5.58884e-05
-2.8159e-05
-5.12829e-05
-2.82695e-05
-4.66627e-05
-2.83707e-05
-4.20293e-05
-2.84627e-05
-3.73838e-05
-2.85455e-05
-3.27277e-05
-2.86191e-05
-2.80622e-05
-2.86835e-05
-2.33887e-05
-2.87387e-05
-1.87085e-05
-2.87847e-05
-1.4023e-05
-2.88215e-05
-9.33352e-06
-2.88491e-05
-4.64133e-06
-2.88674e-05
-2.88766e-05
5.21827e-08
-0.00028024
1.99829e-05
0.000279708
-0.000280711
1.88536e-05
-0.000281119
1.77371e-05
-0.000281463
1.66339e-05
-0.000281739
1.55441e-05
-0.000281947
1.44677e-05
-0.000282084
1.34048e-05
-0.000282149
1.23555e-05
-0.00028214
1.13197e-05
-0.000282057
1.02975e-05
-0.000281898
9.28878e-06
-0.000281661
8.29361e-06
-0.000281347
7.31193e-06
-0.000280954
6.3437e-06
-0.000280482
5.38886e-06
-0.000279929
4.44734e-06
-0.000279295
3.51911e-06
-0.000278581
2.60405e-06
-0.000277784
1.70209e-06
-0.000276906
8.13146e-07
-0.000275946
-6.28727e-08
-0.000274904
-9.2607e-07
-0.000273779
-1.77654e-06
-0.000272573
-2.61439e-06
-0.000271284
-3.43973e-06
-0.000269913
-4.25262e-06
-0.000268461
-5.05322e-06
-0.000266928
-5.84159e-06
-0.000265313
-6.61787e-06
-0.000263618
-7.38213e-06
-0.000261843
-8.13448e-06
-0.000259988
-8.87503e-06
-0.000258055
-9.60384e-06
-0.000256043
-1.0321e-05
-0.000253953
-1.10266e-05
-0.000251787
-1.17207e-05
-0.000249544
-1.24034e-05
-0.000247226
-1.30748e-05
-0.000244833
-1.37348e-05
-0.000242366
-1.43836e-05
-0.000239826
-1.50212e-05
-0.000237214
-1.56477e-05
-0.000234531
-1.62631e-05
-0.000231777
-1.68675e-05
-0.000228954
-1.74609e-05
-0.000226062
-1.80433e-05
-0.000223103
-1.86148e-05
-0.000220078
-1.91754e-05
-0.000216986
-1.97251e-05
-0.000213831
-2.02641e-05
-0.000210611
-2.07922e-05
-0.00020733
-2.13096e-05
-0.000203987
-2.18162e-05
-0.000200583
-2.23122e-05
-0.000197121
-2.27974e-05
-0.0001936
-2.3272e-05
-0.000190023
-2.3736e-05
-0.00018639
-2.41893e-05
-0.000182702
-2.4632e-05
-0.000178961
-2.50641e-05
-0.000175168
-2.54857e-05
-0.000171323
-2.58966e-05
-0.000167429
-2.6297e-05
-0.000163486
-2.66869e-05
-0.000159496
-2.70662e-05
-0.000155459
-2.7435e-05
-0.000151378
-2.77932e-05
-0.000147253
-2.8141e-05
-0.000143085
-2.84782e-05
-0.000138877
-2.88049e-05
-0.000134628
-2.91211e-05
-0.000130341
-2.94267e-05
-0.000126016
-2.97219e-05
-0.000121656
-3.00065e-05
-0.000117261
-3.02807e-05
-0.000112832
-3.05443e-05
-0.000108371
-3.07974e-05
-0.000103879
-3.10399e-05
-9.93578e-05
-3.1272e-05
-9.48083e-05
-3.14935e-05
-9.02319e-05
-3.17045e-05
-8.56299e-05
-3.1905e-05
-8.10037e-05
-3.20949e-05
-7.63546e-05
-3.22743e-05
-7.16839e-05
-3.24432e-05
-6.69929e-05
-3.26015e-05
-6.2283e-05
-3.27492e-05
-5.75556e-05
-3.28865e-05
-5.28119e-05
-3.30131e-05
-4.80534e-05
-3.31292e-05
-4.32813e-05
-3.32348e-05
-3.84971e-05
-3.33298e-05
-3.3702e-05
-3.34142e-05
-2.88974e-05
-3.34881e-05
-2.40846e-05
-3.35515e-05
-1.92651e-05
-3.36042e-05
-1.44402e-05
-3.36464e-05
-9.61123e-06
-3.36781e-05
-4.77953e-06
-3.36991e-05
-3.37096e-05
5.35149e-08
-0.000292036
2.04813e-05
0.000291537
-0.000292467
1.92846e-05
-0.000292829
1.80991e-05
-0.00029312
1.69252e-05
-0.000293339
1.57632e-05
-0.000293485
1.46133e-05
-0.000293555
1.34755e-05
-0.00029355
1.23502e-05
-0.000293468
1.12373e-05
-0.000293307
1.0137e-05
-0.000293068
9.04933e-06
-0.000292748
7.9744e-06
-0.000292349
6.91225e-06
-0.000291868
5.86293e-06
-0.000291306
4.82645e-06
-0.000290661
3.80284e-06
-0.000289934
2.79211e-06
-0.000289124
1.79425e-06
-0.000288231
8.0926e-07
-0.000287255
-1.62868e-07
-0.000286196
-1.12218e-06
-0.000285053
-2.06869e-06
-0.000283828
-3.00244e-06
-0.000282519
-3.92345e-06
-0.000281126
-4.83179e-06
-0.000279652
-5.72748e-06
-0.000278094
-6.61056e-06
-0.000276455
-7.48111e-06
-0.000274733
-8.33917e-06
-0.000272931
-9.18477e-06
-0.000271047
-1.0018e-05
-0.000269083
-1.08388e-05
-0.00026704
-1.16474e-05
-0.000264917
-1.24437e-05
-0.000262716
-1.32278e-05
-0.000260437
-1.39997e-05
-0.000258081
-1.47594e-05
-0.000255649
-1.55071e-05
-0.000253141
-1.62426e-05
-0.000250559
-1.69661e-05
-0.000247902
-1.76776e-05
-0.000245173
-1.83771e-05
-0.000242371
-1.90647e-05
-0.000239499
-1.97402e-05
-0.000236556
-2.04039e-05
-0.000233543
-2.10556e-05
-0.000230462
-2.16955e-05
-0.000227314
-2.23235e-05
-0.0002241
-2.29396e-05
-0.00022082
-2.35438e-05
-0.000217476
-2.41363e-05
-0.000214069
-2.47169e-05
-0.0002106
-2.52856e-05
-0.000207069
-2.58426e-05
-0.000203479
-2.63878e-05
-0.00019983
-2.69212e-05
-0.000196123
-2.74428e-05
-0.000192359
-2.79526e-05
-0.000188541
-2.84507e-05
-0.000184668
-2.8937e-05
-0.000180742
-2.94115e-05
-0.000176765
-2.98742e-05
-0.000172736
-3.03251e-05
-0.000168659
-3.07643e-05
-0.000164534
-3.11917e-05
-0.000160361
-3.16074e-05
-0.000156143
-3.20112e-05
-0.000151881
-3.24033e-05
-0.000147576
-3.27835e-05
-0.000143228
-3.3152e-05
-0.000138841
-3.35087e-05
-0.000134414
-3.38536e-05
-0.000129949
-3.41866e-05
-0.000125448
-3.45079e-05
-0.000120911
-3.48173e-05
-0.000116341
-3.51149e-05
-0.000111737
-3.54006e-05
-0.000107103
-3.56745e-05
-0.000102438
-3.59366e-05
-9.7745e-05
-3.61868e-05
-9.30244e-05
-3.64251e-05
-8.82779e-05
-3.66515e-05
-8.35066e-05
-3.68661e-05
-7.87121e-05
-3.70688e-05
-7.38957e-05
-3.72596e-05
-6.90587e-05
-3.74385e-05
-6.42025e-05
-3.76055e-05
-5.93284e-05
-3.77605e-05
-5.44378e-05
-3.79037e-05
-4.95321e-05
-3.80349e-05
-4.46127e-05
-3.81543e-05
-3.96808e-05
-3.82616e-05
-3.4738e-05
-3.83571e-05
-2.97855e-05
-3.84406e-05
-2.48247e-05
-3.85122e-05
-1.9857e-05
-3.85719e-05
-1.48839e-05
-3.86196e-05
-9.90659e-06
-3.86553e-05
-4.92654e-06
-3.86792e-05
-3.86911e-05
5.48733e-08
-0.000304649
2.09302e-05
0.0003042
-0.000305025
1.96608e-05
-0.000305327
1.84013e-05
-0.000305554
1.71522e-05
-0.000305705
1.59139e-05
-0.000305778
1.46866e-05
-0.000305773
1.34705e-05
-0.000305689
1.22659e-05
-0.000305525
1.1073e-05
-0.00030528
9.89182e-06
-0.000304953
8.72267e-06
-0.000304544
7.56564e-06
-0.000304053
6.42086e-06
-0.000303478
5.28842e-06
-0.00030282
4.16844e-06
-0.000302078
3.06099e-06
-0.000301252
1.96615e-06
-0.000300342
8.83982e-07
-0.000299347
-1.85457e-07
-0.000298268
-1.24213e-06
-0.000297104
-2.28599e-06
-0.000295856
-3.31701e-06
-0.000294523
-4.33518e-06
-0.000293106
-5.34046e-06
-0.000291605
-6.33285e-06
-0.00029002
-7.31235e-06
-0.000288352
-8.27894e-06
-0.000286601
-9.23263e-06
-0.000284766
-1.01734e-05
-0.00028285
-1.11013e-05
-0.000280851
-1.20163e-05
-0.000278772
-1.29184e-05
-0.000276612
-1.38076e-05
-0.000274371
-1.46839e-05
-0.000272052
-1.55474e-05
-0.000269654
-1.6398e-05
-0.000267177
-1.72357e-05
-0.000264624
-1.80606e-05
-0.000261994
-1.88726e-05
-0.000259288
-1.96717e-05
-0.000256508
-2.0458e-05
-0.000253654
-2.12314e-05
-0.000250726
-2.1992e-05
-0.000247727
-2.27397e-05
-0.000244656
-2.34745e-05
-0.000241515
-2.41965e-05
-0.000238305
-2.49056e-05
-0.000235027
-2.56018e-05
-0.000231681
-2.62852e-05
-0.00022827
-2.69556e-05
-0.000224793
-2.76132e-05
-0.000221252
-2.82579e-05
-0.000217647
-2.88897e-05
-0.000213982
-2.95086e-05
-0.000210255
-3.01145e-05
-0.000206468
-3.07075e-05
-0.000202624
-3.12876e-05
-0.000198722
-3.18548e-05
-0.000194763
-3.2409e-05
-0.00019075
-3.29502e-05
-0.000186683
-3.34784e-05
-0.000182564
-3.39937e-05
-0.000178393
-3.44959e-05
-0.000174172
-3.49852e-05
-0.000169902
-3.54614e-05
-0.000165585
-3.59246e-05
-0.000161222
-3.63747e-05
-0.000156813
-3.68118e-05
-0.000152361
-3.72358e-05
-0.000147866
-3.76467e-05
-0.00014333
-3.80445e-05
-0.000138754
-3.84292e-05
-0.00013414
-3.88008e-05
-0.000129489
-3.91593e-05
-0.000124802
-3.95045e-05
-0.00012008
-3.98367e-05
-0.000115325
-4.01556e-05
-0.000110538
-4.04614e-05
-0.000105721
-4.07539e-05
-0.000100874
-4.10332e-05
-9.59999e-05
-4.12993e-05
-9.10993e-05
-4.15522e-05
-8.61735e-05
-4.17918e-05
-8.12241e-05
-4.20182e-05
-7.62524e-05
-4.22313e-05
-7.12598e-05
-4.24311e-05
-6.62476e-05
-4.26176e-05
-6.12173e-05
-4.27909e-05
-5.61702e-05
-4.29508e-05
-5.11077e-05
-4.30974e-05
-4.60312e-05
-4.32307e-05
-4.09421e-05
-4.33507e-05
-3.58418e-05
-4.34574e-05
-3.07317e-05
-4.35507e-05
-2.56132e-05
-4.36307e-05
-2.04877e-05
-4.36974e-05
-1.53566e-05
-4.37507e-05
-1.02213e-05
-4.37906e-05
-5.08324e-06
-4.38173e-05
-4.38306e-05
5.62626e-08
-0.00031802
2.13235e-05
0.000317627
-0.000318336
1.99767e-05
-0.000318573
1.86389e-05
-0.000318732
1.73106e-05
-0.00031881
1.59923e-05
-0.000318808
1.46841e-05
-0.000318723
1.33864e-05
-0.000318557
1.20996e-05
-0.000318308
1.08237e-05
-0.000317975
9.55912e-06
-0.000317558
8.30599e-06
-0.000317057
7.06452e-06
-0.000316471
5.83491e-06
-0.0003158
4.6173e-06
-0.000315044
3.41186e-06
-0.000314201
2.21873e-06
-0.000313273
1.03803e-06
-0.000312259
-1.30107e-07
-0.000311159
-1.28559e-06
-0.000309973
-2.42831e-06
-0.000308701
-3.55817e-06
-0.000307343
-4.6751e-06
-0.000305899
-5.77902e-06
-0.000304369
-6.86987e-06
-0.000302755
-7.94759e-06
-0.000301055
-9.01211e-06
-0.00029927
-1.00634e-05
-0.000297402
-1.11014e-05
-0.000295449
-1.21261e-05
-0.000293413
-1.31373e-05
-0.000291294
-1.41352e-05
-0.000289093
-1.51197e-05
-0.00028681
-1.60906e-05
-0.000284446
-1.70481e-05
-0.000282001
-1.7992e-05
-0.000279477
-1.89224e-05
-0.000276873
-1.98391e-05
-0.000274191
-2.07423e-05
-0.000271432
-2.16318e-05
-0.000268596
-2.25076e-05
-0.000265685
-2.33697e-05
-0.000262698
-2.42181e-05
-0.000259637
-2.50527e-05
-0.000256503
-2.58736e-05
-0.000253297
-2.66806e-05
-0.00025002
-2.74739e-05
-0.000246672
-2.82532e-05
-0.000243255
-2.90187e-05
-0.00023977
-2.97703e-05
-0.000236218
-3.0508e-05
-0.000232599
-3.12317e-05
-0.000228916
-3.19414e-05
-0.000225168
-3.26371e-05
-0.000221358
-3.33188e-05
-0.000217486
-3.39865e-05
-0.000213554
-3.464e-05
-0.000209562
-3.52795e-05
-0.000205512
-3.59049e-05
-0.000201404
-3.65161e-05
-0.000197241
-3.71131e-05
-0.000193024
-3.76959e-05
-0.000188753
-3.82646e-05
-0.00018443
-3.88189e-05
-0.000180056
-3.93591e-05
-0.000175633
-3.98849e-05
-0.000171161
-4.03964e-05
-0.000166642
-4.08936e-05
-0.000162077
-4.13764e-05
-0.000157468
-4.18449e-05
-0.000152816
-4.2299e-05
-0.000148122
-4.27386e-05
-0.000143387
-4.31638e-05
-0.000138614
-4.35746e-05
-0.000133802
-4.39708e-05
-0.000128954
-4.43526e-05
-0.000124071
-4.47198e-05
-0.000119154
-4.50725e-05
-0.000114204
-4.54107e-05
-0.000109224
-4.57343e-05
-0.000104214
-4.60432e-05
-9.91758e-05
-4.63376e-05
-9.41107e-05
-4.66174e-05
-8.902e-05
-4.68825e-05
-8.39053e-05
-4.71329e-05
-7.87678e-05
-4.73687e-05
-7.36091e-05
-4.75898e-05
-6.84305e-05
-4.77963e-05
-6.32334e-05
-4.7988e-05
-5.80192e-05
-4.8165e-05
-5.27893e-05
-4.83273e-05
-4.75453e-05
-4.84748e-05
-4.22883e-05
-4.86076e-05
-3.702e-05
-4.87257e-05
-3.17418e-05
-4.8829e-05
-2.64549e-05
-4.89175e-05
-2.1161e-05
-4.89913e-05
-1.58613e-05
-4.90504e-05
-1.05573e-05
-4.90946e-05
-5.25053e-06
-4.91241e-05
-4.91388e-05
5.7688e-08
-0.000332158
2.16591e-05
0.000331822
-0.000332412
2.02307e-05
-0.000332583
1.88106e-05
-0.000332672
1.73993e-05
-0.000332677
1.59973e-05
-0.000332598
1.46049e-05
-0.000332434
1.32224e-05
-0.000332184
1.18502e-05
-0.000331849
1.04886e-05
-0.000331428
9.1378e-06
-0.00033092
7.79808e-06
-0.000330325
6.4697e-06
-0.000329643
5.15288e-06
-0.000328874
3.84784e-06
-0.000328017
2.55479e-06
-0.000327072
1.27391e-06
-0.000326039
5.3746e-09
-0.000324919
-1.25065e-06
-0.00032371
-2.49399e-06
-0.000322414
-3.72452e-06
-0.00032103
-4.94209e-06
-0.000319559
-6.14659e-06
-0.000318
-7.33788e-06
-0.000316354
-8.51585e-06
-0.000314621
-9.68041e-06
-0.000312802
-1.08314e-05
-0.000310896
-1.19689e-05
-0.000308905
-1.30926e-05
-0.000306829
-1.42025e-05
-0.000304667
-1.52986e-05
-0.000302422
-1.63807e-05
-0.000300093
-1.74488e-05
-0.000297681
-1.85028e-05
-0.000295186
-1.95427e-05
-0.00029261
-2.05684e-05
-0.000289952
-2.15798e-05
-0.000287214
-2.25768e-05
-0.000284397
-2.35595e-05
-0.000281501
-2.45277e-05
-0.000278527
-2.54815e-05
-0.000275476
-2.64206e-05
-0.000272349
-2.73452e-05
-0.000269147
-2.82551e-05