/*--------------------------------*- C++ -*----------------------------------*\
  =========                 |
  \\      /  F ield         | OpenFOAM: The Open Source CFD Toolbox
   \\    /   O peration     | Website:  https://openfoam.org
    \\  /    A nd           | Version:  8
     \\/     M anipulation  |
\*---------------------------------------------------------------------------*/
FoamFile
{
    version     2.0;
    format      ascii;
    class       volVectorField;
    location    "1.0854";
    object      U;
}
// * * * * * * * * * * * * * * * * * * * * * * * * * * * * * * * * * * * * * //

dimensions      [0 1 -1 0 0 0 0];

internalField   nonuniform List<vector> 
127200
(
(0.0266725 -0.000655268 3.73721e-20)
(0.0295992 -0.00117857 -2.99323e-21)
(0.0326026 -0.00181633 -6.36404e-21)
(0.0356565 -0.00256375 -4.08678e-20)
(0.0387487 -0.00341869 -3.71296e-20)
(0.0418655 -0.00438049 3.97002e-20)
(0.0449923 -0.00544782 2.56401e-20)
(0.048114 -0.00661865 7.37099e-21)
(0.051216 -0.00789051 9.39462e-22)
(0.0542836 -0.00926038 -2.59227e-21)
(0.0573029 -0.0107248 1.04634e-21)
(0.0602609 -0.0122796 2.08833e-21)
(0.0631452 -0.0139205 -1.76936e-21)
(0.0659445 -0.0156424 1.045e-21)
(0.0686481 -0.0174401 1.48097e-20)
(0.0712468 -0.019308 -2.04096e-20)
(0.0737318 -0.0212401 -8.61453e-21)
(0.0760959 -0.0232303 1.17763e-20)
(0.0783322 -0.0252721 6.43461e-20)
(0.0804352 -0.0273592 -3.16737e-21)
(0.0823999 -0.0294848 -6.31392e-20)
(0.0842225 -0.0316423 1.48911e-20)
(0.0858996 -0.0338248 -7.17613e-20)
(0.0874288 -0.0360254 2.71984e-20)
(0.0888083 -0.0382373 1.06238e-19)
(0.090037 -0.0404536 1.97486e-20)
(0.0911143 -0.0426675 -7.65676e-20)
(0.0920402 -0.0448721 -5.21775e-20)
(0.092815 -0.0470608 1.68751e-21)
(0.0934395 -0.0492271 -8.53512e-23)
(0.093915 -0.0513641 2.78832e-20)
(0.0942432 -0.0534653 -6.01912e-20)
(0.0944263 -0.0555241 -2.44648e-20)
(0.0944676 -0.0575341 6.60597e-20)
(0.0943706 -0.0594888 6.53233e-20)
(0.0941393 -0.0613818 3.39228e-20)
(0.0937762 -0.0632073 -3.61636e-20)
(0.0932835 -0.0649606 -1.40585e-22)
(0.0926634 -0.0666375 7.14314e-20)
(0.0919188 -0.0682339 3.46025e-20)
(0.0910535 -0.0697474 -8.08343e-20)
(0.0900707 -0.0711757 9.56923e-22)
(0.0889713 -0.0725151 7.65779e-20)
(0.0877641 -0.0737671 -8.68148e-20)
(0.0864571 -0.0749307 -7.94787e-20)
(0.0850565 -0.076003 3.64322e-20)
(0.0835691 -0.0769821 -4.28911e-20)
(0.0820009 -0.0778663 -4.51899e-20)
(0.0803578 -0.078654 4.26321e-20)
(0.0786453 -0.0793438 1.27196e-21)
(0.0768689 -0.0799346 -1.28175e-21)
(0.075034 -0.0804253 -1.30172e-19)
(0.0731458 -0.0808151 5.51838e-21)
(0.0712095 -0.0811031 1.29984e-19)
(0.06923 -0.0812889 -4.91076e-20)
(0.0672125 -0.0813721 1.40437e-21)
(0.0651618 -0.0813524 5.09538e-20)
(0.0630829 -0.0812298 1.3716e-19)
(0.0609804 -0.0810043 -7.58819e-21)
(0.0588591 -0.0806761 -1.37076e-19)
(0.0567237 -0.0802456 0)
(0.0545787 -0.0797133 -2.38066e-21)
(0.0524286 -0.0790799 4.52107e-20)
(0.0502778 -0.0783462 -4.5256e-20)
(0.0481307 -0.077513 4.48447e-20)
(0.0459915 -0.0765815 4.42771e-20)
(0.0438644 -0.0755528 -4.35207e-20)
(0.0417534 -0.0744284 -9.69126e-22)
(0.0396626 -0.0732096 -4.85067e-20)
(0.0375957 -0.071898 1.75279e-21)
(0.0355567 -0.0704954 -4.30605e-20)
(0.0335492 -0.0690035 -8.68841e-20)
(0.0315769 -0.0674243 4.4589e-20)
(0.0296431 -0.0657599 8.55745e-20)
(0.0277514 -0.0640124 8.70299e-20)
(0.0259049 -0.0621841 4.26309e-20)
(0.0241068 -0.0602772 -8.41962e-20)
(0.0223603 -0.0582944 -1.01379e-21)
(0.0206682 -0.0562382 -1.67087e-21)
(0.0190334 -0.0541111 -4.18782e-20)
(0.0174586 -0.051916 3.9405e-20)
(0.0159463 -0.0496557 7.52879e-20)
(0.014499 -0.047333 3.59072e-20)
(0.0131191 -0.0449509 -7.31762e-20)
(0.0118086 -0.0425125 -6.7348e-20)
(0.0105698 -0.0400209 9.98093e-22)
(0.00940458 -0.0374792 6.34045e-20)
(0.00831466 -0.0348908 -3.20833e-20)
(0.00730177 -0.0322588 -8.8834e-20)
(0.00636742 -0.0295866 2.86455e-20)
(0.00551302 -0.0268777 2.60955e-20)
(0.00473983 -0.0241353 2.41604e-20)
(0.00404898 -0.0213631 -4.45753e-20)
(0.00344148 -0.0185644 1.89996e-20)
(0.00291823 -0.0157428 3.6378e-20)
(0.00248001 -0.0129017 -4.41253e-20)
(0.00212754 -0.0100446 9.64333e-24)
(0.00186157 -0.00717462 9.99968e-21)
(0.00168308 -0.00429506 1.12274e-20)
(0.00159338 -0.00141034 1.41187e-21)
(0.113376 -0.0138123 2.34514e-20)
(0.119801 -0.0160259 2.01424e-20)
(0.126057 -0.0183944 -2.38658e-20)
(0.132101 -0.0209036 -3.17287e-20)
(0.13791 -0.0235397 -2.91505e-20)
(0.143465 -0.0262895 -1.51206e-20)
(0.148748 -0.0291404 6.7843e-21)
(0.153746 -0.0320813 1.14143e-20)
(0.158447 -0.0351012 6.55724e-21)
(0.162844 -0.0381896 4.07889e-21)
(0.16693 -0.041336 8.67836e-21)
(0.170702 -0.0445299 8.16156e-21)
(0.174159 -0.0477614 -4.89037e-21)
(0.177301 -0.0510205 6.28791e-21)
(0.18013 -0.0542976 -1.15818e-20)
(0.182648 -0.0575834 -2.09857e-20)
(0.18486 -0.0608688 2.56772e-20)
(0.186771 -0.0641452 -1.20489e-20)
(0.188386 -0.067404 2.13462e-20)
(0.189712 -0.070637 -1.14491e-20)
(0.190756 -0.0738366 -4.91898e-20)
(0.191525 -0.076995 2.64278e-20)
(0.192028 -0.0801052 5.65431e-20)
(0.192273 -0.0831601 -1.51387e-20)
(0.192267 -0.0861533 -4.80794e-20)
(0.192019 -0.0890788 -1.21295e-20)
(0.191539 -0.0919307 -3.82446e-20)
(0.190834 -0.0947037 -3.77603e-21)
(0.189915 -0.0973923 1.69659e-20)
(0.188791 -0.0999913 9.89241e-23)
(0.187471 -0.102496 2.87605e-20)
(0.185963 -0.104903 2.9053e-20)
(0.184276 -0.107208 3.40707e-21)
(0.182419 -0.10941 -3.11446e-20)
(0.180399 -0.111506 0)
(0.178223 -0.113493 -1.15736e-20)
(0.175904 -0.115372 -4.69646e-21)
(0.173454 -0.117143 4.49187e-20)
(0.170883 -0.118803 4.30429e-20)
(0.168201 -0.120353 -1.2532e-19)
(0.165414 -0.121789 -5.49169e-20)
(0.162531 -0.123114 1.35617e-19)
(0.159559 -0.124327 -5.97552e-20)
(0.156501 -0.125424 -6.84564e-20)
(0.153362 -0.126401 -4.25867e-21)
(0.150149 -0.127254 3.79022e-21)
(0.146866 -0.127982 -3.7263e-20)
(0.14352 -0.128582 -1.00505e-20)
(0.140117 -0.129053 8.95321e-20)
(0.136664 -0.129393 0)
(0.133167 -0.129601 -5.80931e-21)
(0.129631 -0.129676 -1.69435e-21)
(0.126062 -0.129617 -5.2046e-20)
(0.122468 -0.129425 -5.30995e-20)
(0.118852 -0.129098 5.77475e-20)
(0.115222 -0.128637 1.53708e-19)
(0.111583 -0.128043 3.62669e-20)
(0.107941 -0.127314 -1.81285e-19)
(0.1043 -0.126453 -3.87327e-20)
(0.100667 -0.125459 9.463e-20)
(0.0970474 -0.124333 -6.72049e-20)
(0.0934455 -0.123077 -7.61016e-20)
(0.0898669 -0.121691 1.1994e-19)
(0.0863167 -0.120177 4.18664e-20)
(0.0827999 -0.118536 -5.99534e-20)
(0.0793213 -0.116771 2.72854e-20)
(0.0758858 -0.114881 -6.55593e-21)
(0.0724979 -0.112871 -2.02928e-21)
(0.0691624 -0.110741 6.68924e-20)
(0.0658836 -0.108494 3.22263e-20)
(0.0626659 -0.106132 -3.15423e-20)
(0.0595136 -0.103657 -3.00445e-20)
(0.0564308 -0.101073 -9.35938e-20)
(0.0534215 -0.0983816 6.00171e-20)
(0.0504896 -0.0955858 3.13002e-20)
(0.0476388 -0.0926888 -6.11549e-20)
(0.0448729 -0.0896933 -3.28138e-20)
(0.0421953 -0.0866027 -8.7794e-20)
(0.0396095 -0.0834202 2.90978e-20)
(0.0371186 -0.0801492 8.57503e-20)
(0.0347259 -0.076793 3.62931e-21)
(0.0324342 -0.0733553 1.39299e-22)
(0.0302466 -0.0698397 2.68046e-20)
(0.0281656 -0.0662499 2.50935e-21)
(0.0261939 -0.0625897 -1.44476e-21)
(0.0243339 -0.058863 5.07349e-20)
(0.0225878 -0.0550738 2.41985e-20)
(0.0209578 -0.0512261 -4.81007e-20)
(0.0194459 -0.0473239 -2.77416e-20)
(0.0180539 -0.0433714 -2.52336e-21)
(0.0167835 -0.0393728 8.7126e-23)
(0.0156362 -0.0353325 0)
(0.0146134 -0.0312546 -1.37805e-20)
(0.0137162 -0.0271438 -3.54687e-20)
(0.0129456 -0.0230044 3.10996e-20)
(0.0123025 -0.018841 1.12261e-20)
(0.0117876 -0.0146586 -4.27884e-20)
(0.0114013 -0.0104618 1.30616e-20)
(0.0111439 -0.00625697 2.92034e-20)
(0.0110156 -0.0020522 8.46935e-21)
(0.190337 -0.0306391 2.27111e-21)
(0.195499 -0.0332525 8.74764e-22)
(0.200257 -0.0359204 1.01213e-20)
(0.204592 -0.0386303 3.81344e-21)
(0.208513 -0.0413777 3.98493e-21)
(0.212026 -0.0441563 -5.66358e-21)
(0.215142 -0.0469582 -4.82723e-21)
(0.217877 -0.0497764 5.57963e-21)
(0.220242 -0.0526059 -9.91391e-22)
(0.222254 -0.0554417 1.11073e-20)
(0.223927 -0.0582792 -8.36161e-21)
(0.225276 -0.0611139 -1.4268e-20)
(0.226317 -0.0639412 -3.20218e-21)
(0.227064 -0.0667568 2.09947e-22)
(0.227532 -0.0695565 -1.65289e-21)
(0.227735 -0.0723359 1.13034e-20)
(0.227686 -0.075091 -2.20815e-20)
(0.227399 -0.0778176 -1.43356e-20)
(0.226886 -0.0805116 2.51312e-20)
(0.226159 -0.0831692 -5.053e-21)
(0.225229 -0.0857864 2.08057e-20)
(0.224107 -0.0883593 7.01472e-21)
(0.222803 -0.0908841 -5.4582e-20)
(0.221327 -0.0933572 6.42229e-21)
(0.219687 -0.0957751 2.94329e-21)
(0.217894 -0.0981341 2.05602e-20)
(0.215955 -0.100431 -1.16278e-20)
(0.213878 -0.102662 1.03475e-20)
(0.211671 -0.104825 1.36277e-20)
(0.209341 -0.106916 4.42654e-20)
(0.206893 -0.108934 -1.42887e-20)
(0.204336 -0.110876 -7.43354e-20)
(0.201679 -0.11274 3.62143e-20)
(0.198927 -0.114525 3.14529e-20)
(0.196085 -0.116227 -4.57519e-20)
(0.193161 -0.117846 -1.11603e-21)
(0.190155 -0.119377 2.47349e-20)
(0.187072 -0.120814 -1.40435e-20)
(0.183914 -0.122152 -1.9768e-20)
(0.180687 -0.123388 1.09855e-20)
(0.177394 -0.124517 6.47513e-20)
(0.174041 -0.125538 -1.77977e-20)
(0.170632 -0.126446 -8.51767e-20)
(0.167171 -0.12724 -2.66887e-20)
(0.163663 -0.127919 3.43676e-20)
(0.160111 -0.128481 3.95063e-21)
(0.156522 -0.128925 -1.01798e-19)
(0.152898 -0.129251 1.032e-19)
(0.149246 -0.129457 8.78412e-20)
(0.145569 -0.129542 -7.69418e-20)
(0.141873 -0.129505 -6.91959e-22)
(0.138161 -0.129346 3.24107e-22)
(0.134439 -0.129065 4.2498e-20)
(0.130712 -0.128661 4.6851e-20)
(0.126983 -0.128133 -3.83227e-20)
(0.123258 -0.127483 2.03899e-20)
(0.119541 -0.12671 -1.04049e-20)
(0.115836 -0.125815 1.76582e-20)
(0.112149 -0.124798 2.69898e-20)
(0.108483 -0.12366 -9.32516e-20)
(0.104843 -0.122402 -1.10409e-19)
(0.101233 -0.121024 -1.40086e-21)
(0.0976571 -0.119528 1.52724e-19)
(0.0941201 -0.117915 4.3544e-20)
(0.0906258 -0.116187 -4.02887e-20)
(0.0871783 -0.114345 -8.56548e-20)
(0.0837816 -0.11239 -2.1763e-20)
(0.0804395 -0.110325 1.07301e-19)
(0.0771558 -0.10815 3.57643e-23)
(0.0739344 -0.10587 -1.90337e-20)
(0.0707789 -0.103484 -4.71847e-24)
(0.0676929 -0.100997 -1.25851e-21)
(0.0646798 -0.0984096 -9.8306e-22)
(0.061743 -0.0957248 -1.39409e-21)
(0.058886 -0.0929453 1.01529e-21)
(0.0561117 -0.0900736 -2.66069e-21)
(0.0534234 -0.0871127 1.92262e-20)
(0.0508241 -0.0840653 -3.29695e-21)
(0.0483166 -0.0809345 -4.70226e-21)
(0.0459038 -0.0777233 5.25288e-20)
(0.0435883 -0.074435 -1.59358e-20)
(0.0413728 -0.0710727 -8.6133e-20)
(0.0392595 -0.0676398 1.58141e-21)
(0.037251 -0.0641396 8.32088e-20)
(0.0353494 -0.0605757 1.06654e-21)
(0.0335568 -0.0569516 -4.26506e-20)
(0.0318752 -0.0532708 3.23425e-20)
(0.0303065 -0.0495371 5.89521e-20)
(0.0288524 -0.0457541 -1.27046e-20)
(0.0275146 -0.0419256 -4.8597e-20)
(0.0262944 -0.0380554 -9.9867e-21)
(0.0251932 -0.0341474 -9.37265e-21)
(0.0242123 -0.0302054 6.90561e-21)
(0.0233527 -0.0262334 1.30425e-20)
(0.0226152 -0.0222352 -1.36745e-20)
(0.0220006 -0.0182148 3.4385e-21)
(0.0215093 -0.014176 -1.34066e-20)
(0.0211416 -0.0101226 -1.84775e-20)
(0.0208974 -0.00605838 4.45306e-21)
(0.0207763 -0.00198742 -3.65583e-22)
(0.226163 -0.039241 1.01954e-20)
(0.22819 -0.0413583 -1.69594e-21)
(0.229882 -0.0434917 -5.44184e-21)
(0.231258 -0.0456365 -4.37896e-21)
(0.232342 -0.0477957 1.91554e-21)
(0.233157 -0.0499702 -3.89463e-22)
(0.233726 -0.0521603 -6.85866e-21)
(0.234067 -0.0543652 -1.55685e-20)
(0.2342 -0.0565841 -3.24024e-21)
(0.23414 -0.0588158 -3.59789e-21)
(0.233901 -0.0610585 -1.69395e-20)
(0.233496 -0.0633101 1.5823e-20)
(0.232936 -0.0655683 -4.52705e-21)
(0.23223 -0.0678302 -7.82838e-21)
(0.231387 -0.0700929 4.88031e-22)
(0.230415 -0.072353 -5.13922e-21)
(0.229319 -0.0746071 3.99682e-21)
(0.228105 -0.0768515 2.95702e-20)
(0.226777 -0.0790824 5.26732e-21)
(0.225341 -0.081296 -2.09162e-20)
(0.223799 -0.0834881 -5.05377e-21)
(0.222154 -0.0856549 1.37545e-20)
(0.220411 -0.0877923 5.23057e-20)
(0.218572 -0.0898963 2.99197e-20)
(0.216639 -0.0919628 -3.02605e-20)
(0.214614 -0.093988 -6.87389e-22)
(0.212501 -0.095968 -2.51972e-20)
(0.210302 -0.097899 -3.24724e-22)
(0.208019 -0.0997774 -9.57198e-21)
(0.205654 -0.1016 -7.22656e-21)
(0.203209 -0.103363 -7.58237e-21)
(0.200688 -0.105062 2.19632e-20)
(0.198089 -0.106693 4.42588e-21)
(0.195415 -0.108251 8.46389e-21)
(0.19267 -0.10973 -3.04442e-21)
(0.189856 -0.111125 -3.97021e-20)
(0.186975 -0.112435 -6.05043e-20)
(0.184032 -0.113655 -1.72086e-20)
(0.181029 -0.114785 5.61113e-20)
(0.17797 -0.115823 6.64648e-20)
(0.174857 -0.116766 -1.74381e-21)
(0.171696 -0.117613 -1.32402e-20)
(0.168489 -0.118363 2.0649e-20)
(0.165239 -0.119012 -9.37949e-21)
(0.161952 -0.11956 -1.94638e-20)
(0.158631 -0.120006 1.13776e-20)
(0.155279 -0.120346 7.64566e-20)
(0.151901 -0.120581 5.3917e-20)
(0.148499 -0.120709 -3.96119e-20)
(0.145079 -0.120729 -3.72215e-20)
(0.141644 -0.12064 -3.585e-20)
(0.138197 -0.120442 0)
(0.134744 -0.120133 1.00673e-21)
(0.131288 -0.119713 1.04167e-20)
(0.127832 -0.119183 -1.42963e-21)
(0.124382 -0.118542 -6.39959e-20)
(0.120941 -0.11779 -2.53889e-20)
(0.117512 -0.116927 4.9985e-20)
(0.114101 -0.115954 -5.01244e-20)
(0.11071 -0.114871 -1.31012e-20)
(0.107344 -0.113678 4.90127e-20)
(0.104006 -0.112377 9.89573e-22)
(0.100701 -0.110969 1.24375e-20)
(0.0974318 -0.109454 7.06696e-20)
(0.0942025 -0.107834 4.64355e-20)
(0.0910168 -0.106109 -9.26969e-20)
(0.0878781 -0.104282 -4.98941e-22)
(0.0847901 -0.102354 3.3797e-20)
(0.0817563 -0.100327 -7.71675e-20)
(0.07878 -0.0982017 -1.05581e-20)
(0.0758646 -0.0959808 4.35457e-20)
(0.0730134 -0.0936662 6.45993e-20)
(0.0702295 -0.09126 2.0786e-20)
(0.0675161 -0.0887645 -5.05487e-20)
(0.0648763 -0.0861819 1.84002e-20)
(0.0623128 -0.0835148 -1.8907e-21)
(0.0598287 -0.0807655 -3.92605e-20)
(0.0574266 -0.0779368 1.56638e-20)
(0.0551093 -0.0750314 2.9942e-21)
(0.0528792 -0.072052 -4.00203e-20)
(0.0507388 -0.0690016 1.21445e-21)
(0.0486906 -0.065883 1.61833e-20)
(0.0467368 -0.0626994 -2.80747e-20)
(0.0448794 -0.0594538 -1.37564e-20)
(0.0431207 -0.0561494 2.55212e-20)
(0.0414624 -0.0527895 1.06113e-20)
(0.0399064 -0.0493773 -2.13276e-20)
(0.0384545 -0.0459162 -1.48517e-21)
(0.0371081 -0.0424096 2.87974e-20)
(0.0358689 -0.0388609 7.39913e-21)
(0.034738 -0.0352737 -5.86028e-22)
(0.0337169 -0.0316515 -1.72475e-20)
(0.0328065 -0.0279978 -1.10007e-21)
(0.0320078 -0.0243162 1.96476e-20)
(0.0313218 -0.0206104 -4.89364e-21)
(0.0307491 -0.0168838 -6.76014e-21)
(0.0302904 -0.0131402 3.91279e-21)
(0.0299462 -0.00938291 -4.45274e-21)
(0.0297167 -0.00561542 -2.22334e-22)
(0.0296023 -0.00184105 2.60706e-21)
(0.231454 -0.0410469 2.96821e-21)
(0.231701 -0.0427223 4.17281e-21)
(0.231806 -0.0444318 -1.28002e-22)
(0.231788 -0.0461738 -4.84655e-22)
(0.231658 -0.0479498 -3.3918e-21)
(0.231426 -0.0497604 -4.67151e-21)
(0.2311 -0.0516047 -9.50236e-21)
(0.230686 -0.0534811 -6.27335e-22)
(0.230186 -0.0553874 1.66209e-20)
(0.229604 -0.0573211 -8.60486e-21)
(0.228941 -0.059279 5.77863e-21)
(0.228198 -0.0612579 -5.06307e-21)
(0.227376 -0.0632542 -1.30783e-20)
(0.226474 -0.0652639 8.57955e-21)
(0.225491 -0.067283 8.49854e-21)
(0.224429 -0.0693075 7.67275e-21)
(0.223285 -0.071333 8.88789e-21)
(0.222059 -0.0733554 -6.39118e-21)
(0.220751 -0.0753701 -2.31699e-20)
(0.219361 -0.0773729 -1.18677e-21)
(0.217887 -0.0793595 2.73235e-20)
(0.216332 -0.0813255 -4.91661e-21)
(0.214693 -0.0832667 -7.02764e-21)
(0.212973 -0.0851788 -3.22854e-20)
(0.21117 -0.0870576 3.22839e-21)
(0.209287 -0.0888991 -3.50059e-21)
(0.207324 -0.090699 -2.57689e-20)
(0.205282 -0.0924535 1.86768e-20)
(0.203162 -0.0941583 1.57521e-20)
(0.200966 -0.0958092 0)
(0.198695 -0.0974018 2.56398e-20)
(0.196351 -0.0989322 1.80339e-21)
(0.193936 -0.100397 -2.20784e-20)
(0.191453 -0.101794 -1.43064e-20)
(0.188904 -0.103119 -1.48447e-21)
(0.186293 -0.10437 -6.23505e-21)
(0.18362 -0.105545 2.73353e-20)
(0.180891 -0.10664 2.9594e-20)
(0.178108 -0.107654 2.03701e-20)
(0.175274 -0.108583 8.01856e-22)
(0.172392 -0.109427 -1.99997e-20)
(0.169465 -0.110182 -2.01392e-20)
(0.166497 -0.110847 -2.29075e-20)
(0.163491 -0.111419 4.29305e-20)
(0.16045 -0.111899 1.61736e-21)
(0.157378 -0.112283 -2.34124e-20)
(0.154278 -0.112571 -4.77267e-21)
(0.151153 -0.112762 -3.74787e-21)
(0.148008 -0.112854 6.50801e-21)
(0.144845 -0.112846 -1.31207e-21)
(0.141668 -0.112738 0)
(0.138482 -0.112529 -7.12958e-21)
(0.135288 -0.112218 -5.20148e-22)
(0.132092 -0.111806 -1.5418e-20)
(0.128897 -0.111291 -2.98463e-20)
(0.125706 -0.110674 2.25616e-20)
(0.122524 -0.109955 2.98939e-20)
(0.119353 -0.109133 7.1219e-21)
(0.116198 -0.10821 4.65827e-23)
(0.113061 -0.107185 -3.56942e-20)
(0.109948 -0.106059 -2.84881e-20)
(0.10686 -0.104833 4.31793e-20)
(0.103803 -0.103508 2.78748e-20)
(0.100778 -0.102084 -1.45057e-20)
(0.09779 -0.100563 6.23832e-22)
(0.0948421 -0.098946 -1.31429e-20)
(0.0919375 -0.0972339 -3.50503e-22)
(0.0890795 -0.0954283 1.45748e-20)
(0.0862715 -0.0935308 -5.66545e-21)
(0.0835165 -0.0915429 -1.44198e-20)
(0.0808176 -0.0894665 -6.98628e-21)
(0.0781779 -0.0873034 1.22387e-20)
(0.0756004 -0.0850555 1.36507e-20)
(0.0730879 -0.0827249 1.13617e-20)
(0.0706432 -0.0803138 1.1547e-20)
(0.0682692 -0.0778243 1.05415e-21)
(0.0659684 -0.0752588 2.18935e-20)
(0.0637433 -0.0726197 -3.05012e-20)
(0.0615966 -0.0699095 2.45634e-21)
(0.0595306 -0.0671309 3.26396e-20)
(0.0575475 -0.0642863 -2.83003e-20)
(0.0556496 -0.0613787 -5.41488e-21)
(0.053839 -0.0584107 -2.76659e-22)
(0.0521176 -0.0553854 -1.10111e-20)
(0.0504874 -0.0523054 2.47739e-21)
(0.0489503 -0.049174 9.52599e-21)
(0.0475078 -0.0459941 -3.56591e-21)
(0.0461616 -0.0427689 -9.56626e-21)
(0.0449131 -0.0395014 -7.09338e-21)
(0.0437638 -0.0361949 -7.00843e-21)
(0.042715 -0.0328526 1.07835e-20)
(0.0417676 -0.0294779 6.05239e-21)
(0.0409229 -0.0260739 -9.61744e-21)
(0.0401818 -0.0226441 5.17488e-21)
(0.039545 -0.0191918 1.99764e-21)
(0.0390133 -0.0157204 -4.64876e-21)
(0.0385872 -0.0122333 -3.72597e-21)
(0.0382673 -0.00873388 -7.97451e-22)
(0.038054 -0.0052256 1.12931e-21)
(0.0379476 -0.00171186 4.15352e-21)
(0.227523 -0.0407899 -3.70961e-21)
(0.22737 -0.0422997 3.73254e-22)
(0.227165 -0.0438517 2.16571e-21)
(0.226909 -0.0454438 6.40268e-21)
(0.226604 -0.0470741 5.4157e-21)
(0.226248 -0.0487404 -1.57567e-21)
(0.225838 -0.0504403 3.8895e-21)
(0.225372 -0.0521709 1.41993e-20)
(0.224849 -0.0539294 -3.22663e-21)
(0.224264 -0.0557124 -6.55957e-21)
(0.223617 -0.0575166 6.85989e-21)
(0.222904 -0.0593385 -5.92557e-21)
(0.222123 -0.0611745 -1.15738e-21)
(0.221272 -0.0630208 0)
(0.22035 -0.0648736 2.38948e-21)
(0.219354 -0.0667291 -2.30939e-21)
(0.218284 -0.0685833 -2.06923e-21)
(0.217137 -0.0704324 -4.59068e-22)
(0.215915 -0.0722723 -2.4692e-21)
(0.214615 -0.0740992 5.78751e-21)
(0.213238 -0.0759091 -1.49184e-20)
(0.211783 -0.0776981 -4.65929e-21)
(0.210251 -0.0794624 1.09213e-20)
(0.208642 -0.0811979 -1.50897e-20)
(0.206957 -0.082901 1.10253e-20)
(0.205196 -0.0845678 6.58466e-21)
(0.20336 -0.0861947 -4.063e-21)
(0.201451 -0.087778 -1.76351e-20)
(0.199469 -0.0893143 8.08763e-21)
(0.197417 -0.0908 1.03429e-20)
(0.195297 -0.0922321 4.66794e-21)
(0.193109 -0.0936072 1.29155e-20)
(0.190857 -0.0949225 -1.12503e-20)
(0.188543 -0.096175 -1.77309e-20)
(0.186169 -0.0973619 5.62285e-21)
(0.183737 -0.0984806 -1.22279e-20)
(0.18125 -0.0995285 1.97736e-20)
(0.178711 -0.100503 2.19237e-20)
(0.176122 -0.101403 -1.86898e-20)
(0.173486 -0.102226 -3.05216e-22)
(0.170807 -0.102969 1.01891e-20)
(0.168086 -0.103631 -2.60544e-20)
(0.165328 -0.10421 -9.01225e-21)
(0.162534 -0.104705 1.02549e-20)
(0.159708 -0.105113 -1.05102e-20)
(0.156854 -0.105435 2.12702e-20)
(0.153974 -0.105667 3.6242e-21)
(0.151071 -0.10581 -8.87881e-21)
(0.14815 -0.105862 6.43078e-21)
(0.145212 -0.105823 -1.10443e-20)
(0.142262 -0.105691 0)
(0.139303 -0.105466 -1.02368e-20)
(0.136338 -0.105148 -2.61726e-22)
(0.133371 -0.104735 9.9575e-21)
(0.130404 -0.104228 9.02303e-21)
(0.127442 -0.103627 5.19877e-21)
(0.124488 -0.102932 -9.17704e-21)
(0.121544 -0.102142 5.09199e-21)
(0.118615 -0.101259 -2.74191e-23)
(0.115704 -0.100282 -9.94657e-21)
(0.112814 -0.0992114 -2.90145e-20)
(0.109948 -0.0980487 -8.68316e-21)
(0.10711 -0.0967943 2.80516e-20)
(0.104302 -0.095449 2.25631e-20)
(0.101529 -0.0940137 -5.023e-22)
(0.0987927 -0.0924896 -2.33389e-20)
(0.0960966 -0.0908779 -9.48815e-22)
(0.0934439 -0.0891797 -1.23253e-20)
(0.0908374 -0.0873966 -3.80993e-21)
(0.0882802 -0.08553 2.79224e-20)
(0.085775 -0.0835815 7.39948e-21)
(0.0833248 -0.0815529 4.01441e-21)
(0.0809323 -0.0794458 1.22205e-20)
(0.0786001 -0.0772623 -1.94704e-20)
(0.0763309 -0.0750042 -2.35175e-21)
(0.0741272 -0.0726736 5.98333e-21)
(0.0719915 -0.0702728 -1.55371e-20)
(0.0699261 -0.0678038 4.61707e-21)
(0.0679334 -0.0652691 3.0591e-21)
(0.0660156 -0.062671 -3.28698e-21)
(0.0641748 -0.0600119 7.26424e-21)
(0.062413 -0.0572944 7.44781e-21)
(0.0607323 -0.054521 -3.53981e-21)
(0.0591344 -0.0516945 8.0943e-21)
(0.0576212 -0.0488175 -7.87267e-21)
(0.0561943 -0.0458928 -1.68982e-20)
(0.0548553 -0.0429233 6.70944e-21)
(0.0536057 -0.0399117 1.61164e-20)
(0.0524469 -0.036861 1.68258e-21)
(0.0513801 -0.0337742 -7.42269e-21)
(0.0504066 -0.0306543 -2.13362e-21)
(0.0495273 -0.0275043 4.49358e-21)
(0.0487433 -0.0243273 1.50201e-21)
(0.0480555 -0.0211263 -1.4328e-21)
(0.0474646 -0.0179046 3.28295e-21)
(0.0469712 -0.0146653 2.41909e-21)
(0.046576 -0.0114114 3.20232e-21)
(0.0462793 -0.00814633 -9.91668e-22)
(0.0460815 -0.00487316 -2.31837e-22)
(0.0459829 -0.00159517 -3.33505e-21)
(0.223441 -0.0403919 -1.21058e-21)
(0.223255 -0.0418097 -1.39467e-21)
(0.223031 -0.0432633 4.75473e-21)
(0.222766 -0.0447514 2.78996e-21)
(0.222459 -0.0462718 -2.55353e-21)
(0.222104 -0.0478222 -3.34486e-21)
(0.221699 -0.0494002 3.69696e-21)
(0.221242 -0.051003 -6.31914e-22)
(0.220729 -0.0526281 -6.16509e-21)
(0.220158 -0.0542724 1.01263e-21)
(0.219526 -0.0559331 -1.47018e-21)
(0.218832 -0.0576069 -5.9024e-21)
(0.218073 -0.0592908 -1.34719e-21)
(0.217247 -0.0609813 8.7219e-21)
(0.216354 -0.0626752 -1.81134e-22)
(0.215393 -0.0643691 -4.23287e-21)
(0.214361 -0.0660596 3.22562e-21)
(0.213259 -0.0677432 3.31433e-21)
(0.212086 -0.0694164 -8.97472e-21)
(0.210842 -0.0710757 2.58065e-21)
(0.209526 -0.0727178 -1.07671e-20)
(0.208138 -0.074339 3.31564e-21)
(0.20668 -0.075936 6.53087e-21)
(0.205151 -0.0775053 -7.83861e-21)
(0.203552 -0.0790436 -1.06615e-20)
(0.201884 -0.0805476 1.11481e-20)
(0.200147 -0.082014 1.19622e-20)
(0.198344 -0.0834398 2.70121e-21)
(0.196476 -0.0848216 1.13049e-20)
(0.194543 -0.0861566 2.63716e-21)
(0.192548 -0.0874418 -1.51351e-20)
(0.190493 -0.0886743 -1.49673e-20)
(0.188379 -0.0898515 3.324e-21)
(0.186208 -0.0909709 1.615e-20)
(0.183983 -0.0920298 1.23625e-20)
(0.181705 -0.093026 1.88034e-22)
(0.179378 -0.0939571 -7.7159e-21)
(0.177003 -0.0948211 -1.46584e-21)
(0.174584 -0.0956158 -1.41732e-20)
(0.172121 -0.0963393 -1.19714e-21)
(0.169619 -0.0969898 1.2857e-20)
(0.16708 -0.0975655 -1.10519e-22)
(0.164506 -0.0980649 5.73623e-22)
(0.161901 -0.0984864 -3.95334e-22)
(0.159267 -0.0988287 2.17976e-20)
(0.156607 -0.0990905 9.4014e-22)
(0.153923 -0.0992706 -2.31579e-20)
(0.15122 -0.0993681 4.29524e-21)
(0.1485 -0.0993818 -3.19446e-21)
(0.145766 -0.0993111 -4.11699e-21)
(0.143021 -0.0991553 6.77239e-21)
(0.140268 -0.0989137 -1.05015e-20)
(0.13751 -0.0985858 -1.72967e-20)
(0.13475 -0.0981715 -2.08682e-20)
(0.131991 -0.0976703 -4.53411e-23)
(0.129238 -0.0970822 4.52783e-20)
(0.126491 -0.0964072 2.78456e-20)
(0.123756 -0.0956453 -3.28652e-21)
(0.121034 -0.0947969 -1.3854e-20)
(0.118329 -0.0938623 -1.03458e-20)
(0.115643 -0.0928418 -2.39249e-20)
(0.112981 -0.0917361 9.85103e-21)
(0.110344 -0.0905458 2.2849e-20)
(0.107737 -0.0892717 2.46894e-22)
(0.105161 -0.0879147 1.31696e-20)
(0.10262 -0.0864758 -5.9203e-23)
(0.100116 -0.084956 -1.2508e-20)
(0.0976528 -0.0833565 -8.93483e-21)
(0.0952326 -0.0816787 -1.05739e-21)
(0.0928583 -0.0799238 -5.78959e-21)
(0.0905325 -0.0780934 -2.18263e-21)
(0.0882577 -0.076189 9.6005e-22)
(0.0860366 -0.0742122 3.96914e-21)
(0.0838716 -0.0721649 6.7137e-21)
(0.0817651 -0.0700488 1.41344e-20)
(0.0797195 -0.0678657 -5.9448e-21)
(0.077737 -0.0656178 -2.3802e-20)
(0.0758199 -0.063307 1.54537e-20)
(0.0739703 -0.0609354 7.61572e-21)
(0.0721902 -0.0585053 -5.02242e-21)
(0.0704816 -0.056019 -9.33418e-21)
(0.0688465 -0.0534786 -5.83152e-21)
(0.0672865 -0.0508867 1.78374e-20)
(0.0658035 -0.0482457 3.70459e-21)
(0.0643991 -0.0455581 -5.87526e-21)
(0.0630749 -0.0428264 4.29878e-21)
(0.0618322 -0.0400532 -2.01329e-21)
(0.0606725 -0.0372412 -1.13649e-20)
(0.059597 -0.0343931 7.65636e-22)
(0.058607 -0.0315117 3.96681e-21)
(0.0577036 -0.0285996 -4.44805e-21)
(0.0568876 -0.0256598 2.41297e-21)
(0.0561601 -0.022695 8.34347e-21)
(0.0555219 -0.0197081 -3.91349e-21)
(0.0549736 -0.016702 -1.61771e-21)
(0.0545158 -0.0136796 -1.78767e-22)
(0.0541491 -0.0106439 -6.07445e-22)
(0.0538739 -0.00759783 2.46916e-21)
(0.0536904 -0.00454431 8.41804e-22)
(0.0535989 -0.00148634 1.8642e-21)
(0.22022 -0.0399658 -1.22904e-21)
(0.220012 -0.041301 1.00318e-21)
(0.219766 -0.0426648 -2.21077e-21)
(0.219478 -0.0440563 -2.41367e-21)
(0.219148 -0.0454735 -1.84258e-21)
(0.218771 -0.0469146 -2.21613e-21)
(0.218346 -0.0483773 -9.93013e-22)
(0.217869 -0.0498594 -5.46351e-22)
(0.217339 -0.0513584 -1.88215e-21)
(0.216755 -0.0528719 -2.85458e-21)
(0.216113 -0.0543971 -7.47385e-22)
(0.215412 -0.0559315 -2.38672e-21)
(0.214651 -0.0574721 2.99381e-21)
(0.213829 -0.0590162 -8.38767e-21)
(0.212945 -0.0605609 3.43113e-21)
(0.211997 -0.0621031 1.07607e-20)
(0.210986 -0.06364 5.4494e-21)
(0.20991 -0.0651684 -5.90625e-22)
(0.20877 -0.0666854 -3.05681e-21)
(0.207564 -0.0681878 9.67667e-22)
(0.206294 -0.0696727 -8.47398e-21)
(0.204959 -0.071137 -2.44117e-21)
(0.20356 -0.0725777 8.2782e-21)
(0.202097 -0.0739918 5.20868e-21)
(0.200571 -0.0753763 -1.78364e-20)
(0.198983 -0.0767284 1.37608e-20)
(0.197333 -0.0780452 1.69818e-20)
(0.195623 -0.0793239 -4.87564e-21)
(0.193854 -0.0805617 5.11619e-21)
(0.192027 -0.081756 -9.4065e-21)
(0.190144 -0.0829042 -8.64989e-21)
(0.188207 -0.0840037 -5.78835e-21)
(0.186217 -0.0850521 -3.31678e-21)
(0.184176 -0.0860471 2.3631e-20)
(0.182086 -0.0869865 7.89415e-22)
(0.179949 -0.087868 -9.93303e-21)
(0.177767 -0.0886896 -2.32862e-22)
(0.175542 -0.0894494 -1.03531e-20)
(0.173277 -0.0901454 -1.09079e-20)
(0.170974 -0.090776 1.07909e-21)
(0.168635 -0.0913394 1.67268e-20)
(0.166262 -0.091834 6.62592e-23)
(0.163859 -0.0922584 -1.10395e-20)
(0.161427 -0.0926113 -5.78254e-22)
(0.158969 -0.0928912 1.05122e-20)
(0.156489 -0.0930972 -5.66173e-21)
(0.153988 -0.093228 -4.4964e-21)
(0.151469 -0.0932829 1.60612e-20)
(0.148935 -0.0932608 -4.92343e-23)
(0.146389 -0.093161 -1.08623e-20)
(0.143834 -0.092983 1.051e-20)
(0.141272 -0.0927261 4.99588e-21)
(0.138706 -0.0923899 -1.03148e-20)
(0.136139 -0.0919741 -4.87575e-21)
(0.133574 -0.0914785 -5.66049e-22)
(0.131014 -0.090903 1.07017e-20)
(0.128461 -0.0902475 4.60854e-23)
(0.125919 -0.0895122 1.05657e-20)
(0.12339 -0.0886972 6.19844e-22)
(0.120876 -0.0878029 -1.07712e-20)
(0.118382 -0.0868296 -5.57441e-21)
(0.115909 -0.0857779 -9.74177e-21)
(0.113461 -0.0846484 2.68372e-22)
(0.11104 -0.0834417 -3.86482e-22)
(0.108648 -0.0821587 6.50481e-21)
(0.106289 -0.0808003 -4.59531e-21)
(0.103965 -0.0793674 -4.10137e-21)
(0.101679 -0.0778612 4.77296e-21)
(0.0994331 -0.0762828 4.39463e-21)
(0.0972297 -0.0746335 5.61942e-22)
(0.0950715 -0.0729146 -1.23754e-20)
(0.0929608 -0.0711275 -4.35835e-21)
(0.0909 -0.0692738 1.20505e-20)
(0.0888913 -0.0673551 8.24439e-21)
(0.0869371 -0.0653729 -9.35381e-21)
(0.0850395 -0.0633291 -2.24015e-21)
(0.0832005 -0.0612255 1.04889e-20)
(0.0814222 -0.059064 6.17535e-21)
(0.0797066 -0.0568464 2.49943e-21)
(0.0780555 -0.0545749 -6.89773e-21)
(0.0764708 -0.0522516 -7.34725e-21)
(0.0749543 -0.0498784 -5.14909e-21)
(0.0735075 -0.0474577 -2.45306e-22)
(0.0721322 -0.0449918 1.95198e-21)
(0.0708297 -0.0424828 -1.09262e-21)
(0.0696017 -0.0399332 2.56235e-21)
(0.0684493 -0.0373454 7.07411e-21)
(0.0673739 -0.0347218 4.48047e-21)
(0.0663766 -0.0320649 -2.29007e-21)
(0.0654586 -0.0293772 -4.06045e-21)
(0.0646208 -0.0266612 -1.56506e-21)
(0.0638643 -0.0239197 -4.34399e-21)
(0.0631897 -0.0211551 -7.30549e-22)
(0.0625979 -0.0183702 4.80048e-21)
(0.0620895 -0.0155676 -1.54098e-21)
(0.0616651 -0.01275 1.69399e-21)
(0.0613251 -0.00992005 -3.02976e-21)
(0.0610699 -0.00708055 -2.51319e-21)
(0.0608998 -0.0042342 1.78248e-22)
(0.060815 -0.00138375 2.96451e-21)
(0.2175 -0.0394518 -5.26831e-21)
(0.217254 -0.0407044 -2.36167e-21)
(0.216968 -0.0419795 3.06573e-21)
(0.216642 -0.0432761 5.89397e-21)
(0.216274 -0.0445928 -3.8614e-21)
(0.215862 -0.0459279 1.18369e-21)
(0.215404 -0.0472795 -2.33878e-21)
(0.214898 -0.0486458 -3.56276e-21)
(0.214342 -0.0500245 2.35674e-21)
(0.213735 -0.0514135 3.97242e-21)
(0.213075 -0.0528106 6.41498e-22)
(0.212361 -0.0542134 6.82462e-21)
(0.211592 -0.0556196 -1.00603e-21)
(0.210768 -0.0570265 -5.19525e-21)
(0.209887 -0.0584318 3.68639e-21)
(0.208948 -0.0598328 -6.63573e-22)
(0.207952 -0.0612269 2.64143e-21)
(0.206897 -0.0626115 -1.7053e-21)
(0.205784 -0.0639839 2.61736e-22)
(0.204613 -0.0653415 -5.80993e-21)
(0.203383 -0.0666817 -7.07756e-21)
(0.202095 -0.0680016 -4.79357e-21)
(0.200749 -0.0692988 9.14476e-21)
(0.199346 -0.0705705 1.01287e-20)
(0.197887 -0.0718142 -6.06133e-21)
(0.196371 -0.0730273 1.08428e-21)
(0.1948 -0.0742072 -1.22512e-21)
(0.193176 -0.0753515 -9.72528e-22)
(0.191498 -0.0764577 -2.0448e-21)
(0.189769 -0.0775235 5.75844e-21)
(0.18799 -0.0785465 -9.45684e-21)
(0.186162 -0.0795245 -7.84187e-21)
(0.184286 -0.0804552 3.6763e-21)
(0.182365 -0.0813367 3.83974e-21)
(0.1804 -0.0821668 1.28706e-20)
(0.178393 -0.0829437 -7.74742e-21)
(0.176346 -0.0836654 -7.94542e-21)
(0.17426 -0.0843302 -7.68838e-21)
(0.172138 -0.0849363 3.98949e-21)
(0.169982 -0.0854822 2.42699e-20)
(0.167794 -0.0859663 -3.85333e-21)
(0.165577 -0.0863873 -1.31187e-20)
(0.163332 -0.0867437 -8.43715e-21)
(0.161062 -0.0870343 4.41086e-21)
(0.158769 -0.0872579 1.67162e-20)
(0.156455 -0.0874135 7.85311e-21)
(0.154124 -0.0875001 -1.27036e-20)
(0.151777 -0.0875169 -1.2265e-20)
(0.149417 -0.0874629 4.02285e-21)
(0.147046 -0.0873377 -4.06841e-21)
(0.144668 -0.0871405 2.12057e-22)
(0.142284 -0.0868709 1.19721e-20)
(0.139897 -0.0865284 -2.05294e-23)