/*--------------------------------*- C++ -*----------------------------------*\
  =========                 |
  \\      /  F ield         | OpenFOAM: The Open Source CFD Toolbox
   \\    /   O peration     | Website:  https://openfoam.org
    \\  /    A nd           | Version:  8
     \\/     M anipulation  |
\*---------------------------------------------------------------------------*/
FoamFile
{
    version     2.0;
    format      ascii;
    class       volScalarField;
    location    "0.24";
    object      p;
}
// * * * * * * * * * * * * * * * * * * * * * * * * * * * * * * * * * * * * * //

dimensions      [0 2 -2 0 0 0 0];

internalField   nonuniform List<scalar> 
108623
(
1.14535
1.13539
1.12718
1.11931
1.11164
1.10396
1.09617
1.08826
1.08026
1.07216
1.06395
1.05564
1.04723
1.03872
1.03013
1.02145
1.01268
1.00383
0.994905
0.985905
0.976832
0.967696
0.958493
0.94923
0.939905
0.93053
0.921099
0.911614
0.902084
0.892507
0.882888
0.873227
0.863523
0.853785
0.844007
0.834196
0.824353
0.814475
0.80457
0.794636
0.784676
0.774689
0.764676
0.754638
0.744579
0.734497
0.724396
0.714274
0.704131
0.69397
0.683791
0.673596
0.663383
0.653156
0.642912
0.632654
0.622381
0.612096
0.601794
0.591481
0.581157
0.570818
0.560467
0.550104
0.53973
0.529345
0.518947
0.508541
0.498123
0.487693
0.477254
0.466803
0.456342
0.44587
0.435388
0.424897
0.414392
0.403881
0.393358
0.382825
0.37228
0.361725
0.35116
0.340587
0.329999
0.319399
0.308794
0.298173
0.287543
0.2769
0.266246
0.255583
0.244906
0.234216
0.223514
0.212803
0.202077
0.191337
0.180586
0.169821
0.159042
0.148251
0.137446
0.126626
0.115793
0.104947
0.0940842
0.0832067
0.0723146
0.0614097
0.0504861
0.0395475
0.0285936
0.0176222
0.0066393
-0.00436606
-0.0153864
-0.0264206
-0.0374737
-0.0485441
-0.0596338
-0.0707385
-0.081862
-0.0930015
-0.104163
-0.11534
-0.126537
-0.137752
-0.148985
-0.160238
-0.171508
-0.182798
-0.194107
-0.205434
-0.216782
-0.228148
-0.239534
-0.250939
-0.262364
-0.273808
-0.285268
-0.296749
-0.30825
-0.319768
-0.331306
-0.342862
-0.354436
-0.366027
-0.377638
-0.389264
-0.400909
-0.412571
-0.424249
-0.435941
-0.447648
-0.459371
-0.471109
-0.482861
-0.494625
-0.5064
-0.518185
-0.529982
-0.541789
-0.553608
-0.565431
-0.577261
-0.589097
-0.600933
-0.612776
-0.624618
-0.636457
-0.648298
-0.660133
-0.671967
-0.683789
-0.695598
-0.707402
-0.719187
-0.730958
-0.742708
-0.754441
-0.766147
-0.777825
-0.789474
-0.801096
-0.812679
-0.824219
-0.835726
-0.847188
-0.85861
-0.869985
-0.881308
-0.892605
-0.903872
-0.915102
-0.926287
-0.937585
-0.94933
-0.961775
-0.976875
1.15058
1.14092
1.13235
1.12408
1.11624
1.10857
1.10086
1.09304
1.0851
1.07707
1.06892
1.06068
1.05233
1.04389
1.03535
1.02671
1.01799
1.00919
1.0003
0.991329
0.982291
0.973177
0.963998
0.954754
0.945446
0.93608
0.926657
0.917176
0.907646
0.898069
0.888441
0.87877
0.869055
0.859301
0.849505
0.839671
0.829802
0.819898
0.809961
0.799993
0.789995
0.77997
0.769916
0.759834
0.749726
0.739596
0.729443
0.719267
0.709069
0.698849
0.688609
0.678351
0.668074
0.65778
0.647466
0.637138
0.626793
0.616432
0.606055
0.595664
0.585258
0.574839
0.564404
0.553957
0.543497
0.533023
0.522538
0.51204
0.50153
0.491006
0.480473
0.469926
0.459368
0.448798
0.438217
0.427624
0.417019
0.406404
0.395778
0.385139
0.374489
0.363828
0.353156
0.342472
0.331776
0.321068
0.31035
0.299619
0.288876
0.278121
0.267355
0.256576
0.245785
0.23498
0.224164
0.213334
0.202492
0.191637
0.180767
0.169887
0.158988
0.148081
0.137155
0.126218
0.115266
0.1043
0.0933195
0.0823225
0.0713118
0.0602858
0.0492442
0.0381867
0.0271135
0.0160238
0.00492019
-0.00620258
-0.0173406
-0.0284948
-0.0396655
-0.0508541
-0.0620595
-0.0732826
-0.084522
-0.0957788
-0.107054
-0.118348
-0.129658
-0.140987
-0.152333
-0.163699
-0.17508
-0.186482
-0.197901
-0.209338
-0.220793
-0.232269
-0.24376
-0.255271
-0.2668
-0.278345
-0.28991
-0.301492
-0.313092
-0.324709
-0.336343
-0.347994
-0.359663
-0.371347
-0.383047
-0.394763
-0.406495
-0.418243
-0.430004
-0.441778
-0.453565
-0.465365
-0.477179
-0.489005
-0.500839
-0.512681
-0.524535
-0.536397
-0.548266
-0.560141
-0.572021
-0.583905
-0.59579
-0.607674
-0.61956
-0.631443
-0.643324
-0.655196
-0.667063
-0.678925
-0.690771
-0.702603
-0.714422
-0.726221
-0.737999
-0.74976
-0.761488
-0.773194
-0.784868
-0.796507
-0.808113
-0.819673
-0.831195
-0.842679
-0.854111
-0.865497
-0.87684
-0.888137
-0.899401
-0.910618
-0.921805
-0.933052
-0.944687
-0.957127
-0.970187
-0.985023
1.1535
1.14593
1.13753
1.12901
1.12091
1.11317
1.10551
1.09777
1.08991
1.08194
1.07387
1.06569
1.05741
1.04903
1.04054
1.03196
1.02329
1.01453
1.00568
0.996756
0.987747
0.978667
0.96951
0.960288
0.950998
0.941649
0.932236
0.922763
0.913237
0.903658
0.894028
0.884351
0.874626
0.864858
0.855045
0.845193
0.8353
0.825372
0.815406
0.805406
0.795374
0.785311
0.775218
0.765093
0.754942
0.744762
0.734559
0.724329
0.714078
0.7038
0.693502
0.68318
0.67284
0.662478
0.652098
0.641699
0.631281
0.620845
0.610393
0.599924
0.589439
0.578936
0.56842
0.557887
0.54734
0.536778
0.526202
0.515612
0.50501
0.494392
0.483761
0.47312
0.462463
0.451793
0.44111
0.430416
0.419708
0.408989
0.398257
0.387512
0.376754
0.365983
0.355203
0.344408
0.333602
0.322781
0.31195
0.301106
0.290248
0.279379
0.268495
0.257601
0.246692
0.23577
0.224836
0.213889
0.202927
0.191952
0.180962
0.169961
0.158943
0.147914
0.136868
0.12581
0.114735
0.103648
0.0925452
0.0814276
0.0702936
0.0591471
0.0479814
0.0368039
0.0256076
0.0143972
0.00317227
-0.00807287
-0.019331
-0.030607
-0.0418967
-0.0532065
-0.0645318
-0.0758738
-0.087232
-0.0986076
-0.110001
-0.12141
-0.132838
-0.144283
-0.155745
-0.167222
-0.178719
-0.190234
-0.201764
-0.213312
-0.224878
-0.236461
-0.248062
-0.259679
-0.271312
-0.282964
-0.29463
-0.306314
-0.318014
-0.32973
-0.341462
-0.353208
-0.36497
-0.376748
-0.388537
-0.400344
-0.412162
-0.423995
-0.435837
-0.447693
-0.459559
-0.471438
-0.483326
-0.495224
-0.507127
-0.519037
-0.530955
-0.542881
-0.55481
-0.566741
-0.578675
-0.590608
-0.602543
-0.614472
-0.626399
-0.63832
-0.650236
-0.662142
-0.674037
-0.685923
-0.697791
-0.709638
-0.721471
-0.73328
-0.745069
-0.756826
-0.768559
-0.780254
-0.791919
-0.803543
-0.815131
-0.826671
-0.838168
-0.849619
-0.861022
-0.872374
-0.883685
-0.894945
-0.90617
-0.917344
-0.928522
-0.93997
-0.952083
-0.96498
-0.977901
-0.98975
1.15546
1.15006
1.14253
1.13408
1.12575
1.11784
1.11015
1.10247
1.09469
1.0868
1.0788
1.07069
1.06247
1.05416
1.04573
1.03721
1.02859
1.01988
1.01107
1.00219
0.99322
0.984168
0.975043
0.965846
0.956579
0.947246
0.937847
0.928385
0.918865
0.909289
0.899657
0.889977
0.880245
0.870463
0.860638
0.85077
0.840857
0.830905
0.820914
0.810884
0.800819
0.790721
0.780588
0.770425
0.760228
0.750003
0.73975
0.729472
0.719164
0.708831
0.698473
0.688092
0.677686
0.667259
0.656814
0.646343
0.635852
0.625344
0.614814
0.604267
0.593702
0.583118
0.572517
0.5619
0.551264
0.540614
0.529946
0.519265
0.508567
0.497856
0.487128
0.476386
0.465631
0.454859
0.444074
0.433277
0.422464
0.411637
0.400799
0.389944
0.379078
0.368197
0.357305
0.346396
0.335476
0.324542
0.313595
0.302635
0.291661
0.280673
0.269671
0.258658
0.247629
0.236588
0.225532
0.214463
0.203379
0.192282
0.181171
0.170045
0.158905
0.147751
0.136582
0.125399
0.1142
0.102988
0.09176
0.0805175
0.0692592
0.0579874
0.0466981
0.0353937
0.0240746
0.0127391
0.00138903
-0.00997853
-0.0213606
-0.032761
-0.0441743
-0.0556064
-0.0670526
-0.0785181
-0.0899966
-0.101494
-0.113008
-0.124535
-0.136082
-0.147646
-0.159224
-0.170819
-0.182431
-0.194059
-0.205704
-0.217364
-0.229043
-0.240735
-0.252446
-0.26417
-0.275911
-0.287667
-0.299438
-0.311224
-0.323026
-0.334839
-0.34667
-0.358514
-0.370368
-0.382237
-0.394121
-0.406015
-0.41792
-0.429837
-0.441765
-0.453698
-0.465644
-0.477598
-0.489561
-0.501527
-0.513501
-0.525478
-0.53746
-0.549446
-0.561432
-0.573418
-0.585405
-0.597386
-0.609364
-0.621341
-0.633307
-0.645263
-0.657212
-0.669149
-0.68107
-0.692977
-0.704864
-0.716728
-0.728569
-0.740385
-0.752175
-0.763936
-0.775659
-0.787348
-0.798998
-0.810608
-0.822171
-0.833687
-0.845159
-0.856576
-0.867946
-0.879267
-0.890538
-0.901763
-0.912943
-0.924101
-0.935403
-0.947188
-0.959744
-0.972634
-0.984377
-0.99309
1.15825
1.15358
1.14706
1.1391
1.13074
1.12261
1.11482
1.10716
1.09945
1.09164
1.08371
1.07567
1.06753
1.05927
1.05091
1.04245
1.03389
1.02523
1.01648
1.00763
0.998704
0.989691
0.980599
0.971431
0.96219
0.952874
0.943493
0.934045
0.924536
0.914965
0.905337
0.895655
0.885917
0.876129
0.866292
0.856409
0.846479
0.836504
0.826489
0.816432
0.806338
0.796205
0.786035
0.775834
0.765596
0.755325
0.745025
0.734694
0.724334
0.713947
0.70353
0.693089
0.682621
0.672128
0.661613
0.651074
0.640511
0.629927
0.619322
0.608696
0.59805
0.587385
0.576699
0.565994
0.555272
0.544532
0.533773
0.522997
0.512205
0.501397
0.490571
0.479729
0.468872
0.457998
0.44711
0.436205
0.425287
0.414352
0.403402
0.392439
0.381461
0.370467
0.35946
0.348438
0.337402
0.32635
0.315286
0.304206
0.293113
0.282005
0.270883
0.259747
0.248597
0.237431
0.226252
0.215058
0.203851
0.192628
0.18139
0.170139
0.158872
0.147592
0.136296
0.124985
0.11366
0.102319
0.0909645
0.0795931
0.0682076
0.0568071
0.0453907
0.0339585
0.0225122
0.011049
-0.000428142
-0.0119233
-0.0234316
-0.0349567
-0.0464968
-0.0580551
-0.0696266
-0.081214
-0.0928183
-0.104439
-0.116073
-0.127725
-0.139392
-0.151076
-0.162773
-0.174488
-0.186218
-0.197962
-0.209721
-0.221498
-0.233289
-0.245093
-0.256913
-0.268748
-0.280598
-0.292459
-0.304335
-0.316225
-0.328128
-0.340043
-0.351972
-0.363912
-0.375863
-0.387826
-0.3998
-0.411781
-0.423776
-0.435775
-0.447785
-0.459802
-0.471824
-0.483854
-0.49589
-0.507925
-0.519967
-0.532012
-0.544054
-0.556099
-0.568142
-0.580183
-0.592219
-0.604247
-0.61627
-0.628285
-0.64029
-0.652281
-0.66426
-0.676223
-0.688167
-0.700092
-0.711994
-0.723874
-0.735723
-0.747542
-0.75933
-0.771084
-0.782799
-0.794478
-0.806111
-0.8177
-0.829239
-0.840728
-0.852167
-0.863552
-0.874885
-0.886169
-0.897402
-0.908588
-0.919741
-0.930956
-0.942496
-0.954679
-0.967384
-0.979664
-0.989994
-0.997724
1.16167
1.15686
1.15107
1.14385
1.13574
1.12751
1.11957
1.11186
1.10419
1.09645
1.0886
1.08064
1.07256
1.06438
1.05608
1.04769
1.03918
1.03058
1.02188
1.01309
1.0042
0.995228
0.986173
0.977038
0.967824
0.958533
0.949173
0.939742
0.930247
0.920687
0.911063
0.901381
0.891643
0.88185
0.872005
0.862109
0.852163
0.842169
0.832132
0.82205
0.811928
0.801763
0.791558
0.781318
0.771041
0.760726
0.75038
0.739999
0.729587
0.719146
0.708674
0.698172
0.687641
0.677084
0.6665
0.655892
0.645257
0.634598
0.623918
0.613213
0.602486
0.591737
0.580966
0.570176
0.559364
0.548533
0.537682
0.526812
0.515923
0.505018
0.494092
0.483148
0.472188
0.461212
0.450215
0.439206
0.428176
0.417133
0.406072
0.394996
0.383903
0.372795
0.361672
0.350533
0.339378
0.328207
0.317023
0.305822
0.294607
0.283375
0.27213
0.260868
0.249594
0.238302
0.226997
0.215676
0.20434
0.19299
0.181623
0.170243
0.158847
0.147437
0.13601
0.12457
0.113114
0.101643
0.0901576
0.0786549
0.0671395
0.0556067
0.0440603
0.0324972
0.0209206
0.00932633
-0.00227984
-0.0139048
-0.0255438
-0.0371973
-0.0488665
-0.0605511
-0.0722513
-0.0839659
-0.0956973
-0.107441
-0.119204
-0.130977
-0.14277
-0.154574
-0.166393
-0.178229
-0.190079
-0.201941
-0.213819
-0.225711
-0.237616
-0.249535
-0.261468
-0.273412
-0.285371
-0.297342
-0.309324
-0.321319
-0.333323
-0.345341
-0.357369
-0.369405
-0.381453
-0.393509
-0.405575
-0.417647
-0.429726
-0.44181
-0.453901
-0.465999
-0.478099
-0.490205
-0.502311
-0.514417
-0.526527
-0.538635
-0.550738
-0.56284
-0.574937
-0.587031
-0.599116
-0.61119
-0.623254
-0.635308
-0.647347
-0.659371
-0.671379
-0.683364
-0.695327
-0.707268
-0.719182
-0.73107
-0.742924
-0.754743
-0.766527
-0.778275
-0.789981
-0.801638
-0.81325
-0.824816
-0.836327
-0.847784
-0.859191
-0.870537
-0.881835
-0.89308
-0.904276
-0.915426
-0.926601
-0.937971
-0.949825
-0.962251
-0.974682
-0.985964
-0.995316
-1.00337
1.1653
1.16011
1.1547
1.14821
1.14059
1.13246
1.12441
1.1166
1.10893
1.10124
1.09347
1.08558
1.07758
1.06947
1.06124
1.05291
1.04447
1.03593
1.02729
1.01855
1.00971
1.00078
0.991764
0.982666
0.973483
0.964221
0.954885
0.945475
0.935995
0.926447
0.916832
0.907158
0.89742
0.887624
0.877773
0.867868
0.85791
0.8479
0.837842
0.827738
0.817587
0.807394
0.797156
0.78688
0.776564
0.766208
0.755815
0.745388
0.734926
0.72443
0.7139
0.703339
0.692749
0.682126
0.671476
0.660799
0.650092
0.639361
0.628602
0.617819
0.607009
0.596179
0.585322
0.574445
0.563542
0.55262
0.541676
0.530711
0.519724
0.508719
0.497692
0.486648
0.475582
0.4645
0.453397
0.442277
0.431138
0.419983
0.408808
0.397617
0.38641
0.375184
0.363941
0.352682
0.341407
0.330115
0.318807
0.307482
0.296142
0.284785
0.273414
0.262025
0.250621
0.239203
0.227765
0.216317
0.204849
0.193368
0.18187
0.170358
0.158829
0.147286
0.135726
0.124153
0.112562
0.10096
0.0893374
0.0777032
0.0660528
0.0543862
0.0427062
0.0310095
0.0192993
0.00757204
-0.00416847
-0.0159251
-0.0276959
-0.0394817
-0.0512837
-0.0630993
-0.0749285
-0.0867738
-0.0986336
-0.110506
-0.122396
-0.134297
-0.146214
-0.158143
-0.170088
-0.182045
-0.194016
-0.206
-0.217997
-0.230007
-0.242028
-0.254062
-0.26611
-0.278166
-0.290236
-0.302314
-0.314406
-0.326506
-0.338616
-0.350733
-0.362862
-0.374996
-0.387139
-0.39929
-0.411446
-0.423607
-0.435774
-0.447944
-0.460118
-0.472292
-0.484471
-0.49665
-0.508828
-0.521002
-0.533178
-0.545346
-0.557513
-0.56967
-0.581821
-0.593964
-0.606095
-0.618213
-0.630317
-0.642406
-0.654479
-0.666528
-0.678561
-0.690569
-0.702549
-0.714503
-0.726426
-0.738318
-0.750174
-0.761989
-0.773767
-0.785502
-0.797191
-0.80883
-0.82042
-0.831954
-0.843435
-0.854859
-0.866226
-0.877538
-0.888794
-0.9
-0.911158
-0.922311
-0.933573
-0.945173
-0.957288
-0.969676
-0.981476
-0.991776
-1.00066
-1.00939
1.1689
1.16343
1.15812
1.1522
1.1452
1.13737
1.12931
1.12141
1.11369
1.10602
1.09831
1.0905
1.08258
1.07454
1.06639
1.05813
1.04976
1.04128
1.03269
1.02401
1.01522
1.00634
0.997372
0.988311
0.979166
0.969934
0.960627
0.95124
0.94178
0.932248
0.922647
0.912979
0.903247
0.893452
0.883597
0.873685
0.863717
0.853695
0.843619
0.833493
0.823319
0.813099
0.802832
0.792519
0.782167
0.771771
0.761335
0.750861
0.74035
0.7298
0.719214
0.708595
0.697945
0.68726
0.676543
0.665797
0.65502
0.644213
0.633377
0.622516
0.611626
0.600711
0.589769
0.578802
0.567812
0.556796
0.545757
0.534696
0.523611
0.512505
0.501377
0.490227
0.479057
0.467866
0.456655
0.445424
0.434173
0.422903
0.411614
0.400306
0.388978
0.377634
0.36627
0.35489
0.343492
0.332074
0.320641
0.30919
0.297723
0.286236
0.274736
0.263217
0.251683
0.240131
0.228563
0.21698
0.205379
0.193763
0.18213
0.170483
0.158818
0.147139
0.135444
0.123733
0.112006
0.100265
0.0885075
0.0767349
0.0649476
0.0531439
0.0413276
0.0294925
0.0176466
0.00578319
-0.00609371
-0.0179869
-0.0298924
-0.0418127
-0.0537494
-0.0656977
-0.0776619
-0.0896396
-0.101631
-0.113636
-0.125653
-0.137685
-0.14973
-0.161787
-0.173857
-0.185939
-0.198034
-0.21014
-0.222259
-0.234388
-0.246529
-0.258681
-0.270841
-0.283013
-0.295194
-0.307384
-0.319583
-0.331788
-0.344004
-0.356226
-0.368454
-0.380686
-0.392926
-0.40517
-0.417416
-0.429667
-0.441922
-0.454178
-0.466431
-0.478686
-0.490941
-0.503192
-0.515439
-0.527684
-0.539922
-0.552152
-0.564375
-0.576588
-0.588791
-0.60098
-0.613155
-0.625314
-0.637456
-0.649579
-0.66168
-0.673758
-0.685811
-0.697835
-0.70983
-0.721794
-0.733722
-0.745617
-0.757468
-0.76928
-0.781043
-0.792765
-0.804432
-0.81605
-0.82761
-0.839117
-0.850562
-0.861949
-0.873278
-0.88455
-0.895765
-0.906932
-0.918075
-0.929274
-0.94069
-0.952521
-0.964739
-0.976786
-0.987778
-0.997337
-1.00619
-1.01543
1.17234
1.16677
1.16142
1.15587
1.14947
1.14211
1.13421
1.12627
1.11848
1.11081
1.10314
1.0954
1.08755
1.07959
1.07152
1.06333
1.05503
1.04662
1.0381
1.02947
1.02074
1.01192
1.00299
0.993975
0.984869
0.975673
0.966397
0.957038
0.947603
0.938089
0.928503
0.918848
0.909123
0.899332
0.889478
0.879561
0.869586
0.859554
0.849463
0.83932
0.829122
0.818878
0.808581
0.798239
0.78785
0.777416
0.766938
0.75642
0.745859
0.735259
0.72462
0.713945
0.703232
0.692487
0.681702
0.670887
0.660039
0.649159
0.638247
0.627308
0.616336
0.605336
0.594309
0.583254
0.572172
0.561064
0.54993
0.538771
0.527586
0.516379
0.505147
0.493892
0.482615
0.471313
0.459992
0.448648
0.437284
0.425897
0.414489
0.403064
0.391614
0.380149
0.368663
0.357156
0.345633
0.334088
0.322527
0.310947
0.299348
0.287732
0.276098
0.264445
0.252777
0.24109
0.229388
0.217667
0.205929
0.194177
0.182405
0.170619
0.158816
0.146997
0.135161
0.123311
0.111445
0.0995618
0.0876653
0.0757511
0.063824
0.0518793
0.0399214
0.0279486
0.0159607
0.00395852
-0.00805766
-0.0200902
-0.0321337
-0.0441934
-0.0562666
-0.0683507
-0.0804526
-0.0925636
-0.104691
-0.11683
-0.12898
-0.141144
-0.153318
-0.165506
-0.177704
-0.189915
-0.202135
-0.214366
-0.226608
-0.238859
-0.25112
-0.26339
-0.275668
-0.287954
-0.300249
-0.312551
-0.32486
-0.337172
-0.349493
-0.361818
-0.374147
-0.386478
-0.398818
-0.411153
-0.423493
-0.435831
-0.448172
-0.460511
-0.472848
-0.485179
-0.497509
-0.509833
-0.52215
-0.534459
-0.546761
-0.559049
-0.571331
-0.583596
-0.595848
-0.608082
-0.620298
-0.632498
-0.644673
-0.656826
-0.668955
-0.681055
-0.693126
-0.705167
-0.717171
-0.729141
-0.741072
-0.752965
-0.76481
-0.776609
-0.788363
-0.800058
-0.811707
-0.823293
-0.834827
-0.846297
-0.857706
-0.869056
-0.88034
-0.891569
-0.902749
-0.91389
-0.925049
-0.936347
-0.947945
-0.959929
-0.972007
-0.983469
-0.993672
-1.00279
-1.0118
-1.02131
1.17561
1.1701
1.16471
1.15934
1.15343
1.14659
1.13902
1.13115
1.12332
1.11562
1.10797
1.10028
1.09251
1.08463
1.07663
1.06852
1.06029
1.05195
1.0435
1.03493
1.02627
1.01749
1.00862
0.999653
0.99059
0.981437
0.972194
0.962867
0.953458
0.94397
0.934402
0.924761
0.915047
0.905264
0.895415
0.885495
0.875517
0.865475
0.855373
0.845214
0.834998
0.824731
0.814408
0.804036
0.793616
0.783143
0.772627
0.762063
0.751458
0.740807
0.730117
0.719385
0.708614
0.697805
0.686956
0.676072
0.665154
0.654202
0.643214
0.632194
0.621142
0.610058
0.598944
0.587799
0.576627
0.565424
0.554194
0.542938
0.531652
0.520341
0.509005
0.497643
0.486255
0.474845
0.46341
0.451953
0.440471
0.428966
0.41744
0.405891
0.394322
0.38273
0.371119
0.359485
0.347832
0.336159
0.324466
0.312753
0.301021
0.289271
0.277502
0.265713
0.253906
0.242083
0.23024
0.218379
0.206503
0.194607
0.182696
0.170767
0.158821
0.146859
0.134882
0.122886
0.110877
0.0988505
0.0868083
0.074752
0.0626795
0.0505916
0.0384898
0.0263734
0.0142424
0.00209669
-0.0100627
-0.0222362
-0.0344219
-0.0466233
-0.0588358
-0.0710625
-0.0833005
-0.0955521
-0.107815
-0.120091
-0.132378
-0.144675
-0.156983
-0.169302
-0.181633
-0.193972
-0.20632
-0.218679
-0.231047
-0.243421
-0.255803
-0.268194
-0.280589
-0.292994
-0.305402
-0.317818
-0.330236
-0.342658
-0.355086
-0.367513
-0.379943
-0.392376
-0.40481
-0.417243
-0.429673
-0.442102
-0.454526
-0.466949
-0.479365
-0.491777
-0.504178
-0.516576
-0.528958
-0.541332
-0.553695
-0.566041
-0.578376
-0.590692
-0.602992
-0.61527
-0.627525
-0.639762
-0.651968
-0.664148
-0.676302
-0.688421
-0.700511
-0.71256
-0.724572
-0.736545
-0.748475
-0.760359
-0.772195
-0.783981
-0.795714
-0.807389
-0.819007
-0.830567
-0.842063
-0.853498
-0.864863
-0.876172
-0.887417
-0.898603
-0.90975
-0.920892
-0.932105
-0.943533
-0.955285
-0.967263
-0.978968
-0.989748
-0.999318
-1.00828
-1.01747
-1.027
1.17872
1.17338
1.168
1.16268
1.15711
1.1508
1.14365
1.13598
1.12818
1.12046
1.1128
1.10516
1.09745
1.08964
1.08173
1.07369
1.06554
1.05727
1.04889
1.04039
1.03179
1.02308
1.01426
1.00535
0.996331
0.987219
0.978017
0.968725
0.959347
0.949885
0.940341
0.930719
0.921019
0.911247
0.901405
0.891488
0.881506
0.871459
0.86135
0.851179
0.840949
0.830658
0.820312
0.809914
0.799461
0.788955
0.778399
0.767796
0.757145
0.746446
0.735704
0.724917
0.714088
0.703218
0.692309
0.681355
0.670367
0.659342
0.648278
0.637179
0.626047
0.614877
0.603677
0.592444
0.581177
0.56988
0.558554
0.547197
0.535812
0.524396
0.512953
0.501484
0.489986
0.478463
0.466915
0.455339
0.443739
0.432115
0.420467
0.408795
0.397099
0.385381
0.37364
0.361878
0.350093
0.338287
0.326461
0.314611
0.302745
0.290856
0.278947
0.267019
0.255073
0.243106
0.231122
0.219119
0.207097
0.195058
0.183001
0.170926
0.158835
0.146727
0.134601
0.122461
0.110302
0.0981283
0.08594
0.0737345
0.061515
0.0492802
0.0370305
0.0247657
0.0124898
0.000195808
-0.0121086
-0.0244279
-0.0367601
-0.0491037
-0.0614614
-0.0738307
-0.0862118
-0.0986043
-0.111008
-0.123422
-0.135847
-0.148283
-0.160727
-0.173181
-0.185644
-0.198114
-0.210594
-0.223082
-0.235575
-0.248077
-0.260582
-0.273095
-0.285613
-0.298133
-0.310657
-0.323187
-0.335716
-0.348249
-0.360783
-0.373316
-0.385848
-0.398382
-0.41091
-0.423436
-0.435958
-0.448476
-0.460987
-0.473493
-0.485988
-0.498475
-0.510951
-0.523417
-0.535868
-0.548304
-0.560725
-0.573132
-0.585515
-0.59788
-0.610222
-0.622541
-0.634837
-0.647107
-0.659341
-0.671546
-0.68372
-0.695856
-0.707956
-0.720014
-0.73203
-0.744002
-0.755926
-0.767803
-0.779623
-0.791391
-0.8031
-0.81475
-0.826336
-0.837862
-0.849321
-0.860712
-0.872039
-0.883303
-0.894504
-0.905659
-0.916787
-0.927949
-0.939255
-0.950812
-0.962621
-0.9744
-0.985576
-0.995669
-1.00485
-1.01384
-1.02312
-1.03253
1.1817
1.17659
1.17128
1.16597
1.16059
1.15472
1.14805
1.1407
1.13303
1.12531
1.11765
1.11003
1.10237
1.09464
1.0868
1.07885
1.07077
1.06258
1.05427
1.04585
1.03731
1.02867
1.01991
1.01105
1.00208
0.993023
0.983863
0.97461
0.965267
0.955836
0.946318
0.936719
0.927039
0.91728
0.907446
0.897538
0.887558
0.87751
0.867395
0.857215
0.846969
0.836663
0.826296
0.815872
0.805389
0.79485
0.784259
0.773616
0.762922
0.752178
0.741386
0.730547
0.719659
0.70873
0.697756
0.686738
0.67568
0.66458
0.653443
0.642266
0.63105
0.619799
0.608511
0.597187
0.585828
0.574437
0.563011
0.551555
0.540067
0.528546
0.516996
0.505416
0.493808
0.482171
0.470504
0.458812
0.447091
0.435345
0.423572
0.411774
0.399951
0.388102
0.376232
0.364335
0.352418
0.340475
0.328512
0.316526
0.304517
0.292488
0.280438
0.268367
0.256277
0.244164
0.232036
0.219884
0.207716
0.195528
0.183323
0.171099
0.158858
0.146599
0.134323
0.12203
0.109722
0.0973958
0.0850572
0.0726994
0.0603293
0.0479426
0.0355422
0.0231279
0.0106987
-0.00174321
-0.0141976
-0.0266672
-0.0391463
-0.0516396
-0.0641427
-0.0766598
-0.0891865
-0.101723
-0.11427
-0.126827
-0.139394
-0.151968
-0.164553
-0.177144
-0.189741
-0.202347
-0.214959
-0.227578
-0.240201
-0.252828
-0.265461
-0.278096
-0.290736
-0.303377
-0.316019
-0.328661
-0.341305
-0.353947
-0.366587
-0.379227
-0.391862
-0.404495
-0.417121
-0.42974
-0.442355
-0.45496
-0.467556
-0.480142
-0.492717
-0.505278
-0.517827
-0.530362
-0.542879
-0.555376
-0.567856
-0.580314
-0.59275
-0.605161
-0.617545
-0.629902
-0.64223
-0.654528
-0.666791
-0.679019
-0.691209
-0.703358
-0.715466
-0.727529
-0.739544
-0.751512
-0.763428
-0.775288
-0.787091
-0.798836
-0.810521
-0.822138
-0.833693
-0.845177
-0.856597
-0.867945
-0.879228
-0.890445
-0.901609
-0.912736
-0.923872
-0.935087
-0.946485
-0.958121
-0.969847
-0.981254
-0.991821
-1.00138
-1.01038
-1.01947
-1.02877
-1.03794
1.18455
1.1797
1.17452
1.16923
1.16396
1.1584
1.15219
1.14524
1.1378
1.13015
1.12251
1.1149
1.10729
1.09962
1.09186
1.08398
1.07599
1.06788
1.05965
1.0513
1.04283
1.03425
1.02556
1.01676
1.00785
0.998842
0.989731
0.980522
0.971218
0.961821
0.952334
0.942762
0.933104
0.923363
0.913541
0.903644
0.893671
0.883625
0.873506
0.863318
0.853063
0.842742
0.832357
0.82191
0.811401
0.800832
0.790208
0.779526
0.768793
0.758002
0.747163
0.73627
0.72533
0.71434
0.703304
0.692221
0.681094
0.669923
0.658711
0.647454
0.636158
0.624823
0.613446
0.602033
0.590583
0.579095
0.567571
0.556012
0.544421
0.532796
0.521136
0.509445
0.497722
0.485969
0.474185
0.462372
0.450528
0.438658
0.426759
0.414832
0.402879
0.390898
0.378894
0.366862
0.354806
0.342726
0.330622
0.318495
0.306344
0.29417
0.281976
0.269756
0.257519
0.245259
0.232979
0.220678
0.208359
0.196019
0.183661
0.171284
0.158889
0.146476
0.134046
0.121598
0.109135
0.0966544
0.084159
0.0716464
0.059122
0.046578
0.0340248
0.0214541
0.00887152
-0.00372355
-0.0163328
-0.0289533
-0.0415851
-0.0542309
-0.0668843
-0.0795507
-0.0922251
-0.104911
-0.117605
-0.130306
-0.143018
-0.155736
-0.168461
-0.181192
-0.193929
-0.206671
-0.21942
-0.23217
-0.244923
-0.257681
-0.270442
-0.283203
-0.295963
-0.308725
-0.321487
-0.334245
-0.347002
-0.359757
-0.372504
-0.385248
-0.397987
-0.41072
-0.423442
-0.436158
-0.448861
-0.461556
-0.474235
-0.486904
-0.499554
-0.512192
-0.52481
-0.537411
-0.549992
-0.56255
-0.575084
-0.587594
-0.600077
-0.612533
-0.624958
-0.63735
-0.649708
-0.662032
-0.674318
-0.686566
-0.698769
-0.710927
-0.72304
-0.735104
-0.747116
-0.759074
-0.770975
-0.782819
-0.794601
-0.806318
-0.817971
-0.829556
-0.84107
-0.852515
-0.863888
-0.875192
-0.886431
-0.897608
-0.908736
-0.919852
-0.931007
-0.942291
-0.953762
-0.965382
-0.97687
-0.987786
-0.997771
-1.00697
-1.01593
-1.0251
-1.03432
-1.04323
1.18726
1.18267
1.1777
1.17248
1.16726
1.1619
1.15608
1.14956
1.14243
1.13495
1.12737
1.11978
1.1122
1.10459
1.09689
1.0891
1.08119
1.07316
1.06501
1.05674
1.04835
1.03984
1.03122
1.02248
1.01363
1.00468
0.995618
0.986456
0.977195
0.96784
0.958388
0.948842
0.939212
0.929492
0.91969
0.909806
0.899842
0.889801
0.879683
0.869492
0.859229
0.848896
0.838496
0.828029
0.817497
0.8069
0.796245
0.785529
0.774756
0.763922
0.753035
0.742093
0.731099
0.720051
0.708954
0.697808
0.686613
0.675372
0.664084
0.652749
0.641373
0.629952
0.618489
0.606986
0.595441
0.583857
0.572235
0.560575
0.548878
0.537144
0.525375
0.513571
0.501733
0.489862
0.477958
0.466022
0.454055
0.442058
0.430028
0.417973
0.405887
0.39377
0.381629
0.369459
0.357264
0.345042
0.332793
0.320522
0.308224
0.295904
0.283559
0.271191
0.258801
0.24639
0.233956
0.221502
0.209027
0.196532
0.184017
0.171482
0.15893
0.146358
0.13377
0.121164
0.108541
0.095902
0.0832462
0.0705755
0.0578902
0.045189
0.0324745
0.0197477
0.00700497
-0.00574689
-0.0185134
-0.0312911
-0.0440784
-0.0568788
-0.0696864
-0.0825067
-0.095334
-0.108168
-0.121014
-0.133864
-0.146721
-0.159585
-0.172455
-0.185329
-0.198207
-0.21109
-0.223974
-0.236861
-0.249749
-0.262638
-0.275527
-0.288415
-0.301301
-0.314184
-0.327065
-0.339942
-0.352812
-0.365679
-0.378537
-0.391386
-0.404227
-0.417059
-0.429879
-0.442688
-0.455482
-0.468263
-0.481027
-0.493776
-0.506503
-0.519213
-0.5319
-0.544567
-0.557209
-0.569825
-0.582412
-0.594972
-0.607501
-0.619996
-0.632459
-0.644884
-0.65727
-0.669617
-0.681921
-0.694184
-0.706396
-0.718564
-0.730678
-0.742736
-0.75474
-0.766686
-0.77857
-0.790392
-0.802147
-0.813836
-0.825453
-0.836998
-0.848472
-0.859871
-0.871199
-0.882455
-0.893648
-0.904785
-0.915894
-0.92701
-0.938206
-0.949543
-0.961027
-0.97251
-0.98363
-0.994007
-1.00353
-1.01254
-1.02154
-1.03072
-1.03975
-1.0484
1.18986
1.18552
1.18078
1.1757
1.17051
1.16527
1.15975
1.15365
1.14689
1.13965
1.13218
1.12465
1.11711
1.10954
1.10191
1.09419
1.08637
1.07842
1.07036
1.06217
1.05386
1.04542
1.03687
1.0282
1.01942
1.01053
1.00152
0.992412
0.9832
0.973886
0.964473
0.954966
0.945363
0.935671
0.925889
0.916023
0.906072
0.896038
0.885926
0.875736
0.865467
0.855127
0.844714
0.83423
0.823677
0.813056
0.802372
0.791623
0.780813
0.769938
0.759007
0.748018
0.736968
0.725867
0.71471
0.703499
0.692239
0.680925
0.669564
0.658154
0.646695
0.63519
0.62364
0.612046
0.600406
0.588727
0.577005
0.565241
0.553438
0.541596
0.529717
0.517798
0.505843
0.493853
0.481826
0.469768
0.457672
0.445547
0.433387
0.421197
0.408974
0.396722
0.38444
0.372131
0.35979
0.347424
0.335029
0.322609
0.310161
0.29769
0.285193
0.272671
0.260127
0.247558
0.234968
0.222356
0.209721
0.197065
0.184391
0.171694
0.158981
0.146246
0.133496
0.120726
0.107939
0.0951365
0.0823189
0.0694835
0.056635
0.0437707
0.0308935
0.0180035
0.0050991
-0.00781511
-0.0207431
-0.0336793
-0.0466298
-0.0595855
-0.0725529
-0.0855278
-0.0985123
-0.111501
-0.1245
-0.137501
-0.150511
-0.163522
-0.176539
-0.189558
-0.20258
-0.215605
-0.228629
-0.241652
-0.254677
-0.267699
-0.28072
-0.293735
-0.306749
-0.319756
-0.332757
-0.345752
-0.358739
-0.371717
-0.384683
-0.397641
-0.410584
-0.423517
-0.436434
-0.449334
-0.462221
-0.475087
-0.487933
-0.500762
-0.513565
-0.526345
-0.5391
-0.55183
-0.564532
-0.577203
-0.589842
-0.602447
-0.61502
-0.627554
-0.640048
-0.652504
-0.664916
-0.677282
-0.689604
-0.701875
-0.714097
-0.726263
-0.738374
-0.750426
-0.762416
-0.774346
-0.786209
-0.798005
-0.809729
-0.821383
-0.832961
-0.844465
-0.855896
-0.867248
-0.878523
-0.889732
-0.900882
-0.91199
-0.923084
-0.934216
-0.945448
-0.956804
-0.968213
-0.979437
-0.990105
-0.999984
-1.00917
-1.01811
-1.02717
-1.03628
-1.04508
-1.05346
1.19232
1.18823
1.18374
1.17884
1.17374
1.16858
1.16326
1.15751
1.15114
1.14422
1.13693
1.12949
1.122
1.11448
1.10691
1.09927
1.09153
1.08367
1.07569
1.06758
1.05935
1.051
1.04253
1.03393
1.02521
1.01639
1.00744
0.998389
0.989229
0.979961
0.970594
0.961124
0.951557
0.941894
0.932139
0.922293
0.91236
0.902338
0.892234
0.882047
0.871778
0.861432
0.85101
0.840513
0.829942
0.819299
0.808589
0.797809
0.786965
0.776052
0.765079
0.754042
0.742944
0.731787
0.720571
0.7093
0.697971
0.686589
0.675155
0.663667
0.652129
0.640539
0.628901
0.617217
0.605486
0.593706
0.581884
0.570017
0.558108
0.546156
0.534162
0.52213
0.510056
0.497945
0.485795
0.47361
0.461386
0.449128
0.436836
0.424508
0.412148
0.399758
0.387331
0.374877
0.362391
0.349876
0.337332
0.324758
0.31216
0.29953
0.286879
0.274199
0.261495
0.248767
0.236015
0.223239
0.210442
0.197623
0.184783
0.171921
0.159042
0.14614
0.133222
0.120286
0.107332
0.0943603
0.0813739
0.0683712
0.0553546
0.0423226
0.0292797
0.01622
0.00315181
-0.00993045
-0.0230221
-0.0361242
-0.0492365
-0.0623555
-0.0754866
-0.0886202
-0.101763
-0.114912
-0.128065
-0.141223
-0.154386
-0.16755
-0.180716
-0.193884
-0.207054
-0.22022
-0.233387
-0.246552
-0.259713
-0.27287
-0.286023
-0.299171
-0.312311
-0.325442
-0.338566
-0.351681
-0.364783
-0.377875
-0.390951
-0.404015
-0.417063
-0.430094
-0.443109
-0.456103
-0.469077
-0.482029
-0.494956
-0.507862
-0.520739
-0.53359
-0.546409
-0.559202
-0.57196
-0.584684