/*--------------------------------*- C++ -*----------------------------------*\
  =========                 |
  \\      /  F ield         | OpenFOAM: The Open Source CFD Toolbox
   \\    /   O peration     | Website:  https://openfoam.org
    \\  /    A nd           | Version:  8
     \\/     M anipulation  |
\*---------------------------------------------------------------------------*/
FoamFile
{
    version     2.0;
    format      ascii;
    class       volVectorField;
    location    "0.24";
    object      U;
}
// * * * * * * * * * * * * * * * * * * * * * * * * * * * * * * * * * * * * * //

dimensions      [0 1 -1 0 0 0 0];

internalField   nonuniform List<vector> 
108623
(
(14.9999 2.00048e-06 -1.61126e-24)
(15 3.11484e-07 -3.72605e-23)
(14.9999 1.97052e-06 -1.97905e-22)
(14.9999 5.5507e-06 5.93948e-23)
(14.9999 9.60919e-06 1.05215e-21)
(14.9999 1.33431e-05 -1.09557e-21)
(14.9998 1.65161e-05 -4.25379e-23)
(14.9998 1.97343e-05 4.4968e-22)
(14.9998 2.31857e-05 1.45291e-21)
(14.9998 2.6932e-05 -2.44635e-21)
(14.9998 3.05461e-05 -6.63109e-23)
(14.9998 3.41683e-05 4.45945e-21)
(14.9998 3.79715e-05 3.00337e-21)
(14.9998 4.1682e-05 3.24858e-21)
(14.9998 4.54937e-05 2.98683e-21)
(14.9998 4.92659e-05 5.12707e-21)
(14.9998 5.30349e-05 -3.92852e-21)
(14.9998 5.69915e-05 7.11751e-21)
(14.9998 6.08046e-05 -5.39623e-21)
(14.9998 6.45959e-05 -8.18837e-21)
(14.9998 6.84265e-05 -1.50417e-20)
(14.9998 7.23459e-05 -6.54121e-21)
(14.9998 7.61191e-05 -6.88357e-21)
(14.9998 8.00263e-05 -4.02605e-21)
(14.9998 8.38136e-05 3.50428e-21)
(14.9998 8.77516e-05 7.85868e-21)
(14.9998 9.16024e-05 -1.25198e-20)
(14.9998 9.53797e-05 1.69388e-20)
(14.9998 9.92336e-05 -1.18486e-22)
(14.9998 0.000103087 9.01804e-21)
(14.9998 0.00010696 9.00972e-21)
(14.9998 0.0001107 1.11694e-22)
(14.9998 0.000114463 9.38663e-21)
(14.9998 0.000118244 9.76308e-21)
(14.9998 0.000121837 -9.89916e-21)
(14.9998 0.000125561 1.11768e-22)
(14.9998 0.000129184 -1.56209e-20)
(14.9998 0.000132822 1.01122e-20)
(14.9998 0.000136575 -4.38911e-21)
(14.9998 0.000140071 2.06161e-20)
(14.9998 0.00014369 -2.07096e-20)
(14.9998 0.000147188 1.66494e-20)
(14.9998 0.000150574 3.99737e-21)
(14.9998 0.000154 -1.00332e-22)
(14.9998 0.00015745 1.04369e-20)
(14.9998 0.000160743 3.49538e-21)
(14.9998 0.000164186 1.02901e-20)
(14.9998 0.000167497 -1.72194e-20)
(14.9998 0.000170618 -1.0295e-20)
(14.9998 0.00017388 2.46018e-20)
(14.9998 0.000176967 7.37914e-21)
(14.9998 0.00018013 1.99549e-20)
(14.9998 0.000183152 1.97822e-20)
(14.9998 0.000186275 -7.60306e-21)
(14.9998 0.000189216 -7.78026e-21)
(14.9998 0.000192102 -9.56395e-21)
(14.9998 0.000194971 -1.88886e-20)
(14.9998 0.000197857 7.96502e-21)
(14.9998 0.000200548 9.25234e-21)
(14.9999 0.000203338 -9.10632e-21)
(14.9999 0.000206038 8.9611e-21)
(14.9999 0.00020855 -6.65607e-23)
(14.9999 0.000211175 8.6349e-21)
(14.9999 0.000213657 -6.78147e-23)
(14.9999 0.000216161 8.28828e-21)
(14.9999 0.000218603 -1.67134e-20)
(14.9999 0.000220891 0)
(14.9999 0.00022333 -7.68429e-21)
(14.9999 0.000225587 7.4975e-21)
(14.9999 0.000227755 7.29888e-21)
(14.9999 0.000229882 1.60288e-20)
(14.9999 0.000231954 -8.9325e-21)
(14.9999 0.000233936 -1.34722e-20)
(14.9999 0.000235882 1.56723e-20)
(14.9999 0.000237882 -1.83766e-20)
(14.9999 0.000239759 9.15793e-21)
(14.9999 0.000241441 2.10056e-20)
(14.9999 0.000243305 -3.76204e-21)
(14.9999 0.000244954 0)
(14.9999 0.000246574 0)
(14.9999 0.000248044 0)
(14.9999 0.000249606 -4.68441e-21)
(14.9999 0.000251061 0)
(14.9999 0.000252504 -5.39249e-21)
(14.9999 0.00025377 1.9237e-20)
(14.9999 0.000254966 7.53033e-21)
(14.9999 0.000256264 -3.27107e-20)
(14.9999 0.00025737 6.51925e-21)
(15 0.000258445 6.82726e-21)
(15 0.000259461 -9.82291e-21)
(15 0.000260463 -2.49742e-21)
(15 0.000261407 2.24474e-21)
(15 0.000262219 1.96126e-21)
(15 0.000262977 1.82113e-20)
(15 0.000263637 2.14328e-20)
(15 0.000264294 -8.80928e-21)
(15 0.00026485 -2.008e-20)
(15 0.000265407 0)
(15 0.000265822 3.99026e-22)
(15 0.000266204 1.01063e-20)
(15 0.000266532 -1.2665e-22)
(15 0.000266809 -9.72277e-21)
(15 0.000267051 0)
(15 0.00026715 2.02544e-20)
(15 0.000267249 -4.79709e-21)
(15 0.000267246 -8.645e-21)
(15 0.000267238 -3.4784e-21)
(15 0.000267129 -1.01151e-20)
(15 0.000266964 -1.23901e-20)
(15 0.000266663 5.08609e-21)
(15 0.000266299 2.77572e-21)
(15 0.000265919 1.01169e-20)
(15.0001 0.000265476 -3.37822e-21)
(15.0001 0.000264998 1.01338e-20)
(15.0001 0.000264319 -7.79094e-21)
(15.0001 0.000263743 -5.83156e-21)
(15.0001 0.00026309 -1.44824e-20)
(15.0001 0.00026225 4.73804e-21)
(15.0001 0.000261392 2.49796e-20)
(15.0001 0.000260419 -1.51292e-20)
(15.0001 0.000259539 -9.91075e-21)
(15.0001 0.000258496 1.13462e-20)
(15.0001 0.000257417 9.9099e-21)
(15.0001 0.000256107 3.65309e-21)
(15.0001 0.000254984 -3.25607e-20)
(15.0001 0.000253649 6.77084e-21)
(15.0001 0.000252175 2.76198e-21)
(15.0001 0.000250754 -1.94432e-20)
(15.0001 0.000249288 2.45951e-20)
(15.0001 0.000247719 1.9228e-21)
(15.0001 0.000246085 -9.58146e-21)
(15.0001 0.000244397 -6.63312e-21)
(15.0001 0.000242608 1.78416e-20)
(15.0001 0.000240611 -1.80728e-20)
(15.0001 0.000238773 8.19605e-21)
(15.0001 0.000236757 9.40841e-21)
(15.0002 0.000234664 9.28043e-21)
(15.0002 0.000232588 -1.87379e-20)
(15.0002 0.000230343 -2.80453e-20)
(15.0002 0.000228216 8.9266e-23)
(15.0002 0.00022587 9.04908e-21)
(15.0002 0.000223414 0)
(15.0002 0.000221057 1.04058e-20)
(15.0002 0.000218472 0)
(15.0002 0.000215895 -8.84633e-21)
(15.0002 0.000213287 1.10187e-20)
(15.0002 0.000210605 -2.47638e-21)
(15.0002 0.000207705 1.12231e-20)
(15.0002 0.000204907 8.52091e-21)
(15.0002 0.000201936 -2.30638e-20)
(15.0002 0.000199037 -4.95889e-21)
(15.0002 0.000195924 3.59277e-21)
(15.0002 0.000192959 1.99661e-20)
(15.0002 0.000189761 -3.97761e-21)
(15.0002 0.000186393 0)
(15.0002 0.000183184 4.23202e-21)
(15.0002 0.000179777 1.98978e-20)
(15.0002 0.00017638 1.94399e-20)
(15.0002 0.000173013 -1.94766e-20)
(15.0002 0.000169497 4.84983e-21)
(15.0002 0.00016582 1.25626e-22)
(15.0002 0.000162269 6.90273e-21)
(15.0002 0.000158393 -6.87116e-21)
(15.0002 0.000154634 1.35812e-20)
(15.0002 0.000150871 8.02482e-22)
(15.0002 0.000146965 -2.4488e-20)
(15.0002 0.000143197 -6.09504e-21)
(15.0002 0.000139176 -5.51755e-21)
(15.0002 0.000135154 -1.36642e-22)
(15.0002 0.000131136 1.46835e-22)
(15.0003 0.000126929 5.35343e-21)
(15.0003 0.000122718 2.29494e-25)
(15.0003 0.000118479 -3.11087e-20)
(15.0003 0.000114307 1.58073e-20)
(15.0003 0.000110014 -1.52499e-20)
(15.0003 0.00010558 1.39634e-20)
(15.0003 0.000101304 -1.35249e-20)
(15.0003 9.68419e-05 1.12921e-21)
(15.0003 9.25165e-05 1.21402e-20)
(15.0003 8.79674e-05 -1.0848e-21)
(15.0003 8.34948e-05 -7.63718e-21)
(15.0003 7.90336e-05 7.17863e-21)
(15.0003 7.45025e-05 2.65619e-21)
(15.0003 6.97391e-05 -3.50951e-21)
(15.0003 6.51759e-05 -1.3464e-20)
(15.0003 6.05602e-05 6.13901e-21)
(15.0003 5.58411e-05 -4.49686e-21)
(15.0002 5.12038e-05 2.37305e-21)
(15.0002 4.63856e-05 4.93228e-21)
(15.0002 4.1757e-05 -1.97172e-21)
(15.0002 3.7074e-05 6.15144e-22)
(15.0002 3.21431e-05 2.12313e-21)
(15.0002 2.75648e-05 -2.34216e-21)
(15.0002 2.32636e-05 1.37491e-21)
(15.0002 1.89532e-05 6.15385e-22)
(15.0002 1.37349e-05 8.74554e-22)
(15.0001 7.92036e-06 -4.29155e-22)
(15.0001 2.82515e-06 -2.98229e-22)
(15 3.13869e-07 1.67097e-22)
(15.0001 3.03587e-06 -2.21432e-23)
(14.9991 4.71137e-06 1.60025e-23)
(14.9996 1.36077e-05 -1.8692e-22)
(14.9998 4.48243e-06 -4.27629e-23)
(14.9998 7.4498e-06 -7.26157e-22)
(14.9997 1.79498e-05 1.01906e-21)
(14.9996 3.0817e-05 -7.71075e-22)
(14.9996 4.22009e-05 -1.70686e-21)
(14.9995 5.21218e-05 6.63957e-23)
(14.9995 6.18527e-05 6.20385e-22)
(14.9995 7.24886e-05 1.51662e-22)
(14.9995 8.33985e-05 -2.24462e-21)
(14.9995 9.43202e-05 1.24426e-21)
(14.9994 0.000105443 3.90347e-21)
(14.9994 0.000116538 -2.72712e-21)
(14.9994 0.000127901 1.1598e-20)
(14.9994 0.00013931 1.06481e-21)
(14.9994 0.000150685 -8.12649e-21)
(14.9994 0.000162321 -1.17886e-21)
(14.9994 0.000173884 5.6717e-21)
(14.9994 0.000185472 -2.54616e-23)
(14.9994 0.000197086 -3.19287e-21)
(14.9994 0.000208852 -1.14554e-20)
(14.9994 0.000220444 -8.32493e-21)
(14.9994 0.000232211 -2.63385e-23)
(14.9994 0.000243819 -4.01156e-21)
(14.9994 0.000255595 8.33203e-21)
(14.9994 0.00026739 3.55907e-22)
(14.9994 0.000279026 2.85158e-22)
(14.9994 0.000290644 -5.17146e-21)
(14.9994 0.000302317 -4.97017e-21)
(14.9994 0.00031393 5.04836e-21)
(14.9994 0.00032544 2.65358e-22)
(14.9994 0.000336967 -1.65941e-20)
(14.9994 0.000348458 4.45112e-20)
(14.9994 0.000359705 5.95465e-21)
(14.9994 0.000371023 1.12302e-20)
(14.9994 0.000382145 -1.23413e-20)
(14.9994 0.00039326 -2.21451e-22)
(14.9994 0.000404534 1.16699e-20)
(14.9994 0.000415384 2.93081e-20)
(14.9994 0.000426351 1.85647e-20)
(14.9994 0.000437114 -2.43871e-21)
(14.9994 0.000447674 1.15141e-20)
(14.9994 0.000458199 0)
(14.9994 0.000468699 4.22069e-21)
(14.9994 0.000478943 -7.45966e-21)
(14.9994 0.000489325 2.63127e-20)
(14.9995 0.00049937 -1.47661e-20)
(14.9995 0.000509145 -2.67147e-20)
(14.9995 0.000519045 7.71507e-21)
(14.9995 0.000528747 1.12134e-20)
(14.9995 0.000538315 5.64043e-21)
(14.9995 0.000547638 3.78281e-20)
(14.9995 0.000557096 1.90758e-20)
(14.9995 0.000566173 -8.95186e-23)
(14.9995 0.000575143 6.44532e-21)
(14.9995 0.000584023 -8.41351e-21)
(14.9995 0.00059272 -1.73047e-20)
(14.9995 0.000601171 2.85771e-20)
(14.9995 0.000609657 1.96612e-20)
(14.9996 0.000617872 7.47024e-22)
(14.9996 0.000625831 0)
(14.9996 0.000633825 9.27915e-21)
(14.9996 0.000641536 -9.08361e-21)
(14.9996 0.000649143 1.80012e-20)
(14.9996 0.000656556 5.21281e-23)
(14.9996 0.000663816 -6.68429e-23)
(14.9996 0.00067105 -1.75313e-20)
(14.9996 0.000677974 -1.8872e-20)
(14.9996 0.000684688 3.97231e-24)
(14.9997 0.000691224 1.90047e-20)
(14.9997 0.000697679 1.92394e-20)
(14.9997 0.000703884 -9.6446e-21)
(14.9997 0.000709867 4.20562e-21)
(14.9997 0.000715877 -9.73354e-21)
(14.9997 0.000721605 -1.63412e-20)
(14.9997 0.00072703 6.27783e-21)
(14.9997 0.000732557 9.90033e-21)
(14.9997 0.000737698 1.57724e-20)
(14.9998 0.000742666 -5.53388e-21)
(14.9998 0.000747352 1.53367e-20)
(14.9998 0.000752034 5.06786e-21)
(14.9998 0.0007565 -2.50826e-20)
(14.9998 0.000760834 -1.021e-20)
(14.9998 0.000764818 1.02221e-20)
(14.9998 0.000768617 1.83086e-20)
(14.9998 0.000772398 -2.35287e-24)
(14.9998 0.000775937 1.03439e-20)
(14.9999 0.000779205 2.56132e-23)
(14.9999 0.000782336 -1.33728e-20)
(14.9999 0.000785408 -1.31183e-20)
(14.9999 0.000788162 -2.33698e-20)
(14.9999 0.000790669 1.88726e-20)
(14.9999 0.000792978 2.11054e-20)
(14.9999 0.000795127 4.70946e-21)
(14.9999 0.000797223 3.88826e-21)
(15 0.000798965 -1.16584e-20)
(15 0.000800615 -1.06593e-20)
(15 0.000801882 -3.55242e-24)
(15 0.000803061 1.05397e-20)
(15 0.000804067 1.05998e-20)
(15 0.000804902 -3.1699e-24)
(15 0.000805646 -1.0726e-20)
(15 0.000806004 -2.14767e-20)
(15.0001 0.000806267 8.23157e-21)
(15.0001 0.000806169 9.15512e-21)
(15.0001 0.000806014 -1.25313e-20)
(15.0001 0.000805691 -1.98763e-23)
(15.0001 0.000805162 8.33329e-21)
(15.0001 0.000804375 2.14041e-20)
(15.0001 0.000803256 -2.43918e-20)
(15.0001 0.000802071 -1.06455e-20)
(15.0002 0.000800735 -2.0073e-23)
(15.0002 0.000799111 3.84973e-21)
(15.0002 0.000797229 2.42506e-21)
(15.0002 0.000795318 8.77826e-21)
(15.0002 0.000793205 -1.06512e-20)
(15.0002 0.000790715 4.98404e-21)
(15.0002 0.000788075 1.16779e-22)
(15.0002 0.000785196 -5.51298e-21)
(15.0003 0.000782301 2.69354e-20)
(15.0003 0.000779094 -8.30768e-23)
(15.0003 0.00077569 -2.09663e-20)
(15.0003 0.00077186 -1.71204e-20)
(15.0003 0.000768123 3.73105e-23)
(15.0003 0.000764046 2.46833e-20)
(15.0003 0.00075965 -7.42018e-21)
(15.0004 0.000755265 1.03977e-20)
(15.0004 0.00075062 1.58439e-20)
(15.0004 0.000745686 -1.8455e-20)
(15.0004 0.000740644 -2.0561e-20)
(15.0004 0.000735388 2.93173e-20)
(15.0004 0.000729881 2.0114e-20)
(15.0004 0.000724011 -9.08493e-21)
(15.0004 0.000718089 -1.13403e-22)
(15.0004 0.000711973 -1.98236e-22)
(15.0005 0.000705617 -1.00334e-20)
(15.0005 0.000699119 -3.00674e-20)
(15.0005 0.00069228 5.67154e-22)
(15.0005 0.00068545 3.11382e-20)
(15.0005 0.000678307 2.05734e-20)
(15.0005 0.000670828 -1.33092e-21)
(15.0005 0.000663357 -8.84123e-23)
(15.0005 0.000655575 1.97286e-21)
(15.0005 0.000647552 0)
(15.0006 0.000639393 2.42263e-21)
(15.0006 0.000631074 9.50242e-21)
(15.0006 0.000622285 9.12096e-21)
(15.0006 0.000613609 -1.83871e-20)
(15.0006 0.000604612 -3.33722e-21)
(15.0006 0.000595419 8.85385e-21)
(15.0006 0.000585955 4.02337e-21)
(15.0006 0.000576589 1.71196e-20)
(15.0006 0.000566865 -1.30085e-20)
(15.0006 0.000556701 1.72499e-20)
(15.0007 0.000546648 -1.34232e-20)
(15.0007 0.000536244 2.20506e-20)
(15.0007 0.000525758 -2.20964e-20)
(15.0007 0.000515175 5.69532e-21)
(15.0007 0.000504297 1.33191e-20)
(15.0007 0.000493119 1.9508e-20)
(15.0007 0.000482019 7.68868e-21)
(15.0007 0.000470351 5.90617e-21)
(15.0007 0.000458806 7.70003e-21)
(15.0007 0.000447188 7.06003e-21)
(15.0007 0.000435266 -2.05614e-20)
(15.0007 0.000423357 -2.04227e-20)
(15.0007 0.000411079 7.01059e-21)
(15.0007 0.00039868 -6.7094e-21)
(15.0008 0.000386223 1.63018e-22)
(15.0008 0.000373558 -6.58886e-21)
(15.0008 0.000360733 -3.73588e-20)
(15.0008 0.00034789 2.73627e-22)
(15.0008 0.000334933 1.80646e-20)
(15.0008 0.000321683 1.21343e-20)
(15.0008 0.000308358 1.00239e-20)
(15.0008 0.000295142 -2.69233e-20)
(15.0008 0.000281619 1.06485e-20)
(15.0008 0.000268211 5.69763e-21)
(15.0008 0.000254462 9.87835e-21)
(15.0008 0.000240792 7.79607e-21)
(15.0008 0.000227029 -5.12479e-21)
(15.0008 0.000213168 -3.45661e-21)
(15.0008 0.000199076 -1.06416e-20)
(15.0008 0.000185181 -8.291e-21)
(15.0008 0.000171095 -2.87774e-21)
(15.0008 0.000156911 -7.71726e-21)
(15.0007 0.000142922 1.81988e-21)
(15.0007 0.000128731 -1.66722e-21)
(15.0007 0.00011463 1.53751e-21)
(15.0007 0.000100349 -9.81397e-23)
(15.0007 8.62824e-05 -2.03725e-21)
(15.0007 7.33164e-05 1.43847e-21)
(15.0006 5.98587e-05 4.10072e-21)
(15.0006 4.39708e-05 -3.47882e-22)
(15.0005 2.56072e-05 -5.90643e-23)
(15.0003 1.04853e-05 -1.04073e-21)
(15.0002 6.53145e-06 5.58417e-22)
(15.0005 2.01664e-05 -9.44656e-23)
(15.0013 7.20365e-06 -8.23878e-23)
(14.9983 4.32383e-06 2.06519e-23)
(14.9992 2.60926e-05 2.7302e-23)
(14.9996 2.06333e-05 1.43345e-22)
(14.9996 1.55718e-05 -4.33195e-22)
(14.9995 2.36253e-05 -4.32758e-22)
(14.9993 4.2456e-05 1.8337e-21)
(14.9993 6.34141e-05 -4.84488e-22)
(14.9992 8.19415e-05 0)
(14.9992 9.85541e-05 -3.9485e-21)
(14.9992 0.000115674 6.34603e-21)
(14.9991 0.00013364 -5.79463e-21)
(14.9991 0.000151909 1.3207e-21)
(14.9991 0.000170286 1.4284e-21)
(14.9991 0.000188771 -5.88182e-21)
(14.999 0.000207622 4.6064e-21)
(14.999 0.000226598 2.28988e-21)
(14.999 0.000245571 -1.16577e-20)
(14.999 0.000264816 -1.23823e-20)
(14.999 0.000284054 3.85253e-21)
(14.999 0.000303407 4.18292e-21)
(14.999 0.000322863 1.50074e-20)
(14.999 0.000342402 3.53266e-21)
(14.999 0.000361931 4.7223e-21)
(14.999 0.000381578 -8.81412e-21)
(14.999 0.000401054 4.16935e-21)
(14.999 0.000420683 -1.87334e-20)
(14.999 0.000440383 1.9339e-20)
(14.999 0.000459873 4.61889e-21)
(14.999 0.000479307 4.94113e-21)
(14.999 0.000498859 -5.03642e-21)
(14.999 0.000518248 -1.07617e-20)
(14.999 0.000537636 1.63049e-20)
(14.999 0.000556992 -2.76527e-20)
(14.999 0.000576268 -1.72027e-20)
(14.999 0.000595267 2.32546e-20)
(14.999 0.00061434 2.26806e-20)
(14.999 0.000633099 1.14372e-20)
(14.999 0.000651789 -6.37536e-21)
(14.999 0.000670585 4.98743e-21)
(14.999 0.000688964 -2.31883e-20)
(14.999 0.000707271 3.00886e-20)
(14.999 0.000725481 7.02664e-21)
(14.999 0.000743371 1.16242e-20)
(14.999 0.000761263 1.16188e-20)
(14.9991 0.00077896 0)
(14.9991 0.000796272 -7.43805e-21)
(14.9991 0.000813618 3.46807e-21)
(14.9991 0.000830627 1.93748e-20)
(14.9991 0.00084734 -1.57499e-20)
(14.9991 0.000863972 -1.1294e-20)
(14.9991 0.000880431 1.43965e-20)
(14.9991 0.000896685 -1.9261e-20)
(14.9991 0.00091245 -1.37627e-20)
(14.9992 0.000928291 3.00776e-20)
(14.9992 0.000943749 8.38377e-21)
(14.9992 0.000959043 1.06844e-20)
(14.9992 0.000973987 2.26902e-20)
(14.9992 0.000988725 1.63739e-21)
(14.9992 0.00100319 -1.75552e-20)
(14.9992 0.00101747 1.8749e-20)
(14.9993 0.00103143 2.77787e-20)
(14.9993 0.00104501 9.6209e-21)
(14.9993 0.0010585 9.05452e-21)
(14.9993 0.00107169 6.48268e-23)
(14.9993 0.00108455 -2.74143e-20)
(14.9993 0.00109712 1.77406e-20)
(14.9993 0.00110948 9.34417e-21)
(14.9994 0.00112157 8.5144e-21)
(14.9994 0.00113334 -1.78047e-20)
(14.9994 0.00114476 -1.13561e-23)
(14.9994 0.00115593 1.80253e-21)
(14.9994 0.00116692 -9.61022e-21)
(14.9994 0.00117757 -1.22174e-20)
(14.9995 0.00118776 1.69225e-20)
(14.9995 0.00119776 1.67861e-20)
(14.9995 0.00120758 -6.65531e-21)
(14.9995 0.00121699 -6.41434e-21)
(14.9995 0.00122613 -2.23342e-20)
(14.9996 0.00123491 4.11103e-21)
(14.9996 0.00124342 -5.57086e-21)
(14.9996 0.00125146 -2.03887e-20)
(14.9996 0.00125938 2.55768e-20)
(14.9996 0.00126698 5.25717e-22)
(14.9997 0.00127431 -2.06413e-20)
(14.9997 0.0012811 -3.45545e-23)
(14.9997 0.00128765 2.54293e-23)
(14.9997 0.00129398 -1.42929e-20)
(14.9997 0.00130005 1.04644e-20)
(14.9998 0.00130567 1.77339e-20)
(14.9998 0.00131101 3.04802e-21)
(14.9998 0.00131608 2.73e-21)
(14.9998 0.00132072 1.42626e-23)
(14.9998 0.00132506 -1.28541e-20)
(14.9999 0.00132905 -1.94551e-20)
(14.9999 0.00133277 -1.07352e-20)
(14.9999 0.00133627 3.22195e-20)
(14.9999 0.00133925 9.72086e-21)
(14.9999 0.00134193 -1.07895e-20)
(15 0.00134417 1.03351e-20)
(15 0.00134627 1.91826e-22)
(15 0.00134797 -1.09556e-20)
(15 0.0013493 3.97017e-22)
(15.0001 0.00135046 0)
(15.0001 0.00135119 9.74931e-22)
(15.0001 0.00135162 -9.59811e-21)
(15.0001 0.00135151 -1.55103e-21)
(15.0001 0.00135117 1.27152e-20)
(15.0002 0.00135054 -1.51531e-20)
(15.0002 0.00134955 -1.08406e-20)
(15.0002 0.00134825 7.08754e-25)
(15.0002 0.0013465 -9.22093e-24)
(15.0002 0.00134445 2.16783e-20)
(15.0003 0.00134211 1.07747e-20)
(15.0003 0.00133928 -1.07879e-20)
(15.0003 0.00133617 1.08023e-20)
(15.0003 0.00133281 1.52217e-20)
(15.0004 0.00132919 -2.1563e-20)
(15.0004 0.00132499 -1.64202e-20)
(15.0004 0.00132048 5.41976e-21)
(15.0004 0.00131562 2.70007e-20)
(15.0004 0.0013106 5.84001e-21)
(15.0005 0.00130507 -1.68089e-20)
(15.0005 0.00129922 0)
(15.0005 0.00129297 1.06403e-20)
(15.0005 0.0012864 1.75685e-20)
(15.0005 0.00127936 -1.05677e-20)
(15.0006 0.0012721 -1.04905e-20)
(15.0006 0.0012646 1.0515e-20)
(15.0006 0.00125658 -1.62369e-20)
(15.0006 0.00124815 -1.03849e-20)
(15.0007 0.0012395 1.04043e-20)
(15.0007 0.00123052 1.92014e-20)
(15.0007 0.00122114 -2.85902e-20)
(15.0007 0.00121135 -8.24575e-22)
(15.0007 0.00120124 -9.04745e-21)
(15.0008 0.00119085 9.80887e-21)
(15.0008 0.0011801 -2.01897e-20)
(15.0008 0.00116892 1.0087e-20)
(15.0008 0.00115738 2.0561e-20)
(15.0008 0.00114568 1.08429e-20)
(15.0008 0.00113351 -8.78695e-21)
(15.0009 0.00112092 -9.67688e-21)
(15.0009 0.00110807 3.09428e-20)
(15.0009 0.00109485 -9.3588e-23)
(15.0009 0.00108134 -9.55622e-21)
(15.0009 0.00106738 0)
(15.001 0.00105316 2.45078e-20)
(15.001 0.00103844 -2.48811e-20)
(15.001 0.00102374 0)
(15.001 0.0010084 1.27703e-20)
(15.001 0.000992764 -1.29254e-20)
(15.001 0.000976848 9.08051e-21)
(15.0011 0.000960759 4.10203e-21)
(15.0011 0.000944249 1.79533e-20)
(15.0011 0.000927263 -1.23247e-22)
(15.0011 0.000910231 -2.68831e-20)
(15.0011 0.000892659 8.42266e-21)
(15.0011 0.000874767 -3.25379e-20)
(15.0011 0.000856783 2.18866e-20)
(15.0012 0.000838322 -1.37248e-20)
(15.0012 0.000819647 -7.99897e-21)
(15.0012 0.000800781 -1.36179e-20)
(15.0012 0.000781311 5.85525e-21)
(15.0012 0.000761856 2.16268e-20)
(15.0012 0.000742204 -6.64758e-21)
(15.0012 0.000722055 -3.51445e-20)
(15.0012 0.000701874 -2.68578e-20)
(15.0012 0.00068123 2.01999e-20)
(15.0013 0.000660357 -2.65045e-20)
(15.0013 0.000639309 0)
(15.0013 0.000618121 -1.9269e-20)
(15.0013 0.000596586 -6.32214e-21)
(15.0013 0.000575049 2.40423e-20)
(15.0013 0.000553288 -1.21167e-20)
(15.0013 0.000531102 1.81503e-20)
(15.0013 0.000508839 -2.19198e-20)
(15.0013 0.000486595 1.12418e-20)
(15.0013 0.000463956 1.5322e-20)
(15.0013 0.000441278 1.48248e-20)
(15.0013 0.000418394 1.39778e-20)
(15.0013 0.00039541 1.24963e-21)
(15.0013 0.000372347 2.47079e-22)
(15.0013 0.000349216 -5.08394e-21)
(15.0013 0.000325843 4.60906e-21)
(15.0013 0.000302578 0)
(15.0013 0.000279062 -9.17172e-21)
(15.0013 0.000255445 1.18558e-20)
(15.0012 0.000232042 -5.36836e-21)
(15.0012 0.000208494 -2.64308e-21)
(15.0012 0.00018478 1.34545e-21)
(15.0012 0.000161169 -9.32343e-21)
(15.0011 0.000138465 1.1885e-21)
(15.0011 0.000116118 2.97573e-21)
(15.0011 9.05381e-05 4.77082e-22)
(15.001 6.08914e-05 6.01447e-23)
(15.0008 3.39326e-05 -6.43427e-22)
(15.0006 2.26269e-05 2.62187e-22)
(15.0006 3.07834e-05 -3.65514e-23)
(15.0012 3.89031e-05 -3.79765e-22)
(15.0025 6.67217e-06 2.07673e-23)
(14.9976 5.28007e-06 -1.68578e-23)
(14.9986 3.21899e-05 1.16939e-22)
(14.9992 4.05209e-05 0)
(14.9994 3.2271e-05 0)
(14.9993 3.12549e-05 -2.25099e-22)
(14.9991 4.88101e-05 -3.60961e-22)
(14.999 7.72799e-05 -8.07636e-22)
(14.9989 0.000105797 -4.09972e-22)
(14.9989 0.000130785 -1.34715e-21)
(14.9988 0.000154687 2.1976e-21)
(14.9988 0.000179357 -1.58345e-21)
(14.9987 0.000204826 -1.41661e-21)
(14.9987 0.00023057 -2.27684e-21)
(14.9987 0.000256572 1.42129e-23)
(14.9987 0.000282906 -9.61972e-21)
(14.9986 0.000309421 7.39386e-21)
(14.9986 0.000336063 2.40554e-21)
(14.9986 0.000362963 3.71676e-21)
(14.9986 0.000390004 -9.58566e-21)
(14.9986 0.00041717 4.18616e-21)
(14.9986 0.000444391 -1.52838e-20)
(14.9986 0.000471799 1.31889e-22)
(14.9986 0.000499272 3.52541e-21)
(14.9986 0.000526916 -4.66072e-21)
(14.9986 0.000554363 8.94028e-21)
(14.9986 0.000581935 1.30025e-22)
(14.9986 0.000609575 -1.87561e-20)
(14.9986 0.000637081 -1.00874e-20)
(14.9986 0.000664443 5.00536e-21)
(14.9986 0.000692014 1.94819e-23)
(14.9986 0.000719422 0)
(14.9986 0.000746725 1.08822e-20)
(14.9986 0.000773964 1.66179e-20)
(14.9986 0.000801123 -1.11316e-20)
(14.9986 0.000828057 -1.19616e-20)
(14.9986 0.000854929 -1.15435e-20)
(14.9986 0.000881553 -1.14099e-20)
(14.9986 0.000908066 -1.17388e-20)
(14.9986 0.000934522 1.50844e-21)
(14.9986 0.000960532 -2.33664e-20)
(14.9986 0.000986449 -1.8729e-20)
(14.9986 0.00101214 4.8143e-21)
(14.9986 0.00103752 4.5784e-21)
(14.9987 0.00106288 7.24584e-21)
(14.9987 0.00108797 1.18564e-20)
(14.9987 0.00111255 -1.00643e-22)
(14.9987 0.00113708 7.69644e-21)
(14.9987 0.00116121 2.3237e-20)
(14.9987 0.00118506 1.1529e-20)
(14.9987 0.00120864 -7.94899e-21)
(14.9988 0.00123198 1.12629e-20)
(14.9988 0.00125496 -6.12052e-21)
(14.9988 0.00127758 -8.19464e-21)
(14.9988 0.0013 -8.54729e-21)
(14.9988 0.00132197 8.55777e-21)
(14.9988 0.00134369 1.29952e-20)
(14.9989 0.00136489 -8.71997e-21)
(14.9989 0.00138588 1.92169e-20)
(14.9989 0.00140653 -1.42006e-21)
(14.9989 0.0014268 -2.92264e-20)
(14.9989 0.00144669 -9.06294e-21)
(14.999 0.00146613 9.09149e-21)
(14.999 0.00148529 9.24039e-21)
(14.999 0.00150403 2.78969e-20)
(14.999 0.00152237 -9.18874e-21)
(14.9991 0.00154037 -1.89786e-20)
(14.9991 0.00155791 6.83355e-22)
(14.9991 0.00157506 8.63855e-21)
(14.9991 0.0015919 -9.59334e-21)
(14.9991 0.00160829 8.14768e-21)
(14.9992 0.00162426 1.95204e-20)
(14.9992 0.0016398 1.55605e-20)
(14.9992 0.00165499 -2.72765e-20)
(14.9992 0.00166962 -1.72503e-20)
(14.9993 0.00168383 9.97778e-21)
(14.9993 0.00169782 3.2773e-21)
(14.9993 0.00171131 1.00792e-20)
(14.9994 0.00172426 3.8664e-21)
(14.9994 0.00173677 -1.21251e-20)
(14.9994 0.00174893 1.36864e-21)
(14.9994 0.00176056 -2.14351e-20)
(14.9995 0.00177182 1.53813e-20)
(14.9995 0.00178263 -5.27881e-21)
(14.9995 0.00179304 -3.13643e-20)
(14.9995 0.00180283 5.98915e-21)
(14.9996 0.00181225 2.1068e-20)
(14.9996 0.00182124 2.09519e-23)
(14.9996 0.00182985 6.89809e-21)
(14.9997 0.00183792 -1.05899e-20)
(14.9997 0.00184558 -2.89686e-20)
(14.9997 0.00185268 2.83124e-21)
(14.9997 0.00185939 2.25353e-24)
(14.9998 0.00186571 1.07856e-20)
(14.9998 0.00187145 1.08293e-20)
(14.9998 0.00187673 5.79784e-21)
(14.9999 0.00188161 8.10379e-21)
(14.9999 0.00188585 -9.80614e-21)
(14.9999 0.00188968 -1.09426e-20)
(15 0.00189295 -1.09587e-20)
(15 0.00189599 -1.07718e-20)
(15 0.00189842 3.29068e-20)
(15 0.00190025 1.09965e-20)
(15.0001 0.00190184 -1.16779e-20)
(15.0001 0.00190287 -1.10108e-20)
(15.0001 0.00190346 -1.22637e-20)
(15.0002 0.00190342 1.25774e-20)
(15.0002 0.00190295 -2.57704e-20)
(15.0002 0.00190201 -1.09826e-20)
(15.0003 0.00190046 3.54508e-20)
(15.0003 0.0018985 2.19502e-20)
(15.0003 0.00189612 -1.88998e-20)
(15.0003 0.00189316 -4.19789e-21)
(15.0004 0.00188974 -3.1213e-23)
(15.0004 0.00188576 2.55731e-23)
(15.0004 0.00188135 2.18701e-20)
(15.0005 0.00187647 -4.57526e-21)
(15.0005 0.00187118 -1.57185e-20)
(15.0005 0.00186522 -5.76439e-21)
(15.0006 0.00185881 1.63569e-20)
(15.0006 0.00185189 2.16614e-20)
(15.0006 0.00184455 0)
(15.0007 0.00183661 -1.08097e-20)
(15.0007 0.00182827 -4.17309e-21)
(15.0007 0.00181942 0)
(15.0007 0.00180996 -7.14212e-21)
(15.0008 0.00179992 -7.42303e-21)
(15.0008 0.00178959 -7.69275e-21)
(15.0008 0.00177877 -1.0644e-20)
(15.0009 0.0017673 -8.18314e-21)
(15.0009 0.00175541 1.05137e-20)
(15.0009 0.00174298 -1.05456e-20)
(15.0009 0.00173005 4.89987e-23)
(15.001 0.00171658 1.15181e-20)
(15.001 0.00170269 9.49223e-21)
(15.001 0.00168833 8.02721e-23)
(15.0011 0.00167339 -2.01844e-20)
(15.0011 0.00165801 -1.01718e-20)
(15.0011 0.00164213 0)
(15.0011 0.00162571 -1.19895e-23)
(15.0012 0.00160889 -9.26979e-22)
(15.0012 0.0015915 -2.25621e-20)
(15.0012 0.00157361 3.29716e-20)
(15.0012 0.00155521 1.14801e-20)
(15.0013 0.00153634 -4.32286e-20)
(15.0013 0.00151715 0)
(15.0013 0.00149727 9.69397e-21)
(15.0013 0.00147703 2.74035e-21)
(15.0014 0.00145617 3.2973e-21)
(15.0014 0.00143498 9.32098e-21)
(15.0014 0.00141328 -1.29536e-20)
(15.0014 0.00139105 0)
(15.0015 0.00136845 9.16776e-21)
(15.0015 0.00134542 -4.42587e-21)
(15.0015 0.00132194 4.55674e-21)
(15.0015 0.00129788 -3.11865e-20)
(15.0016 0.00127364 1.3816e-20)
(15.0016 0.00124866 -1.35922e-22)
(15.0016 0.00122325 -1.37038e-20)
(15.0016 0.00119767 8.22153e-21)
(15.0016 0.00117158 -8.27349e-21)
(15.0016 0.00114508 -8.00686e-21)
(15.0017 0.00111832 2.98841e-20)
(15.0017 0.00109087 7.53261e-21)
(15.0017 0.0010632 6.36973e-21)
(15.0017 0.00103522 -2.13768e-20)
(15.0017 0.00100678 -2.83013e-20)
(15.0017 0.00097808 2.09219e-20)
(15.0018 0.000948931 -6.83607e-21)
(15.0018 0.000919493 1.38161e-22)
(15.0018 0.000889784 6.46466e-21)
(15.0018 0.000859747 0)
(15.0018 0.000829297 2.55417e-20)
(15.0018 0.000798896 -1.25126e-20)
(15.0018 0.000768092 -1.2228e-20)
(15.0018 0.000736891 -2.37876e-20)
(15.0018 0.000705535 -6.2061e-21)
(15.0018 0.000674087 1.61373e-20)
(15.0018 0.000642133 -1.07294e-20)
(15.0018 0.000610127 -4.54788e-21)
(15.0018 0.000577924 -9.70899e-21)
(15.0018 0.000545672 -1.48458e-20)
(15.0018 0.000513187 1.39266e-20)
(15.0018 0.000480545 1.3651e-22)
(15.0018 0.000447754 -1.38453e-22)
(15.0018 0.000414951 7.26984e-21)
(15.0018 0.000381964 9.05435e-21)
(15.0018 0.000348826 3.52962e-21)
(15.0017 0.000315737 1.15104e-21)
(15.0017 0.000282573 -4.49553e-21)
(15.0017 0.000249342 -4.16956e-21)
(15.0016 0.000216804 1.00614e-22)
(15.0016 0.000184892 3.86498e-21)
(15.0015 0.0001508 -4.61177e-21)
(15.0015 0.000110867 1.81534e-21)
(15.0013 7.03383e-05 6.81317e-24)
(15.0011 4.54292e-05 0)
(15.0009 4.77351e-05 -2.76814e-22)
(15.0012 6.06901e-05 -3.35797e-22)
(15.0021 4.82048e-05 5.33617e-23)
(15.0035 8.18827e-06 2.88194e-23)
(14.9971 5.58563e-06 -3.20283e-23)
(14.998 3.44335e-05 -1.62224e-22)
(14.9987 5.88635e-05 0)
(14.9991 5.66066e-05 4.50958e-22)
(14.999 4.68702e-05 2.36455e-22)
(14.9989 5.56437e-05 -6.12756e-22)
(14.9987 8.5384e-05 -1.29771e-21)
(14.9986 0.000122859 -5.75467e-22)
(14.9985 0.000157713 5.12114e-22)
(14.9985 0.000189474 -2.53877e-21)
(14.9984 0.00022091 4.06428e-21)
(14.9984 0.000253292 -2.1331e-21)
(14.9983 0.000286297 5.38751e-21)
(14.9983 0.000319754 -1.62204e-23)
(14.9983 0.000353516 2.94942e-21)
(14.9983 0.000387624 -2.20921e-21)
(14.9982 0.000421929 1.16478e-20)
(14.9982 0.000456421 8.83323e-21)
(14.9982 0.000491165 -2.65159e-21)
(14.9982 0.000526243 -2.34534e-22)
(14.9982 0.000561395 -4.19044e-21)
(14.9982 0.000596647 -3.56182e-21)
(14.9982 0.000632121 -8.44238e-21)
(14.9982 0.000667713 -3.83725e-21)
(14.9981 0.000703179 -9.25017e-21)
(14.9981 0.00073874 1.81474e-20)
(14.9981 0.00077446 -5.17904e-21)
(14.9981 0.000810073 -1.00827e-20)
(14.9981 0.000845509 -1.03221e-20)
(14.9981 0.000881237 -1.56297e-20)
(14.9981 0.000916697 -5.38478e-21)
(14.9981 0.000952073 0)
(14.9981 0.000987376 -1.67526e-20)
(14.9982 0.00102255 -1.13835e-20)
(14.9982 0.00105755 5.97586e-22)
(14.9982 0.00109244 -5.35448e-21)
(14.9982 0.00112703 -1.16828e-20)
(14.9982 0.00116148 -1.818e-20)
(14.9982 0.00119572 -1.19259e-20)
(14.9982 0.00122957 2.38212e-20)
(14.9982 0.00126327 -1.97265e-21)
(14.9982 0.0012968 -1.90405e-20)
(14.9982 0.00132985 -4.77676e-21)
(14.9983 0.00136278 1.08505e-22)
(14.9983 0.00139546 -9.77182e-23)
(14.9983 0.00142747 -1.17679e-20)
(14.9983 0.00145933 1.17139e-20)
(14.9983 0.00149089 -1.16586e-20)
(14.9983 0.00152194 1.16105e-20)
(14.9984 0.00155271 1.1131e-22)
(14.9984 0.00158317 8.02278e-21)
(14.9984 0.00161308 1.16367e-20)
(14.9984 0.00164268 2.808e-21)
(14.9985 0.00167191 -2.69134e-21)
(14.9985 0.0017006 2.55707e-21)
(14.9985 0.00172893 1.08727e-20)
(14.9985 0.00175673 -1.0734e-20)
(14.9985 0.0017841 -1.07582e-20)
(14.9986 0.00181106 1.94991e-20)
(14.9986 0.00183754 0)
(14.9986 0.00186355 -1.01818e-20)
(14.9987 0.00188913 -2.00019e-20)
(14.9987 0.00191416 9.8122e-21)
(14.9987 0.0019386 -9.62393e-21)
(14.9987 0.00196266 1.88777e-20)
(14.9988 0.00198626 9.47963e-21)
(14.9988 0.00200921 9.09133e-21)
(14.9988 0.00203165 -8.89176e-22)
(14.9989 0.00205364 -9.69437e-21)
(14.9989 0.0020752 -1.68079e-20)
(14.9989 0.00209616 8.21421e-21)
(14.999 0.00211637 7.86944e-21)
(14.999 0.00213622 2.33563e-21)
(14.999 0.00215553 -7.45363e-21)
(14.9991 0.00217422 -4.33486e-21)
(14.9991 0.00219243 -6.91772e-21)
(14.9991 0.00221006 -6.76711e-21)
(14.9992 0.00222708 1.67546e-20)
(14.9992 0.00224352 -2.06219e-20)
(14.9992 0.00225948 -7.90293e-23)