/*--------------------------------*- C++ -*---------------------------------*\ 
| ========                 |                                                 | 
| \      /  F ield         | OpenFOAM: The Open Source CFD Toolbox           | 
|  \    /   O peration     | Version:  v1812                                 | 
|   \  /    A nd           | Web:      www.OpenFOAM.com                      | 
|    \/     M anipulation  |                                                 | 
\*--------------------------------------------------------------------------*/ 
FoamFile
{
    version     2.0;
    format      ascii;
    class       volVectorField;
    location    "/home/james/dafoam/myRuns/bezier_coanda_opt/0.00000000001/";
    object      sens_CMZ_shapey;
}
// * * * * * * * * * * * * * * * * * * * * * * * * * * * * * * * * * * * * * //

dimensions      [0 0 0 0 0 0 0];
internalField   uniform (0 0 0);
boundaryField
{
    allWalls
    {
        type  wall;
        value nonuniform List<vector>
198
(
(0.012720 -0.002100 0.000012)
(0.014628 -0.003847 0.000011)
(0.018993 -0.005541 0.000011)
(0.014520 -0.004418 0.000011)
(0.006773 -0.001450 0.000010)
(0.004149 -0.001651 0.000010)
(0.001544 -0.000758 0.000009)
(0.003801 -0.006033 0.000009)
(0.015628 -0.022207 0.000009)
(0.018472 -0.027133 0.000008)
(0.010641 -0.017964 0.000008)
(0.008880 -0.019844 0.000007)
(0.009192 -0.023540 0.000028)
(0.007875 -0.023456 0.000047)
(0.007555 -0.025029 0.000044)
(0.006076 -0.023222 0.000040)
(0.004801 -0.021037 0.000037)
(0.003734 -0.019315 0.000034)
(0.002821 -0.017055 0.000031)
(0.001821 -0.013617 0.000115)
(0.000940 -0.008841 0.000228)
(-0.000265 0.003008 0.000291)
(-0.000502 0.005559 0.000364)
(-0.000203 0.009872 0.000446)
(0.000510 0.034768 0.000515)
(0.002391 0.053091 0.000491)
(0.004883 0.060569 0.000400)
(0.007697 0.069130 0.000321)
(0.010563 0.075709 0.000248)
(0.013285 0.080337 0.000184)
(0.015755 0.083426 0.000131)
(0.017902 0.085274 0.000053)
(0.019671 0.085961 -0.000001)
(0.021022 0.085556 -0.000001)
(0.021881 0.083911 -0.000001)
(0.022266 0.081200 -0.000001)
(0.022171 0.077462 -0.000001)
(0.021555 0.072577 -0.000013)
(0.020515 0.066886 -0.000025)
(0.019196 0.060836 -0.000024)
(0.017569 0.054274 -0.000023)
(0.015524 0.046890 -0.000022)
(0.013276 0.039430 -0.000021)
(0.011467 0.033862 -0.000020)
(0.010753 0.031768 -0.000019)
(0.009148 0.027228 -0.000019)
(0.003649 0.011949 -0.000018)
(0.003152 0.013097 -0.000017)
(0.009049 0.033054 -0.000017)
(-0.002609 -0.020489 -0.000018)
(-0.000029 0.000177 -0.000020)
(-0.000037 0.000394 -0.000018)
(-0.000256 0.000611 -0.000017)
(-0.000528 0.001301 -0.000016)
(-0.000760 0.001929 -0.000014)
(-0.001074 0.002650 -0.000013)
(-0.001485 0.003811 -0.000011)
(-0.001910 0.005271 -0.000009)
(-0.002158 0.006350 -0.000006)
(-0.002411 0.007456 -0.000004)
(-0.003192 0.009981 -0.000001)
(-0.004542 0.014363 0.000001)
(-0.006042 0.019659 0.000001)
(-0.007312 0.024760 -0.000001)
(-0.008274 0.029463 -0.000001)
(-0.008875 0.033585 -0.000001)
(-0.009072 0.036913 -0.000001)
(-0.008879 0.039369 -0.000001)
(-0.008320 0.040907 -0.000022)
(-0.007456 0.041565 -0.000044)
(-0.006351 0.041360 -0.000046)
(-0.005049 0.040048 -0.000049)
(-0.003635 0.037610 -0.000049)
(-0.002188 0.033223 -0.000046)
(-0.000908 0.029690 -0.000036)
(-0.000136 0.017778 -0.000022)
(0.000099 0.004420 -0.000010)
(0.000019 0.000787 -0.000003)
(-0.000453 -0.004555 0.000000)
(-0.001160 -0.010070 0.000002)
(-0.001771 -0.012763 0.000000)
(-0.002345 -0.014333 0.000037)
(-0.003013 -0.015830 0.000074)
(-0.003755 -0.017143 0.000073)
(-0.004403 -0.017560 0.000072)
(-0.004845 -0.016946 0.000072)
(-0.005759 -0.017468 0.000072)
(-0.006785 -0.018077 0.000041)
(-0.007297 -0.016983 0.000011)
(-0.007798 -0.015813 0.000011)
(-0.008577 -0.015158 0.000011)
(-0.009315 -0.014321 0.000011)
(-0.009759 -0.012793 0.000012)
(-0.009819 -0.010740 0.000012)
(-0.008213 -0.007387 0.000012)
(-0.005471 -0.003890 0.000012)
(-0.002935 -0.001348 0.000012)
(-0.000056 -0.001117 0.000012)
(0.004439 -0.002005 0.000012)
(0.011138 -0.001730 0.000012)
(-0.005674 -0.024059 -0.000020)
(0.004494 0.038790 -0.000020)
(0.002419 0.039561 -0.000020)
(0.001080 0.031315 -0.000020)
(0.001216 0.040660 -0.000020)
(0.001997 0.065199 -0.000020)
(0.002452 0.074945 -0.000020)
(0.002766 0.088953 -0.000020)
(0.003705 0.124434 -0.000020)
(0.004608 0.160924 -0.000020)
(0.004992 0.189194 -0.000020)
(0.006556 0.281297 -0.000020)
(0.021177 0.650021 -0.000013)
(0.014600 1.065708 -0.000007)
(-3.272933 -1.442850 -0.000007)
(5.535569 -46.496120 -0.000007)
(-1.865284 -1.961086 -0.000007)
(0.127699 -1.036204 -0.000007)
(-1.756896 -1.393464 -0.000007)
(-2.104258 38.676217 -0.000007)
(0.860726 22.196902 -0.000007)
(1.206331 8.577816 -0.000007)
(0.653986 4.016742 -0.000007)
(0.252957 1.258829 -0.000003)
(0.113073 0.527826 0.000000)
(0.131667 0.391469 0.000000)
(-0.281931 -0.824831 0.000000)
(-0.372686 -1.081388 0.000000)
(0.026611 -0.067150 0.000000)
(0.113768 0.082103 0.000000)
(0.567820 0.780211 0.000000)
(1.760469 2.333589 0.000000)
(3.589200 4.339924 0.000000)
(4.122165 4.699129 0.000000)
(6.379543 6.389806 0.000000)
(9.881940 8.931643 0.000000)
(6.979297 5.538578 0.000000)
(0.581114 -0.092768 0.000000)
(-16.124004 -9.479495 0.000000)
(-30.328183 -15.914618 0.000000)
(-25.542272 -11.627257 0.000000)
(-13.842644 -4.891627 0.000000)
(3.654370 1.343059 0.000000)
(9.723300 2.421250 0.000000)
(7.626452 1.410500 0.000000)
(9.138456 1.787714 0.000000)
(8.057605 1.304248 0.000000)
(5.822890 0.774752 0.000000)
(1.365813 -0.122426 0.000000)
(-0.318064 -0.528305 0.000000)
(0.861269 -0.371619 0.000000)
(1.273886 -0.421308 0.000000)
(1.116683 -0.498976 0.000000)
(0.381836 -0.188470 0.000000)
(-0.400831 0.078733 0.000000)
(-0.110097 0.123487 0.000000)
(0.119605 0.089127 0.000000)
(0.122400 0.073412 0.000000)
(0.084195 0.052536 0.000000)
(0.068834 0.024411 0.000000)
(0.058739 0.007965 0.000000)
(0.039187 0.005637 0.000000)
(0.019707 0.006463 0.000000)
(0.008049 0.007287 0.000000)
(0.001718 0.007621 0.000000)
(-0.000989 0.007113 0.000000)
(-0.002007 0.006208 0.000000)
(-0.002468 0.005291 0.000000)
(-0.002663 0.004452 0.000000)
(-0.002660 0.003730 0.000000)
(-0.002548 0.003182 0.000000)
(-0.002390 0.002823 0.000000)
(-0.002202 0.002601 0.000000)
(-0.001750 0.002515 -0.000003)
(-0.001277 0.002377 -0.000007)
(-0.001031 0.001939 -0.000007)
(-0.000797 0.001373 -0.000007)
(-0.000587 0.000896 -0.000007)
(-44.121576 0.708991 -0.000007)
(44.121374 -0.753850 -0.000007)
(-0.000169 0.000380 -0.000007)
(0.000088 0.000647 -0.000007)
(-0.000163 -0.001552 -0.000007)
(-0.000768 0.001585 -0.000007)
(-0.000602 0.005416 -0.000007)
(-0.000504 0.003881 -0.000013)
(-0.000437 0.003298 -0.000020)
(-0.000269 0.002611 -0.000020)
(-0.000220 0.002720 -0.000020)
(-0.000159 0.002717 -0.000020)
(-0.000103 0.002531 -0.000020)
(-0.000109 0.002134 -0.000020)
(-0.000142 0.001785 -0.000020)
(-0.000132 0.001756 -0.000020)
(-0.000064 0.001332 -0.000020)
(-0.000009 0.000487 -0.000020)
(0.000007 -0.000081 -0.000020)
(-0.000032 -0.000192 -0.000020)
)
;
    }
}
