/*--------------------------------*- C++ -*---------------------------------*\ 
| ========                 |                                                 | 
| \      /  F ield         | OpenFOAM: The Open Source CFD Toolbox           | 
|  \    /   O peration     | Version:  v1812                                 | 
|   \  /    A nd           | Web:      www.OpenFOAM.com                      | 
|    \/     M anipulation  |                                                 | 
\*--------------------------------------------------------------------------*/ 
FoamFile
{
    version     2.0;
    format      ascii;
    class       volVectorField;
    location    "/home/james/dafoam/myRuns/bezier_coanda_opt/0.00000000001/";
    object      sens_CMZ_shapey;
}
// * * * * * * * * * * * * * * * * * * * * * * * * * * * * * * * * * * * * * //

dimensions      [0 0 0 0 0 0 0];
internalField   uniform (0 0 0);
boundaryField
{
    allWalls
    {
        type  wall;
        value nonuniform List<vector>
198
(
(0.013462 -0.002860 0.000013)
(0.013406 -0.004245 0.000002)
(0.011853 -0.005067 -0.000009)
(0.008769 -0.004808 -0.000005)
(0.007966 -0.006600 0.000003)
(0.007489 -0.008474 0.000006)
(0.008803 -0.014119 0.000003)
(0.013384 -0.022737 0.000001)
(0.012222 -0.021531 0.000001)
(0.008502 -0.017720 -0.000001)
(0.007620 -0.018690 -0.000003)
(0.007002 -0.020430 -0.000007)
(0.005877 -0.020143 0.000000)
(0.005063 -0.020263 -0.000003)
(0.004765 -0.022010 -0.000002)
(0.003591 -0.019279 0.000015)
(0.002658 -0.017506 0.000028)
(0.002081 -0.016561 0.000041)
(0.001271 -0.013449 0.000056)
(0.000734 -0.011088 0.000077)
(0.000259 -0.007318 0.000102)
(0.000004 -0.001825 0.000153)
(0.000039 0.006538 0.000194)
(0.000534 0.017451 0.000220)
(0.001459 0.027931 0.000258)
(0.002494 0.035316 0.000264)
(0.003287 0.039257 0.000236)
(0.004253 0.045346 0.000198)
(0.004873 0.047803 0.000163)
(0.005259 0.047564 0.000131)
(0.006038 0.051501 0.000069)
(0.006486 0.052507 0.000022)
(0.006768 0.052269 0.000023)
(0.007018 0.052154 0.000024)
(0.007174 0.051523 0.000025)
(0.007289 0.050843 0.000026)
(0.007328 0.049819 0.000026)
(0.007298 0.048521 0.000012)
(0.007208 0.046988 -0.000002)
(0.007078 0.045349 -0.000002)
(0.006896 0.043500 -0.000002)
(0.006645 0.041348 -0.000002)
(0.006367 0.039128 -0.000002)
(0.006100 0.037067 -0.000002)
(0.005740 0.034430 0.000001)
(0.005082 0.030057 0.000003)
(0.004694 0.027541 0.000003)
(0.005631 0.034269 0.000003)
(0.006493 0.039361 0.000003)
(0.000301 -0.006256 0.000003)
(-0.002942 0.021081 -0.000002)
(0.000083 -0.001751 0.000003)
(-0.001273 0.006379 0.000003)
(-0.002141 0.012404 0.000003)
(-0.002349 0.013967 0.000003)
(-0.002424 0.014593 0.000003)
(-0.002677 0.016243 0.000001)
(-0.002976 0.018265 -0.000002)
(-0.003253 0.020210 -0.000002)
(-0.003512 0.022116 -0.000002)
(-0.003750 0.023974 -0.000002)
(-0.003975 0.025856 -0.000002)
(-0.004174 0.027698 0.000015)
(-0.004330 0.029388 0.000016)
(-0.004443 0.030947 0.000016)
(-0.004503 0.032308 0.000031)
(-0.004508 0.033462 0.000031)
(-0.004441 0.034278 0.000031)
(-0.004340 0.035092 0.000014)
(-0.004094 0.034890 -0.000004)
(-0.003967 0.036161 -0.000006)
(-0.003786 0.037204 -0.000008)
(-0.002910 0.030923 -0.000010)
(-0.002219 0.026593 -0.000011)
(-0.001753 0.024735 -0.000011)
(-0.001028 0.019556 -0.000008)
(-0.000409 0.012226 -0.000002)
(-0.000055 0.003442 0.000009)
(-0.000085 -0.003474 0.000018)
(-0.000339 -0.007784 0.000015)
(-0.000711 -0.010156 0.000012)
(-0.001253 -0.012819 0.000011)
(-0.001805 -0.014529 0.000013)
(-0.002302 -0.015034 0.000011)
(-0.003000 -0.016135 0.000005)
(-0.003791 -0.017227 0.000001)
(-0.004209 -0.016488 0.000003)
(-0.004873 -0.016357 0.000007)
(-0.005786 -0.016975 0.000006)
(-0.006126 -0.015809 0.000001)
(-0.006507 -0.014726 -0.000001)
(-0.007177 -0.014210 0.000004)
(-0.007964 -0.013611 -0.000000)
(-0.008439 -0.012291 -0.000001)
(-0.008640 -0.010409 0.000005)
(-0.007631 -0.007573 0.000010)
(-0.005019 -0.003968 0.000010)
(-0.002182 -0.001015 0.000005)
(0.001702 -0.000617 -0.000005)
(0.008780 -0.001816 0.000002)
(-0.001271 0.004509 -0.000002)
(0.002544 0.059220 -0.000007)
(0.001381 0.046004 -0.000007)
(0.001229 0.041832 -0.000007)
(0.001817 0.058594 -0.000007)
(0.002341 0.069810 -0.000007)
(0.002737 0.078615 -0.000007)
(0.003342 0.095593 -0.000007)
(0.004375 0.126912 -0.000007)
(0.005415 0.158201 -0.000007)
(0.005665 0.156159 -0.000007)
(0.008246 0.209732 -0.000007)
(0.027715 0.654946 -0.000004)
(0.052412 1.316441 -0.000002)
(-2.653066 -1.070818 -0.000002)
(-1.940252 -43.015229 -0.000002)
(-1.852964 -1.363332 -0.000002)
(-0.455458 -0.630190 -0.000002)
(-2.136640 -1.467928 -0.000002)
(5.116018 35.690697 -0.000002)
(0.610655 18.514107 -0.000002)
(0.955068 7.588555 -0.000002)
(0.423112 3.116013 -0.000002)
(0.187957 0.904901 -0.000002)
(0.136694 0.654545 -0.000000)
(0.108354 0.351891 0.000001)
(-0.058058 -0.053620 0.000001)
(-0.151907 -0.343851 0.000001)
(0.305939 0.522881 0.000001)
(0.518195 0.804589 0.000001)
(1.343589 1.946903 0.000001)
(2.309440 3.168780 0.000001)
(1.883086 2.530414 0.000001)
(5.253274 5.778404 0.000001)
(7.683456 7.849503 0.000001)
(1.708557 1.543575 0.000001)
(-8.458423 -6.248883 0.000001)
(-18.932332 -12.503383 0.000001)
(-17.947080 -10.915765 0.000001)
(-8.100566 -3.865049 0.000001)
(3.479488 1.595881 0.000001)
(7.282992 2.664172 0.000001)
(4.926900 1.417094 0.000001)
(5.653772 1.592224 0.000001)
(4.370696 0.969030 0.000001)
(2.304751 0.428537 0.000001)
(0.018547 -0.296226 0.000001)
(-0.293178 -0.459446 0.000001)
(0.774846 -0.283645 0.000001)
(0.753443 -0.405118 0.000001)
(0.532499 -0.360039 0.000001)
(0.298073 -0.182845 0.000001)
(-0.153543 -0.007899 0.000001)
(0.017111 0.085345 0.000001)
(0.111858 0.091898 0.000001)
(0.074728 0.080839 0.000001)
(0.048349 0.056618 0.000001)
(0.026327 0.037299 0.000001)
(-0.006420 0.027710 0.000001)
(-0.028756 0.025181 0.000001)
(-0.042915 0.031988 0.000001)
(-0.051892 0.041977 0.000001)
(-0.054830 0.049208 0.000001)
(-0.053132 0.051663 0.000001)
(-0.042074 0.042282 0.000001)
(-0.021832 0.021171 0.000001)
(-0.009691 0.008336 0.000001)
(-0.006760 0.005336 0.000001)
(-0.002039 -0.001388 0.000001)
(0.003624 -0.010953 0.000001)
(0.007793 -0.019663 0.000001)
(0.009637 -0.025577 0.000001)
(0.010761 -0.031885 0.000001)
(0.011059 -0.036363 0.000001)
(0.011168 -0.040974 -0.000000)
(0.011222 -0.043609 -0.000002)
(0.009227 -0.032120 -0.000002)
(0.005347 -0.016956 -0.000002)
(-44.105624 0.702725 -0.000002)
(44.108408 -0.755270 -0.000002)
(0.002424 -0.004345 -0.000002)
(0.007430 0.004550 -0.000002)
(0.077485 -0.393785 -0.000002)
(0.066466 -0.250826 -0.000002)
(-0.009748 0.229984 -0.000002)
(-0.004024 0.102585 -0.000004)
(-0.001375 0.033142 -0.000007)
(-0.000623 0.017149 -0.000007)
(-0.000839 0.023631 -0.000007)
(-0.000877 0.028023 -0.000007)
(-0.000692 0.022783 -0.000007)
(-0.000586 0.019056 -0.000007)
(-0.000566 0.017660 -0.000007)
(-0.000619 0.016684 -0.000007)
(-0.000703 0.016574 -0.000007)
(0.000129 0.009487 -0.000007)
(0.001184 0.002179 -0.000007)
(-0.002677 0.025795 -0.000007)
)
;
    }
}
