/*--------------------------------*- C++ -*---------------------------------*\ 
| ========                 |                                                 | 
| \      /  F ield         | OpenFOAM: The Open Source CFD Toolbox           | 
|  \    /   O peration     | Version:  v1812                                 | 
|   \  /    A nd           | Web:      www.OpenFOAM.com                      | 
|    \/     M anipulation  |                                                 | 
\*--------------------------------------------------------------------------*/ 
FoamFile
{
    version     2.0;
    format      ascii;
    class       volVectorField;
    location    "/home/james/dafoam/myRuns/bezier_coanda_opt/0.00000000001/";
    object      sens_CMZ_shapey;
}
// * * * * * * * * * * * * * * * * * * * * * * * * * * * * * * * * * * * * * //

dimensions      [0 0 0 0 0 0 0];
internalField   uniform (0 0 0);
boundaryField
{
    allWalls
    {
        type  wall;
        value nonuniform List<vector>
198
(
(0.010006 -0.001493 0.000008)
(0.013540 -0.002993 0.000008)
(0.016756 -0.004504 0.000008)
(0.014464 -0.004414 0.000007)
(0.008552 -0.002369 0.000007)
(0.007279 -0.003676 0.000007)
(0.007491 -0.006001 0.000007)
(0.003215 -0.004182 0.000006)
(0.015389 -0.021848 0.000006)
(0.022385 -0.032293 0.000006)
(0.010169 -0.016113 0.000005)
(0.009582 -0.020386 0.000005)
(0.009175 -0.022119 0.000026)
(0.007241 -0.020828 0.000045)
(0.008497 -0.026007 0.000042)
(0.007406 -0.026455 0.000039)
(0.005523 -0.021929 0.000036)
(0.003903 -0.018608 0.000033)
(0.003697 -0.019991 0.000031)
(0.002245 -0.014970 0.000118)
(0.001010 -0.008251 0.000236)
(-0.000020 -0.000795 0.000303)
(-0.000215 0.001530 0.000381)
(-0.000359 0.010804 0.000471)
(0.000233 0.034425 0.000548)
(0.002149 0.052201 0.000533)
(0.004865 0.060216 0.000445)
(0.008111 0.070338 0.000361)
(0.011424 0.077636 0.000283)
(0.014588 0.082303 0.000214)
(0.017594 0.086114 0.000156)
(0.020222 0.088353 0.000069)
(0.022413 0.089290 0.000008)
(0.024082 0.088913 0.000008)
(0.025138 0.087090 0.000008)
(0.025545 0.083861 0.000008)
(0.025290 0.079285 0.000008)
(0.024355 0.073367 -0.000010)
(0.022842 0.066445 -0.000026)
(0.020931 0.059025 -0.000024)
(0.018613 0.051020 -0.000022)
(0.015880 0.042466 -0.000021)
(0.013014 0.034198 -0.000019)
(0.010659 0.027875 -0.000018)
(0.009353 0.024554 -0.000017)
(0.007474 0.019914 -0.000015)
(0.002368 0.007331 -0.000014)
(0.000747 0.004600 -0.000013)
(0.004767 0.016603 -0.000012)
(-0.001367 -0.011063 -0.000014)
(0.000184 -0.001015 -0.000018)
(0.000215 -0.000271 -0.000016)
(0.000031 -0.000163 -0.000015)
(-0.000138 0.000074 -0.000014)
(-0.000317 0.000543 -0.000012)
(-0.000590 0.001141 -0.000011)
(-0.001021 0.002170 -0.000009)
(-0.001543 0.003678 -0.000007)
(-0.002017 0.005228 -0.000005)
(-0.002461 0.006682 -0.000003)
(-0.002466 0.007358 -0.000000)
(-0.002811 0.009244 0.000002)
(-0.004260 0.013727 0.000006)
(-0.005990 0.019112 0.000008)
(-0.007533 0.024814 0.000008)
(-0.008743 0.030439 0.000008)
(-0.009422 0.035198 0.000008)
(-0.009502 0.038659 0.000008)
(-0.009070 0.040900 -0.000012)
(-0.008228 0.042052 -0.000032)
(-0.007069 0.042211 -0.000033)
(-0.005644 0.041061 -0.000034)
(-0.004066 0.038701 -0.000033)
(-0.002435 0.034339 -0.000028)
(-0.000973 0.030384 -0.000017)
(-0.000100 0.018565 -0.000009)
(0.000125 0.004837 -0.000005)
(0.000048 0.000947 0.000001)
(-0.000533 -0.004808 0.000004)
(-0.001358 -0.010784 0.000005)
(-0.001979 -0.012997 0.000003)
(-0.002611 -0.014636 0.000038)
(-0.003303 -0.015978 0.000073)
(-0.004125 -0.017353 0.000072)
(-0.004854 -0.017889 0.000071)
(-0.005180 -0.016785 0.000071)
(-0.006129 -0.017208 0.000070)
(-0.007315 -0.018113 0.000039)
(-0.007725 -0.016746 0.000008)
(-0.008128 -0.015308 0.000008)
(-0.008945 -0.014786 0.000008)
(-0.009526 -0.013851 0.000008)
(-0.009741 -0.012105 0.000008)
(-0.009336 -0.009729 0.000009)
(-0.007205 -0.006122 0.000009)
(-0.004267 -0.002662 0.000009)
(-0.001973 -0.000407 0.000009)
(0.000417 -0.000406 0.000009)
(0.004409 -0.001017 0.000009)
(0.008388 -0.000953 0.000009)
(-0.003431 -0.015533 -0.000018)
(0.002319 0.019121 -0.000020)
(0.001411 0.024640 -0.000020)
(0.000902 0.026128 -0.000020)
(0.001209 0.037025 -0.000020)
(0.001648 0.049907 -0.000020)
(0.001894 0.058501 -0.000020)
(0.002345 0.077079 -0.000020)
(0.003166 0.106589 -0.000020)
(0.003924 0.137856 -0.000020)
(0.004291 0.161672 -0.000020)
(0.005827 0.239183 -0.000020)
(0.019563 0.579241 -0.000013)
(0.016468 0.995359 -0.000006)
(-3.426964 -1.576919 -0.000006)
(-2.094144 -43.383130 -0.000006)
(-2.340273 -1.830182 -0.000006)
(0.211258 -0.861403 -0.000006)
(-1.846111 -1.516648 -0.000006)
(5.433905 36.876469 -0.000006)
(0.654042 19.081913 -0.000006)
(1.018540 7.388838 -0.000006)
(0.548454 3.462332 -0.000006)
(0.203958 1.092298 -0.000007)
(0.110777 0.537617 -0.000003)
(0.118763 0.402358 0.000001)
(-0.182658 -0.513616 0.000001)
(-0.360119 -1.001811 0.000001)
(-0.255239 -0.624709 0.000001)
(-0.159442 -0.329850 0.000001)
(0.153344 0.211926 0.000001)
(0.905894 1.196529 0.000001)
(2.747569 3.409293 0.000001)
(3.037252 3.455690 0.000001)
(4.690358 4.561077 0.000001)
(6.685972 6.090147 0.000001)
(3.949115 3.393467 0.000001)
(9.487765 6.434177 0.000001)
(6.510256 4.019114 0.000001)
(-23.679328 -13.150471 0.000001)
(-33.130009 -16.280481 0.000001)
(-18.619069 -6.662748 0.000001)
(-8.272692 -1.771258 0.000001)
(6.368747 2.130437 0.000001)
(9.806974 2.121795 0.000001)
(6.516569 0.831485 0.000001)
(7.556436 0.840328 0.000001)
(5.878823 0.233923 0.000001)
(3.542820 -0.022674 0.000001)
(0.648064 -0.321526 0.000001)
(-0.235751 -0.452985 0.000001)
(0.754846 -0.391184 0.000001)
(0.937823 -0.451509 0.000001)
(0.939172 -0.424247 0.000001)
(0.481258 -0.154591 0.000001)
(-0.250871 0.116589 0.000001)
(-0.015605 0.132066 0.000001)
(0.145941 0.085648 0.000001)
(0.138635 0.054167 0.000001)
(0.100090 0.027984 0.000001)
(0.078175 0.005449 0.000001)
(0.063270 -0.006190 0.000001)
(0.041237 -0.005488 0.000001)
(0.020413 -0.000194 0.000001)
(0.007517 0.003845 0.000001)
(0.000432 0.006341 0.000001)
(-0.002998 0.007603 0.000001)
(-0.004162 0.007753 0.000001)
(-0.004223 0.007240 0.000001)
(-0.003895 0.006453 0.000001)
(-0.003496 0.005614 0.000001)
(-0.003106 0.004804 0.000001)
(-0.002724 0.004025 0.000001)
(-0.002238 0.003304 0.000001)
(-0.001655 0.002600 -0.000003)
(-0.001222 0.001803 -0.000006)
(-0.000957 0.001004 -0.000006)
(-0.000800 0.000517 -0.000006)
(-44.121290 0.708788 -0.000006)
(44.120861 -0.753965 -0.000006)
(-0.000156 0.000073 -0.000006)
(-0.000196 0.000150 -0.000006)
(-0.003824 0.007915 -0.000006)
(-0.004678 0.011080 -0.000006)
(-0.001489 0.005842 -0.000006)
(-0.001052 0.004660 -0.000013)
(-0.000823 0.003670 -0.000020)
(-0.000506 0.002892 -0.000020)
(-0.000341 0.002422 -0.000020)
(-0.000241 0.002058 -0.000020)
(-0.000168 0.001748 -0.000020)
(-0.000139 0.001423 -0.000020)
(-0.000121 0.001023 -0.000020)
(-0.000079 0.000531 -0.000020)
(-0.000035 0.000060 -0.000020)
(0.000018 -0.000439 -0.000020)
(0.000066 -0.000751 -0.000020)
(0.000089 -0.001258 -0.000020)
)
;
    }
}
