/*--------------------------------*- C++ -*---------------------------------*\ 
| ========                 |                                                 | 
| \      /  F ield         | OpenFOAM: The Open Source CFD Toolbox           | 
|  \    /   O peration     | Version:  v1812                                 | 
|   \  /    A nd           | Web:      www.OpenFOAM.com                      | 
|    \/     M anipulation  |                                                 | 
\*--------------------------------------------------------------------------*/ 
FoamFile
{
    version     2.0;
    format      ascii;
    class       volVectorField;
    location    "/home/james/dafoam/myRuns/bezier_coanda_opt/0.00000000001/";
    object      sens_CMZ_shapey;
}
// * * * * * * * * * * * * * * * * * * * * * * * * * * * * * * * * * * * * * //

dimensions      [0 0 0 0 0 0 0];
internalField   uniform (0 0 0);
boundaryField
{
    allWalls
    {
        type  wall;
        value nonuniform List<vector>
198
(
(0.009281 -0.001709 0.000004)
(0.012390 -0.003289 0.000004)
(0.014664 -0.005084 0.000004)
(0.012415 -0.005479 0.000003)
(0.009691 -0.005851 0.000003)
(0.007749 -0.006478 0.000002)
(0.008818 -0.011590 0.000002)
(0.014048 -0.020599 0.000001)
(0.013284 -0.020503 0.000000)
(0.009802 -0.018404 -0.000000)
(0.009227 -0.021081 -0.000001)
(0.008588 -0.023551 -0.000002)
(0.006882 -0.021599 0.000009)
(0.005429 -0.020141 0.000020)
(0.005139 -0.021686 0.000016)
(0.004197 -0.020699 0.000012)
(0.003364 -0.019530 0.000007)
(0.002561 -0.017924 0.000003)
(0.001649 -0.014111 -0.000000)
(0.000998 -0.011184 0.000051)
(0.000580 -0.008452 0.000122)
(0.000080 -0.002115 0.000161)
(-0.000129 0.004212 0.000208)
(0.000050 0.018054 0.000263)
(0.000593 0.027019 0.000312)
(0.001887 0.034401 0.000323)
(0.003589 0.046802 0.000290)
(0.005086 0.051817 0.000242)
(0.006495 0.055381 0.000197)
(0.007761 0.057776 0.000157)
(0.008847 0.059203 0.000121)
(0.009752 0.059908 0.000060)
(0.010488 0.060085 0.000015)
(0.011042 0.059717 0.000015)
(0.011405 0.058786 0.000015)
(0.011604 0.057432 0.000015)
(0.011658 0.055753 0.000015)
(0.011553 0.053651 0.000005)
(0.011287 0.051112 -0.000005)
(0.010919 0.048370 -0.000005)
(0.010467 0.045482 -0.000005)
(0.009868 0.042158 -0.000005)
(0.009124 0.038387 -0.000005)
(0.008423 0.034991 -0.000005)
(0.008066 0.033147 -0.000002)
(0.007446 0.030277 0.000001)
(0.005354 0.021128 0.000001)
(0.005611 0.023569 0.000001)
(0.008256 0.035733 0.000001)
(0.000369 -0.007096 0.000001)
(-0.001233 0.006222 -0.000004)
(-0.001323 0.003619 0.000001)
(-0.001633 0.005165 0.000001)
(-0.001739 0.005743 0.000001)
(-0.002034 0.006845 0.000001)
(-0.002164 0.007205 0.000001)
(-0.002695 0.009163 -0.000002)
(-0.003418 0.012085 -0.000005)
(-0.004082 0.014786 -0.000005)
(-0.004700 0.017390 -0.000005)
(-0.005360 0.020359 -0.000005)
(-0.005986 0.023496 -0.000005)
(-0.006503 0.026555 0.000005)
(-0.006881 0.029436 0.000015)
(-0.007094 0.032032 0.000015)
(-0.007127 0.034281 0.000015)
(-0.006974 0.036127 0.000015)
(-0.006636 0.037505 0.000015)
(-0.006118 0.038349 -0.000004)
(-0.005439 0.038613 -0.000026)
(-0.004618 0.038152 -0.000030)
(-0.003704 0.037062 -0.000034)
(-0.002707 0.034665 -0.000038)
(-0.001723 0.031715 -0.000039)
(-0.000834 0.027175 -0.000035)
(-0.000193 0.014705 -0.000023)
(0.000134 0.006965 -0.000010)
(0.000081 0.003343 -0.000003)
(-0.000310 -0.004402 0.000002)
(-0.000707 -0.008329 0.000004)
(-0.001128 -0.010836 0.000005)
(-0.001601 -0.012936 0.000026)
(-0.002053 -0.014117 0.000047)
(-0.002500 -0.014759 0.000047)
(-0.003157 -0.015996 0.000047)
(-0.004028 -0.017650 0.000047)
(-0.004508 -0.017224 0.000046)
(-0.004480 -0.014991 0.000027)
(-0.005531 -0.015879 0.000007)
(-0.006793 -0.017152 0.000007)
(-0.007089 -0.015596 0.000006)
(-0.008071 -0.015217 0.000006)
(-0.009043 -0.014706 0.000005)
(-0.009966 -0.013491 0.000005)
(-0.009581 -0.010735 0.000005)
(-0.007129 -0.006279 0.000005)
(-0.003698 -0.002124 0.000004)
(-0.000610 0.000747 0.000004)
(0.001615 0.000254 0.000004)
(0.005715 -0.001086 0.000004)
(-0.002711 -0.004286 -0.000004)
(0.002258 0.046481 -0.000009)
(0.001203 0.039829 -0.000009)
(0.000941 0.035333 -0.000009)
(0.001432 0.050811 -0.000009)
(0.002073 0.064857 -0.000009)
(0.002442 0.071536 -0.000009)
(0.002971 0.087809 -0.000009)
(0.003955 0.118291 -0.000009)
(0.004889 0.148136 -0.000009)
(0.005143 0.150233 -0.000009)
(0.007427 0.204213 -0.000009)
(0.025501 0.615877 -0.000006)
(0.042317 1.204033 -0.000003)
(-2.677490 -1.578834 -0.000003)
(-8.572959 -38.554448 -0.000003)
(-2.204671 -1.491215 -0.000003)
(-0.379800 -0.682564 -0.000003)
(-1.937935 -1.846844 -0.000003)
(11.744670 32.796230 -0.000003)
(0.520949 16.079935 -0.000003)
(0.791775 6.347583 -0.000003)
(0.430773 2.834836 -0.000003)
(0.211061 0.974428 -0.000003)
(0.075816 0.321062 -0.000001)
(0.059554 0.161822 0.000001)
(-0.127332 -0.249278 0.000001)
(-0.163982 -0.319770 0.000001)
(0.165311 0.318642 0.000001)
(0.351417 0.522592 0.000001)
(1.227468 1.752339 0.000001)
(2.749935 3.681683 0.000001)
(2.928258 3.705517 0.000001)
(5.033889 5.511343 0.000001)
(8.380865 8.337161 0.000001)
(5.528740 4.656065 0.000001)
(-3.037182 -3.215430 0.000001)
(-16.148956 -11.225540 0.000001)
(-22.442946 -13.181111 0.000001)
(-15.629087 -7.703811 0.000001)
(-5.602892 -1.829763 0.000001)
(6.359574 2.705019 0.000001)
(8.229435 2.648715 0.000001)
(5.012896 1.145057 0.000001)
(6.034996 1.375349 0.000001)
(4.410074 0.695900 0.000001)
(2.201838 0.198064 0.000001)
(-0.028176 -0.345274 0.000001)
(-0.131479 -0.369217 0.000001)
(1.044912 -0.256841 0.000001)
(0.629942 -0.386926 0.000001)
(0.342565 -0.332874 0.000001)
(0.419995 -0.229983 0.000001)
(-0.166214 -0.015762 0.000001)
(-0.089764 0.070879 0.000001)
(0.048057 0.064695 0.000001)
(0.049777 0.053210 0.000001)
(0.036942 0.034747 0.000001)
(0.032608 0.016885 0.000001)
(0.017616 0.009430 0.000001)
(0.000970 0.007331 0.000001)
(-0.007082 0.006103 0.000001)
(-0.009987 0.006304 0.000001)
(-0.010203 0.007179 0.000001)
(-0.008832 0.007105 0.000001)
(-0.006436 0.005409 0.000001)
(-0.003156 0.001741 0.000001)
(0.000319 -0.002783 0.000001)
(0.001674 -0.004294 0.000001)
(0.000735 -0.002227 0.000001)
(-0.000782 0.001168 0.000001)
(-0.001963 0.004058 0.000001)
(-0.001574 0.002669 0.000001)
(-0.000009 -0.002230 0.000001)
(0.001103 -0.006570 -0.000001)
(0.001838 -0.010839 -0.000003)
(0.001941 -0.011480 -0.000003)
(0.000925 -0.007447 -0.000003)
(-44.116725 0.705935 -0.000003)
(44.118027 -0.754007 -0.000003)
(0.000890 -0.000145 -0.000003)
(0.000497 0.005562 -0.000003)
(0.024041 -0.113394 -0.000003)
(0.021663 -0.075477 -0.000003)
(-0.003475 0.065443 -0.000003)
(-0.001577 0.031766 -0.000006)
(-0.000563 0.011822 -0.000009)
(-0.000182 0.004064 -0.000009)
(-0.000284 0.006630 -0.000009)
(-0.000306 0.008862 -0.000009)
(-0.000254 0.007945 -0.000009)
(-0.000241 0.007500 -0.000009)
(-0.000242 0.007103 -0.000009)
(-0.000226 0.006900 -0.000009)
(-0.000166 0.006006 -0.000009)
(-0.000041 0.004824 -0.000009)
(-0.000086 0.004817 -0.000009)
(-0.000944 0.007877 -0.000009)
)
;
    }
}
