/*--------------------------------*- C++ -*---------------------------------*\ 
| ========                 |                                                 | 
| \      /  F ield         | OpenFOAM: The Open Source CFD Toolbox           | 
|  \    /   O peration     | Version:  v1812                                 | 
|   \  /    A nd           | Web:      www.OpenFOAM.com                      | 
|    \/     M anipulation  |                                                 | 
\*--------------------------------------------------------------------------*/ 
FoamFile
{
    version     2.0;
    format      ascii;
    class       volVectorField;
    location    "/home/james/dafoam/myRuns/bezier_coanda_opt/0.00000000001/";
    object      sens_CMZ_shapey;
}
// * * * * * * * * * * * * * * * * * * * * * * * * * * * * * * * * * * * * * //

dimensions      [0 0 0 0 0 0 0];
internalField   uniform (0 0 0);
boundaryField
{
    allWalls
    {
        type  wall;
        value nonuniform List<vector>
198
(
(0.006914 -0.000517 0.000001)
(0.009424 -0.001578 -0.000000)
(0.012430 -0.003000 -0.000000)
(0.013076 -0.004236 -0.000000)
(0.012248 -0.005243 -0.000001)
(0.012492 -0.007577 -0.000001)
(0.012716 -0.010426 -0.000001)
(0.011343 -0.011981 -0.000001)
(0.012395 -0.016143 -0.000001)
(0.017218 -0.025278 -0.000002)
(0.016604 -0.026955 -0.000002)
(0.011085 -0.021334 -0.000002)
(0.009563 -0.021702 0.000018)
(0.009191 -0.023588 0.000035)
(0.008298 -0.024166 0.000031)
(0.007729 -0.025522 0.000027)
(0.006104 -0.022793 0.000023)
(0.004720 -0.020424 0.000019)
(0.004188 -0.021120 0.000016)
(0.002717 -0.016187 0.000097)
(0.001245 -0.009426 0.000210)
(0.000359 -0.003777 0.000278)
(0.000193 -0.004989 0.000360)
(-0.000221 0.009316 0.000455)
(-0.000229 0.034095 0.000543)
(0.001699 0.045172 0.000545)
(0.004473 0.055789 0.000472)
(0.007768 0.065197 0.000392)
(0.011221 0.072156 0.000315)
(0.014644 0.077289 0.000246)
(0.017899 0.081187 0.000186)
(0.020794 0.083586 0.000094)
(0.023243 0.084706 0.000029)
(0.025130 0.084460 0.000029)
(0.026364 0.082810 0.000029)
(0.026836 0.079603 0.000029)
(0.026530 0.074924 0.000029)
(0.025432 0.068839 0.000004)
(0.023610 0.061563 -0.000020)
(0.021230 0.053522 -0.000018)
(0.018358 0.044875 -0.000017)
(0.015294 0.036356 -0.000015)
(0.012440 0.028903 -0.000014)
(0.009644 0.022053 -0.000013)
(0.006366 0.014014 -0.000012)
(0.003902 0.008534 -0.000011)
(0.002120 0.005014 -0.000010)
(-0.000042 0.000446 -0.000009)
(0.000111 0.001612 -0.000008)
(-0.000722 -0.004670 -0.000009)
(0.000641 -0.003441 -0.000014)
(0.000190 -0.000133 -0.000010)
(0.000183 -0.000673 -0.000009)
(0.000281 -0.001254 -0.000008)
(0.000112 -0.000774 -0.000007)
(-0.000226 -0.000027 -0.000007)
(-0.000750 0.001063 -0.000006)
(-0.001451 0.002579 -0.000005)
(-0.002306 0.004648 -0.000003)
(-0.003246 0.007138 -0.000002)
(-0.004723 0.011409 -0.000001)
(-0.005499 0.014018 0.000001)
(-0.003014 0.010107 0.000015)
(-0.001000 0.006843 0.000029)
(-0.002627 0.009867 0.000029)
(-0.004925 0.015220 0.000029)
(-0.006747 0.021488 0.000029)
(-0.008202 0.028554 0.000029)
(-0.008822 0.034318 0.000008)
(-0.008575 0.037988 -0.000013)
(-0.007728 0.040106 -0.000012)
(-0.006391 0.040330 -0.000010)
(-0.004741 0.039175 -0.000007)
(-0.002905 0.035551 -0.000000)
(-0.001155 0.031138 0.000011)
(-0.000071 0.020577 0.000016)
(0.000205 0.006956 0.000016)
(0.000009 0.000574 0.000018)
(-0.000758 -0.005962 0.000018)
(-0.001562 -0.010828 0.000015)
(-0.002235 -0.012851 0.000012)
(-0.002993 -0.014839 0.000039)
(-0.003882 -0.016569 0.000067)
(-0.004555 -0.017148 0.000066)
(-0.004910 -0.016119 0.000066)
(-0.006094 -0.017414 0.000065)
(-0.007271 -0.018260 0.000065)
(-0.007790 -0.017128 0.000033)
(-0.008082 -0.015505 0.000001)
(-0.008918 -0.015069 0.000001)
(-0.009090 -0.014072 0.000001)
(-0.009385 -0.012823 0.000001)
(-0.009772 -0.011662 0.000001)
(-0.007948 -0.007960 0.000001)
(-0.004967 -0.003831 0.000001)
(-0.002060 -0.000405 0.000001)
(-0.000636 0.001398 0.000001)
(0.000388 0.000942 0.000002)
(0.002846 0.000229 0.000002)
(0.005525 0.000064 0.000002)
(-0.001186 -0.006438 -0.000014)
(0.000340 0.005060 -0.000018)
(0.000323 0.011211 -0.000018)
(0.000455 0.018300 -0.000018)
(0.000818 0.027957 -0.000018)
(0.001201 0.036055 -0.000018)
(0.001503 0.044638 -0.000018)
(0.001930 0.058852 -0.000018)
(0.002636 0.082185 -0.000018)
(0.003382 0.108435 -0.000018)
(0.003701 0.117657 -0.000018)
(0.005358 0.164023 -0.000018)
(0.019288 0.486139 -0.000011)
(0.025743 0.967324 -0.000005)
(-3.184500 -2.080555 -0.000005)
(-16.157405 -34.959480 -0.000005)
(-2.550873 -1.460894 -0.000005)
(0.094099 -0.555921 -0.000005)
(-1.917259 -2.160771 -0.000005)
(19.117324 30.878849 -0.000005)
(0.394252 13.477281 -0.000005)
(0.687165 5.301554 -0.000005)
(0.381364 2.517420 -0.000005)
(0.150938 0.854190 -0.000002)
(0.091156 0.440492 0.000002)
(0.077078 0.299568 0.000002)
(-0.110392 -0.257521 0.000002)
(-0.206949 -0.524180 0.000002)
(-0.240094 -0.520411 0.000002)
(-0.162534 -0.332335 0.000002)
(-0.076093 -0.118285 0.000002)
(0.053131 0.066701 0.000002)
(0.651981 0.889204 0.000002)
(1.310133 1.455856 0.000002)
(2.858816 2.769412 0.000002)
(3.563342 3.247624 0.000002)
(4.339094 3.394728 0.000002)
(5.083073 3.795200 0.000002)
(10.230926 6.325845 0.000002)
(6.048090 3.636065 0.000002)
(-12.376909 -6.145323 0.000002)
(-23.850435 -10.678390 0.000002)
(-19.359692 -7.279847 0.000002)
(-8.851404 -2.180852 0.000002)
(2.042259 0.490205 0.000002)
(6.521306 1.042666 0.000002)
(4.687212 0.345648 0.000002)
(5.672672 0.331525 0.000002)
(4.553863 -0.058924 0.000002)
(2.783303 -0.190474 0.000002)
(0.491120 -0.290788 0.000002)
(-0.285619 -0.333935 0.000002)
(0.584693 -0.365317 0.000002)
(0.726860 -0.423546 0.000002)
(0.653832 -0.378694 0.000002)
(0.426783 -0.175909 0.000002)
(-0.106069 0.068673 0.000002)
(0.038252 0.093973 0.000002)
(0.151308 0.053796 0.000002)
(0.147105 0.020299 0.000002)
(0.114267 -0.002003 0.000002)
(0.083929 -0.011283 0.000002)
(0.066635 -0.019545 0.000002)
(0.058639 -0.029514 0.000002)
(0.041613 -0.025948 0.000002)
(0.017462 -0.009227 0.000002)
(0.002077 0.002852 0.000002)
(-0.002583 0.005425 0.000002)
(-0.005147 0.007440 0.000002)
(-0.006437 0.009199 0.000002)
(-0.006210 0.009469 0.000002)
(-0.005257 0.008738 0.000002)
(-0.004139 0.007456 0.000002)
(-0.003042 0.005895 -0.000002)
(-0.002065 0.004241 -0.000005)
(-0.001351 0.002584 -0.000005)
(-0.000902 0.001206 -0.000005)
(-0.000790 0.000522 -0.000005)
(-44.119737 0.708867 -0.000005)
(44.119453 -0.753953 -0.000005)
(-0.000020 -0.000095 -0.000005)
(-0.000350 -0.000563 -0.000005)
(-0.007177 0.023645 -0.000005)
(-0.007523 0.032047 -0.000005)
(-0.001302 0.012785 -0.000005)
(-0.001339 0.008469 -0.000011)
(-0.001043 0.005972 -0.000018)
(-0.000634 0.004146 -0.000018)
(-0.000399 0.003020 -0.000018)
(-0.000240 0.002159 -0.000018)
(-0.000136 0.001490 -0.000018)
(-0.000075 0.000675 -0.000018)
(-0.000047 0.000228 -0.000018)
(-0.000008 -0.000229 -0.000018)
(0.000034 -0.000887 -0.000018)
(0.000048 -0.000659 -0.000018)
(0.000098 -0.000358 -0.000018)
(0.000545 -0.003495 -0.000018)
)
;
    }
}
