/*--------------------------------*- C++ -*---------------------------------*\ 
| ========                 |                                                 | 
| \      /  F ield         | OpenFOAM: The Open Source CFD Toolbox           | 
|  \    /   O peration     | Version:  v1812                                 | 
|   \  /    A nd           | Web:      www.OpenFOAM.com                      | 
|    \/     M anipulation  |                                                 | 
\*--------------------------------------------------------------------------*/ 
FoamFile
{
    version     2.0;
    format      ascii;
    class       volVectorField;
    location    "/home/james/dafoam/myRuns/bezier_coanda_opt/0.00000000001/";
    object      sens_CMZ_shapey;
}
// * * * * * * * * * * * * * * * * * * * * * * * * * * * * * * * * * * * * * //

dimensions      [0 0 0 0 0 0 0];
internalField   uniform (0 0 0);
boundaryField
{
    allWalls
    {
        type  wall;
        value nonuniform List<vector>
198
(
(0.006145 -0.000624 0.000001)
(0.008785 -0.001827 0.000001)
(0.011696 -0.003571 0.000000)
(0.012854 -0.005330 -0.000000)
(0.013039 -0.007390 -0.000000)
(0.013158 -0.010151 -0.000001)
(0.011775 -0.011774 -0.000001)
(0.012071 -0.015703 -0.000001)
(0.014907 -0.022249 -0.000002)
(0.014201 -0.023751 -0.000002)
(0.010433 -0.020724 -0.000003)
(0.009113 -0.021718 -0.000003)
(0.008320 -0.022622 0.000008)
(0.007000 -0.022065 0.000016)
(0.006257 -0.022379 0.000012)
(0.005240 -0.021607 0.000007)
(0.004314 -0.020420 0.000002)
(0.003386 -0.018792 -0.000003)
(0.002581 -0.016877 -0.000007)
(0.001750 -0.014004 0.000052)
(0.001016 -0.010331 0.000135)
(0.000209 -0.002914 0.000182)
(-0.000236 0.003692 0.000239)
(-0.000214 0.010864 0.000307)
(0.000389 0.025352 0.000370)
(0.001896 0.039995 0.000388)
(0.003809 0.048214 0.000352)
(0.005828 0.053720 0.000297)
(0.007859 0.058343 0.000243)
(0.009718 0.061252 0.000194)
(0.011380 0.063154 0.000151)
(0.012791 0.064117 0.000080)
(0.013922 0.064248 0.000028)
(0.014768 0.063654 0.000028)
(0.015330 0.062416 0.000028)
(0.015617 0.060606 0.000028)
(0.015620 0.058195 0.000028)
(0.015327 0.055149 0.000010)
(0.014784 0.051614 -0.000007)
(0.014047 0.047769 -0.000006)
(0.013150 0.043684 -0.000006)
(0.012083 0.039290 -0.000005)
(0.010828 0.034488 -0.000004)
(0.009530 0.029790 -0.000003)
(0.008591 0.026432 -0.000003)
(0.007653 0.023202 -0.000002)
(0.005433 0.015969 -0.000002)
(0.004280 0.012912 -0.000001)
(0.004754 0.015294 -0.000001)
(0.001455 -0.000746 -0.000002)
(-0.000405 0.002101 -0.000007)
(-0.000646 0.002172 -0.000003)
(-0.000998 0.002793 -0.000002)
(-0.001433 0.004035 -0.000001)
(-0.001720 0.004735 -0.000000)
(-0.002295 0.006292 0.000001)
(-0.002520 0.007065 0.000002)
(-0.002193 0.006787 0.000004)
(-0.002325 0.007775 0.000005)
(-0.002798 0.009316 0.000007)
(-0.003774 0.012555 0.000009)
(-0.004974 0.016744 0.000011)
(-0.005946 0.020524 0.000020)
(-0.006795 0.024353 0.000028)
(-0.007488 0.028176 0.000028)
(-0.007916 0.031641 0.000028)
(-0.008041 0.034566 0.000028)
(-0.007861 0.036859 0.000028)
(-0.007388 0.038449 0.000004)
(-0.006649 0.039255 -0.000021)
(-0.005694 0.039308 -0.000024)
(-0.004560 0.038355 -0.000028)
(-0.003313 0.036323 -0.000030)
(-0.002025 0.032533 -0.000030)
(-0.000872 0.028028 -0.000025)
(-0.000105 0.018472 -0.000015)
(0.000100 0.005983 -0.000005)
(0.000045 0.001009 0.000001)
(-0.000325 -0.003417 0.000005)
(-0.000982 -0.009287 0.000007)
(-0.001516 -0.011798 0.000007)
(-0.002022 -0.013376 0.000028)
(-0.002575 -0.014645 0.000050)
(-0.003122 -0.015427 0.000049)
(-0.004106 -0.017479 0.000049)
(-0.004831 -0.018013 0.000048)
(-0.004590 -0.014972 0.000048)
(-0.005651 -0.015884 0.000026)
(-0.007009 -0.017502 0.000003)
(-0.007237 -0.015785 0.000003)
(-0.007747 -0.014749 0.000003)
(-0.009004 -0.014954 0.000003)
(-0.009777 -0.014204 0.000002)
(-0.009813 -0.011964 0.000002)
(-0.008198 -0.008270 0.000002)
(-0.004796 -0.003599 0.000002)
(-0.001659 0.000087 0.000002)
(0.000083 0.001634 0.000002)
(0.001158 0.000688 0.000001)
(0.003622 -0.000151 0.000001)
(-0.000662 0.003447 -0.000007)
(0.000345 0.025103 -0.000010)
(0.000343 0.023686 -0.000010)
(0.000712 0.028582 -0.000010)
(0.001118 0.041095 -0.000010)
(0.001455 0.046858 -0.000010)
(0.001879 0.057784 -0.000010)
(0.002514 0.074922 -0.000010)
(0.003313 0.098336 -0.000010)
(0.004128 0.125513 -0.000010)
(0.004328 0.125071 -0.000010)
(0.006256 0.166061 -0.000010)
(0.023281 0.544141 -0.000006)
(0.035543 1.102551 -0.000002)
(-2.713491 -2.163408 -0.000002)
(-17.926707 -32.039929 -0.000002)
(-2.168623 -1.320377 -0.000002)
(-0.207061 -0.547305 -0.000002)
(-1.880152 -2.397657 -0.000002)
(20.787020 28.163294 -0.000002)
(0.408433 12.623325 -0.000002)
(0.605218 5.029563 -0.000002)
(0.345729 2.364289 -0.000002)
(0.157932 0.799892 -0.000002)
(0.069578 0.298956 -0.000000)
(0.059015 0.180043 0.000002)
(-0.150990 -0.378223 0.000002)
(-0.216513 -0.517379 0.000002)
(-0.043005 -0.099623 0.000002)
(-0.012788 -0.073510 0.000002)
(0.279161 0.374792 0.000002)
(1.074383 1.422308 0.000002)
(2.540858 3.052161 0.000002)
(2.473929 2.837062 0.000002)
(4.385310 4.385734 0.000002)
(8.432601 7.603030 0.000002)
(8.951643 6.940235 0.000002)
(1.393404 0.336951 0.000002)
(-18.362727 -12.212903 0.000002)
(-21.623332 -12.306598 0.000002)
(-11.651893 -4.717245 0.000002)
(-6.139155 -1.852704 0.000002)
(4.129233 1.603784 0.000002)
(6.158279 1.614555 0.000002)
(4.188376 0.743998 0.000002)
(4.919936 0.830858 0.000002)
(3.855437 0.387577 0.000002)
(2.055047 0.060425 0.000002)
(-0.004568 -0.309666 0.000002)
(-0.229948 -0.359276 0.000002)
(0.781372 -0.299547 0.000002)
(0.476544 -0.376330 0.000002)
(0.328156 -0.353767 0.000002)
(0.354592 -0.255429 0.000002)
(-0.150681 -0.028433 0.000002)
(-0.053041 0.055689 0.000002)
(0.074534 0.047435 0.000002)
(0.080442 0.032540 0.000002)
(0.057974 0.016433 0.000002)
(0.044401 0.001698 0.000002)
(0.032832 -0.005013 0.000002)
(0.019294 -0.004624 0.000002)
(0.008986 -0.002568 0.000002)
(0.002996 -0.000660 0.000002)
(0.000312 0.000470 0.000002)
(-0.000725 0.000880 0.000002)
(-0.001243 0.000963 0.000002)
(-0.001641 0.000970 0.000002)
(-0.001933 0.000950 0.000002)
(-0.002100 0.000999 0.000002)
(-0.002102 0.001208 0.000002)
(-0.001903 0.001362 0.000002)
(-0.001660 0.001459 0.000002)
(-0.001426 0.001657 0.000002)
(-0.001144 0.001713 -0.000000)
(-0.000886 0.001332 -0.000002)
(-0.000682 0.000890 -0.000002)
(-0.000503 0.000467 -0.000002)
(-44.121349 0.708656 -0.000002)
(44.121298 -0.754003 -0.000002)
(-0.000120 0.000348 -0.000002)
(0.000248 0.001329 -0.000002)
(0.004152 -0.019175 -0.000002)
(0.003091 -0.013071 -0.000002)
(-0.001056 0.010807 -0.000002)
(-0.000583 0.005378 -0.000006)
(-0.000326 0.002940 -0.000010)
(-0.000239 0.003345 -0.000010)
(-0.000221 0.004381 -0.000010)
(-0.000189 0.004460 -0.000010)
(-0.000163 0.004280 -0.000010)
(-0.000154 0.004083 -0.000010)
(-0.000154 0.003844 -0.000010)
(-0.000145 0.003408 -0.000010)
(-0.000104 0.003161 -0.000010)
(-0.000061 0.002512 -0.000010)
(-0.000052 0.001711 -0.000010)
(-0.000180 0.001811 -0.000010)
)
;
    }
}
