/*--------------------------------*- C++ -*---------------------------------*\ 
| ========                 |                                                 | 
| \      /  F ield         | OpenFOAM: The Open Source CFD Toolbox           | 
|  \    /   O peration     | Version:  v1812                                 | 
|   \  /    A nd           | Web:      www.OpenFOAM.com                      | 
|    \/     M anipulation  |                                                 | 
\*--------------------------------------------------------------------------*/ 
FoamFile
{
    version     2.0;
    format      ascii;
    class       volVectorField;
    location    "/home/james/dafoam/myRuns/bezier_coanda_opt/0.00000000001/";
    object      sens_CMZ_shapey;
}
// * * * * * * * * * * * * * * * * * * * * * * * * * * * * * * * * * * * * * //

dimensions      [0 0 0 0 0 0 0];
internalField   uniform (0 0 0);
boundaryField
{
    allWalls
    {
        type  wall;
        value nonuniform List<vector>
198
(
(0.006934 -0.000517 0.000001)
(0.009445 -0.001580 -0.000000)
(0.012448 -0.003000 -0.000000)
(0.013080 -0.004232 -0.000000)
(0.012240 -0.005231 -0.000001)
(0.012490 -0.007572 -0.000001)
(0.012707 -0.010415 -0.000001)
(0.011327 -0.011965 -0.000001)
(0.012381 -0.016120 -0.000001)
(0.017220 -0.025270 -0.000001)
(0.016621 -0.026968 -0.000002)
(0.011085 -0.021326 -0.000002)
(0.009561 -0.021694 0.000018)
(0.009195 -0.023591 0.000035)
(0.008303 -0.024169 0.000031)
(0.007738 -0.025542 0.000027)
(0.006104 -0.022779 0.000023)
(0.004726 -0.020443 0.000019)
(0.004193 -0.021117 0.000016)
(0.002720 -0.016191 0.000098)
(0.001253 -0.009460 0.000211)
(0.000354 -0.003741 0.000279)
(0.000193 -0.004996 0.000361)
(-0.000221 0.009326 0.000456)
(-0.000231 0.034134 0.000543)
(0.001699 0.045209 0.000545)
(0.004477 0.055843 0.000471)
(0.007777 0.065264 0.000392)
(0.011235 0.072235 0.000315)
(0.014664 0.077378 0.000246)
(0.017925 0.081284 0.000187)
(0.020827 0.083692 0.000094)
(0.023282 0.084818 0.000029)
(0.025173 0.084572 0.000029)
(0.026412 0.082926 0.000029)
(0.026884 0.079712 0.000029)
(0.026575 0.075018 0.000029)
(0.025475 0.068925 0.000004)
(0.023648 0.061634 -0.000020)
(0.021259 0.053571 -0.000019)
(0.018380 0.044907 -0.000017)
(0.015308 0.036373 -0.000015)
(0.012447 0.028909 -0.000014)
(0.009644 0.022047 -0.000013)
(0.006355 0.013987 -0.000012)
(0.003889 0.008506 -0.000011)
(0.002110 0.004999 -0.000010)
(-0.000057 0.000422 -0.000009)
(0.000095 0.001583 -0.000008)
(-0.000732 -0.004694 -0.000009)
(0.000652 -0.003485 -0.000014)
(0.000182 -0.000088 -0.000010)
(0.000179 -0.000638 -0.000009)
(0.000286 -0.001243 -0.000008)
(0.000120 -0.000769 -0.000008)
(-0.000214 -0.000031 -0.000007)
(-0.000738 0.001061 -0.000006)
(-0.001442 0.002584 -0.000005)
(-0.002303 0.004646 -0.000004)
(-0.003244 0.007112 -0.000002)
(-0.004734 0.011396 -0.000001)
(-0.005595 0.014234 0.000001)
(-0.003270 0.010746 0.000015)
(-0.001118 0.007386 0.000029)
(-0.002466 0.009708 0.000029)
(-0.004704 0.014536 0.000029)
(-0.006566 0.020776 0.000029)
(-0.008108 0.028062 0.000029)
(-0.008782 0.033987 0.000008)
(-0.008564 0.037765 -0.000012)
(-0.007717 0.039845 -0.000011)
(-0.006430 0.040528 -0.000010)
(-0.004781 0.039387 -0.000007)
(-0.002898 0.035347 -0.000001)
(-0.001160 0.031081 0.000010)
(-0.000072 0.020555 0.000016)
(0.000206 0.006974 0.000017)
(0.000006 0.000572 0.000018)
(-0.000770 -0.006003 0.000018)
(-0.001575 -0.010861 0.000016)
(-0.002246 -0.012865 0.000012)
(-0.002998 -0.014812 0.000039)
(-0.003908 -0.016612 0.000067)
(-0.004629 -0.017333 0.000066)
(-0.004920 -0.016082 0.000066)
(-0.006072 -0.017269 0.000065)
(-0.007320 -0.018316 0.000065)
(-0.007808 -0.017110 0.000033)
(-0.008107 -0.015489 0.000001)
(-0.008963 -0.015097 0.000001)
(-0.009105 -0.014050 0.000001)
(-0.009403 -0.012816 0.000001)
(-0.009755 -0.011618 0.000001)
(-0.007894 -0.007887 0.000001)
(-0.004920 -0.003777 0.000001)
(-0.002032 -0.000368 0.000001)
(-0.000629 0.001409 0.000001)
(0.000399 0.000936 0.000002)
(0.002878 0.000232 0.000002)
(0.005558 0.000068 0.000002)
(-0.001189 -0.006465 -0.000014)
(0.000341 0.005038 -0.000018)
(0.000325 0.011209 -0.000018)
(0.000455 0.018299 -0.000018)
(0.000817 0.027953 -0.000018)
(0.001199 0.036063 -0.000018)
(0.001501 0.044657 -0.000018)
(0.001927 0.058888 -0.000018)
(0.002633 0.082240 -0.000018)
(0.003377 0.108517 -0.000018)
(0.003697 0.117819 -0.000018)
(0.005351 0.164312 -0.000018)
(0.019272 0.486415 -0.000012)
(0.025671 0.967309 -0.000005)
(-3.185777 -2.079105 -0.000005)
(-16.138750 -34.963467 -0.000005)
(-2.550048 -1.461808 -0.000005)
(0.095335 -0.556362 -0.000005)
(-1.916624 -2.158323 -0.000005)
(19.099123 30.879568 -0.000005)
(0.394752 13.484266 -0.000005)
(0.687612 5.304311 -0.000005)
(0.381630 2.518849 -0.000005)
(0.151107 0.854802 -0.000002)
(0.091251 0.440809 0.000002)
(0.077138 0.299706 0.000002)
(-0.110670 -0.258523 0.000002)
(-0.207150 -0.525272 0.000002)
(-0.240331 -0.521216 0.000002)
(-0.162609 -0.332752 0.000002)
(-0.076120 -0.118430 0.000002)
(0.053074 0.066476 0.000002)
(0.652606 0.889990 0.000002)
(1.311575 1.457296 0.000002)
(2.862372 2.772693 0.000002)
(3.567698 3.251570 0.000002)
(4.345406 3.399894 0.000002)
(5.092122 3.802195 0.000002)
(10.244860 6.334852 0.000002)
(6.052273 3.639270 0.000002)
(-12.393238 -6.153327 0.000002)
(-23.890407 -10.697291 0.000002)
(-19.391697 -7.293723 0.000002)
(-8.854295 -2.180217 0.000002)
(2.050725 0.493624 0.000002)
(6.531544 1.045276 0.000002)
(4.693155 0.346570 0.000002)
(5.679722 0.332043 0.000002)
(4.560403 -0.059449 0.000002)
(2.790154 -0.190974 0.000002)
(0.492626 -0.292046 0.000002)
(-0.289663 -0.334464 0.000002)
(0.580197 -0.362349 0.000002)
(0.727174 -0.422318 0.000002)
(0.658753 -0.380417 0.000002)
(0.428045 -0.176529 0.000002)
(-0.107310 0.068983 0.000002)
(0.038313 0.094075 0.000002)
(0.151313 0.054007 0.000002)
(0.148401 0.019414 0.000002)
(0.112791 -0.000868 0.000002)
(0.081689 -0.009779 0.000002)
(0.070689 -0.023188 0.000002)
(0.060115 -0.030737 0.000002)
(0.040101 -0.024455 0.000002)
(0.017818 -0.009613 0.000002)
(0.002375 0.002559 0.000002)
(-0.002469 0.005372 0.000002)
(-0.005073 0.007441 0.000002)
(-0.006410 0.009273 0.000002)
(-0.006211 0.009592 0.000002)
(-0.005261 0.008874 0.000002)
(-0.004134 0.007580 0.000002)
(-0.003026 0.005995 -0.000002)
(-0.002041 0.004315 -0.000005)
(-0.001326 0.002636 -0.000005)
(-0.000879 0.001239 -0.000005)
(-0.000771 0.000541 -0.000005)
(-44.119631 0.708875 -0.000005)
(44.119362 -0.753951 -0.000005)
(-0.000019 -0.000096 -0.000005)
(-0.000350 -0.000571 -0.000005)
(-0.007177 0.023967 -0.000005)
(-0.007532 0.032502 -0.000005)
(-0.001330 0.012988 -0.000005)
(-0.001372 0.008577 -0.000012)
(-0.001067 0.006019 -0.000018)
(-0.000649 0.004156 -0.000018)
(-0.000409 0.002992 -0.000018)
(-0.000245 0.002073 -0.000018)
(-0.000144 0.001547 -0.000018)
(-0.000079 0.000786 -0.000018)
(-0.000044 0.000066 -0.000018)
(-0.000007 -0.000360 -0.000018)
(0.000033 -0.000850 -0.000018)
(0.000046 -0.000617 -0.000018)
(0.000096 -0.000303 -0.000018)
(0.000557 -0.003528 -0.000018)
)
;
    }
}
