/*--------------------------------*- C++ -*---------------------------------*\ 
| ========                 |                                                 | 
| \      /  F ield         | OpenFOAM: The Open Source CFD Toolbox           | 
|  \    /   O peration     | Version:  v1812                                 | 
|   \  /    A nd           | Web:      www.OpenFOAM.com                      | 
|    \/     M anipulation  |                                                 | 
\*--------------------------------------------------------------------------*/ 
FoamFile
{
    version     2.0;
    format      ascii;
    class       volVectorField;
    location    "/home/james/dafoam/myRuns/bezier_coanda_opt/0.00000000001/";
    object      sens_CMZ_shapey;
}
// * * * * * * * * * * * * * * * * * * * * * * * * * * * * * * * * * * * * * //

dimensions      [0 0 0 0 0 0 0];
internalField   uniform (0 0 0);
boundaryField
{
    allWalls
    {
        type  wall;
        value nonuniform List<vector>
198
(
(0.007358 -0.000654 0.000002)
(0.010029 -0.001774 0.000001)
(0.013185 -0.003211 0.000001)
(0.013437 -0.004268 0.000001)
(0.011829 -0.004823 0.000000)
(0.011603 -0.006813 0.000000)
(0.011764 -0.009518 0.000000)
(0.010443 -0.011038 -0.000000)
(0.011718 -0.015324 -0.000000)
(0.017294 -0.025410 -0.000001)
(0.017101 -0.027660 -0.000001)
(0.011170 -0.021417 -0.000001)
(0.009460 -0.021467 0.000020)
(0.009137 -0.023495 0.000038)
(0.008331 -0.024283 0.000034)
(0.007810 -0.025825 0.000030)
(0.006138 -0.022949 0.000026)
(0.004654 -0.020182 0.000023)
(0.004190 -0.021272 0.000020)
(0.002667 -0.015975 0.000104)
(0.001121 -0.008692 0.000221)
(0.000297 -0.003246 0.000289)
(0.000202 -0.005406 0.000372)
(-0.000200 0.009496 0.000468)
(-0.000240 0.035431 0.000555)
(0.001752 0.046226 0.000554)
(0.004581 0.057137 0.000476)
(0.007951 0.066825 0.000394)
(0.011490 0.074072 0.000315)
(0.014997 0.079368 0.000245)
(0.018339 0.083428 0.000184)
(0.021310 0.085926 0.000091)
(0.023830 0.087126 0.000026)
(0.025772 0.086908 0.000026)
(0.027033 0.085197 0.000026)
(0.027498 0.081844 0.000026)
(0.027158 0.076956 0.000026)
(0.026000 0.070607 0.000001)
(0.024100 0.063035 -0.000022)
(0.021626 0.054679 -0.000020)
(0.018637 0.045679 -0.000019)
(0.015465 0.036876 -0.000017)
(0.012580 0.029378 -0.000016)
(0.009772 0.022538 -0.000014)
(0.006348 0.014153 -0.000013)
(0.003747 0.008437 -0.000012)
(0.001920 0.004916 -0.000011)
(-0.000217 0.000415 -0.000010)
(0.000159 0.002012 -0.000009)
(-0.000930 -0.005689 -0.000010)
(0.000539 -0.003024 -0.000015)
(0.000225 -0.000348 -0.000011)
(0.000198 -0.000789 -0.000010)
(0.000234 -0.001187 -0.000009)
(0.000056 -0.000698 -0.000009)
(-0.000278 0.000031 -0.000008)
(-0.000761 0.001024 -0.000007)
(-0.001436 0.002516 -0.000006)
(-0.002134 0.004264 -0.000004)
(-0.003183 0.007242 -0.000003)
(-0.004015 0.009947 -0.000002)
(-0.004924 0.013396 -0.000000)
(-0.003355 0.011964 0.000013)
(-0.000964 0.005855 0.000026)
(-0.002895 0.009403 0.000026)
(-0.006059 0.018896 0.000026)
(-0.007900 0.026034 0.000026)
(-0.008802 0.031638 0.000026)
(-0.009075 0.036323 0.000006)
(-0.008679 0.039474 -0.000014)
(-0.007727 0.041105 -0.000013)
(-0.006326 0.040916 -0.000012)
(-0.004655 0.039402 -0.000009)
(-0.002835 0.035522 -0.000002)
(-0.001127 0.031099 0.000009)
(-0.000073 0.020359 0.000014)
(0.000188 0.006588 0.000013)
(0.000020 0.000592 0.000015)
(-0.000711 -0.005761 0.000015)
(-0.001519 -0.010808 0.000013)
(-0.002178 -0.012799 0.000010)
(-0.002928 -0.014815 0.000039)
(-0.003801 -0.016562 0.000069)
(-0.004470 -0.017145 0.000068)
(-0.004881 -0.016331 0.000067)
(-0.005975 -0.017439 0.000067)
(-0.007067 -0.018081 0.000067)
(-0.007696 -0.017254 0.000034)
(-0.008075 -0.015827 0.000002)
(-0.008724 -0.015022 0.000002)
(-0.008973 -0.014016 0.000002)
(-0.009438 -0.012978 0.000002)
(-0.009912 -0.011838 0.000002)
(-0.008287 -0.008308 0.000002)
(-0.005326 -0.004173 0.000002)
(-0.002416 -0.000782 0.000002)
(-0.000827 0.001040 0.000002)
(0.000462 0.000680 0.000003)
(0.003179 0.000051 0.000003)
(0.006033 -0.000067 0.000003)
(-0.001436 -0.007830 -0.000015)
(0.000484 0.005395 -0.000019)
(0.000449 0.012076 -0.000019)
(0.000530 0.018768 -0.000019)
(0.000860 0.028207 -0.000019)
(0.001228 0.036781 -0.000019)
(0.001515 0.045674 -0.000019)
(0.001927 0.060560 -0.000019)
(0.002617 0.084576 -0.000019)
(0.003331 0.111672 -0.000019)
(0.003639 0.124668 -0.000019)
(0.005151 0.177986 -0.000019)
(0.018622 0.496793 -0.000012)
(0.020628 0.946399 -0.000006)
(-3.219374 -2.126389 -0.000006)
(-14.776322 -35.201176 -0.000006)
(-2.488180 -1.562872 -0.000006)
(0.175597 -0.632265 -0.000006)
(-1.817874 -2.144909 -0.000006)
(17.743025 31.002027 -0.000006)
(0.454593 14.085987 -0.000006)
(0.748166 5.502422 -0.000006)
(0.414621 2.630476 -0.000006)
(0.155523 0.875863 -0.000006)
(0.085323 0.424782 -0.000002)
(0.066147 0.272714 0.000002)
(-0.151472 -0.361333 0.000002)
(-0.204582 -0.498076 0.000002)
(-0.140237 -0.305654 0.000002)
(-0.084304 -0.216587 0.000002)
(-0.070120 -0.125611 0.000002)
(0.148894 0.187402 0.000002)
(0.812944 0.996381 0.000002)
(1.788922 1.962292 0.000002)
(2.283960 2.322624 0.000002)
(3.496185 3.128963 0.000002)
(4.985501 4.056438 0.000002)
(4.387892 3.283539 0.000002)
(10.995116 6.708939 0.000002)
(7.192060 4.315848 0.000002)
(-14.032708 -6.931165 0.000002)
(-27.082669 -12.088766 0.000002)
(-21.068904 -7.893124 0.000002)
(-8.367494 -1.869693 0.000002)
(3.537303 1.023006 0.000002)
(7.504112 1.314117 0.000002)
(5.136218 0.398636 0.000002)
(6.168736 0.375645 0.000002)
(4.745413 -0.068105 0.000002)
(2.840098 -0.210020 0.000002)
(0.459468 -0.310787 0.000002)
(-0.262569 -0.348608 0.000002)
(0.661179 -0.381086 0.000002)
(0.752990 -0.439087 0.000002)
(0.678357 -0.378998 0.000002)
(0.458008 -0.175957 0.000002)
(-0.121088 0.079394 0.000002)
(0.029655 0.102405 0.000002)
(0.151058 0.058034 0.000002)
(0.146994 0.023920 0.000002)
(0.113449 0.000871 0.000002)
(0.080469 -0.006838 0.000002)
(0.066435 -0.018169 0.000002)
(0.062251 -0.031172 0.000002)
(0.037153 -0.019396 0.000002)
(0.012995 -0.003021 0.000002)
(0.002619 0.002909 0.000002)
(-0.002278 0.005482 0.000002)
(-0.005386 0.008030 0.000002)
(-0.006489 0.009312 0.000002)
(-0.006196 0.009274 0.000002)
(-0.005298 0.008437 0.000002)
(-0.004238 0.007098 0.000002)
(-0.003186 0.005553 0.000002)
(-0.002227 0.003962 -0.000002)
(-0.001521 0.002380 -0.000006)
(-0.001078 0.001074 -0.000006)
(-0.000948 0.000440 -0.000006)
(-44.120285 0.708812 -0.000006)
(44.119858 -0.753965 -0.000006)
(-0.000063 -0.000087 -0.000006)
(-0.000408 -0.000497 -0.000006)
(-0.007091 0.021212 -0.000006)
(-0.007664 0.028476 -0.000006)
(-0.001666 0.011038 -0.000006)
(-0.001486 0.007427 -0.000012)
(-0.001136 0.005374 -0.000019)
(-0.000699 0.003829 -0.000019)
(-0.000449 0.002867 -0.000019)
(-0.000281 0.002076 -0.000019)
(-0.000166 0.001394 -0.000019)
(-0.000103 0.000803 -0.000019)
(-0.000068 0.000320 -0.000019)
(-0.000013 -0.000466 -0.000019)
(0.000023 -0.000961 -0.000019)
(0.000036 -0.000749 -0.000019)
(0.000087 -0.000624 -0.000019)
(0.000436 -0.003137 -0.000019)
)
;
    }
}
