/*--------------------------------*- C++ -*---------------------------------*\ 
| ========                 |                                                 | 
| \      /  F ield         | OpenFOAM: The Open Source CFD Toolbox           | 
|  \    /   O peration     | Version:  v1812                                 | 
|   \  /    A nd           | Web:      www.OpenFOAM.com                      | 
|    \/     M anipulation  |                                                 | 
\*--------------------------------------------------------------------------*/ 
FoamFile
{
    version     2.0;
    format      ascii;
    class       volVectorField;
    location    "/home/james/dafoam/myRuns/bezier_coanda_opt/0.00000000001/";
    object      sens_CMZ_shapey;
}
// * * * * * * * * * * * * * * * * * * * * * * * * * * * * * * * * * * * * * //

dimensions      [0 0 0 0 0 0 0];
internalField   uniform (0 0 0);
boundaryField
{
    allWalls
    {
        type  wall;
        value nonuniform List<vector>
198
(
(0.005925 -0.000814 0.000000)
(0.009407 -0.002283 0.000000)
(0.011980 -0.004302 0.000000)
(0.013046 -0.006544 -0.000000)
(0.013564 -0.009307 -0.000001)
(0.012822 -0.011693 -0.000002)
(0.012373 -0.015397 -0.000002)
(0.014119 -0.021018 -0.000003)
(0.012880 -0.021514 -0.000004)
(0.009740 -0.019633 -0.000005)
(0.008838 -0.021250 -0.000006)
(0.007996 -0.022542 -0.000007)
(0.006493 -0.021207 0.000003)
(0.005306 -0.020261 0.000010)
(0.004748 -0.020910 0.000006)
(0.003918 -0.020049 0.000001)
(0.003150 -0.019066 -0.000003)
(0.002421 -0.017441 -0.000008)
(0.001632 -0.014491 -0.000012)
(0.001058 -0.011980 0.000034)
(0.000565 -0.008659 0.000097)
(0.000134 -0.003203 0.000133)
(-0.000092 0.003348 0.000176)
(0.000060 0.015983 0.000227)
(0.000625 0.026011 0.000276)
(0.001671 0.031520 0.000300)
(0.003176 0.041550 0.000283)
(0.004574 0.047532 0.000241)
(0.005800 0.050456 0.000200)
(0.006937 0.052931 0.000163)
(0.007842 0.053873 0.000130)
(0.008611 0.054418 0.000070)
(0.009220 0.054421 0.000026)
(0.009682 0.054021 0.000026)
(0.009980 0.053120 0.000026)
(0.010138 0.051867 0.000026)
(0.010183 0.050373 0.000026)
(0.010097 0.048544 0.000013)
(0.009876 0.046330 0.000000)
(0.009568 0.043932 0.000000)
(0.009190 0.041413 0.000000)
(0.008712 0.038608 0.000000)
(0.008133 0.035492 0.000000)
(0.007525 0.032371 0.000000)
(0.007038 0.029819 0.000002)
(0.006549 0.027279 0.000004)
(0.005469 0.022062 0.000004)
(0.004900 0.019907 0.000004)
(0.004931 0.020226 0.000004)
(0.002454 0.006362 0.000004)
(-0.001476 0.007565 -0.000001)
(-0.001312 0.003532 0.000004)
(-0.001821 0.005950 0.000004)
(-0.001962 0.006700 0.000004)
(-0.002233 0.007755 0.000004)
(-0.002307 0.007945 0.000004)
(-0.002880 0.010129 0.000002)
(-0.003631 0.013223 0.000000)
(-0.004221 0.015756 0.000000)
(-0.004766 0.018179 0.000000)
(-0.005362 0.020998 0.000000)
(-0.005926 0.023984 0.000000)
(-0.006383 0.026873 0.000013)
(-0.006707 0.029584 0.000026)
(-0.006881 0.032037 0.000026)
(-0.006889 0.034168 0.000026)
(-0.006727 0.035926 0.000026)
(-0.006393 0.037245 0.000026)
(-0.005892 0.038052 0.000005)
(-0.005239 0.038297 -0.000017)
(-0.004453 0.037852 -0.000021)
(-0.003580 0.036781 -0.000025)
(-0.002629 0.034493 -0.000029)
(-0.001687 0.031602 -0.000031)
(-0.000832 0.027032 -0.000028)
(-0.000205 0.014859 -0.000018)
(0.000127 0.007279 -0.000007)
(0.000087 0.003605 -0.000001)
(-0.000272 -0.004039 0.000004)
(-0.000648 -0.007989 0.000006)
(-0.001033 -0.010394 0.000008)
(-0.001486 -0.012513 0.000023)
(-0.001939 -0.013865 0.000038)
(-0.002334 -0.014298 0.000038)
(-0.002972 -0.015566 0.000038)
(-0.003908 -0.017641 0.000038)
(-0.004309 -0.016990 0.000039)
(-0.004132 -0.014309 0.000022)
(-0.005296 -0.015653 0.000004)
(-0.006602 -0.017185 0.000004)
(-0.006805 -0.015431 0.000003)
(-0.007851 -0.015238 0.000002)
(-0.008862 -0.014903 0.000002)
(-0.009955 -0.013955 0.000001)
(-0.009675 -0.011265 0.000001)
(-0.007084 -0.006459 0.000001)
(-0.003357 -0.001901 0.000000)
(-0.000106 0.001649 0.000000)
(0.000898 0.001503 -0.000000)
(0.002671 -0.000069 -0.000000)
(0.000275 0.013181 -0.000001)
(0.000181 0.033244 -0.000006)
(0.000342 0.029293 -0.000006)
(0.000939 0.033477 -0.000006)
(0.001419 0.048699 -0.000006)
(0.001809 0.056347 -0.000006)
(0.002184 0.064307 -0.000006)
(0.002729 0.079340 -0.000006)
(0.003605 0.105339 -0.000006)
(0.004507 0.132170 -0.000006)
(0.004632 0.124611 -0.000006)
(0.006830 0.161655 -0.000006)
(0.024973 0.564387 -0.000004)
(0.044721 1.163149 -0.000001)
(-2.449534 -2.032151 -0.000001)
(-20.352414 -30.465657 -0.000001)
(-2.258420 -1.242372 -0.000001)
(-0.413459 -0.479861 -0.000001)
(-1.879902 -2.345133 -0.000001)
(23.171554 26.818492 -0.000001)
(0.333779 11.391996 -0.000001)
(0.516214 4.590341 -0.000001)
(0.293089 2.077122 -0.000001)
(0.159672 0.775500 0.000000)
(0.054770 0.243604 0.000001)
(0.034663 0.098494 0.000001)
(-0.099039 -0.192649 0.000001)
(-0.132748 -0.251696 0.000001)
(0.064520 0.131890 0.000001)
(0.179786 0.245709 0.000001)
(0.923908 1.304423 0.000001)
(2.325302 3.083848 0.000001)
(2.205702 2.801342 0.000001)
(4.029498 4.460252 0.000001)
(7.329605 7.318499 0.000001)
(6.746982 5.682826 0.000001)
(-0.668697 -1.305124 0.000001)
(-14.948367 -11.015758 0.000001)
(-17.601734 -10.874156 0.000001)
(-10.674705 -5.095311 0.000001)
(-4.892120 -1.747299 0.000001)
(4.010739 1.668408 0.000001)
(5.579440 1.661263 0.000001)
(3.713973 0.803903 0.000001)
(4.483981 0.981402 0.000001)
(3.380997 0.457839 0.000001)
(1.345484 -0.019024 0.000001)
(-0.336324 -0.395447 0.000001)
(-0.137482 -0.303506 0.000001)
(0.756777 -0.217032 0.000001)
(0.411088 -0.331265 0.000001)
(0.290817 -0.303237 0.000001)
(0.404286 -0.241652 0.000001)
(-0.115559 -0.053102 0.000001)
(-0.057824 0.030546 0.000001)
(0.044553 0.039035 0.000001)
(0.041734 0.036032 0.000001)
(0.033327 0.024389 0.000001)
(0.030368 0.013204 0.000001)
(0.015107 0.009568 0.000001)
(-0.000590 0.008426 0.000001)
(-0.007800 0.007826 0.000001)
(-0.010801 0.008825 0.000001)
(-0.011264 0.009984 0.000001)
(-0.009973 0.009726 0.000001)
(-0.007560 0.007639 0.000001)
(-0.003954 0.003166 0.000001)
(0.000125 -0.002397 0.000001)
(0.001674 -0.004086 0.000001)
(0.000588 -0.001530 0.000001)
(-0.001121 0.002567 0.000001)
(-0.002537 0.006214 0.000001)
(-0.001995 0.004176 0.000001)
(-0.000040 -0.002488 0.000000)
(0.001451 -0.008656 -0.000001)
(0.002612 -0.014942 -0.000001)
(0.002787 -0.015702 -0.000001)
(0.001378 -0.009867 -0.000001)
(-44.115836 0.705081 -0.000001)
(44.117299 -0.754251 -0.000001)
(0.001175 -0.000733 -0.000001)
(0.001236 0.005528 -0.000001)
(0.029158 -0.140363 -0.000001)
(0.026036 -0.094167 -0.000001)
(-0.004038 0.078559 -0.000001)
(-0.001785 0.037057 -0.000004)
(-0.000595 0.013015 -0.000006)
(-0.000236 0.005184 -0.000006)
(-0.000381 0.008885 -0.000006)
(-0.000388 0.011070 -0.000006)
(-0.000311 0.009091 -0.000006)
(-0.000283 0.008354 -0.000006)
(-0.000273 0.008063 -0.000006)
(-0.000264 0.007903 -0.000006)
(-0.000211 0.006912 -0.000006)
(-0.000018 0.005418 -0.000006)
(0.000012 0.005253 -0.000006)
(-0.001229 0.009938 -0.000006)
)
;
    }
}
