/*--------------------------------*- C++ -*---------------------------------*\ 
| ========                 |                                                 | 
| \      /  F ield         | OpenFOAM: The Open Source CFD Toolbox           | 
|  \    /   O peration     | Version:  v1812                                 | 
|   \  /    A nd           | Web:      www.OpenFOAM.com                      | 
|    \/     M anipulation  |                                                 | 
\*--------------------------------------------------------------------------*/ 
FoamFile
{
    version     2.0;
    format      ascii;
    class       volVectorField;
    location    "/home/james/dafoam/myRuns/bezier_coanda_opt/0.00000000001/";
    object      sens_CMZ_shapey;
}
// * * * * * * * * * * * * * * * * * * * * * * * * * * * * * * * * * * * * * //

dimensions      [0 0 0 0 0 0 0];
internalField   uniform (0 0 0);
boundaryField
{
    allWalls
    {
        type  wall;
        value nonuniform List<vector>
198
(
(0.007302 -0.001316 0.000001)
(0.010869 -0.002964 0.000001)
(0.013294 -0.005169 0.000000)
(0.013078 -0.006979 -0.000000)
(0.012632 -0.009416 -0.000001)
(0.011090 -0.011015 -0.000001)
(0.010961 -0.015455 -0.000002)
(0.013266 -0.021355 -0.000003)
(0.012078 -0.021659 -0.000004)
(0.009090 -0.020020 -0.000005)
(0.007930 -0.021152 -0.000006)
(0.007026 -0.021845 -0.000007)
(0.005645 -0.020649 0.000002)
(0.004765 -0.020387 0.000010)
(0.004047 -0.020261 0.000006)
(0.003287 -0.019470 0.000002)
(0.002550 -0.018112 -0.000002)
(0.001855 -0.016008 -0.000006)
(0.001254 -0.013663 -0.000010)
(0.000785 -0.011276 0.000031)
(0.000358 -0.007458 0.000088)
(0.000060 -0.002389 0.000118)
(-0.000043 0.003667 0.000156)
(0.000200 0.015777 0.000200)
(0.000781 0.025487 0.000242)
(0.001819 0.033074 0.000268)
(0.002899 0.040075 0.000256)
(0.003844 0.043095 0.000218)
(0.004936 0.047858 0.000180)
(0.005764 0.049970 0.000146)
(0.006438 0.050967 0.000116)
(0.007012 0.051684 0.000063)
(0.007430 0.051609 0.000024)
(0.007768 0.051393 0.000024)
(0.007973 0.050636 0.000024)
(0.008084 0.049613 0.000024)
(0.008117 0.048380 0.000024)
(0.008080 0.046984 0.000012)
(0.007953 0.045268 0.000001)
(0.007748 0.043290 0.000001)
(0.007492 0.041182 0.000001)
(0.007175 0.038883 0.000001)
(0.006808 0.036416 0.000001)
(0.006431 0.033993 0.000001)
(0.006023 0.031404 0.000003)
(0.005454 0.027961 0.000005)
(0.004968 0.024940 0.000005)
(0.005045 0.025751 0.000005)
(0.004903 0.025165 0.000005)
(0.001824 0.004808 0.000005)
(-0.002426 0.012339 -0.000000)
(-0.000238 -0.000608 0.000005)
(-0.001690 0.005950 0.000005)
(-0.002417 0.009611 0.000005)
(-0.002500 0.010155 0.000005)
(-0.002859 0.011646 0.000005)
(-0.003528 0.014760 0.000003)
(-0.004026 0.017337 0.000001)
(-0.004410 0.019444 0.000001)
(-0.004818 0.021773 0.000001)
(-0.005238 0.024381 0.000001)
(-0.005592 0.026944 0.000001)
(-0.005847 0.029324 0.000012)
(-0.006000 0.031503 0.000024)
(-0.006040 0.033439 0.000024)
(-0.005961 0.035074 0.000024)
(-0.005761 0.036372 0.000024)
(-0.005442 0.037298 0.000024)
(-0.005005 0.037777 0.000006)
(-0.004465 0.037788 -0.000014)
(-0.003823 0.037121 -0.000017)
(-0.003129 0.036035 -0.000020)
(-0.002351 0.033461 -0.000022)
(-0.001644 0.032084 -0.000023)
(-0.000893 0.025157 -0.000020)
(-0.000226 0.014270 -0.000013)
(0.000042 0.009380 -0.000006)
(0.000039 0.003474 -0.000000)
(-0.000194 -0.003688 0.000004)
(-0.000480 -0.007615 0.000006)
(-0.000787 -0.009751 0.000008)
(-0.001191 -0.011978 0.000020)
(-0.001601 -0.013493 0.000033)
(-0.001946 -0.013960 0.000033)
(-0.002414 -0.014683 0.000034)
(-0.003123 -0.016116 0.000034)
(-0.003855 -0.017091 0.000034)
(-0.004291 -0.016470 0.000020)
(-0.004446 -0.014864 0.000005)
(-0.005430 -0.015559 0.000004)
(-0.006776 -0.016840 0.000004)
(-0.007223 -0.015473 0.000003)
(-0.008332 -0.014958 0.000002)
(-0.009518 -0.014375 0.000002)
(-0.009731 -0.011909 0.000002)
(-0.008140 -0.007964 0.000001)
(-0.004393 -0.003135 0.000001)
(-0.001036 0.000643 0.000001)
(0.000799 0.001081 0.000000)
(0.003528 -0.000453 0.000000)
(0.000237 0.014418 -0.000000)
(0.000954 0.041854 -0.000005)
(0.000705 0.035020 -0.000005)
(0.001102 0.037115 -0.000005)
(0.001615 0.052950 -0.000005)
(0.002043 0.061697 -0.000005)
(0.002409 0.068978 -0.000005)
(0.002969 0.084236 -0.000005)
(0.003895 0.111712 -0.000005)
(0.004815 0.138687 -0.000005)
(0.004964 0.132099 -0.000005)
(0.007211 0.172962 -0.000005)
(0.025163 0.574169 -0.000003)
(0.045197 1.159146 -0.000001)
(-2.363509 -1.794690 -0.000001)
(-20.664153 -30.129247 -0.000001)
(-2.307377 -1.219254 -0.000001)
(-0.467033 -0.489633 -0.000001)
(-1.849723 -2.106951 -0.000001)
(23.485662 26.413897 -0.000001)
(0.296333 11.008431 -0.000001)
(0.528414 4.694751 -0.000001)
(0.252820 1.985452 -0.000001)
(0.134698 0.660493 -0.000001)
(0.072361 0.347020 0.000000)
(0.034107 0.106293 0.000001)
(-0.056689 -0.076723 0.000001)
(-0.099572 -0.192009 0.000001)
(0.134360 0.234463 0.000001)
(0.308187 0.442296 0.000001)
(1.103062 1.567014 0.000001)
(2.295153 3.058901 0.000001)
(1.796680 2.308069 0.000001)
(4.022668 4.446012 0.000001)
(6.975705 7.084603 0.000001)
(6.673474 5.706685 0.000001)
(0.395468 0.273057 0.000001)
(-12.449250 -8.991405 0.000001)
(-19.710911 -13.064749 0.000001)
(-14.485990 -8.426253 0.000001)
(-2.235710 -1.334564 0.000001)
(3.727833 1.167926 0.000001)
(4.304316 1.281402 0.000001)
(5.012824 1.528544 0.000001)
(4.735299 1.281437 0.000001)
(3.293059 0.800365 0.000001)
(0.578094 -0.058612 0.000001)
(-0.372019 -0.395074 0.000001)
(0.469025 -0.208702 0.000001)
(0.825044 -0.245590 0.000001)
(0.820180 -0.287131 0.000001)
(0.436234 -0.128972 0.000001)
(-0.099064 0.007121 0.000001)
(0.021180 0.078877 0.000001)
(0.130513 0.082530 0.000001)
(0.090941 0.074568 0.000001)
(0.049482 0.050642 0.000001)
(0.029847 0.028165 0.000001)
(0.005179 0.017891 0.000001)
(-0.014063 0.014748 0.000001)
(-0.025028 0.017374 0.000001)
(-0.031035 0.023069 0.000001)
(-0.033014 0.028007 0.000001)
(-0.031078 0.029442 0.000001)
(-0.024065 0.024104 0.000001)
(-0.012647 0.012515 0.000001)
(-0.005676 0.005455 0.000001)
(-0.004439 0.004670 0.000001)
(-0.002688 0.002388 0.000001)
(-0.000120 -0.001712 0.000001)
(0.002019 -0.005782 0.000001)
(0.003416 -0.009183 0.000001)
(0.003854 -0.010132 0.000001)
(0.002766 -0.005290 0.000001)
(0.001272 -0.001098 0.000000)
(0.003501 -0.016035 -0.000001)
(0.006087 -0.028647 -0.000001)
(0.003983 -0.020174 -0.000001)
(-44.110221 0.701235 -0.000001)
(44.113140 -0.755606 -0.000001)
(0.002846 -0.003900 -0.000001)
(0.006577 0.004974 -0.000001)
(0.061534 -0.303430 -0.000001)
(0.053107 -0.204009 -0.000001)
(-0.006729 0.158725 -0.000001)
(-0.002878 0.070144 -0.000003)
(-0.000991 0.023995 -0.000005)
(-0.000360 0.011142 -0.000005)
(-0.000556 0.015982 -0.000005)
(-0.000602 0.020003 -0.000005)
(-0.000468 0.016008 -0.000005)
(-0.000419 0.014025 -0.000005)
(-0.000387 0.012420 -0.000005)
(-0.000454 0.012437 -0.000005)
(-0.000444 0.010622 -0.000005)
(0.000228 0.004893 -0.000005)
(0.000808 0.004779 -0.000005)
(-0.002264 0.017188 -0.000005)
)
;
    }
}
