/*--------------------------------*- C++ -*---------------------------------*\ 
| ========                 |                                                 | 
| \      /  F ield         | OpenFOAM: The Open Source CFD Toolbox           | 
|  \    /   O peration     | Version:  v1812                                 | 
|   \  /    A nd           | Web:      www.OpenFOAM.com                      | 
|    \/     M anipulation  |                                                 | 
\*--------------------------------------------------------------------------*/ 
FoamFile
{
    version     2.0;
    format      ascii;
    class       volVectorField;
    location    "/home/james/dafoam/myRuns/bezier_coanda_opt/0.00000000001/";
    object      sens_CMZ_shapey;
}
// * * * * * * * * * * * * * * * * * * * * * * * * * * * * * * * * * * * * * //

dimensions      [0 0 0 0 0 0 0];
internalField   uniform (0 0 0);
boundaryField
{
    allWalls
    {
        type  wall;
        value nonuniform List<vector>
198
(
(0.012430 -0.002173 0.000010)
(0.014614 -0.003912 0.000009)
(0.018152 -0.005691 0.000009)
(0.013906 -0.004841 0.000009)
(0.007290 -0.002580 0.000008)
(0.004319 -0.002403 0.000008)
(0.002583 -0.002458 0.000007)
(0.005720 -0.008515 0.000007)
(0.014446 -0.021208 0.000006)
(0.016855 -0.026567 0.000006)
(0.010762 -0.020098 0.000005)
(0.008784 -0.021135 0.000005)
(0.008741 -0.024020 0.000022)
(0.006986 -0.022500 0.000038)
(0.005945 -0.021399 0.000034)
(0.005159 -0.021739 0.000031)
(0.004587 -0.021974 0.000027)
(0.003229 -0.018559 0.000024)
(0.002321 -0.015695 0.000021)
(0.001427 -0.012184 0.000091)
(0.000807 -0.009000 0.000187)
(0.000026 -0.000757 0.000240)
(-0.000462 0.010115 0.000302)
(-0.000318 0.013053 0.000372)
(0.000638 0.027844 0.000432)
(0.002365 0.048798 0.000418)
(0.004450 0.056034 0.000348)
(0.006693 0.062729 0.000282)
(0.008935 0.068018 0.000222)
(0.011006 0.071570 0.000169)
(0.012865 0.073979 0.000124)
(0.014464 0.075376 0.000053)
(0.015763 0.075815 0.000002)
(0.016744 0.075372 0.000002)
(0.017394 0.074088 0.000002)
(0.017738 0.072110 0.000002)
(0.017754 0.069373 0.000002)
(0.017416 0.065773 -0.000009)
(0.016802 0.061611 -0.000019)
(0.016000 0.057179 -0.000018)
(0.014999 0.052394 -0.000017)
(0.013704 0.046914 -0.000016)
(0.012189 0.041014 -0.000016)
(0.010857 0.036141 -0.000015)
(0.010325 0.034223 -0.000014)
(0.009166 0.030419 -0.000014)
(0.004882 0.016526 -0.000013)
(0.005163 0.019840 -0.000012)
(0.010602 0.040262 -0.000012)
(-0.002215 -0.020984 -0.000014)
(-0.000383 0.002010 -0.000016)
(-0.000569 0.001870 -0.000015)
(-0.000877 0.002398 -0.000014)
(-0.001212 0.003458 -0.000013)
(-0.001433 0.004033 -0.000011)
(-0.001723 0.004756 -0.000009)
(-0.002086 0.006045 -0.000008)
(-0.002198 0.006900 -0.000006)
(-0.002424 0.007837 -0.000004)
(-0.003146 0.010150 -0.000001)
(-0.004288 0.014027 0.000001)
(-0.005447 0.018300 0.000004)
(-0.006413 0.022320 0.000004)
(-0.007237 0.026311 0.000002)
(-0.007852 0.030078 0.000002)
(-0.008185 0.033366 0.000002)
(-0.008218 0.036053 0.000002)
(-0.007957 0.038082 0.000002)
(-0.007422 0.039423 -0.000018)
(-0.006639 0.040002 -0.000040)
(-0.005651 0.039787 -0.000045)
(-0.004503 0.038618 -0.000050)
(-0.003258 0.036339 -0.000053)
(-0.001982 0.032290 -0.000053)
(-0.000855 0.028211 -0.000046)
(-0.000130 0.017421 -0.000029)
(0.000098 0.005240 -0.000014)
(0.000018 0.000927 -0.000005)
(-0.000380 -0.004142 -0.000000)
(-0.001000 -0.009507 0.000002)
(-0.001546 -0.012187 0.000002)
(-0.002071 -0.013805 0.000034)
(-0.002659 -0.015205 0.000067)
(-0.003246 -0.016117 0.000066)
(-0.004106 -0.017638 0.000065)
(-0.004733 -0.017836 0.000064)
(-0.004908 -0.016128 0.000064)
(-0.005909 -0.016839 0.000037)
(-0.007060 -0.017716 0.000011)
(-0.007437 -0.016287 0.000010)
(-0.007964 -0.015112 0.000010)
(-0.009084 -0.014932 0.000010)
(-0.009724 -0.013786 0.000010)
(-0.009925 -0.011727 0.000010)
(-0.008737 -0.008527 0.000010)
(-0.006064 -0.004643 0.000010)
(-0.003241 -0.001473 0.000010)
(-0.000516 -0.000387 0.000010)
(0.003171 -0.001359 0.000010)
(0.009710 -0.001710 0.000010)
(-0.005854 -0.022327 -0.000016)
(0.004375 0.048698 -0.000016)
(0.002212 0.044598 -0.000016)
(0.000940 0.034554 -0.000016)
(0.001249 0.046696 -0.000016)
(0.002131 0.069673 -0.000016)
(0.002636 0.079160 -0.000016)
(0.003026 0.093593 -0.000016)
(0.004013 0.129018 -0.000016)
(0.004984 0.165908 -0.000016)
(0.005335 0.184577 -0.000016)
(0.007425 0.267290 -0.000016)
(0.025029 0.690244 -0.000011)
(0.029844 1.231194 -0.000005)
(-3.376163 -1.278380 -0.000005)
(11.120043 -52.373429 -0.000005)
(-2.093676 -1.925685 -0.000005)
(-0.132190 -1.024842 -0.000005)
(-2.127266 -1.396464 -0.000005)
(-7.328791 43.346039 -0.000005)
(0.864066 24.227557 -0.000005)
(1.270593 9.383484 -0.000005)
(0.674081 4.281505 -0.000005)
(0.270440 1.291391 -0.000005)
(0.122154 0.510003 -0.000003)
(0.131293 0.374947 0.000000)
(-0.203971 -0.473525 0.000000)
(-0.306808 -0.696722 0.000000)
(0.102334 0.182454 0.000000)
(0.230217 0.321097 0.000000)
(0.726109 1.043721 0.000000)
(1.841528 2.494342 0.000000)
(3.501957 4.292410 0.000000)
(4.437914 5.020382 0.000000)
(6.749661 6.790454 0.000000)
(6.928537 6.759766 0.000000)
(5.749934 4.684255 0.000000)
(-1.489423 -0.809552 0.000000)
(-29.379344 -17.902031 0.000000)
(-34.630391 -19.193848 0.000000)
(-13.989532 -5.245612 0.000000)
(-4.535664 -0.389448 0.000000)
(11.880566 4.575109 0.000000)
(14.779525 4.589813 0.000000)
(6.718866 1.338211 0.000000)
(7.822840 1.460519 0.000000)
(5.306149 0.526818 0.000000)
(1.827687 -0.268391 0.000000)
(-0.456968 -0.664986 0.000000)
(0.128573 -0.428421 0.000000)
(1.173960 -0.314164 0.000000)
(0.777719 -0.452614 0.000000)
(0.369333 -0.344426 0.000000)
(0.098692 -0.189182 0.000000)
(-0.301944 0.021045 0.000000)
(-0.039435 0.049581 0.000000)
(0.061598 0.058836 0.000000)
(0.054656 0.053540 0.000000)
(0.049281 0.033426 0.000000)
(0.044550 0.015658 0.000000)
(0.034030 0.007353 0.000000)
(0.020436 0.005835 0.000000)
(0.009394 0.006174 0.000000)
(0.003083 0.006363 0.000000)
(0.000353 0.005971 0.000000)
(-0.000917 0.005301 0.000000)
(-0.001757 0.004563 0.000000)
(-0.002286 0.003719 0.000000)
(-0.002475 0.002939 0.000000)
(-0.002372 0.002476 0.000000)
(-0.002054 0.002191 0.000000)
(-0.001748 0.002005 0.000000)
(-0.001597 0.002035 0.000000)
(-0.001413 0.002157 0.000000)
(-0.001078 0.001966 -0.000002)
(-0.000820 0.001554 -0.000005)
(-0.000616 0.001142 -0.000005)
(-0.000401 0.000557 -0.000005)
(-44.120718 0.708773 -0.000005)
(44.120802 -0.753923 -0.000005)
(-0.000120 0.000645 -0.000005)
(0.000390 0.002263 -0.000005)
(0.006098 -0.026080 -0.000005)
(0.004730 -0.018118 -0.000005)
(-0.001208 0.013349 -0.000005)
(-0.000688 0.005264 -0.000011)
(-0.000398 0.002186 -0.000016)
(-0.000258 0.002252 -0.000016)
(-0.000247 0.003708 -0.000016)
(-0.000214 0.004032 -0.000016)
(-0.000179 0.003858 -0.000016)
(-0.000171 0.003664 -0.000016)
(-0.000174 0.003463 -0.000016)
(-0.000159 0.003153 -0.000016)
(-0.000117 0.002883 -0.000016)
(-0.000069 0.002098 -0.000016)
(-0.000058 0.001280 -0.000016)
(-0.000208 0.001677 -0.000016)
)
;
    }
}
