/*--------------------------------*- C++ -*----------------------------------*\
  =========                 |
  \\      /  F ield         | OpenFOAM: The Open Source CFD Toolbox
   \\    /   O peration     | Website:  https://openfoam.org
    \\  /    A nd           | Version:  8
     \\/     M anipulation  |
\*---------------------------------------------------------------------------*/
FoamFile
{
    version     2.0;
    format      ascii;
    class       volScalarField;
    location    "0.2";
    object      nuTilda;
}
// * * * * * * * * * * * * * * * * * * * * * * * * * * * * * * * * * * * * * //

dimensions      [0 2 -1 0 0 0 0];

internalField   nonuniform List<scalar> 
277560
(
0.00980656
0.00980606
0.00980496
0.00980344
0.00980163
0.00979965
0.00979761
0.00979561
0.00979372
0.00979201
0.00979053
0.00978932
0.00978842
0.00978783
0.00978758
0.00978766
0.00978807
0.00978882
0.00978988
0.00979125
0.00979291
0.00979486
0.00979706
0.00979951
0.00980218
0.00980506
0.00980813
0.00981138
0.00981477
0.00981831
0.00982196
0.00982572
0.00982956
0.00983348
0.00983745
0.00984147
0.00984551
0.00984957
0.00985363
0.00985768
0.00986171
0.0098657
0.00986965
0.00987354
0.00987737
0.00988113
0.00988481
0.0098884
0.0098919
0.00989531
0.00989862
0.00990184
0.00990495
0.00990796
0.00991086
0.00991367
0.00991638
0.00991898
0.00992149
0.00992391
0.00992623
0.00992847
0.00993062
0.00993269
0.00993467
0.00993658
0.00993841
0.00994018
0.00994187
0.0099435
0.00994507
0.00994657
0.00994802
0.00994942
0.00995076
0.00995206
0.0099533
0.0099545
0.00995566
0.00995678
0.00995785
0.00995889
0.00995989
0.00996085
0.00996178
0.00996267
0.00996353
0.00996435
0.00996514
0.00996589
0.0099666
0.00996728
0.00996792
0.00996852
0.00996907
0.00996959
0.00997006
0.00997048
0.00997085
0.00997117
0.00997144
0.00997164
0.00997179
0.00997187
0.00997188
0.00997182
0.00997168
0.00997147
0.00997117
0.00997079
0.00997032
0.00996975
0.00996908
0.00996831
0.00996744
0.00996645
0.00996535
0.00996413
0.00996278
0.00996131
0.00980875
0.00980817
0.009807
0.00980541
0.00980352
0.00980145
0.0097993
0.00979718
0.00979516
0.00979331
0.0097917
0.00979037
0.00978935
0.00978865
0.0097883
0.00978828
0.0097886
0.00978926
0.00979024
0.00979154
0.00979313
0.00979501
0.00979715
0.00979954
0.00980217
0.009805
0.00980803
0.00981124
0.0098146
0.00981811
0.00982174
0.00982548
0.00982932
0.00983323
0.0098372
0.00984122
0.00984527
0.00984934
0.00985341
0.00985748
0.00986154
0.00986556
0.00986954
0.00987346
0.00987733
0.00988113
0.00988485
0.00988848
0.00989203
0.00989548
0.00989884
0.00990209
0.00990524
0.00990829
0.00991123
0.00991407
0.00991681
0.00991944
0.00992198
0.00992441
0.00992676
0.009929
0.00993116
0.00993324
0.00993523
0.00993713
0.00993896
0.00994072
0.0099424
0.00994402
0.00994557
0.00994706
0.00994849
0.00994986
0.00995118
0.00995244
0.00995366
0.00995483
0.00995595
0.00995703
0.00995808
0.00995908
0.00996004
0.00996097
0.00996186
0.00996272
0.00996355
0.00996434
0.0099651
0.00996582
0.00996651
0.00996716
0.00996778
0.00996835
0.00996889
0.00996939
0.00996984
0.00997024
0.0099706
0.00997091
0.00997116
0.00997135
0.00997148
0.00997155
0.00997155
0.00997148
0.00997134
0.00997112
0.00997081
0.00997042
0.00996994
0.00996936
0.00996868
0.0099679
0.00996702
0.00996602
0.00996491
0.00996368
0.00996233
0.00996085
0.00981104
0.00981058
0.00980943
0.00980781
0.00980584
0.00980367
0.0098014
0.00979914
0.00979698
0.00979497
0.00979319
0.00979167
0.00979046
0.00978957
0.00978903
0.00978883
0.00978898
0.00978948
0.00979031
0.00979147
0.00979293
0.00979469
0.00979673
0.00979902
0.00980156
0.00980431
0.00980728
0.00981042
0.00981374
0.00981721
0.00982082
0.00982454
0.00982837
0.00983228
0.00983626
0.00984029
0.00984437
0.00984848
0.00985261
0.00985673
0.00986085
0.00986494
0.009869
0.00987301
0.00987696
0.00988085
0.00988466
0.00988839
0.00989203
0.00989557
0.00989901
0.00990235
0.00990558
0.00990871
0.00991172
0.00991462
0.00991742
0.00992011
0.00992269
0.00992516
0.00992754
0.00992981
0.00993199
0.00993408
0.00993607
0.00993798
0.0099398
0.00994154
0.0099432
0.00994479
0.00994631
0.00994776
0.00994914
0.00995046
0.00995172
0.00995293
0.00995408
0.00995519
0.00995624
0.00995726
0.00995823
0.00995916
0.00996005
0.00996091
0.00996173
0.00996252
0.00996329
0.00996402
0.00996472
0.00996539
0.00996602
0.00996663
0.0099672
0.00996774
0.00996824
0.00996871
0.00996913
0.00996951
0.00996984
0.00997012
0.00997036
0.00997053
0.00997065
0.0099707
0.00997069
0.00997061
0.00997046
0.00997022
0.00996991
0.00996951
0.00996902
0.00996844
0.00996776
0.00996698
0.00996609
0.0099651
0.00996399
0.00996276
0.00996141
0.00995994
0.00981485
0.00981443
0.00981326
0.00981154
0.00980943
0.00980707
0.00980458
0.00980207
0.00979964
0.00979735
0.00979528
0.00979347
0.00979196
0.00979079
0.00978996
0.0097895
0.0097894
0.00978966
0.00979027
0.00979123
0.00979251
0.00979411
0.00979599
0.00979815
0.00980056
0.00980321
0.00980608
0.00980914
0.00981239
0.0098158
0.00981936
0.00982304
0.00982684
0.00983074
0.00983473
0.00983878
0.00984289
0.00984704
0.00985122
0.00985542
0.00985962
0.00986381
0.00986797
0.0098721
0.00987617
0.00988019
0.00988413
0.009888
0.00989177
0.00989544
0.00989902
0.00990248
0.00990583
0.00990906
0.00991218
0.00991518
0.00991806
0.00992082
0.00992347
0.00992601
0.00992843
0.00993074
0.00993294
0.00993505
0.00993704
0.00993895
0.00994075
0.00994247
0.00994409
0.00994564
0.0099471
0.00994848
0.00994979
0.00995104
0.00995221
0.00995332
0.00995437
0.00995537
0.00995632
0.00995722
0.00995808
0.0099589
0.00995968
0.00996043
0.00996116
0.00996185
0.00996252
0.00996317
0.00996379
0.00996439
0.00996497
0.00996552
0.00996605
0.00996655
0.00996701
0.00996745
0.00996784
0.0099682
0.00996852
0.00996879
0.00996901
0.00996918
0.0099693
0.00996935
0.00996934
0.00996926
0.00996911
0.00996889
0.00996859
0.0099682
0.00996772
0.00996716
0.0099665
0.00996574
0.00996487
0.0099639
0.00996282
0.00996162
0.0099603
0.00995886
0.00982005
0.00981964
0.00981839
0.00981653
0.00981422
0.00981161
0.00980882
0.00980598
0.00980319
0.00980053
0.00979806
0.00979586
0.00979396
0.0097924
0.0097912
0.00979039
0.00978996
0.00978992
0.00979025
0.00979094
0.00979197
0.00979334
0.00979501
0.00979698
0.00979921
0.0098017
0.00980443
0.00980737
0.00981051
0.00981383
0.00981731
0.00982094
0.0098247
0.00982857
0.00983255
0.00983662
0.00984075
0.00984496
0.0098492
0.00985348
0.00985779
0.00986209
0.00986639
0.00987066
0.0098749
0.00987908
0.0098832
0.00988724
0.00989119
0.00989503
0.00989878
0.0099024
0.00990591
0.00990929
0.00991254
0.00991567
0.00991866
0.00992153
0.00992426
0.00992687
0.00992935
0.00993171
0.00993394
0.00993605
0.00993805
0.00993994
0.00994171
0.00994338
0.00994494
0.00994641
0.00994779
0.00994907
0.00995027
0.00995139
0.00995243
0.0099534
0.00995431
0.00995516
0.00995595
0.0099567
0.0099574
0.00995807
0.00995872
0.00995933
0.00995994
0.00996052
0.0099611
0.00996166
0.00996222
0.00996276
0.0099633
0.00996381
0.00996432
0.0099648
0.00996526
0.00996569
0.00996609
0.00996646
0.00996679
0.00996708
0.00996733
0.00996753
0.00996767
0.00996776
0.00996779
0.00996775
0.00996764
0.00996747
0.00996721
0.00996687
0.00996645
0.00996594
0.00996533
0.00996463
0.00996382
0.00996291
0.00996188
0.00996073
0.00995946
0.00995806
0.00982658
0.00982616
0.00982483
0.00982279
0.00982023
0.00981731
0.00981416
0.00981091
0.00980768
0.00980455
0.00980161
0.00979892
0.00979653
0.00979449
0.00979284
0.00979159
0.00979075
0.00979031
0.00979027
0.00979062
0.00979133
0.00979239
0.00979379
0.00979551
0.00979752
0.00979981
0.00980235
0.00980513
0.00980812
0.00981132
0.0098147
0.00981825
0.00982195
0.00982578
0.00982974
0.00983381
0.00983797
0.00984222
0.00984654
0.00985091
0.00985533
0.00985977
0.00986423
0.00986868
0.00987311
0.00987749
0.00988182
0.00988608
0.00989024
0.0098943
0.00989825
0.00990207
0.00990575
0.00990929
0.00991269
0.00991594
0.00991903
0.00992197
0.00992476
0.00992741
0.0099299
0.00993225
0.00993446
0.00993654
0.00993848
0.0099403
0.00994199
0.00994356
0.00994502
0.00994637
0.00994762
0.00994877
0.00994983
0.0099508
0.00995169
0.00995251
0.00995326
0.00995395
0.0099546
0.0099552
0.00995577
0.00995631
0.00995684
0.00995737
0.00995789
0.00995842
0.00995895
0.00995949
0.00996003
0.00996058
0.00996112
0.00996166
0.00996219
0.00996271
0.00996321
0.00996369
0.00996415
0.00996458
0.00996497
0.00996534
0.00996566
0.00996593
0.00996616
0.00996633
0.00996645
0.00996651
0.0099665
0.00996642
0.00996627
0.00996604
0.00996572
0.00996532
0.00996481
0.00996421
0.0099635
0.00996267
0.00996172
0.00996064
0.00995944
0.0099581
0.00983442
0.00983399
0.00983256
0.00983033
0.00982749
0.00982421
0.00982063
0.00981691
0.00981315
0.00980948
0.00980597
0.00980271
0.00979975
0.00979714
0.00979493
0.00979315
0.0097918
0.00979088
0.00979039
0.00979031
0.00979063
0.00979133
0.0097924
0.00979381
0.00979554
0.00979758
0.00979989
0.00980247
0.0098053
0.00980834
0.00981159
0.00981504
0.00981865
0.00982243
0.00982635
0.0098304
0.00983458
0.00983886
0.00984324
0.00984771
0.00985225
0.00985684
0.00986147
0.00986612
0.00987076
0.00987537
0.00987992
0.0098844
0.00988878
0.00989304
0.00989716
0.00990114
0.00990495
0.0099086
0.00991209
0.00991539
0.00991853
0.0099215
0.00992429
0.00992693
0.00992939
0.00993171
0.00993386
0.00993587
0.00993774
0.00993947
0.00994107
0.00994254
0.00994389
0.00994512
0.00994625
0.00994727
0.0099482
0.00994904
0.0099498
0.00995049
0.00995112
0.00995169
0.00995223
0.00995273
0.00995322
0.00995371
0.0099542
0.00995471
0.00995524
0.00995578
0.00995635
0.00995693
0.00995753
0.00995814
0.00995876
0.00995937
0.00995999
0.00996059
0.00996119
0.00996177
0.00996234
0.00996288
0.00996339
0.00996387
0.00996432
0.00996472
0.00996509
0.00996541
0.00996567
0.00996589
0.00996604
0.00996612
0.00996614
0.00996607
0.00996593
0.00996569
0.00996535
0.00996491
0.00996436
0.00996369
0.00996289
0.00996194
0.00996084
0.00995958
0.00984355
0.00984312
0.00984159
0.00983915
0.00983601
0.00983232
0.00982827
0.00982401
0.00981966
0.00981536
0.00981121
0.00980729
0.00980367
0.00980042
0.00979756
0.00979515
0.0097932
0.00979171
0.00979068
0.0097901
0.00978996
0.00979023
0.00979091
0.00979196
0.00979336
0.0097951
0.00979715
0.00979949
0.00980211
0.00980497
0.00980806
0.00981137
0.00981488
0.00981857
0.00982243
0.00982645
0.00983062
0.00983492
0.00983936
0.0098439
0.00984855
0.00985328
0.00985807
0.0098629
0.00986774
0.00987254
0.00987729
0.00988195
0.0098865
0.0098909
0.00989515
0.00989923
0.00990314
0.00990686
0.00991039
0.00991374
0.0099169
0.00991987
0.00992267
0.00992528
0.00992772
0.00993
0.00993211
0.00993407
0.00993588
0.00993754
0.00993906
0.00994045
0.00994171
0.00994286
0.00994389
0.00994482
0.00994565
0.0099464
0.00994707
0.00994768
0.00994823
0.00994874
0.00994923
0.00994971
0.0099502
0.00995071
0.00995124
0.00995181
0.0099524
0.00995304
0.00995369
0.00995438
0.00995508
0.00995579
0.00995652
0.00995726
0.00995799
0.00995873
0.00995946
0.00996017
0.00996088
0.00996156
0.00996223
0.00996287
0.00996348
0.00996406
0.0099646
0.00996511
0.00996556
0.00996597
0.00996632
0.0099666
0.00996682
0.00996696
0.00996703
0.00996701
0.0099669
0.00996668
0.00996636
0.00996591
0.00996529
0.0099645
0.00996353
0.00996238
0.00985394
0.00985353
0.00985191
0.00984927
0.0098458
0.00984169
0.00983711
0.00983224
0.00982724
0.00982225
0.00981738
0.00981272
0.00980837
0.00980437
0.0098008
0.00979767
0.00979503
0.00979289
0.00979124
0.00979009
0.00978941
0.00978919
0.00978941
0.00979005
0.00979107
0.00979247
0.00979421
0.00979628
0.00979864
0.00980129
0.0098042
0.00980734
0.00981071
0.0098143
0.00981807
0.00982203
0.00982617
0.00983046
0.00983492
0.00983951
0.00984423
0.00984907
0.00985399
0.00985896
0.00986394
0.0098689
0.00987379
0.00987859
0.00988326
0.00988778
0.00989213
0.0098963
0.00990028
0.00990407
0.00990766
0.00991105
0.00991424
0.00991724
0.00992005
0.00992268
0.00992512
0.00992739
0.00992949
0.00993143
0.00993321
0.00993484
0.00993632
0.00993767
0.00993889
0.00993999
0.00994097
0.00994185
0.00994264
0.00994334
0.00994398
0.00994455
0.00994509
0.0099456
0.00994611
0.00994663
0.00994718
0.00994776
0.00994839
0.00994905
0.00994976
0.00995051
0.00995128
0.00995209
0.00995292
0.00995376
0.00995462
0.00995549
0.00995637
0.00995725
0.00995812
0.00995899
0.00995985
0.0099607
0.00996153
0.00996234
0.00996314
0.0099639
0.00996463
0.00996533
0.00996598
0.00996659
0.00996714
0.00996764
0.00996807
0.00996843
0.00996872
0.00996893
0.00996904
0.00996901
0.00996883
0.00996849
0.00996796
0.00996725
0.00996636
0.00996528
0.00986555
0.0098652
0.00986353
0.0098607
0.00985689
0.00985232
0.00984717
0.00984165
0.00983593
0.00983017
0.00982451
0.00981904
0.00981388
0.00980907
0.0098047
0.00980079
0.00979739
0.00979451
0.00979217
0.00979036
0.00978908
0.0097883
0.00978801
0.00978817
0.00978877
0.00978978
0.00979117
0.00979292
0.009795
0.0097974
0.00980009
0.00980305
0.00980626
0.0098097
0.00981336
0.00981724
0.00982131
0.00982556
0.00983
0.0098346
0.00983936
0.00984425
0.00984924
0.0098543
0.00985939
0.00986446
0.00986947
0.00987438
0.00987916
0.00988379
0.00988825
0.00989251
0.00989659
0.00990046
0.00990413
0.00990759
0.00991085
0.00991391
0.00991678
0.00991945
0.00992193
0.00992424
0.00992637
0.00992833
0.00993013
0.00993177
0.00993327
0.00993463
0.00993585
0.00993695
0.00993794
0.00993882
0.00993961
0.00994032
0.00994097
0.00994156
0.00994213
0.00994269
0.00994327
0.00994386
0.0099445
0.00994519
0.00994593
0.00994671
0.00994754
0.0099484
0.0099493
0.00995023
0.00995119
0.00995216
0.00995315
0.00995415
0.00995516
0.00995618
0.0099572
0.00995821
0.00995922
0.00996022
0.00996121
0.00996219
0.00996315
0.00996409
0.009965
0.00996587
0.00996671
0.0099675
0.00996824
0.00996893
0.00996957
0.00997014
0.00997063
0.00997101
0.00997125
0.00997132
0.00997123
0.00997095
0.00997049
0.00996985
0.00996901
0.00996799
0.0098783
0.0098781
0.00987641
0.00987341
0.00986927
0.00986421
0.00985846
0.00985224
0.00984574
0.00983916
0.00983264
0.0098263
0.00982025
0.00981457
0.00980932
0.00980457
0.00980034
0.00979666
0.00979355
0.00979102
0.00978906
0.00978766
0.00978679
0.00978642
0.00978654
0.00978712
0.00978811
0.00978951
0.00979128
0.0097934
0.00979584
0.00979858
0.0098016
0.00980488
0.00980841
0.00981216
0.00981614
0.00982033
0.00982471
0.00982928
0.00983403
0.00983893
0.00984396
0.00984907
0.00985424
0.00985939
0.0098645
0.00986952
0.00987442
0.00987917
0.00988375
0.00988814
0.00989233
0.00989632
0.0099001
0.00990368
0.00990705
0.00991021
0.00991317
0.00991594
0.00991852
0.00992091
0.00992312
0.00992515
0.00992702
0.00992873
0.00993029
0.0099317
0.00993298
0.00993413
0.00993517
0.0099361
0.00993694
0.0099377
0.00993839
0.00993905
0.00993968
0.00994031
0.00994097
0.00994166
0.00994239
0.00994318
0.00994402
0.00994491
0.00994584
0.00994681
0.00994782
0.00994886
0.00994992
0.00995101
0.00995211
0.00995323
0.00995435
0.00995548
0.00995662
0.00995776
0.0099589
0.00996003
0.00996116
0.00996228
0.00996338
0.00996446
0.00996552
0.00996654
0.00996754
0.00996849
0.0099694
0.00997026
0.00997107
0.00997181
0.00997244
0.00997292
0.00997324
0.00997338
0.00997335
0.00997314
0.00997274
0.00997215
0.00997137
0.00997041
0.00989211
0.00989211
0.00989045
0.00988731
0.00988288
0.00987735
0.00987098
0.00986401
0.00985669
0.00984923
0.00984179
0.00983451
0.00982751
0.00982089
0.00981472
0.00980905
0.00980393
0.00979939
0.00979546
0.00979213
0.00978943
0.00978734
0.00978583
0.00978489
0.00978448
0.00978457
0.00978514
0.00978614
0.00978757
0.00978937
0.00979154
0.00979403
0.00979684
0.00979994
0.00980331
0.00980693
0.00981079
0.00981488
0.00981919
0.0098237
0.00982841
0.00983329
0.00983832
0.00984346
0.00984867
0.00985391
0.00985912
0.00986426
0.00986929
0.00987418
0.0098789
0.00988345
0.0098878
0.00989194
0.00989588
0.00989961
0.00990314
0.00990645
0.00990956
0.00991247
0.00991518
0.00991771
0.00992004
0.0099222
0.00992419
0.00992602
0.00992768
0.0099292
0.00993057
0.00993182
0.00993294
0.00993396
0.00993487
0.00993571
0.00993649
0.00993721
0.00993792
0.00993863
0.00993936
0.00994012
0.00994094
0.0099418
0.00994272
0.00994369
0.0099447
0.00994575
0.00994684
0.00994796
0.0099491
0.00995027
0.00995146
0.00995266
0.00995387
0.00995509
0.00995632
0.00995755
0.00995879
0.00996002
0.00996126
0.00996248
0.0099637
0.0099649
0.00996607
0.00996722
0.00996834
0.00996942
0.00997047
0.00997148
0.00997242
0.00997327
0.00997398
0.00997454
0.00997492
0.00997513
0.00997516
0.009975
0.00997466
0.00997412
0.0099734
0.00997249
0.00990663
0.00990665
0.00990492
0.00990165
0.00989702
0.00989122
0.00988444
0.00987687
0.00986876
0.00986038
0.00985197
0.00984369
0.00983569
0.00982807
0.0098209
0.00981426
0.0098082
0.00980275
0.00979794
0.00979378
0.00979027
0.00978743
0.00978523
0.00978365
0.00978266
0.00978222
0.00978232
0.0097829
0.00978394
0.00978541
0.00978727
0.0097895
0.00979208
0.00979497
0.00979817
0.00980164
0.00980537
0.00980935
0.00981357
0.009818
0.00982265
0.0098275
0.00983251
0.00983767
0.00984293
0.00984824
0.00985356
0.00985883
0.00986401
0.00986907
0.00987397
0.00987871
0.00988325
0.0098876
0.00989174
0.00989567
0.00989938
0.00990289
0.00990619
0.00990929
0.00991218
0.00991488
0.00991739
0.00991971
0.00992186
0.00992383
0.00992565
0.0099273
0.00992881
0.00993017
0.00993141
0.00993254
0.00993356
0.00993449
0.00993535
0.00993615
0.00993692
0.00993769
0.00993847
0.00993929
0.00994015
0.00994106
0.00994202
0.00994303
0.00994408
0.00994518
0.00994631
0.00994748
0.00994867
0.00994989
0.00995113
0.00995238
0.00995365
0.00995493
0.00995622
0.00995752
0.00995882
0.00996013
0.00996144
0.00996274
0.00996404
0.00996532
0.00996659
0.00996783
0.00996905
0.00997024
0.0099714
0.00997252
0.00997356
0.00997448
0.00997526
0.00997587
0.00997631
0.00997657
0.00997665
0.00997654
0.00997625
0.00997576
0.00997509
0.00997422
0.00992116
0.0099211
0.00991927
0.00991588
0.00991111
0.00990514
0.00989812
0.00989023
0.00988163
0.00987252
0.00986316
0.00985385
0.00984479
0.00983611
0.0098279
0.00982024
0.00981318
0.00980677
0.00980103
0.00979598
0.00979164
0.00978799
0.00978503
0.00978276
0.00978115
0.00978014
0.00977972
0.00977984
0.00978047
0.00978157
0.00978311
0.00978506
0.00978739
0.00979007
0.00979307
0.00979639
0.00979998
0.00980385
0.00980797
0.00981233
0.00981692
0.00982172
0.00982672
0.00983189
0.0098372
0.00984259
0.00984803
0.00985344
0.0098588
0.00986406
0.00986918
0.00987413
0.00987891
0.00988349
0.00988787
0.00989203
0.00989599
0.00989972
0.00990325
0.00990657
0.00990968
0.00991259
0.0099153
0.00991782
0.00992015
0.0099223
0.00992428
0.0099261
0.00992775
0.00992926
0.00993064
0.00993188
0.00993301
0.00993403
0.00993497
0.00993585
0.00993667
0.00993748
0.00993828
0.00993911
0.00993998
0.00994089
0.00994186
0.00994287
0.00994393
0.00994504
0.00994618
0.00994735
0.00994856
0.00994979
0.00995105
0.00995233
0.00995362
0.00995494
0.00995626
0.00995759
0.00995894
0.00996029
0.00996165
0.00996301
0.00996436
0.00996571
0.00996704
0.00996836
0.00996965
0.00997092
0.00997217
0.00997337
0.00997448
0.00997546
0.00997629
0.00997695
0.00997743
0.00997774
0.00997786
0.0099778
0.00997755
0.0099771
0.00997647
0.00997565
0.00993532
0.00993515
0.00993323
0.00992975
0.00992487
0.00991878
0.00991162
0.00990353
0.00989466
0.00988514
0.00987515
0.00986493
0.0098548
0.00984502
0.00983572
0.00982698
0.00981888
0.00981146
0.00980475
0.00979877
0.00979354
0.00978906
0.00978531
0.0097823
0.00978
0.00977839
0.00977742
0.00977704
0.00977723
0.00977794
0.00977914
0.00978079
0.00978285
0.0097853
0.00978811
0.00979126
0.00979472
0.00979847
0.0098025
0.00980679
0.00981133
0.0098161
0.00982109
0.00982628
0.00983164
0.00983713
0.00984269
0.00984828
0.00985384
0.00985932
0.00986468
0.00986989
0.00987492
0.00987977
0.00988441
0.00988884
0.00989306
0.00989706
0.00990083
0.0099044
0.00990775
0.00991088
0.00991381
0.00991655
0.00991908
0.00992143
0.00992359
0.00992557
0.00992739
0.00992905
0.00993055
0.00993192
0.00993315
0.00993427
0.00993528
0.00993621
0.00993708
0.0099379
0.0099387
0.00993951
0.00994035
0.00994123
0.00994215
0.00994313
0.00994416
0.00994523
0.00994635
0.0099475
0.00994869
0.00994991
0.00995116
0.00995243
0.00995373
0.00995504
0.00995638
0.00995772
0.00995909
0.00996046
0.00996185
0.00996325
0.00996464
0.00996603
0.00996741
0.00996878
0.00997014
0.00997148
0.00997279
0.00997405
0.00997522
0.00997624
0.00997711
0.00997781
0.00997833
0.00997868
0.00997884
0.00997881
0.00997859
0.00997819
0.00997759
0.0099768
0.00994894
0.0099487
0.0099467
0.00994313
0.00993819
0.00993201
0.00992475
0.00991653
0.00990749
0.00989773
0.00988739
0.00987662
0.00986564
0.00985478
0.00984435
0.0098345
0.00982531
0.00981683
0.00980911
0.00980216
0.00979601
0.00979065
0.00978608
0.0097823
0.00977928
0.00977701
0.00977545
0.00977455
0.00977427
0.00977457
0.0097754
0.00977673
0.00977852
0.00978073
0.00978334
0.00978632
0.00978964
0.00979329
0.00979723
0.00980146
0.00980596
0.00981071
0.00981572
0.00982094
0.00982637
0.00983197
0.00983768
0.00984345
0.00984922
0.00985495
0.00986057
0.00986605
0.00987137
0.00987651
0.00988144
0.00988615
0.00989065
0.00989492
0.00989897
0.00990279
0.00990638
0.00990976
0.00991292
0.00991587
0.00991861
0.00992115
0.00992349
0.00992565
0.00992762
0.00992942
0.00993105
0.00993253
0.00993386
0.00993506
0.00993614
0.00993711
0.009938
0.00993882
0.0099396
0.00994036
0.00994114
0.00994195
0.00994281
0.00994371
0.00994467
0.00994569
0.00994674
0.00994785
0.00994899
0.00995017
0.00995139
0.00995263
0.00995391
0.00995521
0.00995653
0.00995787
0.00995924
0.00996062
0.00996203
0.00996344
0.00996486
0.00996628
0.0099677
0.00996911
0.00997051
0.0099719
0.00997327
0.00997459
0.00997579
0.00997686
0.00997776
0.00997849
0.00997905
0.00997942
0.00997961
0.00997961
0.00997943
0.00997905
0.00997848
0.00997772
0.00996198
0.00996168
0.00995962
0.009956
0.009951
0.00994476
0.00993743
0.00992913
0.00991997
0.00991006
0.0098995
0.00988841
0.00987693
0.00986527
0.00985376
0.00984277
0.00983245
0.00982288
0.00981411
0.00980616
0.00979905
0.00979278
0.00978736
0.00978278
0.00977901
0.00977604
0.00977386
0.0097724
0.00977162
0.00977148
0.00977193
0.00977293
0.00977443
0.0097764
0.00977881
0.00978162
0.00978481
0.00978834
0.00979221
0.00979639
0.00980086
0.00980562
0.00981065
0.00981593
0.00982144
0.00982716
0.00983303
0.00983901
0.00984501
0.00985099
0.0098569
0.00986267
0.00986829
0.00987372
0.00987895
0.00988396
0.00988874
0.00989329
0.00989761
0.00990169
0.00990553
0.00990914
0.00991253
0.00991569
0.00991863
0.00992136
0.00992387
0.00992619
0.0099283
0.00993023
0.00993198
0.00993356
0.00993498
0.00993625
0.00993737
0.00993838
0.00993927
0.00994008
0.00994082
0.00994153
0.00994222
0.00994294
0.0099437
0.00994451
0.00994538
0.0099463
0.00994728
0.00994831
0.00994938
0.00995051
0.00995167
0.00995287
0.00995411
0.00995538
0.00995668
0.00995801
0.00995936
0.00996074
0.00996215
0.00996357
0.00996501
0.00996645
0.0099679
0.00996934
0.00997078
0.00997222
0.00997363
0.00997499
0.00997623
0.00997732
0.00997826
0.00997902
0.0099796
0.00998
0.00998022
0.00998024
0.00998008
0.00997972
0.00997918
0.00997844
0.00997443
0.00997409
0.00997199
0.00996833
0.00996328
0.009957
0.00994962
0.00994126
0.00993202
0.00992201
0.00991131
0.00990001
0.00988823
0.0098761
0.00986383
0.00985177
0.0098403
0.0098296
0.00981974
0.00981075
0.00980265
0.00979545
0.00978915
0.00978374
0.0097792
0.00977552
0.00977267
0.00977062
0.00976932
0.00976872
0.00976877
0.00976942
0.00977062
0.00977234
0.00977454
0.00977718
0.00978023
0.00978367
0.00978746
0.0097916
0.00979606
0.00980084
0.00980591
0.00981126
0.00981687
0.00982273
0.00982877
0.00983495
0.00984121
0.00984746
0.00985365
0.00985972
0.00986564
0.00987138
0.0098769
0.0098822
0.00988727
0.00989209
0.00989667
0.009901
0.00990509
0.00990893
0.00991253
0.00991589
0.00991901
0.00992191
0.00992458
0.00992704
0.00992929
0.00993133
0.00993318
0.00993484
0.00993633
0.00993765
0.00993881
0.00993984
0.00994073
0.00994152
0.00994222
0.00994286
0.00994347
0.00994408
0.00994473
0.00994542
0.00994617
0.00994699
0.00994787
0.00994881
0.0099498
0.00995085
0.00995195
0.0099531
0.00995429
0.00995552
0.00995679
0.00995809
0.00995943
0.0099608
0.0099622
0.00996363
0.00996508
0.00996654
0.009968
0.00996948
0.00997095
0.00997242
0.00997388
0.00997527
0.00997655
0.00997767
0.00997863
0.00997942
0.00998002
0.00998045
0.00998068
0.00998073
0.00998058
0.00998024
0.00997971
0.00997899
0.00998629
0.00998592
0.00998379
0.0099801
0.00997503
0.00996872
0.00996131
0.00995291
0.00994362
0.00993353
0.00992273
0.00991129
0.00989931
0.00988689
0.00987416
0.00986135
0.00984881
0.00983696
0.00982599
0.00981592
0.00980681
0.00979864
0.00979144
0.00978518
0.00977985
0.00977543
0.0097719
0.00976923
0.00976738
0.0097663
0.00976592
0.00976621
0.0097671
0.00976856
0.00977054
0.00977301
0.00977593
0.00977926
0.009783
0.0097871
0.00979156
0.00979636
0.00980148
0.00980691
0.00981264
0.00981864
0.00982486
0.00983127
0.00983777
0.00984429
0.00985077
0.00985714
0.00986336
0.00986939
0.00987521
0.00988079
0.00988613
0.00989122
0.00989605
0.00990062
0.00990493
0.00990898
0.00991278
0.00991632
0.00991961
0.00992266
0.00992548
0.00992806
0.00993042
0.00993256
0.00993449
0.00993622
0.00993776
0.00993912
0.00994031
0.00994134
0.00994223
0.00994299
0.00994365
0.00994423
0.00994475
0.00994526
0.00994578
0.00994635
0.00994698
0.00994768
0.00994845
0.00994929
0.00995019
0.00995116
0.00995219
0.00995327
0.00995441
0.0099556
0.00995683
0.00995811
0.00995942
0.00996078
0.00996218
0.0099636
0.00996506
0.00996653
0.00996802
0.00996952
0.00997102
0.00997253
0.00997403
0.00997545
0.00997675
0.0099779
0.00997889
0.0099797
0.00998033
0.00998077
0.00998102
0.00998109
0.00998096
0.00998063
0.00998011
0.00997939
0.00999757
0.00999718
0.00999503
0.00999134
0.00998625
0.00997993
0.00997249
0.00996406
0.00995474
0.0099446
0.00993372
0.00992219
0.00991007
0.00989745
0.00988443
0.00987115
0.00985786
0.00984494
0.00983283
0.00982167
0.00981151
0.00980235
0.00979422
0.00978709
0.00978095
0.00977578
0.00977155
0.00976824
0.00976581
0.00976422
0.00976341
0.00976331
0.00976388
0.00976507
0.00976683
0.00976911
0.00977189
0.00977513
0.00977879
0.00978287
0.00978732
0.00979215
0.00979733
0.00980285
0.0098087
0.00981485
0.00982126
0.00982788
0.00983462
0.00984142
0.00984818
0.00985484
0.00986135
0.00986767
0.00987376
0.00987962
0.00988522
0.00989055
0.00989562
0.00990041
0.00990492
0.00990917
0.00991314
0.00991685
0.00992029
0.00992348
0.00992642
0.00992911
0.00993156
0.00993378
0.00993578
0.00993756
0.00993914
0.00994053
0.00994173
0.00994277
0.00994364
0.00994438
0.009945
0.00994551
0.00994596
0.00994636
0.00994677
0.00994721
0.00994772
0.00994829
0.00994895
0.00994969
0.0099505
0.00995139
0.00995234
0.00995337
0.00995445
0.00995559
0.00995678
0.00995803
0.00995933
0.00996067
0.00996206
0.00996349
0.00996495
0.00996643
0.00996794
0.00996946
0.009971
0.00997254
0.00997407
0.00997552
0.00997685
0.00997803
0.00997904
0.00997987
0.00998052
0.00998098
0.00998125
0.00998133
0.00998121
0.0099809
0.00998038
0.00997967
0.0100083
0.0100079
0.0100057
0.010002
0.00999694
0.00999061
0.00998317
0.00997473
0.00996538
0.0099552
0.00994428
0.00993268
0.00992046
0.0099077
0.00989448
0.0098809
0.00986713
0.00985343
0.00984023
0.00982795
0.00981672
0.00980656
0.00979747
0.00978945
0.00978248
0.00977654
0.0097716
0.00976764
0.00976461
0.00976249
0.00976121
0.00976072
0.00976095
0.00976186
0.00976338
0.00976548
0.00976811
0.00977124
0.00977484
0.00977887
0.00978333
0.00978818
0.00979342
0.00979903
0.00980499
0.00981129
0.00981788
0.00982471
0.0098317
0.00983875
0.00984578
0.00985272
0.00985951
0.0098661
0.00987246
0.00987857
0.00988441
0.00988997
0.00989525
0.00990024
0.00990495
0.00990937
0.0099135
0.00991735
0.00992093
0.00992424
0.00992728
0.00993006
0.00993259
0.00993488
0.00993693
0.00993876
0.00994037
0.00994178
0.00994299
0.00994402
0.00994488
0.00994559
0.00994617
0.00994663
0.009947
0.00994732
0.00994762
0.00994795
0.00994833
0.00994879
0.00994934
0.00994997
0.0099507
0.0099515
0.00995239
0.00995335
0.00995438
0.00995547
0.00995663
0.00995785
0.00995913
0.00996046
0.00996184
0.00996327
0.00996474
0.00996624
0.00996776
0.00996931
0.00997087
0.00997245
0.00997401
0.0099755
0.00997686
0.00997806
0.0099791
0.00997995
0.00998062
0.0099811
0.00998139
0.00998147
0.00998136
0.00998105
0.00998054
0.00997984
0.0100185
0.010018
0.0100159
0.0100122
0.0100071
0.0100008
0.00999335
0.00998491
0.00997554
0.00996535
0.00995439
0.00994274
0.00993045
0.00991759
0.00990423
0.00989045
0.00987636
0.00986214
0.00984811
0.00983475
0.00982243
0.00981124
0.00980118
0.00979225
0.00978443
0.00977771
0.00977204
0.00976741
0.00976377
0.0097611
0.00975934
0.00975843
0.00975831
0.00975891
0.00976018
0.00976208
0.00976456
0.00976757
0.00977109
0.00977508
0.00977953
0.00978441
0.00978969
0.00979538
0.00980145
0.00980789
0.00981465
0.00982168
0.00982889
0.00983619
0.00984348
0.00985068
0.00985773
0.00986457
0.00987118
0.00987752
0.00988358
0.00988936
0.00989484
0.00990001
0.00990489
0.00990947
0.00991374
0.00991773
0.00992142
0.00992483
0.00992797
0.00993083
0.00993343
0.00993577
0.00993787
0.00993973
0.00994137
0.00994279
0.00994401
0.00994503
0.00994588
0.00994656
0.0099471
0.00994752
0.00994783
0.00994807
0.00994828
0.0099485
0.00994877
0.00994912
0.00994957
0.00995011
0.00995075
0.00995148
0.00995229
0.0099532
0.00995418
0.00995524
0.00995636
0.00995756
0.00995882
0.00996014
0.00996152
0.00996296
0.00996443
0.00996595
0.00996749
0.00996906
0.00997066
0.00997226
0.00997386
0.00997538
0.00997677
0.009978
0.00997906
0.00997994
0.00998063
0.00998113
0.00998143
0.00998153
0.00998142
0.00998112
0.00998061
0.0099799
0.0100281
0.0100277
0.0100255
0.0100218
0.0100168
0.0100105
0.010003
0.0099946
0.00998524
0.00997504
0.00996406
0.00995237
0.00994004
0.00992711
0.00991364
0.00989971
0.0098854
0.00987085
0.00985626
0.009842
0.00982861
0.00981637
0.00980532
0.00979546
0.00978678
0.00977926
0.00977286
0.00976754
0.00976328
0.00976004
0.00975778
0.00975643
0.00975593
0.00975621
0.00975722
0.0097589
0.00976121
0.00976409
0.00976752
0.00977146
0.00977589
0.00978077
0.0097861
0.00979185
0.00979802
0.00980457
0.00981148
0.00981869
0.00982612
0.00983365