/*--------------------------------*- C++ -*----------------------------------*\
  =========                 |
  \\      /  F ield         | OpenFOAM: The Open Source CFD Toolbox
   \\    /   O peration     | Website:  https://openfoam.org
    \\  /    A nd           | Version:  8
     \\/     M anipulation  |
\*---------------------------------------------------------------------------*/
FoamFile
{
    version     2.0;
    format      ascii;
    class       volScalarField;
    location    "0.2";
    object      p;
}
// * * * * * * * * * * * * * * * * * * * * * * * * * * * * * * * * * * * * * //

dimensions      [0 2 -2 0 0 0 0];

internalField   nonuniform List<scalar> 
277560
(
-0.0316267
-0.0316259
-0.031657
-0.0316888
-0.0317176
-0.0317398
-0.0317535
-0.0317573
-0.0317518
-0.0317348
-0.0317089
-0.0316705
-0.0316211
-0.0315612
-0.0314904
-0.0314103
-0.03132
-0.0312223
-0.0311161
-0.0310045
-0.030886
-0.0307638
-0.0306358
-0.0305051
-0.0303693
-0.0302316
-0.0300897
-0.0299461
-0.0297988
-0.0296499
-0.0294976
-0.0293433
-0.0291858
-0.029026
-0.028863
-0.0286976
-0.028529
-0.028358
-0.0281839
-0.0280072
-0.0278278
-0.0276458
-0.0274612
-0.0272743
-0.0270848
-0.0268931
-0.0266991
-0.0265032
-0.026305
-0.0261051
-0.0259031
-0.0256998
-0.0254947
-0.0252885
-0.0250808
-0.0248725
-0.0246629
-0.0244532
-0.0242426
-0.0240323
-0.0238216
-0.0236116
-0.0234017
-0.0231929
-0.0229846
-0.0227778
-0.022572
-0.0223681
-0.0221656
-0.0219654
-0.0217673
-0.0215718
-0.0213789
-0.0211888
-0.0210016
-0.0208172
-0.0206359
-0.0204571
-0.0202811
-0.0201072
-0.0199357
-0.019766
-0.0195981
-0.0194317
-0.0192669
-0.0191034
-0.0189414
-0.0187809
-0.0186219
-0.0184646
-0.0183089
-0.018155
-0.0180026
-0.0178519
-0.0177025
-0.0175546
-0.0174075
-0.0172617
-0.0171163
-0.016972
-0.0168275
-0.016684
-0.01654
-0.0163969
-0.0162528
-0.0161097
-0.0159653
-0.0158219
-0.0156771
-0.0155332
-0.0153884
-0.0152451
-0.0151021
-0.0149631
-0.0148281
-0.0147022
-0.0145867
-0.0144869
-0.0144016
-0.0143336
-0.0316093
-0.0316256
-0.0316629
-0.0316981
-0.0317284
-0.031751
-0.0317643
-0.0317678
-0.0317611
-0.0317444
-0.0317169
-0.0316787
-0.0316297
-0.0315698
-0.0314998
-0.0314202
-0.0313315
-0.0312347
-0.0311303
-0.0310197
-0.0309032
-0.0307819
-0.0306559
-0.030526
-0.0303922
-0.0302553
-0.0301153
-0.0299724
-0.0298269
-0.0296785
-0.0295277
-0.029374
-0.0292177
-0.0290584
-0.0288966
-0.0287315
-0.0285641
-0.0283934
-0.0282205
-0.0280443
-0.027866
-0.0276846
-0.0275012
-0.0273148
-0.0271266
-0.0269355
-0.0267429
-0.0265474
-0.0263506
-0.0261512
-0.0259507
-0.0257479
-0.0255443
-0.0253386
-0.0251325
-0.0249246
-0.0247168
-0.0245077
-0.024299
-0.0240894
-0.0238808
-0.0236719
-0.0234642
-0.0232567
-0.0230509
-0.0228457
-0.0226426
-0.0224405
-0.0222408
-0.0220427
-0.0218473
-0.021654
-0.0214637
-0.0212759
-0.0210911
-0.020909
-0.0207298
-0.0205533
-0.0203794
-0.0202077
-0.0200381
-0.0198703
-0.0197043
-0.0195394
-0.0193761
-0.0192138
-0.0190531
-0.0188933
-0.0187354
-0.0185786
-0.0184239
-0.0182705
-0.0181193
-0.0179692
-0.0178213
-0.0176743
-0.0175292
-0.0173847
-0.0172419
-0.0170993
-0.0169581
-0.0168167
-0.0166766
-0.0165357
-0.0163959
-0.0162548
-0.0161143
-0.0159717
-0.0158292
-0.0156836
-0.0155376
-0.0153886
-0.0152398
-0.0150901
-0.0149449
-0.0148059
-0.0146804
-0.0145724
-0.0144858
-0.014423
-0.0315981
-0.0316352
-0.0316812
-0.0317205
-0.0317527
-0.0317757
-0.0317887
-0.0317913
-0.0317838
-0.0317658
-0.0317382
-0.0316996
-0.0316505
-0.0315909
-0.0315221
-0.0314437
-0.0313572
-0.0312623
-0.0311609
-0.0310526
-0.0309394
-0.0308205
-0.030698
-0.0305706
-0.0304405
-0.0303061
-0.0301695
-0.0300291
-0.0298867
-0.0297408
-0.0295928
-0.0294414
-0.0292877
-0.0291306
-0.0289713
-0.0288086
-0.0286436
-0.0284755
-0.028305
-0.0281316
-0.027956
-0.0277776
-0.0275971
-0.027414
-0.0272289
-0.0270413
-0.0268519
-0.0266602
-0.0264669
-0.0262714
-0.0260746
-0.0258758
-0.0256761
-0.0254747
-0.0252727
-0.0250694
-0.024866
-0.0246616
-0.0244576
-0.0242531
-0.0240494
-0.0238457
-0.0236432
-0.0234412
-0.0232406
-0.0230408
-0.0228428
-0.0226461
-0.0224513
-0.0222583
-0.0220675
-0.021879
-0.021693
-0.0215099
-0.0213293
-0.0211517
-0.0209767
-0.0208046
-0.0206349
-0.0204676
-0.0203022
-0.0201388
-0.0199769
-0.0198163
-0.019657
-0.0194986
-0.0193416
-0.0191856
-0.0190311
-0.0188778
-0.0187264
-0.0185765
-0.0184287
-0.0182823
-0.0181381
-0.0179953
-0.0178545
-0.0177148
-0.0175769
-0.0174397
-0.017304
-0.0171684
-0.0170339
-0.0168986
-0.0167636
-0.0166266
-0.0164889
-0.0163476
-0.0162042
-0.0160555
-0.0159037
-0.0157462
-0.0155865
-0.0154242
-0.0152655
-0.0151141
-0.0149789
-0.0148658
-0.0147811
-0.0147283
-0.0316093
-0.0316612
-0.0317145
-0.0317576
-0.0317917
-0.0318153
-0.0318279
-0.0318297
-0.0318209
-0.0318026
-0.0317736
-0.031735
-0.0316858
-0.0316271
-0.031559
-0.0314827
-0.0313983
-0.0313067
-0.0312083
-0.031104
-0.0309943
-0.0308799
-0.0307612
-0.0306384
-0.0305122
-0.0303825
-0.0302496
-0.0301138
-0.029975
-0.0298335
-0.0296888
-0.0295416
-0.0293911
-0.0292382
-0.0290821
-0.0289236
-0.028762
-0.0285982
-0.0284314
-0.0282626
-0.0280909
-0.0279175
-0.0277413
-0.0275634
-0.0273829
-0.027201
-0.0270166
-0.0268309
-0.0266429
-0.0264538
-0.0262627
-0.0260707
-0.025877
-0.0256828
-0.0254871
-0.0252914
-0.0250946
-0.0248982
-0.0247011
-0.0245049
-0.0243084
-0.0241131
-0.0239178
-0.0237241
-0.0235307
-0.023339
-0.023148
-0.0229589
-0.0227707
-0.0225849
-0.0224005
-0.0222189
-0.0220392
-0.0218625
-0.0216882
-0.021517
-0.0213482
-0.0211822
-0.0210185
-0.0208573
-0.0206976
-0.0205399
-0.0203833
-0.0202283
-0.020074
-0.0199212
-0.0197691
-0.0196186
-0.0194691
-0.0193215
-0.0191753
-0.0190313
-0.0188887
-0.0187485
-0.0186096
-0.0184729
-0.0183372
-0.0182033
-0.01807
-0.0179382
-0.0178065
-0.0176759
-0.017545
-0.0174149
-0.017284
-0.0171534
-0.0170213
-0.0168887
-0.0167536
-0.0166169
-0.0164762
-0.0163332
-0.0161861
-0.0160381
-0.0158898
-0.0157476
-0.0156161
-0.015504
-0.0154159
-0.0153594
-0.0316434
-0.0317057
-0.0317646
-0.0318109
-0.0318468
-0.0318708
-0.031883
-0.031884
-0.0318746
-0.0318548
-0.0318258
-0.0317867
-0.0317378
-0.0316797
-0.0316129
-0.0315388
-0.031457
-0.0313689
-0.0312741
-0.0311743
-0.0310688
-0.0309595
-0.0308453
-0.0307281
-0.0306066
-0.0304824
-0.0303543
-0.0302239
-0.0300897
-0.0299532
-0.0298132
-0.0296708
-0.0295249
-0.0293767
-0.0292253
-0.0290715
-0.0289148
-0.0287559
-0.0285944
-0.0284307
-0.0282647
-0.0280967
-0.0279265
-0.0277545
-0.0275804
-0.0274047
-0.0272271
-0.027048
-0.0268672
-0.0266851
-0.0265015
-0.026317
-0.0261312
-0.0259448
-0.0257574
-0.0255698
-0.0253816
-0.0251936
-0.0250053
-0.0248176
-0.02463
-0.0244433
-0.0242569
-0.0240715
-0.0238867
-0.0237032
-0.0235204
-0.023339
-0.0231588
-0.0229802
-0.0228032
-0.0226284
-0.0224555
-0.0222851
-0.0221171
-0.0219515
-0.0217884
-0.0216276
-0.0214693
-0.0213128
-0.0211584
-0.0210055
-0.0208541
-0.0207042
-0.0205553
-0.0204078
-0.0202614
-0.0201165
-0.0199728
-0.0198311
-0.0196909
-0.019553
-0.0194168
-0.0192829
-0.0191508
-0.0190208
-0.0188924
-0.0187661
-0.0186411
-0.0185182
-0.0183964
-0.0182765
-0.0181578
-0.0180409
-0.0179248
-0.01781
-0.0176953
-0.0175807
-0.0174645
-0.0173467
-0.0172251
-0.0170998
-0.0169698
-0.0168366
-0.0167018
-0.0165709
-0.0164497
-0.0163469
-0.0162686
-0.0162221
-0.0317011
-0.0317703
-0.0318332
-0.0318821
-0.0319192
-0.0319436
-0.0319554
-0.0319558
-0.0319453
-0.0319253
-0.0318954
-0.0318563
-0.0318079
-0.0317506
-0.0316856
-0.0316134
-0.0315348
-0.03145
-0.0313596
-0.031264
-0.0311637
-0.0310593
-0.0309509
-0.0308389
-0.0307235
-0.0306047
-0.0304827
-0.0303576
-0.0302294
-0.0300981
-0.029964
-0.0298266
-0.0296867
-0.0295435
-0.029398
-0.0292495
-0.0290989
-0.0289454
-0.0287902
-0.0286323
-0.028473
-0.0283111
-0.0281479
-0.0279824
-0.0278157
-0.0276469
-0.0274771
-0.0273053
-0.0271327
-0.0269583
-0.0267834
-0.0266069
-0.0264301
-0.0262521
-0.0260741
-0.0258952
-0.0257167
-0.0255376
-0.0253592
-0.0251805
-0.0250028
-0.024825
-0.0246484
-0.0244719
-0.0242968
-0.024122
-0.0239486
-0.0237757
-0.0236045
-0.0234341
-0.0232657
-0.0230984
-0.0229334
-0.02277
-0.0226089
-0.0224497
-0.0222929
-0.0221379
-0.0219851
-0.0218339
-0.0216845
-0.0215363
-0.0213896
-0.0212438
-0.0210994
-0.0209557
-0.0208136
-0.0206726
-0.0205335
-0.0203959
-0.0202607
-0.0201276
-0.0199972
-0.0198691
-0.0197441
-0.0196215
-0.0195022
-0.0193852
-0.0192716
-0.0191604
-0.0190526
-0.0189471
-0.0188448
-0.0187446
-0.0186474
-0.0185517
-0.0184581
-0.0183649
-0.0182724
-0.0181784
-0.0180831
-0.0179843
-0.0178824
-0.0177766
-0.0176693
-0.0175632
-0.0174643
-0.0173793
-0.0173151
-0.0172775
-0.0317829
-0.031856
-0.0319214
-0.031972
-0.03201
-0.0320346
-0.0320461
-0.0320458
-0.0320349
-0.0320139
-0.031984
-0.0319449
-0.031897
-0.0318408
-0.0317776
-0.0317076
-0.0316322
-0.0315509
-0.0314649
-0.0313738
-0.0312789
-0.0311796
-0.0310772
-0.0309708
-0.0308618
-0.0307488
-0.0306334
-0.0305141
-0.0303924
-0.0302671
-0.0301392
-0.0300079
-0.0298742
-0.0297372
-0.0295979
-0.0294557
-0.0293114
-0.0291647
-0.029016
-0.0288652
-0.0287125
-0.0285581
-0.028402
-0.0282444
-0.0280852
-0.0279246
-0.0277627
-0.0275995
-0.0274352
-0.0272699
-0.0271036
-0.0269365
-0.0267688
-0.0266005
-0.0264319
-0.0262631
-0.0260942
-0.0259252
-0.0257565
-0.025588
-0.02542
-0.0252524
-0.0250854
-0.0249189
-0.0247533
-0.0245882
-0.0244241
-0.0242607
-0.0240983
-0.0239368
-0.0237765
-0.0236174
-0.0234598
-0.0233037
-0.0231492
-0.0229967
-0.0228459
-0.0226971
-0.0225499
-0.0224046
-0.0222606
-0.022118
-0.0219767
-0.0218363
-0.0216972
-0.0215589
-0.0214221
-0.0212866
-0.0211532
-0.0210216
-0.0208928
-0.0207665
-0.0206435
-0.0205234
-0.0204071
-0.020294
-0.0201849
-0.0200793
-0.0199777
-0.0198796
-0.0197856
-0.0196951
-0.0196083
-0.0195248
-0.0194446
-0.0193668
-0.0192913
-0.0192169
-0.0191427
-0.0190676
-0.0189902
-0.0189096
-0.0188249
-0.0187369
-0.0186472
-0.0185604
-0.0184822
-0.0184204
-0.0183822
-0.018371
-0.0318889
-0.0319634
-0.03203
-0.0320813
-0.0321198
-0.0321443
-0.0321555
-0.0321547
-0.032143
-0.0321219
-0.0320916
-0.0320527
-0.0320054
-0.0319505
-0.0318889
-0.0318217
-0.0317491
-0.0316718
-0.0315899
-0.0315039
-0.0314138
-0.0313204
-0.0312235
-0.0311236
-0.0310205
-0.0309144
-0.0308051
-0.0306928
-0.0305774
-0.0304591
-0.0303375
-0.0302133
-0.0300859
-0.0299561
-0.0298233
-0.0296885
-0.0295509
-0.0294117
-0.02927
-0.029127
-0.0289818
-0.0288355
-0.0286873
-0.0285381
-0.0283872
-0.0282355
-0.0280822
-0.0279284
-0.0277732
-0.0276177
-0.0274609
-0.027304
-0.0271462
-0.0269885
-0.0268301
-0.0266721
-0.0265136
-0.0263557
-0.0261975
-0.02604
-0.0258825
-0.0257259
-0.0255694
-0.0254139
-0.0252586
-0.0251043
-0.0249502
-0.0247972
-0.0246443
-0.0244926
-0.0243412
-0.0241911
-0.0240415
-0.0238934
-0.0237464
-0.0236009
-0.0234567
-0.0233142
-0.0231731
-0.0230336
-0.0228952
-0.0227583
-0.0226222
-0.0224876
-0.0223538
-0.0222216
-0.0220904
-0.0219615
-0.0218342
-0.0217097
-0.0215876
-0.021469
-0.0213533
-0.0212417
-0.0211334
-0.0210294
-0.020929
-0.0208329
-0.0207405
-0.0206526
-0.0205685
-0.0204887
-0.020413
-0.0203416
-0.0202741
-0.0202106
-0.0201506
-0.0200937
-0.020039
-0.0199856
-0.019932
-0.0198774
-0.0198205
-0.0197613
-0.0197006
-0.0196413
-0.0195884
-0.0195486
-0.0195286
-0.01953
-0.0320181
-0.0320921
-0.0321586
-0.0322101
-0.0322485
-0.0322729
-0.0322838
-0.0322824
-0.0322704
-0.0322486
-0.0322184
-0.0321797
-0.0321331
-0.0320794
-0.0320198
-0.0319552
-0.0318857
-0.0318123
-0.0317346
-0.0316534
-0.0315685
-0.0314807
-0.0313896
-0.031296
-0.0311992
-0.0310999
-0.0309973
-0.0308922
-0.0307836
-0.0306725
-0.0305581
-0.0304411
-0.030321
-0.0301985
-0.0300732
-0.0299458
-0.0298161
-0.0296845
-0.029551
-0.0294158
-0.0292792
-0.0291411
-0.0290018
-0.0288612
-0.0287197
-0.0285769
-0.0284336
-0.0282892
-0.0281443
-0.0279985
-0.0278526
-0.0277059
-0.0275592
-0.0274121
-0.027265
-0.0271177
-0.0269707
-0.0268236
-0.0266769
-0.0265303
-0.0263842
-0.0262383
-0.026093
-0.0259481
-0.0258037
-0.0256596
-0.0255159
-0.0253726
-0.0252295
-0.0250866
-0.024944
-0.0248018
-0.02466
-0.0245188
-0.0243784
-0.024239
-0.0241007
-0.0239638
-0.0238283
-0.0236944
-0.0235617
-0.0234308
-0.0233009
-0.0231728
-0.0230456
-0.0229203
-0.0227961
-0.0226743
-0.0225541
-0.0224369
-0.022322
-0.0222108
-0.0221027
-0.0219987
-0.0218984
-0.0218026
-0.0217109
-0.0216239
-0.0215413
-0.0214636
-0.0213906
-0.0213226
-0.0212597
-0.0212016
-0.0211485
-0.0210996
-0.0210552
-0.0210136
-0.0209747
-0.0209365
-0.0208984
-0.0208582
-0.0208161
-0.0207711
-0.0207256
-0.0206823
-0.0206474
-0.0206278
-0.0206304
-0.0206539
-0.0321698
-0.0322418
-0.0323073
-0.0323582
-0.0323962
-0.0324202
-0.0324306
-0.0324289
-0.0324163
-0.0323945
-0.0323641
-0.0323257
-0.0322797
-0.0322273
-0.0321698
-0.0321076
-0.0320416
-0.0319718
-0.0318985
-0.0318218
-0.0317423
-0.0316597
-0.0315748
-0.0314872
-0.0313972
-0.0313045
-0.0312092
-0.031111
-0.0310101
-0.0309061
-0.0307996
-0.03069
-0.030578
-0.030463
-0.030346
-0.0302264
-0.0301052
-0.0299816
-0.0298568
-0.0297301
-0.0296024
-0.0294731
-0.0293432
-0.0292118
-0.0290801
-0.0289471
-0.0288139
-0.0286796
-0.0285454
-0.0284102
-0.0282752
-0.0281395
-0.0280041
-0.0278682
-0.0277326
-0.0275966
-0.0274612
-0.0273254
-0.0271903
-0.027055
-0.0269203
-0.0267856
-0.0266516
-0.0265175
-0.0263839
-0.0262502
-0.0261168
-0.025983
-0.0258495
-0.0257155
-0.0255816
-0.0254472
-0.0253133
-0.025179
-0.0250456
-0.0249123
-0.0247804
-0.024649
-0.0245194
-0.0243906
-0.0242637
-0.0241379
-0.024014
-0.0238913
-0.0237705
-0.0236509
-0.0235336
-0.023418
-0.0233051
-0.0231944
-0.0230871
-0.0229828
-0.0228825
-0.0227858
-0.0226939
-0.0226063
-0.0225238
-0.022446
-0.0223737
-0.0223065
-0.0222448
-0.0221884
-0.0221376
-0.0220919
-0.0220516
-0.0220158
-0.0219846
-0.0219569
-0.0219324
-0.0219092
-0.021887
-0.0218641
-0.0218399
-0.021814
-0.0217876
-0.0217637
-0.0217463
-0.0217429
-0.0217584
-0.021792
-0.0323426
-0.0324115
-0.0324752
-0.0325249
-0.0325623
-0.0325858
-0.0325958
-0.0325936
-0.0325809
-0.0325586
-0.0325283
-0.0324902
-0.0324451
-0.032394
-0.0323383
-0.0322787
-0.032216
-0.0321498
-0.0320808
-0.0320087
-0.0319342
-0.0318571
-0.0317781
-0.0316966
-0.0316134
-0.0315275
-0.0314395
-0.0313486
-0.0312555
-0.0311593
-0.0310607
-0.0309591
-0.0308552
-0.0307487
-0.0306399
-0.030529
-0.0304161
-0.0303016
-0.0301854
-0.030068
-0.0299492
-0.0298297
-0.0297089
-0.0295878
-0.0294655
-0.0293432
-0.0292199
-0.0290967
-0.0289727
-0.0288489
-0.0287245
-0.0286004
-0.0284758
-0.0283516
-0.0282268
-0.0281027
-0.0279781
-0.027854
-0.0277297
-0.0276058
-0.0274819
-0.0273582
-0.0272345
-0.0271109
-0.0269872
-0.0268633
-0.0267391
-0.0266144
-0.0264894
-0.0263636
-0.0262376
-0.0261107
-0.0259839
-0.0258564
-0.0257295
-0.0256023
-0.0254762
-0.0253504
-0.0252264
-0.0251031
-0.024982
-0.0248621
-0.0247446
-0.0246285
-0.024515
-0.024403
-0.024294
-0.0241866
-0.0240825
-0.0239804
-0.0238821
-0.0237867
-0.0236956
-0.0236082
-0.0235257
-0.0234477
-0.0233751
-0.0233074
-0.0232453
-0.0231886
-0.0231375
-0.0230917
-0.0230514
-0.0230163
-0.022986
-0.0229604
-0.0229384
-0.0229201
-0.0229037
-0.0228889
-0.0228739
-0.0228584
-0.022841
-0.022823
-0.0228051
-0.022792
-0.0227876
-0.0228
-0.0228342
-0.0228869
-0.0325356
-0.0326007
-0.0326619
-0.0327101
-0.0327465
-0.0327694
-0.032779
-0.0327766
-0.0327634
-0.0327413
-0.0327111
-0.0326732
-0.0326288
-0.0325789
-0.0325249
-0.032468
-0.0324082
-0.032346
-0.032281
-0.0322136
-0.0321439
-0.0320724
-0.0319988
-0.0319238
-0.0318468
-0.0317682
-0.0316872
-0.0316043
-0.0315186
-0.0314308
-0.0313401
-0.0312473
-0.0311516
-0.031054
-0.0309538
-0.030852
-0.0307478
-0.0306426
-0.0305354
-0.0304276
-0.0303182
-0.0302084
-0.0300974
-0.0299863
-0.0298742
-0.0297622
-0.0296494
-0.0295369
-0.0294237
-0.0293109
-0.0291975
-0.0290844
-0.028971
-0.0288578
-0.0287443
-0.0286312
-0.0285177
-0.0284046
-0.0282912
-0.0281782
-0.0280647
-0.0279515
-0.0278378
-0.0277242
-0.0276097
-0.0274952
-0.0273796
-0.0272638
-0.0271467
-0.0270294
-0.0269107
-0.0267921
-0.0266722
-0.0265527
-0.0264322
-0.0263129
-0.0261931
-0.0260751
-0.0259573
-0.0258418
-0.025727
-0.0256149
-0.025504
-0.0253959
-0.0252894
-0.0251857
-0.0250838
-0.024985
-0.0248884
-0.0247952
-0.0247047
-0.0246182
-0.0245352
-0.0244567
-0.0243825
-0.0243133
-0.0242488
-0.0241897
-0.0241356
-0.024087
-0.0240436
-0.0240055
-0.0239726
-0.023945
-0.0239223
-0.0239044
-0.023891
-0.0238815
-0.0238752
-0.0238714
-0.0238688
-0.0238666
-0.0238641
-0.0238612
-0.0238593
-0.0238609
-0.0238713
-0.0238955
-0.0239409
-0.0240003
-0.0327472
-0.0328082
-0.0328665
-0.0329129
-0.0329482
-0.0329705
-0.0329798
-0.0329771
-0.032964
-0.0329418
-0.0329116
-0.0328744
-0.0328306
-0.0327818
-0.0327296
-0.0326749
-0.0326182
-0.0325597
-0.0324987
-0.0324359
-0.032371
-0.0323047
-0.0322368
-0.0321678
-0.0320973
-0.0320255
-0.0319519
-0.0318766
-0.031799
-0.0317194
-0.0316373
-0.031553
-0.0314663
-0.0313775
-0.0312865
-0.0311936
-0.0310991
-0.0310028
-0.0309055
-0.0308067
-0.0307074
-0.030607
-0.0305064
-0.0304048
-0.0303035
-0.0302013
-0.0300996
-0.029997
-0.0298951
-0.0297923
-0.0296902
-0.0295873
-0.0294851
-0.0293821
-0.0292798
-0.0291767
-0.0290742
-0.028971
-0.0288682
-0.0287648
-0.0286613
-0.0285573
-0.0284529
-0.028348
-0.0282422
-0.0281358
-0.0280284
-0.0279204
-0.027811
-0.0277014
-0.0275901
-0.027479
-0.0273663
-0.0272543
-0.0271409
-0.0270288
-0.026916
-0.026805
-0.0266942
-0.0265855
-0.0264777
-0.0263725
-0.0262688
-0.0261679
-0.0260688
-0.0259726
-0.0258787
-0.0257879
-0.0256994
-0.0256145
-0.0255323
-0.0254541
-0.0253794
-0.0253091
-0.025243
-0.0251818
-0.0251254
-0.0250742
-0.0250281
-0.0249875
-0.0249522
-0.0249224
-0.0248981
-0.0248791
-0.0248655
-0.0248568
-0.0248529
-0.0248528
-0.0248563
-0.0248617
-0.0248685
-0.0248752
-0.0248818
-0.0248878
-0.0248953
-0.0249071
-0.0249287
-0.0249657
-0.025025
-0.0250978
-0.032977
-0.0330335
-0.0330886
-0.033133
-0.0331671
-0.0331887
-0.0331977
-0.033195
-0.0331818
-0.0331599
-0.0331302
-0.0330933
-0.0330502
-0.0330026
-0.0329519
-0.0328994
-0.0328458
-0.0327906
-0.0327339
-0.0326753
-0.0326152
-0.0325537
-0.0324914
-0.032428
-0.0323642
-0.032299
-0.032233
-0.0321651
-0.0320959
-0.0320244
-0.0319513
-0.0318756
-0.0317982
-0.0317182
-0.0316368
-0.031553
-0.0314681
-0.0313811
-0.0312935
-0.0312043
-0.0311148
-0.0310241
-0.0309335
-0.030842
-0.0307507
-0.0306588
-0.0305672
-0.030475
-0.0303832
-0.0302909
-0.030199
-0.0301065
-0.0300143
-0.0299217
-0.0298293
-0.0297364
-0.0296435
-0.0295501
-0.0294566
-0.0293623
-0.0292678
-0.0291724
-0.0290765
-0.0289794
-0.0288817
-0.0287828
-0.0286833
-0.0285824
-0.0284811
-0.0283783
-0.0282755
-0.0281711
-0.028067
-0.0279617
-0.0278572
-0.0277519
-0.0276479
-0.0275439
-0.0274417
-0.0273402
-0.0272409
-0.0271431
-0.0270478
-0.0269542
-0.0268634
-0.0267745
-0.0266884
-0.0266045
-0.0265237
-0.0264454
-0.0263706
-0.026299
-0.0262316
-0.0261681
-0.0261094
-0.0260554
-0.0260068
-0.0259634
-0.0259257
-0.0258934
-0.0258671
-0.0258463
-0.0258315
-0.025822
-0.0258183
-0.0258195
-0.0258258
-0.0258362
-0.0258505
-0.0258671
-0.0258858
-0.025905
-0.0259247
-0.0259444
-0.0259654
-0.0259908
-0.0260244
-0.0260729
-0.0261409
-0.0262207
-0.0332234
-0.0332756
-0.0333275
-0.0333697
-0.0334024
-0.0334235
-0.0334323
-0.0334296
-0.0334169
-0.0333951
-0.0333657
-0.0333297
-0.0332875
-0.033241
-0.0331918
-0.0331414
-0.0330904
-0.0330385
-0.0329858
-0.0329314
-0.0328758
-0.0328192
-0.0327621
-0.0327045
-0.0326467
-0.0325884
-0.0325294
-0.0324695
-0.0324083
-0.0323454
-0.0322808
-0.0322143
-0.0321459
-0.0320755
-0.0320031
-0.0319292
-0.0318533
-0.0317764
-0.0316979
-0.0316188
-0.0315385
-0.0314581
-0.0313766
-0.0312955
-0.0312134
-0.0311319
-0.0310495
-0.0309678
-0.0308851
-0.0308032
-0.0307203
-0.0306381
-0.0305549
-0.0304722
-0.0303885
-0.0303051
-0.0302207
-0.0301362
-0.0300508
-0.0299648
-0.0298779
-0.0297901
-0.0297013
-0.0296113
-0.0295206
-0.0294284
-0.0293358
-0.0292416
-0.0291473
-0.0290513
-0.0289556
-0.0288582
-0.0287615
-0.0286635
-0.0285664
-0.0284687
-0.0283724
-0.0282763
-0.028182
-0.0280888
-0.0279978
-0.0279085
-0.0278217
-0.0277367
-0.0276544
-0.0275742
-0.0274967
-0.0274212
-0.0273488
-0.0272788
-0.0272124
-0.027149
-0.02709
-0.0270349
-0.0269849
-0.0269396
-0.0269001
-0.0268658
-0.0268376
-0.026815
-0.0267986
-0.0267879
-0.0267832
-0.0267844
-0.026791
-0.0268029
-0.0268195
-0.0268405
-0.0268646
-0.0268914
-0.0269193
-0.0269478
-0.026976
-0.0270045
-0.0270343
-0.0270692
-0.0271131
-0.0271727
-0.0272529
-0.0273444
-0.0334865
-0.0335343
-0.0335827
-0.0336226
-0.0336541
-0.0336745
-0.0336832
-0.0336809
-0.0336683
-0.0336472
-0.0336188
-0.0335832
-0.0335421
-0.0334967
-0.033449
-0.0334004
-0.0333518
-0.0333033
-0.033254
-0.0332038
-0.0331526
-0.0331008
-0.0330485
-0.0329966
-0.0329446
-0.0328931
-0.032841
-0.032789
-0.0327356
-0.0326815
-0.0326255
-0.0325683
-0.0325088
-0.032448
-0.0323848
-0.0323205
-0.032254
-0.0321867
-0.0321176
-0.0320481
-0.0319772
-0.0319063
-0.0318344
-0.0317626
-0.03169
-0.0316178
-0.0315448
-0.0314722
-0.0313989
-0.0313258
-0.0312522
-0.0311786
-0.0311043
-0.03103
-0.0309549
-0.0308794
-0.030803
-0.0307261
-0.030648
-0.0305691
-0.0304889
-0.0304078
-0.0303253
-0.0302419
-0.0301571
-0.0300717
-0.0299848
-0.0298976
-0.0298091
-0.0297206
-0.0296308
-0.0295415
-0.0294511
-0.0293614
-0.0292712
-0.0291822
-0.0290933
-0.0290061
-0.0289197
-0.0288354
-0.0287525
-0.0286719
-0.0285931
-0.028517
-0.0284426
-0.0283709
-0.0283011
-0.0282343
-0.0281697
-0.0281086
-0.0280502
-0.027996
-0.0279454
-0.0278998
-0.0278585
-0.0278229
-0.0277923
-0.0277678
-0.0277489
-0.0277362
-0.0277293
-0.0277287
-0.0277339
-0.0277452
-0.0277623
-0.0277852
-0.0278133
-0.0278463
-0.0278833
-0.0279238
-0.0279663
-0.0280102
-0.0280544
-0.028099
-0.0281448
-0.028194
-0.0282512
-0.0283212
-0.02841
-0.0285059
-0.0337646
-0.0338085
-0.0338534
-0.033891
-0.0339212
-0.0339412
-0.03395
-0.0339479
-0.0339362
-0.0339159
-0.0338879
-0.0338538
-0.0338137
-0.0337695
-0.0337233
-0.0336765
-0.0336301
-0.0335842
-0.0335383
-0.0334923
-0.0334453
-0.0333981
-0.0333508
-0.0333039
-0.0332578
-0.0332124
-0.0331675
-0.0331227
-0.0330776
-0.0330316
-0.0329846
-0.0329361
-0.0328861
-0.0328343
-0.0327809
-0.0327255
-0.0326689
-0.0326105
-0.0325513
-0.0324904
-0.0324294
-0.0323669
-0.0323047
-0.0322412
-0.0321782
-0.032114
-0.0320504
-0.0319856
-0.0319215
-0.0318561
-0.0317912
-0.031725
-0.0316591
-0.0315918
-0.0315244
-0.0314557
-0.0313864
-0.0313157
-0.031244
-0.031171
-0.0310967
-0.0310212
-0.0309442
-0.0308665
-0.0307871
-0.0307074
-0.0306261
-0.0305449
-0.0304622
-0.03038
-0.0302965
-0.0302138
-0.0301302
-0.0300476
-0.0299646
-0.0298829
-0.0298015
-0.0297217
-0.0296428
-0.0295658
-0.0294903
-0.0294172
-0.0293458
-0.0292772
-0.0292104
-0.0291466
-0.0290849
-0.0290265
-0.0289706
-0.0289183
-0.0288691
-0.0288242
-0.0287831
-0.0287471
-0.0287157
-0.0286901
-0.0286698
-0.0286556
-0.0286474
-0.0286456
-0.02865
-0.0286608
-0.0286781
-0.0287016
-0.0287315
-0.0287672
-0.0288086
-0.0288547
-0.0289053
-0.0289588
-0.0290145
-0.029071
-0.0291279
-0.0291846
-0.0292427
-0.0293045
-0.0293746
-0.0294581
-0.0295605
-0.0296688
-0.0340583
-0.0340982
-0.0341395
-0.0341748
-0.0342037
-0.0342233
-0.0342323
-0.0342308
-0.0342197
-0.0342003
-0.0341739
-0.0341407
-0.0341018
-0.0340591
-0.0340142
-0.0339692
-0.0339247
-0.0338813
-0.0338388
-0.0337963
-0.0337537
-0.0337107
-0.0336681
-0.0336262
-0.0335857
-0.0335461
-0.0335081
-0.0334702
-0.0334331
-0.0333952
-0.033357
-0.0333171
-0.0332764
-0.0332335
-0.0331896
-0.0331433
-0.033096
-0.0330466
-0.0329965
-0.0329446
-0.0328923
-0.0328387
-0.0327849
-0.0327299
-0.032675
-0.0326192
-0.0325633
-0.0325066
-0.0324498
-0.0323922
-0.0323344
-0.0322756
-0.0322163
-0.0321558
-0.0320947
-0.0320321
-0.0319686
-0.0319035
-0.0318372
-0.0317693
-0.0317004
-0.0316297
-0.0315582
-0.0314851
-0.0314115
-0.0313365
-0.0312615
-0.0311852
-0.0311093
-0.0310324
-0.0309562
-0.0308795
-0.0308036
-0.0307275
-0.0306525
-0.0305777
-0.0305044
-0.0304316
-0.0303607
-0.0302907
-0.0302229
-0.0301564
-0.0300926
-0.0300303
-0.029971
-0.0299137
-0.0298597
-0.0298083
-0.0297605
-0.029716
-0.0296757
-0.0296395
-0.0296082
-0.0295818
-0.029561
-0.0295458
-0.029537
-0.0295343
-0.0295383
-0.0295488
-0.0295663
-0.0295903
-0.0296213
-0.0296588
-0.0297028
-0.0297528
-0.0298086
-0.0298695
-0.029935
-0.0300035
-0.0300749
-0.0301472
-0.0302204
-0.0302936
-0.0303679
-0.0304456
-0.0305299
-0.0306267
-0.0307401
-0.030857
-0.034366
-0.0344023
-0.0344401
-0.0344731
-0.0345009
-0.0345202
-0.0345294
-0.0345286
-0.0345187
-0.0345004
-0.0344749
-0.0344434
-0.0344062
-0.0343649
-0.0343218
-0.0342783
-0.0342357
-0.0341946
-0.0341547
-0.0341156
-0.0340771
-0.0340383
-0.034
-0.0339629
-0.0339273
-0.0338937
-0.0338616
-0.033831
-0.0338011
-0.0337715
-0.0337413
-0.0337105
-0.0336782
-0.0336447
-0.0336092
-0.0335724
-0.0335335
-0.0334935
-0.0334515
-0.0334088
-0.0333642
-0.0333194
-0.0332729
-0.0332265
-0.0331784
-0.0331307
-0.0330814
-0.0330324
-0.0329819
-0.0329315
-0.0328796
-0.0328274
-0.0327736
-0.0327192
-0.0326632
-0.0326061
-0.0325474
-0.0324872
-0.0324257
-0.0323624
-0.0322982
-0.0322321
-0.0321656
-0.0320972
-0.0320289
-0.0319589
-0.0318895
-0.0318188
-0.0317489
-0.0316782
-0.0316084
-0.0315384
-0.0314695
-0.0314006
-0.031333
-0.0312657
-0.0311999
-0.0311346
-0.0310711
-0.0310084
-0.0309479
-0.0308885
-0.0308318
-0.0307767
-0.0307247
-0.0306752
-0.0306293
-0.0305865
-0.030548
-0.0305133
-0.0304836
-0.0304584
-0.0304387
-0.0304243
-0.0304159
-0.0304135
-0.0304177
-0.0304284
-0.030446
-0.0304706
-0.0305021
-0.0305407
-0.030586
-0.0306383
-0.0306968
-0.0307616
-0.0308316
-0.0309069
-0.0309858
-0.0310681
-0.0311519
-0.031237
-0.0313217
-0.0314068
-0.0314927
-0.0315825
-0.0316796
-0.0317896
-0.031917
-0.0320468
-0.0346885
-0.034721
-0.0347552
-0.0347858
-0.0348125
-0.0348316
-0.0348413
-0.0348414
-0.0348323
-0.0348154
-0.034792
-0.0347617
-0.0347262
-0.0346866
-0.0346452
-0.0346034
-0.0345627
-0.0345234
-0.034486
-0.0344501
-0.0344148
-0.03438
-0.034346
-0.0343133
-0.0342825
-0.0342543
-0.0342279
-0.0342041
-0.034181
-0.0341593
-0.0341368
-0.0341146
-0.0340905
-0.0340659
-0.0340389
-0.0340109
-0.0339804
-0.0339489
-0.0339151
-0.0338804
-0.0338438
-0.0338064
-0.0337675
-0.033728
-0.0336871
-0.0336458
-0.0336034
-0.0335604
-0.0335162
-0.0334714
-0.0334253
-0.0333783
-0.0333299
-0.0332803
-0.0332291
-0.0331766
-0.0331223
-0.0330667
-0.0330094
-0.0329509
-0.0328908
-0.0328299
-0.0327676
-0.032705
-0.0326411
-0.0325775
-0.032513
-0.0324491
-0.0323847
-0.0323213
-0.0322579
-0.0321957
-0.0321336
-0.0320731
-0.0320128
-0.0319543
-0.0318962
-0.03184
-0.0317844
-0.0317311
-0.0316786
-0.0316289
-0.0315806
-0.0315355
-0.0314926
-0.0314535
-0.0314175
-0.031386
-0.0313582
-0.0313354
-0.0313172
-0.0313045
-0.031297
-0.0312954
-0.0312997
-0.0313103
-0.0313274
-0.0313511
-0.0313817
-0.0314192
-0.0314638
-0.0315153
-0.0315738
-0.0316389
-0.0317107
-0.0317886
-0.0318724
-0.0319613
-0.0320548
-0.0321518
-0.0322511
-0.0323518
-0.0324529
-0.0325541
-0.0326561
-0.0327606
-0.0328716
-0.0329932
-0.0331309
-0.0332675
-0.035024
-0.0350532
-0.0350838
-0.0351121
-0.0351377
-0.0351568
-0.0351671
-0.0351681
-0.0351605
-0.0351453
-0.0351229
-0.0350951
-0.0350615
-0.0350239
-0.0349842
-0.0349443
-0.0349052
-0.0348678
-0.0348324
-0.0347989
-0.0347667
-0.0347358
-0.0347057
-0.0346772
-0.034651
-0.0346274
-0.0346069
-0.0345886
-0.0345726
-0.0345574
-0.0345431
-0.0345281
-0.0345128
-0.0344957
-0.0344775
-0.0344571
-0.0344353
-0.0344111
-0.0343857
-0.0343578
-0.0343291
-0.034298
-0.0342664
-0.0342328
-0.0341988
-0.0341629
-0.0341268
-0.0340888
-0.0340505
-0.0340104
-0.0339695
-0.0339269
-0.0338832
-0.0338378
-0.033791
-0.0337426
-0.0336925
-0.0336413
-0.0335882
-0.0335344
-0.0334787
-0.0334229
-0.0333653
-0.0333082
-0.0332498
-0.0331921
-0.0331336
-0.0330762
-0.0330185
-0.0329622
-0.032906
-0.0328515
-0.0327973
-0.032745
-0.0326931
-0.0326433
-0.032594
-0.032547
-0.0325005
-0.0324566
-0.0324138
-0.0323739
-0.0323358
-0.0323011
-0.0322692
-0.0322413
-0.0322173
-0.0321978
-0.0321831
-0.0321733
-0.0321689
-0.0321698
-0.0321765
-0.0321888
-0.0322071
-0.0322314
-0.0322622
-0.0322992
-0.0323431
-0.0323935
-0.0324511
-0.0325154
-0.0325868
-0.0326647
-0.0327496
-0.0328404
-0.0329374
-0.0330392
-0.0331458
-0.0332552
-0.0333673
-0.03348
-0.0335933
-0.0337064
-0.0338204
-0.0339375
-0.0340612
-0.0341966
-0.0343481
-0.0344976
-0.0353735
-0.0353991
-0.0354261
-0.0354519
-0.0354766
-0.0354957
-0.0355066
-0.0355089
-0.0355026
-0.035489
-0.0354692
-0.0354429
-0.0354113
-0.035376
-0.0353383
-0.0353004
-0.0352629
-0.0352273
-0.0351935
-0.0351622
-0.035133
-0.0351051
-0.0350789
-0.0350544
-0.0350324
-0.0350132
-0.0349977
-0.0349847
-0.0349748
-0.034966
-0.0349589
-0.034951
-0.0349434
-0.0349338
-0.0349235
-0.0349106
-0.0348965
-0.0348795
-0.0348612
-0.0348403
-0.034818
-0.0347935
-0.0347678
-0.0347401
-0.0347115
-0.0346812
-0.0346499
-0.0346171
-0.0345832
-0.0345478
-0.0345111
-0.0344728
-0.0344332
-0.0343918
-0.034349
-0.0343045
-0.0342589
-0.0342115
-0.0341632
-0.0341135
-0.0340633
-0.0340119
-0.0339605
-0.0339082
-0.0338565
-0.0338044
-0.0337533
-0.0337022
-0.0336526
-0.0336033
-0.0335557
-0.0335089
-0.033464
-0.0334198
-0.0333779
-0.0333367
-0.033298
-0.03326
-0.0332247
-0.0331905
-0.0331593
-0.0331298
-0.0331038
-0.0330806
-0.0330614
-0.033046
-0.0330351
-0.0330289
-0.0330276
-0.0330316
-0.0330407
-0.0330554
-0.0330755
-0.0331015
-0.0331332
-0.033171
-0.0332149
-0.0332652
-0.0333221
-0.0333857
-0.0334562
-0.0335336
-0.0336179
-0.0337089
-0.0338066
-0.0339104
-0.0340202
-0.0341349
-0.0342545
-0.034377
-0.0345026
-0.0346291
-0.0347568
-0.0348844
-0.0350135
-0.0351454
-0.0352836
-0.0354326
-0.0355967
-0.0357564
-0.0357353
-0.0357576
-0.0357809
-0.0358045
-0.0358282
-0.0358474
-0.0358593
-0.0358627
-0.0358582
-0.0358464
-0.0358281
-0.0358046
-0.0357755
-0.0357424
-0.0357071
-0.0356711
-0.0356357
-0.0356016
-0.0355696
-0.0355401
-0.035513
-0.0354882
-0.0354656
-0.0354448
-0.0354266
-0.0354118
-0.0354003
-0.0353926
-0.0353875
-0.0353851
-0.0353836
-0.0353831
-0.0353817
-0.03538
-0.0353761
-0.035371
-0.035363
-0.0353535
-0.035341
-0.035327
-0.0353101
-0.0352918
-0.0352711
-0.0352491
-0.035225
-0.0351999
-0.0351728
-0.0351446
-0.0351146
-0.0350834