/*--------------------------------*- C++ -*---------------------------------*\ 
| ========                 |                                                 | 
| \      /  F ield         | OpenFOAM: The Open Source CFD Toolbox           | 
|  \    /   O peration     | Version:  v1812                                 | 
|   \  /    A nd           | Web:      www.OpenFOAM.com                      | 
|    \/     M anipulation  |                                                 | 
\*--------------------------------------------------------------------------*/ 
FoamFile
{
    version     2.0;
    format      ascii;
    class       volVectorField;
    location    "/home/james/dafoam/myRuns/bezier_coanda_opt/0.00000000001/";
    object      sens_CL_shapey;
}
// * * * * * * * * * * * * * * * * * * * * * * * * * * * * * * * * * * * * * //

dimensions      [0 0 0 0 0 0 0];
internalField   uniform (0 0 0);
boundaryField
{
    allWalls
    {
        type  wall;
        value nonuniform List<vector>
164
(
(-0.133759 0.023506 0.000708)
(-0.264840 0.063511 0.000629)
(-0.179105 0.051834 0.000639)
(0.030025 -0.031229 0.000718)
(0.038945 -0.037833 0.000708)
(-0.043544 0.044349 0.001096)
(-0.095677 0.171702 0.001096)
(-0.095165 0.232648 0.001308)
(-0.064970 0.208598 0.002138)
(-0.049325 0.209968 0.002628)
(-0.038119 0.214875 0.003339)
(-0.028703 0.215590 0.004187)
(-0.021990 0.221053 0.004697)
(-0.017025 0.234585 0.005185)
(-0.011980 0.250286 0.005952)
(-0.007229 0.275318 0.006609)
(-0.002168 0.311824 0.007367)
(0.003856 0.364395 0.007935)
(0.012351 0.456249 0.008417)
(0.021414 0.494537 0.008205)
(0.028712 0.491535 0.006044)
(0.037647 0.550132 0.003789)
(0.044316 0.567791 0.002513)
(0.049979 0.570190 0.001518)
(0.056927 0.593994 0.000771)
(0.062728 0.604514 0.000234)
(0.071836 0.644748 -0.000101)
(0.079676 0.670874 -0.000213)
(0.086789 0.686372 -0.000213)
(0.096344 0.719048 -0.000213)
(0.107704 0.760607 -0.000213)
(0.129020 0.867697 -0.000399)
(0.138777 0.890671 -0.000585)
(0.135715 0.821985 -0.000585)
(0.142476 0.815051 -0.000585)
(0.157305 0.848761 -0.000585)
(0.168001 0.845174 -0.000495)
(0.136335 0.634015 -0.000406)
(0.066518 0.178540 -0.000406)
(0.204595 0.980119 -0.000406)
(0.051270 -0.076776 -0.000406)
(-0.130507 0.080796 -0.000406)
(-0.229715 0.184404 -0.000406)
(-0.197940 0.346547 -0.000495)
(-0.126018 0.438647 -0.000585)
(0.071128 0.262521 -0.000585)
(0.137986 -0.189024 -0.000585)
(0.073496 -0.396550 -0.000585)
(0.038003 -0.289208 -0.000585)
(0.000558 -0.087116 -0.000399)
(-0.016242 0.036841 -0.000213)
(-0.023235 0.115525 -0.000213)
(-0.027901 0.183396 -0.000213)
(-0.029941 0.236725 -0.000213)
(-0.029311 0.272814 0.000810)
(-0.026931 0.296715 0.001942)
(-0.023741 0.317245 0.002154)
(-0.019275 0.320049 0.002344)
(-0.016815 0.396251 0.002496)
(-0.011176 0.352873 0.002823)
(-0.002710 0.313205 0.002251)
(0.002350 0.347084 0.001162)
(0.006025 0.254668 0.001170)
(0.010609 0.225578 0.000962)
(0.014672 0.209786 0.000336)
(0.017978 0.187354 0.000070)
(0.020378 0.167682 -0.000119)
(0.023800 0.155226 -0.000195)
(0.025571 0.140261 -0.000285)
(0.028526 0.127850 -0.000400)
(0.034036 0.136148 -0.000119)
(0.029794 0.102612 -0.000143)
(0.032454 0.071745 0.000118)
(0.035704 0.021758 0.000708)
(0.009954 -0.082904 0.000708)
(0.017935 -0.072863 0.000708)
(0.094977 0.118970 0.000498)
(0.051017 0.178669 0.000498)
(-0.046947 0.058897 0.000708)
(-0.059996 0.007220 0.000708)
(0.131230 1.211819 -0.000406)
(-0.103560 0.285220 -0.000455)
(-0.032836 0.597741 -0.000504)
(0.059030 1.904203 -0.000504)
(0.089253 2.849569 -0.000504)
(0.086042 2.011172 -0.000504)
(0.139570 0.448609 -0.000504)
(0.787349 11.508986 -0.000504)
(2.985516 50.325946 -0.000504)
(-85.425324 -13.384133 -0.000303)
(863.055975 -1375.689098 -0.000303)
(-99.363996 -50.661204 -0.000103)
(-812.697872 1073.720731 -0.000303)
(21.597343 569.776546 -0.000103)
(29.633500 259.062166 -0.000103)
(12.871139 98.363564 -0.000103)
(3.933559 21.599829 -0.000103)
(4.731929 14.038606 -0.000103)
(3.038397 8.367374 -0.000103)
(-0.555154 -1.900882 -0.000103)
(0.314335 0.261945 -0.000103)
(4.286955 7.757900 -0.000056)
(1.955949 4.077739 -0.000009)
(-0.656917 -0.314401 -0.000009)
(3.011947 4.127516 -0.000009)
(0.395978 1.496579 -0.000009)
(1.026784 2.262262 -0.000009)
(0.975080 1.413956 -0.000009)
(-0.046444 0.133036 -0.000009)
(1.442663 1.327217 -0.000009)
(1.465424 1.160717 -0.000009)
(3.621721 2.435505 -0.000009)
(8.015811 4.466115 -0.000009)
(12.758401 7.183626 -0.000009)
(-1.090806 1.718411 -0.000009)
(-17.485404 -5.599282 -0.000009)
(3.916337 0.840141 -0.000009)
(5.122057 2.138413 -0.000009)
(-11.540253 -2.625637 -0.000009)
(0.091293 -0.719166 -0.000009)
(7.659055 -0.662450 -0.000009)
(16.950260 -2.024020 -0.000009)
(50.717383 -8.716735 -0.000009)
(18.389952 -13.680491 -0.000009)
(-92.800340 22.664188 -0.000009)
(-79.594342 45.000648 -0.000009)
(-16.799829 -0.543881 -0.000009)
(6.412610 -29.025661 -0.000009)
(33.701930 -21.235625 -0.000009)
(16.604152 -9.720697 -0.000009)
(-0.615277 -1.552928 -0.000009)
(-1.960319 -0.843664 -0.000009)
(0.277104 -1.903079 -0.000009)
(2.404731 -2.341494 -0.000009)
(2.294548 -2.049690 -0.000009)
(3.431459 -2.731964 -0.000009)
(2.971806 -2.216591 -0.000009)
(2.184796 -1.510064 -0.000009)
(1.587537 -1.104282 -0.000009)
(1.133591 -0.864177 -0.000009)
(0.765696 -0.698279 -0.000009)
(0.545607 -0.660955 -0.000009)
(0.351560 -0.533617 -0.000056)
(0.171271 -0.321649 -0.000103)
(0.070366 -0.188083 -0.000103)
(-0.001257 -0.064001 -0.000103)
(-0.048351 0.041303 -0.000103)
(-0.067256 0.106744 -0.000103)
(-0.065600 0.120237 -0.000103)
(-0.048307 0.080460 -0.000103)
(-0.029407 0.042638 -0.000103)
(-159.812111 0.020340 -0.000303)
(159.791190 0.031430 -0.000504)
(0.059378 0.133873 -0.000303)
(0.032482 0.327972 -0.000303)
(-0.038187 0.334096 -0.000504)
(-0.012665 0.182818 -0.000504)
(-0.008007 0.122226 -0.000504)
(-0.005589 0.075826 -0.000504)
(-0.002471 0.046167 -0.000504)
(-0.000349 0.029667 -0.000504)
(0.001083 0.030720 -0.000504)
(0.010412 0.037208 -0.000455)
(0.058550 -0.129298 -0.000406)
)
;
    }
}
