/*--------------------------------*- C++ -*---------------------------------*\ 
| ========                 |                                                 | 
| \      /  F ield         | OpenFOAM: The Open Source CFD Toolbox           | 
|  \    /   O peration     | Version:  v1812                                 | 
|   \  /    A nd           | Web:      www.OpenFOAM.com                      | 
|    \/     M anipulation  |                                                 | 
\*--------------------------------------------------------------------------*/ 
FoamFile
{
    version     2.0;
    format      ascii;
    class       volVectorField;
    location    "/home/james/dafoam/myRuns/bezier_coanda_opt/0.00000000001/";
    object      sens_CL_shapey;
}
// * * * * * * * * * * * * * * * * * * * * * * * * * * * * * * * * * * * * * //

dimensions      [0 0 0 0 0 0 0];
internalField   uniform (0 0 0);
boundaryField
{
    allWalls
    {
        type  wall;
        value nonuniform List<vector>
164
(
(-0.169032 0.042723 0.000972)
(-0.492484 0.105248 0.001026)
(-0.494100 0.126522 0.001042)
(0.234289 -0.235191 0.001063)
(0.341063 -0.181658 0.001089)
(0.009171 -0.029192 0.001119)
(0.010332 -0.032096 0.001152)
(-0.141978 0.281542 0.001188)
(-0.123303 0.310936 0.001228)
(-0.080282 0.260915 0.001270)
(-0.055992 0.248347 0.002309)
(-0.039530 0.238056 0.003506)
(-0.027795 0.231494 0.003881)
(-0.019575 0.237179 0.004280)
(-0.013622 0.254601 0.004696)
(-0.007943 0.277881 0.005114)
(-0.002313 0.310406 0.006517)
(0.004323 0.360291 0.008215)
(0.012850 0.435077 0.009182)
(0.023479 0.506552 0.009670)
(0.031504 0.505941 0.009007)
(0.037723 0.495970 0.006175)
(0.047339 0.548669 0.003292)
(0.053692 0.558451 0.001993)
(0.057219 0.540535 0.001017)
(0.068069 0.592415 -0.000039)
(0.076051 0.618051 -0.000534)
(0.081496 0.617315 -0.000734)
(0.091295 0.649562 -0.001480)
(0.103113 0.690941 -0.001371)
(0.125958 0.802329 -0.000870)
(0.136924 0.829746 -0.000852)
(0.134493 0.764806 -0.000723)
(0.141885 0.761007 -0.000619)
(0.153947 0.778503 -0.000619)
(0.176981 0.837863 -0.000619)
(0.186581 0.815479 -0.000619)
(0.116036 0.448154 -0.000619)
(-0.013028 -0.255009 -0.000619)
(0.288031 1.330477 -0.000373)
(0.049663 -0.066893 0.000125)
(-0.118013 0.089606 0.000095)
(-0.195376 0.146105 0.000145)
(-0.194248 0.356094 0.000188)
(-0.167150 0.426081 0.000191)
(0.092220 -0.051255 -0.000213)
(0.191167 -0.481613 -0.000194)
(0.051917 -0.294346 0.000337)
(-0.003831 -0.094170 0.000365)
(-0.008444 -0.040408 0.000318)
(-0.017745 0.039861 0.000594)
(-0.027797 0.131871 0.000934)
(-0.032615 0.200378 0.001087)
(-0.033676 0.246801 0.001308)
(-0.032727 0.279531 0.001476)
(-0.030225 0.302425 0.001185)
(-0.026936 0.322825 0.001338)
(-0.022092 0.323393 0.002038)
(-0.020124 0.406635 0.002029)
(-0.014304 0.383017 0.001217)
(-0.004966 0.312952 0.000448)
(0.000200 0.327801 0.000021)
(0.005693 0.272416 -0.000337)
(0.010470 0.238461 -0.000586)
(0.013450 0.204534 0.000168)
(0.017438 0.186050 0.001007)
(0.021879 0.177557 0.000987)
(0.028728 0.177416 0.000986)
(0.030025 0.155055 0.000998)
(0.030216 0.128249 0.000679)
(0.037323 0.135548 0.000391)
(0.033814 0.102927 0.000468)
(0.029795 0.051973 0.000541)
(0.029702 -0.005570 0.000611)
(0.012005 -0.080352 0.000676)
(0.042093 -0.031345 0.000736)
(0.112939 0.148638 0.000791)
(0.036635 0.174525 0.000840)
(-0.048523 0.062691 0.000883)
(-0.012805 0.021484 0.000914)
(0.221762 1.590091 -0.000373)
(-0.179244 -0.239350 -0.000564)
(-0.062181 0.244480 -0.000510)
(0.063989 1.846910 -0.000510)
(0.093403 2.727268 -0.000510)
(0.084713 1.585616 -0.000510)
(0.150281 -0.371068 -0.000510)
(0.857853 10.726051 -0.000510)
(3.245424 51.902760 -0.000510)
(-80.525105 -12.540414 -0.000301)
(731.890885 -1281.790077 -0.000510)
(-95.848948 -36.000974 -0.000301)
(-682.875101 1011.435941 -0.000301)
(15.150908 475.878611 -0.000093)
(23.929124 234.772066 -0.000093)
(8.835329 84.793505 -0.000093)
(2.152164 13.812364 -0.000093)
(4.366605 13.363278 -0.000093)
(2.803026 7.463006 -0.000093)
(0.231443 0.299981 -0.000093)
(0.637476 1.283502 -0.000093)
(4.156083 7.773619 -0.000043)
(2.179891 4.536941 0.000007)
(-0.149154 0.533711 0.000007)
(2.774635 4.086280 0.000007)
(0.165740 1.277345 0.000007)
(1.077710 2.219582 0.000007)
(1.610845 2.100576 0.000007)
(0.343942 0.572445 0.000007)
(1.157220 1.186438 0.000007)
(0.980797 0.930670 0.000007)
(3.197620 2.266404 0.000007)
(5.757012 3.406248 0.000007)
(10.035872 5.513592 0.000007)
(3.207209 3.059829 0.000007)
(-10.320860 -2.778045 0.000007)
(2.951168 0.797810 0.000007)
(7.238617 2.503393 0.000007)
(-3.161283 -0.684350 0.000007)
(5.311081 0.281634 0.000007)
(9.540016 0.051399 0.000007)
(19.329188 -1.078370 0.000007)
(68.289882 -6.614302 0.000007)
(56.778864 -15.174260 0.000007)
(-106.504032 8.264241 0.000007)
(-119.474116 39.606850 0.000007)
(-23.900162 9.522050 0.000007)
(-6.688293 -23.349723 0.000007)
(27.924007 -21.189750 0.000007)
(20.192472 -11.591181 0.000007)
(0.114151 -0.653463 0.000007)
(0.351659 -0.756916 0.000007)
(0.048313 -1.341183 0.000007)
(1.106595 -1.770439 0.000007)
(3.189349 -2.822809 0.000007)
(2.821180 -2.357029 0.000007)
(2.842607 -2.231656 0.000007)
(2.272619 -1.700813 0.000007)
(1.664454 -1.272664 0.000007)
(1.167552 -0.968173 0.000007)
(0.758608 -0.726127 0.000007)
(0.559656 -0.706868 0.000007)
(0.404241 -0.643158 -0.000043)
(0.195109 -0.375311 -0.000093)
(0.076569 -0.208423 -0.000093)
(0.022689 -0.132968 -0.000093)
(-0.032028 -0.010077 -0.000093)
(-0.065417 0.098647 -0.000093)
(-0.069587 0.134325 -0.000093)
(-0.053456 0.100454 -0.000093)
(-0.031378 0.051578 -0.000093)
(-159.810937 0.022742 -0.000301)
(159.787853 0.041833 -0.000301)
(0.129337 0.036644 -0.000093)
(0.099219 0.239226 -0.000301)
(-0.042103 0.359812 -0.000510)
(-0.010372 0.196868 -0.000510)
(-0.005649 0.133694 -0.000510)
(-0.004052 0.075383 -0.000510)
(-0.001083 0.038270 -0.000510)
(0.000523 0.024086 -0.000510)
(0.001770 0.023216 -0.000510)
(0.010349 0.029361 -0.000564)
(0.054750 -0.127989 -0.000228)
)
;
    }
}
