/*--------------------------------*- C++ -*---------------------------------*\ 
| ========                 |                                                 | 
| \      /  F ield         | OpenFOAM: The Open Source CFD Toolbox           | 
|  \    /   O peration     | Version:  v1812                                 | 
|   \  /    A nd           | Web:      www.OpenFOAM.com                      | 
|    \/     M anipulation  |                                                 | 
\*--------------------------------------------------------------------------*/ 
FoamFile
{
    version     2.0;
    format      ascii;
    class       volVectorField;
    location    "/home/james/dafoam/myRuns/bezier_coanda_opt/0.00000000001/";
    object      sens_CL_shapey;
}
// * * * * * * * * * * * * * * * * * * * * * * * * * * * * * * * * * * * * * //

dimensions      [0 0 0 0 0 0 0];
internalField   uniform (0 0 0);
boundaryField
{
    allWalls
    {
        type  wall;
        value nonuniform List<vector>
164
(
(-0.184590 0.048821 0.000726)
(-0.568472 0.119546 0.000335)
(-0.587186 0.144074 0.000051)
(0.282715 -0.282355 0.000442)
(0.433583 -0.232527 0.000726)
(0.051890 -0.075378 0.000726)
(0.039600 -0.075599 0.000726)
(-0.157566 0.296361 0.001097)
(-0.136961 0.331425 0.001970)
(-0.091117 0.280131 0.002791)
(-0.062365 0.261080 0.003313)
(-0.043069 0.243681 0.003830)
(-0.029418 0.232113 0.004754)
(-0.020687 0.238025 0.005469)
(-0.014399 0.254446 0.006423)
(-0.008537 0.277657 0.007198)
(-0.002977 0.309436 0.007490)
(0.003701 0.357389 0.008159)
(0.012729 0.428520 0.009388)
(0.023391 0.500289 0.009274)
(0.031196 0.502567 0.006412)
(0.037722 0.492266 0.003896)
(0.047092 0.540112 0.002649)
(0.053157 0.544866 0.001675)
(0.057043 0.529434 0.000943)
(0.067851 0.578530 0.000416)
(0.075782 0.601043 0.000082)
(0.081701 0.601760 -0.000036)
(0.093101 0.642260 -0.000036)
(0.115588 0.753823 -0.000036)
(0.128058 0.793804 -0.000036)
(0.127061 0.736081 -0.000248)
(0.136048 0.739929 -0.000459)
(0.146369 0.750940 -0.000459)
(0.158494 0.764432 -0.000459)
(0.185745 0.835826 -0.000459)
(0.195437 0.808285 -0.000369)
(0.108373 0.383766 -0.000278)
(-0.046217 -0.417362 -0.000278)
(0.323581 1.457104 -0.000278)
(0.052523 -0.067564 -0.000278)
(-0.116253 0.088727 -0.000278)
(-0.194135 0.140337 -0.000278)
(-0.192702 0.347329 -0.000369)
(-0.174657 0.434103 -0.000459)
(0.077127 -0.002572 -0.000459)
(0.189602 -0.451790 -0.000459)
(0.062867 -0.316631 -0.000459)
(0.002431 -0.120053 -0.000472)
(-0.005287 -0.057436 -0.000261)
(-0.015881 0.027075 -0.000036)
(-0.026563 0.121771 -0.000036)
(-0.032032 0.193225 -0.000036)
(-0.033575 0.242246 -0.000036)
(-0.032868 0.276669 0.001066)
(-0.030516 0.300602 0.002282)
(-0.027284 0.321826 0.002501)
(-0.022444 0.322893 0.002687)
(-0.020593 0.408396 0.002823)
(-0.014152 0.383768 0.003185)
(-0.004685 0.312184 0.002283)
(-0.000099 0.329610 0.000802)
(0.005649 0.273463 0.001133)
(0.010684 0.241425 0.000819)
(0.014185 0.207965 0.000049)
(0.018518 0.185789 0.000056)
(0.023269 0.179007 -0.000186)
(0.030321 0.179591 -0.000365)
(0.031324 0.156542 -0.000392)
(0.031277 0.129330 -0.000472)
(0.039534 0.138191 -0.000631)
(0.034830 0.103196 -0.000511)
(0.028959 0.047697 -0.000549)
(0.030075 -0.007292 -0.000006)
(0.013027 -0.081496 0.000192)
(0.045079 -0.029022 0.000192)
(0.116344 0.155326 0.000726)
(0.033935 0.180786 0.000726)
(-0.050499 0.067667 0.000726)
(-0.004221 0.025364 0.000726)
(0.260848 1.732073 -0.000278)
(-0.210322 -0.429184 -0.000385)
(-0.074111 0.115687 -0.000491)
(0.066493 1.830081 -0.000491)
(0.095999 2.691599 -0.000491)
(0.085444 1.434851 -0.000491)
(0.156261 -0.671502 -0.000491)
(0.888253 10.462987 -0.000491)
(3.353748 52.615562 -0.000491)
(-78.976199 -14.572076 -0.000289)
(678.142118 -1240.715194 -0.000491)
(-94.613954 -35.960999 -0.000289)
(-630.057440 984.787794 -0.000289)
(13.148377 441.908571 -0.000086)
(22.000839 223.980108 -0.000086)
(7.686243 80.039090 -0.000086)
(1.756268 11.967136 -0.000086)
(4.281690 13.160955 -0.000086)
(2.794750 7.331159 -0.000086)
(0.556246 1.173393 -0.000086)
(0.792258 1.742549 -0.000086)
(4.135764 7.817097 -0.000040)
(2.324251 4.783418 0.000006)
(0.029237 0.776812 0.000006)
(2.628519 3.932347 0.000006)
(0.050672 1.125228 0.000006)
(1.112770 2.199056 0.000006)
(1.856072 2.365303 0.000006)
(0.554156 0.820502 0.000006)
(1.181785 1.279923 0.000006)
(0.881116 0.924328 0.000006)
(2.884626 2.117772 0.000006)
(4.990796 3.046305 0.000006)
(8.784537 4.835792 0.000006)
(4.017694 3.197060 0.000006)
(-7.656177 -1.798347 0.000006)
(2.749323 0.837411 0.000006)
(7.629469 2.533040 0.000006)
(-0.043621 0.001496 0.000006)
(7.348547 0.655604 0.000006)
(9.301559 0.237626 0.000006)
(17.189700 -0.866890 0.000006)
(72.722262 -4.920918 0.000006)
(75.208822 -15.020473 0.000006)
(-99.412428 2.650020 0.000006)
(-135.266647 35.862855 0.000006)
(-34.430173 12.289864 0.000006)
(-9.299977 -20.060000 0.000006)
(25.939342 -20.214442 0.000006)
(20.683247 -11.748296 0.000006)
(0.128835 -0.660675 0.000006)
(-0.071249 -0.630826 0.000006)
(-0.096731 -1.448712 0.000006)
(0.948108 -1.833497 0.000006)
(2.953415 -2.751868 0.000006)
(2.665087 -2.317201 0.000006)
(2.807340 -2.303547 0.000006)
(2.296900 -1.806757 0.000006)
(1.640895 -1.299291 0.000006)
(1.156276 -0.990133 0.000006)
(0.762217 -0.750363 0.000006)
(0.575195 -0.741718 0.000006)
(0.392067 -0.616442 -0.000040)
(0.195188 -0.380511 -0.000086)
(0.113866 -0.292230 -0.000086)
(0.028382 -0.140396 -0.000086)
(-0.033385 0.001723 -0.000086)
(-0.062945 0.096231 -0.000086)
(-0.068923 0.136095 -0.000086)
(-0.053411 0.103191 -0.000086)
(-0.030930 0.053095 -0.000086)
(-159.810552 0.023453 -0.000289)
(159.787449 0.045178 -0.000289)
(0.156699 0.005765 -0.000086)
(0.127989 0.213879 -0.000289)
(-0.039271 0.373351 -0.000491)
(-0.006670 0.205818 -0.000491)
(-0.002824 0.140947 -0.000491)
(-0.001987 0.078914 -0.000491)
(0.000564 0.039483 -0.000491)
(0.001755 0.025673 -0.000491)
(0.002699 0.024868 -0.000491)
(0.010986 0.030359 -0.000385)
(0.055063 -0.129256 -0.000278)
)
;
    }
}
