/*--------------------------------*- C++ -*---------------------------------*\ 
| ========                 |                                                 | 
| \      /  F ield         | OpenFOAM: The Open Source CFD Toolbox           | 
|  \    /   O peration     | Version:  v1812                                 | 
|   \  /    A nd           | Web:      www.OpenFOAM.com                      | 
|    \/     M anipulation  |                                                 | 
\*--------------------------------------------------------------------------*/ 
FoamFile
{
    version     2.0;
    format      ascii;
    class       volVectorField;
    location    "/home/james/dafoam/myRuns/bezier_coanda_opt/0.00000000001/";
    object      sens_CL_shapey;
}
// * * * * * * * * * * * * * * * * * * * * * * * * * * * * * * * * * * * * * //

dimensions      [0 0 0 0 0 0 0];
internalField   uniform (0 0 0);
boundaryField
{
    allWalls
    {
        type  wall;
        value nonuniform List<vector>
164
(
(-0.215280 0.047484 0.000771)
(-0.549241 0.109813 0.000454)
(-0.370251 0.079940 0.000245)
(0.252682 -0.218529 0.000561)
(0.309066 -0.199442 0.000771)
(0.038085 -0.042880 0.001030)
(-0.042015 0.029836 0.001030)
(-0.135538 0.276095 0.000771)
(-0.121970 0.315865 0.001445)
(-0.077530 0.262006 0.002726)
(-0.052928 0.243481 0.003667)
(-0.037708 0.236512 0.004543)
(-0.026545 0.230614 0.005379)
(-0.018519 0.235104 0.005634)
(-0.012363 0.254218 0.006142)
(-0.006874 0.276394 0.006967)
(-0.001798 0.309359 0.007648)
(0.004599 0.358192 0.008395)
(0.013495 0.434084 0.009430)
(0.023758 0.504190 0.009428)
(0.031027 0.501208 0.006617)
(0.037082 0.494710 0.003806)
(0.046217 0.546070 0.002567)
(0.052103 0.554005 0.001599)
(0.056142 0.543027 0.000872)
(0.064859 0.580340 0.000349)
(0.072945 0.609058 0.000033)
(0.079302 0.619981 -0.000067)
(0.087392 0.642098 -0.000067)
(0.098682 0.684210 -0.000067)
(0.119946 0.791464 -0.000067)
(0.130593 0.820926 -0.000280)
(0.128521 0.759781 -0.000494)
(0.134946 0.754178 -0.000494)
(0.144501 0.763222 -0.000494)
(0.166654 0.826348 -0.000494)
(0.180976 0.832094 -0.000403)
(0.113440 0.462364 -0.000311)
(-0.016647 -0.264579 -0.000311)
(0.276878 1.344989 -0.000311)
(0.049711 -0.067577 -0.000311)
(-0.120175 0.090476 -0.000311)
(-0.198571 0.151317 -0.000311)
(-0.197233 0.367159 -0.000403)
(-0.160429 0.418838 -0.000494)
(0.113167 -0.116018 -0.000494)
(0.196399 -0.525068 -0.000494)
(0.039595 -0.267973 -0.000494)
(-0.010958 -0.062751 -0.000508)
(-0.011924 -0.020561 -0.000294)
(-0.020169 0.056026 -0.000067)
(-0.029618 0.146067 -0.000067)
(-0.033828 0.211373 -0.000067)
(-0.034348 0.254784 -0.000067)
(-0.032962 0.285328 0.000982)
(-0.030228 0.306588 0.002140)
(-0.026777 0.325716 0.002343)
(-0.021869 0.325506 0.002512)
(-0.019704 0.406546 0.002626)
(-0.013401 0.383678 0.002867)
(-0.004197 0.314450 0.002018)
(0.000494 0.327199 0.000701)
(0.005842 0.271125 0.000256)
(0.010519 0.237463 -0.000061)
(0.013249 0.201754 -0.000281)
(0.018156 0.188083 -0.000232)
(0.024002 0.186547 -0.000188)
(0.027525 0.167278 -0.000338)
(0.028697 0.146718 -0.000458)
(0.031315 0.133071 -0.000519)
(0.037445 0.133874 -0.000548)
(0.034954 0.104591 -0.000588)
(0.030808 0.056053 0.000083)
(0.030812 -0.000582 0.000262)
(0.011445 -0.079721 0.000262)
(0.037153 -0.037975 0.000771)
(0.111044 0.145424 0.000771)
(0.039018 0.178241 0.000306)
(-0.046193 0.066004 0.000306)
(-0.014752 0.022815 0.000771)
(0.216585 1.615700 -0.000311)
(-0.171981 -0.231931 -0.000400)
(-0.058433 0.259150 -0.000490)
(0.064896 1.871900 -0.000490)
(0.094005 2.751675 -0.000490)
(0.085170 1.589853 -0.000490)
(0.150460 -0.386093 -0.000490)
(0.861316 10.831916 -0.000490)
(3.270300 52.281336 -0.000490)
(-80.780828 -18.174818 -0.000291)
(708.562664 -1255.604064 -0.000291)
(-95.636562 -48.243780 -0.000092)
(-660.629558 994.744882 -0.000291)
(15.638380 470.164753 -0.000092)
(23.946488 227.927981 -0.000092)
(9.383323 84.212490 -0.000092)
(2.682373 15.849923 -0.000092)
(4.455433 13.419337 -0.000092)
(2.964036 7.866915 -0.000092)
(0.335757 0.509304 -0.000092)
(0.745054 1.530833 -0.000092)
(4.170144 7.804151 -0.000045)
(2.237961 4.629561 0.000002)
(-0.072431 0.633726 0.000002)
(2.755371 4.067441 0.000002)
(0.189589 1.284865 0.000002)
(1.187836 2.314490 0.000002)
(1.684512 2.166773 0.000002)
(0.394329 0.603290 0.000002)
(1.196257 1.201970 0.000002)
(1.028841 0.953375 0.000002)
(3.254032 2.291473 0.000002)
(5.831126 3.444998 0.000002)
(9.852083 5.470299 0.000002)
(2.268934 2.649968 0.000002)
(-10.432861 -2.938473 0.000002)
(3.543312 0.979458 0.000002)
(6.938387 2.416960 0.000002)
(-3.064459 -0.719424 0.000002)
(5.195829 0.262507 0.000002)
(8.814929 -0.033288 0.000002)
(17.356846 -1.144517 0.000002)
(66.319258 -5.622775 0.000002)
(54.734667 -14.184024 0.000002)
(-94.897952 8.446210 0.000002)
(-113.644301 36.996939 0.000002)
(-29.547937 7.156389 0.000002)
(-3.166388 -22.363710 0.000002)
(27.236007 -19.628221 0.000002)
(17.065905 -10.350046 0.000002)
(-1.409056 -0.883409 0.000002)
(-0.747303 -1.305599 0.000002)
(-0.485213 -1.499117 0.000002)
(0.977945 -1.748836 0.000002)
(3.231432 -2.814331 0.000002)
(2.839430 -2.289691 0.000002)
(2.760256 -2.070729 0.000002)
(2.257450 -1.619933 0.000002)
(1.664122 -1.227130 0.000002)
(1.160993 -0.930473 0.000002)
(0.760118 -0.707309 0.000002)
(0.562969 -0.692006 0.000002)
(0.401417 -0.619170 -0.000045)
(0.195915 -0.359345 -0.000092)
(0.079484 -0.199500 -0.000092)
(0.025508 -0.125897 -0.000092)
(-0.028030 -0.008322 -0.000092)
(-0.060057 0.093609 -0.000092)
(-0.063869 0.126099 -0.000092)
(-0.048806 0.094168 -0.000092)
(-0.028479 0.048338 -0.000092)
(-159.809380 0.021202 -0.000291)
(159.788870 0.037727 -0.000490)
(0.121956 0.058434 -0.000291)
(0.093755 0.255894 -0.000291)
(-0.040213 0.347355 -0.000490)
(-0.011563 0.190064 -0.000490)
(-0.006618 0.127857 -0.000490)
(-0.004656 0.073030 -0.000490)
(-0.001566 0.039025 -0.000490)
(0.000237 0.024875 -0.000490)
(0.001597 0.024110 -0.000490)
(0.010366 0.030105 -0.000400)
(0.055193 -0.127419 -0.000311)
)
;
    }
}
