/*--------------------------------*- C++ -*----------------------------------*\
  =========                 |
  \\      /  F ield         | OpenFOAM: The Open Source CFD Toolbox
   \\    /   O peration     | Website:  https://openfoam.org
    \\  /    A nd           | Version:  9
     \\/     M anipulation  |
\*---------------------------------------------------------------------------*/
FoamFile
{
    format      ascii;
    class       volScalarField;
    location    "0.0025";
    object      alphat;
}
// * * * * * * * * * * * * * * * * * * * * * * * * * * * * * * * * * * * * * //

dimensions      [1 -1 -1 0 0 0 0];

internalField   nonuniform List<scalar> 
12072
(
0.0163755
0.0163756
0.0163759
0.0163761
0.0163764
0.0163766
0.0163768
0.016377
0.0163772
0.0163774
0.0163776
0.0163778
0.016378
0.0163782
0.0163783
0.0163785
0.0163787
0.0163789
0.016379
0.0163792
0.0163794
0.0163795
0.0163797
0.0163798
0.01638
0.0163801
0.0163802
0.0163804
0.0163805
0.0163806
0.0163808
0.0163809
0.016381
0.0163811
0.0163813
0.0163814
0.0163815
0.0163816
0.0163817
0.0163818
0.0163819
0.0163821
0.0163822
0.0163823
0.0163824
0.0163825
0.0163826
0.0163827
0.0163828
0.0163829
0.0163829
0.016383
0.0163831
0.0163832
0.0163833
0.0163834
0.0163835
0.0163836
0.0163837
0.0163838
0.0163839
0.0163858
0.0163861
0.0163864
0.0163867
0.016387
0.0163873
0.0163877
0.016388
0.0163883
0.0163886
0.0163889
0.0163892
0.0163896
0.0163899
0.0163902
0.0163905
0.0163908
0.0163911
0.0163914
0.0163917
0.016392
0.0163923
0.0163926
0.0163929
0.0163932
0.0163935
0.0163938
0.0163941
0.0163944
0.0163947
0.016395
0.0163954
0.0163957
0.016396
0.0163963
0.0163966
0.016397
0.0163973
0.0163977
0.016398
0.0163984
0.0163987
0.0163991
0.0163995
0.0163998
0.0164002
0.0164006
0.016401
0.0164015
0.0164019
0.0164024
0.0164028
0.0164033
0.0164038
0.0164043
0.0164049
0.0164054
0.016406
0.0164066
0.0164073
0.016408
0.0163671
0.016367
0.0163668
0.0163666
0.0163664
0.0163662
0.0163659
0.0163657
0.0163655
0.0163652
0.016365
0.0163648
0.0163646
0.0163643
0.0163641
0.0163639
0.0163637
0.0163635
0.0163633
0.0163632
0.016363
0.0163629
0.0163628
0.0163628
0.0163627
0.0163626
0.0163626
0.0163625
0.0163625
0.0163625
0.0163624
0.0163624
0.0163624
0.0163624
0.0163624
0.0163624
0.0163624
0.0163624
0.0163624
0.0163624
0.0163625
0.0163625
0.0163626
0.0163626
0.0163627
0.0163628
0.0163628
0.0163629
0.016363
0.0163631
0.0163632
0.0163634
0.0163635
0.0163637
0.0163638
0.016364
0.0163642
0.0163644
0.0163646
0.0163648
0.0163651
0.016342
0.016342
0.016342
0.0163419
0.0163421
0.0163423
0.0163425
0.0163428
0.0163432
0.0163436
0.0163441
0.0163446
0.0163452
0.0163458
0.0163464
0.016347
0.0163476
0.0163483
0.0163489
0.0163495
0.0163501
0.0163507
0.0163513
0.0163519
0.0163525
0.0163531
0.0163537
0.0163543
0.0163549
0.0163554
0.016356
0.0163566
0.0163572
0.0163577
0.0163583
0.0163588
0.0163594
0.0163599
0.0163605
0.016361
0.0163616
0.0163621
0.0163626
0.0163632
0.0163637
0.0163642
0.0163647
0.0163652
0.0163657
0.0163662
0.0163667
0.0163672
0.0163677
0.0163681
0.0163686
0.0163691
0.0163695
0.01637
0.0163704
0.0163708
0.0163713
0.0163607
0.0163607
0.0163607
0.0163607
0.0163607
0.0163607
0.0163607
0.0163607
0.0163607
0.0163607
0.0163607
0.0163607
0.0163607
0.0163607
0.0163607
0.0163607
0.0163606
0.0163605
0.0163604
0.0163601
0.0163598
0.0163595
0.0163593
0.0163592
0.0163591
0.0163591
0.016359
0.016359
0.0163591
0.0163591
0.0163592
0.0163593
0.0163594
0.0163595
0.0163597
0.0163598
0.01636
0.0163601
0.0163603
0.0163604
0.0163606
0.0163607
0.0163609
0.016361
0.0163612
0.0163613
0.0163615
0.0163616
0.0163617
0.0163619
0.016362
0.0163621
0.0163623
0.0163624
0.0163625
0.0163626
0.0163628
0.0163629
0.016363
0.0163631
0.0163632
0.0163204
0.0163204
0.0163203
0.0163203
0.0163202
0.0163202
0.0163202
0.0163201
0.0163201
0.0163201
0.0163201
0.01632
0.01632
0.01632
0.01632
0.0163199
0.0163198
0.0163195
0.0163192
0.0163189
0.0163188
0.0163187
0.0163187
0.0163187
0.0163187
0.0163188
0.0163188
0.0163189
0.0163191
0.0163192
0.0163193
0.0163195
0.0163197
0.0163199
0.0163201
0.0163204
0.0163206
0.0163209
0.0163211
0.0163214
0.0163217
0.016322
0.0163223
0.0163227
0.0163229
0.0163232
0.0163235
0.0163238
0.0163241
0.0163243
0.0163246
0.0163248
0.0163251
0.0163253
0.0163255
0.0163258
0.016326
0.0163262
0.0163263
0.0163265
0.0163267
0.0162847
0.016285
0.0162853
0.0162855
0.0162858
0.016286
0.0162862
0.0162865
0.0162866
0.0162868
0.016287
0.0162872
0.0162873
0.0162874
0.0162876
0.0162877
0.0162878
0.0162878
0.0162879
0.0162879
0.016288
0.016288
0.016288
0.016288
0.0162879
0.0162878
0.0162877
0.0162874
0.0162871
0.0162867
0.0162864
0.016286
0.0162856
0.0162853
0.0162849
0.0162846
0.0162842
0.0162839
0.0162836
0.0162832
0.0162829
0.0162825
0.0162822
0.0162819
0.0162815
0.0162812
0.0162809
0.0162806
0.0162802
0.0162799
0.0162796
0.0162793
0.016279
0.0162787
0.0162786
0.0162785
0.0162786
0.0162786
0.0162787
0.0162788
0.0162789
0.0162632
0.0162633
0.0162635
0.0162637
0.0162639
0.0162641
0.0162643
0.0162646
0.0162648
0.0162651
0.0162653
0.0162656
0.0162659
0.0162661
0.0162664
0.0162667
0.016267
0.0162673
0.0162676
0.0162679
0.0162683
0.0162686
0.0162689
0.0162692
0.0162696
0.0162699
0.0162702
0.0162705
0.0162707
0.016271
0.0162713
0.0162715
0.0162718
0.016272
0.0162722
0.0162724
0.0162726
0.0162728
0.0162729
0.0162731
0.0162732
0.0162733
0.0162734
0.0162735
0.0162735
0.0162736
0.0162736
0.0162736
0.0162735
0.0162735
0.0162734
0.0162732
0.016273
0.0162726
0.016272
0.0162715
0.0162709
0.0162704
0.0162698
0.0162693
0.0162687
0.01625
0.0162503
0.0162506
0.0162509
0.0162512
0.0162514
0.0162516
0.0162519
0.0162521
0.0162523
0.0162524
0.0162526
0.0162527
0.0162529
0.016253
0.016253
0.0162531
0.0162531
0.0162531
0.016253
0.0162529
0.0162526
0.0162521
0.0162516
0.0162511
0.0162506
0.0162501
0.0162496
0.0162491
0.0162486
0.0162482
0.0162477
0.0162472
0.0162467
0.0162462
0.0162458
0.0162453
0.0162448
0.0162444
0.0162439
0.0162435
0.016243
0.0162425
0.0162421
0.0162416
0.0162411
0.0162407
0.0162402
0.0162398
0.0162393
0.0162388
0.0162384
0.0162379
0.0162374
0.0162369
0.0162365
0.016236
0.0162355
0.016235
0.0162346
0.0162341
0.0162326
0.016232
0.0162315
0.016231
0.0162304
0.0162299
0.0162293
0.0162288
0.0162283
0.0162279
0.0162277
0.0162277
0.0162277
0.0162279
0.016228
0.0162283
0.0162285
0.0162289
0.0162292
0.0162295
0.0162299
0.0162302
0.0162305
0.0162308
0.0162311
0.0162313
0.0162316
0.0162318
0.016232
0.0162323
0.0162324
0.0162326
0.0162328
0.0162329
0.016233
0.016233
0.0162331
0.0162331
0.016233
0.0162329
0.0162328
0.0162324
0.0162318
0.0162312
0.0162305
0.0162299
0.0162293
0.0162286
0.016228
0.0162274
0.0162267
0.0162261
0.0162254
0.0162248
0.0162242
0.0162235
0.0162229
0.0162222
0.0162216
0.0162209
0.0162203
0.0162178
0.0162172
0.0162165
0.0162159
0.0162152
0.0162146
0.016214
0.0162133
0.0162127
0.0162121
0.0162116
0.0162114
0.0162114
0.0162115
0.0162116
0.0162118
0.0162121
0.0162123
0.0162126
0.0162129
0.0162131
0.0162133
0.0162134
0.0162136
0.0162137
0.0162138
0.0162139
0.0162139
0.0162138
0.0162138
0.0162136
0.0162133
0.0162128
0.0162121
0.0162113
0.0162106
0.0162098
0.0162091
0.0162084
0.0162076
0.0162069
0.0162062
0.0162054
0.0162047
0.0162039
0.0162032
0.0162024
0.0162017
0.016201
0.0162002
0.0161995
0.0161987
0.016198
0.0161972
0.0161964
0.0161957
0.0161949
0.0161942
0.0161934
0.0161926
0.0161919
0.0162009
0.0162002
0.0161994
0.0161987
0.0161979
0.0161972
0.0161964
0.0161957
0.0161949
0.0161942
0.0161934
0.0161926
0.0161919
0.0161911
0.0161904
0.0161896
0.0161888
0.0161881
0.0161873
0.0161866
0.0161858
0.016185
0.0161843
0.0161835
0.0161828
0.016182
0.0161813
0.0161805
0.0161798
0.016179
0.0161783
0.0161777
0.0161776
0.0161776
0.0161776
0.0161775
0.0161774
0.0161772
0.0161768
0.016176
0.0161752
0.0161743
0.0161735
0.0161727
0.0161719
0.0161711
0.0161703
0.0161695
0.0161687
0.0161679
0.016167
0.0161662
0.0161654
0.0161646
0.0161637
0.0161629
0.0161621
0.0161612
0.0161604
0.0161596
0.0161587
0.0161822
0.0161814
0.0161805
0.0161796
0.0161787
0.0161778
0.016177
0.0161761
0.0161752
0.0161743
0.0161734
0.0161725
0.0161716
0.0161707
0.0161698
0.0161689
0.016168
0.0161671
0.0161662
0.0161653
0.0161644
0.0161635
0.0161626
0.0161616
0.0161607
0.0161598
0.0161589
0.016158
0.016157
0.0161561
0.0161553
0.0161546
0.0161544
0.0161542
0.0161539
0.0161533
0.0161523
0.0161514
0.0161504
0.0161494
0.0161485
0.0161475
0.0161465
0.0161455
0.0161446
0.0161436
0.0161426
0.0161416
0.0161406
0.0161396
0.0161387
0.0161377
0.0161367
0.0161357
0.0161347
0.0161337
0.0161327
0.0161317
0.0161306
0.0161296
0.0161286
0.0161604
0.0161593
0.0161583
0.0161573
0.0161562
0.0161552
0.0161542
0.0161531
0.0161521
0.016151
0.01615
0.0161489
0.0161479
0.0161468
0.0161458
0.0161447
0.0161437
0.0161426
0.0161415
0.0161405
0.0161394
0.0161383
0.0161372
0.0161362
0.0161351
0.016134
0.0161329
0.0161318
0.0161307
0.0161296
0.0161286
0.0161275
0.0161264
0.0161253
0.0161242
0.016123
0.0161219
0.0161208
0.0161197
0.0161186
0.0161175
0.0161164
0.0161152
0.0161141
0.016113
0.0161119
0.0161107
0.0161096
0.0161084
0.0161073
0.0161061
0.016105
0.0161038
0.0161027
0.0161015
0.0161003
0.0160992
0.016098
0.0160968
0.0160956
0.0160945
0.0161358
0.0161346
0.0161334
0.0161322
0.016131
0.0161298
0.0161285
0.0161273
0.0161261
0.0161249
0.0161236
0.0161224
0.0161212
0.0161199
0.0161187
0.0161174
0.0161162
0.0161149
0.0161137
0.0161124
0.0161112
0.0161099
0.0161086
0.0161074
0.0161061
0.0161048
0.0161035
0.0161022
0.016101
0.0160997
0.0160984
0.0160971
0.0160958
0.0160945
0.0160931
0.0160918
0.0160905
0.0160892
0.0160879
0.0160865
0.0160852
0.0160839
0.0160825
0.0160812
0.0160798
0.0160785
0.0160771
0.0160758
0.0160744
0.016073
0.0160717
0.0160703
0.0160689
0.0160675
0.0160661
0.0160647
0.0160633
0.0160619
0.0160605
0.0160591
0.0160577
0.0161086
0.0161072
0.0161058
0.0161044
0.0161029
0.0161015
0.0161001
0.0160986
0.0160972
0.0160958
0.0160943
0.0160929
0.0160914
0.01609
0.0160885
0.016087
0.0160856
0.0160841
0.0160826
0.0160812
0.0160797
0.0160782
0.0160767
0.0160752
0.0160737
0.0160722
0.0160707
0.0160692
0.0160677
0.0160662
0.0160646
0.0160631
0.0160616
0.0160601
0.0160585
0.016057
0.0160554
0.0160539
0.0160523
0.0160507
0.0160492
0.0160476
0.016046
0.0160444
0.0160428
0.0160412
0.0160396
0.016038
0.0160364
0.0160348
0.0160332
0.0160316
0.0160299
0.0160283
0.0160266
0.016025
0.0160233
0.0160217
0.01602
0.0160183
0.0160167
0.0160795
0.0160778
0.0160762
0.0160745
0.0160729
0.0160712
0.0160695
0.0160678
0.0160662
0.0160645
0.0160628
0.0160611
0.0160594
0.0160577
0.016056
0.0160543
0.0160526
0.0160508
0.0160491
0.0160474
0.0160456
0.0160439
0.0160422
0.0160404
0.0160387
0.0160369
0.0160351
0.0160334
0.0160316
0.0160298
0.016028
0.0160262
0.0160244
0.0160226
0.0160208
0.016019
0.0160171
0.0160153
0.0160135
0.0160116
0.0160098
0.0160079
0.0160061
0.0160042
0.0160023
0.0160004
0.0159986
0.0159967
0.0159948
0.0159929
0.0159909
0.015989
0.0159871
0.0159852
0.0159832
0.0159813
0.0159793
0.0159773
0.0159754
0.0159734
0.0159714
0.0160487
0.0160468
0.0160448
0.0160429
0.016041
0.016039
0.0160371
0.0160351
0.0160332
0.0160312
0.0160292
0.0160272
0.0160253
0.0160233
0.0160213
0.0160193
0.0160173
0.0160153
0.0160132
0.0160112
0.0160092
0.0160072
0.0160051
0.0160031
0.016001
0.015999
0.0159969
0.0159948
0.0159927
0.0159907
0.0159886
0.0159865
0.0159844
0.0159822
0.0159801
0.015978
0.0159759
0.0159737
0.0159716
0.0159694
0.0159672
0.0159651
0.0159629
0.0159607
0.0159585
0.0159563
0.0159541
0.0159518
0.0159496
0.0159474
0.0159451
0.0159428
0.0159406
0.0159383
0.015936
0.0159337
0.0159314
0.0159291
0.0159268
0.0159244
0.0159221
0.0160164
0.0160142
0.0160119
0.0160097
0.0160074
0.0160052
0.0160029
0.0160006
0.0159983
0.015996
0.0159937
0.0159914
0.0159891
0.0159868
0.0159845
0.0159822
0.0159798
0.0159775
0.0159751
0.0159728
0.0159704
0.015968
0.0159657
0.0159633
0.0159609
0.0159585
0.015956
0.0159536
0.0159512
0.0159488
0.0159463
0.0159439
0.0159414
0.0159389
0.0159364
0.0159339
0.0159314
0.0159289
0.0159264
0.0159239
0.0159213
0.0159188
0.0159162
0.0159136
0.0159111
0.0159085
0.0159059
0.0159033
0.0159006
0.015898
0.0158953
0.0158927
0.01589
0.0158873
0.0158846
0.0158819
0.0158792
0.0158765
0.0158737
0.015871
0.0158682
0.0159825
0.0159799
0.0159772
0.0159746
0.015972
0.0159694
0.0159667
0.0159641
0.0159614
0.0159588
0.0159561
0.0159534
0.0159507
0.015948
0.0159453
0.0159426
0.0159399
0.0159372
0.0159344
0.0159317
0.0159289
0.0159262
0.0159234
0.0159206
0.0159178
0.015915
0.0159122
0.0159094
0.0159065
0.0159037
0.0159008
0.015898
0.0158951
0.0158922
0.0158893
0.0158864
0.0158834
0.0158805
0.0158776
0.0158746
0.0158716
0.0158686
0.0158656
0.0158626
0.0158596
0.0158566
0.0158535
0.0158504
0.0158474
0.0158443
0.0158412
0.015838
0.0158349
0.0158317
0.0158286
0.0158254
0.0158222
0.015819
0.0158157
0.0158125
0.0158092
0.0159465
0.0159435
0.0159405
0.0159374
0.0159344
0.0159313
0.0159283
0.0159252
0.0159221
0.015919
0.0159159
0.0159128
0.0159097
0.0159065
0.0159034
0.0159002
0.0158971
0.0158939
0.0158907
0.0158875
0.0158843
0.0158811
0.0158779
0.0158746
0.0158714
0.0158681
0.0158648
0.0158615
0.0158582
0.0158549
0.0158516
0.0158482
0.0158449
0.0158415
0.0158381
0.0158347
0.0158313
0.0158278
0.0158244
0.0158209
0.0158174
0.0158139
0.0158104
0.0158069
0.0158034
0.0157998
0.0157962
0.0157926
0.015789
0.0157854
0.0157817
0.015778
0.0157743
0.0157706
0.0157669
0.0157632
0.0157594
0.0157556
0.0157518
0.0157479
0.0157441
0.0159084
0.0159049
0.0159013
0.0158978
0.0158943
0.0158907
0.0158872
0.0158836
0.01588
0.0158764
0.0158728
0.0158692
0.0158656
0.0158619
0.0158583
0.0158546
0.0158509
0.0158473
0.0158435
0.0158398
0.0158361
0.0158324
0.0158286
0.0158248
0.015821
0.0158172
0.0158134
0.0158096
0.0158057
0.0158018
0.015798
0.0157941
0.0157901
0.0157862
0.0157822
0.0157783
0.0157743
0.0157702
0.0157662
0.0157622
0.0157581
0.015754
0.0157499
0.0157457
0.0157416
0.0157374
0.0157332
0.015729
0.0157247
0.0157205
0.0157162
0.0157119
0.0157075
0.0157032
0.0156988
0.0156943
0.0156899
0.0156854
0.0156809
0.0156764
0.0156719
0.0158676
0.0158635
0.0158594
0.0158553
0.0158512
0.0158471
0.0158429
0.0158388
0.0158346
0.0158305
0.0158263
0.0158221
0.0158179
0.0158137
0.0158094
0.0158052
0.0158009
0.0157966
0.0157923
0.015788
0.0157836
0.0157793
0.0157749
0.0157705
0.0157661
0.0157617
0.0157572
0.0157528
0.0157483
0.0157438
0.0157392
0.0157347
0.0157301
0.0157255
0.0157209
0.0157163
0.0157116
0.0157069
0.0157022
0.0156975
0.0156927
0.0156879
0.0156831
0.0156782
0.0156734
0.0156685
0.0156636
0.0156586
0.0156536
0.0156486
0.0156436
0.0156385
0.0156334
0.0156282
0.0156231
0.0156179
0.0156126
0.0156074
0.0156021
0.0155967
0.0155913
0.015824
0.0158193
0.0158145
0.0158097
0.0158049
0.0158001
0.0157952
0.0157904
0.0157856
0.0157807
0.0157759
0.015771
0.0157661
0.0157612
0.0157563
0.0157514
0.0157464
0.0157414
0.0157364
0.0157314
0.0157264
0.0157213
0.0157162
0.0157111
0.015706
0.0157009
0.0156957
0.0156905
0.0156853
0.01568
0.0156748
0.0156694
0.0156641
0.0156588
0.0156534
0.015648
0.0156425
0.0156371
0.0156315
0.015626
0.0156204
0.0156148
0.0156092
0.0156035
0.0155978
0.0155921
0.0155863
0.0155805
0.0155747
0.0155688
0.0155629
0.0155569
0.0155509
0.0155449
0.0155388
0.0155327
0.0155265
0.0155203
0.015514
0.0155077
0.0155014
0.0157773
0.0157718
0.0157662
0.0157607
0.0157551
0.0157495
0.0157439
0.0157383
0.0157326
0.015727
0.0157213
0.0157156
0.0157099
0.0157042
0.0156985
0.0156928
0.0156871
0.0156813
0.0156755
0.0156697
0.0156638
0.015658
0.0156521
0.0156461
0.0156402
0.0156342
0.0156282
0.0156221
0.0156161
0.0156099
0.0156038
0.0155976
0.0155914
0.0155852
0.0155789
0.0155726
0.0155663
0.0155599
0.0155535
0.015547
0.0155405
0.015534
0.0155274
0.0155208
0.0155141
0.0155074
0.0155006
0.0154938
0.015487
0.0154801
0.0154731
0.0154661
0.0154591
0.015452
0.0154448
0.0154376
0.0154304
0.0154231
0.0154157
0.0154082
0.0154008
0.0157271
0.0157207
0.0157143
0.0157078
0.0157014
0.0156949
0.0156884
0.0156819
0.0156754
0.0156688
0.0156622
0.0156556
0.015649
0.0156423
0.0156357
0.015629
0.0156223
0.0156156
0.0156089
0.0156021
0.0155953
0.0155885
0.0155817
0.0155748
0.0155679
0.0155609
0.015554
0.0155469
0.0155399
0.0155328
0.0155256
0.0155185
0.0155113
0.015504
0.0154967
0.0154893
0.015482
0.0154745
0.015467
0.0154595
0.0154519
0.0154443
0.0154366
0.0154289
0.0154211
0.0154132
0.0154053
0.0153974
0.0153893
0.0153813
0.0153731
0.0153649
0.0153567
0.0153483
0.0153399
0.0153315
0.0153229
0.0153143
0.0153056
0.0152969
0.015288
0.0156732
0.0156657
0.0156583
0.0156508
0.0156434
0.0156359
0.0156283
0.0156208
0.0156132
0.0156056
0.015598
0.0155903
0.0155827
0.0155749
0.0155672
0.0155594
0.0155516
0.0155438
0.015536
0.0155281
0.0155203
0.0155124
0.0155044
0.0154965
0.0154884
0.0154804
0.0154723
0.0154641
0.0154559
0.0154477
0.0154394
0.0154311
0.0154227
0.0154142
0.0154058
0.0153972
0.0153886
0.0153799
0.0153712
0.0153625
0.0153536
0.0153447
0.0153358
0.0153267
0.0153176
0.0153085
0.0152993
0.01529
0.0152806
0.0152711
0.0152616
0.015252
0.0152423
0.0152325
0.0152227
0.0152127
0.0152027
0.0151926
0.0151824
0.0151721
0.0151617
0.0156151
0.0156065
0.0155979
0.0155893
0.0155806
0.015572
0.0155632
0.0155545
0.0155457
0.0155369
0.0155281
0.0155193
0.0155104
0.0155014
0.0154925
0.0154835
0.0154744
0.0154654
0.0154563
0.0154471
0.0154379
0.0154287
0.0154195
0.0154103
0.015401
0.0153917
0.0153823
0.0153728
0.0153633
0.0153538
0.0153442
0.0153345
0.0153247
0.0153149
0.0153051
0.0152952
0.0152852
0.0152751
0.015265
0.0152547
0.0152445
0.0152341
0.0152237
0.0152132
0.0152026
0.0151919
0.0151811
0.0151703
0.0151593
0.0151483
0.0151371
0.0151259
0.0151146
0.0151032
0.0150916
0.01508
0.0150682
0.0150563
0.0150444
0.0150322
0.01502
0.0155526
0.0155427
0.0155327
0.0155228
0.0155128
0.0155027
0.0154926
0.0154825
0.0154724
0.0154622
0.015452
0.0154418
0.0154315
0.0154211
0.0154108
0.0154004
0.0153899
0.0153794
0.0153689
0.0153583
0.0153476
0.015337
0.0153262
0.0153155
0.0153047
0.0152939
0.015283
0.0152721
0.015261
0.01525
0.0152388
0.0152276
0.0152163
0.015205
0.0151935
0.015182
0.0151704
0.0151587
0.015147
0.0151351
0.0151231
0.0151111
0.015099
0.0150867
0.0150744
0.015062
0.0150495
0.0150368
0.0150241
0.0150112
0.0149982
0.0149851
0.0149719
0.0149585
0.014945
0.0149314
0.0149177
0.0149038
0.0148897
0.0148756
0.0148612
0.0154853
0.0154739
0.0154623
0.0154508
0.0154392
0.0154276
0.015416
0.0154043
0.0153926
0.0153808
0.015369
0.0153572
0.0153453
0.0153334
0.0153214
0.0153094
0.0152973
0.0152851
0.0152729
0.0152607
0.0152484
0.015236
0.0152236
0.0152111
0.0151986
0.015186
0.0151734
0.0151607
0.015148
0.0151352
0.0151223
0.0151093
0.0150962
0.0150831
0.0150698
0.0150565
0.015043
0.0150295
0.0150159
0.0150021
0.0149882
0.0149743
0.0149602
0.014946
0.0149317
0.0149173
0.0149027
0.014888
0.0148732
0.0148582
0.0148431
0.0148278
0.0148124
0.0147969
0.0147812
0.0147653
0.0147493
0.014733
0.0147166
0.0147001
0.0146833
0.0154128
0.0153996
0.0153863
0.015373
0.0153596
0.0153462
0.0153328
0.0153193
0.0153057
0.0152922
0.0152785
0.0152649
0.0152511
0.0152373
0.0152235
0.0152096
0.0151956
0.0151816
0.0151675
0.0151534
0.0151392
0.0151249
0.0151105
0.0150961
0.0150816
0.015067
0.0150524
0.0150377
0.015023
0.0150082
0.0149933
0.0149783
0.0149631
0.0149479
0.0149326
0.0149172
0.0149016
0.0148859
0.0148702
0.0148542
0.0148382
0.014822
0.0148057
0.0147893
0.0147727
0.014756
0.0147391
0.0147221
0.0147049
0.0146875
0.01467
0.0146523
0.0146344
0.0146163
0.0145981
0.0145796
0.014561
0.0145421
0.0145231
0.0145038
0.0144842
0.0153347
0.0153194
0.0153041
0.0152887
0.0152733
0.0152578
0.0152423
0.0152267
0.0152111
0.0151954
0.0151797
0.0151639
0.0151481
0.0151322
0.0151162
0.0151002
0.0150841
0.0150679
0.0150516
0.0150353
0.0150189
0.0150024
0.0149859
0.0149692
0.0149525
0.0149356
0.0149187
0.0149017
0.0148846
0.0148675
0.0148503
0.014833
0.0148156
0.014798
0.0147803
0.0147625
0.0147446
0.0147265
0.0147082
0.0146899
0.0146713
0.0146527
0.0146338
0.0146148
0.0145957
0.0145764
0.0145568
0.0145372
0.0145173
0.0144972
0.014477
0.0144565
0.0144358
0.0144149
0.0143938
0.0143724
0.0143508
0.014329
0.0143069
0.0142845
0.0142619
0.0152505
0.0152329
0.0152152
0.0151974
0.0151796
0.0151618
0.0151439
0.015126
0.015108
0.0150899
0.0150718
0.0150536
0.0150353
0.015017
0.0149986
0.0149801
0.0149615
0.0149429
0.0149242
0.0149053
0.0148864
0.0148674
0.0148483
0.0148292
0.0148099
0.0147905
0.014771
0.0147514
0.0147317
0.0147119
0.014692
0.0146721
0.014652
0.0146317
0.0146114
0.0145908
0.0145702
0.0145493
0.0145283
0.0145072
0.0144858
0.0144643
0.0144427
0.0144208
0.0143987
0.0143765
0.014354
0.0143313
0.0143084
0.0142853
0.014262
0.0142384
0.0142146
0.0141905
0.0141662
0.0141416
0.0141167
0.0140915
0.014066
0.0140402
0.0140141
0.0151598
0.0151394
0.015119
0.0150986
0.0150781
0.0150575
0.0150369
0.0150162
0.0149955
0.0149747
0.0149538
0.0149329
0.0149118
0.0148907
0.0148695
0.0148482
0.0148269
0.0148054
0.0147839
0.0147622
0.0147404
0.0147186
0.0146966
0.0146745
0.0146523
0.01463
0.0146076
0.014585
0.0145624
0.0145396
0.0145167
0.0144937
0.0144706
0.0144474
0.014424
0.0144004
0.0143767
0.0143527
0.0143286
0.0143043
0.0142798
0.0142551
0.0142303
0.0142052
0.0141798
0.0141543
0.0141285
0.0141025
0.0140763
0.0140498
0.014023
0.013996
0.0139687
0.0139411
0.0139133
0.0138851
0.0138566
0.0138277
0.0137985
0.013769
0.0137391
0.015062
0.0150385
0.015015
0.0149915
0.0149679
0.0149442
0.0149205
0.0148967
0.0148728
0.0148489
0.0148248
0.0148007
0.0147765
0.0147523
0.0147279
0.0147034
0.0146788
0.0146542
0.0146294
0.0146045
0.0145795
0.0145544
0.0145292
0.0145038
0.0144783
0.0144527
0.014427
0.0144011
0.0143751
0.0143489
0.0143226
0.0142962
0.0142698
0.0142431
0.0142163
0.0141893
0.0141621
0.0141347
0.0141071
0.0140793
0.0140513
0.0140231
0.0139947
0.013966
0.0139371
0.0139079
0.0138785
0.0138488
0.0138189
0.0137887
0.0137582
0.0137274
0.0136963
0.0136649
0.0136331
0.0136011
0.0135686
0.0135358
0.0135026
0.013469
0.0134351
0.0149567
0.0149296
0.0149026
0.0148754
0.0148483
0.014821
0.0147937
0.0147664
0.0147389
0.0147114
0.0146838
0.0146561
0.0146283
0.0146004
0.0145724
0.0145443
0.0145161
0.0144878
0.0144594
0.0144308
0.0144021
0.0143733
0.0143444
0.0143154
0.0142862
0.0142568
0.0142274
0.0141978
0.014168
0.0141381
0.014108
0.0140778
0.0140475
0.0140171
0.0139864
0.0139556
0.0139246
0.0138934
0.013862
0.0138303
0.0137984
0.0137663
0.013734
0.0137014
0.0136685
0.0136354
0.013602
0.0135684
0.0135345
0.0135002
0.0134657
0.0134308
0.0133957
0.0133601
0.0133243
0.013288
0.0132514
0.0132144
0.013177
0.0131391
0.0131008
0.0148431
0.014812
0.0147809
0.0147497
0.0147184
0.0146871
0.0146558
0.0146243
0.0145928
0.0145612
0.0145295
0.0144977
0.0144658
0.0144338
0.0144017
0.0143695
0.0143372
0.0143048
0.0142722
0.0142395
0.0142067
0.0141738
0.0141407
0.0141075
0.0140741
0.0140406
0.014007
0.0139732
0.0139393
0.0139052
0.013871
0.0138366
0.013802
0.0137674
0.0137326
0.0136976
0.0136623
0.0136269
0.0135913
0.0135554
0.0135193
0.013483
0.0134464
0.0134096
0.0133725
0.0133352
0.0132975
0.0132596
0.0132214
0.0131829
0.0131441
0.013105
0.0130655
0.0130257
0.0129855
0.0129449
0.0129039
0.0128625
0.0128207
0.0127784
0.0127357
0.0147208
0.0146851
0.0146492
0.0146134
0.0145775
0.0145416
0.0145056
0.0144695
0.0144333
0.0143971
0.0143608
0.0143243
0.0142878
0.0142512
0.0142144
0.0141776
0.0141406
0.0141035
0.0140663
0.014029
0.0139916
0.013954
0.0139163
0.0138784
0.0138405
0.0138023
0.0137641
0.0137257
0.0136872
0.0136485
0.0136096
0.0135707
0.0135315
0.0134922
0.0134529
0.0134133
0.0133736
0.0133336
0.0132934
0.0132531
0.0132125
0.0131716
0.0131306
0.0130892
0.0130477
0.0130059
0.0129638
0.0129214
0.0128788
0.0128358
0.0127926
0.012749
0.0127051
0.0126608
0.0126162
0.0125712
0.0125258
0.01248
0.0124338
0.0123871
0.0123399
0.0145891
0.014548
0.0145069
0.0144657
0.0144245
0.0143833
0.014342
0.0143007
0.0142593
0.0142178
0.0141762
0.0141345
0.0140928
0.0140509
0.014009
0.0139669
0.0139247
0.0138825
0.0138401
0.0137976
0.013755
0.0137122
0.0136694
0.0136265
0.0135834
0.0135402
0.0134969
0.0134535
0.0134099
0.0133662
0.0133224
0.0132785
0.0132344
0.0131902
0.0131459
0.0131015
0.0130569
0.0130121
0.0129672
0.012922
0.0128767
0.0128311
0.0127854
0.0127394
0.0126932
0.0126468
0.0126001
0.0125532
0.012506
0.0124586
0.0124109
0.0123628
0.0123145
0.0122658
0.0122168
0.0121675
0.0121177
0.0120676
0.012017
0.011966
0.0119145
0.0144473
0.0144001
0.0143529
0.0143057
0.0142585
0.0142113
0.014164
0.0141167
0.0140694
0.0140219
0.0139745
0.0139269
0.0138793
0.0138315
0.0137837
0.0137359
0.0136879
0.0136399
0.0135918
0.0135435
0.0134953
0.0134469
0.0133984
0.0133499
0.0133013
0.0132526
0.0132038
0.013155
0.013106
0.013057
0.0130078
0.0129586
0.0129093
0.0128599
0.0128105
0.012761
0.0127113
0.0126615
0.0126116
0.0125616
0.0125114
0.012461
0.0124105
0.0123598
0.0123089
0.0122579
0.0122067
0.0121552
0.0121036
0.0120517
0.0119996
0.0119472
0.0118945
0.0118416
0.0117884
0.0117348
0.0116809
0.0116267
0.011572
0.011517
0.0114615
0.0142946
0.0142405
0.0141864
0.0141323
0.0140783
0.0140243
0.0139703
0.0139163
0.0138623
0.0138082
0.0137541
0.0136999
0.0136457
0.0135915
0.0135372
0.0134829
0.0134286
0.0133742
0.0133198
0.0132654
0.0132109
0.0131564
0.0131019
0.0130473
0.0129928
0.0129382
0.0128836
0.012829
0.0127743
0.0127197
0.012665
0.0126103
0.0125555
0.0125008
0.012446
0.0123913
0.0123365
0.0122816
0.0122267
0.0121717
0.0121167
0.0120615
0.0120063
0.011951
0.0118955
0.01184
0.0117843
0.0117285
0.0116725
0.0116164
0.0115601
0.0115037
0.011447
0.0113901
0.0113329
0.0112755
0.0112178
0.0111598
0.0111015
0.0110428
0.0109837
0.0141303
0.0140683
0.0140064
0.0139446
0.0138829
0.0138213
0.0137597
0.0136981
0.0136366
0.0135751
0.0135136
0.0134521
0.0133907
0.0133293
0.0132679
0.0132066
0.0131452
0.013084
0.0130228
0.0129616
0.0129005
0.0128395
0.0127785
0.0127176
0.0126568
0.012596
0.0125353
0.0124747
0.0124142
0.0123538
0.0122934
0.0122331
0.0121729
0.0121127
0.0120527
0.0119927
0.0119328
0.0118729
0.0118131
0.0117533
0.0116935
0.0116337
0.011574
0.0115142
0.0114545
0.0113947
0.0113348
0.011275
0.0112151
0.0111551
0.011095
0.0110348
0.0109745
0.010914
0.0108534
0.0107925
0.0107315
0.0106702
0.0106087
0.0105469
0.0104848
0.0139536
0.0138827
0.013812
0.0137414
0.0136711
0.0136009
0.0135308
0.0134608
0.0133909
0.0133212
0.0132516
0.0131821
0.0131127
0.0130435
0.0129744
0.0129054
0.0128366
0.012768
0.0126995
0.0126312
0.0125631
0.0124952
0.0124275
0.01236
0.0122927
0.0122256
0.0121587
0.012092
0.0120256
0.0119593
0.0118933
0.0118275
0.0117618
0.0116964
0.0116312
0.0115662
0.0115013
0.0114367
0.0113722
0.0113078
0.0112436
0.0111796
0.0111156
0.0110518
0.0109881
0.0109245
0.010861
0.0107975
0.0107341
0.0106706
0.0106073
0.0105439
0.0104804
0.0104169
0.0103534
0.0102897
0.0102259
0.010162
0.0100979
0.0100335
0.00996897
0.0137638
0.0136827
0.0136021
0.0135217
0.0134416
0.0133619
0.0132823
0.0132031
0.013124
0.0130452
0.0129667
0.0128885
0.0128105
0.0127328
0.0126555
0.0125784
0.0125017
0.0124253
0.0123492
0.0122735
0.0121982
0.0121232
0.0120487
0.0119745
0.0119006
0.0118272
0.0117541
0.0116815
0.0116092
0.0115373
0.0114658
0.0113946
0.0113238
0.0112534
0.0111833
0.0111136
0.0110442
0.0109751
0.0109063
0.0108379
0.0107697
0.0107018
0.0106342
0.0105669
0.0104997
0.0104328
0.0103661
0.0102996
0.0102332
0.010167
0.0101009
0.0100349
0.00996896
0.00990308
0.00983723
0.00977138
0.00970549
0.00963954
0.0095735
0.00950733
0.00944098
0.0135598
0.0134674
0.0133756
0.0132843
0.0131935
0.0131031
0.0130131
0.0129236
0.0128346
0.012746
0.0126579
0.0125703
0.0124831
0.0123965
0.0123104
0.0122249
0.0121399
0.0120555
0.0119717
0.0118884
0.0118058
0.0117238
0.0116424
0.0115615
0.0114813
0.0114017
0.0113227
0.0112443
0.0111665
0.0110893
0.0110126
0.0109365
0.010861
0.010786
0.0107115
0.0106376
0.0105641
0.0104912
0.0104187
0.0103467
0.0102752
0.010204
0.0101333
0.010063
0.00999311
0.00992354
0.00985431
0.00978538
0.00971675
0.00964838
0.00958024
0.00951232
0.00944459
0.00937701
0.00930955
0.0092422
0.00917491
0.00910764
0.00904038
0.00897307
0.00890568
0.013341
0.0132359
0.0131316
0.0130281
0.0129254
0.0128233
0.012722
0.0126214
0.0125216
0.0124225
0.0123241
0.0122266
0.0121298
0.0120339
0.0119388
0.0118446
0.0117513
0.0116588
0.0115672
0.0114765
0.0113867
0.0112978
0.0112097
0.0111226
0.0110363
0.0109509
0.0108664
0.0107827
0.0106998
0.0106178
0.0105365
0.0104561
0.0103764
0.0102974
0.0102192
0.0101416
0.0100647
0.00998856
0.00991305
0.00983818
0.00976393
0.00969028
0.0096172
0.00954466
0.00947265
0.00940113
0.00933009
0.00925948
0.00918929
0.00911948
0.00905003
0.0089809
0.00891207
0.0088435
0.00877516
0.00870701
0.00863902
0.00857115
0.00850337
0.00843563
0.00836789
0.0131064
0.0129872
0.0128691
0.0127522
0.0126364
0.0125217
0.0124081
0.0122956
0.0121842
0.012074
0.011965
0.0118571
0.0117505
0.0116451
0.0115409
0.011438
0.0113364
0.011236
0.0111369
0.011039
0.0109423
0.0108469
0.0107527
0.0106598
0.010568
0.0104773
0.0103878
0.0102995
0.0102122
0.010126
0.0100408
0.00995669
0.00987353
0.00979133
0.00971004
0.00962962
0.00955009
0.00947145
0.00939365
0.00931667
0.00924048
0.00916504
0.00909034
0.00901633
0.00894298
0.00887026
0.00879815
0.0087266
0.00865559
0.00858508
0.00851503
0.00844542
0.0083762
0.00830735
0.00823882
0.00817057
0.00810258
0.00803479
0.00796717
0.00789967
0.00783226
0.0128554
0.0127204
0.0125871
0.0124555
0.0123255
0.0121972
0.0120705
0.0119454
0.011822
0.0117003
0.0115803
0.011462
0.0113454
0.0112306
0.0111175
0.0110062
0.0108966
0.0107886
0.0106824
0.0105779
0.010475
0.0103737
0.010274
0.0101759
0.0100792
0.00998412
0.00989044
0.00979817
0.00970728
0.00961772
0.00952945
0.00944244
0.00935664
0.00927201
0.00918851
0.00910603
0.00902466
0.00894436
0.00886508
0.00878679
0.00870945
0.00863303
0.00855747
0.00848276
0.00840884
0.00833568
0.00826324
0.00819149
0.00812038
0.00804988
0.00797994
0.00791054
0.00784163
0.00777317
0.00770512
0.00763744
0.00757008
0.00750302
0.0074362
0.00736958
0.0073031
0.012587
0.0124347
0.0122848
0.0121374
0.0119922
0.0118494
0.0117089
0.0115708
0.011435
0.0113016
0.0111706
0.011042
0.0109157
0.0107917
0.0106701
0.0105508
0.0104338
0.010319
0.0102064
0.0100959
0.00998752
0.00988117
0.0097768
0.00967437