/*--------------------------------*- C++ -*----------------------------------*\
  =========                 |
  \\      /  F ield         | OpenFOAM: The Open Source CFD Toolbox
   \\    /   O peration     | Website:  https://openfoam.org
    \\  /    A nd           | Version:  9
     \\/     M anipulation  |
\*---------------------------------------------------------------------------*/
FoamFile
{
    format      ascii;
    class       volScalarField;
    location    "0.0025";
    object      alphat;
}
// * * * * * * * * * * * * * * * * * * * * * * * * * * * * * * * * * * * * * //

dimensions      [1 -1 -1 0 0 0 0];

internalField   nonuniform List<scalar> 
7154
(
0.0163868
0.0163871
0.0163876
0.0163879
0.0163882
0.0163886
0.0163889
0.0163892
0.0163895
0.0163897
0.01639
0.0163903
0.0163905
0.0163908
0.016391
0.0163912
0.0163914
0.0163917
0.0163919
0.0163921
0.0163923
0.0163925
0.0163926
0.0163928
0.016393
0.0163932
0.0163933
0.0163935
0.0163936
0.0163938
0.016394
0.0163941
0.0163942
0.0163944
0.0163945
0.0163947
0.0163948
0.0163949
0.016395
0.0163952
0.0163953
0.0163954
0.0163955
0.0163957
0.0163958
0.0163959
0.016396
0.0163961
0.0163962
0.0163964
0.0163965
0.0163966
0.0163967
0.0163968
0.0163969
0.0163971
0.0163871
0.0163881
0.016389
0.0163898
0.0163905
0.016391
0.0163915
0.0163918
0.016392
0.0163922
0.0163922
0.0163922
0.0163923
0.0163926
0.0163929
0.0163932
0.0163937
0.0163941
0.0163946
0.0163951
0.0163956
0.016396
0.0163965
0.016397
0.0163975
0.016398
0.0163984
0.0163989
0.0163994
0.0163999
0.0164004
0.0164009
0.0164014
0.016402
0.0164025
0.016403
0.0164035
0.0164041
0.0164047
0.0164052
0.0164058
0.0164064
0.016407
0.0164077
0.0164083
0.016409
0.0164097
0.0164104
0.0164111
0.0164119
0.0164127
0.0164135
0.0164144
0.0164153
0.0164162
0.0164171
0.0163881
0.0163879
0.0163877
0.0163875
0.0163873
0.016387
0.0163867
0.0163863
0.0163859
0.0163856
0.0163853
0.0163852
0.0163851
0.016385
0.0163849
0.0163848
0.0163846
0.0163843
0.016384
0.0163837
0.0163835
0.0163833
0.0163831
0.016383
0.0163829
0.0163827
0.0163826
0.0163825
0.0163824
0.0163823
0.0163822
0.0163822
0.0163821
0.0163821
0.0163821
0.016382
0.016382
0.016382
0.016382
0.0163821
0.0163821
0.0163822
0.0163823
0.0163823
0.0163825
0.0163826
0.0163828
0.0163829
0.0163832
0.0163834
0.0163837
0.016384
0.0163843
0.0163847
0.016385
0.0163854
0.0163369
0.0163369
0.0163369
0.0163369
0.016337
0.016337
0.016337
0.0163371
0.0163371
0.0163372
0.0163372
0.0163372
0.0163373
0.0163374
0.0163376
0.0163379
0.0163382
0.0163386
0.0163391
0.0163396
0.0163401
0.0163407
0.0163414
0.016342
0.0163427
0.0163433
0.016344
0.0163446
0.0163453
0.0163459
0.0163465
0.0163472
0.0163478
0.0163484
0.016349
0.0163496
0.0163502
0.0163508
0.0163514
0.0163519
0.0163525
0.0163531
0.0163536
0.0163542
0.0163547
0.0163552
0.0163557
0.0163563
0.0163568
0.0163573
0.0163578
0.0163582
0.0163587
0.0163592
0.0163596
0.0163601
0.0163304
0.0163306
0.0163308
0.0163309
0.0163311
0.0163313
0.0163314
0.0163316
0.0163318
0.016332
0.0163321
0.0163322
0.0163323
0.0163324
0.0163324
0.0163324
0.0163323
0.0163321
0.0163318
0.0163315
0.0163313
0.0163313
0.0163313
0.0163313
0.0163313
0.0163314
0.0163315
0.0163316
0.0163318
0.0163319
0.0163321
0.0163324
0.0163326
0.0163329
0.0163332
0.0163334
0.0163337
0.016334
0.0163342
0.0163345
0.0163347
0.016335
0.0163352
0.0163354
0.0163356
0.0163358
0.0163361
0.0163363
0.0163365
0.0163366
0.0163368
0.016337
0.0163372
0.0163374
0.0163375
0.0163377
0.0163078
0.016308
0.016308
0.0163081
0.0163081
0.0163082
0.0163083
0.0163084
0.0163085
0.0163085
0.0163086
0.0163087
0.0163087
0.0163086
0.0163083
0.016308
0.0163078
0.0163078
0.0163078
0.0163078
0.0163079
0.016308
0.0163082
0.0163083
0.0163085
0.0163087
0.016309
0.0163092
0.0163095
0.0163098
0.0163101
0.0163105
0.0163108
0.0163112
0.0163116
0.0163119
0.0163123
0.0163127
0.016313
0.0163133
0.0163137
0.016314
0.0163143
0.0163146
0.0163148
0.0163151
0.0163154
0.0163156
0.0163159
0.0163161
0.0163163
0.0163165
0.0163167
0.0163168
0.016317
0.0163171
0.0162914
0.0162917
0.016292
0.0162923
0.0162925
0.0162927
0.016293
0.0162932
0.0162934
0.0162935
0.0162937
0.0162939
0.016294
0.0162941
0.0162942
0.0162943
0.0162944
0.0162944
0.0162944
0.0162944
0.0162944
0.0162942
0.0162939
0.0162936
0.0162933
0.016293
0.0162926
0.0162923
0.016292
0.0162917
0.0162914
0.0162912
0.0162909
0.0162906
0.0162903
0.01629
0.0162897
0.0162894
0.0162892
0.0162889
0.0162886
0.0162883
0.0162881
0.0162878
0.0162875
0.0162872
0.0162869
0.0162867
0.0162864
0.0162861
0.0162858
0.0162856
0.0162853
0.016285
0.0162847
0.0162845
0.0162881
0.0162883
0.0162886
0.0162889
0.0162892
0.0162895
0.0162899
0.0162902
0.0162906
0.0162909
0.0162913
0.0162916
0.016292
0.0162923
0.0162927
0.016293
0.0162933
0.0162936
0.0162939
0.0162942
0.0162945
0.0162948
0.0162951
0.0162953
0.0162956
0.0162958
0.016296
0.0162962
0.0162964
0.0162965
0.0162967
0.0162968
0.0162969
0.016297
0.0162971
0.0162971
0.0162971
0.0162971
0.0162971
0.016297
0.0162968
0.0162966
0.0162961
0.0162956
0.0162952
0.0162948
0.0162944
0.0162941
0.0162938
0.0162935
0.0162932
0.0162929
0.0162926
0.0162923
0.016292
0.0162917
0.0162912
0.0162913
0.0162915
0.0162917
0.0162918
0.0162919
0.016292
0.0162921
0.0162922
0.0162922
0.0162922
0.0162922
0.0162922
0.0162921
0.016292
0.0162918
0.0162915
0.0162909
0.0162903
0.0162898
0.0162893
0.0162888
0.0162883
0.0162879
0.0162874
0.016287
0.0162865
0.0162861
0.0162857
0.0162852
0.0162848
0.0162843
0.0162839
0.0162835
0.016283
0.0162825
0.0162821
0.0162816
0.0162812
0.0162807
0.0162802
0.0162798
0.0162793
0.0162788
0.0162784
0.0162779
0.0162774
0.0162769
0.0162764
0.016276
0.0162755
0.016275
0.0162745
0.016274
0.0162735
0.016273
0.0162672
0.0162667
0.0162663
0.0162658
0.0162654
0.0162649
0.0162645
0.0162641
0.0162636
0.0162632
0.0162628
0.0162624
0.0162619
0.0162615
0.0162611
0.0162606
0.01626
0.0162597
0.0162597
0.0162597
0.0162598
0.0162599
0.01626
0.0162601
0.0162601
0.0162601
0.0162601
0.0162601
0.0162601
0.0162599
0.0162598
0.0162595
0.0162591
0.0162585
0.0162578
0.0162571
0.0162566
0.0162561
0.0162557
0.0162552
0.0162547
0.0162543
0.0162538
0.0162533
0.0162529
0.0162524
0.0162519
0.0162515
0.016251
0.0162505
0.01625
0.0162495
0.016249
0.0162486
0.0162481
0.0162476
0.0162425
0.0162418
0.0162412
0.0162405
0.0162399
0.0162392
0.0162386
0.0162379
0.0162373
0.0162366
0.016236
0.0162353
0.0162347
0.016234
0.0162334
0.0162327
0.0162321
0.0162316
0.0162315
0.0162315
0.0162316
0.0162316
0.0162315
0.0162314
0.0162313
0.016231
0.0162304
0.0162297
0.0162289
0.0162282
0.0162275
0.0162268
0.016226
0.0162253
0.0162246
0.0162239
0.0162231
0.0162224
0.0162217
0.0162209
0.0162202
0.0162194
0.0162187
0.016218
0.0162172
0.0162165
0.0162157
0.016215
0.0162142
0.0162135
0.0162127
0.016212
0.0162112
0.0162104
0.0162097
0.0162089
0.0162189
0.0162181
0.0162174
0.0162166
0.0162159
0.0162151
0.0162143
0.0162136
0.0162128
0.0162121
0.0162113
0.0162105
0.0162098
0.016209
0.0162082
0.0162074
0.0162067
0.0162059
0.0162051
0.0162043
0.0162035
0.0162028
0.016202
0.0162012
0.0162004
0.0161996
0.0161989
0.0161981
0.0161973
0.0161965
0.0161957
0.0161949
0.0161941
0.0161933
0.0161925
0.0161917
0.0161909
0.01619
0.0161892
0.0161884
0.0161876
0.0161868
0.016186
0.0161851
0.0161843
0.0161835
0.0161826
0.0161818
0.016181
0.0161801
0.0161793
0.0161785
0.0161776
0.0161768
0.0161759
0.0161751
0.0161965
0.0161956
0.0161947
0.0161939
0.016193
0.0161921
0.0161912
0.0161904
0.0161895
0.0161886
0.0161877
0.0161868
0.0161859
0.016185
0.0161841
0.0161832
0.0161823
0.0161814
0.0161805
0.0161796
0.0161787
0.0161778
0.0161769
0.016176
0.0161751
0.0161741
0.0161732
0.0161723
0.0161714
0.0161704
0.0161695
0.0161686
0.0161676
0.0161667
0.0161657
0.0161648
0.0161638
0.0161629
0.0161619
0.016161
0.01616
0.0161591
0.0161581
0.0161571
0.0161562
0.0161552
0.0161542
0.0161532
0.0161523
0.0161513
0.0161503
0.0161493
0.0161483
0.0161473
0.0161463
0.0161453
0.0161749
0.0161739
0.0161729
0.0161719
0.0161709
0.0161699
0.0161689
0.0161679
0.0161669
0.0161658
0.0161648
0.0161638
0.0161628
0.0161617
0.0161607
0.0161597
0.0161586
0.0161576
0.0161566
0.0161555
0.0161545
0.0161534
0.0161524
0.0161513
0.0161502
0.0161492
0.0161481
0.0161471
0.016146
0.0161449
0.0161438
0.0161428
0.0161417
0.0161406
0.0161395
0.0161384
0.0161373
0.0161362
0.0161351
0.016134
0.0161329
0.0161318
0.0161307
0.0161296
0.0161285
0.0161274
0.0161262
0.0161251
0.016124
0.0161228
0.0161217
0.0161206
0.0161194
0.0161183
0.0161171
0.016116
0.016154
0.0161528
0.0161517
0.0161505
0.0161494
0.0161482
0.016147
0.0161459
0.0161447
0.0161435
0.0161424
0.0161412
0.01614
0.0161388
0.0161376
0.0161364
0.0161353
0.0161341
0.0161329
0.0161317
0.0161305
0.0161292
0.016128
0.0161268
0.0161256
0.0161244
0.0161231
0.0161219
0.0161207
0.0161195
0.0161182
0.016117
0.0161157
0.0161145
0.0161132
0.016112
0.0161107
0.0161094
0.0161082
0.0161069
0.0161056
0.0161043
0.016103
0.0161018
0.0161005
0.0160992
0.0160979
0.0160966
0.0160952
0.0160939
0.0160926
0.0160913
0.01609
0.0160886
0.0160873
0.016086
0.016133
0.0161316
0.0161303
0.016129
0.0161277
0.0161263
0.016125
0.0161236
0.0161223
0.016121
0.0161196
0.0161183
0.0161169
0.0161155
0.0161142
0.0161128
0.0161114
0.0161101
0.0161087
0.0161073
0.0161059
0.0161045
0.0161031
0.0161017
0.0161003
0.0160989
0.0160975
0.0160961
0.0160947
0.0160933
0.0160918
0.0160904
0.016089
0.0160875
0.0160861
0.0160846
0.0160832
0.0160817
0.0160803
0.0160788
0.0160773
0.0160758
0.0160744
0.0160729
0.0160714
0.0160699
0.0160684
0.0160669
0.0160654
0.0160638
0.0160623
0.0160608
0.0160593
0.0160577
0.0160562
0.0160546
0.0161114
0.0161099
0.0161084
0.0161069
0.0161053
0.0161038
0.0161023
0.0161007
0.0160992
0.0160976
0.0160961
0.0160945
0.016093
0.0160914
0.0160898
0.0160883
0.0160867
0.0160851
0.0160835
0.0160819
0.0160803
0.0160787
0.0160771
0.0160755
0.0160739
0.0160723
0.0160707
0.016069
0.0160674
0.0160658
0.0160641
0.0160625
0.0160608
0.0160591
0.0160575
0.0160558
0.0160541
0.0160524
0.0160507
0.016049
0.0160473
0.0160456
0.0160439
0.0160422
0.0160405
0.0160387
0.016037
0.0160352
0.0160335
0.0160317
0.0160299
0.0160282
0.0160264
0.0160246
0.0160228
0.016021
0.0160889
0.0160871
0.0160854
0.0160836
0.0160819
0.0160801
0.0160784
0.0160766
0.0160748
0.0160731
0.0160713
0.0160695
0.0160677
0.0160659
0.0160641
0.0160623
0.0160605
0.0160586
0.0160568
0.016055
0.0160531
0.0160513
0.0160495
0.0160476
0.0160457
0.0160439
0.016042
0.0160401
0.0160382
0.0160363
0.0160344
0.0160325
0.0160306
0.0160287
0.0160268
0.0160248
0.0160229
0.0160209
0.016019
0.016017
0.016015
0.0160131
0.0160111
0.0160091
0.0160071
0.0160051
0.0160031
0.016001
0.015999
0.015997
0.0159949
0.0159928
0.0159908
0.0159887
0.0159866
0.0159845
0.0160651
0.0160631
0.0160611
0.0160591
0.016057
0.016055
0.016053
0.016051
0.0160489
0.0160469
0.0160448
0.0160428
0.0160407
0.0160386
0.0160366
0.0160345
0.0160324
0.0160303
0.0160282
0.0160261
0.0160239
0.0160218
0.0160197
0.0160175
0.0160154
0.0160132
0.0160111
0.0160089
0.0160067
0.0160045
0.0160023
0.0160001
0.0159979
0.0159957
0.0159935
0.0159912
0.015989
0.0159867
0.0159845
0.0159822
0.0159799
0.0159776
0.0159753
0.015973
0.0159706
0.0159683
0.015966
0.0159636
0.0159612
0.0159589
0.0159565
0.0159541
0.0159517
0.0159492
0.0159468
0.0159444
0.0160396
0.0160373
0.016035
0.0160327
0.0160304
0.0160281
0.0160257
0.0160234
0.0160211
0.0160187
0.0160163
0.016014
0.0160116
0.0160092
0.0160068
0.0160044
0.016002
0.0159996
0.0159972
0.0159947
0.0159923
0.0159898
0.0159874
0.0159849
0.0159824
0.0159799
0.0159774
0.0159749
0.0159724
0.0159699
0.0159673
0.0159648
0.0159622
0.0159596
0.0159571
0.0159545
0.0159518
0.0159492
0.0159466
0.015944
0.0159413
0.0159386
0.015936
0.0159333
0.0159306
0.0159278
0.0159251
0.0159224
0.0159196
0.0159168
0.0159141
0.0159113
0.0159085
0.0159056
0.0159028
0.0158999
0.0160123
0.0160097
0.016007
0.0160043
0.0160017
0.015999
0.0159963
0.0159936
0.0159909
0.0159882
0.0159855
0.0159827
0.01598
0.0159773
0.0159745
0.0159717
0.015969
0.0159662
0.0159634
0.0159606
0.0159577
0.0159549
0.0159521
0.0159492
0.0159463
0.0159434
0.0159406
0.0159377
0.0159347
0.0159318
0.0159289
0.0159259
0.0159229
0.0159199
0.0159169
0.0159139
0.0159109
0.0159079
0.0159048
0.0159017
0.0158987
0.0158956
0.0158924
0.0158893
0.0158862
0.015883
0.0158798
0.0158766
0.0158734
0.0158702
0.0158669
0.0158636
0.0158603
0.015857
0.0158537
0.0158504
0.0159827
0.0159796
0.0159766
0.0159735
0.0159705
0.0159674
0.0159643
0.0159612
0.0159581
0.0159549
0.0159518
0.0159487
0.0159455
0.0159423
0.0159392
0.015936
0.0159328
0.0159295
0.0159263
0.0159231
0.0159198
0.0159165
0.0159132
0.0159099
0.0159066
0.0159033
0.0158999
0.0158966
0.0158932
0.0158898
0.0158864
0.015883
0.0158795
0.0158761
0.0158726
0.0158691
0.0158656
0.015862
0.0158585
0.0158549
0.0158513
0.0158477
0.0158441
0.0158404
0.0158367
0.015833
0.0158293
0.0158256
0.0158218
0.0158181
0.0158143
0.0158104
0.0158066
0.0158027
0.0157988
0.0157949
0.0159506
0.0159471
0.0159436
0.0159401
0.0159366
0.015933
0.0159294
0.0159259
0.0159223
0.0159187
0.0159151
0.0159114
0.0159078
0.0159041
0.0159005
0.0158968
0.0158931
0.0158893
0.0158856
0.0158819
0.0158781
0.0158743
0.0158705
0.0158667
0.0158628
0.015859
0.0158551
0.0158512
0.0158473
0.0158434
0.0158394
0.0158354
0.0158314
0.0158274
0.0158234
0.0158193
0.0158152
0.0158111
0.015807
0.0158028
0.0157986
0.0157944
0.0157902
0.0157859
0.0157816
0.0157773
0.015773
0.0157686
0.0157642
0.0157598
0.0157553
0.0157508
0.0157463
0.0157418
0.0157372
0.0157326
0.0159159
0.0159119
0.0159078
0.0159037
0.0158997
0.0158956
0.0158915
0.0158873
0.0158832
0.015879
0.0158749
0.0158707
0.0158665
0.0158622
0.015858
0.0158537
0.0158495
0.0158452
0.0158408
0.0158365
0.0158322
0.0158278
0.0158234
0.0158189
0.0158145
0.01581
0.0158055
0.015801
0.0157965
0.0157919
0.0157873
0.0157827
0.0157781
0.0157734
0.0157687
0.015764
0.0157592
0.0157544
0.0157496
0.0157448
0.0157399
0.015735
0.01573
0.0157251
0.0157201
0.015715
0.0157099
0.0157048
0.0156997
0.0156945
0.0156893
0.015684
0.0156787
0.0156734
0.015668
0.0156626
0.0158782
0.0158735
0.0158688
0.0158641
0.0158594
0.0158547
0.0158499
0.0158452
0.0158404
0.0158356
0.0158308
0.015826
0.0158211
0.0158162
0.0158114
0.0158064
0.0158015
0.0157965
0.0157915
0.0157865
0.0157815
0.0157764
0.0157713
0.0157662
0.0157611
0.0157559
0.0157507
0.0157455
0.0157402
0.0157349
0.0157296
0.0157242
0.0157188
0.0157134
0.0157079
0.0157024
0.0156969
0.0156913
0.0156857
0.0156801
0.0156744
0.0156687
0.0156629
0.0156571
0.0156513
0.0156454
0.0156395
0.0156335
0.0156275
0.0156214
0.0156153
0.0156091
0.0156029
0.0155966
0.0155903
0.0155839
0.0158376
0.0158322
0.0158268
0.0158213
0.0158158
0.0158103
0.0158048
0.0157993
0.0157938
0.0157882
0.0157827
0.0157771
0.0157715
0.0157659
0.0157602
0.0157546
0.0157489
0.0157431
0.0157374
0.0157316
0.0157257
0.0157199
0.015714
0.0157081
0.0157021
0.0156961
0.0156901
0.0156841
0.015678
0.0156718
0.0156657
0.0156594
0.0156532
0.0156469
0.0156406
0.0156342
0.0156277
0.0156213
0.0156148
0.0156082
0.0156016
0.0155949
0.0155882
0.0155814
0.0155746
0.0155677
0.0155608
0.0155538
0.0155468
0.0155397
0.0155325
0.0155253
0.015518
0.0155106
0.0155032
0.0154957
0.0157939
0.0157876
0.0157813
0.0157751
0.0157687
0.0157624
0.015756
0.0157497
0.0157433
0.0157368
0.0157304
0.0157239
0.0157175
0.015711
0.0157045
0.0156979
0.0156914
0.0156847
0.0156781
0.0156714
0.0156647
0.0156579
0.0156511
0.0156443
0.0156374
0.0156305
0.0156235
0.0156165
0.0156094
0.0156023
0.0155952
0.015588
0.0155807
0.0155734
0.0155661
0.0155586
0.0155512
0.0155436
0.0155361
0.0155284
0.0155207
0.0155129
0.0155051
0.0154972
0.0154892
0.0154812
0.0154731
0.0154649
0.0154567
0.0154484
0.01544
0.0154315
0.0154229
0.0154143
0.0154055
0.0153967
0.0157464
0.0157392
0.015732
0.0157247
0.0157175
0.0157102
0.0157028
0.0156955
0.0156881
0.0156807
0.0156732
0.0156657
0.0156582
0.0156507
0.0156431
0.0156356
0.015628
0.0156204
0.0156127
0.015605
0.0155972
0.0155894
0.0155815
0.0155736
0.0155657
0.0155577
0.0155496
0.0155415
0.0155333
0.0155251
0.0155168
0.0155084
0.0155
0.0154915
0.015483
0.0154744
0.0154657
0.015457
0.0154481
0.0154392
0.0154303
0.0154212
0.0154121
0.0154028
0.0153935
0.0153842
0.0153747
0.0153651
0.0153554
0.0153457
0.0153358
0.0153259
0.0153158
0.0153056
0.0152953
0.0152849
0.0156948
0.0156865
0.0156781
0.0156698
0.0156614
0.015653
0.0156445
0.015636
0.0156275
0.0156189
0.0156103
0.0156017
0.015593
0.0155843
0.0155755
0.0155667
0.0155579
0.0155491
0.0155402
0.0155313
0.0155223
0.0155133
0.0155042
0.0154951
0.0154859
0.0154766
0.0154673
0.0154579
0.0154484
0.0154389
0.0154293
0.0154196
0.0154098
0.0154
0.01539
0.01538
0.0153699
0.0153598
0.0153495
0.0153391
0.0153287
0.0153181
0.0153074
0.0152967
0.0152858
0.0152748
0.0152638
0.0152526
0.0152412
0.0152298
0.0152182
0.0152065
0.0151947
0.0151827
0.0151706
0.0151584
0.0156384
0.0156288
0.0156192
0.0156096
0.0155999
0.0155902
0.0155804
0.0155706
0.0155607
0.0155509
0.0155409
0.0155309
0.0155209
0.0155108
0.0155007
0.0154905
0.0154803
0.01547
0.0154597
0.0154494
0.015439
0.0154286
0.0154181
0.0154075
0.0153968
0.0153861
0.0153753
0.0153644
0.0153535
0.0153424
0.0153313
0.01532
0.0153087
0.0152973
0.0152857
0.0152741
0.0152624
0.0152505
0.0152386
0.0152265
0.0152143
0.015202
0.0151896
0.015177
0.0151643
0.0151515
0.0151385
0.0151254
0.0151121
0.0150987
0.0150851
0.0150714
0.0150575
0.0150434
0.0150292
0.0150147
0.0155769
0.0155658
0.0155547
0.0155436
0.0155324
0.0155211
0.0155099
0.0154985
0.0154872
0.0154757
0.0154643
0.0154527
0.0154411
0.0154295
0.0154178
0.015406
0.0153942
0.0153823
0.0153703
0.0153583
0.0153462
0.0153341
0.0153219
0.0153097
0.0152974
0.015285
0.0152724
0.0152598
0.0152471
0.0152343
0.0152214
0.0152083
0.0151952
0.0151819
0.0151685
0.015155
0.0151413
0.0151276
0.0151137
0.0150996
0.0150854
0.0150711
0.0150566
0.0150419
0.0150271
0.0150121
0.0149969
0.0149816
0.0149661
0.0149504
0.0149345
0.0149184
0.014902
0.0148855
0.0148687
0.0148517
0.0155097
0.0154969
0.015484
0.0154711
0.0154582
0.0154452
0.0154322
0.0154191
0.0154059
0.0153927
0.0153794
0.0153661
0.0153527
0.0153392
0.0153257
0.0153121
0.0152984
0.0152846
0.0152708
0.0152568
0.0152428
0.0152287
0.0152145
0.0152003
0.0151861
0.0151717
0.0151572
0.0151426
0.0151278
0.015113
0.015098
0.0150828
0.0150676
0.0150522
0.0150366
0.0150209
0.0150051
0.014989
0.0149729
0.0149565
0.01494
0.0149233
0.0149064
0.0148893
0.014872
0.0148545
0.0148368
0.0148189
0.0148008
0.0147824
0.0147638
0.0147449
0.0147258
0.0147064
0.0146867
0.0146667
0.0154362
0.0154214
0.0154065
0.0153916
0.0153766
0.0153616
0.0153465
0.0153314
0.0153162
0.0153009
0.0152855
0.0152701
0.0152546
0.015239
0.0152233
0.0152075
0.0151917
0.0151757
0.0151597
0.0151436
0.0151273
0.015111
0.0150945
0.015078
0.0150614
0.0150447
0.0150279
0.015011
0.0149939
0.0149767
0.0149593
0.0149417
0.014924
0.0149061
0.0148881
0.0148699
0.0148514
0.0148328
0.014814
0.014795
0.0147758
0.0147564
0.0147367
0.0147168
0.0146967
0.0146763
0.0146557
0.0146348
0.0146137
0.0145922
0.0145705
0.0145484
0.0145261
0.0145034
0.0144804
0.014457
0.0153559
0.0153387
0.0153215
0.0153042
0.0152869
0.0152695
0.015252
0.0152345
0.0152169
0.0151992
0.0151814
0.0151635
0.0151455
0.0151275
0.0151093
0.0150911
0.0150727
0.0150542
0.0150356
0.0150169
0.0149981
0.0149792
0.0149601
0.0149409
0.0149216
0.0149022
0.0148827
0.0148631
0.0148433
0.0148233
0.0148032
0.0147828
0.0147623
0.0147416
0.0147206
0.0146995
0.0146781
0.0146565
0.0146347
0.0146127
0.0145904
0.0145678
0.014545
0.0145219
0.0144985
0.0144749
0.0144509
0.0144266
0.014402
0.0143771
0.0143518
0.0143261
0.0143001
0.0142737
0.0142469
0.0142196
0.015268
0.0152481
0.0152281
0.0152081
0.015188
0.0151678
0.0151476
0.0151272
0.0151068
0.0150863
0.0150657
0.015045
0.0150241
0.0150032
0.0149822
0.014961
0.0149397
0.0149183
0.0148968
0.0148751
0.0148533
0.0148313
0.0148093
0.014787
0.0147646
0.0147421
0.0147194
0.0146966
0.0146737
0.0146506
0.0146273
0.0146037
0.0145799
0.0145559
0.0145317
0.0145072
0.0144825
0.0144575
0.0144323
0.0144067
0.0143809
0.0143548
0.0143284
0.0143017
0.0142746
0.0142472
0.0142195
0.0141913
0.0141628
0.0141339
0.0141046
0.0140749
0.0140447
0.014014
0.0139829
0.0139512
0.0151717
0.0151486
0.0151254
0.0151021
0.0150788
0.0150554
0.0150319
0.0150083
0.0149846
0.0149608
0.0149369
0.0149129
0.0148887
0.0148645
0.0148401
0.0148155
0.0147909
0.014766
0.0147411
0.014716
0.0146907
0.0146653
0.0146397
0.0146139
0.014588
0.0145619
0.0145356
0.0145092
0.0144826
0.0144559
0.0144289
0.0144017
0.0143742
0.0143465
0.0143185
0.0142902
0.0142616
0.0142328
0.0142036
0.0141741
0.0141443
0.0141142
0.0140837
0.0140529
0.0140216
0.01399
0.013958
0.0139256
0.0138927
0.0138593
0.0138255
0.0137912
0.0137563
0.013721
0.013685
0.0136485
0.015066
0.0150391
0.0150122
0.0149851
0.014958
0.0149308
0.0149035
0.0148761
0.0148486
0.014821
0.0147932
0.0147654
0.0147374
0.0147092
0.0146809
0.0146525
0.0146239
0.0145951
0.0145662
0.0145371
0.0145078
0.0144784
0.0144488
0.014419
0.014389
0.0143588
0.0143284
0.0142978
0.014267
0.0142361
0.014205
0.0141736
0.0141418
0.0141099
0.0140776
0.014045
0.0140121
0.0139788
0.0139452
0.0139113
0.013877
0.0138423
0.0138073
0.0137718
0.0137359
0.0136996
0.0136628
0.0136256
0.0135879
0.0135496
0.0135108
0.0134715
0.0134315
0.013391
0.0133498
0.0133079
0.0149498
0.0149185
0.0148871
0.0148557
0.0148241
0.0147925
0.0147608
0.0147289
0.014697
0.0146649
0.0146327
0.0146003
0.0145678
0.0145351
0.0145023
0.0144693
0.0144362
0.0144028
0.0143693
0.0143356
0.0143018
0.0142677
0.0142334
0.014199
0.0141643
0.0141294
0.0140943
0.014059
0.0140234
0.0139877
0.0139518
0.0139156
0.0138791
0.0138423
0.0138052
0.0137677
0.0137299
0.0136918
0.0136533
0.0136144
0.0135751
0.0135354
0.0134953
0.0134547
0.0134137
0.0133723
0.0133303
0.0132878
0.0132448
0.0132012
0.0131571
0.0131123
0.0130669
0.0130208
0.012974
0.0129265
0.0148218
0.0147853
0.0147487
0.0147121
0.0146754
0.0146385
0.0146016
0.0145646
0.0145274
0.0144901
0.0144526
0.014415
0.0143772
0.0143393
0.0143012
0.014263
0.0142245
0.0141859
0.0141471
0.0141081
0.0140689
0.0140295
0.0139899
0.0139501
0.0139101
0.0138699
0.0138294
0.0137887
0.0137478
0.0137067
0.0136654
0.0136238
0.013582
0.0135398
0.0134973
0.0134544
0.0134112
0.0133676
0.0133237
0.0132793
0.0132346
0.0131895
0.0131439
0.0130978
0.0130513
0.0130043
0.0129568
0.0129088
0.0128602
0.012811
0.0127612
0.0127107
0.0126596
0.0126078
0.0125552
0.0125018
0.0146805
0.0146378
0.0145951
0.0145523
0.0145095
0.0144665
0.0144235
0.0143803
0.014337
0.0142936
0.01425
0.0142063
0.0141624
0.0141184
0.0140742
0.0140298
0.0139853
0.0139405
0.0138956
0.0138505
0.0138053
0.0137598
0.0137141
0.0136683
0.0136222
0.0135759
0.0135294
0.0134827
0.0134358
0.0133887
0.0133414
0.0132939
0.0132461
0.013198
0.0131496
0.0131008
0.0130517
0.0130023
0.0129525
0.0129023
0.0128518
0.0128008
0.0127494
0.0126976
0.0126453
0.0125926
0.0125393
0.0124855
0.0124311
0.0123762
0.0123206
0.0122644
0.0122075
0.0121499
0.0120915
0.0120323
0.0145238
0.0144739
0.0144239
0.0143739
0.0143239
0.0142737
0.0142235
0.0141732
0.0141227
0.0140721
0.0140214
0.0139706
0.0139196
0.0138685
0.0138172
0.0137658
0.0137142
0.0136625
0.0136106
0.0135586
0.0135064
0.013454
0.0134015
0.0133488
0.013296
0.013243
0.0131898
0.0131365
0.0130829
0.0130292
0.0129754
0.0129214
0.0128672
0.0128127
0.012758
0.0127029
0.0126476
0.012592
0.0125361
0.0124798
0.0124232
0.0123662
0.0123089
0.0122512
0.012193
0.0121344
0.0120754
0.0120158
0.0119557
0.0118951
0.0118339
0.0117721
0.0117096
0.0116464
0.0115824
0.0115177
0.0143497
0.0142911
0.0142325
0.014174
0.0141154
0.0140568
0.0139981
0.0139394
0.0138805
0.0138216
0.0137626
0.0137035
0.0136443
0.013585
0.0135256
0.0134661
0.0134065
0.0133468
0.0132871
0.0132272
0.0131673
0.0131073
0.0130472
0.012987
0.0129267
0.0128663
0.0128059
0.0127453
0.0126847
0.0126239
0.0125631
0.0125023
0.0124413
0.0123801
0.0123188
0.0122572
0.0121955
0.0121336
0.0120714
0.012009
0.0119463
0.0118833
0.0118201
0.0117566
0.0116927
0.0116284
0.0115638
0.0114988
0.0114333
0.0113673
0.0113008
0.0112337
0.0111661
0.0110977
0.0110287
0.0109589
0.0141554
0.0140865
0.0140177
0.013949
0.0138804
0.0138118
0.0137432
0.0136746
0.013606
0.0135374
0.0134688
0.0134002
0.0133315
0.0132629
0.0131942
0.0131256
0.013057
0.0129884
0.0129199
0.0128514
0.0127829
0.0127145
0.0126461
0.0125778
0.0125095
0.0124413
0.0123731
0.0123049
0.0122368
0.0121688
0.0121008
0.0120329
0.011965
0.0118971
0.0118291
0.011761
0.0116929
0.0116247
0.0115565
0.0114881
0.0114196
0.011351
0.0112822
0.0112132
0.011144
0.0110745
0.0110048
0.0109348
0.0108644
0.0107937
0.0107225
0.0106509
0.0105788
0.010506
0.0104327
0.0103587
0.0139378
0.0138566
0.0137757
0.013695
0.0136145
0.0135342
0.013454
0.0133739
0.013294
0.0132142
0.0131345
0.013055
0.0129756
0.0128964
0.0128174
0.0127386
0.0126601
0.0125817
0.0125036
0.0124257
0.012348
0.0122706
0.0121935
0.0121166
0.01204
0.0119636
0.0118875
0.0118116
0.011736
0.0116606
0.0115854
0.0115106
0.0114359
0.0113614
0.011287
0.0112128
0.0111387
0.0110647
0.0109908
0.010917
0.0108432
0.0107694
0.0106957
0.0106219
0.0105481
0.0104742
0.0104001
0.0103259
0.0102515
0.0101769
0.0101019
0.0100266
0.00995096
0.00987483
0.0097982
0.00972098
0.013693
0.0135972
0.0135019
0.013407
0.0133126
0.0132185
0.0131248
0.0130314
0.0129384
0.0128458
0.0127536
0.0126618
0.0125705
0.0124796
0.0123893
0.0122994
0.01221
0.0121212
0.0120328
0.0119451
0.0118579
0.0117712
0.0116851
0.0115995
0.0115145
0.01143
0.0113461
0.0112627
0.0111798
0.0110974
0.0110155
0.0109341
0.0108531
0.0107726
0.0106924
0.0106126
0.0105332
0.0104542
0.0103754
0.0102969
0.0102187
0.0101407
0.010063
0.00998535
0.00990786
0.00983046
0.00975311
0.00967576
0.00959837
0.0095209
0.00944328
0.00936547
0.00928741
0.00920903
0.00913027
0.00905106
0.0134167
0.0133034
0.013191
0.0130793
0.0129685
0.0128584
0.012749
0.0126405
0.0125327
0.0124257
0.0123195
0.0122142
0.0121098
0.0120063
0.0119037
0.0118021
0.0117015
0.0116017
0.011503
0.0114053
0.0113085
0.0112126
0.0111177
0.0110238
0.0109308
0.0108387
0.0107475
0.0106571
0.0105676
0.0104789
0.010391
0.0103039
0.0102175
0.0101319
0.0100469
0.00996255
0.00987885
0.00979576
0.00971322
0.00963122
0.00954971
0.00946865
0.009388
0.00930773
0.00922778
0.00914812
0.0090687
0.00898945
0.00891034
0.00883131
0.0087523
0.00867325
0.0085941
0.00851477
0.00843521
0.00835531
0.0131033
0.0129691
0.0128364
0.0127051
0.0125752
0.0124467
0.0123195
0.0121938
0.0120695
0.0119466
0.0118253
0.0117055
0.0115872
0.0114705
0.0113554
0.0112418
0.0111298
0.0110193
0.0109104
0.0108031
0.0106972
0.0105928
0.0104898
0.0103883
0.0102881
0.0101893
0.0100918
0.00999558
0.00990058
0.00980675
0.00971407
0.00962247
0.0095319
0.00944238
0.00935385
0.00926629
0.00917964
0.00909386
0.00900891
0.00892474
0.00884129
0.00875853
0.00867641
0.00859486
0.00851385
0.00843331
0.00835319
0.00827344
0.00819399
0.00811478
0.00803575
0.00795684
0.00787797
0.00779908
0.00772008
0.00764089
0.0127462
0.0125872
0.0124306
0.0122764
0.0121246
0.0119752
0.0118282
0.0116835
0.0115413
0.0114016
0.0112643
0.0111294
0.0109971
0.0108672
0.0107397
0.0106146
0.0104918
0.0103713
0.0102531
0.0101371
0.0100233
0.00991149
0.00980173
0.00969393
0.00958802
0.00948394
0.00938163
0.00928101
0.00918203
0.00908461
0.00898868
0.00889413
0.00880097
0.00870918
0.0086187
0.00852949
0.00844147
0.00835458
0.00826878
0.00818399
0.00810017
0.00801724
0.00793515
0.00785384
0.00777325
0.00769332
0.00761397
0.00753516
0.00745681
0.00737885
0.00730122
0.00722385
0.00714666
0.00706957
0.00699251
0.00691539
0.0123377
0.0121491
0.0119647
0.0117843
0.0116077
0.0114352
0.0112665
0.0111017
0.0109408
0.0107837
0.0106304
0.0104808
0.0103349
0.0101926
0.0100538
0.00991836
0.0097862
0.00965722
0.0095313
0.00940835
0.00928825
0.00917089
0.00905617
0.00894397
0.0088342
0.00872676
0.00862154
0.00851845
0.00841739
0.00831827
0.00822097
0.00812529
0.00803138
0.00793914
0.00784852
0.00775942
0.00767178
0.00758551
0.00750055
0.00741681
0.00733424
0.00725275
0.00717228
0.00709276
0.00701412
0.00693628
0.00685919
0.00678277
0.00670694
0.00663164
0.00655679
0.00648232
0.00640814
0.00633419
0.00626038
0.00618662
0.0118681
0.0116449
0.0114285
0.0112185
0.0110148
0.0108174
0.0106261
0.0104407
0.0102613
0.0100875
0.00991916
0.00975619
0.00959835
0.00944543
0.00929724
0.00915356
0.00901421
0.00887898
0.00874769
0.00862016
0.00849619
0.00837563
0.00825831
0.00814408
0.00803277
0.00792426
0.0078184
0.00771505
0.0076141
0.00751541
0.00741884
0.0073241
0.00723143
0.0071407
0.00705183
0.00696471
0.00687926
0.00679538
0.00671299
0.00663199
0.00655231
0.00647387
0.00639658
0.00632037
0.00624516
0.00617088
0.00609745
0.00602479
0.00595284
0.00588151
0.00581073
0.00574043
0.00567051
0.00560091
0.00553154
0.00546231
0.0113262
0.0110629
0.0108104
0.0105681
0.0103358
0.010113
0.00989929
0.00969439
0.00949787
0.00930932
0.00912834
0.00895453
0.0087875
0.00862688
0.00847231
0.00832344
0.00817994
0.00804151
0.00790786
0.00777871
0.0076538
0.0075329
0.00741578
0.00730222
0.00719203
0.00708502
0.00698101
0.00687983
0.00678132
0.00668533
0.00659166
0.0065
0.00641062
0.00632336
0.00623818
0.00615493
0.00607348
0.00599374
0.0059156
0.00583898
0.00576377
0.00568989
0.00561726
0.00554578
0.00547539
0.005406
0.00533752
0.0052699
0.00520303
0.00513686
0.00507131
0.00500628
0.00494172
0.00487753
0.00481364
0.00474996
0.0106985
0.0103897
0.0100979
0.00982204
0.00956109
0.00931413
0.00908025
0.00885859
0.00864832
0.00844863
0.0082588
0.00807811
0.00790591
0.0077416
0.00758461
0.00743443
0.00729058
0.00715264
0.00702019
0.00689287
0.00677034
0.00665229
0.00653844
0.0064285
0.00632225
0.00621944
0.00611987
0.00602334
0.00592966
0.0058386
0.00574975
0.00566336
0.00557937
0.00549762
0.005418
0.00534037
0.00526463
0.00519065
0.00511833
0.00504757
0.00497827
0.00491034
0.00484368
0.00477821
0.00471385
0.00465052
0.00458814
0.00452662
0.0044659
0.0044059
0.00434654
0.00428774
0.00422944
0.00417155
0.004114
0.0040567
0.0099691
0.00961049
0.00927817
0.00896969
0.0086828
0.00841551
0.00816601
0.00793265
0.00771395
0.00750856
0.00731528
0.00713302
0.00696082
0.00679781
0.00664319
0.00649628
0.00635645
0.00622313
0.00609581
0.00597405
0.00585743
0.00574557