/*--------------------------------*- C++ -*----------------------------------*\
  =========                 |
  \\      /  F ield         | OpenFOAM: The Open Source CFD Toolbox
   \\    /   O peration     | Website:  https://openfoam.org
    \\  /    A nd           | Version:  9
     \\/     M anipulation  |
\*---------------------------------------------------------------------------*/
FoamFile
{
    format      ascii;
    class       volScalarField;
    location    "0.0025";
    object      nut;
}
// * * * * * * * * * * * * * * * * * * * * * * * * * * * * * * * * * * * * * //

dimensions      [0 2 -1 0 0 0 0];

internalField   nonuniform List<scalar> 
6352
(
0.000653591
7.69908e-05
1.24601e-05
3.32805e-06
1.39359e-06
7.76081e-07
7.77566e-07
8.06462e-07
7.24174e-07
5.89642e-07
4.60751e-07
3.7014e-07
3.16409e-07
3.07753e-07
5.02223e-07
7.25301e-07
9.25997e-07
3.26373e-07
0.00187593
0.000465949
0.000241074
0.000161414
0.000121325
9.73613e-05
9.94001e-05
0.000101098
9.65752e-05
8.84308e-05
7.91154e-05
7.07962e-05
6.41597e-05
5.91009e-05
5.55413e-05
5.28783e-05
5.02534e-05
4.57633e-05
0.0029886
0.000886502
0.000470274
0.000315173
0.000237207
0.00018886
0.000160587
0.000149291
0.000136265
0.000122758
0.000109528
9.8336e-05
8.95726e-05
8.28115e-05
7.77073e-05
7.36727e-05
6.98015e-05
6.5251e-05
5.97601e-05
0.00400308
0.00134873
0.000713212
0.000470479
0.000347216
0.000270701
0.000218079
0.000185894
0.000160649
0.000139726
0.00012227
0.000109541
0.000100644
9.44284e-05
9.05599e-05
8.84598e-05
8.70113e-05
8.51521e-05
8.19268e-05
0.00491953
0.00181722
0.000959744
0.000624498
0.000452082
0.000344556
0.000268664
0.000217487
0.000180982
0.00015378
0.000133549
0.000122852
0.000117233
0.000112585
0.000108328
0.000104922
0.000102146
9.91983e-05
9.56509e-05
9.26818e-05
0.00573495
0.00227085
0.00120115
0.000772612
0.00054901
0.000408634
0.000316123
0.000254159
0.000211338
0.000180633
0.000157925
0.000144859
0.000136187
0.000128552
0.000121471
0.000115838
0.000111438
0.000107801
0.000104455
0.000101748
0.00644379
0.00269281
0.00142967
0.000910114
0.000634653
0.00046898
0.00036338
0.000293729
0.000246086
0.000211751
0.000185402
0.000166509
0.000151252
0.000139212
0.000130113
0.000123898
0.000119317
0.000115381
0.000111759
0.000108367
0.00703754
0.00306574
0.00163775
0.00103182
0.000712647
0.000525985
0.000409102
0.000332531
0.000279872
0.000240983
0.000209793
0.000185217
0.000165815
0.000150609
0.000139361
0.000131992
0.000126148
0.000120637
0.000115787
0.000111667
0.00750304
0.00337379
0.0018177
0.00113532
0.000781552
0.000577192
0.000450058
0.000366738
0.000308786
0.000264536
0.000229635
0.000202128
0.000180447
0.000163213
0.000149547
0.000138263
0.00012868
0.000121288
0.000115729
0.000111284
0.00781792
0.0036009
0.00194966
0.00120715
0.000829288
0.000613356
0.000479385
0.000391272
0.000327817
0.000279887
0.000243033
0.000214065
0.000190981
0.000171815
0.000155561
0.000141815
0.000130378
0.000121136
0.000114391
0.000108657
0.00787118
0.00362446
0.00195224
0.00120676
0.00083071
0.000614738
0.000479724
0.000390788
0.000327171
0.00027936
0.000242676
0.000213509
0.000190027
0.000170765
0.00015464
0.000140572
0.000128829
0.000118992
0.000111026
0.000104324
0.00775794
0.00355023
0.00191081
0.00117913
0.000811095
0.000601045
0.000468782
0.000381025
0.00031904
0.000272251
0.000236171
0.000207712
0.000184562
0.000165427
0.000149379
0.000135745
0.00012403
0.000113943
0.000105528
9.843e-05
0.00752753
0.00339932
0.0018298
0.00112672
0.000773368
0.000573475
0.000447588
0.000362894
0.000303216
0.000259014
0.000224411
0.000196929
0.000174652
0.00015646
0.000140746
0.000127473
0.000116232
0.000106698
9.86313e-05
9.17795e-05
0.00714281
0.00317695
0.00171218
0.00105243
0.000719268
0.000532333
0.000416633
0.000337598
0.000281213
0.000239595
0.000207621
0.000182093
0.000160833
0.000143279
0.000128536
0.000116362
0.000106196
9.73808e-05
8.95919e-05
8.34138e-05
0.00660805
0.00286041
0.00155509
0.000958735
0.000650976
0.000477925
0.000372604
0.000302981
0.000252335
0.000213787
0.000183821
0.000160295
0.00014157
0.000125901
0.000111991
0.000100619
9.17228e-05
8.45065e-05
7.92857e-05
7.64725e-05
0.00591767
0.00244986
0.00133759
0.000836887
0.000567449
0.000412238
0.000317441
0.000256026
0.000213304
0.000181759
0.000155238
0.000133465
0.000116572
0.000102694
9.12971e-05
8.32819e-05
7.79521e-05
7.43122e-05
7.07437e-05
6.71114e-05
0.0050552
0.00194776
0.00106478
0.000680866
0.000471332
0.000341353
0.000258327
0.000203361
0.000165499
0.000138416
0.000117519
0.000101185
9.15258e-05
8.07204e-05
7.10227e-05
6.35913e-05
5.91471e-05
5.72823e-05
5.5837e-05
5.69089e-05
0.00399045
0.0013674
0.000748973
0.000490147
0.000351265
0.000264345
0.000201183
0.000155423
0.000121688
9.58047e-05
7.56518e-05
6.05123e-05
5.11996e-05
4.90079e-05
4.91433e-05
4.82469e-05
4.67703e-05
4.53817e-05
4.45872e-05
4.48092e-05
0.00267192
0.000781456
0.000413926
0.000276812
0.000204875
0.00015887
0.000124142
0.000106061
9.09348e-05
7.44158e-05
5.90416e-05
4.65752e-05
3.79771e-05
3.33177e-05
3.08461e-05
2.83386e-05
2.48482e-05
2.13812e-05
1.91191e-05
2.50547e-05
0.00101215
0.000171757
5.61174e-05
2.00392e-05
8.04201e-06
3.66195e-06
1.78812e-06
1.11419e-06
7.55454e-07
4.92662e-07
3.23352e-07
2.79444e-07
5.28627e-07
7.19395e-07
8.32879e-07
8.3081e-07
3.16509e-07
2.86376e-07
6.10878e-07
8.39091e-07
0.000106643
0.000109122
0.000106628
0.000107959
0.000104795
0.000101719
0.000104395
0.000100816
9.66617e-05
9.90553e-05
9.42033e-05
8.94055e-05
8.47662e-05
9.2528e-05
8.70956e-05
8.21083e-05
7.76504e-05
8.57573e-05
8.03183e-05
7.56914e-05
7.18579e-05
6.91364e-05
7.79839e-05
7.35474e-05
7.06292e-05
6.83559e-05
6.6463e-05
6.4887e-05
7.30392e-05
6.97358e-05
6.70649e-05
6.4927e-05
6.31487e-05
6.16023e-05
6.44188e-05
6.25004e-05
6.09519e-05
5.95975e-05
5.83255e-05
5.70587e-05
5.65264e-05
5.56956e-05
5.46753e-05
5.35063e-05
5.2162e-05
5.0623e-05
4.89117e-05
4.30934e-05
4.25051e-05
4.19213e-05
4.10438e-05
3.98368e-05
3.83271e-05
3.68282e-05
2.99502e-05
3.13251e-05
3.1167e-05
3.032e-05
2.9006e-05
2.70034e-05
2.60342e-05
2.45322e-05
1.05354e-06
1.05943e-06
9.86694e-07
8.92066e-07
7.49207e-07
2.39679e-07
4.83467e-07
5.10096e-07
0.0140257
0.0140257
0.0140257
0.0140257
0.0140256
0.0140256
0.0140256
0.0140255
0.0140255
0.0140254
0.0140254
0.0140254
0.0140253
0.0140253
0.0140252
0.0140252
0.0140252
0.0140251
0.0140251
0.014025
0.014025
0.0140249
0.0140248
0.0140248
0.0140247
0.0140247
0.0140246
0.0140245
0.0140245
0.0140244
0.0140243
0.0140243
0.0140242
0.0140241
0.0140241
0.014024
0.0140239
0.0140239
0.0140238
0.0140237
0.0140237
0.0140236
0.0140235
0.0140234
0.0140234
0.0140233
0.0140232
0.0140232
0.0140231
0.014023
0.014023
0.0140229
0.0140228
0.0140228
0.0140227
0.0140226
0.0140225
0.0140225
0.0140224
0.0140223
0.0140223
0.014012
0.0140121
0.0140123
0.0140124
0.0140125
0.0140126
0.0140127
0.0140128
0.0140128
0.0140129
0.014013
0.014013
0.0140131
0.0140131
0.0140132
0.0140132
0.0140132
0.0140132
0.0140133
0.0140133
0.0140132
0.0140132
0.0140131
0.014013
0.0140129
0.0140129
0.0140128
0.0140128
0.0140128
0.0140128
0.0140128
0.0140128
0.0140128
0.0140128
0.0140129
0.0140129
0.0140129
0.0140129
0.0140129
0.0140129
0.0140129
0.014013
0.014013
0.014013
0.014013
0.014013
0.014013
0.014013
0.0140131
0.0140131
0.0140131
0.0140131
0.0140131
0.0140131
0.0140131
0.0140132
0.0140132
0.0140132
0.0140132
0.0140132
0.0140132
0.0139984
0.0139985
0.0139985
0.0139986
0.0139987
0.0139987
0.0139988
0.0139988
0.0139989
0.013999
0.013999
0.0139991
0.0139991
0.0139992
0.0139993
0.0139993
0.0139994
0.0139994
0.0139995
0.0139995
0.0139995
0.0139995
0.0139995
0.0139995
0.0139995
0.0139995
0.0139994
0.0139993
0.0139991
0.013999
0.0139988
0.0139987
0.0139986
0.0139985
0.0139983
0.0139982
0.0139981
0.0139979
0.0139978
0.0139977
0.0139975
0.0139974
0.0139973
0.0139971
0.013997
0.0139969
0.0139967
0.0139966
0.0139965
0.0139963
0.0139962
0.0139961
0.0139959
0.0139958
0.0139957
0.0139955
0.0139954
0.0139953
0.0139951
0.013995
0.0139949
0.0139804
0.0139806
0.0139807
0.0139808
0.013981
0.0139811
0.0139812
0.0139814
0.0139815
0.0139816
0.0139818
0.0139819
0.013982
0.0139821
0.0139823
0.0139824
0.0139825
0.0139826
0.0139827
0.0139828
0.0139829
0.013983
0.0139831
0.0139832
0.0139832
0.0139833
0.0139834
0.0139834
0.0139834
0.0139835
0.0139835
0.0139834
0.0139833
0.0139832
0.013983
0.0139828
0.0139826
0.0139824
0.0139822
0.013982
0.0139818
0.0139816
0.0139814
0.0139812
0.0139811
0.0139809
0.0139807
0.0139805
0.0139803
0.0139801
0.0139799
0.0139797
0.0139796
0.0139794
0.0139793
0.0139793
0.0139793
0.0139794
0.0139794
0.0139795
0.0139795
0.0139488
0.013949
0.0139491
0.0139493
0.0139495
0.0139496
0.0139498
0.01395
0.0139502
0.0139503
0.0139505
0.0139507
0.0139509
0.013951
0.0139512
0.0139514
0.0139515
0.0139517
0.0139519
0.0139521
0.0139522
0.0139524
0.0139526
0.0139528
0.0139529
0.0139531
0.0139533
0.0139535
0.0139536
0.0139538
0.013954
0.0139541
0.0139543
0.0139545
0.0139547
0.0139548
0.013955
0.0139552
0.0139553
0.0139555
0.0139557
0.0139559
0.013956
0.0139562
0.0139564
0.0139565
0.0139567
0.0139569
0.013957
0.0139572
0.0139574
0.0139575
0.0139577
0.0139579
0.013958
0.0139582
0.0139583
0.0139585
0.0139587
0.0139588
0.013959
0.0139224
0.0139222
0.0139221
0.0139221
0.0139221
0.0139222
0.0139222
0.0139223
0.0139224
0.0139225
0.0139226
0.0139227
0.0139228
0.0139229
0.0139231
0.0139232
0.0139233
0.0139235
0.0139236
0.0139238
0.0139239
0.0139241
0.0139242
0.0139244
0.0139245
0.0139247
0.0139249
0.013925
0.0139252
0.0139253
0.0139255
0.0139257
0.0139258
0.013926
0.0139262
0.0139263
0.0139265
0.0139267
0.0139268
0.013927
0.0139271
0.0139273
0.0139275
0.0139276
0.0139278
0.013928
0.0139281
0.0139283
0.0139284
0.0139286
0.0139287
0.0139289
0.0139291
0.0139292
0.0139294
0.0139295
0.0139297
0.0139298
0.01393
0.0139301
0.0139302
0.0138995
0.0138995
0.0138994
0.0138991
0.0138987
0.0138983
0.0138978
0.0138974
0.013897
0.0138965
0.0138961
0.0138957
0.0138953
0.0138948
0.0138944
0.013894
0.0138936
0.0138931
0.0138927
0.0138923
0.0138919
0.0138914
0.013891
0.0138906
0.0138901
0.0138897
0.0138893
0.0138889
0.0138884
0.013888
0.0138876
0.0138871
0.0138867
0.0138863
0.0138859
0.0138854
0.013885
0.0138846
0.0138841
0.0138837
0.0138833
0.0138828
0.0138824
0.013882
0.0138815
0.0138811
0.0138807
0.0138802
0.0138798
0.0138794
0.013879
0.0138785
0.0138781
0.0138777
0.0138772
0.0138768
0.0138764
0.0138759
0.0138755
0.013875
0.0138746
0.0138708
0.0138703
0.0138698
0.0138693
0.0138687
0.0138681
0.0138675
0.013867
0.0138664
0.0138658
0.0138653
0.0138647
0.0138641
0.0138636
0.013863
0.0138625
0.0138619
0.0138613
0.0138608
0.0138602
0.0138596
0.0138591
0.0138585
0.013858
0.0138574
0.0138568
0.0138563
0.0138557
0.0138551
0.0138546
0.013854
0.0138534
0.0138529
0.0138523
0.0138517
0.0138512
0.0138506
0.01385
0.0138494
0.0138489
0.0138483
0.0138477
0.0138472
0.0138466
0.013846
0.0138454
0.0138449
0.0138443
0.0138437
0.0138431
0.0138426
0.013842
0.0138414
0.0138408
0.0138402
0.0138397
0.0138391
0.0138385
0.0138379
0.0138373
0.0138368
0.0138388
0.0138381
0.0138373
0.0138366
0.0138358
0.0138351
0.0138343
0.0138336
0.0138329
0.0138321
0.0138314
0.0138306
0.0138299
0.0138291
0.0138284
0.0138276
0.0138268
0.0138261
0.0138253
0.0138246
0.0138238
0.0138231
0.0138223
0.0138215
0.0138208
0.01382
0.0138193
0.0138185
0.0138177
0.013817
0.0138162
0.0138154
0.0138146
0.0138139
0.0138131
0.0138123
0.0138116
0.0138108
0.01381
0.0138092
0.0138085
0.0138077
0.0138069
0.0138061
0.0138053
0.0138046
0.0138038
0.013803
0.0138022
0.0138014
0.0138006
0.0137998
0.013799
0.0137983
0.0137975
0.0137967
0.0137959
0.0137951
0.0137943
0.0137935
0.0137927
0.0137919
0.0138015
0.0138005
0.0137995
0.0137985
0.0137975
0.0137965
0.0137955
0.0137945
0.0137934
0.0137924
0.0137914
0.0137904
0.0137894
0.0137884
0.0137873
0.0137863
0.0137853
0.0137843
0.0137832
0.0137822
0.0137812
0.0137801
0.0137791
0.0137781
0.013777
0.013776
0.013775
0.0137739
0.0137729
0.0137718
0.0137708
0.0137697
0.0137687
0.0137676
0.0137666
0.0137655
0.0137645
0.0137634
0.0137623
0.0137613
0.0137602
0.0137592
0.0137581
0.013757
0.013756
0.0137549
0.0137538
0.0137527
0.0137517
0.0137506
0.0137495
0.0137484
0.0137474
0.0137463
0.0137452
0.0137441
0.013743
0.0137419
0.0137408
0.0137397
0.0137387
0.0137376
0.0137583
0.0137569
0.0137556
0.0137542
0.0137528
0.0137515
0.0137501
0.0137487
0.0137474
0.013746
0.0137446
0.0137432
0.0137419
0.0137405
0.0137391
0.0137377
0.0137363
0.0137349
0.0137335
0.0137321
0.0137307
0.0137293
0.0137279
0.0137265
0.013725
0.0137236
0.0137222
0.0137208
0.0137194
0.0137179
0.0137165
0.0137151
0.0137136
0.0137122
0.0137107
0.0137093
0.0137079
0.0137064
0.013705
0.0137035
0.013702
0.0137006
0.0136991
0.0136977
0.0136962
0.0136947
0.0136932
0.0136918
0.0136903
0.0136888
0.0136873
0.0136858
0.0136843
0.0136828
0.0136814
0.0136799
0.0136784
0.0136768
0.0136753
0.0136738
0.0136723
0.0136708
0.013708
0.0137062
0.0137043
0.0137025
0.0137006
0.0136988
0.0136969
0.0136951
0.0136932
0.0136913
0.0136895
0.0136876
0.0136857
0.0136838
0.0136819
0.01368
0.0136781
0.0136762
0.0136743
0.0136724
0.0136705
0.0136686
0.0136666
0.0136647
0.0136628
0.0136608
0.0136589
0.0136569
0.013655
0.013653
0.013651
0.0136491
0.0136471
0.0136451
0.0136431
0.0136411
0.0136392
0.0136372
0.0136352
0.0136332
0.0136311
0.0136291
0.0136271
0.0136251
0.0136231
0.013621
0.013619
0.013617
0.0136149
0.0136129
0.0136108
0.0136087
0.0136067
0.0136046
0.0136025
0.0136005
0.0135984
0.0135963
0.0135942
0.0135921
0.01359
0.0135879
0.0136497
0.0136473
0.0136448
0.0136423
0.0136398
0.0136372
0.0136347
0.0136322
0.0136297
0.0136271
0.0136246
0.013622
0.0136194
0.0136168
0.0136143
0.0136117
0.0136091
0.0136065
0.0136038
0.0136012
0.0135986
0.0135959
0.0135933
0.0135906
0.013588
0.0135853
0.0135826
0.0135799
0.0135772
0.0135745
0.0135718
0.0135691
0.0135663
0.0135636
0.0135609
0.0135581
0.0135553
0.0135526
0.0135498
0.013547
0.0135442
0.0135414
0.0135386
0.0135358
0.013533
0.0135301
0.0135273
0.0135244
0.0135216
0.0135187
0.0135158
0.013513
0.0135101
0.0135072
0.0135043
0.0135014
0.0134985
0.0134956
0.0134926
0.0134897
0.0134868
0.0134838
0.0135821
0.0135787
0.0135753
0.0135719
0.0135685
0.0135651
0.0135617
0.0135582
0.0135548
0.0135513
0.0135478
0.0135443
0.0135408
0.0135372
0.0135337
0.0135301
0.0135265
0.0135229
0.0135193
0.0135157
0.0135121
0.0135084
0.0135047
0.0135011
0.0134974
0.0134936
0.0134899
0.0134862
0.0134824
0.0134786
0.0134748
0.013471
0.0134672
0.0134634
0.0134595
0.0134556
0.0134518
0.0134479
0.013444
0.01344
0.0134361
0.0134322
0.0134282
0.0134242
0.0134202
0.0134162
0.0134122
0.0134082
0.0134041
0.0134001
0.013396
0.0133919
0.0133878
0.0133837
0.0133796
0.0133755
0.0133713
0.0133672
0.0133631
0.0133589
0.0133548
0.0133506
0.0135035
0.0134989
0.0134943
0.0134897
0.0134851
0.0134804
0.0134757
0.0134709
0.0134662
0.0134614
0.0134566
0.0134518
0.0134469
0.013442
0.0134371
0.0134322
0.0134272
0.0134222
0.0134172
0.0134121
0.013407
0.0134019
0.0133967
0.0133916
0.0133863
0.0133811
0.0133758
0.0133705
0.0133652
0.0133599
0.0133545
0.013349
0.0133436
0.0133381
0.0133326
0.0133271
0.0133215
0.0133159
0.0133103
0.0133047
0.013299
0.0132933
0.0132876
0.0132818
0.013276
0.0132702
0.0132644
0.0132585
0.0132526
0.0132467
0.0132408
0.0132348
0.0132289
0.0132229
0.0132169
0.0132108
0.0132048
0.0131987
0.0131926
0.0131865
0.0131803
0.0131741
0.013412
0.0134057
0.0133994
0.0133931
0.0133867
0.0133803
0.0133739
0.0133673
0.0133608
0.0133542
0.0133475
0.0133408
0.013334
0.0133272
0.0133203
0.0133133
0.0133063
0.0132993
0.0132922
0.013285
0.0132777
0.0132704
0.0132631
0.0132557
0.0132482
0.0132406
0.013233
0.0132253
0.0132176
0.0132098
0.0132019
0.013194
0.013186
0.0131779
0.0131697
0.0131616
0.0131533
0.013145
0.0131366
0.0131281
0.0131196
0.013111
0.0131024
0.0130937
0.0130849
0.0130761
0.0130673
0.0130584
0.0130494
0.0130404
0.0130313
0.0130223
0.0130131
0.013004
0.0129948
0.0129856
0.0129763
0.012967
0.0129577
0.0129484
0.0129391
0.0129297
0.0133051
0.0132966
0.013288
0.0132793
0.0132705
0.0132616
0.0132527
0.0132436
0.0132345
0.0132252
0.0132159
0.0132064
0.0131969
0.0131872
0.0131774
0.0131675
0.0131575
0.0131473
0.0131371
0.0131267
0.0131161
0.0131054
0.0130946
0.0130837
0.0130726
0.0130613
0.0130499
0.0130384
0.0130267
0.0130148
0.0130028
0.0129906
0.0129782
0.0129657
0.012953
0.0129402
0.0129272
0.012914
0.0129007
0.0128873
0.0128737
0.0128599
0.012846
0.012832
0.0128179
0.0128038
0.0127895
0.0127751
0.0127607
0.0127463
0.0127319
0.0127174
0.012703
0.0126886
0.0126743
0.01266
0.0126458
0.0126317
0.0126177
0.0126039
0.0125902
0.0125766
0.0131801
0.0131684
0.0131566
0.0131446
0.0131325
0.0131202
0.0131078
0.0130951
0.0130823
0.0130692
0.013056
0.0130425
0.0130288
0.0130149
0.0130008
0.0129864
0.0129717
0.0129568
0.0129415
0.012926
0.0129102
0.012894
0.0128775
0.0128607
0.0128435
0.0128259
0.012808
0.0127897
0.0127709
0.0127518
0.0127322
0.0127122
0.0126918
0.0126709
0.0126497
0.0126281
0.0126061
0.0125838
0.0125612
0.0125384
0.0125153
0.0124922
0.0124689
0.0124457
0.0124226
0.0123995
0.0123767
0.0123541
0.0123318
0.0123099
0.0122885
0.0122677
0.0122475
0.012228
0.0122092
0.0121912
0.0121739
0.0121573
0.0121414
0.0121264
0.0121121
0.0120986
0.013034
0.013018
0.0130018
0.0129853
0.0129685
0.0129513
0.0129339
0.0129161
0.0128979
0.0128794
0.0128604
0.012841
0.0128211
0.0128008
0.0127799
0.0127585
0.0127365
0.0127139
0.0126906
0.0126666
0.0126419
0.0126164
0.0125901
0.0125629
0.0125348
0.0125058
0.0124758
0.0124447
0.0124127
0.0123796
0.0123456
0.0123106
0.0122747
0.0122381
0.012201
0.0121634
0.0121256
0.0120877
0.01205
0.0120127
0.0119761
0.0119404
0.011906
0.0118731
0.0118418
0.0118123
0.0117847
0.0117593
0.0117361
0.0117158
0.0116997
0.0116872
0.0116774
0.01167
0.0116647
0.0116613
0.0116599
0.0116604
0.0116627
0.011667
0.0116733
0.0116815
0.0128634
0.0128416
0.0128194
0.0127966
0.0127734
0.0127495
0.012725
0.0126999
0.0126741
0.0126475
0.0126202
0.0125919
0.0125627
0.0125325
0.0125011
0.0124686
0.0124349
0.0123997
0.012363
0.0123247
0.0122847
0.0122429
0.012199
0.0121531
0.012105
0.0120547
0.0120021
0.0119474
0.0118907
0.0118322
0.0117725
0.0117118
0.0116508
0.01159
0.0115304
0.0114726
0.0114175
0.0113657
0.011318
0.0112754
0.0112395
0.0112124
0.0111919
0.0111777
0.0111695
0.0111672
0.0111707
0.0111802
0.0111958
0.0112175
0.011245
0.0112776
0.0113145
0.0113539
0.0113952
0.0114413
0.011492
0.0115478
0.0116092
0.011679
0.0117542
0.0118338
0.0126648
0.0126352
0.0126049
0.0125738
0.0125417
0.0125086
0.0124745
0.0124391
0.0124024
0.0123644
0.0123247
0.0122834
0.0122402
0.012195
0.0121475
0.0120976
0.012045
0.0119894
0.0119306
0.0118683
0.0118022
0.0117321
0.0116577
0.011579
0.0114959
0.0114088
0.0113181
0.0112249
0.0111302
0.0110356
0.0109431
0.0108545
0.0107723
0.0106992
0.0106397
0.0105952
0.0105639
0.0105467
0.0105438
0.0105554
0.0105825
0.0106258
0.0106851
0.0107594
0.0108472
0.0109449
0.0110539
0.0111783
0.0113225
0.0114819
0.0116524
0.0118315
0.0120179
0.012212
0.0124127
0.012618
0.0128272
0.01304
0.0132561
0.0134748
0.0136955
0.0139175
0.0124353
0.0123956
0.0123547
0.0123124
0.0122686
0.0122231
0.0121757
0.0121263
0.0120746
0.0120203
0.0119633
0.0119032
0.0118396
0.0117722
0.0117006
0.0116242
0.0115426
0.0114553
0.0113617
0.0112613
0.0111537
0.0110385
0.0109158
0.0107862
0.0106507
0.0105115
0.0103718
0.0102357
0.0101081
0.00999542
0.00990813
0.0098443
0.00980732
0.00980053
0.00982634
0.00988718
0.00998396
0.0101153
0.010277
0.0104627
0.0106871
0.010949
0.0112411
0.0115606
0.011902
0.0122582
0.0126297
0.0130106
0.0133982
0.0137914
0.0141894
0.0145926
0.015001
0.0154126
0.0158242
0.0162356
0.016648
0.0170649
0.0174853
0.0179069
0.0183238
0.0187357
0.0121713
0.0121187
0.0120642
0.0120076
0.0119485
0.0118868
0.0118221
0.0117541
0.0116823
0.0116064
0.0115257
0.0114399
0.0113482
0.01125
0.0111445
0.0110309
0.0109082
0.0107756
0.0106323
0.0104775
0.0103112
0.0101338
0.00994703
0.00975445
0.00956215
0.00937815
0.00921488
0.00908804
0.00900109
0.00896489
0.008988
0.00907589
0.00923348
0.00945894
0.00974666
0.0101031
0.0105259
0.0110025
0.0115152
0.0120592
0.0126348
0.0132387
0.0138655
0.0145106
0.0151699
0.0158377
0.016503
0.0171602
0.0178088
0.0184514
0.0190821
0.0196984
0.0202988
0.0208823
0.0214476
0.0219942
0.0225214
0.0230293
0.0235182
0.0239886
0.0244413
0.0248774
0.0118691
0.0118005
0.0117292
0.0116547
0.0115767
0.0114947
0.0114083
0.0113168
0.0112198
0.0111163
0.0110058
0.0108874
0.0107599
0.0106225
0.0104738
0.0103126
0.0101376
0.00994763
0.00974179
0.0095201
0.00928409
0.00903775
0.00878849
0.00854891
0.00834313
0.00818205
0.00808978
0.0080902
0.00820052
0.00843073
0.00877765
0.00922911
0.00980454
0.0104719
0.0112113
0.0120181
0.0128722
0.0137532
0.0146488
0.0155489
0.0164449
0.0173302
0.0181992
0.0190477
0.0198721
0.0206699
0.021439
0.0221777
0.0228852
0.0235613
0.0242059
0.0248192
0.0254015
0.0259534
0.0264754
0.0269683
0.0274331
0.0278709
0.0282835
0.0286736
0.0290383
0.0293753
0.0115266
0.0114367
0.0113451
0.0112494
0.011149
0.011043
0.0109308
0.0108118
0.010685
0.0105494
0.0104041
0.0102478
0.0100793
0.00989691
0.00969915
0.00948432
0.00925083
0.00899755
0.00872458
0.00843464
0.00813506
0.00784023
0.00756979
0.0073444
0.00720505
0.00719771
0.00735969
0.00770905
0.00824337
0.00895878
0.00982728
0.0108022
0.0118598
0.012964
0.0140887
0.0152142
0.0163256
0.0174115
0.0184636
0.019476
0.0204449
0.0213681
0.0222447
0.0230746
0.0238585
0.0245975
0.025293
0.0259466
0.0265603
0.0271354
0.0276738
0.0281766
0.0286453
0.0290811
0.0294852
0.0298587
0.0302016
0.0305123
0.0307893
0.0310305
0.0312394
0.0314179
0.0111452
0.0110298
0.0109112
0.0107902
0.0106643
0.0105314
0.0103907
0.0102412
0.010082
0.00991186
0.0097296
0.00953377
0.00932275
0.00909478
0.00884791
0.00858023
0.00829016
0.00797743
0.00764507
0.00730326
0.00697378
0.00666872
0.00643131
0.00632541
0.00641917
0.00676386
0.00737434
0.00823674
0.00931967
0.0105428
0.0118464
0.0131806
0.0145096
0.0158086
0.017061
0.0182563
0.0193887
0.0204557
0.0214572
0.0223945
0.02327
0.0240867
0.0248477
0.025556
0.0262148
0.0268264
0.0273934
0.0279187
0.0284057
0.0288559
0.0292702
0.0296496
0.0299947
0.0303062
0.0305845
0.0308294
0.0310417
0.0312233
0.031375
0.0314972
0.0315902
0.0316544
0.0107243
0.0105807
0.0104328
0.0102806
0.010125
0.00996335
0.00979262
0.00961183
0.00941994
0.00921576
0.00899798
0.00876508
0.00851533
0.00824681
0.00795742
0.0076452
0.007309
0.00695047
0.00657893
0.00621981
0.0058858
0.00563072
0.00554108
0.00570081
0.00616284
0.00695645
0.00806985
0.00941045
0.0108813
0.0123909
0.0138814
0.0153177
0.0166803
0.0179599
0.0191537
0.0202626
0.0212892
0.0222375
0.0231121
0.0239181
0.0246604
0.025344
0.025973
0.0265514
0.0270824
0.0275688
0.0280132
0.0284179
0.0287849
0.0291155
0.0294105
0.0296701
0.0298962
0.0300924
0.0302606
0.0304012
0.0305142
0.0305991
0.0306561
0.0306853
0.0306863
0.0306589
0.0102642
0.0100898
0.00991077
0.00972667
0.00953759
0.00934484
0.00914457
0.00893379
0.00871162
0.00847698
0.00822864
0.00796514
0.00768481
0.0073857
0.00706575
0.00672309
0.0063573
0.00597297
0.00558999
0.00523497
0.00494791
0.00483329
0.00500143
0.00548618
0.00628809
0.00748507
0.00895879
0.0105678
0.0121928
0.0137665
0.0152531
0.0166364
0.017913
0.019086
0.0201612
0.0211449
0.0220431
0.0228607
0.0236046
0.0242813
0.0248969
0.0254565
0.025965
0.0264265
0.0268448
0.027219
0.0275533
0.0278495
0.0281092
0.0283331
0.0285214
0.02868
0.0288117
0.0289172
0.028997
0.029051
0.0290791
0.0290807
0.0290554
0.0290025
0.0289215
0.0288114
0.00976619
0.00955899
0.00934779
0.00913187
0.00891093
0.00868539
0.00845739
0.00821988
0.00797208
0.00771311
0.00744187
0.00715705
0.0068571
0.00654019
0.00620437
0.00584801
0.00547133
0.00508168
0.00471015
0.0043887
0.00420211
0.00430137
0.0047575
0.00548393
0.00646098
0.00792993
0.00957073
0.0112568
0.0128865
0.0144148
0.0158228
0.0171041
0.018266
0.0193186
0.0202719
0.0211361
0.0219175
0.0226154
0.0232412
0.0238027
0.0243065
0.0247578
0.0251611
0.0255199
0.0258373
0.0261152
0.0263558
0.0265603
0.0267296
0.0268637
0.0269698
0.0270494
0.0271028
0.0271304
0.027132
0.0271074
0.0270559
0.026977
0.0268697
0.0267335
0.0265675
0.0263711
0.00923276
0.00899168
0.00874836
0.00850196
0.00825198
0.00799833
0.00774195
0.00748363
0.00721712
0.00694184
0.00665694
0.0063613
0.00605354
0.00573202
0.00539501
0.00504112
0.004671
0.00429358
0.00394789
0.00368492
0.00363363
0.00396774
0.00465439
0.00548769
0.00652956
0.00804161
0.00971911
0.0113854
0.0129567
0.0144056
0.0157236
0.016897
0.0179461
0.0188849
0.0197248
0.0204756
0.0211454
0.0217407
0.0222688
0.0227365
0.0231497
0.0235133
0.0238314
0.0241075
0.0243445
0.0245444
0.0247091
0.0248398
0.0249371
0.0250035
0.0250425
0.0250541
0.025038
0.024994
0.0249212
0.0248187
0.0246854
0.02452
0.0243214
0.0240887
0.0238215
0.0235204
0.00866752
0.00839253
0.00811846
0.00784436
0.00756956
0.0072937
0.00701721
0.00674283
0.00646423
0.00618068
0.00589127
0.00559487
0.00529018
0.00497572
0.00464999
0.00431188
0.0039622
0.00361
0.00329686
0.00310273
0.00318936
0.00372598
0.00455859
0.00537946
0.00634416
0.00780832
0.00943623
0.0110388
0.012529
0.0138805
0.0150915
0.0161678
0.0171222
0.0179672
0.0187147
0.0193747
0.0199565
0.0204678
0.0209158
0.0213071
0.021647
0.0219403
0.0221909
0.0224021
0.0225764
0.022716
0.0228227
0.0228977
0.0229421
0.0229571
0.0229424
0.0228975
0.0228217
0.0227136
0.0225716
0.0223935
0.0221768
0.0219186
0.0216164
0.0212683
0.0208749
0.0204418
0.00807519
0.00776753
0.00746554
0.00716798
0.00687389
0.00658255
0.00629383
0.00600945
0.00572697
0.00544373
0.00515864
0.00487048
0.00457795
0.00427973
0.00397455
0.00366158
0.00334169
0.0030228
0.00274225
0.0026117
0.00280906
0.00349138
0.00441797
0.00514822
0.00593061
0.00726518
0.0087919
0.0103137
0.0117264
0.0129971
0.0141244
0.0151176
0.0159896
0.0167535
0.0174218
0.0180053
0.0185137
0.0189556
0.0193382
0.0196679
0.0199499
0.0201888
0.0203882
0.0205511
0.0206798
0.0207765
0.0208426
0.0208796
0.020889
0.0208692
0.0208172
0.0207321
0.0206124
0.020456
0.0202601
0.0200209
0.0197341
0.0193945
0.0189971
0.0185388
0.0180239
0.0174803
0.00746156
0.00712388
0.00679828
0.00648289
0.00617617
0.00587678
0.00558377
0.00529707
0.0050186
0.0047434
0.00447013
0.0041974
0.00392383
0.00364818
0.00336943
0.00308702
0.0028019
0.00252058
0.00227393
0.00218623
0.00244904
0.00321599
0.00416556
0.00481224
0.00547034
0.00653075
0.00792877
0.00936523
0.0107054
0.0119042
0.0129579
0.0138768
0.0146749
0.0153666
0.0159651
0.0164824
0.0169287
0.0173129
0.0176424
0.0179235
0.0181613
0.01836
0.0185229
0.0186529
0.0187519
0.0188217
0.0188636
0.0188787
0.0188679
0.0188323
0.0187628
0.0186583
0.0185173
0.0183371
0.0181143
0.0178446
0.0175229
0.0171433
0.0167001
0.0161904
0.0156208
0.0150285
0.0068333
0.00646976
0.00612629
0.00579984
0.00548789
0.00518823
0.004899
0.00461925
0.00435076
0.00408963
0.00383384
0.00358163
0.00333147
0.00308212
0.00283274
0.00258304
0.00233405
0.00209107
0.00187854
0.00180794
0.00208915
0.00287244
0.00382938
0.00440684
0.0049095
0.00569584
0.00694953
0.00829474
0.00956551
0.0106981
0.0116842
0.0125344
0.0132645
0.0138902
0.0144261
0.014885
0.0152779
0.0156139
0.0159005
0.0161439
0.0163489
0.0165195
0.0166587
0.0167689
0.016852
0.016909
0.0169411
0.0169487
0.0169323
0.0168918
0.0168252
0.0167227
0.0165838
0.0164057
0.0161856
0.0159197
0.0156035
0.015233
0.0148045
0.0143178
0.0137797
0.0132122
0.0061978
0.00581404
0.00545967
0.0051297
0.00482018
0.00452771
0.00424946
0.00398357
0.00373089
0.00348874
0.00325451
0.0030261
0.0028018
0.00258037
0.00236107
0.00214385
0.00192983
0.00172331
0.00154201
0.0014681
0.00173454
0.00248076
0.00344361
0.00398463
0.00434943
0.00486695
0.0059335
0.007174
0.00837529
0.00944531
0.0103674
0.0111527
0.0118185
0.0123825
0.0128609
0.0132674
0.0136137
0.0139089
0.0141607
0.0143749
0.0145562
0.0147082
0.0148337
0.0149345
0.0150121
0.0150675
0.0151011
0.015113
0.0151028
0.0150698
0.0150122
0.0149285
0.0148114
0.0146564
0.0144623
0.0142261
0.0139451
0.013617
0.0132408
0.0128188
0.0123583
0.011875
0.00556284
0.00516592
0.00480848
0.00448281
0.00418306
0.00390449
0.00364319
0.00339644
0.00316406
0.00294434
0.00273419
0.00253122
0.00233363
0.00214014
0.00195011
0.00176363
0.00158194
0.00140872
0.00125662
0.00118305
0.00140255
0.00209077
0.00301731
0.00357362
0.0038526
0.00421186
0.00494225
0.00605514
0.00718296
0.0081923
0.00905284
0.00977511
0.0103789
0.0108843
0.0113088
0.0116673
0.0119719
0.012232
0.0124549
0.0126463
0.0128105
0.0129508
0.0130694
0.0131679
0.0132476
0.0133087
0.0133516
0.0133758
0.0133806
0.0133648
0.0133267
0.0132644
0.013175
0.0130566
0.0129043
0.0127139
0.0124852
0.0122175
0.0119109
0.0115686
0.0111971
0.0108065
0.00493639
0.00453449
0.00418221
0.00386836
0.00358496
0.00332579
0.003086
0.00286208
0.00265299
0.00245766
0.00227267
0.00209547
0.00192419
0.00175756
0.00159501
0.00143673
0.00128405
0.0011404
0.00101528
0.000947403
0.00109588
0.00171278
0.00257697
0.00317376
0.00339963
0.00360347
0.00403509
0.0049773
0.00602251
0.00697159
0.007772
0.00843244
0.00897559
0.00942402
0.0097972
0.0101109
0.0103775
0.0106064
0.0108047
0.0109776
0.011129
0.0112617
0.0113777
0.0114782
0.0115639
0.011635
0.0116914
0.0117323
0.011757
0.0117639
0.0117514
0.0117177
0.0116605
0.0115779
0.0114678
0.0113301
0.0111619
0.0109625
0.0107316
0.0104723
0.0101895
0.0098886
0.00432625
0.00392831
0.00358926
0.00329397
0.00303226
0.00279662
0.00258138
0.00238239
0.00219824
0.00202794
0.00186801
0.00171585
0.00156961
0.00142805
0.00129065
0.00115767
0.00103058
0.000912914
0.00081278
0.000756786
0.000855504
0.00136171
0.00214624
0.00277897
0.00299608
0.00310065
0.00336385
0.00397307
0.0049176
0.00580518
0.00654663
0.00714589
0.00762911
0.00802198
0.00834577
0.00861712
0.0088485
0.00904906
0.00922543
0.00938237
0.00952326
0.00965047
0.00976557
0.0098695
0.00996266
0.010045
0.0101161
0.0101752
0.0102211
0.0102525
0.0102678
0.0102652
0.010243
0.0101997
0.0101339
0.0100451
0.00993215
0.00979541
0.00963697
0.00945762
0.00925878
0.00904203
0.00373982
0.00335499
0.00303653
0.00276532
0.00252923
0.00231975
0.00213065
0.00195746
0.00179851
0.00165282
0.00151694
0.00138838
0.00126533
0.00114663
0.0010318
0.000921217
0.000816631
0.00072221