/*--------------------------------*- C++ -*----------------------------------*\
  =========                 |
  \\      /  F ield         | OpenFOAM: The Open Source CFD Toolbox
   \\    /   O peration     | Website:  https://openfoam.org
    \\  /    A nd           | Version:  9
     \\/     M anipulation  |
\*---------------------------------------------------------------------------*/
FoamFile
{
    format      ascii;
    class       volScalarField;
    location    "0.0025";
    object      nuTilda;
}
// * * * * * * * * * * * * * * * * * * * * * * * * * * * * * * * * * * * * * //

dimensions      [0 2 -1 0 0 0 0];

internalField   nonuniform List<scalar> 
7154
(
0.0140507
0.014051
0.0140512
0.0140515
0.0140517
0.0140519
0.014052
0.0140522
0.0140524
0.0140526
0.0140528
0.0140529
0.0140531
0.0140532
0.0140534
0.0140535
0.0140537
0.0140538
0.0140539
0.0140541
0.0140542
0.0140543
0.0140544
0.0140545
0.0140546
0.0140548
0.0140549
0.014055
0.0140551
0.0140552
0.0140553
0.0140554
0.0140555
0.0140555
0.0140556
0.0140557
0.0140558
0.0140559
0.014056
0.0140561
0.0140562
0.0140562
0.0140563
0.0140564
0.0140565
0.0140566
0.0140567
0.0140567
0.0140568
0.0140569
0.014057
0.0140571
0.0140572
0.0140572
0.0140573
0.0140574
0.0140501
0.0140509
0.0140517
0.0140523
0.0140529
0.0140533
0.0140537
0.0140539
0.0140541
0.0140542
0.0140542
0.0140542
0.0140542
0.0140544
0.0140546
0.0140549
0.0140553
0.0140557
0.014056
0.0140564
0.0140568
0.0140572
0.0140576
0.014058
0.0140584
0.0140588
0.0140592
0.0140596
0.01406
0.0140604
0.0140608
0.0140612
0.0140617
0.0140621
0.0140625
0.014063
0.0140634
0.0140639
0.0140644
0.0140648
0.0140653
0.0140658
0.0140663
0.0140669
0.0140674
0.014068
0.0140686
0.0140692
0.0140698
0.0140704
0.0140711
0.0140718
0.0140725
0.0140733
0.0140741
0.0140748
0.0140483
0.0140481
0.014048
0.0140478
0.0140476
0.0140474
0.0140471
0.0140469
0.0140466
0.0140463
0.014046
0.0140459
0.0140459
0.0140458
0.0140458
0.0140457
0.0140456
0.0140453
0.014045
0.0140448
0.0140446
0.0140445
0.0140443
0.0140442
0.0140441
0.014044
0.0140439
0.0140438
0.0140438
0.0140437
0.0140436
0.0140436
0.0140436
0.0140435
0.0140435
0.0140435
0.0140435
0.0140435
0.0140435
0.0140435
0.0140436
0.0140436
0.0140437
0.0140438
0.0140439
0.014044
0.0140442
0.0140443
0.0140445
0.0140447
0.014045
0.0140452
0.0140455
0.0140458
0.0140461
0.0140464
0.0140054
0.0140054
0.0140054
0.0140054
0.0140054
0.0140054
0.0140054
0.0140055
0.0140055
0.0140056
0.0140056
0.0140056
0.0140056
0.0140057
0.0140059
0.0140061
0.0140064
0.0140067
0.0140071
0.0140075
0.014008
0.0140085
0.014009
0.0140096
0.0140101
0.0140107
0.0140112
0.0140118
0.0140123
0.0140129
0.0140134
0.0140139
0.0140145
0.014015
0.0140155
0.014016
0.0140165
0.014017
0.0140175
0.014018
0.0140185
0.0140189
0.0140194
0.0140199
0.0140203
0.0140208
0.0140212
0.0140216
0.0140221
0.0140225
0.0140229
0.0140233
0.0140237
0.0140241
0.0140245
0.0140249
0.0139982
0.0139983
0.0139985
0.0139986
0.0139988
0.0139989
0.0139991
0.0139992
0.0139994
0.0139995
0.0139997
0.0139998
0.0139998
0.0139999
0.0139999
0.0139999
0.0139998
0.0139997
0.0139994
0.0139992
0.013999
0.013999
0.013999
0.013999
0.013999
0.0139991
0.0139992
0.0139993
0.0139994
0.0139996
0.0139998
0.014
0.0140002
0.0140004
0.0140006
0.0140009
0.0140011
0.0140013
0.0140016
0.0140018
0.014002
0.0140022
0.0140024
0.0140026
0.0140028
0.014003
0.0140032
0.0140033
0.0140035
0.0140037
0.0140038
0.014004
0.0140042
0.0140043
0.0140045
0.0140046
0.0139791
0.0139792
0.0139793
0.0139793
0.0139794
0.0139795
0.0139795
0.0139796
0.0139797
0.0139797
0.0139798
0.0139798
0.0139798
0.0139797
0.0139795
0.0139793
0.0139791
0.013979
0.013979
0.0139791
0.0139791
0.0139792
0.0139794
0.0139795
0.0139797
0.0139798
0.01398
0.0139803
0.0139805
0.0139808
0.013981
0.0139813
0.0139816
0.0139819
0.0139823
0.0139826
0.0139829
0.0139832
0.0139835
0.0139838
0.013984
0.0139843
0.0139846
0.0139848
0.0139851
0.0139853
0.0139855
0.0139857
0.0139859
0.0139861
0.0139863
0.0139865
0.0139866
0.0139868
0.0139869
0.013987
0.0139642
0.0139644
0.0139646
0.0139649
0.0139651
0.0139653
0.0139655
0.0139656
0.0139658
0.0139659
0.0139661
0.0139662
0.0139663
0.0139664
0.0139665
0.0139666
0.0139666
0.0139667
0.0139667
0.0139667
0.0139666
0.0139665
0.0139662
0.013966
0.0139657
0.0139654
0.0139652
0.0139649
0.0139646
0.0139644
0.0139641
0.0139639
0.0139636
0.0139634
0.0139631
0.0139629
0.0139626
0.0139624
0.0139622
0.0139619
0.0139617
0.0139615
0.0139612
0.013961
0.0139608
0.0139605
0.0139603
0.01396
0.0139598
0.0139596
0.0139593
0.0139591
0.0139589
0.0139586
0.0139584
0.0139582
0.0139612
0.0139613
0.0139616
0.0139618
0.0139621
0.0139624
0.0139627
0.013963
0.0139633
0.0139636
0.0139639
0.0139642
0.0139645
0.0139648
0.0139651
0.0139653
0.0139656
0.0139659
0.0139661
0.0139664
0.0139666
0.0139669
0.0139671
0.0139673
0.0139675
0.0139677
0.0139679
0.0139681
0.0139682
0.0139683
0.0139685
0.0139686
0.0139687
0.0139687
0.0139688
0.0139688
0.0139688
0.0139688
0.0139688
0.0139687
0.0139686
0.0139684
0.013968
0.0139676
0.0139672
0.0139668
0.0139666
0.0139663
0.013966
0.0139658
0.0139655
0.0139652
0.013965
0.0139647
0.0139645
0.0139643
0.0139632
0.0139633
0.0139635
0.0139636
0.0139637
0.0139638
0.0139639
0.013964
0.013964
0.013964
0.013964
0.013964
0.013964
0.0139639
0.0139638
0.0139636
0.0139634
0.0139629
0.0139624
0.0139619
0.0139615
0.0139611
0.0139607
0.0139603
0.0139599
0.0139595
0.0139591
0.0139587
0.0139584
0.013958
0.0139576
0.0139572
0.0139568
0.0139565
0.0139561
0.0139557
0.0139553
0.0139549
0.0139545
0.0139541
0.0139537
0.0139533
0.0139529
0.0139525
0.0139521
0.0139517
0.0139513
0.0139509
0.0139505
0.01395
0.0139496
0.0139492
0.0139488
0.0139484
0.0139479
0.0139475
0.0139423
0.0139419
0.0139416
0.0139412
0.0139408
0.0139404
0.01394
0.0139396
0.0139392
0.0139389
0.0139385
0.0139381
0.0139378
0.0139374
0.0139371
0.0139366
0.0139361
0.0139359
0.0139358
0.0139358
0.0139359
0.013936
0.0139361
0.0139361
0.0139362
0.0139362
0.0139362
0.0139362
0.0139361
0.013936
0.0139359
0.0139357
0.0139353
0.0139347
0.0139342
0.0139336
0.0139331
0.0139327
0.0139323
0.0139319
0.0139315
0.0139312
0.0139308
0.0139304
0.01393
0.0139295
0.0139291
0.0139287
0.0139283
0.0139279
0.0139275
0.0139271
0.0139267
0.0139263
0.0139259
0.0139255
0.0139206
0.0139201
0.0139195
0.013919
0.0139184
0.0139178
0.0139173
0.0139167
0.0139161
0.0139156
0.013915
0.0139144
0.0139139
0.0139133
0.0139127
0.0139122
0.0139116
0.0139112
0.0139111
0.0139111
0.0139112
0.0139112
0.0139111
0.013911
0.0139109
0.0139106
0.0139101
0.0139095
0.0139089
0.0139083
0.0139076
0.013907
0.0139064
0.0139058
0.0139051
0.0139045
0.0139039
0.0139033
0.0139026
0.013902
0.0139014
0.0139007
0.0139001
0.0138995
0.0138988
0.0138982
0.0138975
0.0138969
0.0138963
0.0138956
0.013895
0.0138943
0.0138937
0.013893
0.0138924
0.0138917
0.0139
0.0138994
0.0138987
0.0138981
0.0138974
0.0138968
0.0138961
0.0138955
0.0138948
0.0138941
0.0138935
0.0138928
0.0138921
0.0138915
0.0138908
0.0138901
0.0138895
0.0138888
0.0138881
0.0138874
0.0138868
0.0138861
0.0138854
0.0138847
0.0138841
0.0138834
0.0138827
0.013882
0.0138814
0.0138807
0.01388
0.0138793
0.0138786
0.0138779
0.0138772
0.0138765
0.0138758
0.0138752
0.0138745
0.0138738
0.0138731
0.0138724
0.0138716
0.0138709
0.0138702
0.0138695
0.0138688
0.0138681
0.0138674
0.0138667
0.0138659
0.0138652
0.0138645
0.0138638
0.013863
0.0138623
0.0138804
0.0138796
0.0138789
0.0138781
0.0138774
0.0138766
0.0138758
0.0138751
0.0138743
0.0138736
0.0138728
0.013872
0.0138712
0.0138705
0.0138697
0.0138689
0.0138681
0.0138673
0.0138666
0.0138658
0.013865
0.0138642
0.0138634
0.0138626
0.0138618
0.013861
0.0138602
0.0138594
0.0138586
0.0138578
0.013857
0.0138562
0.0138554
0.0138546
0.0138538
0.013853
0.0138522
0.0138514
0.0138505
0.0138497
0.0138489
0.0138481
0.0138472
0.0138464
0.0138456
0.0138447
0.0138439
0.0138431
0.0138422
0.0138414
0.0138405
0.0138397
0.0138389
0.013838
0.0138371
0.0138363
0.0138615
0.0138607
0.0138598
0.0138589
0.013858
0.0138572
0.0138563
0.0138554
0.0138545
0.0138536
0.0138528
0.0138519
0.013851
0.0138501
0.0138492
0.0138483
0.0138474
0.0138465
0.0138456
0.0138447
0.0138438
0.0138429
0.013842
0.0138411
0.0138401
0.0138392
0.0138383
0.0138374
0.0138365
0.0138355
0.0138346
0.0138337
0.0138328
0.0138318
0.0138309
0.01383
0.013829
0.0138281
0.0138271
0.0138262
0.0138252
0.0138243
0.0138233
0.0138224
0.0138214
0.0138205
0.0138195
0.0138185
0.0138176
0.0138166
0.0138156
0.0138146
0.0138137
0.0138127
0.0138117
0.0138107
0.0138432
0.0138422
0.0138412
0.0138401
0.0138391
0.0138381
0.0138371
0.0138361
0.0138351
0.0138341
0.0138331
0.013832
0.013831
0.01383
0.0138289
0.0138279
0.0138269
0.0138258
0.0138248
0.0138238
0.0138227
0.0138217
0.0138206
0.0138196
0.0138185
0.0138175
0.0138164
0.0138154
0.0138143
0.0138132
0.0138122
0.0138111
0.01381
0.0138089
0.0138079
0.0138068
0.0138057
0.0138046
0.0138035
0.0138024
0.0138013
0.0138002
0.0137991
0.013798
0.0137969
0.0137958
0.0137947
0.0137936
0.0137924
0.0137913
0.0137902
0.0137891
0.0137879
0.0137868
0.0137857
0.0137845
0.0138247
0.0138236
0.0138224
0.0138213
0.0138201
0.013819
0.0138178
0.0138166
0.0138155
0.0138143
0.0138131
0.013812
0.0138108
0.0138096
0.0138084
0.0138072
0.013806
0.0138048
0.0138037
0.0138025
0.0138013
0.0138001
0.0137989
0.0137976
0.0137964
0.0137952
0.013794
0.0137928
0.0137916
0.0137903
0.0137891
0.0137879
0.0137866
0.0137854
0.0137842
0.0137829
0.0137817
0.0137804
0.0137791
0.0137779
0.0137766
0.0137753
0.0137741
0.0137728
0.0137715
0.0137702
0.013769
0.0137677
0.0137664
0.0137651
0.0137638
0.0137625
0.0137611
0.0137598
0.0137585
0.0137572
0.0138058
0.0138045
0.0138032
0.0138019
0.0138005
0.0137992
0.0137979
0.0137965
0.0137952
0.0137939
0.0137925
0.0137912
0.0137898
0.0137885
0.0137871
0.0137857
0.0137844
0.013783
0.0137816
0.0137802
0.0137789
0.0137775
0.0137761
0.0137747
0.0137733
0.0137719
0.0137705
0.0137691
0.0137677
0.0137663
0.0137648
0.0137634
0.013762
0.0137606
0.0137591
0.0137577
0.0137562
0.0137548
0.0137533
0.0137519
0.0137504
0.0137489
0.0137475
0.013746
0.0137445
0.013743
0.0137415
0.01374
0.0137385
0.013737
0.0137355
0.013734
0.0137325
0.0137309
0.0137294
0.0137279
0.0137861
0.0137846
0.0137831
0.0137816
0.01378
0.0137785
0.013777
0.0137754
0.0137739
0.0137724
0.0137708
0.0137693
0.0137677
0.0137661
0.0137646
0.013763
0.0137614
0.0137599
0.0137583
0.0137567
0.0137551
0.0137535
0.0137519
0.0137503
0.0137487
0.0137471
0.0137455
0.0137438
0.0137422
0.0137406
0.0137389
0.0137373
0.0137356
0.013734
0.0137323
0.0137307
0.013729
0.0137273
0.0137256
0.0137239
0.0137223
0.0137206
0.0137188
0.0137171
0.0137154
0.0137137
0.013712
0.0137102
0.0137085
0.0137067
0.013705
0.0137032
0.0137015
0.0136997
0.0136979
0.0136961
0.0137653
0.0137636
0.0137618
0.0137601
0.0137583
0.0137566
0.0137548
0.013753
0.0137512
0.0137495
0.0137477
0.0137459
0.0137441
0.0137423
0.0137405
0.0137387
0.0137369
0.0137351
0.0137333
0.0137314
0.0137296
0.0137278
0.0137259
0.0137241
0.0137222
0.0137203
0.0137185
0.0137166
0.0137147
0.0137128
0.0137109
0.013709
0.0137071
0.0137052
0.0137033
0.0137014
0.0136994
0.0136975
0.0136955
0.0136936
0.0136916
0.0136896
0.0136877
0.0136857
0.0136837
0.0136817
0.0136797
0.0136776
0.0136756
0.0136736
0.0136715
0.0136695
0.0136674
0.0136654
0.0136633
0.0136612
0.0137431
0.0137411
0.0137391
0.0137371
0.0137351
0.013733
0.013731
0.013729
0.0137269
0.0137249
0.0137228
0.0137208
0.0137187
0.0137167
0.0137146
0.0137125
0.0137104
0.0137083
0.0137062
0.0137041
0.013702
0.0136999
0.0136977
0.0136956
0.0136935
0.0136913
0.0136891
0.013687
0.0136848
0.0136826
0.0136804
0.0136782
0.013676
0.0136738
0.0136716
0.0136693
0.0136671
0.0136648
0.0136626
0.0136603
0.013658
0.0136557
0.0136534
0.0136511
0.0136488
0.0136465
0.0136442
0.0136418
0.0136394
0.0136371
0.0136347
0.0136323
0.0136299
0.0136275
0.013625
0.0136226
0.0137193
0.013717
0.0137147
0.0137123
0.01371
0.0137077
0.0137054
0.013703
0.0137007
0.0136983
0.0136959
0.0136936
0.0136912
0.0136888
0.0136864
0.013684
0.0136816
0.0136792
0.0136768
0.0136743
0.0136719
0.0136694
0.013667
0.0136645
0.013662
0.0136595
0.013657
0.0136545
0.013652
0.0136495
0.013647
0.0136444
0.0136419
0.0136393
0.0136367
0.0136341
0.0136315
0.0136289
0.0136263
0.0136236
0.013621
0.0136183
0.0136156
0.0136129
0.0136102
0.0136075
0.0136048
0.0136021
0.0135993
0.0135965
0.0135937
0.013591
0.0135881
0.0135853
0.0135825
0.0135796
0.0136935
0.0136909
0.0136882
0.0136855
0.0136829
0.0136802
0.0136775
0.0136748
0.0136721
0.0136694
0.0136667
0.0136639
0.0136612
0.0136584
0.0136557
0.0136529
0.0136501
0.0136473
0.0136445
0.0136417
0.0136389
0.0136361
0.0136332
0.0136304
0.0136275
0.0136246
0.0136217
0.0136188
0.0136159
0.013613
0.0136101
0.0136071
0.0136041
0.0136012
0.0135982
0.0135952
0.0135921
0.0135891
0.013586
0.013583
0.0135799
0.0135768
0.0135737
0.0135705
0.0135674
0.0135642
0.013561
0.0135578
0.0135546
0.0135514
0.0135481
0.0135448
0.0135415
0.0135382
0.0135349
0.0135316
0.0136657
0.0136626
0.0136595
0.0136565
0.0136534
0.0136503
0.0136472
0.0136441
0.013641
0.0136379
0.0136347
0.0136316
0.0136284
0.0136252
0.0136221
0.0136189
0.0136157
0.0136124
0.0136092
0.013606
0.0136027
0.0135994
0.0135961
0.0135928
0.0135895
0.0135862
0.0135828
0.0135795
0.0135761
0.0135727
0.0135693
0.0135659
0.0135624
0.013559
0.0135555
0.013552
0.0135485
0.0135449
0.0135414
0.0135378
0.0135342
0.0135306
0.013527
0.0135233
0.0135196
0.0135159
0.0135122
0.0135085
0.0135047
0.0135009
0.0134971
0.0134933
0.0134894
0.0134855
0.0134816
0.0134777
0.0136355
0.013632
0.0136285
0.0136249
0.0136214
0.0136178
0.0136142
0.0136107
0.0136071
0.0136035
0.0135998
0.0135962
0.0135926
0.0135889
0.0135852
0.0135815
0.0135778
0.0135741
0.0135704
0.0135666
0.0135629
0.0135591
0.0135553
0.0135515
0.0135476
0.0135438
0.0135399
0.013536
0.0135321
0.0135281
0.0135242
0.0135202
0.0135162
0.0135122
0.0135081
0.0135041
0.0135
0.0134959
0.0134917
0.0134876
0.0134834
0.0134792
0.0134749
0.0134706
0.0134664
0.013462
0.0134577
0.0134533
0.0134489
0.0134444
0.01344
0.0134355
0.0134309
0.0134264
0.0134218
0.0134171
0.0136029
0.0135988
0.0135947
0.0135906
0.0135865
0.0135824
0.0135783
0.0135741
0.01357
0.0135658
0.0135617
0.0135575
0.0135533
0.0135491
0.0135448
0.0135406
0.0135363
0.013532
0.0135277
0.0135233
0.013519
0.0135146
0.0135102
0.0135058
0.0135013
0.0134969
0.0134924
0.0134879
0.0134833
0.0134788
0.0134742
0.0134696
0.0134649
0.0134603
0.0134556
0.0134508
0.0134461
0.0134413
0.0134365
0.0134316
0.0134268
0.0134218
0.0134169
0.0134119
0.0134069
0.0134019
0.0133968
0.0133916
0.0133865
0.0133813
0.013376
0.0133708
0.0133654
0.0133601
0.0133547
0.0133492
0.0135677
0.013563
0.0135582
0.0135535
0.0135487
0.013544
0.0135392
0.0135344
0.0135296
0.0135248
0.01352
0.0135152
0.0135103
0.0135055
0.0135006
0.0134957
0.0134907
0.0134858
0.0134808
0.0134758
0.0134708
0.0134657
0.0134606
0.0134555
0.0134504
0.0134452
0.01344
0.0134348
0.0134295
0.0134243
0.0134189
0.0134136
0.0134082
0.0134028
0.0133973
0.0133919
0.0133863
0.0133808
0.0133752
0.0133695
0.0133638
0.0133581
0.0133524
0.0133466
0.0133407
0.0133348
0.0133289
0.0133229
0.0133168
0.0133107
0.0133046
0.0132984
0.0132922
0.0132859
0.0132795
0.0132731
0.0135298
0.0135244
0.013519
0.0135135
0.013508
0.0135025
0.013497
0.0134915
0.0134859
0.0134804
0.0134748
0.0134692
0.0134636
0.013458
0.0134524
0.0134467
0.013441
0.0134353
0.0134296
0.0134238
0.013418
0.0134122
0.0134063
0.0134004
0.0133945
0.0133885
0.0133825
0.0133764
0.0133704
0.0133642
0.0133581
0.0133519
0.0133456
0.0133394
0.013333
0.0133266
0.0133202
0.0133138
0.0133072
0.0133007
0.0132941
0.0132874
0.0132807
0.0132739
0.0132671
0.0132602
0.0132532
0.0132462
0.0132392
0.013232
0.0132248
0.0132176
0.0132102
0.0132028
0.0131953
0.0131878
0.0134888
0.0134826
0.0134763
0.01347
0.0134637
0.0134574
0.013451
0.0134447
0.0134383
0.0134318
0.0134254
0.0134189
0.0134124
0.0134059
0.0133994
0.0133929
0.0133863
0.0133797
0.0133731
0.0133664
0.0133597
0.013353
0.0133462
0.0133394
0.0133326
0.0133257
0.0133187
0.0133117
0.0133047
0.0132976
0.0132905
0.0132833
0.013276
0.0132687
0.0132614
0.013254
0.0132465
0.013239
0.0132314
0.0132238
0.0132161
0.0132083
0.0132005
0.0131926
0.0131846
0.0131765
0.0131684
0.0131602
0.0131519
0.0131436
0.0131351
0.0131266
0.013118
0.0131093
0.0131004
0.0130916
0.0134442
0.013437
0.0134298
0.0134226
0.0134153
0.013408
0.0134007
0.0133933
0.013386
0.0133785
0.0133711
0.0133636
0.0133561
0.0133486
0.0133411
0.0133335
0.0133258
0.0133182
0.0133106
0.0133029
0.0132952
0.0132874
0.0132795
0.0132717
0.0132637
0.0132558
0.0132477
0.0132396
0.0132315
0.0132233
0.013215
0.0132067
0.0131983
0.0131898
0.0131813
0.0131727
0.013164
0.0131553
0.0131465
0.0131376
0.0131286
0.0131195
0.0131104
0.0131011
0.0130918
0.0130824
0.0130729
0.0130633
0.0130536
0.0130438
0.0130339
0.0130239
0.0130137
0.0130035
0.0129931
0.0129826
0.0133956
0.0133873
0.013379
0.0133706
0.0133622
0.0133538
0.0133454
0.0133369
0.0133284
0.0133199
0.0133113
0.0133027
0.013294
0.0132853
0.0132766
0.0132678
0.013259
0.0132501
0.0132412
0.0132323
0.0132233
0.0132144
0.0132053
0.0131962
0.013187
0.0131778
0.0131685
0.0131592
0.0131497
0.0131402
0.0131306
0.013121
0.0131112
0.0131014
0.0130915
0.0130815
0.0130714
0.0130613
0.013051
0.0130406
0.0130302
0.0130196
0.0130089
0.0129982
0.0129873
0.0129763
0.0129652
0.0129539
0.0129426
0.0129311
0.0129194
0.0129077
0.0128957
0.0128837
0.0128715
0.0128591
0.0133426
0.013333
0.0133234
0.0133137
0.013304
0.0132943
0.0132846
0.0132748
0.013265
0.0132551
0.0132452
0.0132353
0.0132253
0.0132152
0.0132051
0.013195
0.0131848
0.0131745
0.0131642
0.0131539
0.0131434
0.013133
0.0131226
0.013112
0.0131014
0.0130907
0.01308
0.0130691
0.0130582
0.0130472
0.0130361
0.0130249
0.0130136
0.0130022
0.0129907
0.0129791
0.0129673
0.0129555
0.0129436
0.0129315
0.0129193
0.012907
0.0128946
0.012882
0.0128693
0.0128565
0.0128435
0.0128303
0.012817
0.0128035
0.0127899
0.0127761
0.0127621
0.0127479
0.0127336
0.012719
0.0132846
0.0132736
0.0132625
0.0132513
0.0132401
0.0132289
0.0132177
0.0132064
0.013195
0.0131836
0.0131722
0.0131607
0.0131491
0.0131375
0.0131258
0.0131141
0.0131023
0.0130905
0.0130785
0.0130665
0.0130545
0.0130424
0.0130302
0.0130179
0.0130057
0.0129933
0.0129809
0.0129683
0.0129556
0.0129429
0.01293
0.012917
0.0129039
0.0128907
0.0128773
0.0128638
0.0128502
0.0128365
0.0128226
0.0128086
0.0127944
0.01278
0.0127656
0.0127509
0.0127361
0.0127211
0.0127059
0.0126905
0.012675
0.0126592
0.0126433
0.0126271
0.0126107
0.0125941
0.0125772
0.0125601
0.0132214
0.0132086
0.0131957
0.0131829
0.0131699
0.013157
0.0131439
0.0131309
0.0131178
0.0131046
0.0130913
0.013078
0.0130647
0.0130513
0.0130378
0.0130242
0.0130105
0.0129968
0.012983
0.0129691
0.0129552
0.0129411
0.012927
0.0129128
0.0128985
0.0128842
0.0128698
0.0128552
0.0128405
0.0128257
0.0128108
0.0127957
0.0127805
0.0127652
0.0127497
0.0127341
0.0127183
0.0127023
0.0126862
0.0126699
0.0126534
0.0126367
0.0126199
0.0126028
0.0125855
0.0125681
0.0125504
0.0125325
0.0125143
0.012496
0.0124773
0.0124584
0.0124393
0.0124198
0.0124001
0.0123801
0.0131522
0.0131374
0.0131226
0.0131077
0.0130927
0.0130777
0.0130626
0.0130475
0.0130323
0.0130171
0.0130018
0.0129864
0.0129709
0.0129554
0.0129397
0.012924
0.0129082
0.0128924
0.0128764
0.0128603
0.0128441
0.0128279
0.0128115
0.012795
0.0127784
0.0127617
0.012745
0.0127282
0.0127112
0.012694
0.0126767
0.0126593
0.0126417
0.0126239
0.0126059
0.0125878
0.0125695
0.0125509
0.0125322
0.0125133
0.0124942
0.0124748
0.0124553
0.0124355
0.0124154
0.0123952
0.0123746
0.0123538
0.0123327
0.0123113
0.0122897
0.0122677
0.0122454
0.0122227
0.0121997
0.0121764
0.0130766
0.0130594
0.0130422
0.013025
0.0130076
0.0129902
0.0129728
0.0129553
0.0129377
0.01292
0.0129023
0.0128845
0.0128666
0.0128486
0.0128305
0.0128123
0.012794
0.0127756
0.0127571
0.0127385
0.0127198
0.0127009
0.0126819
0.0126628
0.0126436
0.0126243
0.0126048
0.0125853
0.0125656
0.0125458
0.0125258
0.0125056
0.0124852
0.0124646
0.0124438
0.0124228
0.0124016
0.0123802
0.0123585
0.0123366
0.0123145
0.0122921
0.0122695
0.0122466
0.0122234
0.0121999
0.0121761
0.012152
0.0121275
0.0121028
0.0120777
0.0120522
0.0120263
0.012
0.0119733
0.0119462
0.0129938
0.0129739
0.0129539
0.0129338
0.0129138
0.0128936
0.0128734
0.012853
0.0128327
0.0128122
0.0127916
0.012771
0.0127502
0.0127294
0.0127084
0.0126873
0.0126661
0.0126448
0.0126234
0.0126018
0.0125801
0.0125583
0.0125364
0.0125143
0.012492
0.0124696
0.0124471
0.0124244
0.0124017
0.0123787
0.0123556
0.0123323
0.0123087
0.0122849
0.0122609
0.0122367
0.0122122
0.0121874
0.0121624
0.0121372
0.0121116
0.0120858
0.0120596
0.0120332
0.0120064
0.0119793
0.0119519
0.0119241
0.0118959
0.0118673
0.0118383
0.0118089
0.011779
0.0117487
0.0117179
0.0116866
0.012903
0.0128798
0.0128566
0.0128333
0.01281
0.0127865
0.0127631
0.0127395
0.0127158
0.0126921
0.0126682
0.0126443
0.0126202
0.012596
0.0125717
0.0125473
0.0125228
0.0124981
0.0124733
0.0124483
0.0124232
0.012398
0.0123726
0.012347
0.0123213
0.0122954
0.0122693
0.0122431
0.0122167
0.0121903
0.0121635
0.0121366
0.0121094
0.012082
0.0120543
0.0120264
0.0119982
0.0119697
0.0119409
0.0119118
0.0118824
0.0118527
0.0118226
0.0117923
0.0117615
0.0117304
0.0116988
0.0116669
0.0116346
0.0116018
0.0115685
0.0115348
0.0115006
0.0114658
0.0114305
0.0113947
0.0128031
0.0127761
0.0127491
0.0127221
0.0126949
0.0126677
0.0126404
0.0126131
0.0125856
0.012558
0.0125303
0.0125026
0.0124746
0.0124466
0.0124184
0.0123901
0.0123617
0.0123331
0.0123044
0.0122755
0.0122464
0.0122172
0.0121879
0.0121583
0.0121286
0.0120987
0.0120686
0.0120383
0.0120079
0.0119773
0.0119465
0.0119155
0.0118842
0.0118527
0.0118208
0.0117887
0.0117563
0.0117236
0.0116906
0.0116573
0.0116236
0.0115896
0.0115552
0.0115205
0.0114854
0.0114498
0.0114138
0.0113774
0.0113406
0.0113032
0.0112654
0.011227
0.0111881
0.0111486
0.0111085
0.0110678
0.0126931
0.0126617
0.0126302
0.0125987
0.0125671
0.0125355
0.0125037
0.0124719
0.01244
0.0124079
0.0123758
0.0123435
0.0123111
0.0122786
0.0122459
0.0122131
0.0121801
0.012147
0.0121138
0.0120803
0.0120468
0.012013
0.0119791
0.011945
0.0119107
0.0118762
0.0118415
0.0118067
0.0117716
0.0117364
0.011701
0.0116654
0.0116295
0.0115934
0.0115569
0.0115202
0.0114832
0.0114459
0.0114082
0.0113702
0.0113319
0.0112932
0.0112541
0.0112147
0.0111748
0.0111345
0.0110938
0.0110527
0.011011
0.0109689
0.0109262
0.0108829
0.0108391
0.0107947
0.0107496
0.0107039
0.0125717
0.012535
0.0124983
0.0124615
0.0124247
0.0123878
0.0123508
0.0123138
0.0122766
0.0122393
0.012202
0.0121645
0.0121268
0.0120891
0.0120512
0.0120132
0.011975
0.0119366
0.0118982
0.0118595
0.0118207
0.0117818
0.0117427
0.0117034
0.0116639
0.0116243
0.0115844
0.0115444
0.0115042
0.0114639
0.0114234
0.0113827
0.0113417
0.0113005
0.011259
0.0112173
0.0111752
0.0111328
0.0110902
0.0110472
0.0110039
0.0109602
0.0109162
0.0108718
0.010827
0.0107818
0.0107361
0.01069
0.0106434
0.0105964
0.0105487
0.0105006
0.0104518
0.0104024
0.0103524
0.0103017
0.0124372
0.0123942
0.0123513
0.0123083
0.0122653
0.0122223
0.0121792
0.012136
0.0120927
0.0120493
0.0120058
0.0119623
0.0119186
0.0118747
0.0118308
0.0117867
0.0117426
0.0116982
0.0116538
0.0116092
0.0115645
0.0115197
0.0114747
0.0114296
0.0113844
0.011339
0.0112934
0.0112477
0.0112019
0.0111559
0.0111098
0.0110635
0.0110171
0.0109704
0.0109235
0.0108764
0.010829
0.0107814
0.0107334
0.0106852
0.0106367
0.0105879
0.0105388
0.0104894
0.0104395
0.0103893
0.0103387
0.0102877
0.0102362
0.0101843
0.0101318
0.0100788
0.0100253
0.00997114
0.00991634
0.00986085
0.0122877
0.0122373
0.012187
0.0121367
0.0120864
0.0120361
0.0119858
0.0119354
0.011885
0.0118344
0.0117839
0.0117332
0.0116825
0.0116317
0.0115808
0.0115299
0.0114788
0.0114277
0.0113766
0.0113253
0.011274
0.0112226
0.0111711
0.0111196
0.0110679
0.0110163
0.0109645
0.0109126
0.0108607
0.0108087
0.0107566
0.0107045
0.0106523
0.0105999
0.0105474
0.0104946
0.0104418
0.0103887
0.0103354
0.010282
0.0102283
0.0101744
0.0101202
0.0100657
0.010011
0.00995597
0.0099006
0.00984487
0.00978875
0.00973221
0.00967523
0.00961777
0.00955979
0.00950125
0.00944211
0.00938232
0.0121209
0.0120617
0.0120026
0.0119437
0.0118848
0.011826
0.0117671
0.0117083
0.0116495
0.0115907
0.0115319
0.0114732
0.0114144
0.0113556
0.0112968
0.0112381
0.0111793
0.0111206
0.0110619
0.0110033
0.0109446
0.0108861
0.0108275
0.010769
0.0107106
0.0106521
0.0105938
0.0105354
0.0104771
0.0104188
0.0103606
0.0103025
0.0102443
0.0101861
0.0101279
0.0100696
0.0100113
0.00995293
0.00989445
0.00983589
0.00977722
0.00971843
0.00965949
0.00960039
0.0095411
0.00948161
0.00942188
0.00936189
0.0093016
0.00924099
0.00918001
0.00911864
0.00905683
0.00899453
0.00893171
0.00886829
0.0119341
0.0118644
0.011795
0.0117258
0.0116567
0.0115878
0.0115191
0.0114505
0.011382
0.0113136
0.0112454
0.0111773
0.0111094
0.0110416
0.0109739
0.0109065
0.0108392
0.0107721
0.0107052
0.0106386
0.0105721
0.0105058
0.0104398
0.010374
0.0103084
0.010243
0.0101778
0.0101129
0.0100481
0.0099836
0.00991926
0.00985514
0.0097912
0.00972738
0.0096637
0.00960013
0.00953667
0.00947331
0.00941001
0.00934678
0.00928359
0.00922042
0.00915725
0.00909406
0.00903081
0.00896749
0.00890406
0.00884048
0.00877674
0.00871278
0.00864857
0.00858407
0.00851923
0.00845401
0.00838835
0.00832219
0.0117241
0.0116419
0.0115601
0.0114787
0.0113977
0.0113171
0.0112368
0.0111568
0.0110772
0.0109979
0.010919
0.0108404
0.0107622
0.0106844
0.0106071
0.0105302
0.0104537
0.0103776
0.010302
0.0102269
0.0101523
0.0100781
0.0100044
0.00993114
0.00985838
0.00978607
0.00971422
0.00964281
0.00957184
0.00950129
0.00943116
0.00936144
0.00929212
0.00922315
0.00915452
0.00908621
0.00901821
0.0089505
0.00888305
0.00881584
0.00874886
0.00868207
0.00861544
0.00854896
0.00848258
0.00841628
0.00835002
0.00828376
0.00821747
0.00815109
0.0080846
0.00801794
0.00795106
0.00788391
0.00781643
0.00774856
0.011487
0.0113898
0.0112934
0.0111977
0.0111027
0.0110084
0.0109147
0.0108217
0.0107295
0.0106379
0.010547
0.0104569
0.0103675
0.010279
0.0101912
0.0101042
0.0100181
0.00993273
0.00984824
0.00976457
0.00968173
0.00959971
0.0095185
0.00943809
0.00935848
0.00927963
0.00920155
0.00912421
0.00904759
0.00897166
0.00889642
0.00882182
0.00874786
0.00867451
0.00860175
0.00852954
0.00845787
0.00838671
0.00831603
0.0082458
0.00817599
0.00810657
0.0080375
0.00796874
0.00790026
0.00783203
0.00776399
0.00769611
0.00762835
0.00756064
0.00749296
0.00742524
0.00735743
0.00728947
0.0072213
0.00715285
0.0112182
0.0111031
0.0109893
0.0108768
0.0107656
0.0106555
0.0105466
0.010439
0.0103326
0.0102275
0.0101236
0.0100211
0.00991988
0.00982002
0.00972149
0.00962431
0.00952846
0.00943395
0.00934075
0.00924886
0.00915825
0.0090689
0.00898079
0.00889389
0.00880816
0.00872359
0.00864013
0.00855775
0.00847642
0.0083961
0.00831675
0.00823833
0.00816079
0.00808414
0.00800834
0.00793336
0.00785917
0.00778571
0.00771297
0.00764088
0.00756942
0.00749854
0.00742821
0.00735836
0.00728898
0.00721999
0.00715137
0.00708305
0.00701499
0.00694715
0.00687945
0.00681185
0.00674428
0.00667669
0.00660901
0.00654117
0.010912
0.0107756
0.0106414
0.0105094
0.0103794
0.0102514
0.0101256
0.0100018
0.0098801
0.00976051
0.00964304
0.00952768
0.00941444
0.00930328
0.00919419
0.00908715
0.00898211
0.00887903
0.00877789
0.00867862
0.00858118
0.00848552
0.00839158
0.00829932
0.00820867
0.00811959
0.00803201
0.00794589
0.00786116
0.00777776
0.00769564
0.00761469
0.00753493
0.00745635
0.00737888
0.00730249
0.00722712
0.00715273
0.00707925
0.00700665
0.00693486
0.00686384
0.00679354
0.0067239
0.00665488
0.00658641
0.00651846
0.00645095
0.00638383
0.00631706
0.00625056
0.00618428
0.00611816
0.00605212
0.00598611
0.00592004
0.0105617
0.0104001
0.0102421
0.0100876
0.00993646
0.00978874
0.00964438
0.00950337
0.00936569
0.0092313
0.00910016
0.00897221
0.00884739
0.00872564
0.00860686
0.00849098
0.0083779
0.00826754
0.0081598
0.00805459
0.00795181
0.00785138
0.0077532
0.00765718
0.00756323
0.00747127
0.00738121
0.00729296
0.00720646
0.00712161
0.00703832
0.0069564
0.006876
0.00679704
0.00671944
0.00664316
0.00656812
0.00649425
0.00642149
0.00634979
0.00627908
0.0062093
0.00614038
0.00607228
0.00600493
0.00593827
0.00587224
0.00580678
0.00574183
0.00567733
0.00561322
0.00554942
0.00548589
0.00542254
0.00535931
0.00529612
0.0101592
0.00996797
0.00978256
0.00960277
0.00942847
0.00925952
0.00909583
0.00893728
0.00878374
0.00863506
0.00849109
0.00835168
0.00821665
0.00808583
0.00795904
0.00783612
0.00771689
0.00760119
0.00748885
0.00737972
0.00727364
0.00717047
0.00707007
0.0069723
0.00687704
0.00678416
0.00669355
0.0066051
0.00651868
0.0064342
0.00635153
0.00627043
0.00619109
0.00611342
0.00603733
0.00596274
0.00588958
0.00581776
0.00574721
0.00567785
0.00560962
0.00554245
0.00547626
0.00541099
0.00534659
0.00528297
0.00522008
0.00515785
0.00509622
0.00503513
0.0049745
0.00491428
0.00485439
0.00479477
0.00473535
0.00467605
0.00969477
0.00946921
0.00925298
0.00904564
0.00884682
0.00865619
0.00847341
0.00829814
0.00813003
0.00796875
0.00781394
0.00766526
0.00752238
0.00738497
0.00725274
0.00712537
0.0070026
0.00688415
0.00676979
0.00665928
0.0065524
0.00644894
0.0063487
0.00625152
0.00615722
0.00606563
0.0059766
0.00589
0.00580568
0.00572351
0.00564332
0.00556485
0.00548834
0.00541364
0.00534071
0.00526943
0.0051997
0.00513142
0.00506452
0.00499891
0.00493451
0.00487125
0.00480905
0.00474784
0.00468756
0.00462813
0.00456949
0.00451157
0.0044543
0.00439763
0.00434148
0.00428579
0.00423048
0.0041755
0.00412078
0.00406623
0.00915687
0.00889242
0.00864267
0.00840661
0.00818337
0.00797212
0.00777207
0.00758248
0.00740262
0.00723183
0.00706945
0.00691489
0.00676759
0.00662702
0.00649272
0.00636424
0.00624117
0.00612314
0.00600981
0.00590087
0.00579602
0.005695
0.00559756
0.00550348
0.00541254
0.00532456
0.00523934
0.00515671
0.00507652
0.00499858
0.00492252
0.00484857
0.00477666
0.00470668
0.00463851
0.00457206
0.00450721
0.00444387
0.00438195
0.00432136
0.00426202
0.00420385
0.00414677
0.00409071
0.0040356
0.00398136
0.00392794
0.00387525
0.00382325
0.00377186
0.00372102
0.00367067
0.00362073
0.00357115
0.00352185
0.00347277
0.00853193
0.00822493
0.00794058
0.00767668
0.0074313
0.00720269
0.0069893