/*--------------------------------*- C++ -*----------------------------------*\
  =========                 |
  \\      /  F ield         | OpenFOAM: The Open Source CFD Toolbox
   \\    /   O peration     | Website:  https://openfoam.org
    \\  /    A nd           | Version:  9
     \\/     M anipulation  |
\*---------------------------------------------------------------------------*/
FoamFile
{
    format      ascii;
    class       surfaceScalarField;
    location    "0.0025";
    object      phi;
}
// * * * * * * * * * * * * * * * * * * * * * * * * * * * * * * * * * * * * * //

dimensions      [1 0 -1 0 0 0 0];

internalField   nonuniform List<scalar> 
23876
(
0.354307
-0.000533338
-0.354652
0.353968
-0.00053553
0.353636
-0.000537458
0.353311
-0.000539324
0.352993
-0.000541225
0.352682
-0.000543136
0.352377
-0.000545038
0.352078
-0.00054693
0.351785
-0.000548815
0.351498
-0.000550693
0.351217
-0.000552566
0.350942
-0.000554432
0.350672
-0.000556292
0.350408
-0.000558147
0.350149
-0.000559997
0.349895
-0.000561842
0.349647
-0.000563682
0.349403
-0.000565518
0.349164
-0.000567349
0.34893
-0.000569177
0.3487
-0.000571
0.348475
-0.00057282
0.348254
-0.000574637
0.348038
-0.00057645
0.347826
-0.000578259
0.347618
-0.000580066
0.347413
-0.00058187
0.347213
-0.000583671
0.347017
-0.00058547
0.346824
-0.000587266
0.346635
-0.00058906
0.34645
-0.000590851
0.346268
-0.00059264
0.346089
-0.000594428
0.345914
-0.000596213
0.345742
-0.000597996
0.345574
-0.000599777
0.345408
-0.000601557
0.345245
-0.000603335
0.345086
-0.000605111
0.344929
-0.000606886
0.344775
-0.000608659
0.344624
-0.000610431
0.344476
-0.000612201
0.34433
-0.000613969
0.344187
-0.000615736
0.344046
-0.000617502
0.343908
-0.000619265
0.343772
-0.000621027
0.343639
-0.000622788
0.343508
-0.000624546
0.343379
-0.000626303
0.343252
-0.000628058
0.343128
-0.00062981
0.343005
-0.000631561
0.342885
-0.000633309
0.342767
-0.000635054
0.34265
-0.000636797
0.342536
-0.000638536
0.342423
-0.000640271
-0.000642002
0.301936
-0.000433331
-0.302036
0.301839
-0.000438529
0.301745
-0.000443528
0.301655
-0.000448404
0.301566
-0.000453196
0.301481
-0.000457907
0.301399
-0.000462538
0.301319
-0.000467088
0.301242
-0.000471559
0.301167
-0.000475954
0.301095
-0.000480274
0.301025
-0.000484522
0.300957
-0.0004887
0.300892
-0.00049281
0.300829
-0.000496853
0.300768
-0.000500831
0.300709
-0.000504747
0.300652
-0.0005086
0.300597
-0.000512395
0.300544
-0.000516131
0.300493
-0.000519811
0.300443
-0.000523436
0.300396
-0.000527008
0.30035
-0.000530528
0.300305
-0.000533998
0.300263
-0.000537419
0.300222
-0.000540793
0.300182
-0.00054412
0.300144
-0.000547402
0.300107
-0.000550641
0.300072
-0.000553837
0.300038
-0.000556992
0.300006
-0.000560107
0.299975
-0.000563183
0.299945
-0.00056622
0.299916
-0.00056922
0.299888
-0.000572184
0.299862
-0.000575113
0.299836
-0.000578009
0.299812
-0.00058087
0.299789
-0.0005837
0.299767
-0.000586498
0.299746
-0.000589265
0.299726
-0.000592002
0.299706
-0.00059471
0.299688
-0.000597389
0.29967
-0.00060004
0.299654
-0.000602664
0.299638
-0.000605261
0.299623
-0.000607832
0.299609
-0.000610378
0.299596
-0.000612898
0.299583
-0.000615393
0.299571
-0.000617865
0.29956
-0.000620312
0.299549
-0.000622735
0.299539
-0.000625135
0.29953
-0.000627512
0.299521
-0.000629865
0.299513
-0.000632195
-0.0006345
0.279398
-0.00051003
-0.279322
0.279472
-0.000512576
0.279543
-0.000514694
0.279612
-0.000516823
0.279678
-0.000518957
0.279741
-0.000521092
0.279802
-0.000523229
0.27986
-0.000525366
0.279916
-0.000527504
0.279969
-0.000529643
0.280021
-0.000531781
0.28007
-0.00053392
0.280118
-0.000536057
0.280163
-0.000538188
0.280207
-0.000540307
0.280248
-0.000542419
0.280288
-0.00054453
0.280326
-0.000546641
0.280362
-0.000548751
0.280397
-0.000550861
0.28043
-0.000552971
0.280462
-0.000555081
0.280492
-0.00055719
0.280521
-0.000559298
0.280548
-0.000561406
0.280574
-0.000563513
0.280599
-0.000565619
0.280623
-0.000567724
0.280645
-0.000569828
0.280666
-0.000571932
0.280687
-0.000574034
0.280706
-0.000576135
0.280724
-0.000578235
0.280741
-0.000580333
0.280757
-0.00058243
0.280773
-0.000584526
0.280787
-0.00058662
0.280801
-0.000588711
0.280813
-0.000590802
0.280825
-0.00059289
0.280837
-0.000594977
0.280847
-0.000597062
0.280857
-0.000599146
0.280866
-0.000601228
0.280875
-0.000603308
0.280883
-0.000605385
0.28089
-0.000607461
0.280897
-0.000609535
0.280904
-0.000611606
0.280909
-0.000613676
0.280915
-0.000615743
0.28092
-0.000617807
0.280924
-0.000619869
0.280928
-0.000621927
0.280932
-0.000623984
0.280935
-0.000626037
0.280938
-0.000628087
0.280941
-0.000630133
0.280943
-0.000632176
0.280945
-0.000634216
-0.000636249
0.25911
-0.000466642
-0.259153
0.259066
-0.000468847
0.259023
-0.000471389
0.25898
-0.000473952
0.258937
-0.000476526
0.258896
-0.000479105
0.258854
-0.000481687
0.258813
-0.000484273
0.258772
-0.000486863
0.258732
-0.000489455
0.258692
-0.00049205
0.258653
-0.000494646
0.258614
-0.000497244
0.258576
-0.00049984
0.258538
-0.000502434
0.258501
-0.000505028
0.258464
-0.000507624
0.258427
-0.00051022
0.258391
-0.000512816
0.258356
-0.000515413
0.258321
-0.00051801
0.258286
-0.000520606
0.258252
-0.000523202
0.258219
-0.000525796
0.258186
-0.000528389
0.258153
-0.000530981
0.258121
-0.000533571
0.25809
-0.000536159
0.258059
-0.000538745
0.258028
-0.000541328
0.257998
-0.000543909
0.257968
-0.000546487
0.257939
-0.000549061
0.25791
-0.000551633
0.257882
-0.000554201
0.257854
-0.00055676
0.257827
-0.000559309
0.2578
-0.000561855
0.257774
-0.000564397
0.257748
-0.000566935
0.257722
-0.000569468
0.257697
-0.000571998
0.257673
-0.000574524
0.257649
-0.000577045
0.257625
-0.000579562
0.257602
-0.000582074
0.257579
-0.000584582
0.257556
-0.000587085
0.257534
-0.000589584
0.257513
-0.000592078
0.257491
-0.000594567
0.257471
-0.000597051
0.25745
-0.00059953
0.25743
-0.000602004
0.257411
-0.000604474
0.257392
-0.000606938
0.257373
-0.000609397
0.257355
-0.000611851
0.257337
-0.0006143
0.257319
-0.000616743
-0.000619179
0.236455
-0.000484427
-0.236437
0.236473
-0.000487268
0.236492
-0.000489638
0.23651
-0.000491988
0.236527
-0.000494336
0.236545
-0.000496687
0.236562
-0.00049904
0.23658
-0.000501396
0.236596
-0.000503753
0.236613
-0.000506113
0.236629
-0.000508476
0.236646
-0.00051084
0.236662
-0.000513207
0.236677
-0.00051558
0.236693
-0.000517969
0.236708
-0.00052037
0.236723
-0.000522775
0.236738
-0.000525182
0.236753
-0.00052759
0.236768
-0.00053
0.236782
-0.000532412
0.236796
-0.000534825
0.23681
-0.00053724
0.236824
-0.000539655
0.236838
-0.000542072
0.236851
-0.00054449
0.236865
-0.000546909
0.236878
-0.000549329
0.236891
-0.00055175
0.236904
-0.000554171
0.236916
-0.000556593
0.236929
-0.000559015
0.236941
-0.000561438
0.236954
-0.00056386
0.236966
-0.000566283
0.236978
-0.0005687
0.236989
-0.000571112
0.237001
-0.000573523
0.237013
-0.000575934
0.237024
-0.000578345
0.237035
-0.000580755
0.237046
-0.00058316
0.237058
-0.000585561
0.237068
-0.000587959
0.237079
-0.000590357
0.23709
-0.000592754
0.2371
-0.00059515
0.237111
-0.000597545
0.237121
-0.000599939
0.237132
-0.000602332
0.237142
-0.000604724
0.237152
-0.000607115
0.237162
-0.000609505
0.237172
-0.000611893
0.237181
-0.00061428
0.237191
-0.000616666
0.237201
-0.00061905
0.23721
-0.000621433
0.23722
-0.000623814
0.237229
-0.000626194
-0.00062857
0.219628
-0.000464866
-0.219648
0.219608
-0.000467293
0.219589
-0.000469775
0.219569
-0.000472248
0.219549
-0.00047473
0.21953
-0.000477219
0.21951
-0.000479715
0.219491
-0.000482216
0.219472
-0.000484725
0.219453
-0.000487239
0.219435
-0.00048976
0.219416
-0.000492286
0.219398
-0.000494818
0.219379
-0.000497357
0.219361
-0.000499908
0.219343
-0.000502469
0.219326
-0.000505036
0.219308
-0.000507606
0.219291
-0.000510182
0.219273
-0.000512761
0.219256
-0.000515345
0.21924
-0.000517933
0.219223
-0.000520524
0.219206
-0.000523119
0.21919
-0.000525718
0.219174
-0.000528319
0.219158
-0.000530924
0.219142
-0.000533532
0.219126
-0.000536143
0.219111
-0.000538756
0.219096
-0.000541371
0.219081
-0.000543985
0.219066
-0.0005466
0.219051
-0.000549216
0.219037
-0.000551835
0.219023
-0.000554455
0.219008
-0.000557077
0.218995
-0.000559702
0.218981
-0.000562327
0.218968
-0.000564954
0.218954
-0.000567582
0.218942
-0.000570208
0.218929
-0.00057283
0.218916
-0.000575453
0.218904
-0.000578076
0.218892
-0.000580699
0.21888
-0.000583324
0.218869
-0.000585948
0.218857
-0.000588573
0.218846
-0.000591198
0.218835
-0.000593824
0.218824
-0.000596449
0.218814
-0.000599076
0.218804
-0.000601714
0.218794
-0.000604353
0.218784
-0.000606992
0.218775
-0.000609632
0.218766
-0.00061227
0.218757
-0.000614906
0.218748
-0.00061754
-0.000620171
0.200897
-0.000459258
-0.200902
0.200892
-0.000462402
0.200887
-0.000465142
0.200883
-0.000467836
0.200879
-0.000470524
0.200875
-0.000473216
0.200871
-0.000475913
0.200867
-0.000478615
0.200864
-0.000481321
0.200861
-0.000484032
0.200858
-0.000486747
0.200855
-0.000489467
0.200852
-0.000492191
0.20085
-0.000494918
0.200847
-0.00049765
0.200845
-0.000500385
0.200843
-0.000503124
0.200842
-0.000505867
0.20084
-0.000508612
0.200839
-0.000511361
0.200838
-0.000514113
0.200836
-0.000516868
0.200836
-0.000519624
0.200835
-0.000522381
0.200834
-0.000525138
0.200834
-0.000527897
0.200834
-0.000530659
0.200833
-0.000533423
0.200833
-0.000536188
0.200834
-0.000538956
0.200834
-0.000541725
0.200835
-0.000544493
0.200835
-0.000547261
0.200836
-0.000550029
0.200837
-0.0005528
0.200838
-0.000555571
0.200839
-0.000558344
0.200841
-0.000561118
0.200842
-0.000563893
0.200844
-0.000566669
0.200846
-0.000569446
0.200848
-0.000572223
0.20085
-0.000575
0.200852
-0.000577778
0.200855
-0.000580555
0.200858
-0.000583333
0.20086
-0.00058611
0.200863
-0.000588886
0.200866
-0.000591662
0.20087
-0.000594436
0.200873
-0.000597209
0.200877
-0.00059998
0.20088
-0.000602752
0.200884
-0.000605532
0.200888
-0.000608312
0.200892
-0.000611105
0.200896
-0.000613912
0.200901
-0.000616721
0.200905
-0.000619528
0.20091
-0.000622334
-0.000625138
0.185858
-0.000444753
-0.185873
0.185843
-0.000447753
0.185829
-0.000450605
0.185814
-0.000453421
0.1858
-0.00045624
0.185786
-0.000459065
0.185772
-0.000461897
0.185758
-0.000464736
0.185744
-0.000467581
0.185731
-0.000470434
0.185717
-0.000473292
0.185704
-0.000476157
0.185691
-0.000479027
0.185678
-0.000481904
0.185665
-0.000484785
0.185652
-0.000487672
0.18564
-0.000490564
0.185627
-0.00049346
0.185615
-0.000496361
0.185603
-0.000499269
0.185591
-0.000502182
0.185579
-0.000505097
0.185568
-0.000508021
0.185556
-0.000510931
0.185545
-0.000513871
0.185534
-0.000516829
0.185523
-0.000519794
0.185512
-0.000522765
0.185502
-0.00052574
0.185492
-0.00052872
0.185482
-0.000531704
0.185472
-0.000534692
0.185462
-0.000537685
0.185453
-0.000540681
0.185444
-0.000543681
0.185435
-0.000546685
0.185426
-0.000549691
0.185418
-0.000552701
0.18541
-0.000555714
0.185402
-0.000558729
0.185394
-0.000561747
0.185387
-0.000564767
0.185379
-0.000567789
0.185372
-0.000570813
0.185366
-0.000573838
0.185359
-0.000576865
0.185353
-0.000579892
0.185347
-0.00058292
0.185341
-0.000585949
0.185336
-0.000588977
0.185331
-0.000592006
0.185326
-0.000595033
0.185321
-0.00059806
0.185317
-0.000601087
0.185312
-0.000604112
0.185308
-0.000607149
0.185305
-0.0006102
0.185301
-0.000613253
0.185298
-0.000616306
0.185295
-0.00061936
-0.000622413
0.170645
-0.000430394
-0.170659
0.170631
-0.000433549
0.170617
-0.000436622
0.170603
-0.000439697
0.170589
-0.000442778
0.170576
-0.000445869
0.170563
-0.000448969
0.170551
-0.000452087
0.170538
-0.000455232
0.170526
-0.00045839
0.170514
-0.00046156
0.170503
-0.000464738
0.170492
-0.000467926
0.170481
-0.000471123
0.170471
-0.000474328
0.170461
-0.000477541
0.170451
-0.000480761
0.170441
-0.000483982
0.170432
-0.000487187
0.170423
-0.000490377
0.170415
-0.000493568
0.170406
-0.00049676
0.170398
-0.000499962
0.17039
-0.000503154
0.170383
-0.000506377
0.170376
-0.000509617
0.170369
-0.000512865
0.170362
-0.000516119
0.170356
-0.000519378
0.17035
-0.000522641
0.170344
-0.00052591
0.170338
-0.000529183
0.170333
-0.000532459
0.170328
-0.000535741
0.170324
-0.000539024
0.170319
-0.00054231
0.170315
-0.000545597
0.170311
-0.000548887
0.170308
-0.000552178
0.170305
-0.00055547
0.170302
-0.000558764
0.170299
-0.000562058
0.170296
-0.000565352
0.170294
-0.000568646
0.170292
-0.000571947
0.170291
-0.000575276
0.170289
-0.000578612
0.170288
-0.000581952
0.170288
-0.000585293
0.170287
-0.000588636
0.170287
-0.00059198
0.170288
-0.000595325
0.170288
-0.000598671
0.170289
-0.000602018
0.170291
-0.000605366
0.170292
-0.000608714
0.170294
-0.000612062
0.170296
-0.00061541
0.170299
-0.000618758
0.170301
-0.000622106
-0.000625453
0.157533
-0.000412166
-0.157551
0.157515
-0.000415379
0.157497
-0.000418675
0.157479
-0.000421986
0.157461
-0.00042531
0.157444
-0.000428646
0.157427
-0.000431994
0.157411
-0.000435364
0.157394
-0.000438768
0.157378
-0.000442222
0.157362
-0.000445699
0.157347
-0.000449193
0.157331
-0.000452703
0.157316
-0.000456229
0.157302
-0.00045977
0.157288
-0.000463327
0.157274
-0.000466893
0.15726
-0.000470433
0.157247
-0.000473929
0.157234
-0.000477408
0.157221
-0.000480889
0.157209
-0.000484378
0.157197
-0.000487873
0.157185
-0.000491375
0.157174
-0.000494885
0.157162
-0.000498401
0.157151
-0.000501924
0.157141
-0.000505452
0.15713
-0.000508985
0.15712
-0.000512522
0.15711
-0.000516061
0.157101
-0.000519599
0.157091
-0.000523145
0.157082
-0.000526674
0.157074
-0.000530243
0.157065
-0.000533837
0.157057
-0.00053744
0.157049
-0.000541047
0.157042
-0.000544658
0.157034
-0.000548272
0.157028
-0.000551889
0.157021
-0.000555507
0.157015
-0.000559128
0.157009
-0.00056275
0.157003
-0.00056638
0.156998
-0.000570037
0.156993
-0.000573702
0.156989
-0.000577371
0.156984
-0.000581043
0.15698
-0.000584718
0.156977
-0.000588395
0.156974
-0.000592073
0.156971
-0.000595754
0.156968
-0.000599436
0.156966
-0.000603119
0.156964
-0.000606803
0.156962
-0.000610488
0.156961
-0.000614173
0.15696
-0.000617859
0.15696
-0.000621545
-0.000625231
0.144868
-0.000392163
-0.144888
0.144848
-0.000395784
0.144829
-0.000399398
0.14481
-0.000403026
0.144791
-0.000406667
0.144773
-0.000410324
0.144755
-0.000413996
0.144737
-0.000417683
0.14472
-0.000421389
0.144703
-0.000425138
0.144686
-0.00042891
0.14467
-0.000432698
0.144654
-0.000436502
0.144638
-0.000440323
0.144622
-0.000444158
0.144607
-0.000448009
0.144592
-0.00045187
0.144577
-0.000455714
0.144563
-0.000459539
0.144548
-0.00046337
0.144535
-0.000467212
0.144522
-0.000471063
0.144509
-0.000474925
0.144496
-0.000478796
0.144484
-0.000482677
0.144472
-0.000486566
0.14446
-0.000490464
0.144449
-0.000494369
0.144439
-0.000498283
0.144428
-0.00050222
0.144419
-0.000506191
0.144409
-0.000510173
0.1444
-0.00051417
0.144392
-0.000518145
0.144383
-0.000522123
0.144376
-0.000526101
0.144368
-0.000530078
0.144361
-0.000534059
0.144355
-0.00053804
0.144349
-0.000542021
0.144343
-0.000546004
0.144337
-0.000549999
0.144332
-0.000554032
0.144327
-0.000558075
0.144323
-0.000562125
0.144319
-0.000566179
0.144316
-0.000570237
0.144313
-0.000574299
0.14431
-0.000578364
0.144308
-0.000582432
0.144306
-0.000586503
0.144304
-0.000590576
0.144303
-0.000594651
0.144303
-0.000598728
0.144302
-0.000602807
0.144302
-0.000606886
0.144303
-0.000610967
0.144304
-0.000615048
0.144305
-0.000619129
0.144307
-0.00062321
-0.000627292
0.133556
-0.000369667
-0.133579
0.133534
-0.000373516
0.133512
-0.000377433
0.13349
-0.000381369
0.133469
-0.000385326
0.133448
-0.000389302
0.133427
-0.000393296
0.133407
-0.000397309
0.133387
-0.000401341
0.133367
-0.00040539
0.133348
-0.000409458
0.133329
-0.000413542
0.13331
-0.000417643
0.133291
-0.000421762
0.133273
-0.000425896
0.133255
-0.000430047
0.133237
-0.000434213
0.13322
-0.000438395
0.133203
-0.000442591
0.133186
-0.000446803
0.13317
-0.000451029
0.133154
-0.00045527
0.133139
-0.000459525
0.133124
-0.000463793
0.133109
-0.000468074
0.133095
-0.000472369
0.133081
-0.000476676
0.133068
-0.000480996
0.133055
-0.000485328
0.133043
-0.00048969
0.133031
-0.000494141
0.133019
-0.000498629
0.133008
-0.000503136
0.132997
-0.000507588
0.132987
-0.000511971
0.132977
-0.000516318
0.132968
-0.000520667
0.132959
-0.000524986
0.13295
-0.000529371
0.132942
-0.000533771
0.132934
-0.000538177
0.132927
-0.000542598
0.13292
-0.000547055
0.132913
-0.000551524
0.132907
-0.000556001
0.132901
-0.000560483
0.132896
-0.00056497
0.132891
-0.000569463
0.132887
-0.00057396
0.132883
-0.000578461
0.132879
-0.000582966
0.132876
-0.000587475
0.132874
-0.000591986
0.132871
-0.0005965
0.13287
-0.000601015
0.132868
-0.000605533
0.132867
-0.000610052
0.132867
-0.000614572
0.132867
-0.000619092
0.132867
-0.000623612
-0.000628134
0.122897
-0.000344329
-0.122922
0.122872
-0.000348578
0.122847
-0.000352856
0.122823
-0.000357155
0.122799
-0.000361478
0.122776
-0.000365824
0.122753
-0.000370193
0.12273
-0.000374585
0.122708
-0.000379
0.122686
-0.000383437
0.122664
-0.000387896
0.122643
-0.000392377
0.122622
-0.000396879
0.122602
-0.000401402
0.122582
-0.000405945
0.122562
-0.000410508
0.122543
-0.000415092
0.122525
-0.000419694
0.122506
-0.000424316
0.122488
-0.000428956
0.122471
-0.000433614
0.122454
-0.00043829
0.122437
-0.000442983
0.122421
-0.000447693
0.122406
-0.00045242
0.122391
-0.000457164
0.122376
-0.000461923
0.122361
-0.000466697
0.122348
-0.000471486
0.122334
-0.000476293
0.122321
-0.00048116
0.122309
-0.000486056
0.122297
-0.000490968
0.122285
-0.000495841
0.122273
-0.000500685
0.122263
-0.000505523
0.122252
-0.000510376
0.122243
-0.000515206
0.122233
-0.000520106
0.122225
-0.000525028
0.122216
-0.000529962
0.122209
-0.000534905
0.122201
-0.000539857
0.122195
-0.000544817
0.122189
-0.000549785
0.122183
-0.00055476
0.122178
-0.000559741
0.122173
-0.000564729
0.122169
-0.000569723
0.122165
-0.000574721
0.122162
-0.000579724
0.122159
-0.000584732
0.122157
-0.000589743
0.122155
-0.000594757
0.122154
-0.000599774
0.122153
-0.000604792
0.122153
-0.000609813
0.122153
-0.000614834
0.122154
-0.000619856
0.122155
-0.000624879
-0.000629903
0.113218
-0.000316461
-0.113245
0.11319
-0.000321035
0.113163
-0.000325679
0.113136
-0.000330352
0.11311
-0.000335054
0.113084
-0.000339786
0.113058
-0.000344546
0.113033
-0.000349334
0.113008
-0.00035415
0.112983
-0.000358993
0.112959
-0.000363864
0.112936
-0.000368761
0.112913
-0.000373684
0.11289
-0.000378634
0.112867
-0.000383608
0.112846
-0.000388608
0.112824
-0.000393633
0.112803
-0.000398681
0.112783
-0.000403753
0.112762
-0.000408849
0.112743
-0.000413967
0.112724
-0.000419107
0.112705
-0.00042427
0.112687
-0.000429453
0.112669
-0.000434658
0.112652
-0.000439882
0.112635
-0.000445127
0.112618
-0.000450391
0.112603
-0.000455673
0.112587
-0.000460974
0.112572
-0.000466293
0.112558
-0.000471628
0.112544
-0.00047698
0.112531
-0.000482348
0.112518
-0.000487731
0.112505
-0.000493128
0.112493
-0.000498541
0.112482
-0.000503967
0.112471
-0.000509406
0.112461
-0.000514858
0.112452
-0.000520322
0.112443
-0.000525797
0.112434
-0.000531284
0.112426
-0.00053678
0.112418
-0.000542286
0.112411
-0.000547802
0.112405
-0.000553326
0.112399
-0.000558857
0.112394
-0.000564396
0.112389
-0.000569942
0.112385
-0.000575493
0.112381
-0.00058105
0.112378
-0.000586612
0.112375
-0.000592178
0.112373
-0.000597747
0.112372
-0.000603319
0.112371
-0.000608893
0.112371
-0.000614469
0.112371
-0.000620046
0.112372
-0.000625623
-0.000631203
0.104199
-0.000285607
-0.10423
0.104169
-0.000290602
0.104138
-0.000295654
0.104109
-0.00030074
0.10408
-0.00030586
0.104051
-0.000311016
0.104023
-0.000316206
0.103995
-0.000321432
0.103967
-0.000326691
0.10394
-0.000331983
0.103914
-0.000337309
0.103888
-0.000342668
0.103862
-0.000348058
0.103837
-0.00035348
0.103812
-0.000358933
0.103788
-0.000364417
0.103764
-0.000369931
0.103741
-0.000375475
0.103718
-0.000381047
0.103696
-0.000386648
0.103674
-0.000392277
0.103653
-0.000397933
0.103633
-0.000403616
0.103612
-0.000409325
0.103593
-0.000415059
0.103574
-0.000420819
0.103555
-0.000426603
0.103537
-0.00043241
0.10352
-0.000438241
0.103503
-0.000444094
0.103487
-0.000449969
0.103471
-0.000455865
0.103456
-0.000461781
0.103441
-0.000467717
0.103427
-0.000473673
0.103414
-0.000479646
0.103401
-0.000485638
0.103388
-0.000491646
0.103377
-0.000497671
0.103365
-0.000503711
0.103355
-0.000509766
0.103345
-0.000515836
0.103336
-0.000521919
0.103327
-0.000528015
0.103319
-0.000534123
0.103311
-0.000540242
0.103304
-0.000546372
0.103298
-0.000552511
0.103292
-0.00055866
0.103287
-0.000564817
0.103282
-0.000570982
0.103278
-0.000577153
0.103275
-0.00058333
0.103273
-0.000589513
0.10327
-0.0005957
0.103269
-0.000601891
0.103268
-0.000608084
0.103268
-0.00061428
0.103268
-0.000620477
0.10327
-0.000626675
-0.000632875
0.0959405
-0.000252079
-0.095974
0.0959073
-0.000257468
0.0958746
-0.00026294
0.0958423
-0.000268454
0.0958105
-0.000274012
0.0957791
-0.000279612
0.0957481
-0.000285254
0.0957176
-0.000290938
0.0956876
-0.000296663
0.0956581
-0.000302428
0.095629
-0.000308234
0.0956004
-0.00031408
0.0955723
-0.000319964
0.0955447
-0.000325887
0.0955176
-0.000331847
0.095491
-0.000337845
0.095465
-0.00034388
0.0954395
-0.00034995
0.0954145
-0.000356055
0.09539
-0.000362196
0.0953661
-0.00036837
0.0953428
-0.000374577
0.09532
-0.000380817
0.0952977
-0.000387089
0.0952761
-0.000393392
0.095255
-0.000399726
0.0952345
-0.000406089
0.0952145
-0.000412481
0.0951952
-0.000418902
0.0951764
-0.00042535
0.0951583
-0.000431824
0.0951408
-0.000438325
0.0951238
-0.000444851
0.0951075
-0.000451401
0.0950918
-0.000457975
0.0950767
-0.000464571
0.0950623
-0.000471189
0.0950485
-0.000477829
0.0950353
-0.000484488
0.0950227
-0.000491167
0.0950108
-0.000497865
0.0949996
-0.00050458
0.094989
-0.000511312
0.094979
-0.00051806
0.0949697
-0.000524823
0.0949611
-0.000531601
0.0949531
-0.000538391
0.0949458
-0.000545194
0.0949391
-0.000552009
0.0949332
-0.000558834
0.0949278
-0.000565668
0.0949232
-0.000572511
0.0949192
-0.000579362
0.0949159
-0.00058622
0.0949133
-0.000593084
0.0949114
-0.000599953
0.0949101
-0.000606825
0.0949095
-0.000613701
0.0949096
-0.000620578
0.0949104
-0.000627457
-0.00063434
0.088289
-0.000215611
-0.0883255
0.088253
-0.00022145
0.0882174
-0.000227373
0.0881823
-0.000233345
0.0881477
-0.000239369
0.0881135
-0.000245444
0.0880798
-0.00025157
0.0880466
-0.000257745
0.0880139
-0.00026397
0.0879817
-0.000270244
0.0879501
-0.000276565
0.0879189
-0.000282935
0.0878883
-0.000289351
0.0878582
-0.000295813
0.0878287
-0.00030232
0.0877997
-0.000308872
0.0877713
-0.000315468
0.0877435
-0.000322108
0.0877162
-0.000328789
0.0876895
-0.000335512
0.0876634
-0.000342276
0.0876379
-0.00034908
0.0876131
-0.000355924
0.0875888
-0.000362805
0.0875651
-0.000369725
0.0875421
-0.000376681
0.0875196
-0.000383672
0.0874979
-0.000390699
0.0874767
-0.00039776
0.0874562
-0.000404854
0.0874364
-0.000411981
0.0874172
-0.000419138
0.0873987
-0.000426327
0.0873808
-0.000433545
0.0873636
-0.000440791
0.0873471
-0.000448065
0.0873313
-0.000455366
0.0873162
-0.000462693
0.0873017
-0.000470044
0.087288
-0.000477419
0.0872749
-0.000484816
0.0872626
-0.000492236
0.0872509
-0.000499676
0.08724
-0.000507136
0.0872298
-0.000514614
0.0872203
-0.00052211
0.0872115
-0.000529623
0.0872035
-0.000537151
0.0871962
-0.000544693
0.0871896
-0.000552249
0.0871837
-0.000559817
0.0871786
-0.000567396
0.0871743
-0.000574985
0.0871706
-0.000582583
0.0871677
-0.000590188
0.0871656
-0.000597801
0.0871642
-0.000605418
0.0871635
-0.00061304
0.0871636
-0.000620665
0.0871644
-0.000628293
-0.000635925
0.0812595
-0.000176473
-0.0812986
0.0812208
-0.000182758
0.0811826
-0.000189147
0.0811448
-0.000195596
0.0811076
-0.000202106
0.0810708
-0.000208676
0.0810345
-0.000215307
0.0809988
-0.000221997
0.0809636
-0.000228746
0.0809289
-0.000235552
0.0808947
-0.000242416
0.0808611
-0.000249336
0.0808281
-0.000256312
0.0807956
-0.000263342
0.0807637
-0.000270426
0.0807324
-0.000277563
0.0807017
-0.000284752
0.0806716
-0.000291992
0.0806421
-0.000299283
0.0806132
-0.000306623
0.0805849
-0.000314012
0.0805573
-0.000321449
0.0805303
-0.000328932
0.080504
-0.00033646
0.0804783
-0.000344034
0.0804532
-0.000351651
0.0804289
-0.000359311
0.0804052
-0.000367012
0.0803822
-0.000374755
0.0803599
-0.000382537
0.0803382
-0.000390357
0.0803173
-0.000398216
0.0802971
-0.000406111
0.0802776
-0.000414041
0.0802588
-0.000422005
0.0802407
-0.000430003
0.0802234
-0.000438033
0.0802068
-0.000446095
0.080191
-0.000454186
0.0801758
-0.000462306
0.0801615
-0.000470453
0.0801479
-0.000478627
0.080135
-0.000486827
0.0801229
-0.00049505
0.0801116
-0.000503296
0.0801011
-0.000511565
0.0800913
-0.000519853
0.0800823
-0.000528161
0.0800741
-0.000536487
0.0800667
-0.00054483
0.0800601
-0.000553188
0.0800542
-0.000561561
0.0800492
-0.000569947
0.0800449
-0.000578344
0.0800415
-0.000586751
0.0800389
-0.000595168
0.0800371
-0.000603592
0.080036
-0.000612023
0.0800358
-0.000620458
0.0800364
-0.000628898
-0.000637343
0.07477
-0.000134595
-0.0748119
0.0747286
-0.000141362
0.0746877
-0.000148242
0.0746473
-0.000155192
0.0746074
-0.000162214
0.074568
-0.000169306
0.0745292
-0.00017647
0.0744909
-0.000183703
0.0744531
-0.000191005
0.074416
-0.000198374
0.0743794
-0.000205811
0.0743433
-0.000213314
0.0743079
-0.000220881
0.0742731
-0.000228513
0.0742389
-0.000236208
0.0742053
-0.000243965
0.0741723
-0.000251783
0.07414
-0.000259661
0.0741083
-0.000267598
0.0740772
-0.000275592
0.0740469
-0.000283644
0.0740172
-0.000291751
0.0739882
-0.000299913
0.0739598
-0.000308129
0.0739322
-0.000316397
0.0739053
-0.000324716
0.073879
-0.000333085
0.0738535
-0.000341504
0.0738287
-0.00034997
0.0738047
-0.000358483
0.0737814
-0.000367041
0.0737588
-0.000375643
0.073737
-0.000384289
0.0737159
-0.000392977
0.0736956
-0.000401705
0.0736761
-0.000410473
0.0736573
-0.000419279
0.0736393
-0.000428122
0.0736222
-0.000437
0.0736058
-0.000445913
0.0735902
-0.000454859
0.0735754
-0.000463838
0.0735614
-0.000472846
0.0735482
-0.000481884
0.0735359
-0.00049095
0.0735244
-0.000500042
0.0735137
-0.00050916
0.0735038
-0.000518302
0.0734948
-0.000527466
0.0734866
-0.000536651
0.0734793
-0.000545855
0.0734728
-0.000555078
0.0734672
-0.000564318
0.0734624
-0.000573573
0.0734585
-0.000582842
0.0734554
-0.000592123
0.0734533
-0.000601414
0.073452
-0.000610715
0.0734515
-0.000620024
0.073452
-0.00062934
-0.000638664
0.0688032
-9.02338e-05
-0.0688476
0.0687593
-9.74919e-05
0.068716
-0.000104881
0.0686731
-0.000112353
0.0686308
-0.000119907
0.0685891
-0.000127545
0.0685478
-0.000135264
0.0685072
-0.000143064
0.0684671
-0.000150944
0.0684277
-0.000158903
0.0683888
-0.000166939
0.0683505
-0.000175051
0.0683129
-0.000183239
0.0682759
-0.000191501
0.0682395
-0.000199835
0.0682038
-0.000208241
0.0681687
-0.000216718
0.0681343
-0.000225264
0.0681006
-0.000233877
0.0680676
-0.000242558
0.0680352
-0.000251304
0.0680036
-0.000260114
0.0679727
-0.000268987
0.0679425
-0.000277922
0.067913
-0.000286917
0.0678842
-0.000295971
0.0678562
-0.000305083
0.067829
-0.000314252
0.0678025
-0.000323476
0.0677768
-0.000332753
0.0677518
-0.000342084
0.0677276
-0.000351465
0.0677042
-0.000360897
0.0676816
-0.000370378
0.0676598
-0.000379905
0.0676388
-0.000389479
0.0676187
-0.000399097
0.0675993
-0.000408759
0.0675808
-0.000418463
0.067563
-0.000428207
0.0675462
-0.000437991
0.0675302
-0.000447812
0.067515
-0.00045767
0.0675007
-0.000467563
0.0674872
-0.00047749
0.0674746
-0.000487449
0.0674629
-0.000497438
0.067452
-0.000507457
0.0674421
-0.000517503
0.067433
-0.000527576
0.0674248
-0.000537674
0.0674175
-0.000547794
0.0674112
-0.000557937
0.0674057
-0.000568099
0.0674011
-0.00057828
0.0673975
-0.000588477
0.0673947
-0.00059869
0.0673929
-0.000608916
0.0673921
-0.000619154
0.0673921
-0.000629402
-0.000639663
0.0633062
-4.34767e-05
-0.063353
0.06326
-5.12557e-05
0.0632143
-5.91796e-05
0.0631691
-6.71979e-05
0.0631245
-7.53121e-05
0.0630805
-8.35214e-05
0.0630371
-9.18247e-05
0.0629942
-0.000100221
0.062952
-0.000108708
0.0629104
-0.000117285
0.0628694
-0.000125951
0.062829
-0.000134703
0.0627893
-0.000143542
0.0627503
-0.000152465
0.0627119
-0.00016147
0.0626742
-0.000170557
0.0626372
-0.000179724
0.062601
-0.000188969
0.0625654
-0.000198291
0.0625305
-0.000207689
0.0624964
-0.00021716
0.0624629
-0.000226705
0.0624303
-0.00023632
0.0623984
-0.000246005
0.0623672
-0.000255759
0.0623368
-0.000265579
0.0623072
-0.000275464
0.0622784
-0.000285413
0.0622503
-0.000295425
0.062223
-0.000305498
0.0621966
-0.000315631
0.062171
-0.000325821
0.0621461
-0.000336069
0.0621221
-0.000346372
0.0620989
-0.000356729
0.0620766
-0.000367138
0.0620551
-0.000377599
0.0620345
-0.000388109
0.0620147
-0.000398668
0.0619957
-0.000409274
0.0619777
-0.000419926
0.0619605
-0.000430621
0.0619442
-0.00044136
0.0619287
-0.000452139
0.0619142
-0.000462959
0.0619006
-0.000473817
0.0618878
-0.000484712
0.061876
-0.000495642
0.0618651
-0.000506606
0.0618552
-0.000517603
0.0618461
-0.000528631
0.061838
-0.000539688
0.0618308
-0.000550772
0.0618246
-0.000561883
0.0618194
-0.000573018
0.0618151
-0.000584175
0.0618117
-0.000595353
0.0618094
-0.000606551
0.061808
-0.000617765
0.0618076
-0.000628996
-0.000640245
0.058251
5.40047e-06
-0.0582999
0.0582026
-2.9207e-06
0.0581549
-1.14045e-05
0.0581077
-1.99964e-05
0.0580611
-2.86977e-05
0.058015
-3.75071e-05
0.0579696
-4.64232e-05
0.0579249
-5.54441e-05
0.0578807
-6.45683e-05
0.0578372
-7.37939e-05
0.0577944
-8.31191e-05
0.0577522
-9.25423e-05
0.0577108
-0.000102062
0.05767
-0.000111675
0.0576299
-0.000121382
0.0575905
-0.000131179
0.0575518
-0.000141065
0.0575139
-0.000151038
0.0574767
-0.000161097
0.0574403
-0.000171239
0.0574046
-0.000181464
0.0573696
-0.000191769
0.0573355
-0.000202152
0.0573021
-0.000212613
0.0572695
-0.000223149
0.0572376
-0.000233758
0.0572066
-0.00024444
0.0571764
-0.000255192
0.057147
-0.000266014
0.0571184
-0.000276902
0.0570906
-0.000287857
0.0570637
-0.000298876
0.0570376
-0.000309958
0.0570123
-0.000321102
0.0569879
-0.000332306
0.0569643
-0.000343569
0.0569416
-0.000354889
0.0569197
-0.000366265
0.0568988
-0.000377695
0.0568787
-0.000389179
0.0568595
-0.000400715
0.0568411
-0.000412301
0.0568237
-0.000423937
0.0568072
-0.00043562
0.0567916
-0.00044735
0.0567769