/*--------------------------------*- C++ -*----------------------------------*\
  =========                 |
  \\      /  F ield         | OpenFOAM: The Open Source CFD Toolbox
   \\    /   O peration     | Website:  https://openfoam.org
    \\  /    A nd           | Version:  8
     \\/     M anipulation  |
\*---------------------------------------------------------------------------*/
FoamFile
{
    version     2.0;
    format      ascii;
    class       volVectorField;
    location    "1";
    object      U;
}
// * * * * * * * * * * * * * * * * * * * * * * * * * * * * * * * * * * * * * //

dimensions      [0 1 -1 0 0 0 0];

internalField   nonuniform List<vector> 
10000
(
(0.12735 0.833683 0)
(0.439815 0.491561 0)
(0.529025 0.0384111 2.05127e-26)
(0.487454 -0.407209 -1.57912e-28)
(0.346227 -0.78537 -8.47876e-27)
(0.140703 -1.05804 0)
(-0.0956116 -1.20737 0)
(-0.33278 -1.23283 0)
(-0.546533 -1.14782 0)
(-0.719656 -0.975571 0)
(-0.842462 -0.744536 0)
(-0.912322 -0.484072 0)
(-0.932459 -0.220835 0)
(-0.910286 0.0237075 0)
(-0.855611 0.234538 0)
(-0.778981 0.403227 0)
(-0.690356 0.527211 0)
(-0.59821 0.608524 0)
(-0.509057 0.652324 0)
(-0.42735 0.665464 0)
(-0.355653 0.655299 5.91426e-26)
(-0.294966 0.628802 3.51592e-28)
(-0.245135 0.592012 -5.76744e-26)
(-0.205244 0.549772 0)
(-0.173962 0.505687 0)
(-0.149809 0.462226 1.90161e-26)
(-0.131347 0.420912 1.04965e-28)
(-0.117296 0.382529 -1.87887e-26)
(-0.106596 0.34733 0)
(-0.0984206 0.315217 0)
(-0.0921693 0.285879 0)
(-0.0874438 0.258907 1.72712e-26)
(-0.084015 0.233863 6.95532e-29)
(-0.0817896 0.210341 -1.57626e-26)
(-0.0807772 0.188 0)
(-0.0810594 0.166585 0)
(-0.0827604 0.145947 0)
(-0.0860195 0.126049 0)
(-0.0909638 0.106965 -2.03876e-26)
(-0.0976826 0.0888782 -7.93277e-29)
(-0.106202 0.0720689 1.58581e-26)
(-0.116463 0.0568917 -1.38856e-26)
(-0.128302 0.0437462 -9.10951e-29)
(-0.141436 0.0330352 1.06673e-26)
(-0.155461 0.0251136 -9.34798e-27)
(-0.169854 0.0202291 -9.65253e-29)
(-0.183996 0.0184587 6.80418e-27)
(-0.197199 0.019649 0)
(-0.208761 0.0233687 0)
(-0.218014 0.0288839 0)
(-0.224391 0.035167 0)
(-0.227474 0.0409472 0)
(-0.227042 0.0448021 8.47614e-28)
(-0.223081 0.0452867 1.79892e-27)
(-0.21577 0.0410838 -2.11808e-29)
(-0.205439 0.0311562 -3.26039e-27)
(-0.192494 0.0148764 -3.63028e-27)
(-0.177327 -0.00788539 0)
(-0.160226 -0.0367291 0)
(-0.141299 -0.0707496 0)
(-0.120421 -0.108609 3.35736e-27)
(-0.0972245 -0.148637 -1.00675e-28)
(-0.0711153 -0.188932 -3.41671e-27)
(-0.0413326 -0.22744 -2.38056e-27)
(-0.00702827 -0.261991 1.53612e-28)
(0.0326435 -0.290262 9.03381e-27)
(0.0784489 -0.309645 -1.93767e-26)
(0.130997 -0.316957 6.25335e-28)
(0.190434 -0.308102 8.30402e-26)
(0.255258 -0.278613 -1.5946e-25)
(0.320063 -0.22732 2.81169e-27)
(0.375225 -0.162339 4.20317e-25)
(0.412608 -0.0993165 0)
(0.431285 -0.049037 0)
(0.435344 -0.0115713 0)
(0.429346 0.0186494 0)
(0.416612 0.0473352 0)
(0.399327 0.0782822 -2.91797e-24)
(0.379038 0.113234 9.01752e-26)
(0.357049 0.152254 9.17937e-24)
(0.334633 0.194155 0)
(0.313082 0.236932 0)
(0.2936 0.278198 0)
(0.277123 0.315569 0)
(0.264156 0.346958 0)
(0.254689 0.370769 0)
(0.24822 0.386027 0)
(0.243876 0.392458 0)
(0.240584 0.390537 0)
(0.237271 0.381468 0)
(0.233054 0.36709 0)
(0.227405 0.349675 0)
(0.220253 0.331628 0)
(0.212011 0.315118 0)
(0.203504 0.301697 0)
(0.195808 0.292025 3.38672e-23)
(0.190129 0.285544 -8.1186e-25)
(0.187532 0.280541 1.03166e-23)
(0.188369 0.274991 0)
(0.192996 0.26682 0)
(0.448421 0.61828 0)
(0.576609 0.375825 0)
(0.659707 0.0969702 7.93132e-27)
(0.663656 -0.20226 -3.31125e-28)
(0.582064 -0.486707 -7.3227e-27)
(0.427924 -0.724477 0)
(0.223427 -0.893286 0)
(-0.00582477 -0.982295 0)
(-0.235091 -0.991582 0)
(-0.443519 -0.930197 0)
(-0.615988 -0.813388 0)
(-0.743807 -0.659554 0)
(-0.824421 -0.487412 0)
(-0.860377 -0.313731 0)
(-0.857876 -0.151846 0)
(-0.825204 -0.010965 0)
(-0.771307 0.103815 0)
(-0.704661 0.190984 0)
(-0.632519 0.251797 0)
(-0.560522 0.289356 0)
(-0.492625 0.307745 4.86567e-26)
(-0.431231 0.311324 1.12859e-27)
(-0.37747 0.304222 -4.77723e-26)
(-0.331516 0.29002 0)
(-0.292905 0.271606 0)
(-0.260804 0.25115 1.58654e-26)
(-0.234229 0.23017 3.48178e-28)
(-0.212189 0.209631 -1.58001e-26)
(-0.193786 0.190064 0)
(-0.178261 0.171684 0)
(-0.165017 0.154487 0)
(-0.15362 0.138329 1.49249e-26)
(-0.143781 0.122996 2.50085e-28)
(-0.135344 0.108245 -1.38853e-26)
(-0.128257 0.0938418 0)
(-0.122557 0.0795876 0)
(-0.118344 0.0653388 0)
(-0.115758 0.0510206 0)
(-0.114954 0.0366379 -1.86848e-26)
(-0.116078 0.0222809 -2.54047e-28)
(-0.119239 0.00812476 1.42188e-26)
(-0.124483 -0.0055763 -1.20326e-26)
(-0.131761 -0.0185031 -2.27108e-28)
(-0.14091 -0.0302945 7.96814e-27)
(-0.15163 -0.0405799 -6.11415e-27)
(-0.163475 -0.0490207 -1.96597e-28)
(-0.175854 -0.055359 2.76945e-27)
(-0.188044 -0.0594686 0)
(-0.19923 -0.0614031 0)
(-0.208555 -0.0614314 0)
(-0.215181 -0.0600522 0)
(-0.218365 -0.0579803 0)
(-0.217524 -0.0560981 3.24957e-27)
(-0.212286 -0.0553749 3.76259e-27)
(-0.202522 -0.0567611 -1.98425e-29)
(-0.188331 -0.0610695 -4.50647e-27)
(-0.170009 -0.068862 -4.65073e-27)
(-0.147976 -0.0803598 0)
(-0.122695 -0.0953901 0)
(-0.0945893 -0.113377 0)
(-0.063977 -0.133375 4.39308e-27)
(-0.0310324 -0.154137 -2.45817e-28)
(0.00421138 -0.174196 -4.77891e-27)
(0.0418235 -0.191955 -3.1144e-27)
(0.0819014 -0.205761 4.12186e-28)
(0.124475 -0.213967 9.48367e-27)
(0.16941 -0.214973 -1.92195e-26)
(0.216342 -0.207292 1.80957e-27)
(0.264597 -0.189748 8.04058e-26)
(0.312845 -0.162098 -1.56963e-25)
(0.358231 -0.126406 9.03493e-27)
(0.39609 -0.0880727 4.51687e-25)
(0.422088 -0.0536188 0)
(0.43497 -0.0262693 0)
(0.436481 -0.00490879 0)
(0.429441 0.0135868 0)
(0.416436 0.0322176 0)
(0.399514 0.0530104 4.29008e-25)
(0.38033 0.0769043 1.5331e-25)
(0.360343 0.10387 2.53101e-24)
(0.340903 0.133082 0)
(0.32322 0.163135 0)
(0.308252 0.192303 0)
(0.296581 0.218805 0)
(0.288331 0.241049 0)
(0.283153 0.257805 0)
(0.280291 0.268331 0)
(0.278701 0.27244 0)
(0.27722 0.270518 0)
(0.274759 0.263499 0)
(0.270488 0.252774 0)
(0.264003 0.240027 0)
(0.255418 0.226999 0)
(0.245375 0.215216 0)
(0.234937 0.205725 0)
(0.225375 0.198903 1.3189e-23)
(0.21788 0.194382 -1.85862e-24)
(0.213143 0.191258 1.28444e-23)
(0.210997 0.188714 0)
(0.209711 0.186974 0)
(0.646947 0.589728 -2.8776e-27)
(0.71597 0.382762 -4.89707e-27)
(0.77617 0.137993 2.22903e-27)
(0.794028 -0.133665 5.05972e-27)
(0.749711 -0.407957 7.60379e-27)
(0.64085 -0.65718 2.35969e-26)
(0.477378 -0.857484 3.16851e-26)
(0.276761 -0.992948 3.78361e-26)
(0.0595979 -1.05704 4.18046e-26)
(-0.154017 -1.05212 0)
(-0.347179 -0.98769 4.40515e-26)
(-0.507772 -0.877895 4.31707e-26)
(-0.629047 -0.738903 4.15692e-26)
(-0.709308 -0.586561 3.96721e-26)
(-0.751003 -0.434636 3.77692e-26)
(-0.759481 -0.293741 0)
(-0.74169 -0.170944 3.4688e-26)
(-0.705022 -0.0699378 3.36441e-26)
(-0.656427 0.00843244 3.29083e-26)
(-0.601837 0.0654355 3.2441e-26)
(-0.545882 0.103697 8.2155e-26)
(-0.491851 0.126519 -4.80028e-26)
(-0.441817 0.137342 -1.72858e-26)
(-0.396848 0.139376 3.17756e-26)
(-0.357268 0.135375 3.15936e-26)
(-0.322887 0.127548 4.76647e-26)
(-0.293217 0.117551 2.99039e-26)
(-0.267626 0.106543 1.39715e-26)
(-0.245454 0.0952633 2.95262e-26)
(-0.226086 0.0841232 0)
(-0.208997 0.0732895 2.73533e-26)
(-0.19377 0.062758 4.16244e-26)
(-0.180099 0.0524148 -1.21774e-26)
(-0.167789 0.042084 7.83683e-27)
(-0.156744 0.0315664 2.06836e-26)
(-0.146953 0.0206697 0)
(-0.138481 0.00923305 1.66706e-26)
(-0.131448 -0.0028519 1.46702e-26)
(-0.126008 -0.0156249 -2.0807e-26)
(-0.122333 -0.0290438 1.092e-26)
(-0.120584 -0.0429763 2.46724e-26)
(-0.120882 -0.0571974 -1.31428e-26)
(-0.123282 -0.0713943 6.24565e-27)
(-0.127738 -0.0851803 1.28794e-26)
(-0.134078 -0.0981194 -3.87466e-27)
(-0.141979 -0.109762 2.42036e-27)
(-0.150954 -0.11969 1.72719e-27)
(-0.160354 -0.127572 -3.4078e-28)
(-0.169389 -0.133217 -2.07165e-28)
(-0.177163 -0.136622 5.37557e-28)
(-0.182738 -0.13801 7.77723e-28)
(-0.185209 -0.137832 -8.85601e-28)
(-0.183777 -0.136743 7.76482e-27)
(-0.177833 -0.135542 3.14045e-27)
(-0.167005 -0.135078 -2.06469e-27)
(-0.151193 -0.136137 -7.86753e-27)
(-0.130556 -0.139321 -7.61822e-27)
(-0.105473 -0.144949 2.27811e-29)
(-0.0764794 -0.152978 -7.45817e-30)
(-0.0441827 -0.162982 1.55705e-27)
(-0.00919123 -0.174165 6.11892e-27)
(0.0279441 -0.18542 6.09844e-27)
(0.0667582 -0.195423 3.06664e-27)
(0.106867 -0.20274 1.18788e-26)
(0.147938 -0.205938 2.58707e-26)
(0.189634 -0.203701 5.70272e-26)
(0.231575 -0.194948 5.27045e-26)
(0.273291 -0.178989 -6.85933e-26)
(0.314149 -0.155806 3.49717e-25)
(0.353079 -0.126581 2.63915e-25)
(0.388041 -0.0943009 -4.0152e-25)
(0.41599 -0.0634385 1.86281e-24)
(0.434256 -0.0376644 1.82615e-24)
(0.44218 -0.0176105 0)
(0.441058 -0.00134682 2.75639e-24)
(0.432973 0.0138034 2.99562e-24)
(0.41996 0.0301022 2.92267e-24)
(0.403771 0.0490207 4.57569e-24)
(0.385942 0.0712012 1.21177e-24)
(0.367879 0.0965085 -8.47198e-25)
(0.350877 0.124117 -3.79691e-24)
(0.336039 0.152654 -7.80073e-24)
(0.324148 0.180421 -1.2852e-23)
(0.315571 0.205645 -1.87562e-23)
(0.310202 0.226725 0)
(0.307494 0.24243 -3.26384e-23)
(0.306542 0.252029 -4.01983e-23)
(0.306223 0.255355 -4.77776e-23)
(0.305357 0.252829 -5.51943e-23)
(0.302895 0.245416 -6.20813e-23)
(0.298097 0.234527 0)
(0.290682 0.221841 -7.34832e-23)
(0.280903 0.20907 -7.76173e-23)
(0.269532 0.197686 -8.05289e-23)
(0.257724 0.188671 -8.19922e-23)
(0.246765 0.182362 -7.4868e-23)
(0.237754 0.178452 7.5178e-23)
(0.231253 0.176233 -5.49578e-23)
(0.227112 0.175138 -4.57658e-23)
(0.224364 0.175348 -2.15718e-23)
(0.801635 0.542845 3.40688e-29)
(0.844631 0.372177 2.34576e-29)
(0.891328 0.165622 2.08893e-27)
(0.915827 -0.0708725 6.05312e-41)
(0.896887 -0.321313 -5.58501e-27)
(0.824674 -0.564038 -2.0112e-40)
(0.700297 -0.777164 5.53562e-40)
(0.533523 -0.942999 -2.63215e-40)
(0.339544 -1.05065 -1.26823e-26)
(0.135661 -1.09685 -1.41116e-39)
(-0.0616182 -1.08535 2.41162e-26)
(-0.238702 -1.02524 1.25868e-39)
(-0.386135 -0.928912 -9.25575e-40)
(-0.498946 -0.80989 -1.83923e-40)
(-0.576288 -0.68101 -3.40464e-26)
(-0.620602 -0.553138 -3.75075e-40)
(-0.636562 -0.434444 3.40267e-26)
(-0.630008 -0.330225 -5.08374e-40)
(-0.60703 -0.243135 4.64023e-40)
(-0.573291 -0.173662 -1.15524e-39)
(-0.533596 -0.120734 -3.19606e-26)
(-0.4917 -0.0823027 -9.77905e-40)
(-0.450297 -0.0558626 3.13801e-26)
(-0.411129 -0.0388397 4.58631e-40)
(-0.375156 -0.0288575 7.75827e-40)
(-0.342754 -0.0238873 1.45943e-26)
(-0.313898 -0.0223094 2.74456e-40)
(-0.288311 -0.0229107 -1.45869e-26)
(-0.265595 -0.0248445 -3.10951e-26)
(-0.245309 -0.0275713 -1.04799e-39)
(-0.22703 -0.0307956 3.06526e-26)
(-0.210391 -0.0344055 -3.02094e-26)
(-0.195097 -0.0384203 6.61557e-41)
(-0.180933 -0.0429456 2.8708e-26)
(-0.167771 -0.0481367 -2.75871e-26)
(-0.155561 -0.0541674 3.34433e-42)
(-0.144327 -0.0612036 2.45091e-26)
(-0.134159 -0.0693797 -2.32784e-26)
(-0.1252 -0.0787775 -2.03652e-26)
(-0.117627 -0.0894076 1.85474e-26)
(-0.111633 -0.101194 -4.93413e-28)
(-0.1074 -0.113965 -1.2837e-26)
(-0.105071 -0.127445 1.05547e-26)
(-0.104713 -0.141261 3.84054e-27)
(-0.10629 -0.154957 -5.26664e-27)
(-0.109625 -0.168019 -1.5331e-27)
(-0.114379 -0.179913 -1.1349e-27)
(-0.120035 -0.190138 -1.69893e-28)
(-0.125903 -0.19828 -7.43602e-28)
(-0.131147 -0.204071 2.54725e-27)
(-0.134833 -0.207439 -3.48251e-27)
(-0.135997 -0.208533 4.3691e-27)
(-0.133729 -0.207727 2.50312e-27)
(-0.127266 -0.205582 -8.90094e-27)
(-0.116062 -0.202776 1.99992e-40)
(-0.0998482 -0.200006 -7.07951e-27)
(-0.0786511 -0.19788 2.36255e-28)
(-0.0527794 -0.196802 7.8439e-27)
(-0.0227742 -0.196898 -7.97098e-27)
(0.010663 -0.197964 9.354e-41)
(0.0467522 -0.199471 7.92457e-27)
(0.0847094 -0.200611 -8.53854e-27)
(0.123805 -0.200387 -9.26326e-27)
(0.163393 -0.197724 -5.51264e-27)
(0.202922 -0.191606 8.76176e-40)
(0.241918 -0.181209 1.43935e-26)
(0.279963 -0.166045 5.87257e-26)
(0.31665 -0.146114 1.48586e-39)
(0.35148 -0.122086 -2.34068e-25)
(0.383581 -0.0955211 4.58061e-25)
(0.41134 -0.0689702 -1.85303e-38)
(0.432506 -0.0453812 -1.38597e-24)
(0.445298 -0.0265152 2.01179e-24)
(0.44951 -0.0118729 1.47e-38)
(0.446331 0.00053686 -3.13248e-24)
(0.437472 0.0128938 -5.611e-38)
(0.424602 0.0269079 -6.09298e-38)
(0.409226 0.0436574 3.5121e-24)
(0.392733 0.0635794 -4.82208e-38)
(0.376439 0.0864795 -1.97234e-24)
(0.361553 0.111567 -6.75949e-38)
(0.349068 0.137556 5.23635e-40)
(0.339626 0.162844 7.77384e-38)
(0.333425 0.185752 -5.78662e-24)
(0.330192 0.204762 6.26468e-38)
(0.329233 0.218713 9.97183e-24)
(0.329543 0.226931 6.44338e-38)
(0.329949 0.229294 -1.32456e-36)
(0.329276 0.226247 1.50388e-37)
(0.326528 0.218754 -1.37835e-23)
(0.321058 0.208189 1.82105e-36)
(0.312693 0.196161 1.27715e-23)
(0.301806 0.184281 7.3113e-37)
(0.289264 0.173909 6.61125e-38)
(0.276276 0.165928 -7.53123e-37)
(0.264133 0.160625 -2.31828e-24)
(0.2539 0.157731 2.32358e-36)
(0.246147 0.156659 -1.0824e-23)
(0.240891 0.156896 3.49089e-40)
(0.237664 0.158342 1.53015e-37)
(0.922732 0.498966 3.94732e-28)
(0.952982 0.359194 1.60248e-27)
(0.992047 0.185443 2.21307e-27)
(1.02065 -0.0191469 -1.18414e-27)
(1.01983 -0.244082 -1.0577e-26)
(0.977023 -0.47306 -1.24551e-26)
(0.887929 -0.687435 -1.92374e-26)
(0.7562 -0.869958 -2.56103e-26)
(0.59169 -1.00768 -3.09755e-26)
(0.407944 -1.09358 0)
(0.219597 -1.12682 -3.7776e-26)
(0.0401215 -1.112 -3.93082e-26)
(-0.119754 -1.05765 -3.9881e-26)
(-0.252886 -0.974468 -3.97875e-26)
(-0.355844 -0.873645 -3.92867e-26)
(-0.428498 -0.765472 0)
(-0.473263 -0.65844 -3.79127e-26)
(-0.494214 -0.558783 -3.7306e-26)
(-0.49623 -0.470446 -3.68335e-26)
(-0.484284 -0.395329 -3.65158e-26)
(-0.462937 -0.33371 7.35412e-27)
(-0.436033 -0.284721 5.43733e-26)
(-0.406571 -0.246807 -7.89124e-26)
(-0.376716 -0.218102 -3.62233e-26)
(-0.347889 -0.196713 -3.61885e-26)
(-0.32091 -0.180908 -2.20626e-26)
(-0.296145 -0.169219 -3.47229e-26)
(-0.27364 -0.16048 -4.94899e-26)
(-0.253245 -0.153821 -3.49527e-26)
(-0.234701 -0.148642 0)
(-0.217705 -0.144567 -3.31701e-26)
(-0.201958 -0.141403 -1.82444e-26)
(-0.187197 -0.139093 1.5163e-26)
(-0.173207 -0.137683 -4.15599e-26)
(-0.159838 -0.137283 -2.63668e-26)
(-0.147009 -0.138045 0)
(-0.134706 -0.140131 -2.14507e-26)
(-0.122986 -0.143691 -1.87467e-26)
(-0.111965 -0.148841 -1.85639e-26)
(-0.101812 -0.155639 -1.31601e-26)
(-0.0927308 -0.164068 4.17088e-27)
(-0.0849415 -0.174012 -1.18995e-26)
(-0.0786537 -0.185252 -5.33483e-27)
(-0.0740339 -0.197454 4.12506e-27)
(-0.0711711 -0.210175 -5.47612e-27)
(-0.070039 -0.222879 5.18791e-28)
(-0.0704631 -0.234968 9.83444e-28)
(-0.0720949 -0.245822 -2.87719e-27)
(-0.0744012 -0.25486 1.81642e-27)
(-0.0766745 -0.261596 -2.32522e-27)
(-0.0780663 -0.265703 -2.64082e-27)
(-0.0776476 -0.26706 2.69118e-27)
(-0.0744884 -0.26577 -3.40555e-27)
(-0.0677495 -0.26216 1.24246e-26)
(-0.0567729 -0.256726 6.05009e-27)
(-0.0411559 -0.250065 -1.83974e-27)
(-0.0207954 -0.242769 -2.79594e-27)
(0.00410372 -0.235326 -1.47242e-28)
(0.0330599 -0.228029 -1.14845e-28)
(0.065377 -0.220919 2.14561e-27)
(0.100227 -0.213769 9.38381e-27)
(0.136736 -0.206117 -3.09729e-27)
(0.174064 -0.197341 -1.93303e-26)
(0.211457 -0.186766 -2.32097e-26)
(0.248284 -0.173793 -2.87614e-26)
(0.284033 -0.158026 -3.60658e-26)
(0.318294 -0.1394 -1.34728e-25)
(0.35069 -0.118282 9.43313e-26)
(0.380753 -0.0955375 -2.26076e-25)
(0.40769 -0.0725679 -9.45786e-25)
(0.430137 -0.0512087 6.26062e-25)
(0.446348 -0.0332109 -1.3053e-24)
(0.455127 -0.0192178 -3.15268e-24)
(0.456609 -0.00826462 0)
(0.451962 0.00148271 -5.51784e-24)
(0.442667 0.0117979 -6.73018e-24)
(0.430133 0.0240059 -7.86984e-24)
(0.415658 0.03892 -4.29972e-24)
(0.400483 0.056838 -9.37898e-24)
(0.385812 0.0775285 -1.27204e-23)
(0.372748 0.100237 -8.56482e-24)
(0.362173 0.123758 -6.86755e-24)
(0.354603 0.146596 -4.20399e-24)
(0.350108 0.167182 -6.60696e-25)
(0.348297 0.184105 0)
(0.348387 0.196295 8.51945e-24)
(0.349316 0.203154 1.37316e-23)
(0.349902 0.204616 1.90148e-23)
(0.349005 0.20115 2.41596e-23)
(0.345701 0.193712 2.89064e-23)
(0.339437 0.183633 0)
(0.330147 0.172439 3.64776e-23)
(0.318296 0.161634 3.89498e-23)
(0.304821 0.152459 4.03182e-23)
(0.290959 0.145691 4.0337e-23)
(0.277996 0.141555 3.80441e-23)
(0.266985 0.139779 -3.30342e-23)
(0.25854 0.139797 3.40852e-23)
(0.252814 0.141043 1.40964e-23)
(0.24958 0.143161 4.46606e-24)
(1.01785 0.457737 0)
(1.04063 0.344378 0)
(1.07512 0.19966 -3.64644e-29)
(1.1066 0.0246194 1.91944e-41)
(1.119 -0.174101 -3.50243e-27)
(1.09948 -0.3846 0)
(1.04083 -0.591716 0)
(0.942365 -0.779855 0)
(0.809385 -0.935668 0)
(0.651574 -1.04998 0)
(0.480941 -1.11869 0)
(0.309754 -1.14266 0)
(0.148848 -1.12688 0)
(0.00649641 -1.07912 0)
(-0.112094 -1.00849 0)
(-0.204746 -0.924116 0)
(-0.271868 -0.834176 0)
(-0.31579 -0.745238 0)
(-0.340033 -0.662028 0)
(-0.348635 -0.587468 0)
(-0.345615 -0.522921 3.8269e-26)
(-0.334605 -0.468548 -1.95751e-40)
(-0.318635 -0.423677 -3.71217e-26)
(-0.300063 -0.38715 0)
(-0.280589 -0.357605 0)
(-0.26134 -0.333671 1.20334e-26)
(-0.24298 -0.314107 2.12158e-40)
(-0.225819 -0.297866 -1.19333e-26)
(-0.209926 -0.284125 0)
(-0.195206 -0.272277 0)
(-0.18148 -0.26191 0)
(-0.168526 -0.25278 1.16745e-26)
(-0.156122 -0.244776 2.10282e-40)
(-0.14407 -0.237893 -1.12775e-26)
(-0.132211 -0.232204 0)
(-0.12044 -0.227832 0)
(-0.108713 -0.224929 0)
(-0.0970492 -0.223653 0)
(-0.0855348 -0.224143 -1.69779e-26)
(-0.0743155 -0.226496 -1.89882e-40)
(-0.0635898 -0.230745 1.31701e-26)
(-0.0535939 -0.236838 -1.10471e-26)
(-0.0445798 -0.244616 -2.20392e-41)
(-0.0367877 -0.253804 6.67515e-27)
(-0.0304118 -0.264001 -4.57724e-27)
(-0.0255614 -0.274689 -1.51456e-41)
(-0.0222225 -0.285253 1.01505e-27)
(-0.0202231 -0.295015 0)
(-0.0192099 -0.303285 0)
(-0.0186426 -0.309424 0)
(-0.0178126 -0.31291 0)
(-0.0158879 -0.313399 0)
(-0.0119832 -0.310766 5.18789e-27)
(-0.00524877 -0.305126 6.11594e-27)
(0.00503518 -0.296807 -6.18474e-42)
(0.0193725 -0.286302 -7.74121e-27)
(0.0379888 -0.274183 -8.41136e-27)
(0.0608039 -0.261007 0)
(0.0874446 -0.247226 0)
(0.117294 -0.233116 0)
(0.149568 -0.218747 1.05284e-26)
(0.183406 -0.203997 2.51018e-41)
(0.217956 -0.188606 -1.31582e-26)
(0.252443 -0.172263 -8.44927e-27)
(0.28621 -0.154718 5.03205e-40)
(0.318728 -0.135886 2.11017e-26)
(0.349564 -0.115937 -3.90722e-26)
(0.378314 -0.095346 -6.73027e-42)
(0.404485 -0.0748932 1.49347e-25)
(0.427317 -0.0556077 -2.89481e-25)
(0.445636 -0.0386383 1.31844e-38)
(0.458077 -0.0248857 8.7895e-25)
(0.463865 -0.0143635 0)
(0.463372 -0.00597081 0)
(0.457749 0.00189422 0)
(0.448307 0.0106719 0)
(0.43626 0.0214046 0)
(0.422732 0.0347164 5.25433e-24)
(0.408824 0.0508059 1.43023e-38)
(0.395621 0.0694189 -4.34383e-24)
(0.384112 0.0898395 0)
(0.375063 0.110947 0)
(0.368883 0.131359 0)
(0.365541 0.149634 0)
(0.364566 0.164484 0)
(0.365126 0.174954 0)
(0.36615 0.180534 0)
(0.366482 0.181217 0)
(0.365042 0.177499 0)
(0.360996 0.17032 0)
(0.353892 0.160951 0)
(0.343761 0.150824 0)
(0.331148 0.141318 0)
(0.317033 0.133539 0)
(0.302662 0.128146 0)
(0.289299 0.125282 -2.07409e-24)
(0.27798 0.124632 -1.8489e-37)
(0.269337 0.125602 5.89368e-24)
(0.263577 0.127553 0)
(0.26054 0.129972 0)
(1.09157 0.419588 0)
(1.10921 0.328784 0)
(1.14043 0.209581 -4.83929e-28)
(1.17362 0.0615316 -2.59141e-41)
(1.19551 -0.11146 -2.67292e-27)
(1.19402 -0.300969 0)
(1.16066 -0.495088 0)
(1.09197 -0.680402 0)
(0.989701 -0.844228 0)
(0.860052 -0.976523 0)
(0.712204 -1.07111 0)
(0.556606 -1.12605 0)
(0.403373 -1.14335 0)
(0.261043 -1.12803 0)
(0.135828 -1.08698 0)
(0.0313631 -1.02787 0)
(-0.0511397 -0.958076 0)
(-0.112453 -0.884017 0)
(-0.15476 -0.810743 0)
(-0.181064 -0.741809 0)
(-0.194672 -0.679367 3.2586e-26)
(-0.198796 -0.624394 5.4522e-40)
(-0.19629 -0.576975 -3.13068e-26)
(-0.189507 -0.536602 0)
(-0.180265 -0.502421 0)
(-0.169867 -0.473445 9.95828e-27)
(-0.159176 -0.448693 -1.378e-40)
(-0.148698 -0.427283 -9.78034e-27)
(-0.138671 -0.40848 0)
(-0.129146 -0.391713 0)
(-0.120051 -0.376569 0)
(-0.11124 -0.362781 9.54167e-27)
(-0.102542 -0.350205 -5.83353e-41)
(-0.0937793 -0.3388 -9.28512e-27)
(-0.084798 -0.328602 0)
(-0.0754796 -0.319712 0)
(-0.0657543 -0.312265 0)
(-0.0556106 -0.306417 0)
(-0.0451 -0.30232 -1.44987e-26)
(-0.0343392 -0.3001 -1.28121e-40)
(-0.0235071 -0.299833 1.14791e-26)
(-0.0128361 -0.301521 -9.74552e-27)
(-0.00259668 -0.305071 1.77735e-41)
(0.00692559 -0.310271 6.08331e-27)
(0.0154608 -0.316786 -4.28825e-27)
(0.0227916 -0.324143 -7.51783e-42)
(0.0287946 -0.331754 1.18228e-27)
(0.03348 -0.338935 0)
(0.0370255 -0.344949 0)
(0.0397951 -0.349071 0)
(0.0423361 -0.35065 0)
(0.0453505 -0.349185 0)
(0.0496378 -0.344378 4.66038e-27)
(0.0560156 -0.336171 5.64602e-27)
(0.0652264 -0.324753 -5.34654e-41)
(0.0778462 -0.310527 -7.50468e-27)
(0.0942097 -0.294041 -8.33695e-27)
(0.114367 -0.275909 0)
(0.138076 -0.256717 0)
(0.16484 -0.236947 0)
(0.193972 -0.21693 1.12894e-26)
(0.224677 -0.196838 3.21573e-41)
(0.256138 -0.176716 -1.46191e-26)
(0.287592 -0.156544 -9.4967e-27)
(0.318369 -0.13632 6.64565e-41)
(0.347905 -0.11614 2.36852e-26)
(0.375719 -0.0962564 -4.3491e-26)
(0.401346 -0.0770926 1.31187e-39)
(0.424256 -0.0592107 1.63364e-25)
(0.443723 -0.0432417 -3.14645e-25)
(0.458741 -0.0297843 5.82504e-39)
(0.468251 -0.0191758 9.50992e-25)
(0.471789 -0.0110977 0)
(0.469885 -0.00447235 0)
(0.463659 0.00206286 0)
(0.454286 0.0096796 0)
(0.442819 0.0192086 0)
(0.430239 0.0311339 5.76321e-24)
(0.417517 0.0455811 2.8102e-37)
(0.405617 0.0622822 -5.00784e-24)
(0.395414 0.080561 0)
(0.387562 0.0993821 0)
(0.382369 0.117481 0)
(0.379728 0.133552 0)
(0.379119 0.146444 0)
(0.379697 0.155324 0)
(0.380413 0.159779 0)
(0.380169 0.159866 0)
(0.377974 0.156103 0)
(0.373092 0.149404 0)
(0.365178 0.140972 0)
(0.354357 0.132126 0)
(0.341235 0.124107 0)
(0.326818 0.117872 0)
(0.312333 0.113948 0)
(0.299003 0.112376 -2.83108e-24)
(0.287817 0.112776 2.95469e-37)
(0.279377 0.11451 3.94576e-24)
(0.273873 0.116888 0)
(0.271117 0.119331 0)
(1.14734 0.384598 0)
(1.16105 0.312958 0)
(1.18941 0.215967 -6.97616e-28)
(1.22318 0.0922171 6.97425e-42)
(1.25146 -0.0563286 -2.01072e-27)
(1.26341 -0.223936 0)
(1.2503 -0.401527 0)
(1.20704 -0.57798 0)
(1.13281 -0.741876 0)
(1.03095 -0.883214 0)
(0.907947 -0.994729 0)
(0.772207 -1.07259 0)
(0.632618 -1.11644 0)
(0.497344 -1.12894 0)
(0.372959 -1.1149 0)
(0.263984 -1.08035 0)
(0.172821 -1.03165 0)
(0.0999699 -0.974682 0)
(0.0444463 -0.914464 0)
(0.00425822 -0.854835 0)
(-0.0231252 -0.798444 2.73171e-26)
(-0.0403817 -0.746856 3.81075e-40)
(-0.0500468 -0.700755 -2.59631e-26)
(-0.0543319 -0.660174 0)
(-0.0550354 -0.624717 0)
(-0.0535262 -0.593754 8.05624e-27)
(-0.0507753 -0.566567 -4.1675e-41)
(-0.0474145 -0.542455 -7.79567e-27)
(-0.0438053 -0.520795 0)
(-0.0401071 -0.501078 0)
(-0.0363369 -0.482915 0)
(-0.0324203 -0.466039 7.52355e-27)
(-0.0282307 -0.450291 2.85926e-40)
(-0.0236207 -0.435605 -7.36508e-27)
(-0.0184459 -0.421995 0)
(-0.0125835 -0.409535 0)
(-0.00594739 -0.398346 0)
(0.00149975 -0.388576 0)
(0.00973724 -0.38038 -1.19879e-26)
(0.0186804 -0.373902 -8.74585e-41)
(0.0281782 -0.369249 9.74642e-27)
(0.0380168 -0.366469 -8.41296e-27)
(0.0479289 -0.365526 -4.6089e-41)
(0.0576111 -0.366276 5.50788e-27)
(0.0667496 -0.368453 -4.04219e-27)
(0.0750542 -0.371652 -6.85677e-42)
(0.0822983 -0.375341 1.43e-27)
(0.0883621 -0.378871 0)
(0.0932727 -0.381512 0)
(0.0972332 -0.382514 0)
(0.100635 -0.381162 0)
(0.104042 -0.376861 0)
(0.108153 -0.369198 3.94803e-27)
(0.11373 -0.357997 4.95049e-27)
(0.12151 -0.343341 2.96757e-41)
(0.132119 -0.325559 -6.95804e-27)
(0.145981 -0.305182 -7.91493e-27)
(0.163267 -0.282865 0)
(0.183868 -0.2593 0)
(0.207417 -0.235135 0)
(0.233337 -0.210909 1.16088e-26)
(0.260913 -0.187027 6.86527e-43)
(0.289379 -0.163764 -1.56198e-26)
(0.31798 -0.141305 -1.03109e-26)
(0.346028 -0.119798 7.27913e-41)
(0.372912 -0.0994164 2.59785e-26)
(0.398083 -0.0803882 -4.74764e-26)
(0.421021 -0.0630028 1.5586e-39)
(0.441165 -0.0475722 1.75783e-25)
(0.457835 -0.0343777 -3.3644e-25)
(0.470181 -0.0236142 -8.58084e-39)
(0.477389 -0.0152665 1.00999e-24)
(0.479229 -0.00886528 0)
(0.476328 -0.0034295 0)
(0.469764 0.00218417 0)
(0.460597 0.00893512 0)
(0.449749 0.0174943 0)
(0.438075 0.0282407 6.07827e-24)
(0.426432 0.041244 -1.36633e-37)
(0.415667 0.0562289 -5.4018e-24)
(0.406541 0.0725591 0)
(0.399601 0.0892833 0)
(0.395069 0.105256 0)
(0.392775 0.119309 0)
(0.392177 0.130433 0)
(0.392443 0.137922 0)
(0.392575 0.141462 0)
(0.391556 0.141173 0)
(0.388498 0.137587 0)
(0.382779 0.131589 0)
(0.374163 0.124298 0)
(0.36286 0.11691 0)
(0.349522 0.110513 0)
(0.335158 0.105906 0)
(0.320954 0.10347 0)
(0.308059 0.103137 -3.00583e-24)
(0.297382 0.104455 3.98286e-38)
(0.289452 0.106744 2.42521e-24)
(0.284389 0.1093 0)
(0.281929 0.111557 0)
(1.18813 0.352805 0)
(1.19865 0.297249 0)
(1.22426 0.219327 -7.52141e-28)
(1.25752 0.117077 -1.22329e-27)
(1.28962 -0.00888497 -1.48053e-27)
(1.31107 -0.154865 0)
(1.31351 -0.314145 0)
(1.29105 -0.477779 0)
(1.24117 -0.635881 0)
(1.16497 -0.779076 0)
(1.06663 -0.899764 0)
(0.952523 -0.992967 0)
(0.83008 -1.05665 0)
(0.706684 -1.09156 0)
(0.588774 -1.10066 0)
(0.481277 -1.08843 0)
(0.38736 -1.06004 0)
(0.308484 -1.02068 0)
(0.244652 -0.975022 0)
(0.194778 -0.926929 0)
(0.157086 -0.879284 2.28659e-26)
(0.129468 -0.83403 -3.10731e-26)
(0.10978 -0.792276 -2.15154e-26)
(0.0960447 -0.754474 0)
(0.0865741 -0.720606 0)
(0.0800219 -0.69035 6.48728e-27)
(0.0753833 -0.663229 1.89944e-26)
(0.0719622 -0.638715 -6.1498e-27)
(0.0693207 -0.616306 0)
(0.0672241 -0.595563 -2.81091e-26)
(0.065588 -0.576139 0)
(0.0644316 -0.557782 5.80343e-27)
(0.0638394 -0.540332 -8.98751e-27)
(0.0639308 -0.523714 -5.69779e-27)
(0.0648353 -0.507924 0)
(0.066673 -0.49302 -2.25211e-26)
(0.0695382 -0.479108 0)
(0.0734863 -0.466323 0)
(0.0785219 -0.454821 -1.00489e-26)
(0.08459 -0.444751 9.2483e-27)
(0.0915707 -0.436241 8.14782e-27)
(0.0992776 -0.429372 -7.365e-27)
(0.107462 -0.424155 3.85994e-27)
(0.115827 -0.420506 5.00163e-27)
(0.124044 -0.418227 -3.85667e-27)
(0.131784 -0.416988 -5.88523e-28)
(0.138759 -0.416329 1.72824e-27)
(0.144757 -0.415664 2.61482e-27)
(0.149692 -0.414311 1.82149e-27)
(0.153639 -0.411536 2.29348e-27)
(0.156855 -0.406621 2.77099e-27)
(0.159782 -0.39893 3.2411e-27)
(0.163019 -0.387993 1.39172e-26)
(0.167263 -0.373559 -4.06213e-27)
(0.173237 -0.355643 -8.78388e-27)
(0.181592 -0.334524 -1.53752e-26)
(0.192824 -0.310718 -7.18053e-27)
(0.207207 -0.28491 2.95712e-28)
(0.224749 -0.257872 2.75073e-28)
(0.245201 -0.230374 0)
(0.268086 -0.203113 1.16046e-26)
(0.292763 -0.17666 -5.015e-28)
(0.318502 -0.151449 -1.60846e-26)
(0.344553 -0.127793 -1.08375e-26)
(0.370193 -0.105913 4.13623e-26)
(0.394757 -0.0859821 2.78923e-26)
(0.417637 -0.0681481 -5.09571e-26)
(0.438259 -0.0525362 -1.5848e-25)
(0.456056 -0.0392237 1.866e-25)
(0.470401 -0.0282134 -3.54868e-25)
(0.480581 -0.0194199 -1.07476e-24)
(0.485981 -0.0126209 1.05694e-24)
(0.486538 -0.00730601 0)
(0.482938 -0.00262111 -1.11998e-23)
(0.476214 0.00238861 0)
(0.467324 0.00851873 0)
(0.457085 0.0163211 0)
(0.446245 0.0260955 6.22836e-24)
(0.435556 0.0378694 1.88135e-23)
(0.425758 0.0513642 -5.56316e-24)
(0.417502 0.0659825 0)
(0.411239 0.0808539 0)
(0.407111 0.0949483 0)
(0.404905 0.107234 0)
(0.404072 0.116841 0)
(0.403815 0.123187 0)
(0.403205 0.126057 0)
(0.401325 0.125627 0)
(0.3974 0.122439 0)
(0.390931 0.117337 0)
(0.381783 0.111349 0)
(0.370244 0.105538 0)
(0.356999 0.100831 0)
(0.343035 0.097861 0)
(0.329471 0.0968616 0)
(0.317357 0.0976537 -2.84172e-24)
(0.307487 0.0997198 -1.50049e-24)
(0.30028 0.102356 1.31214e-24)
(0.295761 0.104878 0)
(0.293576 0.10679 0)
(1.21669 0.324242 0)
(1.22458 0.281913 0)
(1.24744 0.220055 0)
(1.27931 0.136451 -1.75308e-41)
(1.3131 0.0308182 0)
(1.34075 -0.0946688 0)
(1.35453 -0.235204 0)
(1.34837 -0.383779 0)
(1.31872 -0.532098 0)
(1.26505 -0.671738 0)
(1.18964 -0.795289 0)
(1.09705 -0.897234 0)
(0.993208 -0.974435 0)
(0.884502 -1.0262 0)
(0.776905 -1.05397 0)
(0.675369 -1.0608 0)
(0.583467 -1.05072 0)
(0.50331 -1.0281 0)
(0.435657 -0.997124 0)
(0.380178 -0.961454 0)
(0.335768 -0.924011 0)
(0.300871 -0.886925 -4.9775e-40)
(0.273749 -0.851574 0)
(0.252704 -0.81871 0)
(0.236214 -0.788596 0)
(0.223015 -0.761161 1.56315e-26)
(0.212123 -0.736129 -4.14961e-40)
(0.202825 -0.713126 -1.44577e-26)
(0.194648 -0.691758 -1.40012e-26)
(0.187312 -0.671663 -4.3823e-41)
(0.180688 -0.652539 1.33576e-26)
(0.174756 -0.63416 0)
(0.169568 -0.616376 -1.91721e-40)
(0.165218 -0.599112 0)
(0.161819 -0.582357 -1.27455e-26)
(0.159485 -0.566159 -3.30505e-40)
(0.158312 -0.550612 1.23136e-26)
(0.158365 -0.535843 -2.60025e-28)
(0.159667 -0.521999 1.1875e-42)
(0.162187 -0.509233 2.34955e-28)
(0.165835 -0.497681 -2.17427e-28)
(0.170454 -0.487445 -3.25558e-42)
(0.175825 -0.47857 1.72977e-28)
(0.181671 -0.471019 0)
(0.187674 -0.464655 0)
(0.193499 -0.459219 -2.72766e-42)
(0.198829 -0.454327 -1.9929e-27)
(0.203402 -0.449467 -6.58467e-28)
(0.207059 -0.444025 3.07454e-28)
(0.209787 -0.437321 -6.53044e-41)
(0.211742 -0.428664 -8.13295e-41)
(0.213268 -0.417429 1.30336e-27)
(0.21488 -0.403124 -1.08731e-27)
(0.217217 -0.385469 -4.54133e-27)
(0.220979 -0.364439 -2.17423e-40)
(0.226833 -0.340283 -2.47161e-40)
(0.235329 -0.313508 1.97005e-28)
(0.246819 -0.284818 2.30861e-28)
(0.26141 -0.255043 -2.65175e-28)
(0.278947 -0.225041 6.28712e-42)
(0.299034 -0.195615 5.04138e-42)
(0.321087 -0.167452 -4.06037e-28)
(0.344396 -0.141088 0)
(0.368199 -0.116902 -3.2396e-26)
(0.391735 -0.0951342 7.49375e-41)
(0.414284 -0.0759163 8.62259e-26)
(0.435183 -0.0592909 0)
(0.453826 -0.0452216 -2.3324e-39)
(0.469645 -0.0335865 0)
(0.482071 -0.0241773 0)
(0.490509 -0.0167213 -3.09548e-38)
(0.494494 -0.0108873 0)
(0.494084 -0.00618842 4.66193e-24)
(0.489999 -0.00190576 2.70028e-37)
(0.483223 0.00276007 -7.28699e-24)
(0.474634 0.00848306 0)
(0.464958 0.0157295 0)
(0.454857 0.0247412 0)
(0.444989 0.0355143 3.63256e-37)
(0.435996 0.0477699 0)
(0.428431 0.0609478 0)
(0.422655 0.0742534 0)
(0.418743 0.0867653 0)
(0.41645 0.0975806 0)
(0.415237 0.105961 0)
(0.414354 0.111442 0)
(0.412954 0.1139 0)
(0.410227 0.113559 0)
(0.405521 0.110966 0)
(0.398452 0.106914 0)
(0.388989 0.102335 0)
(0.377481 0.0981515 0)
(0.364628 0.0951274 0)
(0.351376 0.0937305 0)
(0.338755 0.0940518 0)
(0.327688 0.0958104 0)