/*--------------------------------*- C++ -*----------------------------------*\
  =========                 |
  \\      /  F ield         | OpenFOAM: The Open Source CFD Toolbox
   \\    /   O peration     | Website:  https://openfoam.org
    \\  /    A nd           | Version:  8
     \\/     M anipulation  |
\*---------------------------------------------------------------------------*/
FoamFile
{
    version     2.0;
    format      ascii;
    class       volScalarField;
    location    "0.75";
    object      nut;
}
// * * * * * * * * * * * * * * * * * * * * * * * * * * * * * * * * * * * * * //

dimensions      [0 2 -1 0 0 0 0];

internalField   nonuniform List<scalar> 
115200
(
0.000213331
0.000219935
0.000226094
0.000231868
0.000237313
0.000242484
0.000247437
0.000252214
0.000256833
0.000261271
0.000265468
0.00026938
0.000273009
0.000276368
0.000279471
0.000282329
0.000284954
0.000287356
0.000289545
0.000291528
0.000293313
0.000294903
0.000296301
0.000297508
0.000298519
0.000299326
0.000299913
0.000300266
0.000300393
0.000300425
0.000300354
0.000300189
0.000299932
0.000299587
0.000299158
0.000298646
0.000298053
0.00029738
0.00029663
0.000295803
0.0002949
0.000293923
0.000292873
0.00029175
0.000290555
0.00028929
0.000287954
0.000286549
0.000285075
0.000283533
0.000281923
0.000280246
0.000278502
0.000276691
0.000274814
0.00027287
0.000270861
0.000268786
0.000266645
0.000264438
0.000262165
0.000259826
0.00025742
0.000254947
0.000252406
0.000249797
0.000247118
0.00024437
0.000241551
0.000238659
0.000235694
0.000232654
0.000229537
0.000226341
0.000223064
0.000219703
0.000216256
0.000212719
0.000209089
0.00020536
0.000201528
0.000197587
0.000193532
0.000189354
0.000185047
0.000180602
0.000176007
0.00017125
0.000166318
0.000161194
0.000155857
0.000150287
0.000144459
0.000138351
0.000131959
0.000125333
0.000118681
0.000112547
0.000107875
0.000105339
0.000344578
0.000342908
0.000340703
0.000338047
0.000335074
0.000331993
0.000329142
0.000327062
0.000326534
0.000328289
0.000331889
0.000335862
0.000339806
0.00034371
0.000347582
0.00035143
0.000355262
0.000359087
0.000362914
0.00036675
0.000370607
0.000374493
0.000378421
0.000382405
0.000386454
0.000390558
0.000394709
0.000398916
0.000403162
0.00040733
0.000411431
0.000415468
0.000419444
0.000423361
0.00042722
0.000431023
0.000434771
0.000438465
0.000442105
0.000445692
0.000449227
0.000452709
0.00045614
0.000459519
0.000462847
0.000466123
0.000469348
0.000472522
0.000475644
0.000478715
0.000481735
0.000484704
0.000487622
0.000490488
0.000493303
0.000496066
0.000498778
0.000501438
0.000504047
0.000506603
0.000509108
0.00051156
0.00051396
0.000516308
0.000518603
0.000520845
0.000523035
0.000525173
0.000527257
0.000529289
0.000531268
0.000533195
0.00053507
0.000536893
0.000538665
0.000540387
0.000542061
0.00054369
0.000545274
0.000546808
0.000548289
0.000549717
0.000551094
0.000552421
0.000553698
0.000554926
0.000556107
0.000557242
0.000558332
0.00055938
0.000560384
0.000561345
0.000562261
0.000563129
0.000563941
0.000564682
0.000565327
0.000565841
0.000566193
0.00056638
0.00052997
0.000542659
0.000555317
0.000567958
0.000580582
0.000593189
0.00060577
0.000618306
0.000630762
0.000643084
0.000655212
0.000667109
0.000678775
0.00069022
0.000701453
0.000712483
0.000723317
0.000733964
0.000744429
0.000754719
0.000764837
0.000774786
0.000784566
0.000794178
0.00080362
0.000812911
0.000822076
0.000831119
0.000840036
0.000848824
0.000857482
0.000866009
0.000874408
0.00088268
0.000890825
0.000898847
0.000906745
0.000914521
0.000922176
0.000929711
0.000937126
0.000944421
0.000951598
0.000958657
0.000965598
0.00097242
0.000979125
0.000985713
0.000992182
0.000998534
0.00100477
0.00101088
0.00101688
0.00102276
0.00102853
0.00103417
0.0010397
0.00104511
0.00105039
0.00105556
0.00106062
0.00106555
0.00107036
0.00107505
0.00107962
0.00108407
0.0010884
0.00109261
0.0010967
0.00110066
0.00110451
0.00110823
0.00111182
0.0011153
0.00111865
0.00112188
0.00112499
0.00112797
0.00113083
0.00113356
0.00113618
0.00113866
0.00114103
0.00114327
0.00114539
0.00114738
0.00114926
0.00115101
0.00115264
0.00115416
0.00115555
0.00115682
0.00115796
0.00115898
0.00115986
0.00116061
0.00116123
0.0011617
0.00116204
0.00116223
0.000867279
0.000889132
0.000910534
0.000931513
0.000952079
0.00097224
0.000992004
0.00101138
0.00103039
0.00104903
0.00106735
0.00108534
0.00110303
0.00112043
0.00113754
0.00115438
0.00117095
0.00118726
0.00120332
0.00121913
0.00123471
0.00125006
0.00126519
0.0012801
0.0012948
0.00130929
0.00132358
0.00133766
0.00135155
0.00136524
0.00137872
0.00139202
0.00140511
0.00141802
0.00143073
0.00144325
0.00145558
0.00146772
0.00147967
0.00149144
0.00150302
0.00151442
0.00152563
0.00153666
0.0015475
0.00155816
0.00156864
0.00157893
0.00158903
0.00159896
0.00160869
0.00161825
0.00162761
0.0016368
0.00164579
0.00165461
0.00166323
0.00167167
0.00167993
0.001688
0.00169588
0.00170358
0.00171109
0.00171841
0.00172555
0.00173249
0.00173924
0.00174581
0.00175218
0.00175836
0.00176435
0.00177015
0.00177576
0.00178118
0.0017864
0.00179143
0.00179626
0.00180091
0.00180536
0.00180961
0.00181367
0.00181754
0.00182121
0.00182469
0.00182797
0.00183106
0.00183395
0.00183665
0.00183915
0.00184145
0.00184356
0.00184547
0.00184718
0.00184869
0.00185
0.00185111
0.00185201
0.00185271
0.00185321
0.0018535
0.00126812
0.00129696
0.00132528
0.00135312
0.0013805
0.00140743
0.00143393
0.00146001
0.00148568
0.00151095
0.00153584
0.00156035
0.0015845
0.0016083
0.00163176
0.00165487
0.00167765
0.00170009
0.00172221
0.00174401
0.00176549
0.00178668
0.00180756
0.00182816
0.00184846
0.00186849
0.00188823
0.0019077
0.0019269
0.00194582
0.00196448
0.00198288
0.002001
0.00201887
0.00203647
0.00205381
0.0020709
0.00208772
0.00210429
0.0021206
0.00213665
0.00215245
0.00216799
0.00218328
0.00219831
0.00221308
0.0022276
0.00224186
0.00225587
0.00226963
0.00228312
0.00229636
0.00230935
0.00232207
0.00233454
0.00234675
0.0023587
0.00237039
0.00238183
0.002393
0.00240391
0.00241457
0.00242496
0.00243509
0.00244495
0.00245455
0.00246389
0.00247297
0.00248178
0.00249032
0.0024986
0.00250661
0.00251435
0.00252183
0.00252904
0.00253598
0.00254265
0.00254906
0.00255519
0.00256106
0.00256665
0.00257198
0.00257703
0.00258181
0.00258632
0.00259056
0.00259453
0.00259822
0.00260164
0.00260479
0.00260767
0.00261026
0.00261259
0.00261464
0.00261641
0.0026179
0.00261912
0.00262006
0.00262072
0.0026211
0.00171764
0.00175371
0.00178926
0.00182429
0.00185881
0.00189284
0.00192638
0.00195945
0.00199205
0.00202419
0.00205588
0.00208713
0.00211794
0.00214834
0.00217831
0.00220788
0.00223704
0.0022658
0.00229418
0.00232217
0.00234978
0.00237702
0.00240389
0.0024304
0.00245655
0.00248235
0.00250779
0.00253289
0.00255764
0.00258205
0.00260612
0.00262986
0.00265325
0.00267631
0.00269904
0.00272143
0.00274349
0.00276522
0.00278661
0.00280768
0.00282842
0.00284882
0.0028689
0.00288865
0.00290806
0.00292715
0.00294591
0.00296434
0.00298243
0.0030002
0.00301763
0.00303473
0.0030515
0.00306794
0.00308404
0.00309981
0.00311524
0.00313034
0.0031451
0.00315953
0.00317362
0.00318737
0.00320078
0.00321385
0.00322658
0.00323897
0.00325102
0.00326273
0.00327409
0.00328511
0.00329578
0.00330612
0.0033161
0.00332574
0.00333503
0.00334398
0.00335258
0.00336082
0.00336872
0.00337628
0.00338348
0.00339033
0.00339683
0.00340298
0.00340878
0.00341422
0.00341932
0.00342406
0.00342845
0.00343248
0.00343616
0.00343948
0.00344245
0.00344507
0.00344732
0.00344923
0.00345077
0.00345196
0.00345279
0.00345326
0.00221377
0.00225714
0.00229991
0.00234213
0.0023838
0.00242495
0.00246556
0.00250566
0.00254525
0.00258433
0.00262292
0.00266101
0.00269861
0.00273573
0.00277238
0.00280856
0.00284427
0.00287952
0.00291433
0.00294868
0.00298259
0.00301606
0.00304909
0.00308169
0.00311387
0.00314561
0.00317694
0.00320785
0.00323834
0.00326842
0.00329808
0.00332733
0.00335617
0.0033846
0.00341262
0.00344023
0.00346744
0.00349424
0.00352063
0.00354662
0.0035722
0.00359738
0.00362214
0.00364651
0.00367046
0.00369401
0.00371716
0.00373989
0.00376222
0.00378413
0.00380564
0.00382674
0.00384743
0.0038677
0.00388757
0.00390702
0.00392606
0.00394468
0.00396288
0.00398067
0.00399805
0.004015
0.00403154
0.00404766
0.00406335
0.00407863
0.00409348
0.00410791
0.00412191
0.0041355
0.00414865
0.00416138
0.00417368
0.00418556
0.00419701
0.00420802
0.00421861
0.00422877
0.0042385
0.00424779
0.00425665
0.00426509
0.00427308
0.00428065
0.00428778
0.00429447
0.00430073
0.00430656
0.00431194
0.00431689
0.00432141
0.00432549
0.00432913
0.00433233
0.00433509
0.00433741
0.0043393
0.00434074
0.00434175
0.00434232
0.00275345
0.00280416
0.00285424
0.00290372
0.00295263
0.00300098
0.00304876
0.00309599
0.00314266
0.00318878
0.00323435
0.00327938
0.00332388
0.00336784
0.00341127
0.00345417
0.00349655
0.00353841
0.00357976
0.00362059
0.00366092
0.00370074
0.00374006
0.00377888
0.0038172
0.00385502
0.00389236
0.0039292
0.00396555
0.00400142
0.00403679
0.00407169
0.00410609
0.00414002
0.00417346
0.00420641
0.00423889
0.00427088
0.00430239
0.00433341
0.00436395
0.00439401
0.00442359
0.00445268
0.00448128
0.0045094
0.00453704
0.00456419
0.00459085
0.00461702
0.0046427
0.00466789
0.00469259
0.0047168
0.00474052
0.00476375
0.00478647
0.00480871
0.00483044
0.00485168
0.00487242
0.00489266
0.0049124
0.00493164
0.00495037
0.0049686
0.00498633
0.00500355
0.00502026
0.00503646
0.00505216
0.00506735
0.00508203
0.00509619
0.00510985
0.00512299
0.00513561
0.00514773
0.00515933
0.00517041
0.00518097
0.00519102
0.00520056
0.00520957
0.00521806
0.00522604
0.00523349
0.00524043
0.00524684
0.00525274
0.00525811
0.00526296
0.00526728
0.00527109
0.00527437
0.00527713
0.00527936
0.00528107
0.00528226
0.00528293
0.00333485
0.00339299
0.00345046
0.00350731
0.00356353
0.00361916
0.00367418
0.00372861
0.00378244
0.00383568
0.00388832
0.00394037
0.00399184
0.00404271
0.00409301
0.00414271
0.00419184
0.00424039
0.00428837
0.00433577
0.00438259
0.00442885
0.00447454
0.00451966
0.00456422
0.00460821
0.00465163
0.0046945
0.0047368
0.00477855
0.00481973
0.00486036
0.00490042
0.00493993
0.00497887
0.00501726
0.00505509
0.00509235
0.00512906
0.00516521
0.0052008
0.00523582
0.00527028
0.00530418
0.00533751
0.00537028
0.00540249
0.00543412
0.00546519
0.00549569
0.00552562
0.00555498
0.00558377
0.00561198
0.00563962
0.00566668
0.00569316
0.00571907
0.0057444
0.00576914
0.00579331
0.00581689
0.00583989
0.0058623
0.00588412
0.00590536
0.00592601
0.00594607
0.00596553
0.00598441
0.00600269
0.00602038
0.00603747
0.00605397
0.00606987
0.00608517
0.00609987
0.00611397
0.00612747
0.00614037
0.00615267
0.00616437
0.00617546
0.00618595
0.00619583
0.00620511
0.00621379
0.00622185
0.00622931
0.00623616
0.00624241
0.00624804
0.00625307
0.00625749
0.0062613
0.0062645
0.00626709
0.00626908
0.00627045
0.00627122
0.00395684
0.0040225
0.00408744
0.00415171
0.00421532
0.0042783
0.00434062
0.00440231
0.00446336
0.00452377
0.00458354
0.00464267
0.00470116
0.00475901
0.00481622
0.00487279
0.00492872
0.00498402
0.00503867
0.0050927
0.00514608
0.00519883
0.00525095
0.00530243
0.00535328
0.0054035
0.00545308
0.00550203
0.00555034
0.00559802
0.00564507
0.00569149
0.00573727
0.00578242
0.00582693
0.00587081
0.00591405
0.00595665
0.00599862
0.00603995
0.00608063
0.00612068
0.00616009
0.00619885
0.00623697
0.00627444
0.00631126
0.00634744
0.00638297
0.00641785
0.00645207
0.00648565
0.00651857
0.00655083
0.00658243
0.00661338
0.00664366
0.00667329
0.00670225
0.00673054
0.00675817
0.00678513
0.00681143
0.00683705
0.006862
0.00688628
0.00690989
0.00693282
0.00695507
0.00697665
0.00699755
0.00701776
0.0070373
0.00705615
0.00707432
0.00709181
0.00710861
0.00712473
0.00714016
0.0071549
0.00716895
0.00718231
0.00719498
0.00720697
0.00721826
0.00722885
0.00723876
0.00724797
0.00725649
0.00726431
0.00727144
0.00727787
0.00728361
0.00728865
0.007293
0.00729665
0.00729961
0.00730187
0.00730343
0.0073043
0.00461858
0.00469181
0.00476429
0.00483605
0.00490711
0.00497748
0.00504716
0.00511616
0.00518448
0.0052521
0.00531904
0.00538529
0.00545084
0.0055157
0.00557987
0.00564334
0.00570612
0.0057682
0.00582958
0.00589026
0.00595024
0.00600953
0.00606811
0.00612599
0.00618317
0.00623965
0.00629542
0.00635049
0.00640486
0.00645852
0.00651147
0.00656372
0.00661526
0.00666608
0.0067162
0.00676561
0.0068143
0.00686228
0.00690954
0.00695608
0.00700191
0.00704702
0.0070914
0.00713506
0.007178
0.00722021
0.00726169
0.00730244
0.00734247
0.00738175
0.00742031
0.00745813
0.00749521
0.00753155
0.00756715
0.00760201
0.00763612
0.00766949
0.00770211
0.00773398
0.0077651
0.00779547
0.00782509
0.00785395
0.00788205
0.00790939
0.00793598
0.0079618
0.00798686
0.00801116
0.00803469
0.00805746
0.00807946
0.00810068
0.00812114
0.00814083
0.00815975
0.00817789
0.00819526
0.00821186
0.00822768
0.00824272
0.00825698
0.00827047
0.00828317
0.0082951
0.00830625
0.00831661
0.0083262
0.008335
0.00834302
0.00835026
0.00835671
0.00836239
0.00836727
0.00837138
0.0083747
0.00837724
0.00837899
0.00837996
0.00531942
0.0054003
0.00548037
0.00555967
0.00563822
0.00571604
0.00579313
0.00586948
0.00594509
0.00601997
0.00609411
0.0061675
0.00624015
0.00631206
0.00638321
0.00645361
0.00652325
0.00659214
0.00666027
0.00672763
0.00679424
0.00686007
0.00692515
0.00698945
0.00705298
0.00711575
0.00717774
0.00723895
0.00729939
0.00735905
0.00741793
0.00747603
0.00753334
0.00758987
0.00764562
0.00770057
0.00775474
0.00780811
0.00786069
0.00791247
0.00796346
0.00801364
0.00806302
0.0081116
0.00815938
0.00820635
0.0082525
0.00829785
0.00834238
0.0083861
0.008429
0.00847108
0.00851234
0.00855278
0.00859239
0.00863118
0.00866914
0.00870627
0.00874256
0.00877802
0.00881265
0.00884643
0.00887938
0.00891149
0.00894276
0.00897318
0.00900275
0.00903148
0.00905936
0.00908639
0.00911256
0.00913789
0.00916236
0.00918597
0.00920873
0.00923063
0.00925167
0.00927185
0.00929116
0.00930962
0.00932721
0.00934394
0.0093598
0.00937479
0.00938892
0.00940219
0.00941458
0.00942611
0.00943676
0.00944655
0.00945546
0.00946351
0.00947068
0.00947699
0.00948242
0.00948698
0.00949067
0.00949349
0.00949544
0.00949651
0.00605891
0.00614748
0.00623518
0.00632207
0.00640817
0.00649347
0.00657799
0.00666173
0.00674467
0.00682683
0.0069082
0.00698877
0.00706854
0.0071475
0.00722565
0.007303
0.00737953
0.00745524
0.00753013
0.00760419
0.00767743
0.00774983
0.00782141
0.00789214
0.00796204
0.0080311
0.00809931
0.00816668
0.0082332
0.00829887
0.00836369
0.00842764
0.00849075
0.00855299
0.00861437
0.00867488
0.00873452
0.0087933
0.0088512
0.00890823
0.00896438
0.00901965
0.00907404
0.00912755
0.00918016
0.00923189
0.00928273
0.00933268
0.00938173
0.00942988
0.00947713
0.00952348
0.00956893
0.00961347
0.0096571
0.00969982
0.00974162
0.00978251
0.00982249
0.00986154
0.00989967
0.00993689
0.00997317
0.0100085
0.010043
0.0100765
0.010109
0.0101407
0.0101714
0.0102011
0.0102299
0.0102578
0.0102848
0.0103108
0.0103358
0.0103599
0.0103831
0.0104053
0.0104266
0.0104469
0.0104663
0.0104847
0.0105021
0.0105187
0.0105342
0.0105488
0.0105624
0.0105751
0.0105869
0.0105976
0.0106074
0.0106163
0.0106242
0.0106311
0.0106371
0.0106421
0.0106462
0.0106493
0.0106514
0.0106526
0.00683667
0.00693298
0.00702838
0.0071229
0.00721656
0.00730939
0.00740138
0.00749252
0.00758283
0.00767229
0.00776091
0.00784867
0.00793557
0.00802161
0.00810678
0.00819108
0.0082745
0.00835704
0.0084387
0.00851946
0.00859934
0.00867831
0.00875639
0.00883356
0.00890983
0.00898518
0.00905962
0.00913314
0.00920574
0.00927742
0.00934817
0.00941799
0.00948687
0.00955482
0.00962183
0.0096879
0.00975302
0.0098172
0.00988042
0.00994269
0.010004
0.0100644
0.0101237
0.0101822
0.0102396
0.0102961
0.0103516
0.0104062
0.0104597
0.0105123
0.0105639
0.0106145
0.0106642
0.0107128
0.0107604
0.0108071
0.0108527
0.0108974
0.010941
0.0109837
0.0110253
0.0110659
0.0111056
0.0111442
0.0111818
0.0112183
0.0112539
0.0112884
0.0113219
0.0113544
0.0113859
0.0114163
0.0114457
0.0114741
0.0115015
0.0115278
0.0115531
0.0115773
0.0116005
0.0116227
0.0116439
0.011664
0.011683
0.011701
0.011718
0.0117339
0.0117488
0.0117627
0.0117755
0.0117872
0.0117979
0.0118076
0.0118162
0.0118238
0.0118303
0.0118358
0.0118402
0.0118436
0.0118459
0.0118472
0.00765244
0.00775654
0.00785967
0.00796186
0.00806313
0.00816351
0.00826299
0.00836158
0.00845926
0.00855605
0.00865192
0.00874689
0.00884093
0.00893406
0.00902625
0.00911751
0.00920783
0.0092972
0.00938563
0.00947309
0.0095596
0.00964515
0.00972972
0.00981333
0.00989595
0.00997759
0.0100583
0.0101379
0.0102166
0.0102943
0.0103709
0.0104466
0.0105213
0.0105949
0.0106675
0.0107392
0.0108097
0.0108793
0.0109478
0.0110153
0.0110818
0.0111472
0.0112116
0.0112749
0.0113372
0.0113985
0.0114586
0.0115178
0.0115758
0.0116328
0.0116888
0.0117436
0.0117974
0.0118501
0.0119018
0.0119523
0.0120018
0.0120502
0.0120975
0.0121437
0.0121889
0.0122329
0.0122758
0.0123177
0.0123584
0.0123981
0.0124366
0.012474
0.0125103
0.0125455
0.0125796
0.0126126
0.0126445
0.0126753
0.0127049
0.0127334
0.0127608
0.0127871
0.0128122
0.0128362
0.0128592
0.0128809
0.0129016
0.0129211
0.0129395
0.0129567
0.0129729
0.0129879
0.0130017
0.0130145
0.0130261
0.0130365
0.0130458
0.013054
0.0130611
0.013067
0.0130718
0.0130755
0.013078
0.0130794
0.00850604
0.00861797
0.00872886
0.00883875
0.00894767
0.00905562
0.00916262
0.00926867
0.00937375
0.00947787
0.00958102
0.0096832
0.00978439
0.00988461
0.00998382
0.010082
0.0101793
0.0102755
0.0103707
0.0104648
0.010558
0.0106501
0.0107411
0.0108311
0.0109201
0.011008
0.0110949
0.0111807
0.0112654
0.0113491
0.0114317
0.0115132
0.0115936
0.0116729
0.0117511
0.0118283
0.0119043
0.0119792
0.0120531
0.0121258
0.0121974
0.0122678
0.0123372
0.0124054
0.0124725
0.0125385
0.0126033
0.012667
0.0127295
0.0127909
0.0128512
0.0129102
0.0129682
0.013025
0.0130806
0.013135
0.0131883
0.0132405
0.0132914
0.0133412
0.0133898
0.0134372
0.0134834
0.0135285
0.0135724
0.0136151
0.0136566
0.0136969
0.013736
0.0137739
0.0138106
0.0138461
0.0138804
0.0139135
0.0139454
0.0139761
0.0140056
0.0140339
0.014061
0.0140869
0.0141115
0.014135
0.0141572
0.0141782
0.014198
0.0142166
0.0142339
0.0142501
0.014265
0.0142787
0.0142912
0.0143024
0.0143125
0.0143213
0.0143289
0.0143353
0.0143404
0.0143444
0.0143471
0.0143486
0.00939732
0.00951711
0.0096358
0.00975343
0.00987001
0.00998557
0.0101001
0.0102136
0.0103261
0.0104376
0.010548
0.0106574
0.0107658
0.0108731
0.0109793
0.0110845
0.0111886
0.0112916
0.0113936
0.0114944
0.0115942
0.0116928
0.0117904
0.0118868
0.0119821
0.0120763
0.0121693
0.0122612
0.012352
0.0124416
0.0125301
0.0126174
0.0127035
0.0127885
0.0128723
0.012955
0.0130364
0.0131167
0.0131958
0.0132737
0.0133504
0.0134259
0.0135002
0.0135732
0.0136451
0.0137158
0.0137852
0.0138534
0.0139204
0.0139862
0.0140507
0.014114
0.0141761
0.0142369
0.0142965
0.0143548
0.0144119
0.0144677
0.0145223
0.0145756
0.0146276
0.0146784
0.0147279
0.0147762
0.0148232
0.0148689
0.0149133
0.0149565
0.0149983
0.0150389
0.0150782
0.0151163
0.015153
0.0151885
0.0152226
0.0152555
0.0152871
0.0153173
0.0153463
0.015374
0.0154004
0.0154255
0.0154493
0.0154718
0.015493
0.0155129
0.0155314
0.0155487
0.0155647
0.0155793
0.0155927
0.0156048
0.0156155
0.0156249
0.0156331
0.0156399
0.0156454
0.0156496
0.0156525
0.0156541
0.0103262
0.0104539
0.0105804
0.0107058
0.0108301
0.0109532
0.0110753
0.0111963
0.0113163
0.0114351
0.0115528
0.0116694
0.0117849
0.0118993
0.0120126
0.0121247
0.0122357
0.0123455
0.0124542
0.0125617
0.0126681
0.0127733
0.0128773
0.0129801
0.0130817
0.0131821
0.0132813
0.0133793
0.0134761
0.0135716
0.013666
0.0137591
0.0138509
0.0139415
0.0140309
0.014119
0.0142058
0.0142914
0.0143757
0.0144588
0.0145405
0.014621
0.0147002
0.0147782
0.0148548
0.0149301
0.0150041
0.0150769
0.0151483
0.0152184
0.0152872
0.0153546
0.0154208
0.0154856
0.0155491
0.0156113
0.0156721
0.0157316
0.0157897
0.0158466
0.015902
0.0159562
0.0160089
0.0160603
0.0161104
0.0161591
0.0162064
0.0162524
0.016297
0.0163403
0.0163822
0.0164227
0.0164618
0.0164996
0.016536
0.016571
0.0166047
0.0166369
0.0166678
0.0166973
0.0167254
0.0167521
0.0167775
0.0168014
0.016824
0.0168452
0.0168649
0.0168833
0.0169003
0.016916
0.0169302
0.016943
0.0169545
0.0169645
0.0169732
0.0169804
0.0169863
0.0169908
0.0169938
0.0169955
0.0112926
0.0114282
0.0115626
0.0116957
0.0118277
0.0119586
0.0120882
0.0122167
0.0123441
0.0124703
0.0125953
0.0127191
0.0128418
0.0129632
0.0130835
0.0132026
0.0133204
0.0134371
0.0135525
0.0136667
0.0137796
0.0138913
0.0140017
0.0141109
0.0142188
0.0143254
0.0144307
0.0145348
0.0146375
0.014739
0.0148392
0.014938
0.0150355
0.0151317
0.0152266
0.0153201
0.0154123
0.0155032
0.0155927
0.0156809
0.0157677
0.0158531
0.0159372
0.0160199
0.0161012
0.0161812
0.0162598
0.016337
0.0164128
0.0164872
0.0165602
0.0166318
0.016702
0.0167708
0.0168382
0.0169041
0.0169687
0.0170318
0.0170935
0.0171538
0.0172127
0.0172701
0.0173261
0.0173806
0.0174337
0.0174854
0.0175356
0.0175844
0.0176317
0.0176776
0.0177221
0.017765
0.0178065
0.0178466
0.0178852
0.0179223
0.017958
0.0179922
0.018025
0.0180563
0.0180861
0.0181144
0.0181413
0.0181667
0.0181906
0.0182131
0.018234
0.0182535
0.0182716
0.0182881
0.0183032
0.0183168
0.0183289
0.0183396
0.0183487
0.0183564
0.0183627
0.0183674
0.0183707
0.0183724
0.0122965
0.01244
0.0125823
0.0127233
0.012863
0.0130015
0.0131387
0.0132747
0.0134095
0.013543
0.0136753
0.0138064
0.0139362
0.0140647
0.014192
0.014318
0.0144427
0.0145661
0.0146882
0.0148091
0.0149285
0.0150467
0.0151635
0.015279
0.0153932
0.015506
0.0156174
0.0157275
0.0158362
0.0159435
0.0160495
0.016154
0.0162572
0.016359
0.0164593
0.0165582
0.0166558
0.0167519
0.0168465
0.0169398
0.0170316
0.0171219
0.0172108
0.0172983
0.0173843
0.0174688
0.0175519
0.0176335
0.0177137
0.0177923
0.0178695
0.0179452
0.0180194
0.0180922
0.0181634
0.0182331
0.0183014
0.0183681
0.0184333
0.018497
0.0185592
0.0186199
0.0186791
0.0187368
0.0187929
0.0188475
0.0189006
0.0189521
0.0190021
0.0190506
0.0190975
0.0191429
0.0191868
0.0192291
0.0192699
0.0193091
0.0193468
0.019383
0.0194175
0.0194506
0.0194821
0.019512
0.0195404
0.0195672
0.0195925
0.0196162
0.0196383
0.0196589
0.019678
0.0196955
0.0197114
0.0197257
0.0197385
0.0197498
0.0197594
0.0197676
0.0197741
0.0197791
0.0197826
0.0197844
0.0133378
0.0134894
0.0136395
0.0137883
0.0139357
0.0140819
0.0142267
0.0143702
0.0145124
0.0146533
0.0147929
0.0149312
0.0150681
0.0152037
0.015338
0.0154709
0.0156024
0.0157326
0.0158614
0.0159888
0.0161148
0.0162395
0.0163627
0.0164845
0.0166048
0.0167238
0.0168413
0.0169574
0.017072
0.0171851
0.0172968
0.0174071
0.0175158
0.0176231
0.0177289
0.0178331
0.0179359
0.0180372
0.018137
0.0182353
0.018332
0.0184273
0.0185209
0.0186131
0.0187037
0.0187928
0.0188804
0.0189664
0.0190508
0.0191337
0.019215
0.0192947
0.0193729
0.0194495
0.0195246
0.019598
0.0196699
0.0197402
0.0198089
0.019876
0.0199415
0.0200054
0.0200677
0.0201284
0.0201875
0.020245
0.0203009
0.0203552
0.0204078
0.0204589
0.0205083
0.0205561
0.0206023
0.0206468
0.0206898
0.0207311
0.0207707
0.0208088
0.0208452
0.0208799
0.0209131
0.0209446
0.0209744
0.0210027
0.0210293
0.0210542
0.0210775
0.0210992
0.0211192
0.0211376
0.0211544
0.0211695
0.0211829
0.0211947
0.0212049
0.0212134
0.0212203
0.0212256
0.0212292
0.0212311
0.0144166
0.0145761
0.0147342
0.0148908
0.015046
0.0151998
0.0153522
0.0155032
0.0156529
0.0158011
0.015948
0.0160935
0.0162375
0.0163802
0.0165214
0.0166612
0.0167995
0.0169364
0.0170719
0.0172059
0.0173384
0.0174694
0.017599
0.017727
0.0178536
0.0179786
0.0181022
0.0182242
0.0183447
0.0184636
0.018581
0.0186969
0.0188112
0.0189239
0.0190351
0.0191447
0.0192527
0.0193591
0.019464
0.0195672
0.0196689
0.0197689
0.0198673
0.0199642
0.0200594
0.0201529
0.0202449
0.0203352
0.0204239
0.0205109
0.0205963
0.0206801
0.0207622
0.0208426
0.0209214
0.0209985
0.021074
0.0211478
0.0212199
0.0212904
0.0213591
0.0214262
0.0214916
0.0215554
0.0216174
0.0216778
0.0217364
0.0217934
0.0218486
0.0219022
0.0219541
0.0220042
0.0220527
0.0220994
0.0221445
0.0221878
0.0222294
0.0222693
0.0223075
0.022344
0.0223788
0.0224118
0.0224431
0.0224727
0.0225006
0.0225268
0.0225512
0.022574
0.022595
0.0226142
0.0226318
0.0226476
0.0226617
0.0226741
0.0226848
0.0226937
0.0227009
0.0227064
0.0227102
0.0227122
0.0155327
0.0157003
0.0158663
0.0160307
0.0161937
0.0163552
0.0165152
0.0166737
0.0168307
0.0169863
0.0171405
0.0172931
0.0174443
0.0175939
0.0177421
0.0178887
0.0180339
0.0181775
0.0183195
0.0184601
0.0185991
0.0187365
0.0188723
0.0190066
0.0191393
0.0192704
0.0193999
0.0195278
0.0196541
0.0197788
0.0199019
0.0200233
0.0201431
0.0202613
0.0203778
0.0204926
0.0206058
0.0207173
0.0208272
0.0209354
0.0210418
0.0211467
0.0212498
0.0213512
0.0214509
0.0215489
0.0216452
0.0217398
0.0218327
0.0219239
0.0220133
0.022101
0.022187
0.0222712
0.0223537
0.0224344
0.0225134
0.0225907
0.0226662
0.0227399
0.0228119
0.0228821
0.0229506
0.0230173
0.0230822
0.0231454
0.0232067
0.0232663
0.0233242
0.0233802
0.0234345
0.0234869
0.0235376
0.0235866
0.0236337
0.023679
0.0237225
0.0237643
0.0238042
0.0238424
0.0238787
0.0239133
0.0239461
0.023977
0.0240062
0.0240335
0.0240591
0.0240828
0.0241048
0.024125
0.0241433
0.0241598
0.0241746
0.0241875
0.0241986
0.024208
0.0242155
0.0242212
0.0242251
0.0242272
0.0166863
0.0168619
0.0170358
0.0172081
0.0173788
0.0175479
0.0177155
0.0178815
0.018046
0.0182089
0.0183702
0.01853
0.0186883
0.0188449
0.019
0.0191535
0.0193053
0.0194556
0.0196043
0.0197513
0.0198967
0.0200405
0.0201826
0.020323
0.0204618
0.020599
0.0207344
0.0208682
0.0210002
0.0211306
0.0212593
0.0213862
0.0215115
0.021635
0.0217567
0.0218768
0.0219951
0.0221116
0.0222264
0.0223395
0.0224508
0.0225603
0.022668
0.022774
0.0228782
0.0229806
0.0230812
0.02318
0.023277
0.0233722
0.0234656
0.0235572
0.023647
0.0237349
0.023821
0.0239054
0.0239878
0.0240685
0.0241473
0.0242243
0.0242994
0.0243727
0.0244442
0.0245138
0.0245816
0.0246475
0.0247116
0.0247738
0.0248341
0.0248926
0.0249492
0.025004
0.0250568
0.0251079
0.025157
0.0252043
0.0252497
0.0252933
0.0253349
0.0253747
0.0254127
0.0254487
0.0254829
0.0255152
0.0255456
0.0255741
0.0256007
0.0256255
0.0256484
0.0256694
0.0256885
0.0257057
0.0257211
0.0257346
0.0257461
0.0257559
0.0257637
0.0257696
0.0257737
0.0257759
0.0178772
0.0180608
0.0182426
0.0184227
0.0186012
0.0187779
0.0189531
0.0191266
0.0192984
0.0194686
0.0196372
0.0198041
0.0199694
0.020133
0.020295
0.0204552
0.0206138
0.0207707
0.0209259
0.0210794
0.0212312
0.0213812
0.0215296
0.0216762
0.021821
0.0219641
0.0221054
0.022245
0.0223827
0.0225187
0.0226529
0.0227854
0.022916
0.0230448
0.0231718
0.023297
0.0234203
0.0235418
0.0236615
0.0237794
0.0238954
0.0240095
0.0241218
0.0242323
0.0243408
0.0244475
0.0245524
0.0246553
0.0247564
0.0248556
0.0249529
0.0250483
0.0251419
0.0252335
0.0253232
0.025411
0.0254969
0.0255809
0.025663
0.0257432
0.0258214
0.0258978
0.0259722
0.0260446
0.0261152
0.0261838
0.0262505
0.0263152
0.026378
0.0264389
0.0264979
0.0265548
0.0266099
0.026663
0.0267141
0.0267633
0.0268106
0.0268559
0.0268993
0.0269407
0.0269801
0.0270176
0.0270531
0.0270867
0.0271183
0.027148
0.0271757
0.0272015
0.0272252
0.0272471
0.027267
0.0272849
0.0273008
0.0273148
0.0273268
0.0273369
0.027345
0.0273512
0.0273554
0.0273576
0.0191054
0.019297
0.0194867
0.0196747
0.0198608
0.0200452
0.0202279
0.0204088
0.020588
0.0207655
0.0209413
0.0211153
0.0212876
0.0214581
0.0216269
0.0217939
0.0219591
0.0221226
0.0222843
0.0224442
0.0226023
0.0227586
0.0229131
0.0230657
0.0232166
0.0233655
0.0235127
0.023658
0.0238014
0.023943
0.0240826
0.0242205
0.0243564
0.0244904
0.0246226
0.0247528
0.0248812
0.0250076
0.0251321
0.0252547
0.0253753
0.0254941
0.0256108
0.0257257
0.0258386
0.0259495
0.0260585
0.0261656
0.0262707
0.0263738
0.0264749
0.0265741
0.0266713
0.0267665
0.0268598
0.026951
0.0270403
0.0271276
0.0272129
0.0272962
0.0273775
0.0274568
0.027534
0.0276093
0.0276826
0.0277539
0.0278231
0.0278904
0.0279556
0.0280188
0.02808
0.0281392
0.0281963
0.0282515
0.0283046
0.0283556
0.0284047
0.0284517
0.0284967
0.0285397
0.0285806
0.0286195
0.0286564
0.0286912
0.0287241
0.0287548
0.0287836
0.0288103
0.0288349
0.0288576
0.0288782
0.0288968
0.0289133
0.0289278
0.0289402
0.0289507
0.0289591
0.0289654
0.0289697
0.028972
0.0203708
0.0205704
0.020768
0.0209637
0.0211576
0.0213496
0.0215397
0.0217281
0.0219146
0.0220993
0.0222822
0.0224633
0.0226425
0.0228199
0.0229955
0.0231692
0.0233411
0.0235111
0.0236792
0.0238455
0.0240098
0.0241723
0.0243329
0.0244915
0.0246483
0.0248031
0.024956
0.0251069
0.0252559
0.025403
0.0255481
0.0256912
0.0258324
0.0259716
0.0261088
0.0262441
0.0263773
0.0265086
0.0266378
0.0267651
0.0268903
0.0270135
0.0271347
0.0272539
0.0273711
0.0274862
0.0275993
0.0277103
0.0278193
0.0279263
0.0280312
0.0281341
0.0282349
0.0283337
0.0284303
0.028525
0.0286175
0.028708
0.0287965
0.0288828
0.0289671
0.0290493
0.0291294
0.0292074
0.0292833
0.0293572
0.029429
0.0294987
0.0295662
0.0296317
0.0296951
0.0297564
0.0298157
0.0298728
0.0299278
0.0299807
0.0300315
0.0300802
0.0301268
0.0301713
0.0302137
0.030254
0.0302921
0.0303282
0.0303622
0.030394
0.0304238
0.0304514
0.0304769
0.0305004
0.0305217
0.0305409
0.030558
0.0305729
0.0305858
0.0305966
0.0306052
0.0306118
0.0306162
0.0306186
0.0216733
0.0218808
0.0220863
0.0222898
0.0224913
0.0226908
0.0228885
0.0230842
0.023278
0.0234699
0.0236599
0.023848
0.0240341
0.0242184
0.0244007
0.024581
0.0247594
0.0249359
0.0251104
0.0252829
0.0254535
0.0256221
0.0257886
0.0259532
0.0261158
0.0262764
0.026435
0.0265915
0.026746
0.0268985
0.0270489
0.0271973
0.0273437
0.0274879
0.0276301
0.0277703
0.0279084
0.0280444
0.0281783
0.0283101
0.0284398
0.0285675
0.028693
0.0288165
0.0289378
0.029057
0.0291741
0.0292891
0.029402
0.0295127
0.0296213
0.0297278
0.0298321
0.0299343
0.0300344
0.0301323
0.0302281
0.0303217
0.0304132
0.0305026
0.0305897
0.0306748
0.0307576
0.0308383
0.0309169
0.0309933
0.0310675
0.0311396
0.0312095
0.0312772
0.0313427
0.0314061
0.0314673
0.0315264
0.0315832
0.0316379
0.0316904
0.0317407
0.0317889
0.0318349
0.0318787
0.0319203
0.0319598
0.031997
0.0320321
0.032065
0.0320957
0.0321243
0.0321506
0.0321748
0.0321968
0.0322166
0.0322342
0.0322497
0.032263
0.032274
0.032283
0.0322897
0.0322942