/*--------------------------------*- C++ -*----------------------------------*\
  =========                 |
  \\      /  F ield         | OpenFOAM: The Open Source CFD Toolbox
   \\    /   O peration     | Website:  https://openfoam.org
    \\  /    A nd           | Version:  8
     \\/     M anipulation  |
\*---------------------------------------------------------------------------*/
FoamFile
{
    version     2.0;
    format      ascii;
    class       volVectorField;
    location    "0.75";
    object      U;
}
// * * * * * * * * * * * * * * * * * * * * * * * * * * * * * * * * * * * * * //

dimensions      [0 1 -1 0 0 0 0];

internalField   nonuniform List<vector> 
115200
(
(5.23787 -0.57418 1.71109e-18)
(5.47724 -0.676372 -3.4004e-19)
(5.70581 -0.785014 -7.19104e-19)
(5.92084 -0.898571 -2.33088e-18)
(6.12235 -1.01664 -2.48232e-18)
(6.31017 -1.13868 2.56214e-18)
(6.48432 -1.26417 1.95939e-18)
(6.64491 -1.3926 6.73308e-19)
(6.79212 -1.52347 1.29119e-19)
(6.92618 -1.65628 -4.28957e-19)
(7.0473 -1.79053 1.42323e-19)
(7.15573 -1.92574 2.81237e-19)
(7.25172 -2.06149 4.21931e-19)
(7.33556 -2.19735 1.36854e-19)
(7.40755 -2.33293 -1.00758e-19)
(7.46802 -2.46786 -2.59253e-19)
(7.51729 -2.60176 2.36957e-19)
(7.55568 -2.7343 -5.01581e-20)
(7.58351 -2.86515 -1.92198e-19)
(7.60109 -2.99401 -2.70276e-19)
(7.60873 -3.12063 -5.3101e-20)
(7.60674 -3.24478 -3.71142e-19)
(7.59543 -3.36625 -9.73439e-20)
(7.5751 -3.48491 1.01712e-18)
(7.54605 -3.60063 6.55594e-19)
(7.50867 -3.71342 -1.42338e-19)
(7.46338 -3.82336 -9.3754e-19)
(7.41027 -3.93048 -6.39927e-19)
(7.34925 -4.03466 2.93315e-20)
(7.28249 -4.13689 -8.85066e-21)
(7.21009 -4.23649 3.42814e-19)
(7.13278 -4.33329 -7.53969e-19)
(7.05092 -4.42711 2.22943e-19)
(6.96486 -4.51781 1.05088e-18)
(6.87487 -4.60526 9.23515e-19)
(6.78118 -4.68936 3.56805e-19)
(6.684 -4.77001 -6.78941e-19)
(6.5835 -4.8471 -1.34722e-20)
(6.47987 -4.92055 1.2225e-18)
(6.37328 -4.99027 5.45865e-19)
(6.26389 -5.05619 -1.92065e-18)
(6.15187 -5.11824 2.99974e-21)
(6.03737 -5.17634 1.27806e-18)
(5.92057 -5.23044 -1.94133e-18)
(5.80161 -5.28047 -1.37941e-18)
(5.68065 -5.32638 4.06874e-19)
(5.55786 -5.36813 -8.56229e-19)
(5.43338 -5.40567 -1.02647e-18)
(5.30738 -5.43896 7.76466e-19)
(5.18001 -5.46797 2.33464e-20)
(5.05143 -5.49266 -2.35457e-20)
(4.9218 -5.51303 -2.41685e-18)
(4.79126 -5.52903 3.90557e-19)
(4.65998 -5.54067 2.30532e-18)
(4.52811 -5.54793 -1.14031e-18)
(4.3958 -5.55081 1.23136e-19)
(4.2632 -5.54931 1.28703e-18)
(4.13048 -5.54342 2.83114e-18)
(3.99777 -5.53317 -6.76932e-19)
(3.86523 -5.51856 -2.8181e-18)
(3.733 -5.49962 0)
(3.60123 -5.47636 -2.18012e-19)
(3.47008 -5.44882 7.81521e-19)
(3.33968 -5.41703 -8.9385e-19)
(3.21017 -5.38103 9.68498e-19)
(3.0817 -5.34085 8.29984e-19)
(2.9544 -5.29654 -9.80923e-19)
(2.82841 -5.24816 -9.66944e-20)
(2.70386 -5.19575 -1.116e-18)
(2.58089 -5.13938 1.82328e-19)
(2.45963 -5.07911 -9.47968e-19)
(2.3402 -5.015 -1.94958e-18)
(2.22273 -4.94713 1.21034e-18)
(2.10733 -4.87557 2.00566e-18)
(1.99414 -4.80039 2.30652e-18)
(1.88326 -4.72169 9.27947e-19)
(1.7748 -4.63954 -2.26834e-18)
(1.66888 -4.55403 -1.40987e-19)
(1.56561 -4.46525 -2.46988e-19)
(1.46509 -4.37331 -1.22866e-18)
(1.36742 -4.27829 1.1315e-18)
(1.2727 -4.1803 2.13534e-18)
(1.18103 -4.07943 1.0048e-18)
(1.0925 -3.9758 -2.3826e-18)
(1.00721 -3.8695 -2.19161e-18)
(0.925254 -3.76065 3.16372e-20)
(0.846722 -3.64935 2.30676e-18)
(0.771713 -3.5357 -1.21643e-18)
(0.700329 -3.41981 -3.42919e-18)
(0.632678 -3.30179 1.21453e-18)
(0.568883 -3.18172 1.15465e-18)
(0.509082 -3.05969 1.15304e-18)
(0.453434 -2.93578 -2.35502e-18)
(0.402121 -2.81005 1.12877e-18)
(0.355334 -2.68257 2.317e-18)
(0.313225 -2.55339 -3.42362e-18)
(0.275776 -2.42258 1.00251e-22)
(0.242604 -2.29027 1.17586e-18)
(0.212855 -2.15679 2.315e-18)
(0.185668 -2.02264 1.07051e-18)
(8.08764 -0.743361 1.05686e-18)
(8.18867 -0.814343 9.12635e-19)
(8.27495 -0.888972 -1.2724e-18)
(8.34692 -0.966393 -1.75929e-18)
(8.40579 -1.0466 -1.85451e-18)
(8.45254 -1.12943 -1.0243e-18)
(8.48815 -1.21474 5.33852e-19)
(8.5135 -1.30237 9.34673e-19)
(8.52941 -1.39213 5.65395e-19)
(8.53669 -1.48382 1.1247e-19)
(8.5361 -1.57721 1.85408e-19)
(8.5284 -1.67205 5.62975e-19)
(8.5142 -1.76816 2.34216e-19)
(8.4941 -1.8654 1.25517e-19)
(8.46859 -1.96361 2.51689e-19)
(8.43814 -2.06266 -2.48563e-19)
(8.40318 -2.1624 4.39998e-19)
(8.36409 -2.26271 -7.29947e-19)
(8.32122 -2.36349 -6.05285e-20)
(8.2749 -2.46464 -1.21769e-18)
(8.2254 -2.56608 -4.01062e-19)
(8.17297 -2.66777 4.88569e-19)
(8.1178 -2.76968 5.66216e-19)
(8.06007 -2.8718 2.82099e-19)
(7.99985 -2.9741 -1.04342e-18)
(7.93725 -3.07643 -6.99333e-19)
(7.87232 -3.17878 -9.66795e-19)
(7.80513 -3.28143 -2.1624e-19)
(7.73592 -3.38447 2.99111e-19)
(7.66305 -3.48628 5.61946e-21)
(7.58679 -3.58651 9.06942e-19)
(7.50692 -3.68469 2.06441e-19)
(7.42344 -3.7805 1.89801e-19)
(7.33639 -3.87368 -2.48902e-19)
(7.24585 -3.96404 0)
(7.15195 -4.05142 -6.30966e-19)
(7.05478 -4.13567 -2.54651e-19)
(6.95451 -4.21668 8.03224e-19)
(6.85124 -4.29433 6.68099e-19)
(6.74514 -4.36852 -2.59071e-18)
(6.63634 -4.43917 -1.29204e-18)
(6.52498 -4.50619 2.93797e-18)
(6.41121 -4.5695 -1.39019e-18)
(6.29517 -4.62904 -1.77443e-18)
(6.17701 -4.68474 -2.78852e-19)
(6.05688 -4.73653 1.45044e-19)
(5.93492 -4.78437 -1.06934e-18)
(5.81128 -4.8282 -5.29989e-19)
(5.6861 -4.86799 2.03524e-18)
(5.55954 -4.90368 0)
(5.43174 -4.93525 -3.08138e-19)
(5.30286 -4.96267 -3.11806e-20)
(5.17303 -4.98592 -9.06646e-19)
(5.0424 -5.00496 -9.48566e-19)
(4.91113 -5.01979 1.18591e-18)
(4.77937 -5.0304 3.35001e-18)
(4.64724 -5.03679 8.91256e-19)
(4.51491 -5.03894 -3.84281e-18)
(4.38252 -5.03687 -1.0234e-18)
(4.25022 -5.03058 2.12479e-18)
(4.11814 -5.02009 -1.60179e-18)
(3.98643 -5.00542 -1.97484e-18)
(3.85523 -4.98658 2.42929e-18)
(3.72468 -4.96361 1.07373e-18)
(3.59492 -4.93653 -1.24799e-18)
(3.46609 -4.90539 4.96744e-19)
(3.33832 -4.87022 -4.18196e-19)
(3.21174 -4.83106 -1.33107e-19)
(3.0865 -4.78796 1.55579e-18)
(2.96271 -4.74098 7.48267e-19)
(2.8405 -4.69018 -7.08832e-19)
(2.72001 -4.6356 -6.04577e-19)
(2.60135 -4.57733 -2.00467e-18)
(2.48464 -4.51541 1.36204e-18)
(2.37001 -4.44994 7.55421e-19)
(2.25756 -4.38097 -1.57956e-18)
(2.14741 -4.3086 -8.35295e-19)
(2.03967 -4.2329 -2.05628e-18)
(1.93444 -4.15395 6.15069e-19)
(1.83184 -4.07184 2.13021e-18)
(1.73195 -3.98667 2.28403e-19)
(1.63488 -3.89853 -6.0214e-20)
(1.54072 -3.80751 4.81094e-19)
(1.44956 -3.71371 -3.78635e-20)
(1.36148 -3.61724 8.69013e-20)
(1.27658 -3.5182 1.344e-18)
(1.19492 -3.4167 6.72522e-19)
(1.11659 -3.31284 -1.36028e-18)
(1.04166 -3.20675 -5.88764e-19)
(0.970191 -3.09854 1.44993e-20)
(0.902247 -2.98835 -1.39233e-22)
(0.837882 -2.8763 0)
(0.777143 -2.76257 -5.81529e-19)
(0.720064 -2.64731 -1.19352e-18)
(0.666663 -2.53073 1.16249e-18)
(0.616941 -2.41305 5.42127e-19)
(0.570877 -2.29449 -2.14746e-18)
(0.528455 -2.17523 5.90703e-19)
(0.489703 -2.0553 2.95495e-18)
(0.454749 -1.9346 1.04209e-18)
(7.90857 -0.933909 -6.99906e-20)
(7.92409 -0.999461 3.01257e-20)
(7.93664 -1.06938 1.56761e-19)
(7.94648 -1.14336 5.4913e-19)
(7.95397 -1.22126 -7.56837e-20)
(7.95926 -1.30284 -6.2246e-19)
(7.96243 -1.38787 -8.00885e-19)
(7.96351 -1.4761 -3.47284e-20)
(7.96242 -1.56725 1.88567e-19)
(7.95907 -1.66106 -7.01016e-20)
(7.95332 -1.75719 -4.86213e-19)
(7.94503 -1.85535 2.00177e-19)
(7.93407 -1.9552 5.41302e-19)
(7.92031 -2.05646 6.33384e-21)
(7.90362 -2.15884 -4.90779e-20)
(7.88389 -2.26206 3.30522e-19)
(7.86101 -2.36587 1.6781e-19)
(7.8349 -2.47 -3.42769e-20)
(7.80548 -2.5742 1.32183e-19)
(7.77268 -2.67822 -3.17401e-19)
(7.73647 -2.78179 -1.70542e-19)
(7.69681 -2.88465 2.01777e-19)
(7.65369 -2.98652 -7.65264e-19)
(7.60711 -3.08711 1.69691e-19)
(7.55707 -3.18622 7.67564e-20)
(7.5034 -3.28375 3.75932e-19)
(7.44601 -3.3794 -1.51448e-19)
(7.38488 -3.4727 2.57209e-19)
(7.32009 -3.56333 2.11302e-19)
(7.25171 -3.65132 7.26555e-19)
(7.17985 -3.73682 -2.40972e-19)
(7.10459 -3.81983 -1.25536e-18)
(7.02606 -3.90032 5.60536e-19)
(6.94435 -3.9782 5.54888e-19)
(6.85959 -4.05341 -7.94124e-19)
(6.77189 -4.12584 -2.66948e-20)
(6.68138 -4.19541 4.10258e-19)
(6.58818 -4.26202 -3.3722e-19)
(6.49241 -4.32559 -4.82437e-19)
(6.39421 -4.38604 1.75724e-19)
(6.2937 -4.44329 1.31084e-18)
(6.191 -4.49727 -3.44747e-19)
(6.08625 -4.54791 -1.7371e-18)
(5.97958 -4.59516 -4.81489e-19)
(5.87111 -4.63895 6.68768e-19)
(5.76097 -4.67924 1.12884e-19)
(5.6493 -4.71597 -2.10222e-18)
(5.53623 -4.74911 2.23109e-18)
(5.42188 -4.77862 1.86627e-18)
(5.3064 -4.80446 -1.58084e-18)
(5.1899 -4.8266 -1.8478e-20)
(5.07252 -4.84503 8.78668e-21)
(4.9544 -4.85972 9.03689e-19)
(4.83566 -4.87066 1.03907e-18)
(4.71644 -4.87783 -7.90842e-19)
(4.59686 -4.88123 4.42947e-19)
(4.47705 -4.88085 -3.13468e-19)
(4.35715 -4.8767 3.48774e-19)
(4.23728 -4.86879 6.45983e-19)
(4.11756 -4.85711 -2.1452e-18)
(3.99814 -4.8417 -2.48849e-18)
(3.87913 -4.82256 -3.03497e-20)
(3.76065 -4.79971 3.48197e-18)
(3.64283 -4.77319 9.55743e-19)
(3.5258 -4.74302 -8.42615e-19)
(3.40966 -4.70924 -1.93216e-18)
(3.29455 -4.67188 -5.62061e-19)
(3.18057 -4.63099 2.56198e-18)
(3.06785 -4.58661 3.63808e-21)
(2.95649 -4.53879 -5.61818e-19)
(2.84661 -4.48758 -3.94221e-20)
(2.73832 -4.43304 -5.50057e-20)
(2.63173 -4.37522 6.68174e-20)
(2.52694 -4.31419 5.46905e-20)
(2.42404 -4.25002 -2.53233e-20)
(2.32316 -4.18277 4.363e-20)
(2.22437 -4.11251 4.87474e-19)
(2.12779 -4.03932 -1.89743e-20)
(2.03349 -3.96328 1.7092e-20)
(1.94158 -3.88447 1.42445e-18)
(1.85214 -3.80296 -4.6796e-19)
(1.76525 -3.71886 -2.31807e-18)
(1.681 -3.63224 3.23375e-20)
(1.59947 -3.54319 2.26799e-18)
(1.52073 -3.45182 -1.84788e-20)
(1.44487 -3.35822 -1.27536e-18)
(1.37194 -3.26248 8.85238e-19)
(1.30203 -3.16472 1.69874e-18)
(1.2352 -3.06503 -4.3243e-19)
(1.1715 -2.96353 -1.61728e-18)
(1.111 -2.86033 -3.63056e-19)
(1.05376 -2.75555 -3.55302e-19)
(0.999818 -2.6493 6.6428e-20)
(0.949215 -2.5417 6.85806e-19)
(0.90198 -2.43288 -1.38882e-19)
(0.858129 -2.32296 3.56534e-20)
(0.817656 -2.21205 -6.83974e-19)
(0.78054 -2.10025 -7.38987e-19)
(0.746751 -1.98765 6.07955e-19)
(0.716281 -1.87429 -8.00565e-19)
(7.55372 -0.892705 7.55923e-19)
(7.57394 -0.949314 -5.9421e-20)
(7.59403 -1.01003 -6.04768e-19)
(7.61371 -1.07462 -5.7441e-19)
(7.63257 -1.14285 -2.09614e-19)
(7.6502 -1.21446 2.70707e-19)
(7.66621 -1.28917 -4.15394e-19)
(7.68023 -1.36674 -4.24894e-19)
(7.69194 -1.44688 -1.21285e-19)
(7.70103 -1.52934 3.34423e-19)
(7.70725 -1.61385 -1.50267e-19)
(7.71037 -1.70017 -5.32558e-19)
(7.71022 -1.78805 -1.86496e-19)
(7.70663 -1.87727 3.52287e-20)
(7.69949 -1.96759 3.21777e-20)
(7.68867 -2.05879 3.38136e-19)
(7.67411 -2.15067 1.58401e-19)
(7.65572 -2.24301 9.8732e-19)
(7.63346 -2.33563 2.1247e-19)
(7.60729 -2.42833 -5.66687e-20)
(7.57719 -2.52096 -1.0747e-20)
(7.54313 -2.61335 1.48853e-19)
(7.50512 -2.70535 6.44705e-19)
(7.46317 -2.79681 5.85062e-19)
(7.41738 -2.88744 -5.72578e-19)
(7.36786 -2.97698 2.19473e-19)
(7.31467 -3.06527 -6.05831e-19)
(7.25791 -3.15217 -1.43499e-20)
(7.19772 -3.23751 -1.5278e-19)
(7.13422 -3.32111 -4.29692e-20)
(7.0675 -3.40283 -3.45951e-19)
(6.99765 -3.48254 7.15745e-19)
(6.92475 -3.56009 2.0723e-19)
(6.84891 -3.63537 8.54525e-20)
(6.7702 -3.70825 -1.46945e-19)
(6.68872 -3.77863 -6.21503e-19)
(6.60459 -3.8464 -1.32615e-18)
(6.51791 -3.91148 -1.79594e-19)
(6.42877 -3.97376 1.09522e-18)
(6.33731 -4.03317 1.63607e-18)
(6.24363 -4.08962 -9.38339e-20)
(6.14784 -4.14305 -3.15111e-19)
(6.05007 -4.19339 3.04549e-19)
(5.95044 -4.24057 -1.27622e-19)
(5.84906 -4.28453 -2.22774e-19)
(5.74605 -4.32523 2.07558e-19)
(5.64154 -4.36261 1.8273e-18)
(5.53565 -4.39663 1.44473e-18)
(5.42849 -4.42725 -1.01994e-18)
(5.32021 -4.45444 -8.62053e-19)
(5.21091 -4.47816 -7.65342e-19)
(5.10073 -4.49839 0)
(4.98978 -4.51511 8.37789e-20)
(4.8782 -4.52829 1.5962e-19)
(4.7661 -4.53793 -1.37656e-19)
(4.6536 -4.54402 -1.75447e-18)
(4.54084 -4.54655 -7.16717e-19)
(4.42793 -4.54551 1.28617e-18)
(4.315 -4.54092 -1.35356e-18)
(4.20216 -4.53278 -4.29988e-19)
(4.08954 -4.5211 1.27202e-18)
(3.97726 -4.50589 5.97253e-20)
(3.86544 -4.48718 5.01968e-19)
(3.75419 -4.46498 1.81186e-18)
(3.64363 -4.43933 1.32906e-18)
(3.53387 -4.41025 -2.65273e-18)
(3.42504 -4.37777 6.56136e-20)
(3.31723 -4.34194 1.00586e-18)
(3.21057 -4.3028 -2.31085e-18)
(3.10516 -4.26039 -3.76035e-19)
(3.0011 -4.21475 1.24335e-18)
(2.89851 -4.16595 1.90407e-18)
(2.79748 -4.11402 6.75687e-19)
(2.69812 -4.05905 -1.59152e-18)
(2.60053 -4.00107 6.52163e-19)
(2.50479 -3.94016 3.1867e-20)
(2.41101 -3.87639 -1.23757e-18)
(2.31928 -3.80982 6.96056e-19)
(2.22968 -3.74053 -2.40592e-20)
(2.1423 -3.66859 -1.2343e-18)
(2.05723 -3.59409 -4.63763e-21)
(1.97455 -3.5171 6.0111e-19)
(1.89433 -3.4377 -8.63047e-19)
(1.81665 -3.356 -5.59393e-19)
(1.74158 -3.27206 8.45782e-19)
(1.66919 -3.18599 5.306e-19)
(1.59955 -3.09788 -8.1361e-19)
(1.53271 -3.00783 -2.25417e-19)
(1.46874 -2.91593 1.07033e-18)
(1.4077 -2.82228 2.55052e-19)
(1.34962 -2.727 -2.13483e-19)
(1.29456 -2.63019 -7.44254e-19)
(1.24257 -2.53195 -1.05655e-20)
(1.19366 -2.43239 1.31362e-18)
(1.14789 -2.33163 -5.31828e-20)
(1.10527 -2.22977 -6.06079e-19)
(1.06582 -2.12691 2.10814e-19)
(1.02957 -2.02316 -4.29761e-20)
(0.996534 -1.91861 3.38834e-19)
(0.966729 -1.81333 2.27542e-20)
(7.32323 -0.98102 3.35066e-19)
(7.34592 -1.03987 8.388e-19)
(7.36789 -1.10184 -3.6288e-21)
(7.38876 -1.16681 -1.39941e-20)
(7.40809 -1.2346 -4.72257e-19)
(7.42554 -1.30502 9.50783e-20)
(7.4408 -1.37785 1.99499e-19)
(7.45361 -1.45291 -5.04305e-19)
(7.46375 -1.52999 -3.30809e-19)
(7.47103 -1.60887 -2.7185e-19)
(7.47531 -1.68935 2.99039e-19)
(7.47644 -1.77122 1.95587e-19)
(7.47433 -1.85428 -1.84232e-19)
(7.4689 -1.93832 -7.03535e-20)
(7.46007 -2.02312 -1.78902e-19)
(7.44781 -2.1085 2.01529e-20)
(7.43207 -2.19425 6.60296e-20)
(7.41285 -2.28017 1.61527e-20)
(7.39012 -2.36606 -1.20909e-19)
(7.36391 -2.45172 -4.21275e-20)
(7.33422 -2.53696 5.2815e-19)
(7.30109 -2.62156 -1.78497e-19)
(7.26455 -2.70532 8.51528e-20)
(7.22462 -2.78809 -7.46449e-19)
(7.1813 -2.8698 -5.92844e-21)
(7.13465 -2.95031 -1.32835e-19)
(7.08474 -3.02947 -4.0483e-19)
(7.03163 -3.10716 2.65917e-19)
(6.97542 -3.18324 2.66935e-19)
(6.91617 -3.25762 0)
(6.85399 -3.33019 5.60801e-19)
(6.78894 -3.40087 7.54363e-20)
(6.72111 -3.46956 -4.21193e-19)
(6.6506 -3.53616 -3.42871e-19)
(6.57748 -3.60058 -6.60343e-20)
(6.50185 -3.66273 -1.4506e-19)
(6.42382 -3.72253 6.71195e-19)
(6.34346 -3.7799 9.35821e-19)
(6.26089 -3.83474 6.56399e-19)
(6.1762 -3.88699 4.05641e-20)
(6.0895 -3.93658 -4.83088e-19)
(6.00088 -3.98344 -4.91582e-19)
(5.91047 -4.0275 -6.46798e-19)
(5.81835 -4.06871 1.1384e-18)
(5.72465 -4.10702 9.76881e-20)
(5.62947 -4.14237 -6.9708e-19)
(5.53292 -4.17471 -4.93653e-20)
(5.4351 -4.20401 -2.62429e-19)
(5.33614 -4.23023 1.63224e-19)
(5.23615 -4.25333 -1.04496e-19)
(5.13523 -4.27329 0)
(5.0335 -4.29008 -2.16547e-19)
(4.93107 -4.30367 -5.44863e-20)
(4.82806 -4.31405 -4.77556e-19)
(4.72457 -4.32121 -9.69488e-19)
(4.62072 -4.32514 7.42013e-19)
(4.51662 -4.32583 1.07774e-18)
(4.41238 -4.32327 2.76926e-19)
(4.30812 -4.31748 4.18575e-20)
(4.20394 -4.30845 -1.04794e-18)
(4.09996 -4.2962 -9.47787e-19)
(3.99628 -4.28073 1.39796e-18)
(3.89302 -4.26206 9.61841e-19)
(3.79027 -4.24022 -4.85749e-19)
(3.68815 -4.21522 -4.39171e-20)
(3.58676 -4.18709 -5.44743e-19)
(3.48621 -4.15587 1.54167e-20)
(3.38659 -4.12158 4.59571e-19)
(3.28802 -4.08427 -3.1027e-19)
(3.19058 -4.04397 -4.6006e-19)
(3.09438 -4.00072 -2.04477e-19)
(2.99951 -3.95457 4.89845e-19)
(2.90607 -3.90558 4.65355e-19)
(2.81415 -3.85379 4.8288e-19)
(2.72384 -3.79926 4.30234e-19)
(2.63523 -3.74205 -4.46776e-21)
(2.5484 -3.68221 9.25939e-19)
(2.46344 -3.61982 -1.33546e-18)
(2.38043 -3.55493 2.47875e-21)
(2.29945 -3.48762 1.5006e-18)
(2.22058 -3.41796 -1.27964e-18)
(2.14389 -3.34602 -2.04001e-19)
(2.06945 -3.27187 -1.67214e-21)
(1.99733 -3.19561 -4.33459e-19)
(1.92761 -3.1173 3.35314e-19)
(1.86033 -3.03704 4.15556e-19)
(1.79557 -2.9549 -3.28979e-19)
(1.73338 -2.87097 -4.10051e-19)
(1.67382 -2.78535 -2.17904e-19)
(1.61693 -2.69813 -5.0886e-19)
(1.56276 -2.60938 7.0185e-19)
(1.51135 -2.51922 4.8219e-19)
(1.46276 -2.42774 -5.4613e-19)
(1.417 -2.33503 5.77284e-19)
(1.37411 -2.24118 2.98429e-20)
(1.33412 -2.1463 -5.5235e-19)
(1.29705 -2.05048 -5.94642e-20)
(1.26293 -1.95381 -1.31136e-20)
(1.23176 -1.85639 -2.16919e-19)
(1.20357 -1.7583 7.2193e-20)
(7.18141 -1.02062 -1.5122e-19)
(7.20294 -1.07568 9.48846e-20)
(7.22309 -1.13302 8.11751e-20)
(7.2417 -1.19262 2.46741e-19)
(7.25852 -1.25439 2.14328e-19)
(7.27335 -1.31822 1.06354e-19)
(7.28599 -1.384 1.61722e-19)
(7.29628 -1.45159 6.20718e-20)
(7.30406 -1.52084 1.43323e-19)
(7.30921 -1.59161 -1.18872e-19)
(7.31161 -1.66373 -7.48298e-20)
(7.31116 -1.73706 -5.93831e-20)
(7.30778 -1.81144 4.11871e-20)
(7.30139 -1.88669 0)
(7.29193 -1.96268 1.16198e-19)
(7.27937 -2.03922 -1.1417e-19)
(7.26366 -2.11617 -1.03955e-19)
(7.24478 -2.19337 -1.303e-19)
(7.22271 -2.27068 -1.84019e-20)
(7.19744 -2.34794 5.84358e-20)
(7.16898 -2.42501 -1.75964e-19)
(7.13734 -2.50177 -3.71376e-19)
(7.10255 -2.57808 2.11677e-19)
(7.06464 -2.65375 -3.16617e-19)
(7.02368 -2.72863 2.13259e-19)
(6.97971 -2.80257 -4.35138e-20)
(6.93277 -2.87542 6.0613e-20)
(6.88293 -2.94705 -2.92024e-19)
(6.83024 -3.01733 1.71402e-19)
(6.77479 -3.08615 3.07762e-19)
(6.71662 -3.1534 1.08647e-19)
(6.65583 -3.21896 1.57591e-19)
(6.59248 -3.28274 -3.68871e-19)
(6.52664 -3.34463 -4.60325e-19)
(6.45841 -3.40454 2.02807e-19)
(6.38785 -3.46238 -2.61567e-19)
(6.31506 -3.51806 5.99618e-19)
(6.24013 -3.57152 5.23461e-19)
(6.16313 -3.62265 -5.23505e-19)
(6.08416 -3.67141 -2.36578e-19)
(6.00333 -3.71771 3.06334e-19)
(5.92071 -3.76149 -8.37219e-19)
(5.83641 -3.80269 -2.09588e-19)
(5.75052 -3.84126 3.14777e-19)
(5.66315 -3.87714 -3.92398e-19)
(5.5744 -3.91029 7.64263e-19)
(5.48436 -3.94066 1.3125e-19)
(5.39313 -3.96821 -2.73933e-19)
(5.30083 -3.9929 2.36875e-19)
(5.20756 -4.01471 -3.81623e-19)
(5.11341 -4.0336 0)
(5.01849 -4.04955 -3.28028e-19)
(4.92291 -4.06253 -4.50088e-20)
(4.82677 -4.07253 2.80788e-19)
(4.73018 -4.07954 2.32803e-19)
(4.63324 -4.08355 2.07364e-19)
(4.53605 -4.08454 -2.62301e-19)
(4.43872 -4.08252 2.44735e-19)
(4.34136 -4.07748 3.40673e-20)
(4.24406 -4.06944 -3.69065e-19)
(4.14692 -4.05839 -9.97746e-19)
(4.05006 -4.04435 -3.75021e-19)
(3.95357 -4.02734 1.07755e-18)
(3.85755 -4.00736 8.7251e-19)
(3.7621 -3.98445 3.79243e-20)
(3.66731 -3.95863 -8.63408e-19)
(3.5733 -3.92991 4.67851e-20)
(3.48014 -3.89834 -4.96175e-19)
(3.38794 -3.86395 -1.72096e-19)
(3.29679 -3.82678 1.19184e-18)
(3.20677 -3.78685 3.33312e-19)
(3.11799 -3.74423 2.0081e-19)
(3.03052 -3.69895 5.05703e-19)
(2.94445 -3.65106 -8.54093e-19)
(2.85987 -3.60061 -1.66086e-19)
(2.77687 -3.54765 3.4805e-19)
(2.69551 -3.49225 -8.33072e-19)
(2.61588 -3.43446 -2.53553e-21)
(2.53805 -3.37434 3.22736e-19)
(2.46211 -3.31196 -3.12899e-19)
(2.38811 -3.24739 3.22179e-19)
(2.31613 -3.18068 3.20844e-19)
(2.24624 -3.11192 -2.90072e-19)
(2.1785 -3.04117 5.54335e-19)
(2.11297 -2.96852 -4.31543e-19)
(2.04971 -2.89403 -1.08044e-18)
(1.98877 -2.81778 4.09022e-19)
(1.93022 -2.73987 1.04295e-18)
(1.87409 -2.66036 2.30775e-20)
(1.82044 -2.57934 -5.00734e-19)
(1.76931 -2.49691 -3.27714e-20)
(1.72074 -2.41313 7.24368e-20)
(1.67476 -2.32811 2.14371e-19)
(1.63142 -2.24193 5.91999e-20)
(1.59074 -2.15468 -1.20756e-19)
(1.55275 -2.06644 3.03167e-19)
(1.51748 -1.97732 2.35783e-19)
(1.48494 -1.88738 -5.1665e-19)
(1.45516 -1.79673 -1.72621e-19)
(1.42816 -1.70546 9.48304e-20)
(7.0614 -1.07538 -7.30255e-20)
(7.07854 -1.12818 -5.51281e-20)
(7.09426 -1.18284 -2.88959e-19)
(7.10846 -1.23934 -1.61409e-19)
(7.12096 -1.29762 1.72212e-19)
(7.13161 -1.35759 1.39502e-19)
(7.14025 -1.41916 -1.24533e-19)
(7.14675 -1.48221 -2.76866e-20)
(7.15101 -1.54663 1.46412e-20)
(7.15291 -1.6123 4.56392e-20)
(7.15236 -1.67908 -6.7148e-20)
(7.14928 -1.74685 -4.79531e-20)
(7.14359 -1.81547 -6.31077e-20)
(7.13525 -1.8848 -4.38382e-20)
(7.12419 -1.95469 -1.74868e-19)
(7.11038 -2.02501 2.72075e-20)
(7.09379 -2.09562 1.95049e-20)
(7.0744 -2.16637 1.64736e-19)
(7.0522 -2.23712 -1.36408e-19)
(7.02717 -2.30772 1.31335e-19)
(6.99934 -2.37803 -2.31671e-19)
(6.96869 -2.44791 1.72875e-19)
(6.93526 -2.51723 1.23843e-20)
(6.89905 -2.58588 -1.02814e-21)
(6.86009 -2.65373 -2.33803e-19)
(6.81841 -2.72069 1.78404e-19)
(6.77406 -2.78663 3.08493e-19)
(6.72708 -2.85144 1.53004e-19)
(6.67753 -2.91501 3.63265e-19)
(6.62547 -2.97724 1.544e-19)
(6.57094 -3.03804 -3.97432e-19)
(6.51403 -3.09731 -3.97966e-19)
(6.45478 -3.15495 -7.67105e-21)
(6.39328 -3.21088 4.73061e-19)
(6.32958 -3.26501 4.48258e-19)
(6.26377 -3.31727 1.24399e-20)
(6.19591 -3.36757 -1.41883e-19)
(6.12609 -3.41584 -1.02119e-19)
(6.05439 -3.46201 -4.65735e-19)
(5.98089 -3.50602 -8.85184e-20)
(5.90567 -3.54779 3.69823e-19)
(5.82882 -3.58727 -8.76298e-21)
(5.75043 -3.6244 4.73281e-20)
(5.67058 -3.65913 -3.40767e-20)
(5.58936 -3.69141 7.29718e-19)
(5.50687 -3.72119 8.97843e-20)
(5.4232 -3.74844 -8.74956e-19)
(5.33844 -3.77311 1.65312e-19)
(5.25268 -3.79516 -9.66842e-20)
(5.16601 -3.81458 -1.49319e-19)
(5.07855 -3.83132 2.44147e-19)
(4.99036 -3.84537 -3.38812e-19)
(4.90157 -3.85671 -5.95362e-19)
(4.81225 -3.86531 -7.78695e-19)
(4.72251 -3.87116 -1.53698e-20)
(4.63244 -3.87426 1.68986e-18)
(4.54213 -3.87459 1.10639e-18)
(4.45169 -3.87215 -1.25601e-19)
(4.3612 -3.86694 -4.85352e-19)
(4.27077 -3.85897 -4.12475e-19)
(4.18049 -3.84824 -9.17022e-19)
(4.09044 -3.83475 4.42112e-19)
(4.00073 -3.81853 9.75053e-19)
(3.91144 -3.79958 -1.61326e-20)
(3.82268 -3.77792 5.165e-19)
(3.73452 -3.75358 2.49049e-21)
(3.64705 -3.72658 -5.28349e-19)
(3.56038 -3.69695 -4.13246e-19)
(3.47457 -3.66472 2.31718e-20)
(3.38972 -3.62992 -2.44807e-19)
(3.30592 -3.59258 -1.30597e-19)
(3.22324 -3.55275 -4.0227e-20)
(3.14177 -3.51047 1.11851e-19)
(3.06158 -3.46578 2.6013e-19)
(2.98276 -3.41873 7.38589e-19)
(2.90538 -3.36936 -3.75372e-19)
(2.82952 -3.31773 -1.20435e-18)
(2.75524 -3.2639 8.41291e-19)
(2.68263 -3.20791 4.645e-19)
(2.61173 -3.14983 -2.4715e-19)
(2.54263 -3.08972 -4.6521e-19)
(2.47539 -3.02763 -4.09185e-19)
(2.41007 -2.96364 9.92386e-19)
(2.34672 -2.89782 2.07798e-19)
(2.28541 -2.83022 -4.87028e-19)
(2.22619 -2.76092 3.04618e-19)
(2.16911 -2.69 -3.00079e-20)
(2.11422 -2.61752 -7.10121e-19)
(2.06157 -2.54356 1.26943e-20)
(2.0112 -2.4682 3.53664e-19)
(1.96315 -2.39152 -3.58034e-19)
(1.91746 -2.31359 1.87463e-19)
(1.87416 -2.23449 6.91974e-19)
(1.8333 -2.15431 -4.73799e-19)
(1.79489 -2.07313 -2.81288e-19)
(1.75897 -1.99103 -3.82187e-21)
(1.72555 -1.90808 -2.06171e-19)
(1.69466 -1.82438 2.96923e-19)
(1.66632 -1.74001 3.82111e-19)
(1.64055 -1.65505 3.3484e-19)
(6.95582 -1.11113 8.47961e-20)
(6.96936 -1.1608 -1.64708e-19)
(6.9815 -1.21195 -2.16641e-19)
(6.99215 -1.26457 -4.9664e-21)
(7.00121 -1.31862 -8.86698e-20)
(7.00855 -1.37403 9.93447e-21)
(7.01407 -1.43074 6.45257e-20)
(7.01767 -1.48866 -2.64743e-19)
(7.01924 -1.54771 -9.63514e-20)
(7.0187 -1.60778 -2.92596e-20)
(7.01598 -1.66877 -3.28807e-20)
(7.01099 -1.73058 -4.5992e-21)
(7.00369 -1.7931 1.48672e-19)
(6.99401 -1.85621 -7.18057e-20)
(6.98191 -1.91979 -6.83221e-20)
(6.96735 -1.98374 7.09135e-20)
(6.95029 -2.04793 5.60899e-20)
(6.93073 -2.11224 -3.41305e-20)
(6.90863 -2.17656 -5.36538e-20)
(6.884 -2.24077 5.73703e-20)
(6.85682 -2.30477 -2.07619e-19)
(6.82711 -2.36843 -6.50194e-21)
(6.79489 -2.43163 5.79015e-20)
(6.76016 -2.49427 1.7658e-19)
(6.72296 -2.55621 -3.2431e-19)
(6.68332 -2.61736 3.70513e-19)
(6.64126 -2.6776 4.28487e-19)
(6.59683 -2.73684 -1.20299e-19)
(6.55007 -2.79496 1.35765e-19)
(6.50102 -2.85188 -2.83376e-19)
(6.44974 -2.90749 -2.00149e-19)
(6.39629 -2.96172 -1.91987e-19)
(6.3407 -3.01447 -3.59751e-20)
(6.28306 -3.06567 6.52557e-19)
(6.22341 -3.11522 5.94587e-20)
(6.16183 -3.16306 -3.09791e-19)
(6.09838 -3.20911 -1.84301e-20)
(6.03314 -3.25331 -3.2994e-19)
(5.96616 -3.29558 -4.04469e-19)
(5.89754 -3.33586 9.35031e-20)
(5.82733 -3.3741 6.09108e-19)
(5.75563 -3.41023 6.19038e-21)
(5.68251 -3.44421 -3.77027e-19)
(5.60804 -3.47598 -5.92459e-20)
(5.53232 -3.5055 3.8439e-19)
(5.45543 -3.53272 -2.29156e-19)
(5.37744 -3.55761 -1.14391e-19)
(5.29844 -3.58013 5.63425e-19)
(5.21853 -3.60024 -7.26665e-21)
(5.13778 -3.61793 -3.9362e-19)
(5.05628 -3.63315 3.74972e-19)
(4.97412 -3.64588 1.8463e-19)
(4.89139 -3.65612 -3.2835e-19)
(4.80818 -3.66383 -1.47309e-19)
(4.72457 -3.66901 -2.45384e-20)
(4.64065 -3.67164 4.4576e-19)
(4.55651 -3.67172 -3.29229e-20)
(4.47224 -3.66925 3.15386e-19)
(4.38792 -3.66421 6.78844e-21)
(4.30365 -3.65663 -4.1683e-19)
(4.21951 -3.64649 -2.24937e-19)
(4.13559 -3.6338 -3.58287e-19)
(4.05197 -3.61859 -1.83911e-20)
(3.96873 -3.60085 -4.0551e-21)
(3.88597 -3.58061 1.72555e-19)
(3.80377 -3.55789 -2.28071e-19)
(3.72221 -3.53271 -2.18687e-19)
(3.64136 -3.50509 2.13745e-19)
(3.56132 -3.47506 2.026e-19)
(3.48216 -3.44266 -8.01286e-21)
(3.40395 -3.40791 -6.27045e-19)
(3.32678 -3.37084 -2.07961e-19)
(3.25073 -3.33151 6.09567e-19)
(3.17585 -3.28994 4.07601e-19)
(3.10223 -3.24619 -3.92886e-19)
(3.02994 -3.20028 -1.95174e-19)
(2.95905 -3.15228 5.66828e-19)
(2.88962 -3.10224 3.62729e-19)
(2.82171 -3.05019 1.0025e-20)
(2.7554 -2.99621 -3.59632e-19)
(2.69074 -2.94034 -3.61217e-19)
(2.6278 -2.88263 -2.0377e-19)
(2.56662 -2.82316 1.11859e-20)
(2.50727 -2.76198 1.96633e-20)
(2.44979 -2.69915 -2.26103e-20)
(2.39425 -2.63475 1.66173e-19)
(2.34067 -2.56883 4.58913e-19)
(2.28912 -2.50146 3.03361e-19)
(2.23964 -2.43271 -1.45427e-19)
(2.19226 -2.36266 -2.84952e-19)
(2.14702 -2.29137 -1.35106e-19)
(2.10396 -2.21892 -2.86867e-19)
(2.06312 -2.14537 -1.53612e-20)
(2.02452 -2.07082 2.94398e-19)
(1.98819 -1.99532 -3.43844e-20)
(1.95416 -1.91896 2.32518e-19)
(1.92244 -1.8418 -7.12586e-20)
(1.89307 -1.76394 -3.44858e-19)
(1.86606 -1.68544 -1.81075e-19)
(1.84141 -1.60639 3.52175e-19)
(6.85816 -1.14296 3.12783e-19)
(6.86823 -1.18991 3.17893e-19)
(6.87696 -1.23809 -1.97777e-19)
(6.88431 -1.28749 -1.48312e-19)
(6.89018 -1.33807 -2.0473e-20)
(6.89448 -1.38977 -3.02022e-20)
(6.89711 -1.44254 5.73447e-20)
(6.898 -1.49631 1.79738e-19)
(6.89707 -1.55099 -6.36117e-20)
(6.89423 -1.60651 2.69518e-20)
(6.88944 -1.66278 -5.61336e-20)
(6.88262 -1.71971 7.87905e-20)
(6.87373 -1.7772 3.7806e-20)
(6.86272 -1.83516 -8.85011e-20)
(6.84955 -1.89349 1.11701e-19)
(6.83418 -1.95209 -3.78186e-20)
(6.8166 -2.01085 3.46261e-20)
(6.79677 -2.06967 -9.94584e-20)
(6.77469 -2.12844 2.18372e-20)
(6.75034 -2.18706 -1.31388e-19)
(6.72373 -2.24543 -1.81811e-19)
(6.69486 -2.30344 -6.27243e-20)
(6.66373 -2.36099 2.07073e-19)
(6.63036 -2.41799 1.62192e-19)
(6.59476 -2.47434 -1.47247e-19)
(6.55696 -2.52995 7.02774e-20)
(6.51698 -2.58471 -8.0649e-20)
(6.47486 -2.63855 -6.50749e-20)
(6.43064 -2.69137 -1.39198e-19)
(6.38435 -2.74308 1.14402e-19)
(6.33603 -2.79361 -2.35106e-19)
(6.28574 -2.84287 -2.60351e-19)
(6.23353 -2.89078 1.2176e-19)
(6.17944 -2.93727 1.24673e-19)
(6.12353 -2.98227 3.06595e-19)
(6.06586 -3.0257 -2.5507e-19)
(6.00649 -3.0675 -2.71432e-19)
(5.94549 -3.1076 -2.50304e-19)
(5.8829 -3.14595 1.37736e-19)
(5.81881 -3.18248 8.58397e-19)
(5.75328 -3.21714 -1.25425e-19)
(5.68638 -3.24988 -5.14549e-19)
(5.61818 -3.28064 -3.09099e-19)
(5.54876 -3.30939 1.67849e-19)
(5.47818 -3.33608 6.07219e-19)
(5.40652 -3.36066 2.62587e-19)
(5.33386 -3.38311 -4.95778e-19)
(5.26028 -3.40338 -4.63674e-19)
(5.18585 -3.42144 1.45054e-19)
(5.11066 -3.43728 -1.55001e-19)
(5.03478 -3.45086 5.28871e-20)
(4.95829 -3.46215 4.11769e-19)
(4.88127 -3.47115 -1.05218e-20)
(4.8038 -3.47783 -1.27257e-18)
(4.72597 -3.48218 -1.74876e-19)
(4.64785 -3.4842 9.66023e-19)
(4.56953 -3.48386 -5.03029e-19)
(4.49108 -3.48118 2.26745e-20)
(4.41259 -3.47613 9.41875e-19)
(4.33413 -3.46874 -2.9715e-20)
(4.25579 -3.459 -5.10223e-19)
(4.17765 -3.44691 1.61981e-21)
(4.09978 -3.43249 3.50606e-19)
(4.02227 -3.41575 -7.88313e-19)
(3.94519 -3.39671 -1.09838e-20)
(3.86862 -3.37537 7.9424e-19)
(3.79263 -3.35176 -1.63187e-19)
(3.71731 -3.32591 -8.75793e-21)
(3.64271 -3.29783 -3.16345e-19)
(3.56893 -3.26756 -6.04551e-19)
(3.49602 -3.23512 3.12175e-19)
(3.42407 -3.20054 6.06411e-19)
(3.35313 -3.16387 1.02583e-21)
(3.28329 -3.12514 5.85714e-19)
(3.2146 -3.08438 5.40414e-22)
(3.14712 -3.04163 -7.18701e-19)
(3.08094 -2.99695 -1.3433e-19)
(3.01609 -2.95038 -4.14996e-19)
(2.95266 -2.90195 2.98862e-19)
(2.89069 -2.85173 1.0868e-18)
(2.83024 -2.79976 1.1756e-19)
(2.77136 -2.7461 -5.24775e-19)
(2.71411 -2.6908 -3.835e-19)
(2.65855 -2.63391 2.56041e-19)
(2.60471 -2.5755 9.90955e-20)
(2.55265 -2.51562 -1.29595e-19)
(2.50241 -2.45433 -1.06381e-19)
(2.45403 -2.3917 -3.19198e-19)
(2.40756 -2.32779 2.40424e-19)
(2.36302 -2.26266 1.94328e-19)
(2.32047 -2.19639 -1.11108e-19)
(2.27992 -2.12902 3.2648e-19)
(2.24141 -2.06065 -1.99654e-19)
(2.20497 -1.99132 -2.87626e-19)
(2.17063 -1.92112 1.69854e-19)
(2.13841 -1.8501 1.75319e-19)
(2.10833 -1.77835 2.56017e-20)
(2.08042 -1.70593 -2.64276e-19)
(2.05467 -1.63291 -1.48971e-19)
(2.03113 -1.55937 -9.68699e-20)
(6.76771 -1.16539 -1.54521e-19)
(6.77492 -1.2096 9.03589e-20)
(6.78085 -1.25482 2.57735e-19)
(6.78548 -1.30103 3.10972e-20)
(6.78873 -1.3482 -1.20153e-20)
(6.79052 -1.39629 6.79973e-20)
(6.79079 -1.44525 -2.30674e-20)
(6.78947 -1.49501 9.15744e-20)
(6.78649 -1.54552 1.54296e-19)
(6.7818 -1.5967 2.06335e-20)
(6.77534 -1.64848 2.45832e-20)
(6.76705 -1.7008 9.03374e-20)
(6.7569 -1.75356 -2.83015e-20)
(6.74485 -1.80668 -1.88004e-21)
(6.73086 -1.86009 1.05939e-19)
(6.71489 -1.91369 7.85326e-20)
(6.69694 -1.9674 0)
(6.67697 -2.02113 8.73653e-20)
(6.65498 -2.07479 4.261e-20)
(6.63096 -2.12829 -1.70827e-19)
(6.6049 -2.18154 1.26297e-19)
(6.5768 -2.23446 1.19227e-19)
(6.54668 -2.28695 -1.14048e-19)
(6.51454 -2.33893 4.73058e-21)
(6.4804 -2.3903 1.99886e-20)
(6.44427 -2.44099 1.20184e-19)
(6.40619 -2.49091 3.87928e-21)
(6.36617 -2.53997 -3.00542e-19)
(6.32425 -2.58809 5.86991e-20)
(6.28047 -2.63521 3.23045e-19)
(6.23485 -2.68123 -1.19742e-19)
(6.18745 -2.7261 -1.83331e-19)
(6.1383 -2.76973 1.49384e-19)
(6.08745 -2.81206 -4.52041e-20)
(6.03495 -2.85302 -2.31087e-19)
(5.98085 -2.89254 3.86612e-19)
(5.9252 -2.93057 1.29576e-19)
(5.86806 -2.96705 -9.89107e-20)
(5.80949 -3.00192 6.5235e-20)
(5.74955 -3.03513 -1.13932e-19)
(5.68829 -3.06662 -3.33526e-19)
(5.62578 -3.09634 -1.48124e-19)