/*--------------------------------*- C++ -*----------------------------------*\
  =========                 |
  \\      /  F ield         | OpenFOAM: The Open Source CFD Toolbox
   \\    /   O peration     | Website:  https://openfoam.org
    \\  /    A nd           | Version:  8
     \\/     M anipulation  |
\*---------------------------------------------------------------------------*/
FoamFile
{
    version     2.0;
    format      ascii;
    class       volVectorField;
    location    "0.2";
    object      U;
}
// * * * * * * * * * * * * * * * * * * * * * * * * * * * * * * * * * * * * * //

dimensions      [0 1 -1 0 0 0 0];

internalField   nonuniform List<vector> 
112772
(
(14.9999 6.52111e-08 -3.60483e-24)
(15 8.83574e-07 -9.36454e-23)
(14.9999 2.28432e-06 -5.58808e-22)
(14.9999 5.38702e-06 1.76298e-22)
(14.9999 8.51278e-06 3.18099e-21)
(14.9999 1.15165e-05 -3.30814e-21)
(14.9998 1.47099e-05 -1.27033e-22)
(14.9998 1.86055e-05 1.32717e-21)
(14.9998 2.29338e-05 4.238e-21)
(14.9998 2.78973e-05 -7.04298e-21)
(14.9998 3.29404e-05 -1.88229e-22)
(14.9998 3.83769e-05 1.24708e-20)
(14.9998 4.43417e-05 8.26871e-21)
(14.9998 5.02775e-05 8.80565e-21)
(14.9998 5.66241e-05 7.96921e-21)
(14.9997 6.29131e-05 1.34609e-20)
(14.9997 6.93678e-05 -1.01546e-20)
(14.9997 7.62376e-05 1.81097e-20)
(14.9997 8.28121e-05 -1.35257e-20)
(14.9997 8.94578e-05 -2.02262e-20)
(14.9997 9.61551e-05 -3.66231e-20)
(14.9997 0.000103075 -1.57076e-20)
(14.9997 0.000109679 -1.63116e-20)
(14.9997 0.000116576 -9.41609e-21)
(14.9997 0.000123193 8.09892e-21)
(14.9997 0.000130149 1.79456e-20)
(14.9997 0.000136856 -2.82612e-20)
(14.9997 0.000143459 3.78313e-20)
(14.9997 0.000150217 -2.61977e-22)
(14.9997 0.00015691 1.97334e-20)
(14.9997 0.000163658 1.95304e-20)
(14.9997 0.000170122 2.39919e-22)
(14.9997 0.00017664 1.99915e-20)
(14.9997 0.000183187 2.06227e-20)
(14.9997 0.000189344 -2.07492e-20)
(14.9997 0.000195775 2.32525e-22)
(14.9997 0.000201979 -3.22694e-20)
(14.9997 0.000208197 2.07446e-20)
(14.9997 0.000214618 -8.94348e-21)
(14.9997 0.000220552 4.17612e-20)
(14.9997 0.000226733 -4.17002e-20)
(14.9997 0.000232652 3.33368e-20)
(14.9997 0.000238377 7.959e-21)
(14.9997 0.000244177 -1.98851e-22)
(14.9997 0.000249994 2.05761e-20)
(14.9997 0.000255525 6.85631e-21)
(14.9997 0.000261321 2.00996e-20)
(14.9997 0.000266866 -3.3494e-20)
(14.9997 0.000272076 -1.9942e-20)
(14.9997 0.000277534 4.74689e-20)
(14.9997 0.000282672 1.41857e-20)
(14.9997 0.000287939 3.82129e-20)
(14.9997 0.000292941 3.77522e-20)
(14.9997 0.000298132 -1.44641e-20)
(14.9997 0.000302992 -1.47538e-20)
(14.9997 0.000307751 -1.80765e-20)
(14.9997 0.000312478 -3.55959e-20)
(14.9998 0.000317233 1.49707e-20)
(14.9998 0.000321634 1.73393e-20)
(14.9998 0.000326218 -1.7021e-20)
(14.9998 0.000330636 1.67077e-20)
(14.9998 0.000334717 -1.23792e-22)
(14.9998 0.000339004 1.60232e-20)
(14.9998 0.000343035 -1.25615e-22)
(14.9998 0.000347097 1.53126e-20)
(14.9998 0.000351054 -3.08186e-20)
(14.9998 0.00035474 0)
(14.9998 0.000358686 -1.41122e-20)
(14.9998 0.000362308 1.37438e-20)
(14.9998 0.000365793 1.33561e-20)
(14.9998 0.000369193 2.92853e-20)
(14.9998 0.000372501 -1.62956e-20)
(14.9998 0.00037566 -2.45313e-20)
(14.9998 0.000378744 2.8499e-20)
(14.9998 0.000381925 -3.33728e-20)
(14.9998 0.00038489 1.6608e-20)
(14.9998 0.000387529 3.80354e-20)
(14.9999 0.000390473 -6.80814e-21)
(14.9999 0.000393046 0)
(14.9999 0.000395577 0)
(14.9999 0.000397847 0)
(14.9999 0.000400276 -8.43004e-21)
(14.9999 0.000402521 0)
(14.9999 0.000404745 -9.69169e-21)
(14.9999 0.000406659 3.45287e-20)
(14.9999 0.000408478 1.34973e-20)
(14.9999 0.000410453 -5.8605e-20)
(14.9999 0.000412097 1.16741e-20)
(14.9999 0.000413706 1.22157e-20)
(14.9999 0.000415199 -1.75579e-20)
(14.9999 0.000416681 -4.45775e-21)
(14.9999 0.000418059 4.00383e-21)
(15 0.00041921 3.49568e-21)
(15 0.000420278 3.24696e-20)
(15 0.000421186 3.81856e-20)
(15 0.000422086 -1.56906e-20)
(15 0.000422808 -3.57412e-20)
(15 0.000423539 0)
(15 0.000424036 7.07169e-22)
(15 0.000424472 1.79662e-20)
(15 0.000424821 -2.27381e-22)
(15 0.000425084 -1.7267e-20)
(15 0.000425286 0)
(15 0.000425252 3.59469e-20)
(15 0.000425227 -8.51906e-21)
(15 0.00042502 -1.53314e-20)
(15 0.000424805 -6.1715e-21)
(15.0001 0.000424427 -1.79317e-20)
(15.0001 0.000423963 -2.19622e-20)
(15.0001 0.000423266 9.01631e-21)
(15.0001 0.000422463 4.91973e-21)
(15.0001 0.000421645 1.79251e-20)
(15.0001 0.000420707 -5.98643e-21)
(15.0001 0.00041973 1.79543e-20)
(15.0001 0.000418411 -1.38058e-20)
(15.0001 0.000417249 -1.03321e-20)
(15.0001 0.000415986 -2.56655e-20)
(15.0001 0.000414401 8.3983e-21)
(15.0001 0.00041279 4.42822e-20)
(15.0001 0.000410984 -2.68273e-20)
(15.0001 0.000409339 -1.75788e-20)
(15.0001 0.000407419 2.01319e-20)
(15.0001 0.00040545 1.75899e-20)
(15.0002 0.00040309 6.4872e-21)
(15.0002 0.000401043 -5.78471e-20)
(15.0002 0.00039865 1.20352e-20)
(15.0002 0.000396025 4.91297e-21)
(15.0002 0.000393495 -3.46036e-20)
(15.0002 0.00039088 4.38017e-20)
(15.0002 0.000388102 3.42793e-21)
(15.0002 0.000385219 -1.70913e-20)
(15.0002 0.00038224 -1.18401e-20)
(15.0002 0.000379109 3.18823e-20)
(15.0002 0.000375626 -3.23282e-20)
(15.0002 0.00037241 1.46745e-20)
(15.0002 0.000368896 1.6868e-20)
(15.0002 0.000365264 1.66592e-20)
(15.0002 0.000361654 -3.36786e-20)
(15.0002 0.00035776 -5.04786e-20)
(15.0003 0.000354078 1.60932e-22)
(15.0003 0.000350023 1.63384e-20)
(15.0003 0.00034578 0)
(15.0003 0.000341722 1.88501e-20)
(15.0003 0.00033727 0)
(15.0003 0.000332837 -1.60896e-20)
(15.0003 0.000328357 2.00805e-20)
(15.0003 0.000323754 -4.52058e-21)
(15.0003 0.000318777 2.05469e-20)
(15.0003 0.000313992 1.56404e-20)
(15.0003 0.000308903 -4.24415e-20)
(15.0003 0.000303941 -9.15529e-21)
(15.0003 0.000298612 6.647e-21)
(15.0003 0.000293541 3.7069e-20)
(15.0003 0.000288083 -7.40558e-21)
(15.0003 0.000282332 0)
(15.0003 0.000276856 7.93611e-21)
(15.0003 0.000271044 3.74724e-20)
(15.0003 0.000265232 3.67622e-20)
(15.0003 0.000259484 -3.69857e-20)
(15.0003 0.000253501 9.24892e-21)
(15.0003 0.000247202 2.40804e-22)
(15.0003 0.000241159 1.33004e-20)
(15.0003 0.000234544 -1.33107e-20)
(15.0004 0.000228136 2.64608e-20)
(15.0004 0.000221718 1.57716e-21)
(15.0004 0.000215018 -4.8294e-20)
(15.0004 0.000208603 -1.20999e-20)
(15.0004 0.000201717 -1.10262e-20)
(15.0004 0.000194837 -2.75107e-22)
(15.0004 0.000187988 2.97958e-22)
(15.0004 0.000180783 1.09537e-20)
(15.0004 0.000173608 3.68495e-25)
(15.0004 0.000166324 -6.47852e-20)
(15.0004 0.000159186 3.32238e-20)
(15.0004 0.000151892 -3.23775e-20)
(15.0004 0.000144268 2.99603e-20)
(15.0004 0.000137002 -2.93308e-20)
(15.0003 0.000129365 2.47434e-21)
(15.0003 0.000122033 2.69464e-20)
(15.0003 0.00011428 -2.43502e-21)
(15.0003 0.000106745 -1.73796e-20)
(15.0003 9.92233e-05 1.65497e-20)
(15.0003 9.17361e-05 6.20605e-21)
(15.0003 8.38384e-05 -8.31265e-21)
(15.0003 7.63857e-05 -3.23422e-20)
(15.0003 6.90761e-05 1.49535e-20)
(15.0003 6.16356e-05 -1.11079e-20)
(15.0003 5.46358e-05 5.94107e-21)
(15.0003 4.7534e-05 1.25163e-20)
(15.0003 4.10226e-05 -5.06753e-21)
(15.0002 3.4936e-05 1.59922e-21)
(15.0002 2.88825e-05 5.57979e-21)
(15.0002 2.35644e-05 -6.21161e-21)
(15.0002 1.87377e-05 3.67977e-21)
(15.0002 1.47594e-05 1.6607e-21)
(15.0002 1.09774e-05 2.35591e-21)
(15.0001 6.94429e-06 -1.13149e-21)
(15.0001 2.94764e-06 -7.45566e-22)
(15 1.09878e-06 3.72228e-22)
(15.0001 1.24828e-07 -4.38327e-23)
(14.9984 9.19494e-06 6.77741e-23)
(14.9994 2.23849e-05 -7.64735e-22)
(14.9996 1.28745e-05 -1.89942e-22)
(14.9995 2.14216e-05 -3.17219e-21)
(14.9994 3.92873e-05 4.51033e-21)
(14.9993 5.66842e-05 -3.37074e-21)
(14.9993 7.09592e-05 -7.26077e-21)
(14.9993 8.47656e-05 2.72808e-22)
(14.9992 9.90961e-05 2.48277e-21)
(14.9992 0.000114548 5.82116e-22)
(14.9992 0.000130206 -8.36936e-21)
(14.9992 0.000146269 4.47863e-21)
(14.9991 0.000163077 1.3513e-20)
(14.9991 0.000180141 -9.1057e-21)
(14.9991 0.000197985 3.76002e-20)
(14.9991 0.000216071 3.28835e-21)
(14.9991 0.000234391 -2.47812e-20)
(14.9991 0.000253384 -3.43493e-21)
(14.9991 0.000272285 1.6392e-20)
(14.9991 0.000291421 -7.13679e-23)
(14.999 0.000310666 -8.76723e-21)
(14.999 0.000330319 -3.06665e-20)
(14.999 0.000349639 -2.179e-20)
(14.999 0.000369359 -6.75572e-23)
(14.999 0.000388768 -1.01142e-20)
(14.999 0.000408595 2.06228e-20)
(14.999 0.000428329 8.63708e-22)
(14.999 0.000447864 6.34964e-22)
(14.999 0.000467414 -1.21448e-20)
(14.999 0.000486959 -1.15511e-20)
(14.999 0.000506468 1.15798e-20)
(14.999 0.000525718 5.99691e-22)
(14.999 0.000545034 -3.70849e-20)
(14.999 0.000564283 9.83463e-20)
(14.999 0.00058302 1.30324e-20)
(14.999 0.000601969 2.42933e-20)
(14.999 0.000620483 -2.64869e-20)
(14.999 0.00063899 -4.70222e-22)
(14.999 0.000657772 2.45763e-20)
(14.999 0.000675753 6.12505e-20)
(14.999 0.000694015 3.851e-20)
(14.9991 0.000711805 -5.05831e-21)
(14.9991 0.000729273 2.3543e-20)
(14.9991 0.000746687 0)
(14.9991 0.000764019 8.50168e-21)
(14.9991 0.000780882 -1.49911e-20)
(14.9991 0.000798002 5.25516e-20)
(14.9991 0.0008145 -2.92996e-20)
(14.9991 0.000830521 -5.28118e-20)
(14.9991 0.000846779 1.51873e-20)
(14.9991 0.000862641 2.19433e-20)
(14.9992 0.000878293 1.09522e-20)
(14.9992 0.000893481 7.34397e-20)
(14.9992 0.000908933 3.68844e-20)
(14.9992 0.000923691 -1.72311e-22)
(14.9992 0.00093826 1.24035e-20)
(14.9992 0.00095267 -1.61033e-20)
(14.9992 0.000966777 -3.30102e-20)
(14.9992 0.000980409 5.42919e-20)
(14.9993 0.000994147 3.72245e-20)
(14.9993 0.00100739 1.38929e-21)
(14.9993 0.00102017 0)
(14.9993 0.00103305 1.74209e-20)
(14.9993 0.0010454 -1.701e-20)
(14.9993 0.00105759 3.36476e-20)
(14.9994 0.00106944 9.71028e-23)
(14.9994 0.00108101 -1.24245e-22)
(14.9994 0.00109256 -3.25471e-20)
(14.9994 0.00110355 -3.4985e-20)
(14.9994 0.00111421 7.33541e-24)
(14.9994 0.00112454 3.50936e-20)
(14.9995 0.00113474 3.54613e-20)
(14.9995 0.00114452 -1.77455e-20)
(14.9995 0.00115391 7.6853e-21)
(14.9995 0.00116336 -1.78493e-20)
(14.9995 0.00117232 -2.99004e-20)
(14.9995 0.00118076 1.14579e-20)
(14.9996 0.00118939 1.80738e-20)
(14.9996 0.00119734 2.87354e-20)
(14.9996 0.00120503 -1.00571e-20)
(14.9996 0.00121222 2.78699e-20)
(14.9996 0.00121943 9.18606e-21)
(14.9997 0.00122625 -4.54843e-20)
(14.9997 0.00123287 -1.85017e-20)
(14.9997 0.00123886 1.85044e-20)
(14.9997 0.0012446 3.30748e-20)
(14.9997 0.00125028 -4.24028e-24)
(14.9997 0.00125554 1.86716e-20)
(14.9998 0.00126038 4.60613e-23)
(14.9998 0.00126496 -2.40818e-20)
(14.9998 0.00126947 -2.36057e-20)
(14.9998 0.00127344 -4.20351e-20)
(14.9998 0.00127699 3.39519e-20)
(14.9999 0.00128023 3.79265e-20)
(14.9999 0.0012832 8.41151e-21)
(14.9999 0.00128608 6.93374e-21)
(14.9999 0.00128836 -2.09011e-20)
(14.9999 0.0012905 -1.91148e-20)
(15 0.00129202 -6.25061e-24)
(15 0.00129338 1.88986e-20)
(15 0.00129446 1.89698e-20)
(15 0.00129526 -5.78613e-24)
(15.0001 0.0012959 -1.9193e-20)
(15.0001 0.00129591 -3.8416e-20)
(15.0001 0.00129579 1.46934e-20)
(15.0001 0.00129505 1.63529e-20)
(15.0001 0.00129422 -2.24073e-20)
(15.0002 0.00129311 -3.56194e-23)
(15.0002 0.00129169 1.48757e-20)
(15.0002 0.00128983 3.82334e-20)
(15.0002 0.00128742 -4.35779e-20)
(15.0002 0.00128493 -1.90136e-20)
(15.0003 0.00128216 -3.59495e-23)
(15.0003 0.00127896 6.88665e-21)
(15.0003 0.00127531 4.31314e-21)
(15.0003 0.00127161 1.57022e-20)
(15.0003 0.00126762 -1.90334e-20)
(15.0004 0.00126298 8.91697e-21)
(15.0004 0.00125812 1.92127e-22)
(15.0004 0.00125285 -9.86806e-21)
(15.0004 0.00124759 4.82024e-20)
(15.0004 0.00124179 -1.4883e-22)
(15.0005 0.00123571 -3.75498e-20)
(15.0005 0.0012289 -3.06858e-20)
(15.0005 0.00122227 6.69421e-23)
(15.0005 0.00121509 4.43005e-20)
(15.0005 0.00120737 -1.33291e-20)
(15.0006 0.0011997 1.86866e-20)
(15.0006 0.0011916 2.85065e-20)
(15.0006 0.00118304 -3.3231e-20)
(15.0006 0.00117431 -3.70581e-20)
(15.0006 0.00116521 5.28993e-20)
(15.0007 0.00115575 3.63351e-20)
(15.0007 0.00114566 -1.64334e-20)
(15.0007 0.00113553 -2.05407e-22)
(15.0007 0.00112507 -3.5953e-22)
(15.0007 0.00111423 -1.82268e-20)
(15.0007 0.00110318 -5.47112e-20)
(15.0008 0.00109154 1.03173e-21)
(15.0008 0.00107998 5.68611e-20)
(15.0008 0.00106788 3.76428e-20)
(15.0008 0.00105522 -2.43616e-21)
(15.0008 0.00104264 -1.62446e-22)
(15.0008 0.00102951 3.62848e-21)
(15.0009 0.00101602 0)
(15.0009 0.00100232 4.47875e-21)
(15.0009 0.000988368 1.76456e-20)
(15.0009 0.000973623 1.69896e-20)
(15.0009 0.000959123 -3.43574e-20)
(15.0009 0.000944072 -6.24502e-21)
(15.001 0.000928747 1.66598e-20)
(15.001 0.000912938 7.58505e-21)
(15.001 0.000897343 3.24371e-20)
(15.001 0.000881173 -2.47553e-20)
(15.001 0.000864263 3.29997e-20)
(15.001 0.000847583 -2.57834e-20)
(15.001 0.000830328 4.25821e-20)
(15.001 0.000812925 -4.29064e-20)
(15.0011 0.0007954 1.11049e-20)
(15.0011 0.000777456 2.61572e-20)
(15.0011 0.00075892 3.85454e-20)
(15.0011 0.000740633 1.53175e-20)
(15.0011 0.000721375 1.18235e-20)
(15.0011 0.000702356 1.55738e-20)
(15.0011 0.000683258 1.43991e-20)
(15.0011 0.00066359 -4.22745e-20)
(15.0011 0.000644084 -4.23869e-20)
(15.0011 0.000623914 1.47102e-20)
(15.0011 0.000603582 -1.41871e-20)
(15.0011 0.000583239 3.49186e-22)
(15.0011 0.000562507 -1.42592e-20)
(15.0011 0.000541638 -8.2074e-20)
(15.0011 0.000520667 6.09082e-22)
(15.0012 0.000499612 4.07785e-20)
(15.0012 0.000478219 2.7844e-20)
(15.0012 0.000456606 2.34492e-20)
(15.0011 0.00043537 -6.39772e-20)
(15.0011 0.000413649 2.57836e-20)
(15.0011 0.000392281 1.40458e-20)
(15.0011 0.000370386 2.4937e-20)
(15.0011 0.000348847 2.02008e-20)
(15.0011 0.000327296 -1.35351e-20)
(15.0011 0.000305882 -9.41711e-21)
(15.0011 0.00028421 -2.97172e-20)
(15.0011 0.000263192 -2.37129e-20)
(15.0011 0.000242303 -8.5374e-21)
(15.0011 0.00022154 -2.35571e-20)
(15.0011 0.000201553 5.75396e-21)
(15.001 0.000181717 -5.44099e-21)
(15.001 0.000162625 5.18543e-21)
(15.001 0.00014384 -3.39887e-22)
(15.001 0.000125126 -7.33058e-21)
(15.001 0.000107639 5.28533e-21)
(15.0009 9.0652e-05 1.56051e-20)
(15.0009 7.28097e-05 -1.34453e-21)
(15.0008 5.06022e-05 -2.32143e-22)
(15.0007 2.74463e-05 -4.03414e-21)
(15.0005 1.67577e-05 2.09699e-21)
(15.0008 2.95934e-05 -3.41618e-22)
(15.0021 1.25217e-05 -3.06014e-22)
(14.9971 5.19288e-06 1.29112e-22)
(14.9986 4.29362e-05 1.20974e-22)
(14.9992 3.78008e-05 6.02424e-22)
(14.9991 3.67421e-05 -1.8416e-21)
(14.9989 5.67614e-05 -1.87224e-21)
(14.9988 8.77363e-05 7.95792e-21)
(14.9987 0.000116788 -2.06034e-21)
(14.9987 0.00014284 0)
(14.9986 0.000168402 -1.57001e-20)
(14.9986 0.000195301 2.43566e-20)
(14.9986 0.00022282 -2.14919e-20)
(14.9985 0.00025077 4.74229e-21)
(14.9985 0.00027925 4.95896e-21)
(14.9985 0.000308251 -1.96888e-20)
(14.9985 0.000338235 1.49178e-20)
(14.9984 0.000368607 7.20068e-21)
(14.9984 0.000399251 -3.54972e-20)
(14.9984 0.00043065 -3.66315e-20)
(14.9984 0.000462094 1.10785e-20)
(14.9984 0.00049392 1.17233e-20)
(14.9984 0.000526028 4.10899e-20)
(14.9983 0.00055842 9.46457e-21)
(14.9983 0.000590803 1.23459e-20)
(14.9983 0.000623475 -2.25962e-20)
(14.9983 0.000655832 1.05008e-20)
(14.9983 0.000688569 -4.62607e-20)
(14.9983 0.000721336 4.69558e-20)
(14.9983 0.000753787 1.10527e-20)
(14.9983 0.000786201 1.16465e-20)
(14.9983 0.000818725 -1.17003e-20)
(14.9983 0.000851014 -2.46375e-20)
(14.9983 0.00088323 3.6869e-20)
(14.9983 0.00091541 -6.1807e-20)
(14.9983 0.000947443 -3.80087e-20)
(14.9983 0.00097891 5.08505e-20)
(14.9983 0.00101058 4.90734e-20)
(14.9983 0.00104161 2.45172e-20)
(14.9984 0.00107252 -1.35574e-20)
(14.9984 0.00110361 1.04901e-20)
(14.9984 0.0011339 -4.84541e-20)
(14.9984 0.00116415 6.24148e-20)
(14.9984 0.00119409 1.44845e-20)
(14.9984 0.00122351 2.37698e-20)
(14.9984 0.00125293 2.3605e-20)
(14.9984 0.00128197 0)
(14.9985 0.00131032 -1.49485e-20)
(14.9985 0.00133875 6.95877e-21)
(14.9985 0.00136653 3.84922e-20)
(14.9985 0.0013938 -3.11536e-20)
(14.9985 0.00142095 -2.22061e-20)
(14.9985 0.00144773 2.81551e-20)
(14.9986 0.00147419 -3.75544e-20)
(14.9986 0.00149975 -2.66837e-20)
(14.9986 0.0015255 5.81496e-20)
(14.9986 0.00155051 1.61631e-20)
(14.9987 0.00157525 2.04959e-20)
(14.9987 0.00159938 4.33523e-20)
(14.9987 0.00162317 3.09603e-21)
(14.9987 0.00164643 -3.3387e-20)
(14.9987 0.00166943 3.55211e-20)
(14.9988 0.00169184 5.24883e-20)
(14.9988 0.00171358 1.81096e-20)
(14.9988 0.00173519 1.70238e-20)
(14.9988 0.00175627 1.21338e-22)
(14.9989 0.00177678 -5.12291e-20)
(14.9989 0.00179679 3.30525e-20)
(14.9989 0.00181642 1.73997e-20)
(14.999 0.00183564 1.57914e-20)
(14.999 0.00185426 -3.29845e-20)
(14.999 0.00187233 -2.09721e-23)
(14.999 0.00188993 3.35765e-21)
(14.9991 0.00190724 -1.77164e-20)
(14.9991 0.00192397 -2.25109e-20)
(14.9991 0.00193992 3.106e-20)
(14.9992 0.00195557 3.07587e-20)
(14.9992 0.00197088 -1.21587e-20)
(14.9992 0.0019855 -1.16998e-20)
(14.9993 0.00199969 -4.07225e-20)
(14.9993 0.00201326 7.52487e-21)
(14.9993 0.00202638 -1.01163e-20)
(14.9993 0.0020387 -3.70792e-20)
(14.9994 0.00205084 4.64309e-20)
(14.9994 0.00206243 1.01061e-21)
(14.9994 0.00207357 -3.74097e-20)
(14.9995 0.00208378 -6.23096e-23)
(14.9995 0.00209365 4.57415e-23)
(14.9995 0.00210313 -2.57979e-20)
(14.9996 0.00211215 1.88912e-20)
(14.9996 0.00212046 3.20157e-20)
(14.9996 0.00212827 5.46518e-21)
(14.9997 0.00213565 4.88871e-21)
(14.9997 0.00214232 2.54601e-23)
(14.9997 0.00214849 -2.30884e-20)
(14.9998 0.00215409 -3.49927e-20)
(14.9998 0.00215924 -1.92814e-20)
(14.9998 0.00216404 5.78381e-20)
(14.9999 0.00216792 1.7468e-20)
(14.9999 0.00217138 -1.93494e-20)
(14.9999 0.0021741 1.85537e-20)
(15 0.00217657 3.16914e-22)
(15 0.00217841 -1.96476e-20)
(15.0001 0.00217962 7.36776e-22)
(15.0001 0.00218057 0)
(15.0001 0.00218079 1.76952e-21)
(15.0002 0.00218057 -1.71372e-20)
(15.0002 0.00217942 -2.79747e-21)
(15.0002 0.00217791 2.27489e-20)
(15.0003 0.00217594 -2.71242e-20)
(15.0003 0.00217339 -1.93662e-20)
(15.0003 0.00217032 1.25004e-24)
(15.0004 0.00216651 -1.6481e-23)
(15.0004 0.00216225 3.87183e-20)
(15.0004 0.00215747 1.92434e-20)
(15.0005 0.00215196 -1.92682e-20)
(15.0005 0.00214595 1.9296e-20)
(15.0005 0.00213953 2.72156e-20)
(15.0006 0.00213274 -3.85305e-20)
(15.0006 0.00212497 -2.93263e-20)
(15.0006 0.00211671 9.66878e-21)
(15.0007 0.00210788 4.83078e-20)
(15.0007 0.00209883 1.04682e-20)
(15.0007 0.00208891 -3.01053e-20)
(15.0008 0.00207853 0)
(15.0008 0.00206745 1.90654e-20)
(15.0008 0.0020559 3.15162e-20)
(15.0009 0.0020436 -1.89599e-20)
(15.0009 0.00203091 -1.88353e-20)
(15.0009 0.00201788 1.88945e-20)
(15.001 0.002004 -2.9234e-20)
(15.001 0.00198946 -1.86946e-20)
(15.001 0.00197458 1.87488e-20)
(15.0011 0.00195917 3.46544e-20)
(15.0011 0.00194314 -5.16659e-20)
(15.0011 0.00192643 -1.47762e-21)
(15.0012 0.00190923 -1.64091e-20)
(15.0012 0.00189159 1.78007e-20)
(15.0012 0.00187336 -3.66808e-20)
(15.0013 0.00185449 1.83504e-20)
(15.0013 0.00183499 3.74813e-20)
(15.0013 0.0018153 1.9807e-20)
(15.0013 0.00179484 -1.60657e-20)
(15.0014 0.00177368 -1.77398e-20)
(15.0014 0.00175218 5.68585e-20)
(15.0014 0.00173005 -1.72421e-22)
(15.0015 0.00170749 -1.76431e-20)
(15.0015 0.0016842 0)
(15.0015 0.00166055 4.55028e-20)
(15.0015 0.00163603 -4.63312e-20)
(15.0016 0.00161164 0)
(15.0016 0.00158618 2.39331e-20)
(15.0016 0.00156031 -2.43108e-20)
(15.0016 0.00153394 1.71421e-20)
(15.0017 0.00150737 7.77521e-21)
(15.0017 0.00148014 3.41725e-20)
(15.0017 0.0014521 -2.35622e-22)
(15.0017 0.00142407 -5.16419e-20)
(15.0017 0.00139517 1.62629e-20)
(15.0018 0.00136576 -6.31507e-20)
(15.0018 0.00133624 4.27303e-20)
(15.0018 0.00130603 -2.69539e-20)
(15.0018 0.00127538 -1.58143e-20)
(15.0018 0.00124456 -2.70988e-20)
(15.0019 0.00121273 1.173e-20)
(15.0019 0.00118098 4.36977e-20)
(15.0019 0.00114897 -1.3532e-20)
(15.0019 0.00111612 -7.22264e-20)
(15.0019 0.00108336 -5.56942e-20)
(15.0019 0.00104981 4.23144e-20)
(15.0019 0.00101596 -5.61019e-20)
(15.0019 0.000981917 0)
(15.0019 0.000947641 -4.17665e-20)
(15.002 0.000912932 -1.38703e-20)
(15.002 0.000878192 5.35351e-20)
(15.002 0.000843239 -2.73598e-20)
(15.002 0.000807743 4.16092e-20)
(15.002 0.000772097 -5.11459e-20)
(15.002 0.000736708 2.66815e-20)
(15.002 0.000700754 3.70848e-20)
(15.002 0.000664934 3.66141e-20)
(15.002 0.000628893 3.52753e-20)
(15.002 0.000592964 3.19443e-21)
(15.0019 0.000557144 6.53081e-22)
(15.0019 0.000521546 -1.37682e-20)
(15.0019 0.000485755 1.28218e-20)
(15.0019 0.000450608 0)
(15.0019 0.000415531 -2.70803e-20)
(15.0019 0.000380644 3.60616e-20)
(15.0019 0.000346669 -1.68687e-20)
(15.0018 0.000313037 -8.5573e-21)
(15.0018 0.000279756 4.51931e-21)
(15.0018 0.000246642 -3.22689e-20)
(15.0017 0.000213996 4.25579e-21)
(15.0017 0.000182691 1.09774e-20)
(15.0016 0.000150354 1.80387e-21)
(15.0016 0.000113607 2.32518e-22)
(15.0014 7.3787e-05 -2.47193e-21)
(15.0011 4.8049e-05 9.9376e-22)
(15.0011 5.04158e-05 -1.36716e-22)
(15.0019 5.74437e-05 -1.46914e-21)
(15.0038 7.20667e-06 1.10524e-22)
(14.9962 8.33076e-06 -1.13578e-22)
(14.9977 4.88254e-05 5.87283e-22)
(14.9986 6.66514e-05 0)
(14.9987 6.13515e-05 0)
(14.9985 7.26479e-05 -9.54251e-22)
(14.9983 0.000109289 -1.53939e-21)
(14.9982 0.000152946 -3.39726e-21)
(14.9981 0.000192831 -1.67113e-21)
(14.998 0.000230212 -5.35693e-21)
(14.998 0.000268521 8.41107e-21)
(14.9979 0.000307761 -5.84408e-21)
(14.9979 0.000347677 -5.07401e-21)
(14.9979 0.00038814 -7.85203e-21)
(14.9978 0.000429399 4.74736e-23)
(14.9978 0.000471618 -3.10986e-20)
(14.9978 0.00051435 2.31806e-20)
(14.9977 0.000557535 7.32696e-21)
(14.9977 0.000601513 1.09739e-20)
(14.9977 0.000645806 -2.75781e-20)
(14.9977 0.000690498 1.17196e-20)
(14.9977 0.000735378 -4.18007e-20)
(14.9976 0.000780751 3.52584e-22)
(14.9976 0.000826242 9.23246e-21)
(14.9976 0.000872135 -1.19345e-20)
(14.9976 0.000917628 2.24781e-20)
(14.9976 0.000963481 3.21085e-22)
(14.9976 0.00100935 -4.55497e-20)
(14.9976 0.00105502 -2.40994e-20)
(14.9976 0.0011005 1.17903e-20)
(14.9976 0.00114626 4.51762e-23)
(14.9976 0.00119175 0)
(14.9976 0.00123701 2.45955e-20)
(14.9976 0.00128214 3.7132e-20)
(14.9976 0.00132713 -2.45857e-20)
(14.9976 0.00137164 -2.61696e-20)
(14.9976 0.0014161 -2.49765e-20)
(14.9977 0.00146003 -2.4454e-20)
(14.9977 0.00150376 -2.49304e-20)
(14.9977 0.00154739 3.20835e-21)
(14.9977 0.00159016 -4.88292e-20)
(14.9977 0.00163283 -3.88573e-20)
(14.9977 0.001675 9.8952e-21)
(14.9978 0.00171662 9.34478e-21)
(14.9978 0.0017582 1.47376e-20)
(14.9978 0.00179928 2.3941e-20)
(14.9978 0.00183943 -2.02005e-22)
(14.9978 0.00187954 1.53837e-20)
(14.9979 0.00191887 4.61423e-20)
(14.9979 0.00195771 2.27789e-20)
(14.9979 0.00199608 -1.56501e-20)
(14.9979 0.002034 2.20436e-20)
(14.998 0.00207131 -1.18805e-20)
(14.998 0.00210794 -1.59242e-20)
(14.998 0.00214428 -1.65438e-20)
(14.9981 0.00217975 1.65009e-20)
(14.9981 0.00221483 2.49017e-20)
(14.9981 0.00224899 -1.66952e-20)
(14.9982 0.0022828 3.66363e-20)
(14.9982 0.00231596 -2.66775e-21)
(14.9982 0.00234853 -5.53567e-20)
(14.9983 0.0023804 -1.71365e-20)
(14.9983 0.00241149 1.71428e-20)
(14.9983 0.00244213 1.73766e-20)
(14.9984 0.002472 5.22916e-20)
(14.9984 0.00250122 -1.71934e-20)
(14.9984 0.00252984 -3.54255e-20)
(14.9985 0.00255766 1.30819e-21)
(14.9985 0.00258485 1.60176e-20)
(14.9986 0.00261146 -1.77908e-20)
(14.9986 0.00263734 1.50435e-20)
(14.9986 0.00266249 3.60585e-20)
(14.9987 0.00268691 2.8617e-20)
(14.9987 0.00271074 -5.01661e-20)
(14.9988 0.00273361 -3.16588e-20)
(14.9988 0.00275581 1.83035e-20)
(14.9989 0.0027776 6.03976e-21)
(14.9989 0.00279854 1.84329e-20)
(14.9989 0.00281862 7.09844e-21)
(14.999 0.0028379 -2.20358e-20)
(14.999 0.00285666 2.41611e-21)
(14.9991 0.00287446 -3.89124e-20)
(14.9991 0.0028917 2.79826e-20)
(14.9992 0.00290815 -9.61814e-21)
(14.9992 0.00292396 -5.68506e-20)
(14.9993 0.00293869 1.08833e-20)
(14.9993 0.00295287 3.81098e-20)
(14.9993 0.00296631 3.7592e-23)
(14.9994 0.00297907 1.24938e-20)
(14.9994 0.00299101 -1.91043e-20)
(14.9995 0.0030022 -5.22531e-20)
(14.9995 0.00301253 5.06041e-21)
(14.9996 0.00302218 3.98286e-24)
(14.9996 0.00303118 1.93983e-20)
(14.9997 0.00303924 1.94642e-20)
(14.9997 0.00304653 1.05313e-20)
(14.9998 0.00305319 1.46255e-20)
(14.9998 0.00305875 -1.76348e-20)
(14.9999 0.00306368 -1.96258e-20)
(14.9999 0.00306768 -1.96465e-20)
(15 0.00307129 -1.93405e-20)
(15 0.00307391 5.89e-20)
(15.0001 0.00307555 1.96854e-20)
(15.0001 0.00307681 -2.09343e-20)
(15.0002 0.00307712 -1.96963e-20)
(15.0002 0.00307678 -2.19663e-20)
(15.0003 0.00307535 2.252e-20)
(15.0003 0.00307325 -4.61294e-20)
(15.0004 0.00307037 -1.96227e-20)
(15.0004 0.00306652 6.33669e-20)
(15.0005 0.00306201 3.92073e-20)
(15.0005 0.00305678 -3.37203e-20)
(15.0006 0.00305066 -7.42676e-21)
(15.0006 0.00304376 -5.609e-23)
(15.0007 0.00303598 4.59459e-23)
(15.0007 0.00302751 3.90643e-20)
(15.0008 0.00301823 -8.20726e-21)
(15.0008 0.00300838 -2.81179e-20)
(15.0009 0.00299737 -1.02691e-20)
(15.0009 0.00298569 2.92739e-20)
(15.001 0.00297315 3.8736e-20)
(15.001 0.00295999 0)
(15.001 0.00294581 -1.93464e-20)
(15.0011 0.00293105 -7.44179e-21)
(15.0011 0.00291542 0)
(15.0012 0.00289885 -1.28333e-20)
(15.0012 0.00288134 -1.33453e-20)
(15.0013 0.00286336 -1.38388e-20)
(15.0013 0.00284463 -1.91236e-20)
(15.0014 0.00282484 -1.47424e-20)
(15.0014 0.00280439 1.89236e-20)
(15.0015 0.0027831 -1.90005e-20)
(15.0015 0.00276098 8.85443e-23)
(15.0016 0.00273804 2.07741e-20)
(15.0016 0.00271441 1.71871e-20)
(15.0016 0.00269005 1.45553e-22)
(15.0017 0.00266478 -3.6642e-20)
(15.0017 0.00263881 -1.84704e-20)
(15.0018 0.00261206 0)
(15.0018 0.00258442 -2.18715e-23)
(15.0019 0.00255621 -1.71227e-21)
(15.0019 0.00252709 -4.13033e-20)
(15.0019 0.00249713 6.0465e-20)
(15.002 0.00246645 2.11036e-20)
(15.002 0.00243497 -7.96223e-20)
(15.0021 0.00240304 0)
(15.0021 0.00237 1.79387e-20)
(15.0021 0.00233644 5.10031e-21)
(15.0022 0.00230183 6.15102e-21)
(15.0022 0.00226681 1.74026e-20)
(15.0022 0.00223093 -2.42786e-20)
(15.0023 0.00219428 0)
(15.0023 0.002157 1.73004e-20)
(15.0023 0.0021191 -8.39456e-21)
(15.0024 0.00208053 8.678e-21)
(15.0024 0.00204098 -5.96046e-20)
(15.0024 0.00200124 2.65355e-20)
(15.0025 0.00196033 -2.62337e-22)
(15.0025 0.00191873 -2.65919e-20)
(15.0025 0.00187695 1.60421e-20)
(15.0026 0.0018344 -1.62418e-20)
(15.0026 0.00179112 -1.58203e-20)
(15.0026 0.00174759 5.94449e-20)
(15.0026 0.00170292 1.50899e-20)
(15.0026 0.00165796 1.28592e-20)
(15.0027 0.0016126 -4.35191e-20)
(15.0027 0.00156646 -5.8122e-20)
(15.0027 0.00152007 4.33671e-20)
(15.0027 0.00147294 -1.43065e-20)
(15.0027 0.00142544 2.92248e-22)
(15.0028 0.00137759 1.38333e-20)
(15.0028 0.00132926 0)
(15.0028 0.00128039 5.60123e-20)
(15.0028 0.00123162 -2.78218e-20)
(15.0028 0.00118239 -2.75815e-20)
(15.0028 0.00113267 -5.45092e-20)
(15.0028 0.00108271 -1.44475e-20)
(15.0028 0.00103291 3.82747e-20)
(15.0028 0.000982354 -2.59143e-20)
(15.0028 0.000931983 -1.12221e-20)
(15.0028 0.000881451 -2.44421e-20)
(15.0028 0.000831192 -3.82199e-20)
(15.0028 0.000780834 3.67196e-20)
(15.0028 0.00073061 3.69417e-22)
(15.0027 0.000680413 -3.8463e-22)
(15.0027 0.000630796 2.07733e-20)
(15.0027 0.000581359 2.6653e-20)
(15.0027 0.000532129 1.06864e-20)
(15.0027 0.000483659 3.57328e-21)
(15.0026 0.000435733 -1.45241e-20)
(15.0026 0.000388009 -1.38998e-20)
(15.0025 0.000340633 3.46345e-22)
(15.0025 0.000293946 1.37583e-20)
(15.0024 0.000247874 -1.69197e-20)
(15.0024 0.000197889 6.81816e-21)
(15.0022 0.000142215 2.57915e-23)
(15.0019 9.51409e-05 0)
(15.0017 8.12034e-05 -1.03157e-21)
(15.0019 8.93411e-05 -1.29095e-21)
(15.0031 6.55665e-05 2.2818e-22)
(15.0051 1.14925e-05 1.6322e-22)
(14.9954 8.3668e-06 -1.8491e-22)
(14.9968 5.12692e-05 -8.78099e-22)
(14.9978 9.15259e-05 0)
(14.9982 9.45897e-05 1.91446e-21)
(14.9981 9.51953e-05 9.83878e-22)
(14.9978 0.000127327 -2.5367e-21)
(14.9976 0.000180665 -5.38186e-21)
(14.9975 0.000235034 -2.3517e-21)
(14.9974 0.000285277 2.00512e-21)
(14.9974 0.00033522 -9.6823e-21)
(14.9973 0.000386093 1.49804e-20)
(14.9973 0.000437799 -7.57732e-21)
(14.9972 0.000490182 1.85562e-20)
(14.9972 0.000543561 -5.3949e-23)
(14.9971 0.000597878 9.4912e-21)
(14.9971 0.000653049 -6.9182e-21)
(14.9971 0.000708775 3.53231e-20)
(14.997 0.000765173 2.60617e-20)
(14.997 0.000822145 -7.62726e-21)
(14.997 0.000879863 -6.5618e-22)
(14.997 0.000937812 -1.1427e-20)
(14.9969 0.000996097 -9.5207e-21)
(14.9969 0.0010548 -2.20461e-20)
(14.9969 0.00111382 -9.83907e-21)
(14.9969 0.00117254 -2.32294e-20)
(14.9969 0.00123158 4.4795e-20)
(14.9969 0.0012908 -1.25399e-20)
(14.9969 0.00134985 -2.40691e-20)
(14.9969 0.00140862 -2.42686e-20)
(14.9969 0.00146785 -3.62487e-20)
(14.9969 0.00152659 -1.23371e-20)
(14.9969 0.00158516 0)
(14.9969 0.00164355 -3.74077e-20)
(14.9969 0.00170172 -2.51284e-20)
(14.9969 0.00175949 1.34157e-21)
(14.9969 0.00181711 -1.15612e-20)
(14.997 0.00187411 -2.50276e-20)
(14.997 0.00193085 -3.86269e-20)
(14.997 0.00198723 -2.51128e-20)
(14.997 0.00204283 4.97643e-20)
(14.997 0.00209821 -4.13126e-21)
(14.9971 0.00215318 -3.9214e-20)
(14.9971 0.00220732 -9.74351e-21)
(14.9971 0.00226123 2.20345e-22)
(14.9971 0.00231466 -1.97222e-22)
(14.9972 0.0023669 -2.36208e-20)
(14.9972 0.0024189 2.33812e-20)
(14.9972 0.00247029 -2.31454e-20)
(14.9973 0.0025208 2.29341e-20)
(14.9973 0.00257082 2.1878e-22)
(14.9973 0.00262026 1.57277e-20)
(14.9974 0.00266876 2.2672e-20)
(14.9974 0.00271666 5.4179e-21)
(14.9974 0.00276396 -5.1698e-21)
(14.9975 0.00281025 4.89023e-21)
(14.9975 0.00285597 2.08516e-20)
(14.9976 0.00290071 -2.05133e-20)
(14.9976 0.00294475 -2.04905e-20)
(14.9977 0.00298802 3.70536e-20)
(14.9977 0.0030305 0)
(14.9977 0.00307215 -1.9212e-20)
(14.9978 0.00311303 -3.7634e-20)
(14.9978 0.00315301 1.84115e-20)
(14.9979 0.00319195 -1.80103e-20)
(14.9979 0.00323024 3.52382e-20)
(14.998 0.00326774 1.76988e-20)
(14.998 0.00330413 1.68891e-20)
(14.9981 0.00333965 -1.69843e-21)
(14.9981 0.0033744 -1.79816e-20)
(14.9982 0.00340841 -3.10191e-20)
(14.9982 0.00344139 1.51289e-20)
(14.9983 0.00347314 1.44656e-20)
(14.9983 0.00350424 4.34667e-21)
(14.9984 0.00353443 -1.36498e-20)
(14.9985 0.0035636 -7.8572e-21)
(14.9985 0.00359194 -1.26242e-20)
(14.9986 0.0036193 -1.23289e-20)
(14.9986 0.00364566 3.05525e-20)
(14.9987 0.003671 -3.76137e-20)
(14.9987 0.00369558 -1.43149e-22)
(14.9988 0.00371911 1.91047e-20)
(14.9989 0.00374153 -1.90754e-20)
(14.9989 0.00376302 1.85926e-20)
(14.999 0.00378382 -1.75952e-20)