/*--------------------------------*- C++ -*----------------------------------*\
  =========                 |
  \\      /  F ield         | OpenFOAM: The Open Source CFD Toolbox
   \\    /   O peration     | Website:  https://openfoam.org
    \\  /    A nd           | Version:  9
     \\/     M anipulation  |
\*---------------------------------------------------------------------------*/
FoamFile
{
    format      ascii;
    class       volScalarField;
    location    "0.05";
    object      nut;
}
// * * * * * * * * * * * * * * * * * * * * * * * * * * * * * * * * * * * * * //

dimensions      [0 2 -1 0 0 0 0];

internalField   nonuniform List<scalar> 
61475
(
0.000854871
0.000117271
1.89752e-05
4.39626e-06
1.5905e-06
7.65622e-07
5.3285e-07
5.09899e-07
4.5793e-07
3.81834e-07
5.604e-07
8.15313e-07
4.18355e-07
4.3222e-07
3.54524e-07
0.00241758
0.00066338
0.000330109
0.000211325
0.000150888
0.000113367
9.77583e-05
9.76046e-05
9.15559e-05
8.0654e-05
6.90918e-05
5.91584e-05
5.06823e-05
4.32806e-05
3.82741e-05
0.00379562
0.0012331
0.000635605
0.00041178
0.000299964
0.000231144
0.000183286
0.000159865
0.000138534
0.00011767
9.89355e-05
8.33901e-05
7.23442e-05
6.30917e-05
5.86923e-05
0.00500008
0.0018343
0.000948547
0.000607193
0.000435425
0.000330196
0.000255071
0.000203057
0.000164837
0.000135107
0.000111683
9.45952e-05
8.74587e-05
8.22372e-05
7.82165e-05
0.0060241
0.00240615
0.0012499
0.000790851
0.000556469
0.0004114
0.000315974
0.000250934
0.000204967
0.000171177
0.000145394
0.000125405
0.000114378
0.000104682
9.55768e-05
0.00685284
0.00290649
0.00152206
0.000952626
0.000657163
0.000483297
0.000372871
0.000299047
0.000247621
0.000209875
0.000180463
0.00015556
0.000135567
0.000119399
0.000106349
0.00745964
0.00329807
0.00174702
0.00108033
0.000740179
0.000544452
0.000421856
0.000340259
0.000283382
0.000240838
0.000206445
0.000178203
0.000155188
0.000136409
0.000120911
0.00779284
0.00352238
0.00186604
0.00114322
0.00078129
0.000575889
0.000447372
0.000361069
0.000300414
0.000254423
0.000218037
0.000188813
0.000164953
0.000144717
0.000127478
0.0076808
0.00345072
0.00183098
0.00111922
0.000763292
0.000563099
0.000437378
0.00035241
0.000292317
0.0002475
0.000211663
0.000182824
0.000159246
0.000139608
0.00012266
0.0073449
0.00324747
0.00172643
0.0010542
0.000716358
0.000526784
0.000409864
0.000329774
0.000272307
0.000229297
0.000195749
0.000168661
0.000146352
0.000128006
0.000111323
0.00674644
0.00290373
0.0015571
0.000954692
0.000644899
0.00047056
0.000363572
0.000292505
0.00024147
0.000201155
0.00016939
0.000143748
0.000123029
0.000105794
9.15206e-05
0.00588795
0.00239928
0.00129246
0.000809534
0.000547091
0.000394413
0.000299003
0.000235891
0.000191841
0.000158858
0.000133253
0.000110259
9.07768e-05
7.70784e-05
6.94804e-05
0.00474187
0.00174668
0.000939972
0.00060084
0.000420754
0.000306582
0.000227216
0.000171585
0.000132185
0.000102642
8.07127e-05
6.39701e-05
5.1319e-05
4.55298e-05
3.63909e-05
0.00324149
0.0010231
0.000532936
0.000345657
0.000247994
0.000184899
0.000138825
0.00010724
9.10679e-05
7.10739e-05
5.34549e-05
3.89918e-05
2.6707e-05
1.76455e-05
1.91075e-05
0.00126003
0.000232194
7.39278e-05
2.39652e-05
8.64312e-06
3.55548e-06
1.62487e-06
8.53816e-07
5.66033e-07
3.74257e-07
3.20874e-07
3.25546e-07
2.9585e-07
2.51355e-07
2.65818e-07
4.44522e-07
8.05006e-07
1.19159e-06
1.41454e-06
1.47368e-06
1.28854e-06
9.77547e-07
6.68828e-07
4.38834e-07
2.87769e-07
1.97703e-07
1.3638e-07
9.13285e-08
6.22172e-08
5.53393e-08
3.8815e-05
4.2945e-05
4.69219e-05
4.94653e-05
5.02973e-05
4.92642e-05
4.60371e-05
3.56452e-05
2.6214e-05
1.87698e-05
1.29622e-05
8.58124e-06
5.53708e-06
3.49707e-06
2.14631e-06
6.1226e-05
6.49621e-05
6.79813e-05
7.04578e-05
7.17891e-05
7.15891e-05
6.9622e-05
6.46993e-05
5.62166e-05
4.75427e-05
3.87169e-05
3.01634e-05
2.21462e-05
1.51499e-05
9.53277e-06
7.86054e-05
7.89599e-05
8.059e-05
8.14376e-05
8.16854e-05
8.10842e-05
7.9509e-05
7.62149e-05
7.03889e-05
6.38481e-05
5.64565e-05
4.82886e-05
3.92606e-05
2.99892e-05
2.13201e-05
9.13479e-05
9.04607e-05
8.8935e-05
8.79344e-05
8.66659e-05
8.49204e-05
8.24846e-05
7.92033e-05
7.50048e-05
7.03975e-05
6.49799e-05
5.84999e-05
5.0828e-05
4.20756e-05
3.28297e-05
0.000101386
9.74988e-05
9.39887e-05
9.08338e-05
8.72785e-05
8.38354e-05
8.03059e-05
7.66521e-05
7.32236e-05
6.97122e-05
6.59529e-05
6.15701e-05
5.6104e-05
4.90931e-05
4.09041e-05
0.000111512
0.000103254
9.63033e-05
8.97321e-05
8.39524e-05
7.87134e-05
7.40494e-05
7.00504e-05
6.67609e-05
6.39634e-05
6.14166e-05
5.88544e-05
5.55028e-05
5.09195e-05
4.48478e-05
0.000114447
0.000103142
9.34592e-05
8.49472e-05
7.75492e-05
7.10606e-05
6.55511e-05
6.10365e-05
5.74046e-05
5.46593e-05
5.27043e-05
5.13052e-05
4.98533e-05
4.78142e-05
4.44622e-05
0.000108538
9.61016e-05
8.5296e-05
7.58586e-05
6.7635e-05
6.05616e-05
5.46492e-05
4.9859e-05
4.61498e-05
4.35471e-05
4.19657e-05
4.11025e-05
4.06984e-05
4.04085e-05
3.96099e-05
9.63557e-05
8.32001e-05
7.18344e-05
6.22554e-05
5.43202e-05
4.78144e-05
4.25098e-05
3.81648e-05
3.47574e-05
3.23562e-05
3.07532e-05
2.99984e-05
3.00462e-05
3.07466e-05
3.1488e-05
7.74055e-05
6.53104e-05
5.55111e-05
4.77487e-05
4.1627e-05
3.66926e-05
3.25376e-05
2.84721e-05
2.4922e-05
2.22883e-05
2.05843e-05
1.97945e-05
1.99016e-05
2.08533e-05
2.2082e-05
5.64473e-05
4.72463e-05
4.1134e-05
3.67909e-05
3.32879e-05
2.99895e-05
2.63779e-05
2.17362e-05
1.78847e-05
1.51751e-05
1.34144e-05
1.24149e-05
1.21594e-05
1.24919e-05
1.31535e-05
2.90103e-05
2.76532e-05
2.71174e-05
2.64802e-05
2.55863e-05
2.41156e-05
2.22595e-05
1.96645e-05
1.66734e-05
1.38212e-05
1.12139e-05
8.82262e-06
7.18503e-06
6.3588e-06
6.09857e-06
1.92329e-05
1.96126e-05
2.00308e-05
1.97823e-05
1.9518e-05
1.78944e-05
1.63893e-05
1.42511e-05
1.18138e-05
9.40069e-06
7.17042e-06
5.14244e-06
2.99647e-06
2.04438e-06
1.55633e-06
2.78729e-07
2.73265e-07
2.56012e-07
2.3136e-07
4.34431e-07
1.65406e-07
1.49358e-07
1.40835e-07
1.29235e-07
1.12096e-07
9.37846e-08
7.76654e-08
5.85707e-08
1.3236e-07
5.41437e-08
5.81558e-08
6.0459e-08
6.27915e-08
6.37956e-08
6.56807e-08
6.87591e-08
7.19294e-08
7.54612e-08
7.57593e-08
7.63382e-08
8.59866e-08
1.03945e-07
1.41784e-07
2.24103e-07
4.02942e-07
1.88986e-06
1.55162e-06
1.23913e-06
9.98505e-07
9.03586e-07
8.41402e-07
7.80292e-07
7.14074e-07
6.33059e-07
5.44718e-07
4.9301e-07
4.77579e-07
5.26614e-07
7.37238e-07
1.28095e-06
7.99639e-06
6.64952e-06
5.59789e-06
4.75063e-06
3.91351e-06
3.16457e-06
2.51209e-06
1.95553e-06
1.48876e-06
1.10118e-06
8.05303e-07
5.7491e-07
4.43594e-07
5.61241e-07
8.76456e-07
1.86997e-05
1.60567e-05
1.36603e-05
1.15688e-05
9.79847e-06
8.2307e-06
6.73245e-06
5.35079e-06
4.12166e-06
3.05349e-06
2.18802e-06
1.47138e-06
1.00212e-06
6.91753e-07
9.87739e-07
2.97804e-05
2.65364e-05
2.32879e-05
2.01691e-05
1.73119e-05
1.48052e-05
1.25452e-05
1.03303e-05
8.23099e-06
6.29368e-06
4.61543e-06
3.16859e-06
2.13171e-06
1.29181e-06
1.55354e-06
3.77233e-05
3.4537e-05
3.117e-05
2.77225e-05
2.43213e-05
2.11166e-05
1.81982e-05
1.54169e-05
1.26395e-05
9.94272e-06
7.46792e-06
5.25825e-06
3.56305e-06
2.15582e-06
1.97891e-06
4.17573e-05
3.87163e-05
3.56424e-05
3.23835e-05
2.89951e-05
2.55933e-05
2.23048e-05
1.919e-05
1.60229e-05
1.28344e-05
9.785e-06
7.00784e-06
4.76663e-06
2.94483e-06
2.03527e-06
4.18037e-05
3.90984e-05
3.63239e-05
3.34187e-05
3.03239e-05
2.7087e-05
2.37916e-05
2.05295e-05
1.72562e-05
1.38997e-05
1.06308e-05
7.65512e-06
5.18497e-06
3.26193e-06
1.90363e-06
3.73892e-05
3.51541e-05
3.28259e-05
3.03401e-05
2.76733e-05
2.48156e-05
2.17903e-05
1.86609e-05
1.54945e-05
1.23585e-05
9.36061e-06
6.69265e-06
4.47818e-06
2.83133e-06
1.47871e-06
2.95624e-05
2.7664e-05
2.571e-05
2.36544e-05
2.14734e-05
1.91546e-05
1.6705e-05
1.41594e-05
1.15904e-05
9.09459e-06
6.76808e-06
4.76277e-06
3.13702e-06
1.97244e-06
9.91593e-07
2.05042e-05
1.89261e-05
1.73376e-05
1.57059e-05
1.40201e-05
1.22854e-05
1.05155e-05
8.7356e-06
6.99575e-06
5.36564e-06
3.90659e-06
2.69924e-06
1.7648e-06
1.12524e-06
6.16361e-07
1.19088e-05
1.07077e-05
9.5343e-06
8.37231e-06
7.22833e-06
6.1201e-06
5.06342e-06
4.07443e-06
3.17062e-06
2.3753e-06
1.70588e-06
1.17808e-06
8.05396e-07
5.90886e-07
4.11447e-07
5.22207e-06
4.43854e-06
3.73194e-06
3.09353e-06
2.52553e-06
2.03171e-06
1.61604e-06
1.27136e-06
9.87803e-07
7.57486e-07
5.77522e-07
4.41294e-07
3.95455e-07
4.95053e-07
3.77604e-07
1.20764e-06
9.23785e-07
7.06322e-07
5.40918e-07
4.17276e-07
3.65859e-07
3.49347e-07
3.43249e-07
3.39481e-07
3.34396e-07
3.41278e-07
3.66208e-07
4.66102e-07
6.59519e-07
6.21643e-07
5.30274e-08
4.74931e-08
4.69735e-08
4.76742e-08
4.84685e-08
4.99528e-08
5.23002e-08
5.51846e-08
5.65804e-08
5.50415e-08
6.46495e-08
8.7108e-08
1.41926e-07
2.15148e-07
4.54211e-07
0.0140413
0.0140414
0.0140416
0.0140418
0.0140419
0.014042
0.0140422
0.0140423
0.0140424
0.0140425
0.0140427
0.0140428
0.0140429
0.014043
0.0140431
0.0140432
0.0140433
0.0140434
0.0140435
0.0140436
0.0140437
0.0140438
0.0140439
0.014044
0.0140441
0.0140442
0.0140443
0.0140444
0.0140445
0.0140446
0.0140446
0.0140447
0.0140448
0.0140449
0.014045
0.014045
0.0140451
0.0140452
0.0140453
0.0140453
0.0140454
0.0140455
0.0140456
0.0140456
0.0140457
0.0140458
0.0140458
0.0140459
0.014046
0.014046
0.0140461
0.0140462
0.0140462
0.0140463
0.0140464
0.0140464
0.0140465
0.0140466
0.0140466
0.0140467
0.0140468
0.0140468
0.0140469
0.014047
0.014047
0.0140471
0.0140472
0.0140472
0.0140473
0.0140474
0.0140475
0.0140475
0.0140476
0.0140477
0.0140478
0.0140478
0.0140479
0.014048
0.0140481
0.0140481
0.0140482
0.0140483
0.0140483
0.0140484
0.0140485
0.0140486
0.0140486
0.0140487
0.0140488
0.0140489
0.0140489
0.014049
0.0140491
0.0140491
0.0140492
0.0140493
0.0140493
0.0140494
0.0140494
0.0140495
0.0140495
0.0140496
0.0140496
0.0140496
0.0140496
0.0140496
0.0140496
0.0140496
0.0140496
0.0140496
0.0140496
0.0140496
0.0140497
0.0140497
0.0140497
0.0140497
0.0140497
0.0140497
0.0140497
0.0140497
0.0140497
0.0140497
0.0140497
0.0140497
0.0140497
0.0140497
0.0140497
0.0140497
0.0140498
0.0140498
0.0140498
0.0140498
0.0140498
0.0140498
0.0140498
0.0140499
0.0140499
0.0140499
0.0140499
0.0140499
0.0140499
0.01405
0.01405
0.01405
0.01405
0.0140501
0.0140501
0.0140501
0.0140501
0.0140502
0.0140498
0.0140499
0.0140501
0.0140504
0.0140506
0.0140509
0.0140511
0.0140514
0.0140517
0.0140519
0.0140522
0.0140524
0.0140527
0.0140529
0.0140532
0.0140534
0.0140537
0.0140539
0.0140542
0.0140544
0.0140546
0.0140549
0.0140551
0.0140554
0.0140556
0.0140559
0.0140561
0.0140564
0.0140566
0.0140569
0.0140572
0.0140574
0.0140577
0.0140579
0.0140582
0.0140585
0.0140588
0.014059
0.0140593
0.0140596
0.0140599
0.0140602
0.0140605
0.0140608
0.0140611
0.0140615
0.0140618
0.0140622
0.0140625
0.0140629
0.0140633
0.0140636
0.014064
0.0140645
0.0140649
0.0140653
0.0140658
0.0140663
0.0140668
0.0140673
0.0140679
0.0140685
0.0140691
0.0140697
0.0140704
0.014071
0.0140716
0.0140722
0.0140728
0.0140734
0.0140739
0.0140745
0.0140751
0.0140756
0.0140762
0.0140767
0.0140773
0.0140778
0.0140783
0.0140788
0.0140793
0.0140798
0.0140803
0.0140808
0.0140813
0.0140818
0.0140823
0.0140827
0.0140832
0.0140837
0.0140841
0.0140846
0.014085
0.0140854
0.0140859
0.0140863
0.0140867
0.0140871
0.0140876
0.014088
0.0140884
0.0140888
0.0140892
0.0140896
0.0140899
0.0140903
0.0140906
0.0140909
0.0140912
0.0140915
0.0140918
0.014092
0.0140923
0.0140925
0.0140927
0.0140929
0.0140931
0.0140933
0.0140935
0.0140937
0.0140939
0.0140941
0.0140942
0.0140944
0.0140945
0.0140947
0.0140948
0.0140949
0.0140951
0.0140952
0.0140953
0.0140954
0.0140955
0.0140957
0.0140958
0.0140959
0.014096
0.0140961
0.0140962
0.0140962
0.0140963
0.0140964
0.0140965
0.0140966
0.0140967
0.0140967
0.0140968
0.0140969
0.0140969
0.0140969
0.0140313
0.0140312
0.0140311
0.014031
0.0140308
0.0140306
0.0140305
0.0140303
0.0140301
0.0140299
0.0140297
0.0140296
0.0140294
0.0140292
0.014029
0.0140289
0.0140287
0.0140285
0.0140284
0.0140282
0.0140281
0.0140279
0.0140278
0.0140276
0.0140275
0.0140274
0.0140273
0.0140273
0.0140272
0.0140272
0.0140272
0.0140272
0.0140272
0.0140272
0.0140272
0.0140272
0.0140272
0.0140273
0.0140273
0.0140273
0.0140274
0.0140274
0.0140275
0.0140276
0.0140276
0.0140277
0.0140278
0.0140279
0.014028
0.0140281
0.0140282
0.0140284
0.0140285
0.0140287
0.0140289
0.014029
0.0140292
0.0140295
0.0140297
0.01403
0.0140303
0.0140306
0.0140309
0.0140312
0.0140315
0.0140318
0.0140321
0.0140324
0.0140327
0.014033
0.0140334
0.0140337
0.014034
0.0140343
0.0140346
0.0140349
0.0140352
0.0140356
0.0140359
0.0140362
0.0140365
0.0140368
0.0140371
0.0140374
0.0140378
0.0140381
0.0140384
0.0140387
0.014039
0.0140393
0.0140397
0.01404
0.0140403
0.0140406
0.0140409
0.0140412
0.0140415
0.0140419
0.0140422
0.0140425
0.0140428
0.0140431
0.0140434
0.0140437
0.014044
0.0140443
0.0140446
0.014045
0.0140453
0.0140456
0.0140459
0.0140462
0.0140465
0.0140468
0.0140471
0.0140474
0.0140477
0.0140481
0.0140484
0.0140487
0.014049
0.0140493
0.0140496
0.0140499
0.0140502
0.0140505
0.0140509
0.0140512
0.0140515
0.0140518
0.0140521
0.0140524
0.0140527
0.014053
0.0140533
0.0140536
0.014054
0.0140543
0.0140546
0.0140549
0.0140552
0.0140555
0.0140558
0.0140561
0.0140564
0.0140567
0.014057
0.0140573
0.0140576
0.0140577
0.0140113
0.0140113
0.0140113
0.0140113
0.0140114
0.0140116
0.0140118
0.0140121
0.0140124
0.0140127
0.0140132
0.0140136
0.0140141
0.0140146
0.0140151
0.0140157
0.0140162
0.0140167
0.0140173
0.0140178
0.0140183
0.0140188
0.0140194
0.0140199
0.0140204
0.0140209
0.0140214
0.0140219
0.0140224
0.0140229
0.0140234
0.0140239
0.0140244
0.0140249
0.0140254
0.0140259
0.0140263
0.0140268
0.0140273
0.0140278
0.0140282
0.0140287
0.0140292
0.0140296
0.0140301
0.0140305
0.014031
0.0140314
0.0140318
0.0140323
0.0140327
0.0140331
0.0140335
0.0140339
0.0140343
0.0140347
0.0140351
0.0140355
0.0140359
0.0140363
0.0140367
0.0140371
0.0140374
0.0140378
0.0140381
0.0140385
0.0140388
0.0140392
0.0140395
0.0140398
0.0140402
0.0140405
0.0140408
0.0140411
0.0140414
0.0140417
0.0140419
0.0140422
0.0140424
0.0140426
0.0140428
0.014043
0.0140432
0.0140433
0.0140435
0.0140436
0.0140437
0.0140438
0.0140438
0.0140439
0.0140439
0.0140439
0.0140439
0.0140438
0.0140437
0.0140435
0.0140433
0.0140433
0.0140433
0.0140433
0.0140434
0.0140435
0.0140436
0.0140437
0.0140439
0.0140441
0.0140443
0.0140445
0.0140447
0.0140449
0.0140451
0.0140453
0.0140456
0.0140458
0.014046
0.0140463
0.0140465
0.0140468
0.014047
0.0140473
0.0140475
0.0140478
0.0140481
0.0140483
0.0140486
0.0140489
0.0140492
0.0140494
0.0140497
0.01405
0.0140503
0.0140506
0.0140509
0.0140512
0.0140515
0.0140517
0.014052
0.0140523
0.0140526
0.0140529
0.0140533
0.0140536
0.0140539
0.0140542
0.0140545
0.0140548
0.0140551
0.0140554
0.0140557
0.0140559
0.0140251
0.0140251
0.0140251
0.0140251
0.0140252
0.0140252
0.0140252
0.0140252
0.0140252
0.0140252
0.0140253
0.0140253
0.0140253
0.0140253
0.0140253
0.0140253
0.0140252
0.0140252
0.014025
0.0140248
0.0140245
0.0140243
0.0140241
0.014024
0.014024
0.0140239
0.0140239
0.0140239
0.014024
0.014024
0.0140241
0.0140242
0.0140243
0.0140244
0.0140245
0.0140246
0.0140248
0.0140249
0.014025
0.0140252
0.0140253
0.0140254
0.0140255
0.0140257
0.0140258
0.0140259
0.014026
0.0140261
0.0140263
0.0140264
0.0140265
0.0140266
0.0140267
0.0140268
0.0140269
0.014027
0.0140271
0.0140272
0.0140273
0.0140274
0.0140275
0.0140276
0.0140277
0.0140278
0.0140279
0.014028
0.0140281
0.0140282
0.0140282
0.0140283
0.0140284
0.0140285
0.0140286
0.0140287
0.0140288
0.0140288
0.0140289
0.014029
0.0140291
0.0140292
0.0140292
0.0140293
0.0140294
0.0140295
0.0140295
0.0140296
0.0140297
0.0140297
0.0140298
0.0140299
0.0140299
0.01403
0.0140301
0.0140301
0.0140302
0.0140302
0.0140303
0.0140304
0.0140304
0.0140305
0.0140305
0.0140306
0.0140306
0.0140306
0.0140306
0.0140306
0.0140306
0.0140306
0.0140306
0.0140306
0.0140305
0.0140305
0.0140304
0.0140304
0.0140303
0.0140302
0.0140302
0.0140301
0.01403
0.0140299
0.0140298
0.0140297
0.0140295
0.0140294
0.0140293
0.0140291
0.0140289
0.0140288
0.0140286
0.0140284
0.0140281
0.0140279
0.0140275
0.0140272
0.0140268
0.0140265
0.0140261
0.0140257
0.0140254
0.014025
0.0140247
0.0140244
0.0140242
0.014024
0.0140238
0.0140237
0.0140235
0.0140234
0.0140232
0.0140229
0.0139911
0.0139911
0.013991
0.013991
0.0139909
0.0139909
0.0139909
0.0139908
0.0139908
0.0139908
0.0139908
0.0139908
0.0139907
0.0139907
0.0139907
0.0139906
0.0139904
0.0139901
0.0139899
0.0139897
0.0139896
0.0139896
0.0139896
0.0139896
0.0139896
0.0139897
0.0139898
0.0139899
0.01399
0.0139901
0.0139903
0.0139904
0.0139906
0.0139908
0.013991
0.0139912
0.0139915
0.0139917
0.013992
0.0139922
0.0139925
0.0139928
0.0139931
0.0139934
0.0139936
0.0139939
0.0139942
0.0139944
0.0139947
0.0139949
0.0139952
0.0139954
0.0139956
0.0139958
0.0139961
0.0139963
0.0139965
0.0139967
0.0139968
0.013997
0.0139972
0.0139974
0.0139975
0.0139977
0.0139978
0.0139979
0.013998
0.0139982
0.0139983
0.0139984
0.0139984
0.0139985
0.0139986
0.0139986
0.0139986
0.0139987
0.0139987
0.0139986
0.0139986
0.0139986
0.0139985
0.0139984
0.0139982
0.013998
0.0139976
0.0139972
0.0139969
0.0139965
0.0139961
0.0139958
0.0139954
0.013995
0.0139946
0.0139943
0.0139939
0.0139936
0.0139932
0.0139928
0.0139925
0.0139921
0.0139918
0.0139914
0.0139911
0.0139908
0.0139904
0.0139901
0.0139897
0.0139894
0.0139891
0.0139887
0.0139884
0.0139881
0.0139878
0.0139874
0.0139871
0.0139868
0.0139865
0.0139862
0.0139859
0.0139856
0.0139853
0.013985
0.0139847
0.0139844
0.0139841
0.0139838
0.0139835
0.0139832
0.0139829
0.0139827
0.0139827
0.0139826
0.0139826
0.0139827
0.0139827
0.0139828
0.0139829
0.013983
0.0139831
0.0139832
0.0139834
0.0139835
0.0139837
0.0139838
0.013984
0.0139842
0.0139844
0.0139846
0.0139848
0.013985
0.0139595
0.0139598
0.01396
0.0139602
0.0139604
0.0139606
0.0139608
0.013961
0.0139612
0.0139613
0.0139615
0.0139616
0.0139617
0.0139619
0.013962
0.0139621
0.0139621
0.0139622
0.0139623
0.0139623
0.0139623
0.0139623
0.0139623
0.0139623
0.0139623
0.0139622
0.0139621
0.0139618
0.0139615
0.0139612
0.0139609
0.0139606
0.0139603
0.01396
0.0139597
0.0139594
0.0139591
0.0139588
0.0139586
0.0139583
0.013958
0.0139577
0.0139574
0.0139572
0.0139569
0.0139566
0.0139563
0.0139561
0.0139558
0.0139555
0.0139553
0.013955
0.0139548
0.0139545
0.0139542
0.013954
0.0139537
0.0139535
0.0139532
0.013953
0.0139527
0.0139526
0.0139526
0.0139526
0.0139526
0.0139527
0.0139528
0.0139529
0.013953
0.0139531
0.0139533
0.0139534
0.0139535
0.0139537
0.0139539
0.013954
0.0139542
0.0139544
0.0139546
0.0139548
0.013955
0.0139552
0.0139554
0.0139556
0.0139558
0.013956
0.0139563
0.0139565
0.0139567
0.0139569
0.0139571
0.0139574
0.0139576
0.0139578
0.013958
0.0139583
0.0139585
0.0139587
0.0139589
0.0139591
0.0139594
0.0139596
0.0139598
0.01396
0.0139602
0.0139605
0.0139607
0.0139609
0.0139611
0.0139613
0.0139616
0.0139618
0.013962
0.0139622
0.0139625
0.0139627
0.0139629
0.0139631
0.0139633
0.0139636
0.0139638
0.013964
0.0139642
0.0139645
0.0139647
0.0139649
0.0139651
0.0139653
0.0139656
0.0139658
0.013966
0.0139662
0.0139664
0.0139667
0.0139669
0.0139671
0.0139673
0.0139675
0.0139678
0.013968
0.0139682
0.0139684
0.0139686
0.0139688
0.013969
0.0139693
0.0139695
0.0139697
0.0139699
0.0139702
0.013941
0.0139411
0.0139412
0.0139414
0.0139416
0.0139418
0.013942
0.0139422
0.0139425
0.0139427
0.0139429
0.0139432
0.0139434
0.0139437
0.013944
0.0139442
0.0139445
0.0139448
0.0139451
0.0139454
0.0139457
0.013946
0.0139463
0.0139466
0.0139469
0.0139472
0.0139475
0.0139478
0.013948
0.0139483
0.0139486
0.0139488
0.0139491
0.0139493
0.0139495
0.0139497
0.0139499
0.0139501
0.0139503
0.0139505
0.0139507
0.0139508
0.0139509
0.0139511
0.0139512
0.0139513
0.0139514
0.0139514
0.0139515
0.0139515
0.0139515
0.0139515
0.0139515
0.0139514
0.0139513
0.0139512
0.013951
0.0139506
0.0139502
0.0139497
0.0139492
0.0139488
0.0139483
0.0139479
0.0139474
0.0139469
0.0139465
0.013946
0.0139455
0.0139451
0.0139446
0.0139442
0.0139437
0.0139433
0.0139428
0.0139423
0.0139419
0.0139414
0.013941
0.0139406
0.0139401
0.0139397
0.0139392
0.0139388
0.0139384
0.0139379
0.0139375
0.0139371
0.0139367
0.0139363
0.0139359
0.0139355
0.0139351
0.0139347
0.0139343
0.0139339
0.0139335
0.0139331
0.0139327
0.0139323
0.013932
0.0139316
0.0139312
0.0139309
0.0139307
0.0139306
0.0139306
0.0139306
0.0139307
0.0139307
0.0139308
0.0139309
0.013931
0.0139312
0.0139313
0.0139314
0.0139316
0.0139318
0.013932
0.0139322
0.0139324
0.0139326
0.0139328
0.013933
0.0139332
0.0139335
0.0139337
0.013934
0.0139342
0.0139345
0.0139347
0.013935
0.0139353
0.0139355
0.0139358
0.0139361
0.0139364
0.0139366
0.0139369
0.0139372
0.0139375
0.0139378
0.0139381
0.0139383
0.0139386
0.0139389
0.0139392
0.0139395
0.0139398
0.0139401
0.0139288
0.0139291
0.0139294
0.0139296
0.0139299
0.0139301
0.0139304
0.0139306
0.0139308
0.013931
0.0139312
0.0139314
0.0139315
0.0139317
0.0139318
0.0139319
0.0139321
0.0139321
0.0139322
0.0139323
0.0139323
0.0139323
0.0139322
0.0139322
0.013932
0.0139318
0.0139313
0.0139309
0.0139305
0.01393
0.0139296
0.0139292
0.0139287
0.0139283
0.0139279
0.0139275
0.0139271
0.0139267
0.0139263
0.0139259
0.0139255
0.0139251
0.0139247
0.0139243
0.0139239
0.0139235
0.0139231
0.0139227
0.0139223
0.0139219
0.0139215
0.0139211
0.0139207
0.0139203
0.0139199
0.0139195
0.0139191
0.0139187
0.0139183
0.0139178
0.0139174
0.013917
0.0139166
0.0139162
0.0139158
0.0139154
0.013915
0.0139146
0.0139141
0.0139137
0.0139133
0.0139129
0.0139125
0.0139121
0.0139117
0.0139115
0.0139114
0.0139114
0.0139114
0.0139114
0.0139115
0.0139115
0.0139116
0.0139117
0.0139118
0.013912
0.0139121
0.0139122
0.0139124
0.0139125
0.0139127
0.0139128
0.013913
0.0139132
0.0139134
0.0139136
0.0139138
0.013914
0.0139142
0.0139144
0.0139146
0.0139148
0.013915
0.0139152
0.0139155
0.0139157
0.0139159
0.0139161
0.0139164
0.0139166
0.0139168
0.0139171
0.0139173
0.0139176
0.0139178
0.013918
0.0139183
0.0139185
0.0139188
0.013919
0.0139193
0.0139195
0.0139198
0.01392
0.0139203
0.0139205
0.0139208
0.013921
0.0139213
0.0139215
0.0139218
0.013922
0.0139223
0.0139225
0.0139227
0.013923
0.0139232
0.0139235
0.0139237
0.0139239
0.0139241
0.0139243
0.0139245
0.0139246
0.0139248
0.0139249
0.013925
0.0139251
0.0139252
0.0139253
0.0139131
0.0139127
0.0139122
0.0139117
0.0139112
0.0139108
0.0139103
0.0139098
0.0139094
0.0139089
0.0139085
0.0139082
0.0139082
0.0139082
0.0139082
0.0139084
0.0139085
0.0139087
0.013909
0.0139092
0.0139096
0.0139099
0.0139101
0.0139104
0.0139107
0.013911
0.0139112
0.0139115
0.0139117
0.0139119
0.0139122
0.0139124
0.0139125
0.0139127
0.0139129
0.013913
0.0139131
0.0139132
0.0139133
0.0139133
0.0139133
0.0139133
0.0139133
0.0139131
0.0139129
0.0139126
0.0139121
0.0139115
0.0139109
0.0139104
0.0139098
0.0139093
0.0139087
0.0139082
0.0139076
0.0139071
0.0139065
0.013906
0.0139054
0.0139049
0.0139043
0.0139038
0.0139032
0.0139026
0.0139021
0.0139015
0.013901
0.0139004
0.0138998
0.0138993
0.0138987
0.0138981
0.0138976
0.013897
0.0138964
0.0138959
0.0138953
0.0138947
0.0138942
0.0138936
0.013893
0.0138925
0.0138919
0.0138914
0.0138908
0.0138903
0.0138897
0.0138892
0.0138886
0.0138881
0.0138876
0.0138872
0.013887
0.0138869
0.0138869
0.0138869
0.0138869
0.0138869
0.013887
0.0138871
0.0138872
0.0138873
0.0138875
0.0138876
0.0138878
0.0138879
0.0138881
0.0138883
0.0138885
0.0138887
0.0138889
0.0138891
0.0138893
0.0138895
0.0138897
0.0138899
0.0138901
0.0138903
0.0138906
0.0138908
0.013891
0.0138912
0.0138914
0.0138916
0.0138918
0.013892
0.0138922
0.0138923
0.0138925
0.0138927
0.0138929
0.013893
0.0138932
0.0138933
0.0138935
0.0138936
0.0138938
0.0138939
0.013894
0.0138941
0.0138942
0.0138943
0.0138943
0.0138944
0.0138944
0.0138943
0.0138943
0.0138942
0.0138942
0.0138942
0.0138995
0.013899
0.0138984
0.0138979
0.0138973
0.0138967
0.0138962
0.0138956
0.013895
0.0138945
0.0138939
0.0138934
0.013893
0.0138929
0.013893
0.013893
0.0138931
0.0138933
0.0138936
0.0138938
0.013894
0.0138943
0.0138945
0.0138946
0.0138948
0.0138949
0.0138951
0.0138951
0.0138952
0.0138953
0.0138953
0.0138952
0.0138951
0.013895
0.0138947
0.0138943
0.0138937
0.013893
0.0138924
0.0138917
0.0138911
0.0138904
0.0138898
0.0138892
0.0138885
0.0138879
0.0138872
0.0138866
0.013886
0.0138853
0.0138847
0.013884
0.0138834
0.0138827
0.0138821
0.0138814
0.0138808
0.0138801
0.0138795
0.0138788
0.0138782
0.0138775
0.0138768
0.0138762
0.0138755
0.0138749
0.0138742
0.0138735
0.0138729
0.0138722
0.0138715
0.0138709
0.0138702
0.0138695
0.0138689
0.0138682
0.0138675
0.0138669
0.0138663
0.0138658
0.0138656
0.0138654
0.0138654
0.0138653
0.0138652
0.0138652
0.0138652
0.0138653
0.0138653
0.0138654
0.0138654
0.0138655
0.0138656
0.0138657
0.0138658
0.013866
0.0138661
0.0138662
0.0138664
0.0138665
0.0138667
0.0138668
0.0138669
0.013867
0.013867
0.013867
0.013867
0.013867
0.0138669
0.0138668
0.0138666
0.0138664
0.0138662
0.013866
0.0138657
0.0138653
0.0138648
0.0138641
0.0138633
0.0138626
0.0138618
0.013861
0.0138602
0.0138594
0.0138586
0.0138578
0.0138571
0.0138563
0.0138555
0.0138547
0.0138539
0.0138531
0.0138523
0.0138516
0.0138508
0.01385
0.0138492
0.0138484
0.0138476
0.0138468
0.013846
0.0138452
0.0138444
0.0138436
0.0138428
0.013842
0.0138412
0.0138405
0.0138397
0.0138391
0.0138844
0.0138838
0.0138831
0.0138824
0.0138818
0.0138811
0.0138805
0.0138798
0.0138792
0.0138785
0.0138778
0.0138772
0.0138765
0.0138758
0.0138752
0.0138745
0.0138738
0.0138732
0.0138725
0.0138719
0.0138712
0.0138705
0.0138699
0.0138692
0.0138686
0.0138679
0.0138672
0.0138666
0.0138659
0.0138653
0.0138646
0.0138639
0.0138633
0.0138629
0.0138628
0.0138628
0.0138628
0.0138628
0.0138628
0.0138626
0.0138624
0.0138621
0.0138614
0.0138607
0.01386
0.0138593
0.0138586
0.0138579
0.0138572
0.0138565
0.0138558
0.013855
0.0138543
0.0138536
0.0138529
0.0138522
0.0138515
0.0138508
0.01385
0.0138493
0.0138486
0.0138479
0.0138471
0.0138464
0.0138457
0.013845
0.0138442
0.0138435
0.0138428
0.013842
0.0138413
0.0138405
0.0138398
0.013839
0.0138383
0.0138376
0.0138368
0.013836
0.0138353
0.0138345
0.0138338
0.013833
0.0138323
0.0138315
0.0138308
0.0138301
0.0138295
0.0138293
0.0138291
0.013829
0.0138289
0.0138289
0.0138288
0.0138288
0.0138288
0.0138289
0.0138289
0.0138289
0.013829
0.013829
0.0138291
0.0138292
0.0138292
0.0138292
0.0138291
0.013829
0.0138289
0.0138288
0.0138286
0.0138283
0.0138281
0.0138278
0.0138274
0.013827
0.0138265
0.0138259
0.0138252
0.0138243
0.0138233
0.0138223
0.0138213
0.0138203
0.0138193
0.0138183
0.0138173
0.0138164
0.0138154
0.0138144
0.0138134
0.0138124
0.0138115
0.0138105
0.0138095
0.0138085
0.0138075
0.0138065
0.0138055
0.0138045
0.0138035
0.0138025
0.0138015
0.0138005
0.0137995
0.0137985
0.0137975
0.0137965
0.0137955
0.0137945
0.0137936
0.0137928
0.0138677
0.0138669
0.0138661
0.0138654
0.0138646
0.0138638
0.013863
0.0138623
0.0138615
0.0138607
0.0138599
0.0138592
0.0138584
0.0138576
0.0138568
0.013856
0.0138552
0.0138544
0.0138537
0.0138529
0.0138521
0.0138513
0.0138505
0.0138497
0.0138489
0.0138481
0.0138473
0.0138465
0.0138457
0.0138449
0.0138441
0.0138433
0.0138425
0.0138419
0.0138417
0.0138416
0.0138414
0.0138411
0.0138405
0.0138396
0.0138388
0.013838
0.0138371
0.0138363
0.0138354
0.0138346
0.0138337
0.0138329
0.013832
0.0138312
0.0138303
0.0138295
0.0138286
0.0138277
0.0138269
0.013826
0.0138251
0.0138243
0.0138234
0.0138225
0.0138216
0.0138208
0.0138199
0.013819
0.0138181
0.0138172
0.0138163
0.0138155
0.0138146
0.0138137
0.0138128
0.0138119
0.013811
0.0138101
0.0138092
0.0138083
0.0138074
0.0138065
0.0138056
0.0138047
0.0138039
0.0138035
0.0138033
0.013803
0.0138025
0.0138015
0.0138006
0.0137996
0.0137986
0.0137977
0.0137967
0.0137958
0.0137948
0.0137938
0.0137929
0.0137919
0.013791
0.01379
0.0137891
0.0137881
0.0137871
0.0137862
0.0137852
0.0137842
0.0137833
0.0137823
0.0137813
0.0137804
0.0137794
0.0137784
0.0137775
0.0137765
0.0137755
0.0137745
0.0137736
0.0137726
0.0137716
0.0137706
0.0137696
0.0137686
0.0137676
0.0137666
0.0137656
0.0137646
0.0137636
0.0137626
0.0137615
0.0137605
0.0137595
0.0137585
0.0137574
0.0137564
0.0137554
0.0137543
0.0137533
0.0137522
0.0137512
0.0137501
0.0137491
0.013748
0.013747
0.0137459
0.0137448
0.0137438
0.0137427
0.0137416
0.0137405
0.0137395
0.0137385
0.0137376
0.0138484
0.0138475
0.0138466
0.0138457
0.0138448
0.0138439
0.013843
0.0138421
0.0138412
0.0138403
0.0138394
0.0138384
0.0138375
0.0138366
0.0138357
0.0138348
0.0138338
0.0138329
0.013832
0.013831
0.0138301
0.0138292
0.0138282
0.0138273
0.0138264
0.0138254
0.0138245
0.0138235
0.0138226
0.0138216
0.0138207
0.0138197
0.0138188
0.0138178
0.0138169
0.0138159
0.013815
0.013814
0.013813
0.0138121
0.0138111
0.0138101
0.0138092
0.0138082
0.0138072
0.0138062
0.0138053
0.0138043
0.0138033
0.0138023
0.0138013
0.0138003
0.0137993
0.0137983
0.0137973
0.0137963
0.0137953
0.0137943
0.0137933
0.0137923
0.0137913
0.0137902
0.0137892
0.0137882
0.0137872
0.0137861
0.0137851
0.0137841
0.013783
0.013782
0.0137809
0.0137799
0.0137788
0.0137778
0.0137767
0.0137757
0.0137746
0.0137735
0.0137725
0.0137714
0.0137703
0.0137692
0.0137681
0.0137671
0.0137661
0.013765
0.0137639
0.0137628
0.0137617
0.0137606
0.0137595
0.0137584
0.0137573
0.0137561
0.013755
0.0137539
0.0137528
0.0137517
0.0137505
0.0137494
0.0137482
0.0137471
0.013746
0.0137448
0.0137437
0.0137425
0.0137413
0.0137402
0.013739
0.0137379
0.0137367
0.0137355
0.0137343
0.0137331
0.013732
0.0137308
0.0137296
0.0137284
0.0137272
0.013726
0.0137247
0.0137235
0.0137223
0.0137211
0.0137199
0.0137186
0.0137174
0.0137162
0.0137149
0.0137137
0.0137124
0.0137112
0.0137099
0.0137087
0.0137074
0.0137061
0.0137049
0.0137036
0.0137023
0.013701
0.0136997
0.0136984
0.0136971
0.0136958
0.0136945
0.0136932
0.0136919
0.0136906
0.0136894
0.0136884
0.0138269
0.0138258
0.0138248
0.0138237
0.0138227
0.0138216
0.0138205
0.0138195
0.0138184
0.0138173
0.0138163
0.0138152
0.0138141
0.013813
0.0138119
0.0138108
0.0138098
0.0138087
0.0138076
0.0138065
0.0138054
0.0138043
0.0138032
0.0138021
0.013801
0.0137999
0.0137987
0.0137976
0.0137965
0.0137954
0.0137943
0.0137931
0.013792
0.0137909
0.0137897
0.0137886
0.0137875
0.0137863
0.0137852
0.013784
0.0137829
0.0137817
0.0137806
0.0137794
0.0137782
0.0137771
0.0137759
0.0137747
0.0137735
0.0137724
0.0137712
0.01377
0.0137688
0.0137676
0.0137664
0.0137652