/*--------------------------------*- C++ -*----------------------------------*\
  =========                 |
  \\      /  F ield         | OpenFOAM: The Open Source CFD Toolbox
   \\    /   O peration     | Website:  https://openfoam.org
    \\  /    A nd           | Version:  9
     \\/     M anipulation  |
\*---------------------------------------------------------------------------*/
FoamFile
{
    format      ascii;
    class       volScalarField;
    location    "0.05";
    object      nuTilda;
}
// * * * * * * * * * * * * * * * * * * * * * * * * * * * * * * * * * * * * * //

dimensions      [0 2 -1 0 0 0 0];

internalField   nonuniform List<scalar> 
61475
(
0.00085587
0.000145292
6.64245e-05
4.35105e-05
3.32631e-05
2.75628e-05
2.51327e-05
2.48533e-05
2.41845e-05
2.31276e-05
2.19807e-05
2.15924e-05
2.97678e-05
3.46643e-05
3.32017e-05
0.0024177
0.000665033
0.00033646
0.000224934
0.00017245
0.000142239
0.000130211
0.000130094
0.000125502
0.000117279
0.000108071
0.000100068
9.52733e-05
9.04961e-05
8.66538e-05
0.00379567
0.00123358
0.000637403
0.000415973
0.000307523
0.000242956
0.000200061
0.000179967
0.000162288
0.000145603
0.000131027
0.000119181
0.00011113
0.000104378
0.000101125
0.00500011
0.00183451
0.000949359
0.000609161
0.000439192
0.000336545
0.000265105
0.000217517
0.000184175
0.000159506
0.000140915
0.000127779
0.000122418
0.000118527
0.000115527
0.00602412
0.00240628
0.00125037
0.000792018
0.000558806
0.0004156
0.000322855
0.000261249
0.000219225
0.000189587
0.000167904
0.000151718
0.00014303
0.00013552
0.000128563
0.00685286
0.00290657
0.00152238
0.000953431
0.000658847
0.000486375
0.000377933
0.000306647
0.000258168
0.000223629
0.000197604
0.000176349
0.000159879
0.000146968
0.000136799
0.00745965
0.00329814
0.00174726
0.00108096
0.000741509
0.000546892
0.000425859
0.000346266
0.000291746
0.000251883
0.000220549
0.000195643
0.000176037
0.000160562
0.000148159
0.00779286
0.00352244
0.00186625
0.00114378
0.000782485
0.000578074
0.000450947
0.000366447
0.000307953
0.0002645
0.000231001
0.0002049
0.000184274
0.000167348
0.000153374
0.00768081
0.00345079
0.0018312
0.0011198
0.000764544
0.000565382
0.000441113
0.000358038
0.000300233
0.000258055
0.000225239
0.000199658
0.000179445
0.000163164
0.000149542
0.00734492
0.00324754
0.00172668
0.00105486
0.000717778
0.000529386
0.000414094
0.000336138
0.000281275
0.000241264
0.000211017
0.000187433
0.000168695
0.000153796
0.000140648
0.00674646
0.00290381
0.0015574
0.000955494
0.000646647
0.000473802
0.00036888
0.000300412
0.000252467
0.000215821
0.000188057
0.000166552
0.000149835
0.000136369
0.000125476
0.00588797
0.0023994
0.0012929
0.000810648
0.000549508
0.000398965
0.000306606
0.000247319
0.000207564
0.000179117
0.000158014
0.000139828
0.000124919
0.000114614
0.000108914
0.0047419
0.00174692
0.0009408
0.000602849
0.000424778
0.00031385
0.000239359
0.000189937
0.000157148
0.000133944
0.000117378
0.000104827
9.51612e-05
9.0614e-05
8.30948e-05
0.00324156
0.00102379
0.00053548
0.00035149
0.000258514
0.000201469
0.000162525
0.000137484
0.000125132
0.000110108
9.71157e-05
8.58867e-05
7.5279e-05
6.59377e-05
6.76157e-05
0.00126049
0.00024392
0.000112242
7.16712e-05
5.24765e-05
4.10968e-05
3.3448e-05
2.83415e-05
2.55225e-05
2.30522e-05
2.56318e-05
2.91398e-05
3.09237e-05
3.13331e-05
3.23841e-05
3.3113e-05
3.7097e-05
3.85084e-05
3.82172e-05
3.76754e-05
3.5359e-05
3.13518e-05
2.81874e-05
2.59459e-05
2.40813e-05
2.24395e-05
2.08032e-05
1.91055e-05
1.76526e-05
1.6454e-05
8.63668e-05
8.93163e-05
9.22087e-05
9.40329e-05
9.45859e-05
9.37056e-05
9.10782e-05
8.24967e-05
7.40012e-05
6.63584e-05
5.92768e-05
5.26249e-05
4.66374e-05
4.12629e-05
3.62924e-05
0.000102886
0.00010562
0.000107845
0.00010968
0.000110666
0.000110508
0.000109026
0.000105318
9.8873e-05
9.21346e-05
8.49941e-05
7.75883e-05
6.98697e-05
6.19789e-05
5.404e-05
0.000115788
0.000116036
0.000117251
0.000117883
0.000118067
0.000117615
0.000116433
0.000113962
0.000109591
0.000104668
9.90519e-05
9.27185e-05
8.54395e-05
7.742e-05
6.89936e-05
0.000125351
0.000124677
0.000123523
0.000122767
0.000121811
0.000120497
0.000118666
0.000116203
0.000113054
0.000109599
0.000105524
0.000100615
9.47102e-05
8.77559e-05
7.99636e-05
0.000132984
0.000130015
0.000127346
0.000124956
0.000122272
0.000119681
0.000117029
0.000114289
0.000111718
0.000109084
0.000106258
0.000102949
9.87873e-05
9.33588e-05
8.68069e-05
0.000140795
0.000134415
0.000129104
0.000124123
0.000119768
0.000115834
0.000112336
0.000109335
0.000106863
0.000104754
0.000102829
0.000100885
9.83258e-05
9.47873e-05
9.00032e-05
0.000143082
0.00013433
0.000126944
0.000120516
0.00011496
0.000110093
0.00010595
0.000102537
9.97723e-05
9.7668e-05
9.61604e-05
9.5077e-05
9.39482e-05
9.2352e-05
8.96939e-05
0.000138488
0.00012895
0.000120779
0.000113692
0.000107518
0.000102175
9.76572e-05
9.39415e-05
9.10165e-05
8.89327e-05
8.76524e-05
8.69498e-05
8.66224e-05
8.63902e-05
8.57404e-05
0.000129144
0.000119202
0.000110673
0.000103459
9.74024e-05
9.23347e-05
8.80902e-05
8.4511e-05
8.16177e-05
7.95223e-05
7.80933e-05
7.74126e-05
7.74598e-05
7.80996e-05
7.87739e-05
0.000114856
0.000105768
9.83193e-05
9.22821e-05
8.73655e-05
8.3276e-05
7.96796e-05
7.6004e-05
7.26205e-05
6.99745e-05
6.81862e-05
6.73348e-05
6.74549e-05
6.8484e-05
6.97824e-05
9.90686e-05
9.19024e-05
8.69779e-05
8.3362e-05
8.03034e-05
7.74302e-05
7.40361e-05
6.94003e-05
6.51931e-05
6.19531e-05
5.96797e-05
5.83153e-05
5.79617e-05
5.84293e-05
5.93455e-05
7.66814e-05
7.53358e-05
7.47935e-05
7.41811e-05
7.30322e-05
7.19907e-05
7.00171e-05
6.72238e-05
6.38065e-05
6.02385e-05
5.66053e-05
5.28065e-05
4.98596e-05
4.8155e-05
4.76016e-05
6.80801e-05
6.81792e-05
6.84731e-05
6.81315e-05
6.56577e-05
6.61188e-05
6.43288e-05
6.15561e-05
5.81529e-05
5.435e-05
5.02727e-05
4.58235e-05
4.00901e-05
3.59846e-05
3.33786e-05
3.44222e-05
3.42151e-05
3.33091e-05
3.15831e-05
1.77929e-05
2.61858e-05
2.78157e-05
2.773e-05
2.7243e-05
2.61739e-05
2.48021e-05
2.33274e-05
2.12854e-05
2.20369e-05
1.89057e-05
1.62808e-05
1.58172e-05
1.54343e-05
1.51471e-05
1.50609e-05
1.51355e-05
1.52692e-05
1.54533e-05
1.54973e-05
1.55889e-05
1.61726e-05
1.71704e-05
1.89131e-05
2.19437e-05
2.60714e-05
3.50456e-05
3.32511e-05
3.1336e-05
2.96573e-05
2.89045e-05
2.83608e-05
2.78179e-05
2.72199e-05
2.64515e-05
2.55545e-05
2.50719e-05
2.51495e-05
2.62117e-05
2.94528e-05
3.46735e-05
5.13861e-05
4.87947e-05
4.65313e-05
4.45031e-05
4.22496e-05
3.99402e-05
3.76058e-05
3.52652e-05
3.29257e-05
3.05749e-05
2.83905e-05
2.63333e-05
2.50414e-05
2.73761e-05
3.12276e-05
6.61522e-05
6.30805e-05
6.00581e-05
5.71729e-05
5.44907e-05
5.18686e-05
4.90638e-05
4.61122e-05
4.30528e-05
3.98817e-05
3.67479e-05
3.34929e-05
3.08038e-05
2.88409e-05
3.2096e-05
7.7242e-05
7.42276e-05
7.10525e-05
6.78125e-05
6.46304e-05
6.16191e-05
5.86716e-05
5.549e-05
5.21011e-05
4.85016e-05
4.48152e-05
4.0938e-05
3.74369e-05
3.38408e-05
3.59715e-05
8.41768e-05
8.1475e-05
7.8528e-05
7.53875e-05
7.21356e-05
6.88937e-05
6.57488e-05
6.25275e-05
5.90112e-05
5.51954e-05
5.11713e-05
4.69149e-05
4.2866e-05
3.86559e-05
3.81877e-05
8.75166e-05
8.5022e-05
8.24431e-05
7.96302e-05
7.66009e-05
7.34261e-05
7.01968e-05
6.69545e-05
6.34095e-05
5.94919e-05
5.52613e-05
5.07857e-05
4.63512e-05
4.19649e-05
3.83807e-05
8.75555e-05
8.53409e-05
8.3025e-05
8.05412e-05
7.78163e-05
7.48599e-05
7.17108e-05
6.84194e-05
6.48874e-05
6.09342e-05
5.66073e-05
5.20607e-05
4.74231e-05
4.31219e-05
3.76766e-05
8.38987e-05
8.20091e-05
8.00002e-05
7.78019e-05
7.53712e-05
7.26667e-05
6.96638e-05
6.63646e-05
6.27618e-05
5.88314e-05
5.45668e-05
5.0146e-05
4.55775e-05
4.15421e-05
3.52649e-05
7.70465e-05
7.52986e-05
7.34502e-05
7.14431e-05
6.92314e-05
6.67685e-05
6.4012e-05
6.09309e-05
5.75218e-05
5.38059e-05
4.97935e-05
4.56809e-05
4.14421e-05
3.77947e-05
3.18015e-05
6.81318e-05
6.64163e-05
6.46182e-05
6.26834e-05
6.05734e-05
5.82578e-05
5.57042e-05
5.28802e-05
4.97779e-05
4.64285e-05
4.28593e-05
3.92548e-05
3.56434e-05
3.2697e-05
2.81631e-05
5.76247e-05
5.58623e-05
5.40248e-05
5.20673e-05
4.99727e-05
4.77393e-05
4.53605e-05
4.28292e-05
4.01434e-05
3.73361e-05
3.44547e-05
3.16448e-05
2.91338e-05
2.77446e-05
2.5416e-05
4.56034e-05
4.36469e-05
4.16688e-05
3.96485e-05
3.75952e-05
3.55334e-05
3.35111e-05
3.15431e-05
2.96315e-05
2.77926e-05
2.60988e-05
2.46396e-05
2.43289e-05
2.65525e-05
2.49054e-05
3.0994e-05
2.89313e-05
2.70131e-05
2.52465e-05
2.36498e-05
2.28906e-05
2.26511e-05
2.25885e-05
2.25827e-05
2.25878e-05
2.28529e-05
2.35284e-05
2.54171e-05
2.86716e-05
2.8371e-05
1.69983e-05
1.55025e-05
1.46342e-05
1.42027e-05
1.40097e-05
1.40085e-05
1.41227e-05
1.4305e-05
1.44173e-05
1.43742e-05
1.50713e-05
1.6444e-05
1.89329e-05
2.17309e-05
2.64569e-05
0.0140413
0.0140415
0.0140416
0.0140418
0.0140419
0.014042
0.0140422
0.0140423
0.0140424
0.0140425
0.0140427
0.0140428
0.0140429
0.014043
0.0140431
0.0140432
0.0140433
0.0140434
0.0140435
0.0140436
0.0140437
0.0140438
0.0140439
0.014044
0.0140441
0.0140442
0.0140443
0.0140444
0.0140445
0.0140446
0.0140446
0.0140447
0.0140448
0.0140449
0.014045
0.014045
0.0140451
0.0140452
0.0140453
0.0140453
0.0140454
0.0140455
0.0140456
0.0140456
0.0140457
0.0140458
0.0140458
0.0140459
0.014046
0.014046
0.0140461
0.0140462
0.0140462
0.0140463
0.0140464
0.0140464
0.0140465
0.0140466
0.0140466
0.0140467
0.0140468
0.0140468
0.0140469
0.014047
0.014047
0.0140471
0.0140472
0.0140473
0.0140473
0.0140474
0.0140475
0.0140475
0.0140476
0.0140477
0.0140478
0.0140478
0.0140479
0.014048
0.0140481
0.0140481
0.0140482
0.0140483
0.0140484
0.0140484
0.0140485
0.0140486
0.0140487
0.0140487
0.0140488
0.0140489
0.0140489
0.014049
0.0140491
0.0140491
0.0140492
0.0140493
0.0140493
0.0140494
0.0140495
0.0140495
0.0140495
0.0140496
0.0140496
0.0140496
0.0140496
0.0140496
0.0140496
0.0140496
0.0140496
0.0140496
0.0140496
0.0140497
0.0140497
0.0140497
0.0140497
0.0140497
0.0140497
0.0140497
0.0140497
0.0140497
0.0140497
0.0140497
0.0140497
0.0140497
0.0140497
0.0140497
0.0140497
0.0140497
0.0140498
0.0140498
0.0140498
0.0140498
0.0140498
0.0140498
0.0140498
0.0140499
0.0140499
0.0140499
0.0140499
0.0140499
0.01405
0.01405
0.01405
0.01405
0.01405
0.0140501
0.0140501
0.0140501
0.0140501
0.0140502
0.0140498
0.0140499
0.0140501
0.0140504
0.0140506
0.0140509
0.0140511
0.0140514
0.0140517
0.0140519
0.0140522
0.0140524
0.0140527
0.0140529
0.0140532
0.0140534
0.0140537
0.0140539
0.0140542
0.0140544
0.0140547
0.0140549
0.0140551
0.0140554
0.0140556
0.0140559
0.0140561
0.0140564
0.0140566
0.0140569
0.0140572
0.0140574
0.0140577
0.0140579
0.0140582
0.0140585
0.0140588
0.014059
0.0140593
0.0140596
0.0140599
0.0140602
0.0140605
0.0140608
0.0140612
0.0140615
0.0140618
0.0140622
0.0140625
0.0140629
0.0140633
0.0140636
0.0140641
0.0140645
0.0140649
0.0140653
0.0140658
0.0140663
0.0140668
0.0140673
0.0140679
0.0140685
0.0140691
0.0140697
0.0140704
0.014071
0.0140716
0.0140722
0.0140728
0.0140734
0.0140739
0.0140745
0.0140751
0.0140756
0.0140762
0.0140767
0.0140773
0.0140778
0.0140783
0.0140788
0.0140793
0.0140798
0.0140803
0.0140808
0.0140813
0.0140818
0.0140823
0.0140827
0.0140832
0.0140837
0.0140841
0.0140846
0.014085
0.0140854
0.0140859
0.0140863
0.0140867
0.0140872
0.0140876
0.014088
0.0140884
0.0140888
0.0140892
0.0140896
0.0140899
0.0140903
0.0140906
0.0140909
0.0140912
0.0140915
0.0140918
0.014092
0.0140923
0.0140925
0.0140927
0.014093
0.0140932
0.0140934
0.0140935
0.0140937
0.0140939
0.0140941
0.0140942
0.0140944
0.0140945
0.0140947
0.0140948
0.0140949
0.0140951
0.0140952
0.0140953
0.0140954
0.0140956
0.0140957
0.0140958
0.0140959
0.014096
0.0140961
0.0140962
0.0140963
0.0140963
0.0140964
0.0140965
0.0140966
0.0140967
0.0140967
0.0140968
0.0140969
0.0140969
0.0140969
0.0140313
0.0140312
0.0140311
0.014031
0.0140308
0.0140306
0.0140305
0.0140303
0.0140301
0.0140299
0.0140297
0.0140296
0.0140294
0.0140292
0.014029
0.0140289
0.0140287
0.0140285
0.0140284
0.0140282
0.0140281
0.0140279
0.0140278
0.0140276
0.0140275
0.0140274
0.0140273
0.0140273
0.0140272
0.0140272
0.0140272
0.0140272
0.0140272
0.0140272
0.0140272
0.0140272
0.0140272
0.0140273
0.0140273
0.0140273
0.0140274
0.0140274
0.0140275
0.0140276
0.0140276
0.0140277
0.0140278
0.0140279
0.014028
0.0140281
0.0140283
0.0140284
0.0140285
0.0140287
0.0140289
0.014029
0.0140293
0.0140295
0.0140297
0.01403
0.0140303
0.0140306
0.0140309
0.0140312
0.0140315
0.0140318
0.0140321
0.0140324
0.0140327
0.0140331
0.0140334
0.0140337
0.014034
0.0140343
0.0140346
0.0140349
0.0140352
0.0140356
0.0140359
0.0140362
0.0140365
0.0140368
0.0140371
0.0140375
0.0140378
0.0140381
0.0140384
0.0140387
0.014039
0.0140394
0.0140397
0.01404
0.0140403
0.0140406
0.0140409
0.0140412
0.0140416
0.0140419
0.0140422
0.0140425
0.0140428
0.0140431
0.0140434
0.0140437
0.014044
0.0140443
0.0140447
0.014045
0.0140453
0.0140456
0.0140459
0.0140462
0.0140465
0.0140468
0.0140471
0.0140474
0.0140478
0.0140481
0.0140484
0.0140487
0.014049
0.0140493
0.0140496
0.0140499
0.0140502
0.0140505
0.0140509
0.0140512
0.0140515
0.0140518
0.0140521
0.0140524
0.0140527
0.014053
0.0140533
0.0140537
0.014054
0.0140543
0.0140546
0.0140549
0.0140552
0.0140555
0.0140558
0.0140561
0.0140564
0.0140567
0.014057
0.0140573
0.0140576
0.0140577
0.0140113
0.0140114
0.0140114
0.0140113
0.0140114
0.0140116
0.0140118
0.0140121
0.0140124
0.0140128
0.0140132
0.0140136
0.0140141
0.0140146
0.0140151
0.0140157
0.0140162
0.0140167
0.0140173
0.0140178
0.0140183
0.0140188
0.0140194
0.0140199
0.0140204
0.0140209
0.0140214
0.0140219
0.0140224
0.0140229
0.0140234
0.0140239
0.0140244
0.0140249
0.0140254
0.0140259
0.0140264
0.0140268
0.0140273
0.0140278
0.0140282
0.0140287
0.0140292
0.0140296
0.0140301
0.0140305
0.014031
0.0140314
0.0140318
0.0140323
0.0140327
0.0140331
0.0140335
0.0140339
0.0140344
0.0140348
0.0140352
0.0140355
0.0140359
0.0140363
0.0140367
0.0140371
0.0140374
0.0140378
0.0140382
0.0140385
0.0140388
0.0140392
0.0140395
0.0140398
0.0140402
0.0140405
0.0140408
0.0140411
0.0140414
0.0140417
0.0140419
0.0140422
0.0140424
0.0140426
0.0140428
0.014043
0.0140432
0.0140433
0.0140435
0.0140436
0.0140437
0.0140438
0.0140438
0.0140439
0.0140439
0.0140439
0.0140439
0.0140438
0.0140437
0.0140435
0.0140433
0.0140433
0.0140433
0.0140433
0.0140434
0.0140435
0.0140436
0.0140437
0.0140439
0.0140441
0.0140443
0.0140445
0.0140447
0.0140449
0.0140451
0.0140454
0.0140456
0.0140458
0.0140461
0.0140463
0.0140465
0.0140468
0.014047
0.0140473
0.0140475
0.0140478
0.0140481
0.0140483
0.0140486
0.0140489
0.0140492
0.0140494
0.0140497
0.01405
0.0140503
0.0140506
0.0140509
0.0140512
0.0140515
0.0140518
0.0140521
0.0140524
0.0140527
0.014053
0.0140533
0.0140536
0.0140539
0.0140542
0.0140545
0.0140548
0.0140551
0.0140554
0.0140557
0.0140559
0.0140251
0.0140251
0.0140251
0.0140252
0.0140252
0.0140252
0.0140252
0.0140252
0.0140252
0.0140253
0.0140253
0.0140253
0.0140253
0.0140253
0.0140253
0.0140253
0.0140253
0.0140252
0.014025
0.0140248
0.0140246
0.0140243
0.0140241
0.0140241
0.014024
0.014024
0.0140239
0.0140239
0.014024
0.014024
0.0140241
0.0140242
0.0140243
0.0140244
0.0140245
0.0140246
0.0140248
0.0140249
0.014025
0.0140252
0.0140253
0.0140254
0.0140256
0.0140257
0.0140258
0.0140259
0.014026
0.0140262
0.0140263
0.0140264
0.0140265
0.0140266
0.0140267
0.0140268
0.0140269
0.014027
0.0140271
0.0140272
0.0140273
0.0140274
0.0140275
0.0140276
0.0140277
0.0140278
0.0140279
0.014028
0.0140281
0.0140282
0.0140283
0.0140283
0.0140284
0.0140285
0.0140286
0.0140287
0.0140288
0.0140288
0.0140289
0.014029
0.0140291
0.0140292
0.0140292
0.0140293
0.0140294
0.0140295
0.0140295
0.0140296
0.0140297
0.0140297
0.0140298
0.0140299
0.0140299
0.01403
0.0140301
0.0140301
0.0140302
0.0140302
0.0140303
0.0140304
0.0140304
0.0140305
0.0140305
0.0140306
0.0140306
0.0140306
0.0140306
0.0140306
0.0140306
0.0140306
0.0140306
0.0140306
0.0140305
0.0140305
0.0140304
0.0140304
0.0140303
0.0140303
0.0140302
0.0140301
0.01403
0.0140299
0.0140298
0.0140297
0.0140295
0.0140294
0.0140293
0.0140291
0.0140289
0.0140288
0.0140286
0.0140284
0.0140282
0.0140279
0.0140276
0.0140272
0.0140268
0.0140265
0.0140261
0.0140257
0.0140254
0.014025
0.0140247
0.0140244
0.0140242
0.014024
0.0140238
0.0140237
0.0140235
0.0140234
0.0140232
0.0140229
0.0139911
0.0139911
0.013991
0.013991
0.013991
0.0139909
0.0139909
0.0139909
0.0139908
0.0139908
0.0139908
0.0139908
0.0139907
0.0139907
0.0139907
0.0139906
0.0139904
0.0139901
0.0139899
0.0139897
0.0139896
0.0139896
0.0139896
0.0139896
0.0139896
0.0139897
0.0139898
0.0139899
0.01399
0.0139901
0.0139903
0.0139904
0.0139906
0.0139908
0.013991
0.0139912
0.0139915
0.0139917
0.013992
0.0139923
0.0139925
0.0139928
0.0139931
0.0139934
0.0139936
0.0139939
0.0139942
0.0139944
0.0139947
0.0139949
0.0139952
0.0139954
0.0139956
0.0139958
0.0139961
0.0139963
0.0139965
0.0139967
0.0139969
0.013997
0.0139972
0.0139974
0.0139975
0.0139977
0.0139978
0.0139979
0.0139981
0.0139982
0.0139983
0.0139984
0.0139984
0.0139985
0.0139986
0.0139986
0.0139986
0.0139987
0.0139987
0.0139987
0.0139986
0.0139986
0.0139985
0.0139984
0.0139982
0.013998
0.0139976
0.0139973
0.0139969
0.0139965
0.0139961
0.0139958
0.0139954
0.013995
0.0139947
0.0139943
0.0139939
0.0139936
0.0139932
0.0139929
0.0139925
0.0139922
0.0139918
0.0139915
0.0139911
0.0139908
0.0139904
0.0139901
0.0139898
0.0139894
0.0139891
0.0139888
0.0139884
0.0139881
0.0139878
0.0139875
0.0139871
0.0139868
0.0139865
0.0139862
0.0139859
0.0139856
0.0139853
0.013985
0.0139847
0.0139844
0.0139841
0.0139838
0.0139835
0.0139832
0.0139829
0.0139827
0.0139827
0.0139826
0.0139827
0.0139827
0.0139827
0.0139828
0.0139829
0.013983
0.0139831
0.0139832
0.0139834
0.0139835
0.0139837
0.0139838
0.013984
0.0139842
0.0139844
0.0139846
0.0139848
0.013985
0.0139595
0.0139598
0.01396
0.0139602
0.0139604
0.0139606
0.0139608
0.013961
0.0139612
0.0139613
0.0139615
0.0139616
0.0139618
0.0139619
0.013962
0.0139621
0.0139621
0.0139622
0.0139623
0.0139623
0.0139623
0.0139623
0.0139623
0.0139623
0.0139623
0.0139622
0.0139621
0.0139618
0.0139615
0.0139612
0.0139609
0.0139606
0.0139603
0.01396
0.0139597
0.0139594
0.0139591
0.0139589
0.0139586
0.0139583
0.013958
0.0139577
0.0139574
0.0139572
0.0139569
0.0139566
0.0139563
0.0139561
0.0139558
0.0139555
0.0139553
0.013955
0.0139548
0.0139545
0.0139542
0.013954
0.0139537
0.0139535
0.0139532
0.013953
0.0139527
0.0139526
0.0139526
0.0139526
0.0139526
0.0139527
0.0139528
0.0139529
0.013953
0.0139531
0.0139533
0.0139534
0.0139536
0.0139537
0.0139539
0.0139541
0.0139542
0.0139544
0.0139546
0.0139548
0.013955
0.0139552
0.0139554
0.0139556
0.0139558
0.0139561
0.0139563
0.0139565
0.0139567
0.0139569
0.0139571
0.0139574
0.0139576
0.0139578
0.013958
0.0139583
0.0139585
0.0139587
0.0139589
0.0139592
0.0139594
0.0139596
0.0139598
0.01396
0.0139603
0.0139605
0.0139607
0.0139609
0.0139611
0.0139614
0.0139616
0.0139618
0.013962
0.0139622
0.0139625
0.0139627
0.0139629
0.0139631
0.0139634
0.0139636
0.0139638
0.013964
0.0139642
0.0139645
0.0139647
0.0139649
0.0139651
0.0139653
0.0139656
0.0139658
0.013966
0.0139662
0.0139664
0.0139667
0.0139669
0.0139671
0.0139673
0.0139675
0.0139678
0.013968
0.0139682
0.0139684
0.0139686
0.0139688
0.0139691
0.0139693
0.0139695
0.0139697
0.0139699
0.0139702
0.013941
0.0139411
0.0139413
0.0139414
0.0139416
0.0139418
0.013942
0.0139423
0.0139425
0.0139427
0.0139429
0.0139432
0.0139434
0.0139437
0.013944
0.0139442
0.0139445
0.0139448
0.0139451
0.0139454
0.0139457
0.013946
0.0139463
0.0139466
0.0139469
0.0139472
0.0139475
0.0139478
0.0139481
0.0139483
0.0139486
0.0139488
0.0139491
0.0139493
0.0139495
0.0139497
0.0139499
0.0139501
0.0139503
0.0139505
0.0139507
0.0139508
0.013951
0.0139511
0.0139512
0.0139513
0.0139514
0.0139514
0.0139515
0.0139515
0.0139515
0.0139515
0.0139515
0.0139514
0.0139513
0.0139512
0.013951
0.0139506
0.0139502
0.0139497
0.0139492
0.0139488
0.0139483
0.0139479
0.0139474
0.0139469
0.0139465
0.013946
0.0139456
0.0139451
0.0139446
0.0139442
0.0139437
0.0139433
0.0139428
0.0139424
0.0139419
0.0139415
0.013941
0.0139406
0.0139401
0.0139397
0.0139392
0.0139388
0.0139384
0.013938
0.0139375
0.0139371
0.0139367
0.0139363
0.0139359
0.0139355
0.0139351
0.0139347
0.0139343
0.0139339
0.0139335
0.0139331
0.0139327
0.0139323
0.013932
0.0139316
0.0139312
0.0139309
0.0139307
0.0139306
0.0139306
0.0139306
0.0139307
0.0139307
0.0139308
0.0139309
0.013931
0.0139312
0.0139313
0.0139315
0.0139316
0.0139318
0.013932
0.0139322
0.0139324
0.0139326
0.0139328
0.013933
0.0139333
0.0139335
0.0139337
0.013934
0.0139342
0.0139345
0.0139347
0.013935
0.0139353
0.0139355
0.0139358
0.0139361
0.0139364
0.0139366
0.0139369
0.0139372
0.0139375
0.0139378
0.0139381
0.0139384
0.0139386
0.0139389
0.0139392
0.0139395
0.0139398
0.0139401
0.0139288
0.0139291
0.0139294
0.0139296
0.0139299
0.0139301
0.0139304
0.0139306
0.0139308
0.013931
0.0139312
0.0139314
0.0139315
0.0139317
0.0139318
0.013932
0.0139321
0.0139321
0.0139322
0.0139323
0.0139323
0.0139323
0.0139323
0.0139322
0.013932
0.0139318
0.0139313
0.0139309
0.0139305
0.01393
0.0139296
0.0139292
0.0139288
0.0139283
0.0139279
0.0139275
0.0139271
0.0139267
0.0139263
0.0139259
0.0139255
0.0139251
0.0139247
0.0139243
0.0139239
0.0139235
0.0139231
0.0139227
0.0139223
0.0139219
0.0139215
0.0139211
0.0139207
0.0139203
0.0139199
0.0139195
0.0139191
0.0139187
0.0139183
0.0139179
0.0139174
0.013917
0.0139166
0.0139162
0.0139158
0.0139154
0.013915
0.0139146
0.0139141
0.0139137
0.0139133
0.0139129
0.0139125
0.0139121
0.0139117
0.0139115
0.0139114
0.0139114
0.0139114
0.0139114
0.0139115
0.0139115
0.0139116
0.0139117
0.0139118
0.013912
0.0139121
0.0139122
0.0139124
0.0139125
0.0139127
0.0139128
0.013913
0.0139132
0.0139134
0.0139136
0.0139138
0.013914
0.0139142
0.0139144
0.0139146
0.0139148
0.013915
0.0139152
0.0139155
0.0139157
0.0139159
0.0139161
0.0139164
0.0139166
0.0139169
0.0139171
0.0139173
0.0139176
0.0139178
0.0139181
0.0139183
0.0139185
0.0139188
0.013919
0.0139193
0.0139195
0.0139198
0.01392
0.0139203
0.0139205
0.0139208
0.013921
0.0139213
0.0139215
0.0139218
0.013922
0.0139223
0.0139225
0.0139228
0.013923
0.0139232
0.0139235
0.0139237
0.0139239
0.0139241
0.0139243
0.0139245
0.0139247
0.0139248
0.0139249
0.013925
0.0139251
0.0139252
0.0139253
0.0139131
0.0139127
0.0139122
0.0139117
0.0139112
0.0139108
0.0139103
0.0139098
0.0139094
0.0139089
0.0139085
0.0139082
0.0139082
0.0139082
0.0139082
0.0139084
0.0139085
0.0139087
0.013909
0.0139093
0.0139096
0.0139099
0.0139102
0.0139104
0.0139107
0.013911
0.0139112
0.0139115
0.0139117
0.013912
0.0139122
0.0139124
0.0139125
0.0139127
0.0139129
0.013913
0.0139131
0.0139132
0.0139133
0.0139133
0.0139133
0.0139133
0.0139133
0.0139131
0.013913
0.0139126
0.0139121
0.0139115
0.0139109
0.0139104
0.0139098
0.0139093
0.0139088
0.0139082
0.0139076
0.0139071
0.0139065
0.013906
0.0139054
0.0139049
0.0139043
0.0139038
0.0139032
0.0139026
0.0139021
0.0139015
0.013901
0.0139004
0.0138998
0.0138993
0.0138987
0.0138981
0.0138976
0.013897
0.0138964
0.0138959
0.0138953
0.0138947
0.0138942
0.0138936
0.013893
0.0138925
0.0138919
0.0138914
0.0138908
0.0138903
0.0138897
0.0138892
0.0138887
0.0138881
0.0138876
0.0138872
0.013887
0.0138869
0.0138869
0.0138869
0.0138869
0.0138869
0.013887
0.0138871
0.0138872
0.0138873
0.0138875
0.0138876
0.0138878
0.0138879
0.0138881
0.0138883
0.0138885
0.0138887
0.0138889
0.0138891
0.0138893
0.0138895
0.0138897
0.0138899
0.0138901
0.0138904
0.0138906
0.0138908
0.013891
0.0138912
0.0138914
0.0138916
0.0138918
0.013892
0.0138922
0.0138924
0.0138925
0.0138927
0.0138929
0.013893
0.0138932
0.0138933
0.0138935
0.0138936
0.0138938
0.0138939
0.013894
0.0138941
0.0138942
0.0138943
0.0138943
0.0138944
0.0138944
0.0138943
0.0138943
0.0138943
0.0138942
0.0138942
0.0138995
0.013899
0.0138984
0.0138979
0.0138973
0.0138967
0.0138962
0.0138956
0.0138951
0.0138945
0.0138939
0.0138934
0.013893
0.013893
0.013893
0.013893
0.0138932
0.0138933
0.0138936
0.0138938
0.013894
0.0138943
0.0138945
0.0138946
0.0138948
0.0138949
0.0138951
0.0138952
0.0138952
0.0138953
0.0138953
0.0138952
0.0138952
0.013895
0.0138947
0.0138943
0.0138937
0.013893
0.0138924
0.0138917
0.0138911
0.0138905
0.0138898
0.0138892
0.0138885
0.0138879
0.0138873
0.0138866
0.013886
0.0138853
0.0138847
0.013884
0.0138834
0.0138827
0.0138821
0.0138814
0.0138808
0.0138801
0.0138795
0.0138788
0.0138782
0.0138775
0.0138769
0.0138762
0.0138755
0.0138749
0.0138742
0.0138735
0.0138729
0.0138722
0.0138716
0.0138709
0.0138702
0.0138695
0.0138689
0.0138682
0.0138675
0.0138669
0.0138663
0.0138658
0.0138656
0.0138655
0.0138654
0.0138653
0.0138653
0.0138652
0.0138652
0.0138653
0.0138653
0.0138654
0.0138654
0.0138655
0.0138656
0.0138657
0.0138658
0.013866
0.0138661
0.0138662
0.0138664
0.0138665
0.0138667
0.0138668
0.0138669
0.013867
0.013867
0.013867
0.013867
0.013867
0.0138669
0.0138668
0.0138666
0.0138664
0.0138662
0.013866
0.0138657
0.0138653
0.0138648
0.0138641
0.0138633
0.0138626
0.0138618
0.013861
0.0138602
0.0138594
0.0138586
0.0138579
0.0138571
0.0138563
0.0138555
0.0138547
0.0138539
0.0138531
0.0138524
0.0138516
0.0138508
0.01385
0.0138492
0.0138484
0.0138476
0.0138468
0.013846
0.0138452
0.0138444
0.0138436
0.0138428
0.013842
0.0138412
0.0138405
0.0138397
0.0138391
0.0138844
0.0138838
0.0138831
0.0138825
0.0138818
0.0138811
0.0138805
0.0138798
0.0138792
0.0138785
0.0138778
0.0138772
0.0138765
0.0138758
0.0138752
0.0138745
0.0138739
0.0138732
0.0138725
0.0138719
0.0138712
0.0138705
0.0138699
0.0138692
0.0138686
0.0138679
0.0138672
0.0138666
0.0138659
0.0138653
0.0138646
0.013864
0.0138633
0.0138629
0.0138628
0.0138628
0.0138628
0.0138628
0.0138628
0.0138627
0.0138625
0.0138621
0.0138614
0.0138607
0.01386
0.0138593
0.0138586
0.0138579
0.0138572
0.0138565
0.0138558
0.0138551
0.0138543
0.0138536
0.0138529
0.0138522
0.0138515
0.0138508
0.01385
0.0138493
0.0138486
0.0138479
0.0138472
0.0138464
0.0138457
0.013845
0.0138442
0.0138435
0.0138428
0.013842
0.0138413
0.0138405
0.0138398
0.0138391
0.0138383
0.0138376
0.0138368
0.0138361
0.0138353
0.0138346
0.0138338
0.0138331
0.0138323
0.0138316
0.0138308
0.0138301
0.0138295
0.0138293
0.0138291
0.013829
0.0138289
0.0138289
0.0138288
0.0138288
0.0138288
0.0138289
0.0138289
0.0138289
0.013829
0.013829
0.0138291
0.0138292
0.0138292
0.0138292
0.0138291
0.0138291
0.0138289
0.0138288
0.0138286
0.0138283
0.0138281
0.0138278
0.0138274
0.013827
0.0138265
0.013826
0.0138252
0.0138243
0.0138233
0.0138223
0.0138213
0.0138203
0.0138193
0.0138183
0.0138174
0.0138164
0.0138154
0.0138144
0.0138134
0.0138124
0.0138115
0.0138105
0.0138095
0.0138085
0.0138075
0.0138065
0.0138055
0.0138045
0.0138035
0.0138025
0.0138015
0.0138005
0.0137995
0.0137985
0.0137975
0.0137965
0.0137955
0.0137946
0.0137936
0.0137928
0.0138677
0.0138669
0.0138661
0.0138654
0.0138646
0.0138638
0.0138631
0.0138623
0.0138615
0.0138607
0.0138599
0.0138592
0.0138584
0.0138576
0.0138568
0.013856
0.0138552
0.0138545
0.0138537
0.0138529
0.0138521
0.0138513
0.0138505
0.0138497
0.0138489
0.0138481
0.0138473
0.0138465
0.0138457
0.0138449
0.0138441
0.0138433
0.0138425
0.0138419
0.0138417
0.0138416
0.0138414
0.0138411
0.0138405
0.0138397
0.0138388
0.013838
0.0138371
0.0138363
0.0138354
0.0138346
0.0138337
0.0138329
0.013832
0.0138312
0.0138303
0.0138295
0.0138286
0.0138277
0.0138269
0.013826
0.0138251
0.0138243
0.0138234
0.0138225
0.0138216
0.0138208
0.0138199
0.013819
0.0138181
0.0138172
0.0138164
0.0138155
0.0138146
0.0138137
0.0138128
0.0138119
0.013811
0.0138101
0.0138092
0.0138083
0.0138074
0.0138065
0.0138056
0.0138047
0.0138039
0.0138035
0.0138033
0.013803
0.0138025
0.0138015
0.0138006
0.0137996
0.0137986
0.0137977
0.0137967
0.0137958
0.0137948
0.0137939
0.0137929
0.0137919
0.013791
0.01379
0.0137891
0.0137881
0.0137871
0.0137862
0.0137852
0.0137842
0.0137833
0.0137823
0.0137814
0.0137804
0.0137794
0.0137784
0.0137775
0.0137765
0.0137755
0.0137745
0.0137736
0.0137726
0.0137716
0.0137706
0.0137696
0.0137686
0.0137676
0.0137666
0.0137656
0.0137646
0.0137636
0.0137626
0.0137616
0.0137605
0.0137595
0.0137585
0.0137575
0.0137564
0.0137554
0.0137543
0.0137533
0.0137523
0.0137512
0.0137501
0.0137491
0.013748
0.013747
0.0137459
0.0137448
0.0137438
0.0137427
0.0137416
0.0137405
0.0137395
0.0137385
0.0137376
0.0138484
0.0138475
0.0138466
0.0138457
0.0138448
0.0138439
0.013843
0.0138421
0.0138412
0.0138403
0.0138394
0.0138384
0.0138375
0.0138366
0.0138357
0.0138348
0.0138338
0.0138329
0.013832
0.0138311
0.0138301
0.0138292
0.0138283
0.0138273
0.0138264
0.0138254
0.0138245
0.0138235
0.0138226
0.0138217
0.0138207
0.0138197
0.0138188
0.0138178
0.0138169
0.0138159
0.013815
0.013814
0.013813
0.0138121
0.0138111
0.0138101
0.0138092
0.0138082
0.0138072
0.0138062
0.0138053
0.0138043
0.0138033
0.0138023
0.0138013
0.0138003
0.0137993
0.0137983
0.0137973
0.0137963
0.0137953
0.0137943
0.0137933
0.0137923
0.0137913
0.0137903
0.0137892
0.0137882
0.0137872
0.0137861
0.0137851
0.0137841
0.013783
0.013782
0.0137809
0.0137799
0.0137788
0.0137778
0.0137767
0.0137757
0.0137746
0.0137735
0.0137725
0.0137714
0.0137703
0.0137692
0.0137682
0.0137671
0.0137661
0.013765
0.0137639
0.0137628
0.0137617
0.0137606
0.0137595
0.0137584
0.0137573
0.0137561
0.013755
0.0137539
0.0137528
0.0137517
0.0137505
0.0137494
0.0137483
0.0137471
0.013746
0.0137448
0.0137437
0.0137425
0.0137414
0.0137402
0.013739
0.0137379
0.0137367
0.0137355
0.0137343
0.0137331
0.013732
0.0137308
0.0137296
0.0137284
0.0137272
0.013726
0.0137248
0.0137235
0.0137223
0.0137211
0.0137199
0.0137186
0.0137174
0.0137162
0.0137149
0.0137137
0.0137124
0.0137112
0.0137099
0.0137087
0.0137074
0.0137061
0.0137049
0.0137036
0.0137023
0.013701
0.0136997
0.0136984
0.0136971
0.0136958
0.0136945
0.0136932
0.0136919
0.0136906
0.0136894
0.0136884
0.0138269
0.0138258
0.0138248
0.0138237
0.0138227
0.0138216
0.0138205
0.0138195
0.0138184
0.0138173
0.0138163
0.0138152
0.0138141
0.013813
0.0138119
0.0138109
0.0138098
0.0138087
0.0138076
0.0138065
0.0138054
0.0138043
0.0138032
0.0138021
0.013801
0.0137999
0.0137987
0.0137976
0.0137965
0.0137954
0.0137943
0.0137931
0.013792
0.0137909
0.0137897
0.0137886
0.0137875
0.0137863
0.0137852
0.013784
0.0137829
0.0137817
0.0137806
0.0137794
0.0137782
0.0137771
0.0137759
0.0137747
0.0137735
0.0137724
0.0137712
0.01377
0.0137688
0.0137676
0.0137664