/*--------------------------------*- C++ -*----------------------------------*\
  =========                 |
  \\      /  F ield         | OpenFOAM: The Open Source CFD Toolbox
   \\    /   O peration     | Website:  https://openfoam.org
    \\  /    A nd           | Version:  9
     \\/     M anipulation  |
\*---------------------------------------------------------------------------*/
FoamFile
{
    format      ascii;
    class       volVectorField;
    location    "0.05";
    object      U;
}
// * * * * * * * * * * * * * * * * * * * * * * * * * * * * * * * * * * * * * //

dimensions      [0 1 -1 0 0 0 0];

internalField   nonuniform List<vector> 
61475
(
(4.14768 -0.0154633 1.86487e-17)
(4.02897 0.0187284 -6.94935e-17)
(3.85581 0.0326033 0)
(3.67606 0.0389324 0)
(3.50021 0.0461318 0)
(3.32671 0.0524895 0)
(3.16867 0.0543549 -1.33786e-15)
(3.04408 0.0537639 1.37501e-15)
(2.93572 0.0555513 0)
(2.82626 0.060218 0)
(2.7071 0.0648389 0)
(2.57327 0.0671356 0)
(2.40613 0.0643096 0)
(2.1585 0.0607883 0)
(1.6352 0.00094448 0)
(4.18123 0.0170783 0)
(4.16747 0.0291808 0)
(4.14448 0.0317326 -2.01834e-16)
(4.11604 0.032849 2.70937e-16)
(4.086 0.033499 -6.52584e-16)
(4.05497 0.0329626 7.46887e-16)
(4.01611 0.0307269 0)
(3.9659 0.0275903 -8.3682e-16)
(3.91218 0.0263439 8.71933e-16)
(3.85943 0.0270884 0)
(3.80665 0.0292364 0)
(3.7506 0.0343389 0)
(3.67927 0.0459276 -2.09742e-15)
(3.59752 0.08181 2.10706e-15)
(3.32982 0.129564 -2.03641e-15)
(4.18572 0.0145944 -5.83193e-18)
(4.19792 0.0260645 -1.73978e-17)
(4.2102 0.0304538 6.18066e-17)
(4.21839 0.0322043 0)
(4.22481 0.033625 0)
(4.22986 0.0342002 0)
(4.23056 0.0340819 0)
(4.22075 0.0335663 0)
(4.20405 0.0335203 0)
(4.18533 0.0347409 -1.46604e-15)
(4.16629 0.0377773 1.57037e-15)
(4.14728 0.044877 0)
(4.12203 0.0555976 0)
(4.09668 0.0884921 0)
(4.00772 0.147767 0)
(4.18722 0.0116046 0)
(4.20821 0.0221308 2.50568e-17)
(4.23417 0.0269764 -4.52876e-17)
(4.25754 0.0287477 0)
(4.27953 0.030142 0)
(4.29989 0.0311162 4.12016e-16)
(4.31802 0.0320852 -4.84102e-16)
(4.33093 0.0324988 0)
(4.33905 0.0327074 0)
(4.3442 0.033472 1.32195e-15)
(4.34759 0.0354468 -1.42535e-15)
(4.35016 0.041068 1.50912e-15)
(4.3491 0.0499004 -3.08596e-15)
(4.34488 0.0768952 1.54035e-15)
(4.31658 0.13285 -1.46619e-15)
(4.18768 0.00886831 4.00409e-18)
(4.21179 0.0174449 -1.00077e-17)
(4.24358 0.021607 0)
(4.27412 0.0232991 0)
(4.30388 0.0246971 0)
(4.3323 0.0257593 0)
(4.35906 0.0268137 4.25585e-16)
(4.38319 0.0273237 -4.89133e-16)
(4.40447 0.0277868 -5.46588e-16)
(4.42323 0.0286105 5.98231e-16)
(4.43977 0.0302148 -1.28868e-15)
(4.45481 0.0350201 1.36646e-15)
(4.46713 0.0431644 0)
(4.47696 0.0621687 1.42648e-15)
(4.4761 0.109983 -1.39288e-15)
(4.18768 0.00623127 3.64222e-18)
(4.21256 0.0123715 -8.60881e-18)
(4.24667 0.0154777 0)
(4.28061 0.0171447 -9.47047e-17)
(4.31419 0.0185975 1.28132e-16)
(4.34679 0.0197537 0)
(4.37789 0.0207608 0)
(4.40711 0.0213437 0)
(4.43437 0.0219805 0)
(4.45953 0.0228781 0)
(4.48249 0.024355 0)
(4.50389 0.0283686 0)
(4.5238 0.0353517 0)
(4.54302 0.0493391 0)
(4.55878 0.0840507 0)
(4.18752 0.00353812 0)
(4.21215 0.00710239 0)
(4.24665 0.00908769 0)
(4.28204 0.0105562 8.7479e-17)
(4.31764 0.0120425 1.19725e-16)
(4.35232 0.0133525 -3.03504e-16)
(4.38535 0.0143627 -3.64229e-16)
(4.41655 0.0150073 4.19767e-16)
(4.44597 0.0157461 0)
(4.47367 0.0167204 1.02694e-15)
(4.49966 0.0180625 -1.10958e-15)
(4.52426 0.0212138 0)
(4.54799 0.0267723 0)
(4.57176 0.0369953 0)
(4.59585 0.0599372 -1.33299e-15)
(4.18734 0.000876264 3.42138e-18)
(4.21124 0.00168502 -7.64879e-18)
(4.2451 0.00258105 -5.54577e-17)
(4.28059 0.00372885 8.56715e-17)
(4.31695 0.00516453 2.35506e-16)
(4.3527 0.00665511 -5.97155e-16)
(4.38678 0.00770472 3.58141e-16)
(4.41904 0.0085027 0)
(4.44964 0.00938769 -4.61756e-16)
(4.47858 0.0104602 5.06278e-16)
(4.50587 0.01178 -1.09567e-15)
(4.53173 0.0143304 2.03835e-21)
(4.55681 0.018658 1.23917e-15)
(4.58209 0.0258209 0)
(4.60898 0.0411631 0)
(4.18719 -0.00171573 3.53744e-18)
(4.21011 -0.00372394 -7.93093e-18)
(4.24272 -0.00388125 5.73673e-17)
(4.27694 -0.00317663 -1.77498e-16)
(4.3126 -0.00188338 3.65994e-16)
(4.34801 -0.000243038 -3.08687e-16)
(4.38191 0.000891616 0)
(4.41419 0.00189351 4.25158e-16)
(4.445 0.0029475 -4.75462e-16)
(4.47434 0.00413714 1.04206e-15)
(4.50226 0.00548297 -1.12661e-15)
(4.52885 0.00765112 0)
(4.55454 0.0110013 0)
(4.58025 0.01591 0)
(4.60691 0.0253784 -1.38925e-15)
(4.18709 -0.00421226 3.79204e-18)
(4.20876 -0.00887455 -8.64851e-18)
(4.23948 -0.0101585 0)
(4.27138 -0.009887 0)
(4.30438 -0.00878818 2.62739e-16)
(4.3373 -0.00710493 -3.31555e-16)
(4.36903 -0.00585794 0)
(4.39944 -0.0046968 0)
(4.42861 -0.00351007 0)
(4.45656 -0.002217 0)
(4.48338 -0.000829266 0)
(4.50914 0.00111361 0)
(4.53407 0.00378323 0)
(4.55892 0.00721941 0)
(4.5846 0.0123468 0)
(4.18699 -0.00657074 0)
(4.20695 -0.0136722 0)
(4.23486 -0.0160735 7.04879e-17)
(4.26298 -0.0161461 -1.07211e-16)
(4.29177 -0.0151783 0)
(4.32058 -0.0135064 0)
(4.3486 -0.0121474 0)
(4.37572 -0.0108567 0)
(4.40187 -0.00954312 -5.5566e-16)
(4.42704 -0.00815304 6.07071e-16)
(4.4514 -0.00673287 -1.30817e-15)
(4.47511 -0.00485749 1.39695e-15)
(4.49827 -0.00255821 0)
(4.52127 0.000218349 0)
(4.54408 0.0021649 1.61395e-15)
(4.18678 -0.00885832 4.89888e-18)
(4.204 -0.01797 -1.2202e-17)
(4.22721 -0.0211523 0)
(4.24918 -0.0214563 0)
(4.27118 -0.0205791 0)
(4.29318 -0.0190331 0)
(4.31485 -0.0176049 0)
(4.3363 -0.0161625 0)
(4.357 -0.0146908 0)
(4.37703 -0.0131984 0)
(4.39671 -0.0117299 0)
(4.41629 -0.00990175 0)
(4.43581 -0.00772536 0)
(4.45482 -0.00578201 0)
(4.47364 -0.00513999 1.81614e-15)
(4.18624 -0.0112384 6.10382e-18)
(4.19808 -0.0214407 1.66855e-17)
(4.21172 -0.0247698 -5.76384e-17)
(4.22306 -0.0250095 -1.6484e-16)
(4.23351 -0.0241576 2.13487e-16)
(4.24353 -0.0228822 0)
(4.25341 -0.0215155 0)
(4.26343 -0.0197839 0)
(4.27162 -0.017992 0)
(4.27964 -0.0163838 0)
(4.28846 -0.0148665 0)
(4.29817 -0.0127158 0)
(4.30858 -0.010439 0)
(4.31938 -0.00692023 0)
(4.32893 -0.00594949 0)
(4.18448 -0.0129345 0)
(4.18178 -0.0235275 -5.48856e-17)
(4.17299 -0.0251117 9.32279e-17)
(4.1613 -0.02516 0)
(4.14823 -0.0244518 0)
(4.13373 -0.0237379 7.30908e-16)
(4.11795 -0.0229799 -8.29448e-16)
(4.10069 -0.022337 0)
(4.0784 -0.0220705 -9.75977e-16)
(4.05516 -0.0220915 1.04457e-15)
(4.03232 -0.0224314 -2.22179e-15)
(4.01009 -0.0224167 2.34524e-15)
(3.98852 -0.0221691 0)
(3.97012 -0.0220234 0)
(3.94366 -0.0242888 2.58165e-15)
(4.16566 0.00549342 0)
(4.10304 -0.0111531 0)
(4.00619 -0.0127525 0)
(3.89916 -0.00961223 0)
(3.78957 -0.00484554 1.12628e-15)
(3.67701 -0.000406348 -1.2329e-15)
(3.55945 0.00493966 -1.32889e-15)
(3.43782 0.0115831 1.41283e-15)
(3.31935 0.0175953 0)
(3.19579 0.022989 0)
(3.06484 0.0286383 0)
(2.92674 0.0353826 0)
(2.78132 0.0435918 3.58291e-15)
(2.62956 0.0546641 -3.74464e-15)
(2.49936 0.0625482 -3.85391e-15)
(1.32113 -0.0537761 5.56511e-15)
(1.37832 -0.0197809 -1.06475e-14)
(1.57399 0.136408 2.87161e-15)
(1.79496 0.392196 0)
(1.99893 0.695297 -2.0012e-15)
(2.19852 1.06415 0)
(2.43888 1.50432 0)
(2.70507 1.99715 0)
(2.98524 2.51999 -1.21317e-20)
(3.26966 3.0645 -3.88112e-16)
(3.55445 3.65273 3.92351e-16)
(3.87454 4.30034 0)
(4.26724 5.01833 -2.13561e-16)
(4.82924 5.8199 -2.29012e-16)
(5.66411 6.63351 -4.94896e-16)
(3.1588 0.210238 2.69459e-15)
(3.15479 0.312082 -3.88757e-15)
(3.21777 0.483303 4.87993e-15)
(3.30878 0.706366 -1.17127e-15)
(3.40778 0.976982 1.14419e-15)
(3.51342 1.30626 -1.13805e-15)
(3.65334 1.70089 0)
(3.83354 2.16693 0)
(4.04824 2.69941 0)
(4.29932 3.30921 0)
(4.58514 4.01209 0)
(4.90858 4.83177 0)
(5.30185 5.7877 0)
(5.86869 6.91726 -4.48104e-16)
(6.68936 8.15714 4.85393e-16)
(3.94581 0.221634 5.15468e-16)
(3.94402 0.318698 2.01505e-15)
(3.97116 0.473649 -1.95116e-15)
(4.01455 0.678516 9.60923e-16)
(4.06996 0.934586 -1.92501e-15)
(4.14287 1.24841 1.95366e-15)
(4.25167 1.63311 -5.00733e-16)
(4.41165 2.08759 5.21937e-16)
(4.623 2.60655 0)
(4.89161 3.19691 5.60254e-16)
(5.23192 3.8739 2.79777e-16)
(5.64971 4.66499 2.82876e-16)
(6.15057 5.60157 -4.35412e-16)
(6.82605 6.69691 8.37054e-16)
(7.76954 7.91752 -4.02295e-16)
(4.3031 0.203153 1.36201e-15)
(4.31787 0.293514 1.78862e-15)
(4.34866 0.424113 -8.79247e-16)
(4.38984 0.598037 -8.79704e-16)
(4.44377 0.823359 8.93063e-16)
(4.52018 1.10701 0)
(4.63318 1.46206 -9.49928e-16)
(4.80001 1.88381 4.97559e-16)
(5.02898 2.37253 -5.2678e-16)
(5.32777 2.93889 -1.05119e-15)
(5.70847 3.59713 0)
(6.19741 4.36443 -3.8761e-16)
(6.81043 5.26862 7.8094e-16)
(7.58798 6.33771 -6.69604e-16)
(8.60697 7.59106 5.5737e-16)
(4.48377 0.175703 2.11765e-15)
(4.50706 0.255746 -2.50513e-15)
(4.54337 0.365362 -1.08346e-21)
(4.59116 0.513012 0)
(4.65386 0.708868 0)
(4.7414 0.961048 8.91878e-16)
(4.86776 1.27895 -9.32729e-16)
(5.04929 1.66136 1.47243e-15)
(5.29923 2.11195 -5.19995e-16)
(5.62965 2.64267 1.02311e-15)
(6.05631 3.26872 -2.49343e-16)
(6.60507 4.00768 1.22372e-16)
(7.31583 4.88377 -4.8375e-16)
(8.24197 5.91108 4.2528e-16)
(9.35647 7.18674 -3.09784e-16)
(4.57856 0.140119 4.03309e-16)
(4.60692 0.21338 8.00469e-16)
(4.64668 0.310638 8.07835e-16)
(4.69948 0.438082 -1.64957e-15)
(4.77063 0.605616 0)
(4.86902 0.823886 -4.58231e-21)
(5.00849 1.09991 -9.35476e-16)
(5.20501 1.43906 -1.4825e-15)
(5.47454 1.84758 1.04798e-15)
(5.83365 2.33334 -5.11235e-16)
(6.30147 2.91312 0)
(6.90716 3.61022 -4.77228e-16)
(7.69168 4.45007 -1.15988e-16)
(8.75403 5.42395 -1.14002e-16)
(10.0385 6.6451 2.83253e-17)
(4.62366 0.103279 1.34444e-15)
(4.65716 0.168798 0)
(4.69989 0.254348 0)
(4.75605 0.364229 0)
(4.8323 0.508136 0)
(4.93763 0.695134 9.02816e-16)
(5.08565 0.933312 0)
(5.29386 1.22703 1.51667e-15)
(5.57884 1.58235 -1.58966e-20)
(5.96089 2.00993 -2.61211e-16)
(6.46495 2.53128 -2.49719e-16)
(7.12349 3.17298 3.58083e-16)
(7.97728 3.96036 2.28563e-16)
(9.13073 4.90189 3.85714e-16)
(10.6096 6.03564 -5.33562e-17)
(4.64098 0.0710401 -3.72765e-16)
(4.67919 0.126119 -7.70947e-16)
(4.72411 0.198998 0)
(4.78136 0.292952 8.36544e-16)
(4.8592 0.415624 -8.78941e-16)
(4.96719 0.573372 -5.4098e-21)
(5.11758 0.771975 -1.48056e-15)
(5.32857 1.01755 1.16269e-20)
(5.62083 1.31797 1.59168e-20)
(6.01807 1.68835 9.35989e-21)
(6.55009 2.14713 0)
(7.25443 2.71969 1.22293e-16)
(8.18358 3.43813 5.39307e-21)
(9.41221 4.3218 -1.09329e-16)
(11.0648 5.39502 2.06801e-16)
(4.63961 0.0470184 3.35709e-15)
(4.68028 0.0899137 -7.82155e-16)
(4.7264 0.148472 2.46321e-15)
(4.78317 0.226577 -1.72844e-15)
(4.85933 0.328633 0)
(4.96526 0.458809 1.94483e-15)
(5.11408 0.622901 -1.03744e-15)
(5.32382 0.830415 -1.10851e-15)
(5.61647 1.08729 0)
(6.01932 1.40426 0)
(6.56818 1.79888 2.7201e-16)
(7.3045 2.29546 -3.83377e-16)
(8.29643 2.92803 -2.38544e-16)
(9.60933 3.71459 1.66712e-16)
(11.4162 4.72882 -5.14923e-17)
(4.61659 0.0284793 -1.92304e-16)
(4.65815 0.0623949 0)
(4.70481 0.10839 -8.59995e-16)
(4.7602 0.171631 -9.10053e-16)
(4.83285 0.256006 1.93404e-15)
(4.93378 0.364176 5.77595e-21)
(5.0768 0.500802 5.51389e-16)
(5.28049 0.67286 2.94236e-21)
(5.56802 0.885593 -6.31032e-16)
(5.96991 1.14813 0)
(6.52736 1.47836 5.8005e-16)
(7.28603 1.89746 0)
(8.32756 2.43813 2.51413e-16)
(9.71581 3.1161 2.31193e-16)
(11.6721 4.01579 -2.10392e-16)
(4.57196 0.0136679 -1.63728e-15)
(4.60981 0.0408797 0)
(4.65287 0.0758871 -2.2981e-15)
(4.70366 0.125164 2.91923e-15)
(4.76869 0.193477 -1.03463e-15)
(4.85908 0.28161 -1.1044e-15)
(4.99016 0.392966 0)
(5.18236 0.533195 6.34513e-16)
(5.4602 0.707071 1.35468e-15)
(5.85722 0.921918 0)
(6.41868 1.1932 -6.24752e-16)
(7.19382 1.53789 -1.46125e-16)
(8.27651 1.98469 2.24621e-20)
(9.72642 2.55139 -1.2265e-16)
(11.8258 3.30988 0)
(4.49541 0.00299583 -1.80152e-15)
(4.52448 0.0248824 -1.89995e-15)
(4.55565 0.0521397 2.49342e-15)
(4.59136 0.0904971 -1.57709e-15)
(4.63779 0.143655 1.1166e-15)
(4.70683 0.212981 0)
(4.8166 0.301125 -6.39352e-16)
(4.99016 0.41105 6.88083e-16)
(5.25449 0.544869 -7.26835e-16)
(5.6445 0.710801 0)
(6.21036 0.921851 3.39645e-16)
(7.00344 1.19021 -1.59335e-16)
(8.13055 1.5347 -5.86961e-16)
(9.64329 1.97128 2.65582e-16)
(11.8904 2.56199 -1.17877e-16)
(4.33186 0.00165579 0)
(4.3332 0.01794 2.66708e-16)
(4.3311 0.0381416 0)
(4.32922 0.0680832 1.16871e-15)
(4.33835 0.107821 -1.24318e-15)
(4.37384 0.160891 -1.32809e-15)
(4.45661 0.229326 1.42368e-15)
(4.61024 0.315007 0)
(4.86428 0.418204 7.87146e-16)
(5.25374 0.548403 -1.16385e-15)
(5.82952 0.713918 3.74201e-16)
(6.64252 0.928455 -3.52607e-16)
(7.81323 1.19818 1.62935e-16)
(9.38862 1.54146 7.33635e-17)
(11.7789 1.95895 3.23918e-17)
(3.88243 -0.0134973 -2.45339e-15)
(3.80696 -0.00179599 -3.203e-16)
(3.73102 0.0125944 0)
(3.6679 0.0323401 -7.1771e-16)
(3.63459 0.057709 0)
(3.64473 0.0915505 1.646e-15)
(3.71655 0.132829 -2.63369e-15)
(3.87401 0.181155 9.20256e-16)
(4.14182 0.237321 0)
(4.55422 0.307628 4.59857e-16)
(5.16904 0.394455 -4.44491e-16)
(6.03731 0.50088 2.09134e-16)
(7.28623 0.624812 0)
(8.9583 0.79565 -1.70181e-16)
(11.5289 0.972365 -7.43747e-17)
(2.30115 0.0857819 3.67268e-15)
(2.1236 0.10606 0)
(2.00455 0.12552 -4.31734e-15)
(1.9355 0.148434 2.32038e-15)
(1.91171 0.174521 2.47764e-15)
(1.94279 0.211221 0)
(2.03581 0.263274 1.34075e-15)
(2.19737 0.329842 -1.33862e-15)
(2.4457 0.416748 -1.31013e-15)
(2.82036 0.525827 1.25631e-15)
(3.38907 0.660517 0)
(4.19196 0.803836 0)
(5.47457 0.956804 0)
(6.87204 1.10244 1.0737e-16)
(10.0154 1.09354 4.63966e-17)
(6.99205 7.42077 0)
(8.90309 8.31259 0)
(10.9573 9.17445 0)
(13.3057 9.89624 -9.00269e-16)
(16.0955 10.4974 8.81344e-16)
(19.4893 11.0141 -6.47246e-16)
(23.702 11.4395 4.2157e-16)
(28.9534 11.7337 2.0562e-16)
(35.6087 11.8191 0)
(43.8239 11.6096 -1.90331e-16)
(54.2492 11.0242 3.63746e-16)
(65.7023 9.664 -8.58591e-17)
(80.4537 7.53035 -8.03592e-17)
(85.8295 4.66244 0)
(92.6556 0.900229 1.40121e-17)
(8.03818 9.35187 0)
(9.93753 10.4792 0)
(12.2015 11.6133 1.2869e-17)
(14.9252 12.6551 3.92973e-16)
(18.2845 13.6206 -1.99108e-16)
(22.4583 14.5716 1.93426e-16)
(27.7227 15.5196 1.47385e-18)
(34.4387 16.4312 0)
(43.1909 17.2791 -1.79224e-16)
(54.4765 17.8615 -1.72121e-16)
(69.5372 17.9465 -1.63887e-16)
(87.8359 17.2861 3.14565e-19)
(112.735 15.4993 7.05261e-17)
(132.76 12.5049 0)
(160.279 2.6711 8.35554e-21)
(9.27967 8.92389 2.32004e-17)
(11.2589 9.77828 1.6325e-16)
(13.6219 10.6212 0)
(16.4017 11.4188 5.74254e-18)
(19.8028 12.1832 -1.88309e-16)
(24.0225 12.9556 -1.80572e-16)
(29.3459 13.7305 3.3898e-19)
(36.1527 14.4701 1.74357e-16)
(45.0309 15.116 1.70641e-16)
(56.586 15.6082 1.65172e-16)
(72.0366 15.7622 -7.88757e-17)
(91.329 15.2351 7.34611e-17)
(117.308 13.2998 -6.80616e-17)
(141.916 11.4454 1.14068e-19)
(171.442 0.244114 -9.87326e-18)
(10.1054 8.59535 0)
(11.9715 9.42922 -1.50612e-16)
(14.2307 10.2511 -2.1606e-17)
(16.9062 11.0404 0)
(20.2212 11.7985 0)
(24.3881 12.5498 -1.34576e-18)
(29.6802 13.2925 -1.70295e-16)
(36.4738 13.9908 -1.14572e-20)
(45.3478 14.601 0)
(56.9134 15.0048 -1.60292e-16)
(72.4395 15.003 3.04406e-19)
(91.7643 14.3963 -2.87705e-19)
(117.872 12.548 6.63193e-17)
(142.523 10.7628 0)
(173.738 -0.662235 4.65026e-18)
(10.8924 8.11957 0)
(12.7312 8.83584 2.00913e-17)
(14.985 9.52035 1.31993e-16)
(17.6591 10.1716 1.74341e-16)
(20.9685 10.8047 1.65085e-16)
(25.1294 11.4383 1.64784e-16)
(30.4062 12.0735 -3.18722e-19)
(37.1708 12.6769 -1.60847e-16)
(46.0056 13.1976 0)
(57.5082 13.5414 1.53725e-16)
(72.9663 13.5128 8.81983e-21)
(92.1025 12.9665 7.08964e-17)
(118.355 11.1963 -3.18811e-17)
(141.758 9.6512 1.12225e-19)
(176.746 -1.90473 -4.39392e-18)
(11.6275 7.5262 -5.60837e-17)
(13.4233 8.17725 3.83215e-17)
(15.6354 8.79278 -3.30412e-16)
(18.2694 9.38736 -3.0969e-16)
(21.5368 9.9795 -3.24542e-16)
(25.6637 10.5704 2.47869e-18)
(30.9135 11.1565 -1.57014e-16)
(37.6545 11.7045 1.54965e-16)
(46.4671 12.1631 1.51622e-16)
(57.9352 12.449 -7.39771e-17)
(73.3647 12.372 7.07024e-17)
(92.3353 11.809 -6.88033e-17)
(118.856 10.0988 3.10401e-17)
(140.499 8.59455 0)
(181.58 -2.865 0)
(12.2743 6.86876 1.4551e-16)
(14.0286 7.45415 1.86518e-17)
(16.2075 7.98885 -9.48046e-18)
(18.8231 8.50303 1.43729e-16)
(22.0742 9.01988 1.56834e-16)
(26.1894 9.53058 -2.41323e-18)
(31.4296 10.0328 1.53099e-16)
(38.1569 10.5023 -1.50824e-16)
(46.9494 10.8903 -1.47457e-16)
(58.3834 11.1168 2.85371e-19)
(73.7755 11.0088 -4.16657e-21)
(92.5956 10.4662 -2.63666e-19)
(119.299 8.88234 1.1566e-19)
(139.461 7.3953 -1.13315e-19)
(185.105 -3.87008 0)
(12.8271 6.15717 -1.2631e-16)
(14.5528 6.66413 -7.05726e-21)
(16.7011 7.1246 1.22176e-16)
(19.3019 7.57088 9.49852e-18)
(22.5391 8.02801 0)
(26.6401 8.4821 0)
(31.8704 8.92256 2.95178e-19)
(38.5899 9.32287 -2.91474e-19)
(47.3707 9.64469 -7.28193e-17)
(58.7838 9.81291 7.0874e-17)
(74.144 9.67444 -2.62569e-19)
(92.8638 9.14415 -3.26638e-17)
(119.602 7.68812 -3.01574e-17)
(138.999 6.18889 1.15995e-19)
(186.208 -5.05241 0)
(13.271 5.39834 0)
(14.982 5.82617 1.67635e-16)
(17.1066 6.22255 -1.8941e-17)
(19.6972 6.60628 0)
(22.931 6.99393 0)
(27.028 7.3775 -7.67379e-17)
(32.2525 7.75497 -2.96714e-19)
(38.9689 8.0867 2.93024e-19)
(47.747 8.33401 7.35186e-17)
(59.1493 8.43951 -2.61518e-21)
(74.4829 8.27234 3.38449e-17)
(93.1295 7.75929 6.56293e-17)
(119.833 6.44406 3.03775e-17)
(138.806 4.96293 0)
(186.465 -5.89502 0)
(13.6086 4.59269 7.45025e-17)
(15.312 4.95651 -1.33122e-16)
(17.4191 5.30314 -9.67145e-18)
(20 5.63171 -1.46347e-17)
(23.2325 5.95018 2.45271e-18)
(27.3357 6.25741 8.06504e-17)
(32.5698 6.54405 -7.72385e-17)
(39.2875 6.80934 -2.98726e-19)
(48.0666 6.98826 -7.46738e-17)
(59.4663 7.02964 7.25389e-17)
(74.7831 6.83919 2.64679e-19)
(93.3682 6.34917 -3.35913e-17)
(120.048 5.19163 -1.16293e-19)
(138.568 3.75258 -1.46844e-17)
(186.99 -6.41724 1.9544e-18)
(13.8352 3.80954 -5.76277e-17)
(15.5361 4.12444 -7.24924e-21)
(17.6308 4.42897 -1.98935e-17)
(20.2021 4.70821 8.02638e-17)
(23.4328 4.96573 8.0514e-17)
(27.5392 5.20096 0)
(32.7907 5.38742 -2.06091e-22)
(39.5268 5.56919 0)
(48.3159 5.69212 7.65933e-17)
(59.7243 5.67447 -7.39727e-17)
(75.0389 5.45662 -3.57655e-17)
(93.5828 4.98251 -3.38146e-17)
(120.248 3.98011 0)
(138.372 2.58498 1.4578e-17)
(187.553 -6.60425 -2.01767e-18)
(13.9801 2.9506 5.97073e-17)
(15.6865 3.18917 4.0474e-17)
(17.78 3.41679 -3.07819e-17)
(20.3463 3.63054 -7.23206e-17)
(23.5741 3.83363 -8.27324e-17)
(27.6837 4.00287 -1.28613e-18)
(32.9485 4.12163 8.2851e-17)
(39.7123 4.19824 1.56332e-19)
(48.5222 4.24397 -1.53221e-19)
(59.9469 4.17795 2.93932e-19)
(75.2742 3.95507 -1.80571e-17)
(93.8135 3.52927 3.3907e-17)
(120.467 2.7137 -1.5781e-17)
(138.463 1.39166 1.69853e-19)
(187.547 -6.33089 -3.44972e-20)
(13.9424 2.26734 5.27951e-21)
(15.6589 2.48853 2.09548e-17)
(17.7645 2.69127 2.11221e-17)
(20.347 2.86308 4.76632e-17)
(23.5844 3.03444 -5.29558e-18)
(27.7016 3.17652 0)
(32.9828 3.24141 -3.23901e-19)
(39.7843 3.19215 3.18796e-19)
(48.6429 3.14446 0)
(60.1185 3.00979 2.97098e-19)
(75.4873 2.72191 3.64532e-17)
(94.0168 2.26511 -2.70769e-19)
(120.543 1.56817 2.37141e-17)
(137.924 0.333429 0)
(186.135 -4.74954 1.25132e-18)
(13.8138 1.028 -4.324e-17)
(15.5492 1.10345 2.1695e-17)
(17.6503 1.16903 -7.60406e-17)
(20.2342 1.22124 -3.25284e-17)
(23.4785 1.29344 0)
(27.5835 1.37139 -1.33489e-18)
(32.8278 1.42657 1.31653e-18)
(39.5802 1.41141 2.0623e-17)
(48.335 1.33523 0)
(59.5468 1.227 0)
(74.3431 1.07375 -2.79641e-17)
(91.7909 0.789766 8.82475e-18)
(116.202 0.440031 -4.27206e-18)
(129.15 -0.574761 2.04032e-18)
(172.616 -2.73539 -1.69371e-18)
(11.7331 1.04367 -2.47212e-17)
(13.5121 1.07233 -9.02964e-21)
(15.5266 1.09666 -5.50851e-21)
(17.9203 1.11753 -2.38227e-17)
(20.858 1.13014 2.94333e-18)
(24.475 1.1155 -2.90606e-18)
(28.9408 1.05663 3.57214e-19)
(34.4767 0.898445 -2.28924e-17)
(41.3808 0.485804 0)
(49.8326 -0.115037 0)
(59.9687 -0.846869 1.08663e-17)
(70.5723 -1.6193 -1.08319e-17)
(83.4222 -2.20111 -4.60498e-18)
(83.0569 -2.39839 -2.36298e-18)
(99.8192 -1.70846 0)
(26.657 -2.42397 0)
(26.6399 -2.40932 0)
(26.6087 -2.39507 0)
(26.581 -2.38121 0)
(26.5568 -2.3678 0)
(26.5333 -2.35481 0)
(26.5099 -2.34224 0)
(26.4868 -2.33006 0)
(26.4642 -2.31827 0)
(26.4422 -2.30686 0)
(26.4205 -2.29582 0)
(26.3993 -2.28515 0)
(26.3786 -2.27483 0)
(26.3582 -2.26485 0)
(26.3383 -2.25522 0)
(26.3188 -2.24591 0)
(26.2996 -2.23693 0)
(26.2809 -2.22827 0)
(26.2625 -2.21991 0)
(26.2444 -2.21186 0)
(26.2268 -2.2041 0)
(26.2095 -2.19662 0)
(26.1925 -2.18943 0)
(26.1758 -2.18251 0)
(26.1595 -2.17586 0)
(26.1435 -2.16947 0)
(26.1278 -2.16334 0)
(26.1124 -2.15746 0)
(26.0972 -2.15182 0)
(26.0824 -2.14642 0)
(26.0679 -2.14125 0)
(26.0536 -2.13631 0)
(26.0396 -2.13159 0)
(26.0259 -2.12709 0)
(26.0124 -2.1228 0)
(25.9992 -2.11872 0)
(25.9862 -2.11484 0)
(25.9735 -2.11116 0)
(25.961 -2.10767 0)
(25.9487 -2.10436 0)
(25.9366 -2.10124 0)
(25.9248 -2.09831 0)
(25.9132 -2.09554 0)
(25.9017 -2.09295 0)
(25.8905 -2.09053 0)
(25.8795 -2.08826 0)
(25.8687 -2.08616 0)
(25.8581 -2.08422 0)
(25.8476 -2.08242 0)
(25.8374 -2.08078 0)
(25.8273 -2.07928 0)
(25.8174 -2.07792 0)
(25.8076 -2.0767 0)
(25.7981 -2.07561 0)
(25.7886 -2.07466 0)
(25.7794 -2.07383 0)
(25.7703 -2.07313 0)
(25.7613 -2.07256 0)
(25.7525 -2.0721 0)
(25.7439 -2.07176 0)
(25.7354 -2.07153 0)
(25.727 -2.07142 0)
(25.7188 -2.07141 0)
(25.7106 -2.07151 0)
(25.7027 -2.07172 0)
(25.6948 -2.07202 0)
(25.6871 -2.07242 0)
(25.6795 -2.07292 0)
(25.672 -2.07351 0)
(25.6646 -2.07419 0)
(25.6574 -2.07496 0)
(25.6503 -2.07582 0)
(25.6432 -2.07676 0)
(25.6363 -2.07779 0)
(25.6295 -2.07889 0)
(25.6228 -2.08008 0)
(25.6162 -2.08134 0)
(25.6097 -2.08268 0)
(25.6033 -2.08409 0)
(25.597 -2.08557 0)
(25.5908 -2.08712 0)
(25.5847 -2.08874 0)
(25.5787 -2.09043 0)
(25.5728 -2.09218 0)
(25.5669 -2.09399 0)
(25.5612 -2.09587 0)
(25.5555 -2.0978 0)
(25.5499 -2.0998 0)
(25.5444 -2.10185 0)
(25.5389 -2.10395 0)
(25.5336 -2.10611 0)
(25.5283 -2.10833 0)
(25.5231 -2.11059 0)
(25.5179 -2.11291 0)
(25.5129 -2.11527 0)
(25.5079 -2.11769 0)
(25.5029 -2.12014 0)
(25.4981 -2.12265 0)
(25.4933 -2.12519 0)
(25.4886 -2.12778 0)
(25.4839 -2.13042 0)
(25.4793 -2.13309 0)
(25.4747 -2.1358 0)
(25.4703 -2.13855 0)
(25.4658 -2.14134 0)
(25.4615 -2.14417 0)
(25.4572 -2.14703 0)
(25.4529 -2.14993 0)
(25.4487 -2.15286 0)
(25.4446 -2.15583 0)
(25.4405 -2.15882 0)
(25.4365 -2.16185 0)
(25.4325 -2.16491 0)
(25.4285 -2.168 0)
(25.4247 -2.17112 0)
(25.4208 -2.17426 0)
(25.417 -2.17743 0)
(25.4133 -2.18063 0)
(25.4096 -2.18386 0)
(25.406 -2.1871 0)
(25.4023 -2.19038 0)
(25.3988 -2.19367 0)
(25.3953 -2.19699 0)
(25.3918 -2.20033 0)
(25.3883 -2.20369 0)
(25.3849 -2.20707 0)
(25.3816 -2.21047 0)
(25.3783 -2.21389 0)
(25.375 -2.21733 0)
(25.3717 -2.22079 0)
(25.3685 -2.22426 0)
(25.3653 -2.22775 0)
(25.3622 -2.23126 0)
(25.3591 -2.23478 0)
(25.356 -2.23832 0)
(25.353 -2.24187 0)
(25.35 -2.24544 0)
(25.347 -2.24902 0)
(25.3441 -2.25261 0)
(25.3412 -2.25621 0)
(25.3383 -2.25983 0)
(25.3354 -2.26346 0)
(25.3326 -2.2671 0)
(25.3298 -2.27075 0)
(25.327 -2.27441 0)
(25.3243 -2.27808 0)
(25.3216 -2.28176 0)
(25.3189 -2.28544 0)
(25.3163 -2.28907 0)
(25.3131 -2.29239 0)
(24.4899 -0.554029 0)
(24.4793 -0.580892 0)
(24.4713 -0.604937 0)
(24.4641 -0.628247 0)
(24.4568 -0.651171 0)
(24.4496 -0.673737 0)
(24.4426 -0.69589 0)
(24.4359 -0.717628 0)
(24.4294 -0.738961 0)
(24.4232 -0.7599 0)
(24.4171 -0.780456 0)
(24.4112 -0.800639 0)
(24.4055 -0.820457 0)
(24.4 -0.839922 0)
(24.3947 -0.85904 0)
(24.3896 -0.877822 0)
(24.3846 -0.896276 0)
(24.3798 -0.914409 0)
(24.3752 -0.93223 0)
(24.3707 -0.949746 0)
(24.3664 -0.966966 0)
(24.3622 -0.983895 0)
(24.3582 -1.00054 0)
(24.3543 -1.01691 0)
(24.3506 -1.03302 0)
(24.347 -1.04886 0)
(24.3435 -1.06445 0)
(24.3402 -1.07978 0)
(24.3369 -1.09488 0)
(24.3338 -1.10973 0)
(24.3308 -1.12436 0)
(24.328 -1.13876 0)
(24.3252 -1.15295 0)
(24.3225 -1.16691 0)
(24.32 -1.18067 0)
(24.3175 -1.19422 0)
(24.3152 -1.20758 0)
(24.3129 -1.22074 0)
(24.3107 -1.23371 0)
(24.3087 -1.24649 0)
(24.3067 -1.2591 0)
(24.3048 -1.27152 0)
(24.303 -1.28378 0)
(24.3012 -1.29586 0)
(24.2995 -1.30778 0)
(24.298 -1.31954 0)
(24.2964 -1.33113 0)
(24.295 -1.34258 0)
(24.2936 -1.35387 0)
(24.2923 -1.36502 0)
(24.2911 -1.37602 0)
(24.2899 -1.38688 0)
(24.2888 -1.3976 0)
(24.2877 -1.40818 0)
(24.2867 -1.41863 0)
(24.2858 -1.42895 0)
(24.2849 -1.43914 0)
(24.2841 -1.4492 0)
(24.2833 -1.45913 0)
(24.2826 -1.46894 0)
(24.2819 -1.47863 0)
(24.2812 -1.48819 0)
(24.2806 -1.49762 0)
(24.2801 -1.50706 0)
(24.2796 -1.51653 0)
(24.2791 -1.52592 0)
(24.2787 -1.53523 0)
(24.2783 -1.54444 0)
(24.278 -1.55356 0)
(24.2777 -1.56259 0)
(24.2774 -1.57154 0)
(24.2771 -1.5804 0)
(24.2769 -1.58919 0)
(24.2768 -1.59789 0)
(24.2766 -1.60651 0)
(24.2765 -1.61506 0)
(24.2765 -1.62353 0)
(24.2764 -1.63193 0)
(24.2764 -1.64025 0)
(24.2764 -1.64851 0)
(24.2764 -1.6567 0)
(24.2765 -1.66482 0)
(24.2766 -1.67287 0)
(24.2767 -1.68086 0)
(24.2768 -1.68879 0)
(24.277 -1.69666 0)
(24.2772 -1.70446 0)
(24.2773 -1.71221 0)
(24.2776 -1.71989 0)
(24.2778 -1.72752 0)
(24.2781 -1.7351 0)
(24.2783 -1.74262 0)
(24.2786 -1.75008 0)
(24.2789 -1.7575 0)
(24.2793 -1.76486 0)
(24.2796 -1.77217 0)
(24.28 -1.77943 0)
(24.2803 -1.78664 0)
(24.2807 -1.79381 0)
(24.2811 -1.80093 0)
(24.2815 -1.808 0)
(24.282 -1.81502 0)
(24.2824 -1.82201 0)
(24.2829 -1.82899 0)
(24.2833 -1.83597 0)
(24.2838 -1.84291 0)
(24.2843 -1.84981 0)
(24.2848 -1.85666 0)
(24.2853 -1.86347 0)
(24.2858 -1.87023 0)
(24.2863 -1.87695 0)
(24.2869 -1.88362 0)
(24.2874 -1.89024 0)
(24.288 -1.89683 0)
(24.2885 -1.90338 0)
(24.2891 -1.90988 0)
(24.2896 -1.91635 0)
(24.2902 -1.92278 0)
(24.2908 -1.92917 0)
(24.2914 -1.93552 0)
(24.292 -1.94184 0)
(24.2926 -1.94812 0)
(24.2932 -1.95437 0)
(24.2938 -1.96058 0)
(24.2944 -1.96676 0)
(24.2951 -1.97291 0)
(24.2957 -1.97903 0)
(24.2963 -1.98511 0)
(24.2969 -1.99116 0)
(24.2976 -1.99718 0)
(24.2982 -2.00317 0)
(24.2989 -2.00913 0)
(24.2995 -2.01506 0)
(24.3002 -2.02096 0)
(24.3008 -2.02683 0)
(24.3015 -2.03267 0)
(24.3021 -2.03848 0)
(24.3028 -2.04427 0)
(24.3034 -2.05002 0)
(24.3041 -2.05575 0)
(24.3048 -2.06145 0)
(24.3054 -2.06712 0)
(24.3061 -2.07277 0)
(24.3068 -2.07839 0)
(24.3074 -2.08398 0)
(24.3081 -2.08955 0)
(24.3088 -2.09509 0)
(24.3094 -2.1006 0)
(24.3101 -2.10607 0)
(24.3109 -2.11133 0)
(24.4278 -1.76425 0)
(24.4347 -1.76868 0)
(24.4414 -1.7731 0)
(24.4473 -1.77746 0)
(24.4535 -1.78176 0)
(24.459 -1.78602 0)
(24.4644 -1.79023 0)
(24.4697 -1.79439 0)
(24.4747 -1.79851 0)
(24.4795 -1.80258 0)
(24.4841 -1.80661 0)
(24.4886 -1.8106 0)
(24.4928 -1.81455 0)
(24.4969 -1.81846 0)
(24.5008 -1.82235 0)
(24.5045 -1.82619 0)
(24.508 -1.83001 0)
(24.5114 -1.8338 0)
(24.5147 -1.83756 0)
(24.5178 -1.84129 0)
(24.5208 -1.84501 0)
(24.5236 -1.84869 0)
(24.5263 -1.85236 0)
(24.5288 -1.85601 0)
(24.5313 -1.85964 0)
(24.5336 -1.86325 0)
(24.5358 -1.86684 0)
(24.5379 -1.87042 0)
(24.5399 -1.87399 0)
(24.5418 -1.87754 0)
(24.5436 -1.88109 0)
(24.5453 -1.88462 0)
(24.5469 -1.88814 0)
(24.5484 -1.89166 0)
(24.5498 -1.89516 0)
(24.5512 -1.89867 0)
(24.5525 -1.90216 0)
(24.5536 -1.90565 0)
(24.5548 -1.90914 0)
(24.5558 -1.91262 0)
(24.5568 -1.9161 0)
(24.5577 -1.91957 0)
(24.5586 -1.92304 0)
(24.5594 -1.92651 0)
(24.5601 -1.92998 0)
(24.5608 -1.93345 0)
(24.5614 -1.93691 0)
(24.562 -1.94037 0)
(24.5626 -1.94384 0)
(24.5631 -1.9473 0)
(24.5635 -1.95075 0)
(24.5639 -1.95421 0)
(24.5643 -1.95766 0)
(24.5646 -1.96112 0)
(24.5649 -1.96456 0)
(24.5652 -1.96801 0)
(24.5654 -1.97144 0)
(24.5656 -1.97488 0)
(24.5658 -1.97829 0)
(24.5659 -1.98173 0)
(24.566 -1.98508 0)
(24.5661 -1.98857 0)
(24.5662 -1.99212 0)
(24.5663 -1.99569 0)
(24.5663 -1.99926 0)
(24.5663 -2.00284 0)
(24.5663 -2.00642 0)
(24.5662 -2.01001 0)
(24.5662 -2.01361 0)
(24.5661 -2.01721 0)
(24.566 -2.02082 0)
(24.5659 -2.02443 0)
(24.5658 -2.02805 0)
(24.5657 -2.03167 0)
(24.5655 -2.0353 0)
(24.5654 -2.03894 0)
(24.5652 -2.04258 0)
(24.5651 -2.04623 0)
(24.5649 -2.04989 0)
(24.5647 -2.05355 0)
(24.5645 -2.05721 0)
(24.5643 -2.06089 0)
(24.564 -2.06456 0)
(24.5638 -2.06825 0)
(24.5636 -2.07194 0)
(24.5633 -2.07564 0)
(24.5631 -2.07934 0)
(24.5629 -2.08306 0)
(24.5626 -2.08677 0)
(24.5624 -2.0905 0)
(24.5621 -2.09423 0)
(24.5618 -2.09796 0)
(24.5616 -2.1017 0)
(24.5613 -2.10545 0)
(24.5611 -2.10921 0)
(24.5608 -2.11297 0)
(24.5606 -2.11674 0)
(24.5603 -2.12051 0)
(24.56 -2.12429 0)
(24.5598 -2.12807 0)
(24.5595 -2.13186 0)
(24.5593 -2.13566 0)
(24.559 -2.13946 0)
(24.5588 -2.14326 0)
(24.5585 -2.14708 0)
(24.5583 -2.15089 0)
(24.5581 -2.15471 0)
(24.5578 -2.15854 0)
(24.5576 -2.16237 0)
(24.5574 -2.1662 0)
(24.5571 -2.17004 0)
(24.5569 -2.17388 0)
(24.5567 -2.17772 0)
(24.5565 -2.18157 0)
(24.5563 -2.18543 0)
(24.5561 -2.18928 0)
(24.556 -2.19314 0)
(24.5558 -2.197 0)
(24.5556 -2.20087 0)
(24.5555 -2.20473 0)
(24.5553 -2.2086 0)
(24.5552 -2.21248 0)
(24.5551 -2.21635 0)
(24.555 -2.22023 0)
(24.5548 -2.22411 0)
(24.5547 -2.22799 0)
(24.5547 -2.23187 0)
(24.5546 -2.23576 0)
(24.5545 -2.23965 0)
(24.5545 -2.24353 0)
(24.5544 -2.24742 0)
(24.5544 -2.25131 0)
(24.5544 -2.2552 0)
(24.5544 -2.25909 0)
(24.5544 -2.26299 0)
(24.5544 -2.26688 0)
(24.5544 -2.27077 0)
(24.5544 -2.27467 0)
(24.5545 -2.27856 0)
(24.5545 -2.28246 0)
(24.5546 -2.28635 0)
(24.5547 -2.29025 0)
(24.5548 -2.29414 0)
(24.5549 -2.29803 0)
(24.5551 -2.30192 0)
(24.5552 -2.30582 0)
(24.5554 -2.30971 0)
(24.5555 -2.3136 0)
(24.5557 -2.31751 0)
(24.5559 -2.32223 0)
(24.4472 -1.06905 0)
(24.4425 -1.07595 0)
(24.4379 -1.08287 0)
(24.4338 -1.08994 0)
(24.4297 -1.09708 0)
(24.4256 -1.10429 0)
(24.4215 -1.11156 0)
(24.4175 -1.11888 0)
(24.4135 -1.12626 0)
(24.4096 -1.13369 0)
(24.4057 -1.14117 0)
(24.4019 -1.14868 0)
(24.3981 -1.15624 0)
(24.3944 -1.1638 0)
(24.3907 -1.17134 0)
(24.387 -1.17888 0)
(24.3834 -1.18645 0)
(24.3798 -1.19405 0)
(24.3763 -1.20168 0)
(24.3728 -1.20934 0)
(24.3694 -1.21702 0)
(24.366 -1.22473 0)
(24.3627 -1.23246 0)
(24.3594 -1.24021 0)
(24.3562 -1.24798 0)
(24.353 -1.25577 0)
(24.3498 -1.26357 0)
(24.3467 -1.27138 0)
(24.3436 -1.27921 0)
(24.3406 -1.28704 0)
(24.3377 -1.29489 0)
(24.3347 -1.30274 0)
(24.3319 -1.31059 0)
(24.329 -1.31846 0)
(24.3262 -1.32632 0)
(24.3235 -1.33419 0)
(24.3208 -1.34206 0)
(24.3181 -1.34993 0)
(24.3155 -1.3578 0)
(24.313 -1.36566 0)
(24.3104 -1.37353 0)
(24.3079 -1.38139 0)
(24.3055 -1.38925 0)
(24.3031 -1.39711 0)
(24.3007 -1.40496 0)
(24.2984 -1.4128 0)