/*--------------------------------*- C++ -*----------------------------------*\
  =========                 |
  \\      /  F ield         | OpenFOAM: The Open Source CFD Toolbox
   \\    /   O peration     | Website:  https://openfoam.org
    \\  /    A nd           | Version:  8
     \\/     M anipulation  |
\*---------------------------------------------------------------------------*/
FoamFile
{
    version     2.0;
    format      ascii;
    class       volScalarField;
    location    "0.05";
    object      nut;
}
// * * * * * * * * * * * * * * * * * * * * * * * * * * * * * * * * * * * * * //

dimensions      [0 2 -1 0 0 0 0];

internalField   nonuniform List<scalar> 
112642
(
2.7869e-08
2.78718e-08
2.7867e-08
2.78653e-08
2.78641e-08
2.78635e-08
2.78632e-08
2.78631e-08
2.7863e-08
2.78629e-08
2.78629e-08
2.78629e-08
2.78629e-08
2.78628e-08
2.78628e-08
2.78628e-08
2.78628e-08
2.78628e-08
2.78628e-08
2.78628e-08
2.78628e-08
2.78628e-08
2.78627e-08
2.78627e-08
2.78627e-08
2.78627e-08
2.78627e-08
2.78627e-08
2.78627e-08
2.78627e-08
2.78627e-08
2.78627e-08
2.78627e-08
2.78627e-08
2.78626e-08
2.78626e-08
2.78626e-08
2.78626e-08
2.78626e-08
2.78626e-08
2.78626e-08
2.78626e-08
2.78626e-08
2.78626e-08
2.78626e-08
2.78626e-08
2.78626e-08
2.78626e-08
2.78626e-08
2.78626e-08
2.78626e-08
2.78626e-08
2.78626e-08
2.78625e-08
2.78625e-08
2.78625e-08
2.78625e-08
2.78625e-08
2.78625e-08
2.78625e-08
2.78625e-08
2.78625e-08
2.78625e-08
2.78625e-08
2.78625e-08
2.78625e-08
2.78625e-08
2.78625e-08
2.78625e-08
2.78625e-08
2.78625e-08
2.78625e-08
2.78625e-08
2.78625e-08
2.78625e-08
2.78625e-08
2.78625e-08
2.78625e-08
2.78625e-08
2.78625e-08
2.78625e-08
2.78625e-08
2.78625e-08
2.78625e-08
2.78625e-08
2.78625e-08
2.78625e-08
2.78625e-08
2.78625e-08
2.78625e-08
2.78625e-08
2.78625e-08
2.78625e-08
2.78625e-08
2.78625e-08
2.78625e-08
2.78625e-08
2.78625e-08
2.78625e-08
2.78625e-08
2.78625e-08
2.78625e-08
2.78625e-08
2.78625e-08
2.78625e-08
2.78625e-08
2.78625e-08
2.78625e-08
2.78625e-08
2.78625e-08
2.78625e-08
2.78625e-08
2.78625e-08
2.78625e-08
2.78626e-08
2.78626e-08
2.78626e-08
2.78626e-08
2.78626e-08
2.78626e-08
2.78626e-08
2.78626e-08
2.78626e-08
2.78626e-08
2.78626e-08
2.78626e-08
2.78626e-08
2.78626e-08
2.78626e-08
2.78626e-08
2.78626e-08
2.78626e-08
2.78626e-08
2.78626e-08
2.78627e-08
2.78627e-08
2.78627e-08
2.78627e-08
2.78627e-08
2.78627e-08
2.78627e-08
2.78627e-08
2.78627e-08
2.78627e-08
2.78627e-08
2.78628e-08
2.78628e-08
2.78628e-08
2.78628e-08
2.78628e-08
2.78628e-08
2.78628e-08
2.78629e-08
2.78629e-08
2.78629e-08
2.78629e-08
2.78629e-08
2.78629e-08
2.7863e-08
2.7863e-08
2.7863e-08
2.7863e-08
2.78631e-08
2.78631e-08
2.78631e-08
2.78631e-08
2.78632e-08
2.78632e-08
2.78632e-08
2.78633e-08
2.78633e-08
2.78634e-08
2.78634e-08
2.78635e-08
2.78635e-08
2.78636e-08
2.78636e-08
2.78637e-08
2.78638e-08
2.78638e-08
2.78639e-08
2.7864e-08
2.78641e-08
2.78642e-08
2.78644e-08
2.78645e-08
2.78647e-08
2.78649e-08
2.78651e-08
2.78654e-08
2.78658e-08
2.78662e-08
2.78668e-08
2.78676e-08
2.78688e-08
2.78709e-08
2.78743e-08
2.78796e-08
2.78976e-08
2.789e-08
2.78778e-08
2.78911e-08
2.7878e-08
2.78723e-08
2.78688e-08
2.7867e-08
2.7866e-08
2.78656e-08
2.78653e-08
2.78651e-08
2.7865e-08
2.78649e-08
2.78648e-08
2.78647e-08
2.78646e-08
2.78645e-08
2.78645e-08
2.78644e-08
2.78644e-08
2.78643e-08
2.78643e-08
2.78643e-08
2.78642e-08
2.78642e-08
2.78642e-08
2.78641e-08
2.78641e-08
2.78641e-08
2.78641e-08
2.7864e-08
2.7864e-08
2.7864e-08
2.7864e-08
2.78639e-08
2.78639e-08
2.78639e-08
2.78639e-08
2.78638e-08
2.78638e-08
2.78638e-08
2.78638e-08
2.78638e-08
2.78637e-08
2.78637e-08
2.78637e-08
2.78637e-08
2.78637e-08
2.78637e-08
2.78637e-08
2.78636e-08
2.78636e-08
2.78636e-08
2.78636e-08
2.78636e-08
2.78636e-08
2.78636e-08
2.78636e-08
2.78635e-08
2.78635e-08
2.78635e-08
2.78635e-08
2.78635e-08
2.78635e-08
2.78635e-08
2.78635e-08
2.78635e-08
2.78635e-08
2.78635e-08
2.78635e-08
2.78635e-08
2.78635e-08
2.78635e-08
2.78635e-08
2.78634e-08
2.78634e-08
2.78634e-08
2.78634e-08
2.78634e-08
2.78634e-08
2.78634e-08
2.78634e-08
2.78634e-08
2.78634e-08
2.78634e-08
2.78634e-08
2.78634e-08
2.78634e-08
2.78634e-08
2.78634e-08
2.78634e-08
2.78634e-08
2.78634e-08
2.78634e-08
2.78634e-08
2.78634e-08
2.78634e-08
2.78634e-08
2.78635e-08
2.78635e-08
2.78635e-08
2.78635e-08
2.78635e-08
2.78635e-08
2.78635e-08
2.78635e-08
2.78635e-08
2.78635e-08
2.78635e-08
2.78635e-08
2.78635e-08
2.78635e-08
2.78635e-08
2.78635e-08
2.78636e-08
2.78636e-08
2.78636e-08
2.78636e-08
2.78636e-08
2.78636e-08
2.78636e-08
2.78636e-08
2.78636e-08
2.78637e-08
2.78637e-08
2.78637e-08
2.78637e-08
2.78637e-08
2.78637e-08
2.78638e-08
2.78638e-08
2.78638e-08
2.78638e-08
2.78638e-08
2.78639e-08
2.78639e-08
2.78639e-08
2.78639e-08
2.7864e-08
2.7864e-08
2.7864e-08
2.7864e-08
2.78641e-08
2.78641e-08
2.78641e-08
2.78642e-08
2.78642e-08
2.78642e-08
2.78643e-08
2.78643e-08
2.78644e-08
2.78644e-08
2.78645e-08
2.78645e-08
2.78646e-08
2.78646e-08
2.78647e-08
2.78647e-08
2.78648e-08
2.78648e-08
2.78649e-08
2.7865e-08
2.78651e-08
2.78651e-08
2.78652e-08
2.78653e-08
2.78654e-08
2.78655e-08
2.78656e-08
2.78657e-08
2.78658e-08
2.78659e-08
2.78661e-08
2.78662e-08
2.78663e-08
2.78665e-08
2.78667e-08
2.78668e-08
2.78671e-08
2.78673e-08
2.78675e-08
2.78678e-08
2.78681e-08
2.78684e-08
2.78688e-08
2.78692e-08
2.78697e-08
2.78702e-08
2.78709e-08
2.78716e-08
2.78725e-08
2.78736e-08
2.7875e-08
2.78768e-08
2.78793e-08
2.78829e-08
2.78889e-08
2.78992e-08
2.79162e-08
2.79622e-08
2.79197e-08
2.78842e-08
2.79096e-08
2.78885e-08
2.78791e-08
2.78734e-08
2.78706e-08
2.78691e-08
2.78683e-08
2.78678e-08
2.78675e-08
2.78673e-08
2.7867e-08
2.78669e-08
2.78667e-08
2.78666e-08
2.78664e-08
2.78663e-08
2.78662e-08
2.78661e-08
2.78661e-08
2.7866e-08
2.78659e-08
2.78658e-08
2.78658e-08
2.78657e-08
2.78657e-08
2.78656e-08
2.78655e-08
2.78655e-08
2.78654e-08
2.78654e-08
2.78654e-08
2.78653e-08
2.78653e-08
2.78652e-08
2.78652e-08
2.78652e-08
2.78651e-08
2.78651e-08
2.78651e-08
2.7865e-08
2.7865e-08
2.7865e-08
2.78649e-08
2.78649e-08
2.78649e-08
2.78649e-08
2.78648e-08
2.78648e-08
2.78648e-08
2.78648e-08
2.78647e-08
2.78647e-08
2.78647e-08
2.78647e-08
2.78647e-08
2.78646e-08
2.78646e-08
2.78646e-08
2.78646e-08
2.78646e-08
2.78646e-08
2.78645e-08
2.78645e-08
2.78645e-08
2.78645e-08
2.78645e-08
2.78645e-08
2.78645e-08
2.78645e-08
2.78645e-08
2.78645e-08
2.78645e-08
2.78644e-08
2.78644e-08
2.78644e-08
2.78644e-08
2.78644e-08
2.78644e-08
2.78644e-08
2.78644e-08
2.78644e-08
2.78644e-08
2.78644e-08
2.78644e-08
2.78644e-08
2.78644e-08
2.78644e-08
2.78644e-08
2.78644e-08
2.78644e-08
2.78644e-08
2.78644e-08
2.78644e-08
2.78644e-08
2.78644e-08
2.78644e-08
2.78644e-08
2.78644e-08
2.78645e-08
2.78645e-08
2.78645e-08
2.78645e-08
2.78645e-08
2.78645e-08
2.78645e-08
2.78645e-08
2.78645e-08
2.78645e-08
2.78646e-08
2.78646e-08
2.78646e-08
2.78646e-08
2.78646e-08
2.78646e-08
2.78647e-08
2.78647e-08
2.78647e-08
2.78647e-08
2.78647e-08
2.78648e-08
2.78648e-08
2.78648e-08
2.78648e-08
2.78649e-08
2.78649e-08
2.78649e-08
2.78649e-08
2.7865e-08
2.7865e-08
2.7865e-08
2.78651e-08
2.78651e-08
2.78651e-08
2.78652e-08
2.78652e-08
2.78653e-08
2.78653e-08
2.78654e-08
2.78654e-08
2.78655e-08
2.78655e-08
2.78656e-08
2.78656e-08
2.78657e-08
2.78657e-08
2.78658e-08
2.78659e-08
2.78659e-08
2.7866e-08
2.78661e-08
2.78661e-08
2.78662e-08
2.78663e-08
2.78664e-08
2.78665e-08
2.78666e-08
2.78667e-08
2.78668e-08
2.78669e-08
2.7867e-08
2.78671e-08
2.78673e-08
2.78674e-08
2.78676e-08
2.78677e-08
2.78679e-08
2.7868e-08
2.78682e-08
2.78684e-08
2.78686e-08
2.78688e-08
2.7869e-08
2.78693e-08
2.78696e-08
2.78699e-08
2.78702e-08
2.78705e-08
2.78709e-08
2.78713e-08
2.78718e-08
2.78723e-08
2.78728e-08
2.78735e-08
2.78742e-08
2.7875e-08
2.78759e-08
2.7877e-08
2.78783e-08
2.78798e-08
2.78816e-08
2.78839e-08
2.78868e-08
2.78908e-08
2.78967e-08
2.79062e-08
2.79226e-08
2.79498e-08
2.80212e-08
2.79391e-08
2.78897e-08
2.79273e-08
2.78987e-08
2.78858e-08
2.78782e-08
2.78744e-08
2.78724e-08
2.78713e-08
2.78706e-08
2.78701e-08
2.78697e-08
2.78694e-08
2.78691e-08
2.78689e-08
2.78687e-08
2.78685e-08
2.78683e-08
2.78681e-08
2.7868e-08
2.78679e-08
2.78677e-08
2.78676e-08
2.78675e-08
2.78674e-08
2.78673e-08
2.78672e-08
2.78672e-08
2.78671e-08
2.7867e-08
2.78669e-08
2.78669e-08
2.78668e-08
2.78667e-08
2.78667e-08
2.78666e-08
2.78666e-08
2.78665e-08
2.78665e-08
2.78664e-08
2.78664e-08
2.78663e-08
2.78663e-08
2.78662e-08
2.78662e-08
2.78661e-08
2.78661e-08
2.78661e-08
2.7866e-08
2.7866e-08
2.7866e-08
2.78659e-08
2.78659e-08
2.78659e-08
2.78658e-08
2.78658e-08
2.78658e-08
2.78658e-08
2.78657e-08
2.78657e-08
2.78657e-08
2.78657e-08
2.78656e-08
2.78656e-08
2.78656e-08
2.78656e-08
2.78656e-08
2.78656e-08
2.78655e-08
2.78655e-08
2.78655e-08
2.78655e-08
2.78655e-08
2.78655e-08
2.78655e-08
2.78655e-08
2.78655e-08
2.78655e-08
2.78654e-08
2.78654e-08
2.78654e-08
2.78654e-08
2.78654e-08
2.78654e-08
2.78654e-08
2.78654e-08
2.78654e-08
2.78654e-08
2.78654e-08
2.78654e-08
2.78654e-08
2.78654e-08
2.78654e-08
2.78654e-08
2.78654e-08
2.78654e-08
2.78655e-08
2.78655e-08
2.78655e-08
2.78655e-08
2.78655e-08
2.78655e-08
2.78655e-08
2.78655e-08
2.78655e-08
2.78656e-08
2.78656e-08
2.78656e-08
2.78656e-08
2.78656e-08
2.78656e-08
2.78657e-08
2.78657e-08
2.78657e-08
2.78657e-08
2.78657e-08
2.78658e-08
2.78658e-08
2.78658e-08
2.78658e-08
2.78659e-08
2.78659e-08
2.78659e-08
2.7866e-08
2.7866e-08
2.78661e-08
2.78661e-08
2.78661e-08
2.78662e-08
2.78662e-08
2.78663e-08
2.78663e-08
2.78664e-08
2.78664e-08
2.78665e-08
2.78665e-08
2.78666e-08
2.78666e-08
2.78667e-08
2.78668e-08
2.78668e-08
2.78669e-08
2.7867e-08
2.78671e-08
2.78671e-08
2.78672e-08
2.78673e-08
2.78674e-08
2.78675e-08
2.78676e-08
2.78677e-08
2.78678e-08
2.78679e-08
2.7868e-08
2.78681e-08
2.78682e-08
2.78684e-08
2.78685e-08
2.78686e-08
2.78688e-08
2.78689e-08
2.78691e-08
2.78693e-08
2.78695e-08
2.78696e-08
2.78698e-08
2.78701e-08
2.78703e-08
2.78705e-08
2.78708e-08
2.7871e-08
2.78713e-08
2.78716e-08
2.7872e-08
2.78723e-08
2.78727e-08
2.78731e-08
2.78736e-08
2.7874e-08
2.78746e-08
2.78752e-08
2.78758e-08
2.78765e-08
2.78773e-08
2.78783e-08
2.78793e-08
2.78804e-08
2.78817e-08
2.78832e-08
2.7885e-08
2.78871e-08
2.78896e-08
2.78928e-08
2.78969e-08
2.79024e-08
2.79103e-08
2.7923e-08
2.79449e-08
2.79813e-08
2.8076e-08
2.79551e-08
2.78966e-08
2.7944e-08
2.79089e-08
2.78926e-08
2.78831e-08
2.78784e-08
2.7876e-08
2.78746e-08
2.78736e-08
2.78729e-08
2.78724e-08
2.7872e-08
2.78716e-08
2.78712e-08
2.78709e-08
2.78707e-08
2.78704e-08
2.78702e-08
2.787e-08
2.78698e-08
2.78696e-08
2.78695e-08
2.78693e-08
2.78692e-08
2.7869e-08
2.78689e-08
2.78688e-08
2.78687e-08
2.78686e-08
2.78685e-08
2.78684e-08
2.78683e-08
2.78682e-08
2.78681e-08
2.78681e-08
2.7868e-08
2.78679e-08
2.78679e-08
2.78678e-08
2.78677e-08
2.78677e-08
2.78676e-08
2.78675e-08
2.78675e-08
2.78674e-08
2.78674e-08
2.78673e-08
2.78673e-08
2.78672e-08
2.78672e-08
2.78671e-08
2.78671e-08
2.78671e-08
2.7867e-08
2.7867e-08
2.78669e-08
2.78669e-08
2.78669e-08
2.78668e-08
2.78668e-08
2.78668e-08
2.78668e-08
2.78667e-08
2.78667e-08
2.78667e-08
2.78667e-08
2.78667e-08
2.78666e-08
2.78666e-08
2.78666e-08
2.78666e-08
2.78666e-08
2.78666e-08
2.78665e-08
2.78665e-08
2.78665e-08
2.78665e-08
2.78665e-08
2.78665e-08
2.78665e-08
2.78665e-08
2.78665e-08
2.78665e-08
2.78665e-08
2.78665e-08
2.78665e-08
2.78665e-08
2.78665e-08
2.78665e-08
2.78665e-08
2.78665e-08
2.78665e-08
2.78665e-08
2.78665e-08
2.78665e-08
2.78665e-08
2.78665e-08
2.78665e-08
2.78665e-08
2.78666e-08
2.78666e-08
2.78666e-08
2.78666e-08
2.78666e-08
2.78666e-08
2.78667e-08
2.78667e-08
2.78667e-08
2.78667e-08
2.78667e-08
2.78668e-08
2.78668e-08
2.78668e-08
2.78669e-08
2.78669e-08
2.78669e-08
2.7867e-08
2.7867e-08
2.7867e-08
2.78671e-08
2.78671e-08
2.78671e-08
2.78672e-08
2.78672e-08
2.78673e-08
2.78673e-08
2.78674e-08
2.78675e-08
2.78675e-08
2.78676e-08
2.78676e-08
2.78677e-08
2.78678e-08
2.78678e-08
2.78679e-08
2.7868e-08
2.78681e-08
2.78681e-08
2.78682e-08
2.78683e-08
2.78684e-08
2.78685e-08
2.78686e-08
2.78687e-08
2.78688e-08
2.78689e-08
2.7869e-08
2.78691e-08
2.78692e-08
2.78694e-08
2.78695e-08
2.78696e-08
2.78698e-08
2.78699e-08
2.78701e-08
2.78703e-08
2.78704e-08
2.78706e-08
2.78708e-08
2.7871e-08
2.78712e-08
2.78715e-08
2.78717e-08
2.78719e-08
2.78722e-08
2.78725e-08
2.78728e-08
2.78731e-08
2.78734e-08
2.78737e-08
2.78741e-08
2.78745e-08
2.7875e-08
2.78754e-08
2.78759e-08
2.78765e-08
2.7877e-08
2.78777e-08
2.78784e-08
2.78792e-08
2.788e-08
2.78809e-08
2.7882e-08
2.78832e-08
2.78845e-08
2.78859e-08
2.78877e-08
2.78896e-08
2.78919e-08
2.78946e-08
2.78978e-08
2.79019e-08
2.79071e-08
2.7914e-08
2.79239e-08
2.79395e-08
2.79666e-08
2.80115e-08
2.81262e-08
2.79754e-08
2.79046e-08
2.79604e-08
2.79189e-08
2.78994e-08
2.78882e-08
2.78827e-08
2.78798e-08
2.7878e-08
2.78769e-08
2.7876e-08
2.78753e-08
2.78747e-08
2.78742e-08
2.78738e-08
2.78734e-08
2.7873e-08
2.78727e-08
2.78724e-08
2.78721e-08
2.78719e-08
2.78716e-08
2.78714e-08
2.78712e-08
2.7871e-08
2.78709e-08
2.78707e-08
2.78705e-08
2.78704e-08
2.78703e-08
2.78701e-08
2.787e-08
2.78699e-08
2.78698e-08
2.78697e-08
2.78696e-08
2.78695e-08
2.78694e-08
2.78693e-08
2.78692e-08
2.78691e-08
2.78691e-08
2.7869e-08
2.78689e-08
2.78688e-08
2.78688e-08
2.78687e-08
2.78686e-08
2.78686e-08
2.78685e-08
2.78685e-08
2.78684e-08
2.78683e-08
2.78683e-08
2.78682e-08
2.78682e-08
2.78681e-08
2.78681e-08
2.78681e-08
2.7868e-08
2.7868e-08
2.7868e-08
2.78679e-08
2.78679e-08
2.78679e-08
2.78678e-08
2.78678e-08
2.78678e-08
2.78678e-08
2.78677e-08
2.78677e-08
2.78677e-08
2.78677e-08
2.78677e-08
2.78676e-08
2.78676e-08
2.78676e-08
2.78676e-08
2.78676e-08
2.78676e-08
2.78676e-08
2.78676e-08
2.78676e-08
2.78676e-08
2.78675e-08
2.78675e-08
2.78675e-08
2.78675e-08
2.78675e-08
2.78675e-08
2.78675e-08
2.78676e-08
2.78676e-08
2.78676e-08
2.78676e-08
2.78676e-08
2.78676e-08
2.78676e-08
2.78676e-08
2.78676e-08
2.78677e-08
2.78677e-08
2.78677e-08
2.78677e-08
2.78677e-08
2.78678e-08
2.78678e-08
2.78678e-08
2.78678e-08
2.78679e-08
2.78679e-08
2.78679e-08
2.7868e-08
2.7868e-08
2.7868e-08
2.78681e-08
2.78681e-08
2.78681e-08
2.78682e-08
2.78682e-08
2.78683e-08
2.78683e-08
2.78684e-08
2.78684e-08
2.78685e-08
2.78686e-08
2.78686e-08
2.78687e-08
2.78688e-08
2.78688e-08
2.78689e-08
2.7869e-08
2.78691e-08
2.78691e-08
2.78692e-08
2.78693e-08
2.78694e-08
2.78695e-08
2.78696e-08
2.78697e-08
2.78698e-08
2.78699e-08
2.787e-08
2.78701e-08
2.78703e-08
2.78704e-08
2.78705e-08
2.78707e-08
2.78708e-08
2.7871e-08
2.78711e-08
2.78713e-08
2.78715e-08
2.78716e-08
2.78718e-08
2.7872e-08
2.78722e-08
2.78724e-08
2.78727e-08
2.78729e-08
2.78732e-08
2.78734e-08
2.78737e-08
2.7874e-08
2.78743e-08
2.78746e-08
2.78749e-08
2.78753e-08
2.78757e-08
2.78761e-08
2.78765e-08
2.7877e-08
2.78775e-08
2.7878e-08
2.78786e-08
2.78792e-08
2.78799e-08
2.78806e-08
2.78814e-08
2.78823e-08
2.78833e-08
2.78843e-08
2.78855e-08
2.78868e-08
2.78882e-08
2.78898e-08
2.78916e-08
2.78937e-08
2.78962e-08
2.7899e-08
2.79022e-08
2.79062e-08
2.79111e-08
2.79174e-08
2.79257e-08
2.79375e-08
2.79559e-08
2.79877e-08
2.80403e-08
2.8174e-08
2.79983e-08
2.79116e-08
2.79767e-08
2.79289e-08
2.79063e-08
2.78935e-08
2.78872e-08
2.78838e-08
2.78818e-08
2.78803e-08
2.78792e-08
2.78784e-08
2.78777e-08
2.7877e-08
2.78764e-08
2.78759e-08
2.78755e-08
2.78751e-08
2.78747e-08
2.78744e-08
2.7874e-08
2.78738e-08
2.78735e-08
2.78732e-08
2.7873e-08
2.78728e-08
2.78726e-08
2.78724e-08
2.78722e-08
2.7872e-08
2.78718e-08
2.78717e-08
2.78715e-08
2.78714e-08
2.78713e-08
2.78712e-08
2.7871e-08
2.78709e-08
2.78708e-08
2.78707e-08
2.78706e-08
2.78705e-08
2.78704e-08
2.78703e-08
2.78702e-08
2.78702e-08
2.78701e-08
2.787e-08
2.78699e-08
2.78698e-08
2.78698e-08
2.78697e-08
2.78696e-08
2.78696e-08
2.78695e-08
2.78695e-08
2.78694e-08
2.78693e-08
2.78693e-08
2.78692e-08
2.78692e-08
2.78692e-08
2.78691e-08
2.78691e-08
2.78691e-08
2.7869e-08
2.7869e-08
2.7869e-08
2.78689e-08
2.78689e-08
2.78689e-08
2.78689e-08
2.78688e-08
2.78688e-08
2.78688e-08
2.78688e-08
2.78687e-08
2.78687e-08
2.78687e-08
2.78687e-08
2.78687e-08
2.78687e-08
2.78687e-08
2.78687e-08
2.78687e-08
2.78687e-08
2.78687e-08
2.78687e-08
2.78687e-08
2.78687e-08
2.78687e-08
2.78687e-08
2.78687e-08
2.78687e-08
2.78687e-08
2.78687e-08
2.78687e-08
2.78687e-08
2.78687e-08
2.78688e-08
2.78688e-08
2.78688e-08
2.78688e-08
2.78688e-08
2.78689e-08
2.78689e-08
2.78689e-08
2.7869e-08
2.7869e-08
2.7869e-08
2.78691e-08
2.78691e-08
2.78691e-08
2.78692e-08
2.78692e-08
2.78693e-08
2.78693e-08
2.78694e-08
2.78694e-08
2.78695e-08
2.78695e-08
2.78696e-08
2.78697e-08
2.78697e-08
2.78698e-08
2.78699e-08
2.78699e-08
2.787e-08
2.78701e-08
2.78702e-08
2.78703e-08
2.78704e-08
2.78705e-08
2.78706e-08
2.78707e-08
2.78708e-08
2.78709e-08
2.7871e-08
2.78711e-08
2.78712e-08
2.78713e-08
2.78715e-08
2.78716e-08
2.78718e-08
2.78719e-08
2.78721e-08
2.78722e-08
2.78724e-08
2.78726e-08
2.78727e-08
2.78729e-08
2.78731e-08
2.78733e-08
2.78735e-08
2.78738e-08
2.7874e-08
2.78742e-08
2.78745e-08
2.78748e-08
2.78751e-08
2.78753e-08
2.78757e-08
2.7876e-08
2.78763e-08
2.78767e-08
2.78771e-08
2.78775e-08
2.78779e-08
2.78784e-08
2.78789e-08
2.78794e-08
2.788e-08
2.78806e-08
2.78812e-08
2.78819e-08
2.78827e-08
2.78835e-08
2.78844e-08
2.78853e-08
2.78864e-08
2.78875e-08
2.78888e-08
2.78901e-08
2.78917e-08
2.78934e-08
2.78953e-08
2.78975e-08
2.79e-08
2.79028e-08
2.79061e-08
2.791e-08
2.79147e-08
2.79205e-08
2.79278e-08
2.79375e-08
2.79511e-08
2.79721e-08
2.80083e-08
2.80682e-08
2.82199e-08
2.80174e-08
2.792e-08
2.79923e-08
2.79388e-08
2.79133e-08
2.7899e-08
2.7892e-08
2.78881e-08
2.78857e-08
2.7884e-08
2.78827e-08
2.78816e-08
2.78808e-08
2.788e-08
2.78793e-08
2.78787e-08
2.78781e-08
2.78776e-08
2.78772e-08
2.78767e-08
2.78764e-08
2.7876e-08
2.78757e-08
2.78753e-08
2.78751e-08
2.78748e-08
2.78745e-08
2.78743e-08
2.78741e-08
2.78739e-08
2.78737e-08
2.78735e-08
2.78733e-08
2.78731e-08
2.7873e-08
2.78728e-08
2.78727e-08
2.78725e-08
2.78724e-08
2.78723e-08
2.78721e-08
2.7872e-08
2.78719e-08
2.78718e-08
2.78717e-08
2.78716e-08
2.78715e-08
2.78714e-08
2.78713e-08
2.78712e-08
2.78711e-08
2.78711e-08
2.7871e-08
2.78709e-08
2.78708e-08
2.78708e-08
2.78707e-08
2.78706e-08
2.78706e-08
2.78705e-08
2.78705e-08
2.78704e-08
2.78704e-08
2.78703e-08
2.78703e-08
2.78702e-08
2.78702e-08
2.78702e-08
2.78701e-08
2.78701e-08
2.78701e-08
2.787e-08
2.787e-08
2.787e-08
2.787e-08
2.78699e-08
2.78699e-08
2.78699e-08
2.78699e-08
2.78699e-08
2.78698e-08
2.78698e-08
2.78698e-08
2.78698e-08
2.78698e-08
2.78698e-08
2.78698e-08
2.78698e-08
2.78698e-08
2.78698e-08
2.78698e-08
2.78698e-08
2.78698e-08
2.78698e-08
2.78698e-08
2.78699e-08
2.78699e-08
2.78699e-08
2.78699e-08
2.78699e-08
2.78699e-08
2.787e-08
2.787e-08
2.787e-08
2.78701e-08
2.78701e-08
2.78701e-08
2.78702e-08
2.78702e-08
2.78702e-08
2.78703e-08
2.78703e-08
2.78704e-08
2.78704e-08
2.78705e-08
2.78705e-08
2.78706e-08
2.78706e-08
2.78707e-08
2.78708e-08
2.78708e-08
2.78709e-08
2.7871e-08
2.7871e-08
2.78711e-08
2.78712e-08
2.78713e-08
2.78714e-08
2.78715e-08
2.78716e-08
2.78717e-08
2.78718e-08
2.78719e-08
2.7872e-08
2.78721e-08
2.78723e-08
2.78724e-08
2.78725e-08
2.78726e-08
2.78728e-08
2.78729e-08
2.78731e-08
2.78732e-08
2.78734e-08
2.78736e-08
2.78738e-08
2.78739e-08
2.78741e-08
2.78743e-08
2.78746e-08
2.78748e-08
2.7875e-08
2.78752e-08
2.78755e-08
2.78758e-08
2.7876e-08
2.78763e-08
2.78766e-08
2.78769e-08
2.78773e-08
2.78776e-08
2.7878e-08
2.78784e-08
2.78788e-08
2.78792e-08
2.78796e-08
2.78801e-08
2.78806e-08
2.78812e-08
2.78818e-08
2.78824e-08
2.7883e-08
2.78838e-08
2.78845e-08
2.78853e-08
2.78862e-08
2.78872e-08
2.78882e-08
2.78893e-08
2.78905e-08
2.78919e-08
2.78933e-08
2.78949e-08
2.78967e-08
2.78987e-08
2.7901e-08
2.79035e-08
2.79063e-08
2.79096e-08
2.79134e-08
2.79179e-08
2.79233e-08
2.79299e-08
2.79383e-08
2.79493e-08
2.79647e-08
2.79881e-08
2.80285e-08
2.80952e-08
2.82624e-08
2.80403e-08
2.79289e-08
2.80082e-08
2.79486e-08
2.79203e-08
2.79047e-08
2.78969e-08
2.78926e-08
2.78898e-08
2.78878e-08
2.78863e-08
2.78851e-08
2.7884e-08
2.78831e-08
2.78823e-08
2.78815e-08
2.78809e-08
2.78803e-08
2.78797e-08
2.78792e-08
2.78788e-08
2.78784e-08
2.7878e-08
2.78776e-08
2.78772e-08
2.78769e-08
2.78766e-08
2.78763e-08
2.7876e-08
2.78758e-08
2.78756e-08
2.78753e-08
2.78751e-08
2.78749e-08
2.78747e-08
2.78745e-08
2.78744e-08
2.78742e-08
2.7874e-08
2.78739e-08
2.78738e-08
2.78736e-08
2.78735e-08
2.78734e-08
2.78732e-08
2.78731e-08
2.7873e-08
2.78729e-08
2.78728e-08
2.78727e-08
2.78726e-08
2.78725e-08
2.78724e-08
2.78723e-08
2.78722e-08
2.78721e-08
2.7872e-08
2.7872e-08
2.78719e-08
2.78718e-08
2.78718e-08
2.78717e-08
2.78717e-08
2.78716e-08
2.78716e-08
2.78715e-08
2.78715e-08
2.78714e-08
2.78714e-08
2.78713e-08
2.78713e-08
2.78713e-08
2.78712e-08
2.78712e-08
2.78712e-08
2.78711e-08
2.78711e-08
2.78711e-08
2.78711e-08
2.78711e-08
2.7871e-08
2.7871e-08
2.7871e-08
2.7871e-08
2.7871e-08
2.7871e-08
2.7871e-08
2.7871e-08
2.7871e-08
2.7871e-08
2.7871e-08
2.7871e-08
2.7871e-08
2.7871e-08
2.7871e-08
2.7871e-08
2.78711e-08
2.78711e-08
2.78711e-08
2.78711e-08
2.78711e-08
2.78712e-08
2.78712e-08
2.78712e-08
2.78713e-08
2.78713e-08
2.78713e-08
2.78714e-08
2.78714e-08
2.78715e-08
2.78715e-08
2.78716e-08
2.78716e-08
2.78717e-08
2.78717e-08
2.78718e-08
2.78719e-08
2.78719e-08
2.7872e-08
2.78721e-08
2.78721e-08
2.78722e-08
2.78723e-08
2.78724e-08
2.78725e-08
2.78726e-08
2.78727e-08
2.78728e-08
2.78729e-08
2.7873e-08
2.78731e-08
2.78733e-08
2.78734e-08
2.78735e-08
2.78736e-08
2.78738e-08
2.78739e-08
2.78741e-08
2.78742e-08
2.78744e-08
2.78746e-08
2.78747e-08
2.78749e-08
2.78751e-08
2.78753e-08
2.78755e-08
2.78757e-08
2.7876e-08
2.78762e-08
2.78764e-08
2.78767e-08
2.78769e-08
2.78772e-08
2.78775e-08
2.78778e-08
2.78781e-08
2.78785e-08
2.78788e-08
2.78792e-08
2.78795e-08
2.78799e-08
2.78804e-08
2.78808e-08
2.78813e-08
2.78818e-08
2.78823e-08
2.78828e-08
2.78834e-08
2.78841e-08
2.78847e-08
2.78854e-08
2.78862e-08
2.7887e-08
2.78879e-08
2.78888e-08
2.78898e-08
2.78909e-08
2.78921e-08
2.78934e-08
2.78948e-08
2.78963e-08
2.7898e-08
2.78998e-08
2.79019e-08
2.79042e-08
2.79067e-08
2.79096e-08
2.79128e-08
2.79165e-08
2.79209e-08
2.79259e-08
2.7932e-08
2.79394e-08
2.79489e-08
2.79612e-08
2.79783e-08
2.80041e-08
2.80483e-08
2.81211e-08
2.83045e-08
2.80643e-08
2.79384e-08
2.80239e-08
2.79585e-08
2.79275e-08
2.79106e-08
2.79021e-08
2.78973e-08
2.78941e-08
2.78918e-08
2.78901e-08
2.78887e-08
2.78874e-08
2.78864e-08
2.78854e-08
2.78846e-08
2.78838e-08
2.78831e-08
2.78825e-08
2.78819e-08
2.78813e-08
2.78808e-08
2.78804e-08
2.78799e-08
2.78795e-08
2.78791e-08
2.78788e-08
2.78784e-08
2.78781e-08
2.78778e-08
2.78775e-08
2.78773e-08
2.7877e-08
2.78768e-08
2.78765e-08
2.78763e-08
2.78761e-08
2.78759e-08
2.78758e-08
2.78756e-08
2.78754e-08
2.78753e-08
2.78751e-08
2.7875e-08
2.78748e-08
2.78747e-08
2.78745e-08
2.78744e-08
2.78743e-08
2.78742e-08
2.7874e-08
2.78739e-08
2.78738e-08
2.78737e-08
2.78736e-08
2.78735e-08
2.78734e-08
2.78733e-08
2.78733e-08
2.78732e-08
2.78731e-08
2.78731e-08
2.7873e-08
2.78729e-08
2.78729e-08
2.78728e-08
2.78728e-08
2.78727e-08
2.78727e-08
2.78726e-08
2.78726e-08
2.78725e-08
2.78725e-08
2.78725e-08
2.78724e-08
2.78724e-08
2.78724e-08
2.78723e-08
2.78723e-08
2.78723e-08
2.78723e-08
2.78723e-08
2.78722e-08
2.78722e-08
2.78722e-08
2.78722e-08
2.78722e-08
2.78722e-08
2.78722e-08
2.78722e-08
2.78722e-08
2.78722e-08
2.78722e-08
2.78722e-08
2.78722e-08
2.78723e-08
2.78723e-08
2.78723e-08
2.78723e-08
2.78723e-08
2.78724e-08
2.78724e-08
2.78724e-08
2.78725e-08
2.78725e-08
2.78725e-08
2.78726e-08
2.78726e-08
2.78727e-08
2.78727e-08
2.78728e-08
2.78729e-08
2.78729e-08
2.7873e-08
2.7873e-08
2.78731e-08
2.78732e-08
2.78733e-08
2.78733e-08
2.78734e-08
2.78735e-08
2.78736e-08
2.78737e-08
2.78738e-08
2.78739e-08
2.7874e-08
2.78741e-08
2.78742e-08
2.78744e-08
2.78745e-08
2.78746e-08
2.78748e-08
2.78749e-08
2.7875e-08
2.78752e-08
2.78754e-08
2.78755e-08
2.78757e-08
2.78759e-08
2.78761e-08
2.78763e-08
2.78764e-08
2.78767e-08
2.78769e-08
2.78771e-08
2.78773e-08
2.78776e-08
2.78778e-08
2.78781e-08
2.78784e-08
2.78786e-08
2.78789e-08
2.78793e-08
2.78796e-08
2.78799e-08
2.78803e-08
2.78807e-08
2.7881e-08
2.78815e-08
2.78819e-08
2.78823e-08
2.78828e-08
2.78833e-08
2.78838e-08
2.78844e-08
2.7885e-08
2.78856e-08
2.78863e-08
2.7887e-08
2.78878e-08
2.78886e-08
2.78895e-08
2.78904e-08
2.78914e-08
2.78924e-08
2.78936e-08
2.78948e-08
2.78962e-08
2.78976e-08
2.78992e-08
2.79009e-08
2.79028e-08
2.79049e-08
2.79072e-08
2.79097e-08
2.79126e-08
2.79158e-08
2.79194e-08
2.79236e-08
2.79284e-08
2.79341e-08
2.79408e-08
2.7949e-08
2.79596e-08
2.79732e-08
2.79919e-08
2.802e-08
2.80677e-08
2.81466e-08
2.83449e-08
2.80893e-08
2.79465e-08
2.80397e-08
2.79683e-08
2.79348e-08
2.79166e-08
2.79075e-08
2.79021e-08
2.78986e-08
2.7896e-08
2.78941e-08
2.78924e-08
2.7891e-08
2.78898e-08
2.78887e-08
2.78877e-08
2.78868e-08
2.7886e-08
2.78853e-08
2.78846e-08
2.7884e-08
2.78834e-08
2.78829e-08
2.78824e-08
2.78819e-08
2.78814e-08
2.7881e-08
2.78806e-08
2.78803e-08
2.78799e-08
2.78796e-08
2.78793e-08
2.7879e-08
2.78787e-08
2.78785e-08
2.78782e-08
2.7878e-08
2.78778e-08
2.78775e-08
2.78773e-08
2.78771e-08
2.7877e-08
2.78768e-08
2.78766e-08
2.78764e-08
2.78763e-08
2.78761e-08
2.7876e-08
2.78758e-08
2.78757e-08
2.78756e-08
2.78754e-08
2.78753e-08
2.78752e-08
2.78751e-08
2.7875e-08
2.78749e-08
2.78748e-08
2.78747e-08
2.78746e-08
2.78745e-08
2.78744e-08
2.78744e-08
2.78743e-08
2.78742e-08
2.78742e-08
2.78741e-08
2.78741e-08
2.7874e-08
2.78739e-08
2.78739e-08
2.78738e-08
2.78738e-08
2.78738e-08
2.78737e-08
2.78737e-08
2.78736e-08
2.78736e-08
2.78736e-08
2.78736e-08
2.78735e-08
2.78735e-08
2.78735e-08
2.78735e-08
2.78735e-08
2.78735e-08
2.78735e-08
2.78735e-08
2.78735e-08
2.78735e-08
2.78735e-08
2.78735e-08
2.78735e-08
2.78735e-08
2.78735e-08
2.78735e-08
2.78735e-08
2.78736e-08
2.78736e-08
2.78736e-08
2.78736e-08
2.78737e-08
2.78737e-08
2.78737e-08
2.78738e-08
2.78738e-08
2.78739e-08
2.78739e-08
2.7874e-08
2.7874e-08
2.78741e-08
2.78742e-08
2.78742e-08
2.78743e-08
2.78744e-08
2.78745e-08
2.78745e-08
2.78746e-08
2.78747e-08
2.78748e-08
2.78749e-08
2.7875e-08
2.78751e-08
2.78752e-08
2.78753e-08
2.78755e-08
2.78756e-08
2.78757e-08
2.78759e-08
2.7876e-08
2.78762e-08
2.78763e-08
2.78765e-08
2.78766e-08
2.78768e-08
2.7877e-08
2.78772e-08
2.78774e-08
2.78776e-08
2.78778e-08
2.7878e-08
2.78782e-08
2.78784e-08
2.78787e-08
2.78789e-08
2.78792e-08
2.78795e-08
2.78797e-08
2.788e-08
2.78803e-08
2.78807e-08
2.7881e-08
2.78814e-08
2.78817e-08
2.78821e-08
2.78825e-08
2.78829e-08
2.78834e-08
2.78838e-08
2.78843e-08
2.78848e-08
2.78853e-08
2.78859e-08
2.78865e-08
2.78871e-08
2.78878e-08
2.78885e-08
2.78893e-08
2.78901e-08
2.78909e-08
2.78918e-08
2.78928e-08
2.78938e-08
2.7895e-08
2.78961e-08
2.78974e-08
2.78988e-08
2.79003e-08
2.79019e-08
2.79037e-08
2.79056e-08
2.79077e-08
2.791e-08
2.79125e-08
2.79154e-08
2.79185e-08
2.79221e-08
2.79261e-08
2.79307e-08
2.7936e-08
2.79423e-08
2.79497e-08
2.79588e-08
2.79703e-08
2.79852e-08
2.80056e-08
2.80358e-08
2.8087e-08
2.81714e-08
2.83846e-08
2.81097e-08
2.79559e-08
2.8055e-08
2.79782e-08
2.79422e-08
2.79229e-08
2.7913e-08
2.79072e-08
2.79033e-08
2.79004e-08
2.78982e-08
2.78963e-08
2.78947e-08
2.78933e-08
2.78921e-08
2.7891e-08
2.789e-08
2.78891e-08
2.78882e-08
2.78874e-08
2.78867e-08
2.78861e-08
2.78855e-08
2.78849e-08
2.78843e-08
2.78838e-08
2.78834e-08
2.78829e-08
2.78825e-08
2.78821e-08
2.78817e-08
2.78814e-08
2.7881e-08
2.78807e-08
2.78804e-08
2.78802e-08
2.78799e-08
2.78796e-08
2.78794e-08
2.78792e-08
2.78789e-08
2.78787e-08
2.78785e-08
2.78783e-08
2.78781e-08
2.7878e-08
2.78778e-08
2.78776e-08
2.78775e-08
2.78773e-08
2.78772e-08
2.7877e-08
2.78769e-08
2.78767e-08
2.78766e-08
2.78765e-08
2.78764e-08
2.78763e-08
2.78762e-08
2.78761e-08
2.7876e-08
2.78759e-08
2.78758e-08
2.78757e-08
2.78756e-08
2.78756e-08
2.78755e-08
2.78754e-08
2.78754e-08
2.78753e-08
2.78753e-08
2.78752e-08
2.78751e-08
2.78751e-08
2.78751e-08
2.7875e-08
2.7875e-08
2.78749e-08
2.78749e-08
2.78749e-08
2.78748e-08
2.78748e-08
2.78748e-08
2.78748e-08
2.78748e-08
2.78748e-08
2.78747e-08
2.78747e-08
2.78747e-08
2.78747e-08
2.78747e-08
2.78748e-08
2.78748e-08
2.78748e-08
2.78748e-08
2.78748e-08
2.78748e-08
2.78748e-08
2.78749e-08
2.78749e-08
2.78749e-08
2.7875e-08
2.7875e-08
2.78751e-08
2.78751e-08
2.78752e-08
2.78752e-08
2.78753e-08
2.78753e-08
2.78754e-08
2.78755e-08
2.78755e-08
2.78756e-08
2.78757e-08
2.78758e-08
2.78758e-08
2.78759e-08
2.7876e-08
2.78761e-08
2.78762e-08
2.78763e-08
2.78764e-08
2.78766e-08
2.78767e-08
2.78768e-08
2.7877e-08
2.78771e-08
2.78772e-08
2.78774e-08
2.78776e-08
2.78777e-08
2.78779e-08
2.78781e-08
2.78783e-08
2.78785e-08
2.78787e-08
2.78789e-08
2.78791e-08
2.78793e-08
2.78795e-08
2.78798e-08
2.788e-08
2.78803e-08
2.78805e-08
2.78808e-08
2.78811e-08
2.78814e-08
2.78817e-08
2.7882e-08
2.78824e-08
2.78827e-08
2.78831e-08
2.78835e-08
2.78839e-08
2.78843e-08
2.78848e-08
2.78852e-08
2.78857e-08
2.78862e-08
2.78868e-08
2.78873e-08
2.78879e-08
2.78886e-08
2.78892e-08
2.78899e-08
2.78907e-08
2.78915e-08
2.78923e-08
2.78932e-08
2.78941e-08
2.78952e-08
2.78962e-08
2.78974e-08
2.78986e-08
2.78999e-08
2.79013e-08
2.79029e-08
2.79045e-08
2.79063e-08
2.79082e-08
2.79104e-08
2.79127e-08
2.79152e-08
2.7918e-08
2.79211e-08
2.79246e-08
2.79284e-08
2.79328e-08
2.79379e-08
2.79437e-08
2.79506e-08
2.79587e-08
2.79686e-08
2.79811e-08
2.79973e-08
2.80193e-08
2.80516e-08
2.81061e-08
2.81958e-08
2.84218e-08
2.81332e-08
2.7966e-08
2.80706e-08
2.7988e-08
2.79497e-08
2.79293e-08
2.79188e-08
2.79125e-08
2.79082e-08
2.79049e-08
2.79024e-08
2.79004e-08
2.78986e-08
2.7897e-08
2.78956e-08
2.78943e-08
2.78932e-08
2.78922e-08
2.78912e-08
2.78904e-08
2.78896e-08
2.78888e-08
2.78882e-08
2.78875e-08
2.78869e-08
2.78863e-08
2.78858e-08
2.78853e-08
2.78848e-08
2.78844e-08
2.7884e-08
2.78836e-08
2.78832e-08
2.78828e-08
2.78825e-08
2.78822e-08
2.78819e-08
2.78816e-08
2.78813e-08
2.78811e-08
2.78808e-08
2.78806e-08
2.78803e-08
2.78801e-08
2.78799e-08
2.78797e-08
2.78795e-08
2.78793e-08
2.78791e-08
2.7879e-08
2.78788e-08
2.78786e-08
2.78785e-08
2.78783e-08
2.78782e-08
2.7878e-08
2.78779e-08
2.78778e-08
2.78777e-08
2.78776e-08
2.78774e-08
2.78774e-08
2.78773e-08
2.78772e-08