/*--------------------------------*- C++ -*----------------------------------*\
  =========                 |
  \\      /  F ield         | OpenFOAM: The Open Source CFD Toolbox
   \\    /   O peration     | Website:  https://openfoam.org
    \\  /    A nd           | Version:  8
     \\/     M anipulation  |
\*---------------------------------------------------------------------------*/
FoamFile
{
    version     2.0;
    format      ascii;
    class       volVectorField;
    location    "0.05";
    object      U;
}
// * * * * * * * * * * * * * * * * * * * * * * * * * * * * * * * * * * * * * //

dimensions      [0 1 -1 0 0 0 0];

internalField   nonuniform List<vector> 
112642
(
(14.9999 4.36388e-06 -2.6636e-21)
(14.9998 0.000158065 -1.01388e-20)
(14.9998 0.000221765 -2.80777e-20)
(14.9998 0.000193522 4.46729e-21)
(14.9998 0.000185052 4.23093e-20)
(14.9999 0.000153609 -2.58214e-20)
(14.9999 0.000135423 -6.7729e-22)
(14.9999 0.000117649 5.31804e-21)
(14.9999 0.000107117 1.39309e-20)
(14.9999 9.92786e-05 -1.96472e-20)
(14.9998 9.42013e-05 -4.69018e-22)
(14.9998 9.06182e-05 2.78362e-20)
(14.9998 8.84473e-05 1.68876e-20)
(14.9998 8.7662e-05 1.66987e-20)
(14.9998 8.75338e-05 1.4028e-20)
(14.9998 8.76843e-05 2.2698e-20)
(14.9998 8.87901e-05 -1.607e-20)
(14.9998 9.06086e-05 2.75299e-20)
(14.9998 9.26741e-05 -1.98618e-20)
(14.9998 9.52014e-05 -2.86431e-20)
(14.9998 9.78708e-05 -5.03968e-20)
(14.9998 0.000101391 -2.10918e-20)
(14.9998 0.000104708 -2.14213e-20)
(14.9998 0.000108627 -1.22262e-20)
(14.9998 0.000112554 1.00885e-20)
(14.9998 0.000117018 2.22728e-20)
(14.9998 0.00012141 -3.47033e-20)
(14.9997 0.000125985 4.56565e-20)
(14.9997 0.000130795 -3.02905e-22)
(14.9997 0.000135639 2.32718e-20)
(14.9997 0.000140756 2.28039e-20)
(14.9997 0.000145716 2.78152e-22)
(14.9997 0.000150885 2.29567e-20)
(14.9997 0.000156183 2.35126e-20)
(14.9997 0.000161328 -2.35234e-20)
(14.9997 0.000166784 2.62699e-22)
(14.9997 0.000172161 -3.59446e-20)
(14.9997 0.000177633 2.31761e-20)
(14.9997 0.000183381 -1.02561e-20)
(14.9997 0.000188799 4.63375e-20)
(14.9997 0.000194498 -4.61315e-20)
(14.9997 0.000200033 3.6458e-20)
(14.9997 0.000205532 9.11093e-21)
(14.9997 0.000211108 -2.08203e-22)
(14.9997 0.000216755 2.26051e-20)
(14.9997 0.000222215 7.90009e-21)
(14.9997 0.000227954 2.20207e-20)
(14.9997 0.000233534 -3.6265e-20)
(14.9997 0.00023886 -2.18292e-20)
(14.9997 0.000244386 5.10586e-20)
(14.9997 0.000249674 1.50683e-20)
(14.9998 0.000255066 4.17826e-20)
(14.9998 0.00026028 4.12633e-20)
(14.9998 0.000265695 -1.53155e-20)
(14.9998 0.000270865 -1.56357e-20)
(14.9998 0.000275991 -1.97586e-20)
(14.9998 0.000281175 -3.89251e-20)
(14.9998 0.000286439 1.58654e-20)
(14.9998 0.000291473 1.89861e-20)
(14.9998 0.000296749 -1.86645e-20)
(14.9998 0.000301933 1.83243e-20)
(14.9998 0.000306874 -1.37054e-22)
(14.9998 0.000312066 1.7626e-20)
(14.9998 0.000317043 -1.30342e-22)
(14.9998 0.000322079 1.6903e-20)
(14.9998 0.000327032 -3.3542e-20)
(14.9998 0.000331743 0)
(14.9998 0.000336697 -1.56752e-20)
(14.9998 0.000341357 1.52982e-20)
(14.9998 0.000345879 1.48966e-20)
(14.9998 0.000350321 3.21132e-20)
(14.9998 0.000354688 -1.76311e-20)
(14.9998 0.000358907 -2.75304e-20)
(14.9998 0.000363051 3.14025e-20)
(14.9998 0.000367313 -3.63049e-20)
(14.9998 0.000371367 1.80909e-20)
(14.9999 0.000375119 4.2374e-20)
(14.9999 0.00037917 -7.03792e-21)
(14.9999 0.000382882 0)
(14.9999 0.000386552 0)
(14.9999 0.000389981 0)
(14.9999 0.000393573 -9.63592e-21)
(14.9999 0.000396999 0)
(14.9999 0.000400404 -1.04223e-20)
(14.9999 0.000403511 3.83177e-20)
(14.9999 0.000406538 1.55724e-20)
(14.9999 0.000409718 -6.56039e-20)
(14.9999 0.000412581 1.28093e-20)
(14.9999 0.000415411 1.34677e-20)
(14.9999 0.000418124 -1.97169e-20)
(14.9999 0.000420847 -5.19932e-21)
(14.9999 0.000423457 4.67986e-21)
(14.9999 0.000425843 4.09428e-21)
(15 0.000428149 3.67148e-20)
(15 0.000430301 4.35305e-20)
(15 0.000432451 -1.78155e-20)
(15 0.000434407 -4.08701e-20)
(15 0.000436386 0)
(15 0.000438115 8.28452e-22)
(15 0.00043978 2.07156e-20)
(15 0.000441351 -2.89474e-22)
(15 0.000442831 -1.99661e-20)
(15 0.000444244 0)
(15 0.000445402 4.18865e-20)
(15 0.000446581 -1.03894e-20)
(15 0.000447553 -1.78305e-20)
(15 0.000448517 -7.54917e-21)
(15.0001 0.00044931 -2.11251e-20)
(15.0001 0.000450009 -2.61357e-20)
(15.0001 0.000450453 1.10981e-20)
(15.0001 0.000450758 6.0688e-21)
(15.0001 0.000451047 2.13686e-20)
(15.0001 0.000451184 -7.42154e-21)
(15.0001 0.00045126 2.1534e-20)
(15.0001 0.00045096 -1.72024e-20)
(15.0001 0.000450812 -1.21441e-20)
(15.0001 0.000450567 -3.14017e-20)
(15.0001 0.00044999 1.05622e-20)
(15.0001 0.000449402 5.35688e-20)
(15.0001 0.000448648 -3.32005e-20)
(15.0002 0.000448112 -2.15696e-20)
(15.0002 0.000447328 2.56955e-20)
(15.0002 0.000446523 2.17594e-20)
(15.0002 0.000445333 7.57107e-21)
(15.0002 0.000444507 -7.31893e-20)
(15.0002 0.00044331 1.56085e-20)
(15.0002 0.000441839 5.64003e-21)
(15.0002 0.000440475 -4.37737e-20)
(15.0002 0.000438983 5.68161e-20)
(15.0002 0.000437264 3.78993e-21)
(15.0002 0.000435409 -2.19302e-20)
(15.0002 0.000433414 -1.64576e-20)
(15.0002 0.000431214 4.19339e-20)
(15.0003 0.000428605 -4.27319e-20)
(15.0003 0.000426286 2.0456e-20)
(15.0003 0.000423624 2.21983e-20)
(15.0003 0.000420828 2.20585e-20)
(15.0003 0.00041807 -4.54871e-20)
(15.0003 0.000414979 -6.82319e-20)
(15.0003 0.000412162 2.12133e-22)
(15.0003 0.000408932 2.21302e-20)
(15.0003 0.000405482 0)
(15.0003 0.000402263 2.65407e-20)
(15.0003 0.000398601 0)
(15.0003 0.000394945 -2.24052e-20)
(15.0003 0.000391262 2.88321e-20)
(15.0004 0.000387426 -7.03998e-21)
(15.0004 0.000383158 2.99255e-20)
(15.0004 0.000379131 2.24733e-20)
(15.0004 0.000374796 -6.27925e-20)
(15.0004 0.000370601 -1.27231e-20)
(15.0004 0.000366021 1.04601e-20)
(15.0004 0.00036174 5.58541e-20)
(15.0004 0.000357025 -1.17849e-20)
(15.0004 0.000351992 0)
(15.0004 0.000347323 1.28388e-20)
(15.0004 0.000342263 5.89359e-20)
(15.0004 0.000337218 5.84949e-20)
(15.0004 0.000332231 -5.9573e-20)
(15.0004 0.000327066 1.55337e-20)
(15.0005 0.000321522 4.01488e-22)
(15.0005 0.000316375 2.21199e-20)
(15.0005 0.000310538 -2.25144e-20)
(15.0005 0.000305041 4.55268e-20)
(15.0005 0.000299566 2.22767e-21)
(15.0005 0.000293742 -8.66548e-20)
(15.0005 0.000288311 -2.20013e-20)
(15.0005 0.000282316 -2.09495e-20)
(15.0005 0.000276335 -5.28334e-22)
(15.0005 0.000270486 5.8508e-22)
(15.0005 0.000264119 2.18384e-20)
(15.0005 0.000257992 1.17938e-23)
(15.0005 0.000251708 -1.37299e-19)
(15.0005 0.000245686 7.29195e-20)
(15.0005 0.00023971 -7.3406e-20)
(15.0005 0.000233293 7.0086e-20)
(15.0005 0.000227658 -7.12638e-20)
(15.0005 0.00022163 6.55054e-21)
(15.0005 0.000216404 7.14709e-20)
(15.0005 0.000210426 -7.03276e-21)
(15.0005 0.000205485 -5.13147e-20)
(15.0005 0.000200474 5.18777e-20)
(15.0006 0.000195846 2.06897e-20)
(15.0006 0.000190832 -3.01237e-20)
(15.0006 0.000186758 -1.26841e-19)
(15.0006 0.000183693 6.44053e-20)
(15.0006 0.000180346 -5.2978e-20)
(15.0006 0.000177909 3.18105e-20)
(15.0006 0.000176564 7.64657e-20)
(15.0006 0.000177172 -3.59532e-20)
(15.0006 0.000179735 1.34429e-20)
(15.0006 0.000185105 5.73119e-20)
(15.0006 0.000194561 -8.04509e-20)
(15.0006 0.000213756 6.34383e-20)
(15.0006 0.000234764 4.03918e-20)
(15.0007 0.000274381 9.00138e-20)
(15.0007 0.000284173 -7.57061e-20)
(15.0008 0.000321991 -9.55342e-20)
(15.0008 0.000220495 1.09279e-19)
(15.0004 1.02294e-05 -9.51563e-20)
(14.9994 -0.000164532 1.05497e-20)
(14.9993 -0.00104026 -2.31477e-20)
(14.9993 -0.00126227 -2.92078e-21)
(14.9993 -0.00109646 -3.66388e-20)
(14.9994 -0.00100279 2.9249e-20)
(14.9995 -0.00081178 -1.56342e-20)
(14.9995 -0.000683013 -2.10387e-20)
(14.9995 -0.000562598 6.54601e-22)
(14.9995 -0.000473947 2.93122e-21)
(14.9995 -0.000399297 9.94795e-22)
(14.9995 -0.000337035 -9.10213e-21)
(14.9994 -0.000284141 4.47184e-21)
(14.9994 -0.000235643 1.81703e-20)
(14.9994 -0.000193727 -1.35296e-20)
(14.9994 -0.000153586 4.39903e-20)
(14.9994 -0.000117046 7.57742e-21)
(14.9993 -8.2393e-05 -2.64799e-20)
(14.9993 -4.9253e-05 -7.46586e-21)
(14.9993 -1.81154e-05 1.43135e-20)
(14.9993 1.20463e-05 -8.14305e-23)
(14.9993 4.13455e-05 -7.51121e-21)
(14.9993 6.95989e-05 -3.03546e-20)
(14.9992 9.7095e-05 -2.26008e-20)
(14.9992 0.000124082 -6.71278e-23)
(14.9992 0.0001501 -8.65146e-21)
(14.9992 0.000175827 1.76177e-20)
(14.9992 0.000201024 8.88225e-22)
(14.9992 0.000225742 3.98001e-21)
(14.9992 0.000250072 -1.39278e-20)
(14.9992 0.000274197 -9.98671e-21)
(14.9992 0.000297834 1.00055e-20)
(14.9992 0.000321242 6.09715e-22)
(14.9991 0.000344451 -3.56691e-20)
(14.9991 0.000367571 9.56499e-20)
(14.9991 0.000390005 1.14756e-20)
(14.9991 0.000412723 2.44708e-20)
(14.9991 0.00043483 -2.34204e-20)
(14.9991 0.000457027 -4.83258e-22)
(14.9991 0.000479315 2.48608e-20)
(14.9991 0.000500917 6.04021e-20)
(14.9991 0.000522665 3.74426e-20)
(14.9991 0.000544153 -1.85715e-21)
(14.9991 0.000565241 2.39916e-20)
(14.9991 0.000586444 0)
(14.9991 0.000607538 1.0349e-20)
(14.9992 0.000628246 -1.37297e-20)
(14.9992 0.000649188 5.07187e-20)
(14.9992 0.000669636 -3.18303e-20)
(14.9992 0.000689561 -5.12527e-20)
(14.9992 0.000709789 1.40718e-20)
(14.9992 0.000729592 2.27739e-20)
(14.9992 0.000749335 1.46653e-20)
(14.9992 0.000768654 7.32274e-20)
(14.9992 0.000788299 3.68671e-20)
(14.9992 0.000807359 -1.8312e-22)
(14.9992 0.000826355 9.80152e-21)
(14.9992 0.00084527 -1.53072e-20)
(14.9992 0.000863971 -3.15631e-20)
(14.9993 0.000882286 5.55704e-20)
(14.9993 0.000900774 3.92191e-20)
(14.9993 0.000918739 2.95307e-21)
(14.9993 0.000936295 0)
(14.9993 0.000953918 1.84693e-20)
(14.9993 0.000970988 -1.80792e-20)
(14.9993 0.000987853 3.44248e-20)
(14.9993 0.00100432 1.06119e-22)
(14.9994 0.00102047 -1.35021e-22)
(14.9994 0.00103654 -3.35625e-20)
(14.9994 0.00105202 -3.48752e-20)
(14.9994 0.00106715 8.13275e-24)
(14.9994 0.00108192 3.52062e-20)
(14.9994 0.00109657 3.57149e-20)
(14.9995 0.00111079 -1.79246e-20)
(14.9995 0.00112462 9.8578e-21)
(14.9995 0.00113854 -1.81438e-20)
(14.9995 0.00115196 -3.14655e-20)
(14.9995 0.00116488 1.26499e-20)
(14.9995 0.00117801 1.85482e-20)
(14.9996 0.00119044 3.04389e-20)
(14.9996 0.00120263 -1.11958e-20)
(14.9996 0.00121429 2.96412e-20)
(14.9996 0.001226 1.02816e-20)
(14.9996 0.00123731 -4.81018e-20)
(14.9996 0.00124839 -1.93462e-20)
(14.9997 0.0012588 1.94022e-20)
(14.9997 0.00126897 3.59369e-20)
(14.9997 0.00127905 -4.80865e-24)
(14.9997 0.00128867 1.97536e-20)
(14.9997 0.00129785 5.2528e-23)
(14.9998 0.00130671 -2.60462e-20)
(14.9998 0.00131551 -2.55705e-20)
(14.9998 0.00132369 -4.53359e-20)
(14.9998 0.0013314 3.61531e-20)
(14.9999 0.00133876 4.08428e-20)
(14.9999 0.0013458 9.72552e-21)
(14.9999 0.00135273 8.0345e-21)
(14.9999 0.00135892 -2.2837e-20)
(14.9999 0.00136499 -2.08195e-20)
(15 0.00137033 -7.28484e-24)
(15 0.00137546 2.06853e-20)
(15 0.0013802 2.08121e-20)
(15 0.00138455 -6.87997e-24)
(15.0001 0.0013887 -2.11885e-20)
(15.0001 0.00139211 -4.25215e-20)
(15.0001 0.00139539 1.59553e-20)
(15.0001 0.00139792 1.79737e-20)
(15.0002 0.00140033 -2.52417e-20)
(15.0002 0.0014024 -4.23449e-23)
(15.0002 0.00140409 1.63539e-20)
(15.0002 0.00140527 4.29679e-20)
(15.0002 0.00140577 -4.95011e-20)
(15.0003 0.00140617 -2.14717e-20)
(15.0003 0.00140618 -4.51459e-23)
(15.0003 0.00140567 8.3289e-21)
(15.0003 0.00140458 3.81452e-21)
(15.0004 0.00140333 1.90911e-20)
(15.0004 0.00140177 -2.17724e-20)
(15.0004 0.00139939 1.09135e-20)
(15.0004 0.00139672 -1.25102e-21)
(15.0005 0.00139355 -1.21692e-20)
(15.0005 0.00139041 5.65845e-20)
(15.0005 0.00138664 -1.87891e-22)
(15.0005 0.00138254 -4.36593e-20)
(15.0006 0.00137761 -3.6836e-20)
(15.0006 0.00137285 8.5885e-23)
(15.0006 0.00136746 5.42996e-20)
(15.0006 0.00136138 -1.69027e-20)
(15.0007 0.00135534 2.20882e-20)
(15.0007 0.00134874 3.63905e-20)
(15.0007 0.00134154 -4.08692e-20)
(15.0007 0.00133412 -4.42393e-20)
(15.0008 0.00132621 6.48114e-20)
(15.0008 0.00131783 4.36114e-20)
(15.0008 0.00130867 -2.13018e-20)
(15.0008 0.00129942 -2.72668e-22)
(15.0009 0.00128977 1.19192e-21)
(15.0009 0.00127962 -2.38698e-20)
(15.0009 0.0012692 -6.8587e-20)
(15.0009 0.00125804 3.011e-21)
(15.001 0.00124694 7.36312e-20)
(15.001 0.00123519 4.83795e-20)
(15.001 0.00122263 -4.89478e-21)
(15.001 0.00121013 -2.1996e-22)
(15.0011 0.00119687 6.53112e-21)
(15.0011 0.00118305 0)
(15.0011 0.00116886 7.73403e-21)
(15.0011 0.00115427 2.24297e-20)
(15.0011 0.00113854 2.16399e-20)
(15.0012 0.00112303 -4.40442e-20)
(15.0012 0.00110666 -1.03357e-20)
(15.0012 0.00108997 2.15487e-20)
(15.0012 0.00107249 1.23429e-20)
(15.0013 0.0010553 4.75093e-20)
(15.0013 0.0010372 -3.51816e-20)
(15.0013 0.00101815 4.37865e-20)
(15.0013 0.000999281 -3.71607e-20)
(15.0014 0.000979594 6.00898e-20)
(15.0014 0.000959512 -6.10372e-20)
(15.0014 0.000939293 1.81151e-20)
(15.0014 0.000918271 3.88832e-20)
(15.0014 0.000896444 5.95595e-20)
(15.0015 0.00087472 2.14465e-20)
(15.0015 0.000851557 1.98168e-20)
(15.0015 0.000828381 2.23178e-20)
(15.0015 0.000805041 2.07363e-20)
(15.0015 0.000780402 -6.50279e-20)
(15.0015 0.000755871 -6.60188e-20)
(15.0016 0.000729793 2.20819e-20)
(15.0016 0.00070307 -2.5036e-20)
(15.0016 0.000675653 5.84944e-22)
(15.0016 0.000647167 -2.58699e-20)
(15.0016 0.000617535 -1.37542e-19)
(15.0016 0.000586973 1.07076e-21)
(15.0017 0.000555313 7.45569e-20)
(15.0017 0.000522388 5.07584e-20)
(15.0017 0.000487958 4.00305e-20)
(15.0017 0.00045293 -1.20505e-19)
(15.0017 0.000415725 5.07402e-20)
(15.0017 0.000377638 3.0456e-20)
(15.0017 0.000337464 5.23794e-20)
(15.0017 0.000295826 4.0014e-20)
(15.0017 0.000252377 -3.28973e-20)
(15.0017 0.000207272 -2.03801e-20)
(15.0018 0.000158682 -7.27187e-20)
(15.0018 0.000108018 -6.77106e-20)
(15.0018 5.47517e-05 -2.22454e-20)
(15.0018 -3.97634e-06 -7.08145e-20)
(15.0018 -6.50717e-05 1.72142e-20)
(15.0018 -0.000135082 -1.81152e-20)
(15.0018 -0.00021125 1.96605e-20)
(15.0018 -0.000300083 -1.64829e-21)
(15.0018 -0.000406205 -3.7832e-20)
(15.0019 -0.000531113 4.04563e-20)
(15.0019 -0.000702055 1.43233e-19)
(15.002 -0.000891186 -2.27985e-20)
(15.0021 -0.00117718 -4.49189e-21)
(15.0023 -0.00134753 -1.23637e-19)
(15.0024 -0.00162326 1.16886e-19)
(15.0025 -0.00130798 -3.01064e-20)
(15.0023 -0.000198897 -1.73048e-19)
(14.9992 -0.000169309 7.13165e-21)
(14.9989 -0.00040327 2.45477e-21)
(14.9988 -0.00177522 1.02505e-20)
(14.9989 -0.00148528 -1.80374e-20)
(14.999 -0.00151186 -1.13326e-20)
(14.9991 -0.00123402 2.85111e-20)
(14.9992 -0.00105838 -4.43462e-21)
(14.9992 -0.000866962 0)
(14.9992 -0.000730336 -2.16972e-20)
(14.9992 -0.000609074 2.92526e-20)
(14.9991 -0.000512425 -2.32626e-20)
(14.9991 -0.000427217 4.62222e-21)
(14.9991 -0.00035112 4.64214e-21)
(14.999 -0.000283353 -1.81529e-20)
(14.999 -0.000218719 1.34557e-20)
(14.999 -0.00015943 6.29387e-21)
(14.9989 -0.000103133 -3.08309e-20)
(14.9989 -4.90114e-05 -3.14272e-20)
(14.9989 2.35458e-06 9.44182e-21)
(14.9988 5.2292e-05 9.9209e-21)
(14.9988 0.000100505 3.46593e-20)
(14.9988 0.000147485 7.98291e-21)
(14.9987 0.000193122 1.03807e-20)
(14.9987 0.000237974 -1.90439e-20)
(14.9987 0.000281443 8.88541e-21)
(14.9987 0.000324238 -3.91803e-20)
(14.9987 0.000366299 3.99182e-20)
(14.9986 0.000407518 9.43129e-21)
(14.9986 0.000448075 9.96867e-21)
(14.9986 0.000488276 -1.00431e-20)
(14.9986 0.000527708 -2.1292e-20)
(14.9986 0.000566886 3.19511e-20)
(14.9986 0.000605672 -5.36939e-20)
(14.9986 0.000644072 -3.31987e-20)
(14.9986 0.000681691 4.4546e-20)
(14.9986 0.000719429 4.33336e-20)
(14.9986 0.000756291 2.17479e-20)
(14.9986 0.000793031 -1.19716e-20)
(14.9986 0.000829737 9.50694e-21)
(14.9986 0.00086574 -4.35666e-20)
(14.9986 0.000901632 5.62341e-20)
(14.9986 0.000937365 1.29973e-20)
(14.9986 0.000972503 2.16478e-20)
(14.9986 0.0010079 2.15951e-20)
(14.9986 0.00104295 0)
(14.9986 0.00107742 -1.36261e-20)
(14.9986 0.00111206 6.10178e-21)
(14.9986 0.00114614 3.56395e-20)
(14.9986 0.0011798 -2.87371e-20)
(14.9986 0.00121348 -2.08343e-20)
(14.9986 0.00124683 2.67143e-20)
(14.9986 0.00128008 -3.53134e-20)
(14.9987 0.00131254 -2.553e-20)
(14.9987 0.00134542 5.51781e-20)
(14.9987 0.00137772 1.52459e-20)
(14.9987 0.00140995 1.96549e-20)
(14.9987 0.00144174 4.18939e-20)
(14.9987 0.00147331 3.1703e-21)
(14.9988 0.00150449 -3.19768e-20)
(14.9988 0.00153549 3.43336e-20)
(14.9988 0.00156589 5.08365e-20)
(14.9988 0.00159567 1.77044e-20)
(14.9988 0.00162527 1.65617e-20)
(14.9989 0.00165425 1.19613e-22)
(14.9989 0.00168261 -5.04895e-20)
(14.9989 0.00171038 3.27812e-20)
(14.9989 0.00173772 1.71912e-20)
(14.9989 0.00176453 1.57834e-20)
(14.999 0.0017907 -3.2954e-20)
(14.999 0.0018163 -2.11323e-23)
(14.999 0.00184136 3.23666e-21)
(14.999 0.00186615 -1.78172e-20)
(14.9991 0.00189035 -2.25847e-20)
(14.9991 0.00191377 3.15912e-20)
(14.9991 0.00193692 3.13899e-20)
(14.9992 0.00195973 -1.25344e-20)
(14.9992 0.00198189 -1.2108e-20)
(14.9992 0.00200362 -4.20659e-20)
(14.9992 0.0020247 7.59673e-21)
(14.9993 0.00204538 -1.0588e-20)
(14.9993 0.00206524 -3.84e-20)
(14.9993 0.00208492 4.83782e-20)
(14.9994 0.00210402 7.64958e-22)
(14.9994 0.00212266 -3.91025e-20)
(14.9994 0.00214031 -6.65879e-23)
(14.9995 0.00215765 4.93557e-23)
(14.9995 0.0021745 -2.73531e-20)
(14.9995 0.00219088 1.9986e-20)
(14.9996 0.00220649 3.38377e-20)
(14.9996 0.00222152 5.95262e-21)
(14.9996 0.00223613 5.34998e-21)
(14.9997 0.00224989 2.82265e-23)
(14.9997 0.00226309 -2.49209e-20)
(14.9998 0.00227564 -3.75616e-20)
(14.9998 0.00228767 -2.08279e-20)
(14.9998 0.00229931 6.2653e-20)
(14.9999 0.00230983 1.88621e-20)
(14.9999 0.00231989 -2.1082e-20)
(14.9999 0.00232905 2.01626e-20)
(15 0.00233786 4.54507e-22)
(15 0.00234587 -2.14829e-20)
(15.0001 0.00235306 7.09789e-22)
(15.0001 0.00235992 0)
(15.0001 0.00236587 1.8619e-21)
(15.0002 0.00237134 -1.91213e-20)
(15.0002 0.00237566 -3.01796e-21)
(15.0003 0.00237955 2.52904e-20)
(15.0003 0.00238289 -3.0155e-20)
(15.0003 0.00238551 -2.17214e-20)
(15.0004 0.00238751 1.46964e-24)
(15.0004 0.00238856 -1.8532e-23)
(15.0005 0.00238907 4.37583e-20)
(15.0005 0.00238888 2.18044e-20)
(15.0005 0.00238776 -2.18871e-20)
(15.0006 0.00238601 2.19738e-20)
(15.0006 0.00238361 3.09793e-20)
(15.0007 0.00238078 -4.41049e-20)
(15.0007 0.00237675 -3.37394e-20)
(15.0007 0.00237211 1.11964e-20)
(15.0008 0.00236676 5.56928e-20)
(15.0008 0.00236117 1.20722e-20)
(15.0009 0.00235458 -3.49146e-20)
(15.0009 0.00234748 0)
(15.001 0.00233959 2.22679e-20)
(15.001 0.00233112 3.69297e-20)
(15.001 0.00232182 -2.22842e-20)
(15.0011 0.00231203 -2.22098e-20)
(15.0011 0.00230181 2.23511e-20)
(15.0012 0.00229056 -3.47496e-20)
(15.0012 0.00227849 -2.22589e-20)
(15.0012 0.00226599 2.23968e-20)
(15.0013 0.00225276 4.15621e-20)
(15.0013 0.00223877 -6.21824e-20)
(15.0014 0.00222394 -1.75913e-21)
(15.0014 0.00220843 -1.99106e-20)
(15.0015 0.00219237 2.16477e-20)
(15.0015 0.00217554 -4.47433e-20)
(15.0015 0.00215789 2.24579e-20)
(15.0016 0.00213937 4.60595e-20)
(15.0016 0.00212054 2.4438e-20)
(15.0017 0.00210072 -1.98841e-20)
(15.0017 0.00207987 -2.20551e-20)
(15.0017 0.00205848 7.09897e-20)
(15.0018 0.0020362 -2.16216e-22)
(15.0018 0.00201317 -2.22201e-20)
(15.0019 0.00198906 0)
(15.0019 0.00196433 5.78429e-20)
(15.0019 0.00193829 -5.9191e-20)
(15.002 0.00191232 0)
(15.002 0.00188479 3.08956e-20)
(15.002 0.00185669 -3.15613e-20)
(15.0021 0.00182777 2.23631e-20)
(15.0021 0.00179855 1.02359e-20)
(15.0022 0.00176841 4.51897e-20)
(15.0022 0.0017371 -3.13473e-22)
(15.0022 0.00170572 -6.91512e-20)
(15.0023 0.00167305 2.1906e-20)
(15.0023 0.00163942 -8.57581e-20)
(15.0023 0.00160566 5.84527e-20)
(15.0024 0.00157059 -3.71716e-20)
(15.0024 0.00153469 -2.19913e-20)
(15.0024 0.00149824 -3.80065e-20)
(15.0025 0.00146013 1.65744e-20)
(15.0025 0.00142159 6.24696e-20)
(15.0025 0.0013824 -1.94702e-20)
(15.0025 0.00134124 -1.05504e-19)
(15.0026 0.00129977 -8.20831e-20)
(15.0026 0.00125632 6.31964e-20)
(15.0026 0.0012115 -8.46857e-20)
(15.0027 0.00116534 0)
(15.0027 0.0011178 -6.49341e-20)
(15.0027 0.0010682 -2.16807e-20)
(15.0027 0.00101716 8.60618e-20)
(15.0027 0.000964202 -4.45808e-20)
(15.0028 0.000909034 6.89417e-20)
(15.0028 0.00085176 -8.71989e-20)
(15.0028 0.00079298 4.6383e-20)
(15.0028 0.00073115 6.63755e-20)
(15.0028 0.000667576 6.74668e-20)
(15.0029 0.000601189 6.71574e-20)
(15.0029 0.000532567 6.07118e-21)
(15.0029 0.000460974 1.3405e-21)
(15.0029 0.000387003 -2.95363e-20)
(15.0029 0.0003085 2.90139e-20)
(15.0029 0.000226834 0)
(15.0029 0.000140942 -6.95997e-20)
(15.0029 4.7302e-05 1.00123e-19)
(15.003 -5.06903e-05 -5.13202e-20)
(15.003 -0.000160312 -2.89475e-20)
(15.003 -0.000282986 1.70042e-20)
(15.003 -0.000422888 -1.41144e-19)
(15.003 -0.000596116 2.20226e-20)
(15.0031 -0.000793132 7.07931e-20)
(15.0032 -0.00107375 1.5978e-20)
(15.0033 -0.0013447 2.75201e-21)
(15.0035 -0.00178072 -4.41002e-20)
(15.0038 -0.00181878 2.83047e-20)
(15.004 -0.00228462 -7.02624e-21)
(15.004 -0.000405443 -1.21432e-19)
(15.0038 -0.000190705 4.63483e-20)
(14.999 -2.81726e-05 9.17408e-23)
(14.9986 0.00100128 7.14913e-21)
(14.9984 -0.00136808 0)
(14.9985 -0.00114613 0)
(14.9986 -0.00142723 -5.49488e-21)
(14.9988 -0.00118946 -5.4606e-21)
(14.9989 -0.00105049 -7.29754e-21)
(14.9989 -0.000845878 -2.19243e-21)
(14.9989 -0.000701161 -6.88587e-21)
(14.9989 -0.00056424 8.54424e-21)
(14.9988 -0.000456652 -5.03435e-21)
(14.9988 -0.000359531 -4.73737e-21)
(14.9987 -0.00027408 -6.07563e-21)
(14.9987 -0.000195828 3.88675e-23)
(14.9986 -0.000121756 -2.44659e-20)
(14.9986 -5.24121e-05 1.8484e-20)
(14.9985 1.39428e-05 6.14059e-21)
(14.9985 7.84777e-05 7.91724e-21)
(14.9984 0.000140647 -2.16446e-20)
(14.9984 0.000201464 8.47728e-21)
(14.9984 0.000260611 -3.21546e-20)
(14.9983 0.000319169 2.71525e-22)
(14.9983 0.000376326 7.67188e-21)
(14.9982 0.000433278 -8.84e-21)
(14.9982 0.000488749 1.76888e-20)
(14.9982 0.000543765 2.54107e-22)
(14.9982 0.000598157 -3.72373e-20)
(14.9981 0.000651984 -1.93767e-20)
(14.9981 0.000705092 9.95734e-21)
(14.9981 0.000758154 3.67331e-23)
(14.9981 0.000810664 0)
(14.9981 0.000862808 2.03384e-20)
(14.998 0.000914577 3.1246e-20)
(14.998 0.000966122 -2.05963e-20)
(14.998 0.00101707 -2.26586e-20)
(14.998 0.00106793 -2.11809e-20)
(14.998 0.00111813 -2.08619e-20)
(14.998 0.00116814 -2.13852e-20)
(14.998 0.001218 3.26025e-21)
(14.998 0.00126715 -4.23809e-20)
(14.998 0.00131628 -3.41344e-20)
(14.998 0.00136506 8.46884e-21)
(14.998 0.00141342 8.03355e-21)
(14.998 0.00146207 1.32577e-20)
(14.998 0.00151031 2.13314e-20)
(14.998 0.00155787 -1.80653e-22)
(14.998 0.00160557 1.40144e-20)
(14.998 0.0016527 4.17234e-20)
(14.998 0.00169956 2.06972e-20)
(14.9981 0.00174617 -1.44337e-20)
(14.9981 0.00179252 2.02198e-20)
(14.9981 0.00183859 -1.06908e-20)
(14.9981 0.00188418 -1.4862e-20)
(14.9981 0.00192985 -1.54963e-20)
(14.9982 0.00197492 1.55165e-20)
(14.9982 0.00201994 2.32424e-20)
(14.9982 0.00206428 -1.58235e-20)
(14.9982 0.00210854 3.47333e-20)
(14.9982 0.00215231 -2.42533e-21)
(14.9983 0.00219566 -5.28463e-20)
(14.9983 0.00223834 -1.65014e-20)
(14.9983 0.00228032 1.65756e-20)
(14.9984 0.00232183 1.6868e-20)
(14.9984 0.00236252 5.0848e-20)
(14.9984 0.00240251 -1.6825e-20)
(14.9984 0.00244179 -3.47962e-20)
(14.9985 0.00248021 1.38523e-21)
(14.9985 0.00251791 1.57654e-20)
(14.9985 0.00255497 -1.76741e-20)
(14.9986 0.00259128 1.49334e-20)
(14.9986 0.00262681 3.60825e-20)
(14.9987 0.00266161 2.86505e-20)
(14.9987 0.00269585 -5.05162e-20)
(14.9987 0.00272912 -3.19936e-20)
(14.9988 0.00276177 1.8569e-20)
(14.9988 0.00279401 6.14116e-21)
(14.9988 0.00282547 1.88237e-20)
(14.9989 0.00285604 7.2419e-21)
(14.9989 0.00288585 -2.27303e-20)
(14.999 0.00291516 2.5941e-21)
(14.999 0.00294349 -4.03783e-20)
(14.9991 0.00297128 2.89676e-20)
(14.9991 0.00299826 -9.93002e-21)
(14.9992 0.00302461 -5.93707e-20)
(14.9992 0.00304977 1.13015e-20)
(14.9992 0.00307444 4.00469e-20)
(14.9993 0.00309824 4.04511e-23)
(14.9993 0.00312136 1.30827e-20)
(14.9994 0.0031436 -2.02574e-20)
(14.9994 0.00316498 -5.54426e-20)
(14.9995 0.00318546 5.54904e-21)
(14.9995 0.00320512 4.55577e-24)
(14.9996 0.00322407 2.08205e-20)
(14.9996 0.00324197 2.09547e-20)
(14.9997 0.00325899 1.08323e-20)
(14.9998 0.00327528 1.54662e-20)
(14.9998 0.00329025 -1.89591e-20)
(14.9999 0.00330453 -2.13787e-20)
(14.9999 0.00331767 -2.14613e-20)
(15 0.00333029 -2.09765e-20)
(15 0.00334168 6.49173e-20)
(15.0001 0.00335182 2.16861e-20)
(15.0001 0.00336148 -2.28884e-20)
(15.0002 0.00336997 -2.18042e-20)
(15.0002 0.00337776 -2.4139e-20)
(15.0003 0.00338417 2.48084e-20)
(15.0004 0.0033898 -5.09393e-20)
(15.0004 0.00339449 -2.19555e-20)
(15.0005 0.00339802 7.07861e-20)
(15.0005 0.00340074 4.40892e-20)
(15.0006 0.00340251 -3.83141e-20)
(15.0006 0.00340322 -9.02026e-21)
(15.0007 0.00340288 -6.03674e-23)
(15.0008 0.00340144 4.96047e-23)
(15.0008 0.00339911 4.44933e-20)
(15.0009 0.00339568 -9.02587e-21)
(15.0009 0.00339159 -3.18469e-20)
(15.001 0.00338604 -1.21416e-20)
(15.001 0.00337968 3.33408e-20)
(15.0011 0.00337232 4.47256e-20)
(15.0012 0.00336428 0)
(15.0012 0.00335507 -2.24664e-20)
(15.0013 0.00334523 -9.03846e-21)
(15.0013 0.00333443 0)
(15.0014 0.00332254 -1.46638e-20)
(15.0015 0.00330961 -1.53083e-20)
(15.0015 0.00329612 -1.59347e-20)
(15.0016 0.00328174 -2.26299e-20)
(15.0016 0.00326608 -1.70968e-20)
(15.0017 0.00324961 2.25443e-20)
(15.0018 0.00323212 -2.2706e-20)
(15.0018 0.00321357 1.03302e-22)
(15.0019 0.00319398 2.54462e-20)
(15.0019 0.00317353 2.02893e-20)
(15.002 0.00315211 1.71898e-22)
(15.002 0.00312952 -4.35649e-20)
(15.0021 0.00310597 -2.25367e-20)
(15.0022 0.00308143 0)
(15.0022 0.00305567 -2.62151e-23)
(15.0023 0.0030291 -1.58455e-21)
(15.0023 0.00300133 -5.0084e-20)
(15.0024 0.0029723 7.41106e-20)
(15.0024 0.00294225 2.58111e-20)
(15.0025 0.002911 -9.87665e-20)
(15.0025 0.00287901 0)
(15.0026 0.00284538 2.27077e-20)
(15.0027 0.00281097 5.89659e-21)
(15.0027 0.00277497 7.24865e-21)
(15.0028 0.00273839 2.23595e-20)
(15.0028 0.0027005 -3.07334e-20)
(15.0029 0.00266158 0)
(15.0029 0.00262175 2.25873e-20)
(15.003 0.00258105 -1.0379e-20)
(15.003 0.00253947 1.08179e-20)
(15.0031 0.00249649 -7.86094e-20)
(15.0031 0.0024532 3.48472e-20)
(15.0032 0.00240823 -3.46051e-22)
(15.0032 0.00236201 -3.54133e-20)
(15.0033 0.00231547 2.1962e-20)
(15.0033 0.0022676 -2.24072e-20)
(15.0034 0.00221843 -2.20211e-20)
(15.0034 0.00216857 8.26565e-20)
(15.0034 0.00211682 2.14039e-20)
(15.0035 0.00206418 1.75129e-20)
(15.0035 0.00201054 -6.20272e-20)
(15.0036 0.00195501 -8.40444e-20)
(15.0036 0.00189853 6.31265e-20)
(15.0036 0.00184004 -2.02964e-20)
(15.0037 0.00178005 4.30083e-22)
(15.0037 0.00171835 2.13003e-20)
(15.0037 0.00165471 0)
(15.0038 0.00158884 8.60845e-20)
(15.0038 0.00152161 -4.34375e-20)
(15.0038 0.00145192 -4.37926e-20)
(15.0038 0.00138002 -8.82112e-20)
(15.0039 0.00130575 -2.31319e-20)
(15.0039 0.00122984 6.54511e-20)
(15.0039 0.00115028 -4.49203e-20)
(15.0039 0.00106935 -2.0771e-20)
(15.004 0.000985228 -4.50068e-20)
(15.004 0.000899456 -7.22079e-20)
(15.004 0.000810276 7.22243e-20)
(15.004 0.000718301 7.67913e-22)
(15.004 0.000622039 -8.40109e-22)
(15.0041 0.000522681 4.82306e-20)
(15.0041 0.000418727 6.68103e-20)
(15.0041 0.000307134 2.80394e-20)
(15.0041 0.000189369 9.36747e-21)
(15.0041 6.07228e-05 -4.72676e-20)
(15.0042 -8.52695e-05 -5.10167e-20)
(15.0042 -0.000248168 1.47133e-21)
(15.0042 -0.000451593 7.04166e-20)
(15.0043 -0.00067118 -1.07162e-19)
(15.0044 -0.000987979 5.65473e-20)
(15.0047 -0.0012293 2.99634e-22)
(15.005 -0.00163934 0)
(15.0053 -0.00135293 -2.87291e-20)
(15.0055 -0.00173197 -6.16069e-20)
(15.0055 0.00145973 1.89264e-20)
(15.0051 9.68449e-06 5.42022e-20)
(14.9989 0.000195282 4.69309e-21)
(14.9984 0.00185926 -5.71525e-21)
(14.9981 -0.000791741 0)
(14.998 -0.000777273 1.54738e-20)
(14.9982 -0.00129471 5.65572e-21)
(14.9984 -0.00113798 -9.33976e-21)
(14.9985 -0.00105411 -1.34152e-20)
(14.9986 -0.000847703 -4.03284e-21)
(14.9986 -0.000696538 2.89076e-21)
(14.9986 -0.000543204 -1.06918e-20)
(14.9985 -0.000421627 1.45987e-20)
(14.9984 -0.00031144 -6.83206e-21)
(14.9984 -0.000214402 1.60513e-20)
(14.9983 -0.000125036 -4.48672e-23)
(14.9982 -4.1132e-05 7.67247e-21)
(14.9982 3.8775e-05 -5.68513e-21)
(14.9981 0.000115165 2.82579e-20)
(14.9981 0.000189972 2.08764e-20)
(14.998 0.000262662 -6.17697e-21)
(14.9979 0.000334593 -5.22687e-22)
(14.9979 0.000405015 -9.03088e-21)
(14.9978 0.00047482 -7.71017e-21)
(14.9978 0.000543795 -1.77529e-20)
(14.9978 0.00061269 -8.02469e-21)
(14.9977 0.000680372 -1.89457e-20)
(14.9977 0.000747953 3.6805e-20)
(14.9976 0.000815137 -1.03635e-20)
(14.9976 0.000882089 -2.00315e-20)
(14.9976 0.000948297 -2.03336e-20)
(14.9975 0.00101489 -3.0516e-20)
(14.9975 0.0010809 -1.03959e-20)
(14.9975 0.00114672 0)
(14.9975 0.00121228 -3.20363e-20)
(14.9975 0.00127777 -2.17294e-20)
(14.9974 0.00134277 8.70091e-22)
(14.9974 0.00140773 -1.02709e-20)
(14.9974 0.00147203 -2.20065e-20)
(14.9974 0.00153622 -3.39623e-20)
(14.9974 0.00160003 -2.23136e-20)
(14.9974 0.0016633 4.44469e-20)
(14.9974 0.00172648 -3.28214e-21)
(14.9974 0.00178943 -3.5162e-20)
(14.9974 0.00185183 -9.06427e-21)
(14.9974 0.00191437 2.01053e-22)
(14.9974 0.00197666 -1.80966e-22)
(14.9974 0.00203809 -2.17253e-20)
(14.9974 0.00209958 2.16049e-20)
(14.9974 0.00216069 -2.1484e-20)
(14.9975 0.00222129 2.13832e-20)
(14.9975 0.00228168 2.05254e-22)
(14.9975 0.00234179 1.45031e-20)
(14.9975 0.00240139 2.14265e-20)
(14.9975 0.00246074 5.45025e-21)
(14.9976 0.00251996 -5.24092e-21)
(14.9976 0.00257849 4.99836e-21)
(14.9976 0.00263694 2.00318e-20)
(14.9977 0.00269474 -1.97846e-20)
(14.9977 0.00275218 -1.98411e-20)
(14.9977 0.0028091 3.56908e-20)
(14.9977 0.00286546 0)
(14.9978 0.00292109 -1.88136e-20)
(14.9978 0.00297601 -3.69998e-20)
(14.9979 0.00303009 1.81726e-20)
(14.9979 0.00308305 -1.78471e-20)
(14.9979 0.00313535 3.50534e-20)
(14.998 0.00318675 1.73497e-20)
(14.998 0.00323698 1.69409e-20)
(14.9981 0.00328625 -1.36662e-21)
(14.9981 0.00333469 -1.78312e-20)
(14.9981 0.00338237 -3.15018e-20)
(14.9982 0.00342895 1.54319e-20)
(14.9982 0.00347428 1.48189e-20)
(14.9983 0.00351902 4.05827e-21)
(14.9983 0.00356283 -1.41017e-20)
(14.9984 0.00360567 -8.60702e-21)
(14.9984 0.00364768 -1.31563e-20)
(14.9985 0.00368878 -1.29041e-20)
(14.9985 0.00372887 3.15981e-20)
(14.9986 0.00376795 -3.86213e-20)
(14.9987 0.0038063 -1.52861e-22)