/*--------------------------------*- C++ -*----------------------------------*\
  =========                 |
  \\      /  F ield         | OpenFOAM: The Open Source CFD Toolbox
   \\    /   O peration     | Website:  https://openfoam.org
    \\  /    A nd           | Version:  8
     \\/     M anipulation  |
\*---------------------------------------------------------------------------*/
FoamFile
{
    version     2.0;
    format      ascii;
    class       volScalarField;
    location    "18";
    object      nut;
}
// * * * * * * * * * * * * * * * * * * * * * * * * * * * * * * * * * * * * * //

dimensions      [0 2 -1 0 0 0 0];

internalField   nonuniform List<scalar> 
277560
(
0.139669
0.139018
0.138371
0.137717
0.137051
0.136371
0.135675
0.134962
0.134233
0.133491
0.132736
0.131972
0.1312
0.130424
0.129647
0.128872
0.128102
0.127341
0.126592
0.125858
0.125142
0.124448
0.123779
0.123138
0.122527
0.12195
0.121408
0.120905
0.120442
0.120021
0.119644
0.119311
0.119024
0.118782
0.118586
0.118436
0.118331
0.11827
0.118252
0.118276
0.118338
0.118438
0.118573
0.118741
0.118939
0.119165
0.119415
0.119688
0.119981
0.120291
0.120615
0.120952
0.121299
0.121654
0.122015
0.12238
0.122747
0.123116
0.123484
0.12385
0.124214
0.124574
0.124929
0.12528
0.125625
0.125963
0.126295
0.12662
0.126938
0.127249
0.127552
0.127848
0.128137
0.128418
0.128691
0.128957
0.129217
0.129468
0.129714
0.129952
0.130184
0.130409
0.130628
0.130841
0.131048
0.13125
0.131446
0.131637
0.131823
0.132004
0.13218
0.132351
0.132519
0.132682
0.13284
0.132995
0.133146
0.133294
0.133438
0.133578
0.133715
0.133849
0.13398
0.134108
0.134232
0.134355
0.134474
0.134591
0.134705
0.134817
0.134926
0.135034
0.135139
0.135241
0.135342
0.135441
0.135538
0.135633
0.135726
0.135817
0.139672
0.139027
0.138382
0.137731
0.137066
0.136387
0.13569
0.134977
0.134249
0.133506
0.13275
0.131985
0.131212
0.130435
0.129657
0.128881
0.12811
0.127348
0.126598
0.125863
0.125146
0.124451
0.123782
0.12314
0.122528
0.12195
0.121409
0.120905
0.120442
0.12002
0.119643
0.119309
0.119022
0.11878
0.118585
0.118435
0.11833
0.11827
0.118252
0.118276
0.118339
0.11844
0.118577
0.118746
0.118945
0.119172
0.119424
0.119699
0.119993
0.120305
0.120632
0.120971
0.12132
0.121677
0.12204
0.122408
0.122778
0.123148
0.123519
0.123887
0.124253
0.124615
0.124973
0.125325
0.125672
0.126012
0.126346
0.126673
0.126993
0.127305
0.127609
0.127907
0.128196
0.128478
0.128753
0.12902
0.12928
0.129533
0.129779
0.130018
0.13025
0.130476
0.130695
0.130909
0.131116
0.131318
0.131515
0.131706
0.131892
0.132072
0.132249
0.13242
0.132587
0.13275
0.132909
0.133063
0.133214
0.133361
0.133504
0.133644
0.133781
0.133914
0.134044
0.134172
0.134296
0.134417
0.134535
0.134651
0.134764
0.134875
0.134983
0.135089
0.135192
0.135293
0.135392
0.135488
0.135583
0.135675
0.135766
0.135855
0.139679
0.139043
0.138406
0.137758
0.137096
0.136417
0.135721
0.135008
0.134278
0.133534
0.132777
0.13201
0.131235
0.130456
0.129676
0.128898
0.128125
0.127361
0.126609
0.125872
0.125154
0.124458
0.123787
0.123144
0.122531
0.121952
0.121409
0.120905
0.120441
0.120019
0.11964
0.119307
0.119019
0.118778
0.118582
0.118433
0.118329
0.118269
0.118253
0.118278
0.118343
0.118446
0.118584
0.118756
0.118958
0.119188
0.119443
0.119722
0.12002
0.120336
0.120667
0.12101
0.121364
0.121725
0.122093
0.122465
0.12284
0.123215
0.12359
0.123963
0.124333
0.124699
0.125061
0.125417
0.125768
0.126112
0.126449
0.126779
0.127101
0.127416
0.127724
0.128024
0.128316
0.1286
0.128877
0.129146
0.129408
0.129662
0.129909
0.130149
0.130383
0.13061
0.13083
0.131044
0.131252
0.131454
0.131651
0.131842
0.132028
0.132209
0.132386
0.132557
0.132724
0.132886
0.133045
0.133199
0.133349
0.133496
0.133638
0.133777
0.133913
0.134045
0.134174
0.1343
0.134423
0.134542
0.134659
0.134773
0.134884
0.134993
0.135098
0.135201
0.135302
0.1354
0.135495
0.135588
0.135679
0.135767
0.135852
0.135935
0.13969
0.139069
0.13844
0.137798
0.137139
0.136462
0.135767
0.135053
0.134322
0.133576
0.132817
0.132047
0.13127
0.130488
0.129704
0.128923
0.128148
0.127381
0.126626
0.125887
0.125167
0.124468
0.123795
0.12315
0.122536
0.121955
0.121411
0.120905
0.12044
0.120017
0.119638
0.119304
0.119016
0.118774
0.118579
0.118431
0.118327
0.118269
0.118254
0.118282
0.118349
0.118455
0.118596
0.118772
0.118978
0.119212
0.119473
0.119756
0.12006
0.120382
0.120719
0.121069
0.121429
0.121798
0.122172
0.122551
0.122932
0.123315
0.123696
0.124076
0.124452
0.124825
0.125193
0.125555
0.12591
0.12626
0.126602
0.126936
0.127264
0.127583
0.127895
0.128199
0.128495
0.128782
0.129062
0.129334
0.129598
0.129855
0.130104
0.130345
0.13058
0.130808
0.131029
0.131244
0.131453
0.131655
0.131852
0.132043
0.132229
0.13241
0.132585
0.132756
0.132922
0.133083
0.13324
0.133392
0.133541
0.133686
0.133826
0.133963
0.134097
0.134226
0.134353
0.134476
0.134596
0.134712
0.134826
0.134937
0.135044
0.135149
0.135251
0.13535
0.135446
0.13554
0.135631
0.135719
0.135805
0.135888
0.135968
0.136046
0.139707
0.139105
0.138487
0.137852
0.137197
0.136522
0.135827
0.135112
0.13438
0.133631
0.132869
0.132096
0.131314
0.130529
0.129742
0.128957
0.128177
0.127407
0.126649
0.125906
0.125183
0.124482
0.123806
0.123158
0.122542
0.121959
0.121413
0.120906
0.120439
0.120015
0.119636
0.119301
0.119013
0.118771
0.118577
0.118429
0.118327
0.11827
0.118258
0.118287
0.118358
0.118467
0.118613
0.118793
0.119005
0.119245
0.119512
0.119803
0.120114
0.120444
0.120789
0.121147
0.121516
0.121894
0.122278
0.122666
0.123056
0.123447
0.123838
0.124226
0.124612
0.124993
0.125368
0.125738
0.1261
0.126455
0.126802
0.127141
0.127472
0.127795
0.128109
0.128415
0.128713
0.129002
0.129283
0.129556
0.129821
0.130078
0.130328
0.13057
0.130805
0.131033
0.131254
0.131469
0.131677
0.131879
0.132075
0.132265
0.13245
0.132629
0.132803
0.132972
0.133136
0.133296
0.133451
0.133601
0.133748
0.13389
0.134028
0.134162
0.134293
0.13442
0.134543
0.134663
0.134779
0.134892
0.135002
0.135109
0.135213
0.135313
0.135411
0.135506
0.135598
0.135687
0.135774
0.135857
0.135938
0.136017
0.136092
0.136165
0.139725
0.139146
0.138543
0.137918
0.137269
0.136596
0.135901
0.135186
0.134451
0.133699
0.132933
0.132155
0.13137
0.130579
0.129787
0.128998
0.128214
0.127439
0.126677
0.125931
0.125204
0.124499
0.12382
0.12317
0.12255
0.121966
0.121417
0.120908
0.12044
0.120015
0.119634
0.119299
0.11901
0.118768
0.118574
0.118427
0.118327
0.118272
0.118262
0.118295
0.11837
0.118484
0.118635
0.118821
0.119039
0.119287
0.119561
0.11986
0.120181
0.12052
0.120876
0.121245
0.121625
0.122014
0.122409
0.122809
0.123211
0.123613
0.124014
0.124412
0.124805
0.125192
0.125574
0.125948
0.126314
0.126673
0.127024
0.127366
0.127699
0.128024
0.12834
0.128647
0.128946
0.129236
0.129518
0.129792
0.130057
0.130315
0.130565
0.130807
0.131041
0.131269
0.13149
0.131704
0.131911
0.132112
0.132307
0.132496
0.132679
0.132857
0.133029
0.133196
0.133358
0.133515
0.133668
0.133816
0.13396
0.134099
0.134234
0.134365
0.134493
0.134616
0.134736
0.134853
0.134965
0.135075
0.135181
0.135284
0.135384
0.13548
0.135574
0.135664
0.135752
0.135837
0.135919
0.135998
0.136075
0.136149
0.13622
0.136288
0.139741
0.139186
0.138601
0.137989
0.137349
0.136682
0.135989
0.135272
0.134535
0.133779
0.133009
0.132226
0.131435
0.130639
0.129841
0.129046
0.128257
0.127477
0.12671
0.125959
0.125228
0.124519
0.123837
0.123183
0.122561
0.121973
0.121423
0.120911
0.120441
0.120014
0.119632
0.119296
0.119007
0.118766
0.118572
0.118426
0.118328
0.118275
0.118269
0.118305
0.118384
0.118504
0.118661
0.118854
0.119079
0.119336
0.11962
0.119929
0.12026
0.120611
0.120979
0.121361
0.121754
0.122157
0.122565
0.122977
0.12339
0.123801
0.124209
0.124613
0.125012
0.125404
0.12579
0.126168
0.126538
0.126899
0.127252
0.127597
0.127932
0.128259
0.128577
0.128885
0.129185
0.129477
0.129759
0.130033
0.130299
0.130557
0.130807
0.131048
0.131283
0.13151
0.13173
0.131943
0.132149
0.132349
0.132542
0.13273
0.132911
0.133087
0.133257
0.133422
0.133582
0.133737
0.133887
0.134032
0.134173
0.134309
0.134441
0.134569
0.134693
0.134813
0.13493
0.135042
0.135151
0.135257
0.135359
0.135458
0.135554
0.135646
0.135736
0.135822
0.135905
0.135986
0.136064
0.136139
0.136211
0.13628
0.136347
0.136411
0.139755
0.139224
0.138658
0.13806
0.137431
0.136772
0.136084
0.13537
0.134631
0.133872
0.133096
0.132307
0.13151
0.130707
0.129903
0.129101
0.128306
0.12752
0.126748
0.125992
0.125256
0.124543
0.123857
0.123199
0.122574
0.121983
0.12143
0.120916
0.120443
0.120015
0.119632
0.119295
0.119005
0.118764
0.118571
0.118426
0.11833
0.11828
0.118276
0.118317
0.118402
0.118527
0.118691
0.118891
0.119126
0.119392
0.119687
0.120008
0.120352
0.120716
0.121098
0.121495
0.121903
0.122318
0.122737
0.123158
0.123578
0.123996
0.12441
0.12482
0.125223
0.12562
0.126009
0.12639
0.126763
0.127128
0.127484
0.12783
0.128168
0.128496
0.128816
0.129126
0.129427
0.129719
0.130002
0.130277
0.130543
0.130801
0.131051
0.131292
0.131526
0.131753
0.131972
0.132184
0.132389
0.132587
0.132779
0.132965
0.133144
0.133318
0.133486
0.133649
0.133806
0.133958
0.134105
0.134248
0.134385
0.134518
0.134647
0.134772
0.134892
0.135009
0.135121
0.13523
0.135335
0.135437
0.135535
0.13563
0.135722
0.13581
0.135895
0.135977
0.136056
0.136133
0.136206
0.136277
0.136345
0.13641
0.136472
0.136533
0.139768
0.139259
0.138711
0.138128
0.137512
0.136862
0.136182
0.135472
0.134735
0.133974
0.133193
0.132398
0.131593
0.130783
0.129971
0.129163
0.12836
0.127568
0.12679
0.126028
0.125287
0.12457
0.123879
0.123217
0.122588
0.121994
0.121438
0.120921
0.120447
0.120016
0.119632
0.119294
0.119004
0.118762
0.11857
0.118427
0.118332
0.118285
0.118286
0.118331
0.118421
0.118553
0.118724
0.118933
0.119178
0.119455
0.119762
0.120096
0.120454
0.120834
0.121231
0.121642
0.122061
0.122487
0.122914
0.123343
0.123769
0.124193
0.124612
0.125026
0.125434
0.125834
0.126227
0.126612
0.126988
0.127356
0.127714
0.128063
0.128403
0.128733
0.129054
0.129366
0.129668
0.129961
0.130245
0.13052
0.130787
0.131045
0.131294
0.131536
0.131769
0.131995
0.132213
0.132424
0.132628
0.132824
0.133015
0.133199
0.133376
0.133548
0.133713
0.133873
0.134028
0.134177
0.134322
0.134461
0.134595
0.134725
0.134851
0.134972
0.135089
0.135201
0.13531
0.135415
0.135516
0.135614
0.135708
0.135799
0.135886
0.13597
0.136051
0.136129
0.136204
0.136276
0.136345
0.136412
0.136475
0.136536
0.136594
0.13665
0.13978
0.139292
0.138762
0.138194
0.13759
0.136951
0.136279
0.135575
0.134842
0.134081
0.133298
0.132498
0.131685
0.130867
0.130047
0.12923
0.12842
0.127621
0.126836
0.126068
0.125322
0.124599
0.123903
0.123238
0.122605
0.122007
0.121447
0.120928
0.120451
0.120019
0.119632
0.119293
0.119003
0.118762
0.11857
0.118428
0.118336
0.118292
0.118296
0.118346
0.118442
0.118581
0.118761
0.118979
0.119234
0.119523
0.119843
0.120192
0.120566
0.120961
0.121371
0.121793
0.122223
0.122656
0.123091
0.123525
0.123958
0.124387
0.124811
0.12523
0.125642
0.126046
0.126443
0.126831
0.127211
0.127581
0.127942
0.128294
0.128636
0.128968
0.129291
0.129604
0.129907
0.130202
0.130486
0.130762
0.131029
0.131287
0.131536
0.131777
0.13201
0.132235
0.132452
0.132662
0.132865
0.13306
0.133248
0.13343
0.133606
0.133775
0.133938
0.134096
0.134248
0.134394
0.134535
0.134671
0.134803
0.134929
0.135051
0.135168
0.135282
0.135391
0.135496
0.135597
0.135694
0.135787
0.135877
0.135964
0.136047
0.136127
0.136204
0.136277
0.136348
0.136416
0.13648
0.136542
0.136601
0.136658
0.136712
0.136763
0.13979
0.139322
0.13881
0.138257
0.137665
0.137037
0.136374
0.135676
0.134948
0.13419
0.133407
0.132603
0.131784
0.130957
0.130128
0.129302
0.128484
0.127677
0.126885
0.126111
0.125359
0.124631
0.12393
0.12326
0.122623
0.122021
0.121458
0.120936
0.120457
0.120022
0.119634
0.119293
0.119002
0.118761
0.11857
0.11843
0.118339
0.118299
0.118307
0.118363
0.118465
0.118611
0.118799
0.119028
0.119295
0.119596
0.119931
0.120294
0.120683
0.121091
0.121513
0.121944
0.122382
0.122822
0.123264
0.123704
0.124142
0.124577
0.125006
0.125429
0.125845
0.126254
0.126655
0.127046
0.127429
0.127803
0.128167
0.128521
0.128865
0.1292
0.129524
0.129839
0.130144
0.130439
0.130725
0.131001
0.131268
0.131527
0.131776
0.132017
0.132249
0.132473
0.132689
0.132898
0.133099
0.133293
0.133479
0.133659
0.133833
0.134
0.13416
0.134315
0.134464
0.134608
0.134746
0.134879
0.135007
0.13513
0.135248
0.135362
0.135471
0.135576
0.135677
0.135774
0.135867
0.135957
0.136043
0.136125
0.136204
0.136279
0.136352
0.136421
0.136487
0.136551
0.136611
0.136668
0.136723
0.136775
0.136825
0.136872
0.1398
0.13935
0.138854
0.138316
0.137737
0.137119
0.136465
0.135775
0.135052
0.134297
0.133516
0.13271
0.131887
0.131052
0.130214
0.129378
0.128551
0.127736
0.126937
0.126156
0.125398
0.124664
0.123959
0.123284
0.122642
0.122037
0.121471
0.120945
0.120463
0.120026
0.119636
0.119294
0.119002
0.118761
0.118571
0.118432
0.118344
0.118306
0.118319
0.11838
0.118488
0.118642
0.11884
0.119079
0.119357
0.119673
0.120022
0.1204
0.120802
0.121221
0.121652
0.122092
0.122536
0.122984
0.123431
0.123878
0.124321
0.124761
0.125195
0.125623
0.126043
0.126456
0.126861
0.127256
0.127643
0.128019
0.128386
0.128743
0.12909
0.129427
0.129753
0.13007
0.130376
0.130673
0.130959
0.131237
0.131504
0.131763
0.132012
0.132252
0.132484
0.132708
0.132923
0.13313
0.13333
0.133522
0.133707
0.133885
0.134056
0.134221
0.134379
0.134531
0.134678
0.134818
0.134953
0.135083
0.135207
0.135327
0.135441
0.135552
0.135657
0.135758
0.135855
0.135948
0.136037
0.136123
0.136204
0.136282
0.136357
0.136428
0.136496
0.136561
0.136622
0.136681
0.136737
0.13679
0.13684
0.136888
0.136933
0.136975
0.13981
0.139377
0.138896
0.138371
0.137804
0.137197
0.136551
0.135869
0.135152
0.134402
0.133622
0.132817
0.13199
0.13115
0.130303
0.129458
0.128621
0.127798
0.126991
0.126203
0.125438
0.124699
0.123988
0.123309
0.122663
0.122054
0.121484
0.120955
0.12047
0.12003
0.119639
0.119296
0.119003
0.118761
0.118571
0.118434
0.118348
0.118314
0.11833
0.118397
0.118512
0.118674
0.118881
0.119131
0.119422
0.119751
0.120114
0.120506
0.120919
0.121347
0.121787
0.122234
0.122685
0.123139
0.123592
0.124044
0.124494
0.124938
0.125377
0.12581
0.126235
0.126653
0.127061
0.127461
0.127851
0.128231
0.128601
0.128961
0.12931
0.129649
0.129978
0.130296
0.130604
0.130902
0.13119
0.131468
0.131736
0.131995
0.132244
0.132485
0.132716
0.132939
0.133153
0.13336
0.133558
0.133749
0.133932
0.134108
0.134277
0.134439
0.134595
0.134744
0.134888
0.135025
0.135157
0.135283
0.135404
0.13552
0.135631
0.135738
0.135839
0.135937
0.13603
0.136119
0.136203
0.136284
0.136362
0.136435
0.136505
0.136572
0.136636
0.136696
0.136753
0.136807
0.136858
0.136907
0.136952
0.136995
0.137036
0.137073
0.139818
0.139401
0.138935
0.138423
0.137868
0.137271
0.136634
0.135959
0.135247
0.134502
0.133725
0.132921
0.132093
0.131248
0.130394
0.129539
0.128693
0.127861
0.127046
0.126251
0.12548
0.124735
0.124019
0.123335
0.122685
0.122072
0.121498
0.120966
0.120478
0.120036
0.119642
0.119297
0.119003
0.118762
0.118572
0.118436
0.118352
0.118321
0.118342
0.118414
0.118535
0.118705
0.118922
0.119183
0.119486
0.119829
0.120205
0.120609
0.121031
0.121468
0.121915
0.122369
0.122827
0.123286
0.123746
0.124204
0.124659
0.125109
0.125553
0.125991
0.126421
0.126842
0.127255
0.127659
0.128053
0.128436
0.12881
0.129173
0.129525
0.129867
0.130198
0.130518
0.130828
0.131127
0.131416
0.131695
0.131964
0.132223
0.132473
0.132713
0.132944
0.133166
0.13338
0.133585
0.133782
0.133971
0.134153
0.134327
0.134494
0.134654
0.134807
0.134954
0.135094
0.135229
0.135358
0.135481
0.135598
0.135711
0.135818
0.135921
0.136018
0.136112
0.136201
0.136285
0.136366
0.136443
0.136516
0.136585
0.136651
0.136713
0.136772
0.136827
0.13688
0.136929
0.136976
0.13702
0.137061
0.137099
0.137134
0.137167
0.139826
0.139424
0.138972
0.138472
0.137927
0.13734
0.136712
0.136044
0.135338
0.134598
0.133824
0.133021
0.132192
0.131344
0.130484
0.129622
0.128766
0.127925
0.127102
0.1263
0.125523
0.124772
0.124051
0.123362
0.122707
0.12209
0.121513
0.120977
0.120486
0.120042
0.119645
0.119299
0.119004
0.118762
0.118573
0.118437
0.118356
0.118328
0.118353
0.11843
0.118558
0.118736
0.118962
0.119234
0.119549
0.119905
0.120293
0.120706
0.121137
0.121581
0.122036
0.122496
0.122961
0.123427
0.123892
0.124356
0.124816
0.125272
0.125721
0.126164
0.126599
0.127025
0.127443
0.12785
0.128248
0.128636
0.129012
0.129379
0.129734
0.130078
0.130412
0.130734
0.131046
0.131347
0.131637
0.131917
0.132187
0.132447
0.132697
0.132937
0.133168
0.13339
0.133603
0.133807
0.134003
0.134191
0.13437
0.134543
0.134708
0.134865
0.135016
0.13516
0.135298
0.13543
0.135555
0.135675
0.135789
0.135898
0.136002
0.136101
0.136195
0.136284
0.136369
0.136449
0.136526
0.136598
0.136666
0.136731
0.136792
0.13685
0.136904
0.136955
0.137003
0.137048
0.13709
0.137129
0.137165
0.137198
0.137229
0.137257
0.139833
0.139445
0.139005
0.138517
0.137983
0.137405
0.136785
0.136124
0.135424
0.134688
0.133917
0.133116
0.132287
0.131437
0.130573
0.129703
0.128839
0.127989
0.127158
0.126349
0.125566
0.124809
0.124083
0.123389
0.12273
0.122109
0.121528
0.120989
0.120495
0.120048
0.119649
0.119301
0.119005
0.118762
0.118573
0.118439
0.118359
0.118333
0.118362
0.118445
0.118579
0.118765
0.119
0.119282
0.11961
0.119977
0.120375
0.120797
0.121236
0.121688
0.122148
0.122616
0.123086
0.123559
0.12403
0.1245
0.124966
0.125427
0.125882
0.12633
0.12677
0.127201
0.127623
0.128035
0.128437
0.128828
0.129209
0.129578
0.129937
0.130284
0.13062
0.130945
0.131259
0.131562
0.131854
0.132135
0.132406
0.132666
0.132917
0.133157
0.133388
0.133609
0.133822
0.134025
0.13422
0.134406
0.134585
0.134755
0.134918
0.135074
0.135222
0.135364
0.135499
0.135628
0.13575
0.135867
0.135977
0.136083
0.136183
0.136278
0.136368
0.136453
0.136534
0.13661
0.136682
0.13675
0.136815
0.136875
0.136931
0.136984
0.137034
0.13708
0.137123
0.137163
0.1372
0.137234
0.137266
0.137294
0.13732
0.137343
0.13984
0.139465
0.139037
0.13856
0.138035
0.137466
0.136853
0.136199
0.135504
0.134772
0.134005
0.133206
0.132377
0.131526
0.130658
0.129782
0.12891
0.128051
0.127213
0.126398
0.125608
0.124847
0.124115
0.123417
0.122754
0.122129
0.121544
0.121001
0.120504
0.120054
0.119653
0.119304
0.119006
0.118762
0.118573
0.118439
0.118361
0.118338
0.118371
0.118458
0.118598
0.118791
0.119035
0.119328
0.119667
0.120044
0.120451
0.120881
0.121327
0.121786
0.122253
0.122727
0.123204
0.123682
0.12416
0.124636
0.125107
0.125574
0.126034
0.126488
0.126933
0.127369
0.127796
0.128212
0.128619
0.129014
0.129399
0.129772
0.130134
0.130484
0.130823
0.131151
0.131467
0.131772
0.132065
0.132348
0.13262
0.132881
0.133132
0.133373
0.133604
0.133825
0.134037
0.13424
0.134434
0.134619
0.134796
0.134965
0.135126
0.135279
0.135426
0.135565
0.135697
0.135823
0.135942
0.136056
0.136163
0.136265
0.136362
0.136453
0.136539
0.13662
0.136697
0.136769
0.136837
0.136901
0.13696
0.137016
0.137068
0.137116
0.137161
0.137203
0.137241
0.137276
0.137308
0.137337
0.137364
0.137387
0.137408
0.137426
0.139846
0.139483
0.139066
0.138599
0.138084
0.137522
0.136916
0.136268
0.135579
0.134851
0.134087
0.133289
0.132462
0.131609
0.130738
0.129857
0.128978
0.128112
0.127267
0.126445
0.12565
0.124883
0.124147
0.123445
0.122777
0.122148
0.12156
0.121014
0.120514
0.120061
0.119658
0.119306
0.119007
0.118762
0.118573
0.118439
0.118362
0.118341
0.118377
0.118468
0.118615
0.118815
0.119067
0.119369
0.119718
0.120105
0.12052
0.120957
0.12141
0.121875
0.122349
0.122829
0.123313
0.123797
0.124281
0.124763
0.12524
0.125713
0.126179
0.126637
0.127088
0.127529
0.127961
0.128383
0.128793
0.129193
0.129582
0.129959
0.130324
0.130678
0.13102
0.13135
0.131669
0.131976
0.132272
0.132556
0.132829
0.133092
0.133344
0.133585
0.133816
0.134038
0.134249
0.134451
0.134644
0.134829
0.135004
0.135172
0.135331
0.135482
0.135627
0.135763
0.135893
0.136016
0.136133
0.136243
0.136347
0.136446
0.136539
0.136626
0.136708
0.136786
0.136858
0.136926
0.13699
0.137049
0.137104
0.137155
0.137203
0.137247
0.137287
0.137323
0.137357
0.137387
0.137414
0.137438
0.13746
0.137478
0.137494
0.137507
0.139852
0.1395
0.139093
0.138635
0.138128
0.137574
0.136975
0.136332
0.135648
0.134924
0.134163
0.133367
0.13254
0.131686
0.130813
0.129928
0.129043
0.12817
0.127318
0.126491
0.125691
0.124919
0.124179
0.123472
0.122801
0.122168
0.121576
0.121027
0.120524
0.120068
0.119663
0.119308
0.119008
0.118762
0.118572
0.118438
0.118362
0.118343
0.118382
0.118477
0.118628
0.118834
0.119094
0.119406
0.119764
0.120158
0.120581
0.121025
0.121484
0.121956
0.122437
0.122923
0.123412
0.123903
0.124393
0.124881
0.125365
0.125843
0.126315
0.126779
0.127235
0.127682
0.128119
0.128545
0.128961
0.129365
0.129758
0.130139
0.130508
0.130866
0.131211
0.131544
0.131866
0.132175
0.132473
0.132759
0.133034
0.133298
0.133551
0.133793
0.134025
0.134246
0.134458
0.13466
0.134852
0.135035
0.13521
0.135376
0.135534
0.135683
0.135825
0.13596
0.136087
0.136208
0.136321
0.136429
0.13653
0.136625
0.136714
0.136798
0.136876
0.13695
0.137018
0.137082
0.137141
0.137196
0.137247
0.137294
0.137336
0.137375
0.137411
0.137442
0.137471
0.137496
0.137518
0.137537
0.137554
0.137567
0.137577
0.137585
0.139857
0.139515
0.139118
0.138669
0.138169
0.137622
0.137029
0.136392
0.135712
0.134991
0.134232
0.133438
0.132612
0.131757
0.130882
0.129993
0.129103
0.128224
0.127367
0.126535
0.12573
0.124954
0.12421
0.123499
0.122825
0.122188
0.121593
0.121041
0.120534
0.120076
0.119667
0.119311
0.119008
0.118761
0.11857
0.118436
0.11836
0.118343
0.118384
0.118482
0.118638
0.11885
0.119117
0.119437
0.119802
0.120204
0.120634
0.121084
0.12155
0.122028
0.122515
0.123007
0.123503
0.124
0.124497
0.12499
0.12548
0.125965
0.126442
0.126913
0.127374
0.127826
0.128269
0.1287
0.129121
0.12953
0.129927
0.130313
0.130686
0.131047
0.131396
0.131733
0.132057
0.132369
0.13267
0.132958
0.133235
0.1335
0.133754
0.133997
0.13423
0.134451
0.134663
0.134865
0.135057
0.135239
0.135413
0.135578
0.135734
0.135882
0.136022
0.136155
0.13628
0.136397
0.136508
0.136613
0.136711
0.136803
0.136888
0.136969
0.137044
0.137113
0.137178
0.137237
0.137292
0.137343
0.137389
0.137431
0.137469
0.137503
0.137534
0.137561
0.137584
0.137604
0.137621
0.137635
0.137646
0.137654
0.13766
0.137662
0.139862
0.139529
0.139141
0.138699
0.138207
0.137666
0.137078
0.136445
0.135769
0.135052
0.134296
0.133503
0.132677
0.131822
0.130944
0.130053
0.129158
0.128275
0.127412
0.126576
0.125767
0.124988
0.12424
0.123526
0.122848
0.122208
0.12161
0.121055
0.120545
0.120083
0.119672
0.119313
0.119008
0.118759
0.118567
0.118433
0.118357
0.118341
0.118383
0.118485
0.118645
0.118862
0.119135
0.119461
0.119834
0.120243
0.120678
0.121135
0.121607
0.122091
0.122584
0.123083
0.123585
0.124088
0.124591
0.125091
0.125587
0.126078
0.126561
0.127038
0.127505
0.127963
0.128411
0.128848
0.129274
0.129688
0.13009
0.13048
0.130857
0.131223
0.131575
0.131915
0.132243
0.132558
0.132861
0.133152
0.133431
0.133698
0.133953
0.134197
0.134431
0.134653
0.134865
0.135067
0.135259
0.135441
0.135614
0.135778
0.135933
0.136079
0.136217
0.136348
0.136471
0.136586
0.136694
0.136796
0.136891
0.13698
0.137062
0.137139
0.13721
0.137276
0.137336
0.137392
0.137442
0.137489
0.13753
0.137568
0.137601
0.13763
0.137656
0.137678
0.137697
0.137712
0.137724
0.137732
0.137738
0.137741
0.137741
0.137738
0.139867
0.139542
0.139161
0.138727
0.138241
0.137706
0.137123
0.136494
0.135822
0.135107
0.134352
0.133561
0.132735
0.131879
0.131
0.130106
0.129208
0.128321
0.127454
0.126614
0.125802
0.12502
0.124269
0.123552
0.122871
0.122229
0.121627
0.121068
0.120556
0.120091
0.119677
0.119316
0.119009
0.118757
0.118564
0.118429
0.118353
0.118337
0.118381
0.118484
0.118647
0.118868
0.119146
0.119479
0.119858
0.120273
0.120714
0.121177
0.121655
0.122145
0.122644
0.123149
0.123658
0.124167
0.124676
0.125183
0.125685
0.126182
0.126672
0.127154
0.127627
0.128091
0.128545
0.128987
0.129419
0.129838
0.130245
0.13064
0.131022
0.131391
0.131748
0.132092
0.132423
0.132741
0.133047
0.133341
0.133622
0.133891
0.134148
0.134394
0.134628
0.134852
0.135064
0.135266
0.135458
0.13564
0.135812
0.135975
0.136129
0.136275
0.136411
0.13654
0.136661
0.136774
0.13688
0.136979
0.137071
0.137156
0.137235
0.137309
0.137376
0.137438
0.137495
0.137546
0.137593
0.137634
0.137672
0.137705
0.137733
0.137758
0.137779
0.137796
0.137809
0.137819
0.137826
0.137829
0.13783
0.137827
0.137822
0.137813
0.139871
0.139554
0.13918
0.138752
0.138271
0.137741
0.137163
0.136538
0.135868
0.135156
0.134403
0.133612
0.132786
0.13193
0.131049
0.130153
0.129252
0.128362
0.127493
0.12665
0.125836
0.125051
0.124298
0.123578
0.122894
0.122249
0.121644
0.121083
0.120567
0.1201
0.119683
0.119318
0.119009
0.118755
0.11856
0.118423
0.118347
0.11833
0.118375
0.11848
0.118645
0.11887
0.119152
0.11949
0.119875
0.120295
0.120742
0.12121
0.121694
0.12219
0.122695
0.123207
0.123721
0.124237
0.124752
0.125265
0.125774
0.126277
0.126773
0.127262
0.127742
0.128211
0.128671
0.129119
0.129556
0.129981
0.130393
0.130793
0.13118
0.131554
0.131915
0.132263
0.132598
0.132919
0.133229
0.133525
0.133809
0.13408
0.134339
0.134587
0.134823
0.135047
0.135261
0.135463
0.135655
0.135837
0.136009
0.136171
0.136325
0.136469
0.136604
0.136731
0.13685
0.136961
0.137064
0.137161
0.13725
0.137333
0.137409
0.137479
0.137543
0.137601
0.137653
0.137701
0.137743
0.137781
0.137813
0.137842
0.137866
0.137886
0.137901
0.137913
0.137922
0.137927
0.137928
0.137926
0.137921
0.137913
0.137902
0.137888
0.139875
0.139564
0.139197
0.138774
0.138299
0.137773
0.137198
0.136576
0.135909
0.135198
0.134447
0.133656
0.132831
0.131974
0.131091
0.130193
0.12929
0.128398
0.127528
0.126683
0.125867
0.12508
0.124325
0.123603
0.122917
0.122269
0.121662
0.121097
0.120579
0.120108
0.119688
0.119321
0.119009
0.118753
0.118555
0.118417
0.118339
0.118322
0.118366
0.118472
0.118639
0.118866
0.119152
0.119494
0.119883
0.120309
0.120761
0.121234
0.121724
0.122226
0.122737
0.123254
0.123775
0.124298
0.124819
0.125338
0.125854
0.126363
0.126866
0.127361
0.127847
0.128323
0.128789
0.129243
0.129686
0.130116
0.130534
0.130939
0.131331
0.13171
0.132076
0.132428
0.132767
0.133092
0.133405
0.133704
0.133991
0.134265
0.134527
0.134776
0.135014
0.135239
0.135454
0.135657
0.13585
0.136032
0.136204
0.136366
0.136518
0.136661
0.136796
0.136921
0.137038
0.137148
0.137249
0.137343
0.137429
0.137509
0.137582
0.137649
0.137709
0.137764
0.137813
0.137856
0.137894
0.137928
0.137956
0.13798
0.137999
0.138014
0.138025
0.138032
0.138035
0.138035
0.138031
0.138023
0.138013
0.137999
0.137983
0.137963
0.139878
0.139574
0.139211
0.138793
0.138322
0.1378
0.137228
0.136609
0.135944
0.135235
0.134484
0.133694
0.132868
0.13201
0.131127
0.130227
0.129323
0.12843
0.127559
0.126714
0.125896
0.125108
0.124352
0.123628
0.12294
0.12229
0.12168
0.121113
0.120591
0.120118
0.119695
0.119324
0.119009
0.11875
0.11855
0.118409
0.11833
0.118311
0.118355
0.118461
0.118629
0.118857
0.119146
0.119491
0.119885
0.120314
0.120771
0.12125
0.121745
0.122253
0.12277
0.123293
0.12382
0.124349
0.124877
0.125403
0.125924
0.126441
0.12695
0.127452
0.127944
0.128427
0.128899
0.129359
0.129808
0.130244
0.130668
0.131078
0.131476
0.13186
0.13223
0.132587
0.13293
0.13326
0.133576
0.133879
0.134169
0.134446
0.13471
0.134962
0.135201
0.135429
0.135644
0.135849
0.136042
0.136225
0.136397
0.136559
0.136711
0.136853
0.136986
0.137111
0.137226
0.137334
0.137433
0.137525
0.137609
0.137686
0.137756
0.13782
0.137877
0.137928
0.137973
0.138012
0.138047
0.138075
0.138099
0.138119
0.138133
0.138143
0.138149
0.138151
0.138149
0.138144
0.138134
0.138121
0.138105
0.138086
0.138064
0.138038
0.139881
0.139582
0.139224
0.13881
0.138343
0.137824
0.137254
0.136637
0.135974
0.135266
0.134516
0.133725
0.132899
0.13204
0.131155
0.130254
0.129349
0.128457
0.127586
0.126741
0.125924
0.125136
0.124378
0.123653
0.122963
0.122311
0.121698
0.121129
0.120604
0.120128
0.119702
0.119328
0.119009
0.118747
0.118544
0.118401
0.118319
0.118299
0.118341
0.118447
0.118614
0.118844
0.119134
0.119481
0.119878
0.120311
0.120773
0.121257
0.121757
0.12227
0.122793
0.123322
0.123856
0.124391
0.124925
0.125457
0.125986
0.126509
0.127025
0.127533
0.128032
0.128522
0.129
0.129467
0.129922
0.130365
0.130794
0.13121
0.131613
0.132002
0.132378
0.13274
0.133087
0.133421
0.133742
0.134048
0.134342
0.134622
0.134889
0.135143
0.135385
0.135615
0.135832
0.136038
0.136232
0.136416
0.136588
0.13675
0.136902
0.137044
0.137176
0.1373
0.137414
0.13752
0.137617
0.137707
0.137789
0.137863
0.137931
0.137991
0.138045
0.138093
0.138134
0.13817
0.1382
0.138225
0.138244
0.138259
0.138269
0.138274
0.138275
0.138272
0.138265
0.138254
0.138239
0.138221
0.138199
0.138174
0.138146
0.138114
0.139883
0.139589
0.139235
0.138825
0.13836
0.137843
0.137276
0.13666
0.135998
0.135291
0.13454
0.13375
0.132922
0.132062
0.131176
0.130275
0.129371
0.128479
0.127611
0.126767
0.12595
0.125162
0.124403
0.123677
0.122986
0.122332
0.121718
0.121146
0.120618
0.120139
0.119709
0.119332
0.11901
0.118745
0.118538
0.118392
0.118307
0.118285
0.118325
0.118429
0.118596
0.118825
0.119115
0.119465
0.119864
0.120301
0.120767
0.121255
0.12176
0.122279
0.122807
0.123342
0.123882
0.124423
0.124964
0.125503
0.126038
0.126568
0.127091
0.127606
0.128112
0.128608
0.129093
0.129567
0.130028
0.130477
0.130913
0.131335
0.131744
0.132139
0.132519
0.132886
0.133239
0.133578
0.133902
0.134213
0.13451
0.134794
0.135064
0.135321
0.135566
0.135798
0.136017
0.136224
0.13642
0.136604
0.136778
0.13694
0.137092
0.137234
0.137366
0.137488
0.137602
0.137706
0.137802
0.13789
0.137969
0.138041
0.138106
0.138164
0.138214
0.138259
0.138296
0.138328
0.138355
0.138375
0.13839
0.1384
0.138406
0.138406
0.138402
0.138394
0.138381
0.138365
0.138345
0.138321
0.138293
0.138262
0.138228
0.138191
0.139885
0.139594
0.139244
0.138836
0.138374
0.137859
0.137293
0.136679
0.136017
0.135309
0.134559
0.133768
0.132939
0.132078
0.131191
0.13029
0.129387
0.128499
0.127632
0.126791
0.125975
0.125187
0.124429
0.123702
0.12301
0.122355
0.121738
0.121164
0.120634
0.120151
0.119718
0.119338
0.119012
0.118743
0.118532
0.118382
0.118294
0.118269
0.118307
0.118408
0.118573
0.118801
0.119091
0.119441
0.119842
0.120282
0.120752
0.121244
0.121754
0.122278
0.122812
0.123353
0.123899