/*--------------------------------*- C++ -*----------------------------------*\
  =========                 |
  \\      /  F ield         | OpenFOAM: The Open Source CFD Toolbox
   \\    /   O peration     | Website:  https://openfoam.org
    \\  /    A nd           | Version:  8
     \\/     M anipulation  |
\*---------------------------------------------------------------------------*/
FoamFile
{
    version     2.0;
    format      ascii;
    class       volScalarField;
    location    "18";
    object      p;
}
// * * * * * * * * * * * * * * * * * * * * * * * * * * * * * * * * * * * * * //

dimensions      [0 2 -2 0 0 0 0];

internalField   nonuniform List<scalar> 
277560
(
-0.0133013
0.000500214
-0.000363539
0.00136915
0.00279014
0.00419446
0.0055831
0.00695557
0.0083177
0.00967267
0.0110235
0.0123714
0.0137175
0.0150614
0.0164028
0.0177398
0.0190708
0.0203932
0.0217042
0.0230004
0.0242786
0.0255346
0.0267648
0.0279645
0.02913
0.0302563
0.0313396
0.0323751
0.0333589
0.0342869
0.0351549
0.0359598
0.0366975
0.037366
0.037962
0.0384842
0.03893
0.0392992
0.0395905
0.0398043
0.0399407
0.040001
0.0399862
0.0398988
0.0397405
0.0395146
0.0392241
0.0388728
0.0384645
0.0380036
0.0374942
0.0369413
0.0363492
0.0357229
0.0350672
0.0343869
0.0336867
0.0329715
0.0322457
0.0315141
0.0307809
0.0300503
0.0293266
0.0286136
0.0279151
0.0272346
0.0265756
0.0259412
0.0253346
0.0247584
0.0242155
0.0237082
0.023239
0.0228099
0.022423
0.0220799
0.0217825
0.021532
0.02133
0.0211774
0.0210756
0.0210251
0.0210273
0.0210822
0.021191
0.0213536
0.0215711
0.021843
0.0221702
0.0225523
0.02299
0.0234826
0.0240308
0.0246338
0.0252921
0.0260049
0.0267727
0.0275945
0.0284708
0.0294006
0.0303842
0.0314208
0.0325105
0.0336525
0.034847
0.0360931
0.037391
0.0387398
0.0401397
0.0415898
0.0430905
0.0446408
0.0462409
0.0478898
0.0495873
0.0513372
0.0531494
0.0549804
0.0566548
0.0583748
-0.0122473
-0.000399396
-0.000225998
0.00132717
0.00277345
0.00417641
0.00556147
0.00693051
0.00828873
0.00963988
0.0109867
0.0123307
0.0136729
0.015013
0.0163504
0.0176836
0.0190107
0.0203291
0.0216361
0.0229285
0.0242026
0.0254547
0.0266808
0.0278766
0.0290379
0.0301603
0.0312393
0.0322708
0.0332504
0.0341741
0.0350382
0.0358385
0.0365723
0.0372361
0.037828
0.0383453
0.0387869
0.0391512
0.0394381
0.0396469
0.0397786
0.0398337
0.0398141
0.0397213
0.0395579
0.0393264
0.0390306
0.0386735
0.0382598
0.0377929
0.0372779
0.0367187
0.0361209
0.0354883
0.0348267
0.03414
0.0334338
0.032712
0.0319801
0.0312418
0.0305023
0.0297651
0.0290349
0.028315
0.0276099
0.0269224
0.0262567
0.025615
0.0250014
0.0244178
0.0238677
0.0233528
0.0228762
0.0224392
0.0220447
0.0216936
0.0213884
0.0211298
0.0209198
0.020759
0.0206491
0.0205902
0.0205841
0.0206305
0.020731
0.020885
0.021094
0.0213572
0.0216759
0.0220493
0.0224784
0.0229621
0.0235016
0.0240957
0.0247453
0.0254491
0.0262081
0.0270208
0.0278883
0.0288089
0.0297836
0.0308109
0.0318916
0.0330242
0.0342095
0.0354461
0.0367346
0.0380739
0.0394643
0.0409048
0.0423957
0.0439362
0.0455266
0.0471655
0.0488531
0.0505933
0.0523955
0.0542139
0.0558759
0.0575929
-0.0121298
-0.000598733
-0.000197556
0.00129348
0.00274701
0.00414451
0.00552302
0.00688534
0.00823657
0.00958071
0.0109204
0.0122575
0.0135926
0.0149257
0.016256
0.0175822
0.0189021
0.0202134
0.0215131
0.0227982
0.0240649
0.0253096
0.0265281
0.0277164
0.02887
0.0299847
0.031056
0.0320796
0.0330512
0.0339669
0.0348227
0.0356149
0.0363403
0.0369956
0.0375788
0.0380874
0.0385201
0.0388753
0.0391528
0.0393522
0.0394743
0.0395196
0.03949
0.039387
0.0392132
0.0389712
0.0386646
0.0382967
0.0378718
0.0373938
0.0368675
0.0362971
0.0356877
0.0350437
0.0343704
0.0336723
0.0329543
0.0322211
0.0314774
0.0307277
0.0299763
0.0292275
0.0284855
0.027754
0.027037
0.0263379
0.0256601
0.0250069
0.0243812
0.023786
0.0232238
0.0226973
0.0222086
0.02176
0.0213534
0.0209907
0.0206735
0.0204034
0.0201815
0.0200093
0.0198875
0.0198176
0.0197998
0.0198353
0.0199244
0.0200679
0.0202657
0.0205187
0.0208266
0.0211901
0.0216087
0.022083
0.0226125
0.0231976
0.0238375
0.0245328
0.0252826
0.0260874
0.0269462
0.0278594
0.028826
0.0298464
0.0309197
0.0320461
0.0332247
0.0344558
0.0357384
0.0370729
0.0384583
0.0398949
0.0413818
0.0429194
0.0445069
0.0461441
0.0478301
0.04957
0.0513719
0.0531915
0.0548552
0.0565774
-0.0121711
-0.000615659
-0.000207828
0.00125879
0.00270985
0.00409742
0.00546587
0.00681783
0.00815857
0.00949214
0.0108213
0.0121478
0.0134724
0.0147949
0.0161146
0.0174301
0.0187392
0.0200396
0.0213284
0.0226023
0.0238579
0.0250912
0.0262983
0.0274749
0.0286169
0.0297197
0.030779
0.0317905
0.0327499
0.0336531
0.0344962
0.0352758
0.035988
0.0366304
0.0372
0.0376951
0.0381137
0.038455
0.0387179
0.0389029
0.0390098
0.0390401
0.0389947
0.0388761
0.0386861
0.038428
0.0381046
0.0377201
0.0372779
0.0367829
0.036239
0.0356513
0.035024
0.0343626
0.0336713
0.0329556
0.0322196
0.0314687
0.030707
0.0299396
0.0291701
0.0284036
0.0276433
0.0268939
0.0261585
0.0254413
0.0247449
0.0240734
0.0234288
0.022815
0.0222337
0.0216883
0.0211803
0.0207128
0.0202868
0.0199051
0.0195684
0.0192791
0.0190378
0.0188464
0.0187053
0.0186163
0.0185792
0.0185958
0.0186657
0.0187903
0.0189692
0.0192035
0.0194927
0.0198377
0.0202377
0.0206938
0.0212049
0.0217719
0.0223936
0.0230711
0.0238029
0.0245899
0.0254308
0.0263263
0.0272751
0.028278
0.0293335
0.0304423
0.0316031
0.0328165
0.0340812
0.0353977
0.036765
0.0381834
0.0396519
0.041171
0.0427395
0.0443577
0.0460242
0.0477442
0.0495257
0.0513251
0.0529694
0.0546695
-0.0121924
-0.000599445
-0.000233506
0.00122134
0.00266199
0.00403564
0.00539038
0.0067284
0.00805511
0.00937465
0.0106898
0.0120024
0.013313
0.0146215
0.0159271
0.0172284
0.0185232
0.0198092
0.0210834
0.0223426
0.0235832
0.0248014
0.0259933
0.0271545
0.0282809
0.0293679
0.0304113
0.0314066
0.0323496
0.0332362
0.0340626
0.034825
0.03552
0.0361449
0.0366965
0.0371735
0.0375735
0.037896
0.0381397
0.0383051
0.0383921
0.0384021
0.0383361
0.0381965
0.0379851
0.0377052
0.0373598
0.0369529
0.0364882
0.0359703
0.0354034
0.0347925
0.034142
0.0334572
0.0327427
0.0320035
0.0312443
0.0304701
0.0296852
0.0288942
0.0281014
0.027311
0.026527
0.0257533
0.0249937
0.0242518
0.0235309
0.0228342
0.0221649
0.0215256
0.0209193
0.0203483
0.0198152
0.019322
0.0188708
0.0184635
0.0181018
0.017787
0.0175209
0.0173044
0.0171388
0.0170249
0.0169639
0.016956
0.0170024
0.0171031
0.017259
0.01747
0.0177367
0.018059
0.0184373
0.0188713
0.0193613
0.0199069
0.0205084
0.0211651
0.0218773
0.0226444
0.0234666
0.0243429
0.0252739
0.0262583
0.0272968
0.0283881
0.0295327
0.0307295
0.0319788
0.0332798
0.0346325
0.0360363
0.0374911
0.0389964
0.0405522
0.0421575
0.0438121
0.0455201
0.0472906
0.0490786
0.0507143
0.0524059
-0.01221
-0.000562444
-0.000267559
0.00118055
0.00260402
0.00395997
0.00529737
0.0066179
0.00792711
0.00922923
0.010527
0.0118222
0.0131155
0.0144067
0.0156949
0.0169786
0.0182558
0.0195239
0.02078
0.0220209
0.023243
0.0244426
0.0256155
0.0267576
0.0278646
0.0289321
0.0299556
0.0309308
0.0318535
0.0327195
0.0335249
0.0342661
0.0349397
0.0355424
0.0360722
0.0365261
0.0369035
0.0372021
0.0374223
0.037563
0.0376255
0.0376098
0.0375184
0.0373522
0.0371146
0.0368073
0.0364347
0.0359996
0.0355071
0.0349604
0.0343652
0.0337251
0.0330462
0.0323322
0.0315891
0.0308206
0.0300327
0.0292288
0.0284146
0.0275935
0.0267709
0.0259498
0.0251353
0.0243303
0.0235396
0.0227658
0.0220133
0.0212843
0.020583
0.0199113
0.0192729
0.0186694
0.0181041
0.0175784
0.0170953
0.0166556
0.0162622
0.0159154
0.0156179
0.0153698
0.0151732
0.0150282
0.0149366
0.0148982
0.0149145
0.0149853
0.0151117
0.0152933
0.0155312
0.0158247
0.0161748
0.0165806
0.017043
0.017561
0.0181354
0.0187651
0.0194508
0.0201913
0.0209875
0.0218377
0.022743
0.0237018
0.0247148
0.0257807
0.0269001
0.0280716
0.0292959
0.0305716
0.0318992
0.0332775
0.0347071
0.0361868
0.0377169
0.0392962
0.0409247
0.0426061
0.0443496
0.0461108
0.0477216
0.049386
-0.0122322
-0.000509425
-0.000307653
0.00113527
0.0025359
0.00387057
0.00518718
0.0064868
0.00777516
0.00905649
0.0103336
0.0116082
0.0128809
0.0141515
0.015419
0.0166819
0.017938
0.0191849
0.0204195
0.0216387
0.0228388
0.0240161
0.0251666
0.0262859
0.0273699
0.028414
0.029414
0.0303654
0.0312638
0.0321053
0.0328858
0.0336017
0.0342495
0.0348264
0.0353294
0.0357566
0.0361061
0.036377
0.0365683
0.0366802
0.0367128
0.0366672
0.0365447
0.0363475
0.0360777
0.0357384
0.0353326
0.0348646
0.034338
0.0337577
0.0331279
0.032454
0.0317401
0.0309919
0.0302136
0.0294104
0.0285866
0.0277473
0.0268964
0.026039
0.0251788
0.0243206
0.0234678
0.0226251
0.0217957
0.0209838
0.0201922
0.019425
0.0186845
0.0179745
0.0172969
0.0166552
0.0160509
0.0154873
0.0149654
0.0144881
0.0140563
0.0136723
0.0133369
0.0130521
0.0128183
0.0126372
0.012509
0.0124353
0.0124158
0.012452
0.0125435
0.0126914
0.0128951
0.0131559
0.0134727
0.0138467
0.0142767
0.0147639
0.0153069
0.0159067
0.0165621
0.0172737
0.0180404
0.0188628
0.0197396
0.0206714
0.021657
0.0226969
0.0237898
0.0249363
0.026135
0.0273865
0.0286895
0.0300445
0.0314504
0.0329075
0.0344148
0.0359723
0.0375787
0.039239
0.0409608
0.0427018
0.0442943
0.0459419
-0.0122561
-0.000446799
-0.000352963
0.00108471
0.00245751
0.00376751
0.00505996
0.00633542
0.00759969
0.00885701
0.0101102
0.0113609
0.0126098
0.0138567
0.0151003
0.0163391
0.017571
0.0187933
0.0200032
0.0211972
0.022372
0.0235236
0.0246481
0.0257411
0.0267985
0.0278157
0.0287884
0.0297122
0.0305827
0.0313957
0.0321474
0.032834
0.0334521
0.0339988
0.0344711
0.0348671
0.0351847
0.0354232
0.0355814
0.0356596
0.0356577
0.0355771
0.0354189
0.0351853
0.0348784
0.0345015
0.0340576
0.0335508
0.0329851
0.0323652
0.0316957
0.0309816
0.0302274
0.0294383
0.0286188
0.0277739
0.0269079
0.0260258
0.0251318
0.0242307
0.0233267
0.0224241
0.021527
0.0206395
0.0197653
0.0189083
0.0180718
0.0172592
0.0164738
0.0157184
0.0149959
0.014309
0.0136601
0.0130515
0.0124853
0.0119634
0.0114878
0.0110598
0.0106812
0.010353
0.0100766
0.00985287
0.00968295
0.00956732
0.00950699
0.00950216
0.00955365
0.00966144
0.00982622
0.0100477
0.0103266
0.0106622
0.0110553
0.011505
0.012012
0.0125753
0.0131954
0.0138714
0.0146037
0.0153912
0.0162343
0.0171319
0.0180844
0.0190907
0.020151
0.0212643
0.0224308
0.0236495
0.0249206
0.026243
0.027617
0.0290416
0.030517
0.0320419
0.0336162
0.0352436
0.0369329
0.0386411
0.0402042
0.0418198
-0.0122789
-0.000379248
-0.000403237
0.00102825
0.00236866
0.00365068
0.0049157
0.00616381
0.00740089
0.0086311
0.00985726
0.011081
0.012303
0.0135229
0.0147396
0.0159512
0.0171557
0.0183503
0.019532
0.0206977
0.0218438
0.0229664
0.0240614
0.0251248
0.026152
0.0271388
0.0280807
0.0289732
0.029812
0.030593
0.031312
0.0319655
0.03255
0.0330624
0.0335
0.0338605
0.0341421
0.0343436
0.0344644
0.0345041
0.0344634
0.0343428
0.034144
0.0338689
0.0335201
0.0331001
0.0326128
0.0320616
0.0314514
0.0307861
0.0300711
0.0293106
0.02851
0.0276735
0.0268065
0.025913
0.0249984
0.0240668
0.0231233
0.0221719
0.0212177
0.0202642
0.0193164
0.0183775
0.0174523
0.0165436
0.0156557
0.0147914
0.0139545
0.0131474
0.0123737
0.0116352
0.0109353
0.0102755
0.00965874
0.00908619
0.00856052
0.00808251
0.00765453
0.00727705
0.00695217
0.00668003
0.00646251
0.00629945
0.00619253
0.00614132
0.00614731
0.00620983
0.00633024
0.00650765
0.00674326
0.00703604
0.00738706
0.00779515
0.00826127
0.00878412
0.00936463
0.0100013
0.0106952
0.0114446
0.0122504
0.0131111
0.0140275
0.0149979
0.0160232
0.0171018
0.0182342
0.0194192
0.0206572
0.0219468
0.0232886
0.0246813
0.0261253
0.0276191
0.0291628
0.0307597
0.0324188
0.0340974
0.0356347
0.0372242
-0.0122991
-0.000309743
-0.000458358
0.000965567
0.0022694
0.00352026
0.0047546
0.00597223
0.00717906
0.00837913
0.00957522
0.010769
0.0119611
0.013151
0.0143376
0.015519
0.0166929
0.0178567
0.0190072
0.0201413
0.0212554
0.0223457
0.0234081
0.0244383
0.0254321
0.026385
0.0272926
0.0281503
0.0289539
0.0296991
0.0303818
0.0309984
0.0315454
0.0320196
0.0324184
0.0327393
0.0329808
0.0331411
0.03322
0.0332169
0.0331325
0.0329673
0.032723
0.0324015
0.0320054
0.0315373
0.0310009
0.0304001
0.0297394
0.0290231
0.0282564
0.0274438
0.0265902
0.0257003
0.0247791
0.023831
0.0228612
0.021874
0.0208744
0.0198667
0.0188555
0.0178451
0.0168397
0.0158434
0.0148602
0.0138937
0.0129477
0.0120255
0.0111304
0.0102655
0.00943362
0.0086376
0.00787988
0.00716293
0.00648883
0.00585973
0.00527733
0.00474349
0.00425956
0.00382712
0.00344718
0.00312108
0.0028495
0.00263358
0.00247368
0.00237078
0.00232496
0.00233703
0.00240684
0.00253504
0.0027213
0.00296614
0.00326905
0.00363045
0.00404967
0.00452707
0.00506184
0.0056543
0.00630349
0.00700974
0.00777198
0.00859054
0.00946425
0.0103934
0.0113769
0.0124149
0.0135063
0.0146514
0.0158489
0.0170991
0.0184009
0.0197545
0.0211589
0.0226138
0.024118
0.025676
0.0272952
0.0289355
0.0304375
0.031991
-0.0123157
-0.000240205
-0.000518395
0.000896372
0.00215971
0.00337635
0.00457683
0.00576089
0.00693443
0.00810136
0.00926442
0.0104252
0.0115844
0.0127414
0.013895
0.0150432
0.0161836
0.0173134
0.0184297
0.0195291
0.0206081
0.0216628
0.0226893
0.0236832
0.0246402
0.0255559
0.0264258
0.0272453
0.0280101
0.028716
0.0293588
0.0299348
0.0304404
0.0308727
0.0312287
0.0315062
0.0317031
0.0318183
0.0318508
0.0318006
0.0316678
0.0314535
0.0311588
0.030786
0.0303373
0.0298159
0.0292249
0.0285689
0.0278519
0.027079
0.0262545
0.0253838
0.0244711
0.0235218
0.0225401
0.0215314
0.0205
0.0194512
0.018389
0.0173187
0.0162441
0.0151703
0.014101
0.0130408
0.0119931
0.0109623
0.00995158
0.00896496
0.00800508
0.00707579
0.00617932
0.00531917
0.00449718
0.00371654
0.0029787
0.00228653
0.0016411
0.00104498
0.000498887
5.11566e-06
-0.00043598
-0.000822336
-0.00115393
-0.00142892
-0.00164758
-0.00180827
-0.00191153
-0.0019559
-0.00194213
-0.00186896
-0.0017373
-0.00154606
-0.00129628
-0.000987039
-0.000619476
-0.000192792
0.000291766
0.00083493
0.00143533
0.00209369
0.0028085
0.0035805
0.00440808
0.005292
0.00623058
0.00722454
0.00827227
0.00937435
0.0105293
0.0117376
0.0129978
0.0143104
0.0156741
0.0170889
0.0185533
0.0200718
0.0216515
0.0232535
0.0247215
0.0262405
-0.0123279
-0.000171963
-0.00058342
0.000820492
0.00203966
0.00321916
0.00438271
0.00553018
0.00666744
0.00779827
0.00892534
0.0100502
0.0111735
0.0122947
0.0134125
0.0145246
0.0156285
0.0167215
0.0178004
0.018862
0.0199028
0.0209189
0.0219063
0.0228607
0.0237778
0.024653
0.0254818
0.0262598
0.0269825
0.0276455
0.0282449
0.0287767
0.0292374
0.0296239
0.0299333
0.0301633
0.0303118
0.0303776
0.0303596
0.0302578
0.0300722
0.029804
0.0294542
0.029025
0.0285187
0.0279385
0.0272877
0.0265707
0.0257919
0.0249564
0.0240686
0.0231337
0.0221562
0.0211412
0.0200934
0.0190177
0.0179188
0.0168018
0.015671
0.0145315
0.0133874
0.0122435
0.0111039
0.00997297
0.00885456
0.00775264
0.00667088
0.00561286
0.00458191
0.00358123
0.00261384
0.00168252
0.000789995
-6.13618e-05
-0.000869164
-0.00163141
-0.00234603
-0.0030114
-0.00362573
-0.00418777
-0.00469599
-0.00514949
-0.00554696
-0.00588783
-0.00617101
-0.00639622
-0.00656256
-0.00667
-0.00671783
-0.00670623
-0.00663465
-0.00650346
-0.00631224
-0.00606152
-0.005751
-0.00538134
-0.00495234
-0.00446477
-0.00391848
-0.00331438
-0.00265228
-0.00193328
-0.00115714
-0.000325054
0.00056322
0.00150644
0.00250482
0.00355715
0.00466357
0.00582294
0.00703533
0.00829972
0.00961607
0.0109831
0.0124006
0.0138717
0.0154043
0.0169595
0.0183863
0.0198617
-0.0123353
-0.000105933
-0.000653541
0.00073777
0.00190928
0.00304884
0.00417246
0.0052804
0.00637845
0.00747026
0.00855843
0.00964451
0.010729
0.0118115
0.0128905
0.0139637
0.0150283
0.0160815
0.0171202
0.0181411
0.0191407
0.0201151
0.0210604
0.0219722
0.0228462
0.0236777
0.0244624
0.0251955
0.0258727
0.0264896
0.027042
0.0275262
0.0279384
0.0282754
0.0285345
0.0287131
0.0288093
0.0288215
0.0287489
0.0285911
0.0283484
0.0280216
0.027612
0.0271214
0.0265525
0.025908
0.025192
0.0244084
0.0235625
0.0226586
0.0217021
0.0206971
0.0196491
0.0185625
0.0174425
0.0162936
0.0151213
0.0139296
0.0127241
0.0115088
0.0102889
0.00906828
0.00785199
0.00664359
0.00544784
0.00426801
0.00310852
0.00197232
0.000863517
-0.000215349
-0.00126049
-0.00226976
-0.0032397
-0.00416855
-0.00505319
-0.00589226
-0.00668293
-0.00742424
-0.00811365
-0.00875056
-0.00933271
-0.00985985
-0.0103299
-0.0107431
-0.0110975
-0.0113935
-0.0116295
-0.0118061
-0.0119221
-0.011978
-0.0119729
-0.0119076
-0.0117811
-0.0115946
-0.0113472
-0.01104
-0.0106724
-0.0102457
-0.00975919
-0.0092143
-0.00861043
-0.00794911
-0.00722966
-0.00645381
-0.00562079
-0.00473244
-0.00378797
-0.00278923
-0.00173551
-0.000628529
0.000532246
0.00174531
0.00301102
0.0043277
0.00569538
0.00711677
0.00859992
0.0101066
0.0114907
0.0129223
-0.0123374
-4.27925e-05
-0.00072882
0.000648117
0.00176862
0.00286558
0.00394639
0.00501194
0.00606793
0.00711787
0.00816428
0.00920867
0.0102516
0.0112924
0.0123298
0.0133612
0.0143838
0.0153944
0.01639
0.0173673
0.0183227
0.0192526
0.0201528
0.021019
0.0218468
0.0226316
0.0233689
0.024054
0.0246825
0.0252499
0.0257521
0.0261851
0.0265453
0.0268294
0.0270344
0.0271579
0.0271978
0.0271525
0.0270212
0.0268032
0.0264989
0.026109
0.0256348
0.0250779
0.0244411
0.0237273
0.0229406
0.0220855
0.0211669
0.0201894
0.0191582
0.0180778
0.0169532
0.0157892
0.014591
0.0133631
0.0121107
0.0108385
0.00955154
0.00825435
0.00695177
0.00564821
0.00434823
0.00305602
0.00177584
0.000511591
-0.00073281
-0.00195375
-0.0031477
-0.00431137
-0.00544163
-0.0065355
-0.00759025
-0.00860325
-0.00957217
-0.0104947
-0.0113689
-0.0121927
-0.0129647
-0.013683
-0.0143465
-0.0149537
-0.0155039
-0.0159957
-0.0164286
-0.0168017
-0.0171147
-0.0173668
-0.017558
-0.0176877
-0.0177561
-0.0177628
-0.0177081
-0.0175918
-0.0174144
-0.0171757
-0.0168764
-0.0165165
-0.0160966
-0.0156168
-0.0150781
-0.0144802
-0.0138245
-0.0131106
-0.0123399
-0.0115122
-0.0106288
-0.00968952
-0.00869573
-0.00764726
-0.0065454
-0.00539007
-0.00418242
-0.00292282
-0.00161254
-0.00024786
0.00117778
0.00262887
0.00396274
0.00534332
-0.0123339
1.69675e-05
-0.000809317
0.000551462
0.00161774
0.00266951
0.00370469
0.00472508
0.00573623
0.0067415
0.00774336
0.00874325
0.00974167
0.0107381
0.011731
0.0127179
0.0136957
0.0146609
0.0156106
0.0165415
0.01745
0.0183324
0.0191846
0.0200023
0.020781
0.0215161
0.022203
0.022837
0.0234136
0.0239284
0.0243771
0.0247556
0.0250603
0.0252879
0.0254352
0.0254999
0.0254797
0.0253731
0.0251788
0.0248966
0.0245264
0.0240689
0.0235253
0.0228975
0.0221877
0.0213995
0.0205369
0.0196051
0.0186084
0.0175521
0.0164406
0.0152792
0.0140722
0.0128251
0.0115424
0.0102295
0.00889082
0.00753188
0.00615697
0.00477149
0.00337958
0.00198645
0.000595987
-0.00078682
-0.00215837
-0.00351395
-0.00485031
-0.00616305
-0.00744927
-0.00870491
-0.00992746
-0.0111132
-0.01226
-0.0133645
-0.0144249
-0.0154382
-0.0164032
-0.0173169
-0.0181786
-0.0189858
-0.0197378
-0.0204326
-0.0210699
-0.0216477
-0.0221663
-0.0226238
-0.0230207
-0.0233555
-0.0236288
-0.0238395
-0.0239882
-0.0240739
-0.0240976
-0.0240586
-0.0239576
-0.0237943
-0.0235697
-0.0232832
-0.0229361
-0.022528
-0.0220603
-0.0215324
-0.020946
-0.0203004
-0.0195975
-0.0188365
-0.0180194
-0.0171455
-0.0162166
-0.0152322
-0.0141941
-0.0131016
-0.0119567
-0.010759
-0.00951039
-0.00820696
-0.0068428
-0.00545159
-0.00417092
-0.00284449
-0.0123246
7.29584e-05
-0.000895041
0.000447773
0.00145672
0.00246084
0.00344767
0.0044202
0.00538379
0.00634168
0.00729626
0.0082489
0.00920008
0.0101492
0.0110949
0.0120345
0.0129647
0.0138819
0.014783
0.0156647
0.0165235
0.0173557
0.0181571
0.0189234
0.0196501
0.0203325
0.0209661
0.021546
0.0220677
0.0225267
0.0229186
0.0232394
0.0234854
0.023653
0.0237392
0.0237414
0.0236574
0.0234855
0.0232245
0.0228739
0.0224335
0.0219041
0.0212866
0.0205829
0.0197952
0.0189276
0.0179843
0.0169705
0.0158907
0.0147501
0.013553
0.0123047
0.0110098
0.00967355
0.00830062
0.0068963
0.00546537
0.00401304
0.00254403
0.00106341
-0.000424219
-0.00191399
-0.00340149
-0.00488215
-0.00635177
-0.00780612
-0.0092413
-0.0106534
-0.0120389
-0.0133942
-0.0147161
-0.0160015
-0.0172475
-0.0184514
-0.0196105
-0.0207227
-0.0217856
-0.0227973
-0.023756
-0.02466
-0.0255078
-0.0262982
-0.0270298
-0.0277018
-0.028313
-0.0288631
-0.029351
-0.0297765
-0.030139
-0.0304385
-0.0306745
-0.0308472
-0.0309563
-0.0310022
-0.0309847
-0.0309044
-0.0307613
-0.030556
-0.0302885
-0.0299598
-0.0295698
-0.0291196
-0.0286091
-0.0280396
-0.027411
-0.0267246
-0.0259803
-0.0251797
-0.0243224
-0.02341
-0.0224423
-0.0214208
-0.0203455
-0.0192178
-0.0180381
-0.0168041
-0.015509
-0.014186
-0.0129654
-0.0117012
-0.0123092
0.00012488
-0.000986002
0.000337032
0.00128562
0.0022397
0.00317551
0.00409756
0.00501097
0.00591883
0.00682346
0.00772617
0.0086274
0.00952658
0.0104222
0.0113117
0.0121916
0.0130581
0.0139079
0.0147378
0.0155442
0.0163234
0.0170713
0.0177835
0.0184555
0.0190824
0.0196597
0.0201826
0.0206465
0.0210466
0.0213787
0.0216386
0.0218225
0.0219269
0.0219485
0.0218847
0.0217333
0.0214923
0.0211607
0.0207376
0.0202229
0.0196172
0.0189214
0.018137
0.0172669
0.016315
0.0152862
0.0141853
0.0130174
0.0117869
0.0104989
0.00915807
0.00776961
0.00633813
0.00486911
0.00336714
0.00183778
0.000285567
-0.00128399
-0.00286648
-0.0044565
-0.00604984
-0.0076413
-0.00922693
-0.0108018
-0.0123622
-0.0139035
-0.0154225
-0.0169147
-0.0183773
-0.0198062
-0.021199
-0.022552
-0.023863
-0.0251288
-0.0263476
-0.0275165
-0.0286341
-0.0296978
-0.0307067
-0.0316583
-0.0325522
-0.0333863
-0.0341603
-0.0348725
-0.0355228
-0.0361099
-0.036634
-0.0370939
-0.03749
-0.0378213
-0.0380886
-0.0382911
-0.0384296
-0.0385035
-0.0385138
-0.03846
-0.0383433
-0.0381632
-0.0379211
-0.0376165
-0.037251
-0.0368241
-0.0363376
-0.0357908
-0.0351858
-0.0345217
-0.0338009
-0.0330223
-0.0321884
-0.0312982
-0.0303539
-0.0293549
-0.0283034
-0.0271992
-0.0260406
-0.0248208
-0.0235717
-0.0224166
-0.021219
-0.0122878
0.000172481
-0.00108216
0.000219249
0.00110456
0.00200628
0.0028885
0.00375754
0.00461819
0.00547343
0.00632552
0.00717569
0.00802433
0.00887084
0.00971371
0.0105504
0.0113773
0.0121905
0.0129864
0.0137618
0.0145132
0.0152369
0.0159286
0.016584
0.0171985
0.0177673
0.0182856
0.0187486
0.0191516
0.01949
0.0197592
0.0199551
0.0200738
0.0201116
0.0200653
0.0199321
0.0197097
0.019396
0.0189899
0.0184904
0.0178975
0.0172111
0.0164326
0.0155631
0.014606
0.0135651
0.0124459
0.011253
0.00999172
0.00866625
0.00728183
0.00584298
0.00435504
0.00282267
0.00125133
-0.000354237
-0.00198857
-0.00364688
-0.00532381
-0.00701463
-0.00871415
-0.0104178
-0.0121206
-0.0138181
-0.0155058
-0.0171794
-0.0188347
-0.0204679
-0.0220749
-0.0236523
-0.0251965
-0.0267043
-0.0281726
-0.0295986
-0.0309796
-0.0323129
-0.0335964
-0.0348279
-0.0360054
-0.037127
-0.0381914
-0.0391969
-0.0401423
-0.0410264
-0.0418483
-0.0426072
-0.0433023
-0.043933
-0.044499
-0.0449999
-0.0454355
-0.0458055
-0.0461102
-0.0463493
-0.0465233
-0.0466322
-0.0466765
-0.0466562
-0.0465722
-0.0464246
-0.0462142
-0.0459412
-0.0456068
-0.0452109
-0.0447549
-0.0442388
-0.043664
-0.0430305
-0.0423398
-0.0415919
-0.0407883
-0.039929
-0.0390155
-0.038048
-0.0370283
-0.0359534
-0.0348182
-0.0336514
-0.0325699
-0.0314463
-0.01226
0.000215553
-0.00118348
9.444e-05
0.000913596
0.00176074
0.00258685
0.00340039
0.00420577
0.00500589
0.00580291
0.00659799
0.00739146
0.00818271
0.00897021
0.00975137
0.0105226
0.0112799
0.0120193
0.0127377
0.0134316
0.0140972
0.0147302
0.0153262
0.0158806
0.0163885
0.016845
0.0172454
0.0175848
0.0178585
0.018062
0.0181909
0.0182412
0.0182094
0.0180919
0.0178859
0.017589
0.0171991
0.0167148
0.0161352
0.0154597
0.014689
0.0138232
0.0128645
0.0118155
0.0106814
0.00946676
0.00817735
0.00681724
0.00539186
0.00390528
0.00236316
0.000769745
-0.000869118
-0.00254908
-0.00426419
-0.00601007
-0.00778076
-0.00957192
-0.0113777
-0.0131938
-0.0150146
-0.0168361
-0.0186528
-0.0204609
-0.0222553
-0.0240324
-0.0257875
-0.0275174
-0.0292175
-0.0308852
-0.0325163
-0.0341084
-0.0356577
-0.0371623
-0.0386188
-0.0400256
-0.0413796
-0.0426796
-0.0439229
-0.0451088
-0.0462347
-0.0473004
-0.0483036
-0.0492442
-0.0501205
-0.0509326
-0.051679
-0.0523602
-0.0529748
-0.0535235
-0.0540053
-0.054421
-0.0547699
-0.0550529
-0.0552693
-0.0554204
-0.0555057
-0.0555265
-0.0554823
-0.0553747
-0.0552031
-0.0549695
-0.0546732
-0.0543163
-0.053898
-0.0534205
-0.0528833
-0.0522884
-0.0516353
-0.0509262
-0.0501605
-0.0493403
-0.0484655
-0.0475381
-0.0465551
-0.0455124
-0.044436
-0.0434348
-0.042392
-0.012226
0.000253917
-0.00128989
-3.73538e-05
0.000712885
0.00150329
0.00227083
0.00302647
0.00377416
0.00451671
0.00525619
0.0059937
0.0067295
0.00746295
0.0081925
0.00891556
0.00962853
0.0103272
0.0110077
0.0116667
0.0123006
0.0129055
0.0134774
0.0140115
0.0145032
0.0149476
0.0153398
0.0156749
0.0159479
0.0161542
0.016289
0.016348
0.016327
0.0162223
0.0160305
0.0157485
0.0153737
0.0149041
0.014338
0.0136744
0.0129129
0.0120534
0.0110966
0.010044
0.00889928
0.00766701
0.00635277
0.00496141
0.00349798
0.00196694
0.000373378
-0.0012781
-0.00298213
-0.00473394
-0.00652799
-0.00835944
-0.0102227
-0.0121129
-0.0140244
-0.0159525
-0.0178918
-0.0198376
-0.0217845
-0.0237284
-0.025664
-0.0275874
-0.0294938
-0.0313794
-0.0332397
-0.0350715
-0.0368705
-0.038634
-0.0403579
-0.0420399
-0.0436765
-0.0452656
-0.046804
-0.0482902
-0.0497214
-0.0510962
-0.0524122
-0.0536686
-0.0548632
-0.0559955
-0.0570637
-0.0580676
-0.0590056
-0.0598779
-0.0606831
-0.0614216
-0.0620925
-0.0626962
-0.063232
-0.0637007
-0.0641017
-0.0644359
-0.0647029
-0.0649039
-0.0650384
-0.0651079
-0.065112
-0.0650522
-0.0649283
-0.064742
-0.0644928
-0.0641828
-0.0638115
-0.063381
-0.0628908
-0.062343
-0.0617373
-0.0610757
-0.0603579
-0.0595861
-0.0587603
-0.0578797
-0.056939
-0.0559635
-0.0550511
-0.0540982
-0.0121855
0.000287409
-0.00140132
-0.000176095
0.000502505
0.00123407
0.00194064
0.00263605
0.00332367
0.00400626
0.00468581
0.00536333
0.00603904
0.00671223
0.00738133
0.00804376
0.00869591
0.00933352
0.00995261
0.0105497
0.0111212
0.0116632
0.0121714
0.0126412
0.0130677
0.0134462
0.0137715
0.0140387
0.0142427
0.0143788
0.0144422
0.0144284
0.0143332
0.0141527
0.0138834
0.0135222
0.0130663
0.0125136
0.0118622
0.0111111
0.0102597
0.00930769
0.00825577
0.0071054
0.00586044
0.00452579
0.00310714
0.00160925
3.72576e-05
-0.00160437
-0.00331053
-0.00507659
-0.00689721
-0.00876753
-0.010682
-0.0126357
-0.0146231
-0.016639
-0.018678
-0.0207351
-0.0228049
-0.0248826
-0.0269629
-0.0290412
-0.0311126
-0.0331725
-0.0352166
-0.0372406
-0.0392402
-0.0412117
-0.0431513
-0.0450554
-0.0469206
-0.0487438
-0.050522
-0.0522525
-0.0539325
-0.0555598
-0.0571322
-0.0586475
-0.0601041
-0.0615001
-0.0628342
-0.0641049
-0.0653112
-0.066452
-0.0675266
-0.0685342
-0.0694742
-0.0703462
-0.07115
-0.0718852
-0.072552
-0.0731501
-0.0736799
-0.0741414
-0.0745352
-0.0748613
-0.0751206
-0.0753131
-0.07544
-0.0755012
-0.0754981
-0.0754308
-0.0753007
-0.0751079
-0.074854
-0.0745391
-0.0741648
-0.0737312
-0.07324
-0.0726914
-0.072087
-0.0714272
-0.0707138
-0.0699448
-0.0691169
-0.0682514
-0.067437
-0.0665813
-0.0121385
0.000315896
-0.00151768
-0.000321719
0.000282624
0.000953311
0.00159659
0.0022295
0.00285475
0.00347505
0.00409234
0.00470752
0.00532076
0.0059313
0.00653754
0.00713689
0.00772574
0.00829982
0.00885508
0.00938793
0.00989472
0.0103714
0.0108137
0.0112168
0.0115758
0.0118858
0.0121418
0.0123385
0.012471
0.0125342
0.0125235
0.0124342
0.0122619
0.0120027
0.011653
0.0112095
0.0106694
0.0100302
0.00929021
0.00844808
0.00750306
0.00645495
0.00530397
0.00405193
0.00270252
0.00126129
-0.000266462
-0.00187546
-0.00356109
-0.00531829
-0.00714249
-0.00902848
-0.0109715
-0.0129661
-0.0150072
-0.0170892
-0.0192072
-0.0213554
-0.0235288
-0.0257218
-0.0279295
-0.0301463
-0.0323676
-0.034588
-0.0368031
-0.0390077
-0.0411978
-0.0433686
-0.0455162
-0.0476362
-0.0497252
-0.051779
-0.0537947
-0.0557685
-0.0576979
-0.0595793
-0.0614107
-0.063189
-0.0649125
-0.0665785
-0.0681856
-0.0697315
-0.0712153
-0.0726349
-0.0739898
-0.0752782
-0.0764999
-0.0776534
-0.0787389
-0.0797552
-0.0807026
-0.0815802
-0.0823886
-0.0831271
-0.0837966
-0.0843965
-0.0849278
-0.0853902
-0.085785
-0.0861118
-0.0863721
-0.0865656
-0.0866942
-0.0867572
-0.086757
-0.0866928
-0.0865671
-0.0863792
-0.0861316
-0.0858237
-0.085458
-0.0850339
-0.0845539
-0.0840177
-0.0834279
-0.0827821
-0.0820783
-0.0813345
-0.0806281
-0.0798796
-0.012085
0.000339238
-0.00163888
-0.000474172
5.33362e-05
0.00066117
0.00123887
0.00180707
0.0023677
0.00292348
0.00347623
0.0040268
0.00457527
0.00512084
0.00566188
0.00619577
0.00671893
0.00722711
0.00771625
0.00818261
0.00862243
0.00903159
0.0094056
0.0097397
0.0100289
0.0102682
0.0104523
0.0105762
0.0106346
0.0106225
0.0105351
0.0103675
0.0101154
0.00977479
0.00934176
0.00881298
0.00818547
0.00745675
0.00662482
0.00568827
0.00464622
0.00349831
0.00224464
0.000886987
-0.000570815
-0.00212296
-0.00376416
-0.00548904
-0.00729304
-0.00917102
-0.0111184
-0.0131299
-0.0152008
-0.0173256
-0.0194992
-0.0217161
-0.0239709
-0.0262582
-0.0285727
-0.0309088
-0.0332614
-0.0356251
-0.0379948
-0.0403654
-0.042732
-0.0450898
-0.0474342
-0.0497606
-0.0520647
-0.0543425
-0.0565898
-0.058803
-0.0609785
-0.0631128
-0.0652028
-0.0672454
-0.069238
-0.0711778
-0.0730625
-0.0748899
-0.0766579
-0.0783647
-0.0800087
-0.0815884
-0.0831024
-0.0845498
-0.0859294
-0.0872405
-0.0884823
-0.0896546
-0.0907566
-0.0917884
-0.0927495
-0.0936403
-0.0944606
-0.0952108
-0.0958909
-0.0965016
-0.0970431
-0.0975163
-0.0979213
-0.0982593
-0.0985305
-0.0987363
-0.0988769
-0.0989538
-0.0989672
-0.0989189
-0.098809
-0.0986393
-0.09841
-0.098123
-0.0977784
-0.0973784
-0.0969232
-0.096413
-0.0958446
-0.0952349
-0.0946465
-0.0940152
-0.0120249
0.000357332
-0.00176478
-0.000633371
-0.000185166
0.000357898
0.000867809
0.00136915
0.00186299
0.00235205
0.00283807
0.0033218
0.00380328
0.00428163
0.00475519
0.00522133
0.0056765
0.00611651
0.00653728
0.00693496
0.00730565
0.00764508
0.00794867
0.00821156
0.00842869
0.0085949
0.00870494
0.00875354
0.00873548
0.00864559
0.00847888
0.00823054
0.00789605
0.00747116
0.00695201
0.00633507
0.00561726
0.00479591
0.00386891
0.00283469
0.00169225
0.000441034
-0.000918852
-0.00238591
-0.0039559
-0.00562326
-0.00738213