/*--------------------------------*- C++ -*----------------------------------*\
  =========                 |
  \\      /  F ield         | OpenFOAM: The Open Source CFD Toolbox
   \\    /   O peration     | Website:  https://openfoam.org
    \\  /    A nd           | Version:  8
     \\/     M anipulation  |
\*---------------------------------------------------------------------------*/
FoamFile
{
    version     2.0;
    format      ascii;
    class       volScalarField;
    location    "0.00757";
    object      p;
}
// * * * * * * * * * * * * * * * * * * * * * * * * * * * * * * * * * * * * * //

dimensions      [0 2 -2 0 0 0 0];

internalField   nonuniform List<scalar> 
111706
(
2.11258
2.09566
2.08083
2.06616
2.05149
2.03666
2.02159
2.00631
1.99081
1.9751
1.95919
1.94307
1.92677
1.91029
1.89364
1.87683
1.85987
1.84276
1.82552
1.80815
1.79065
1.77304
1.75532
1.7375
1.71957
1.70155
1.68344
1.66524
1.64696
1.62861
1.61019
1.59169
1.57313
1.55452
1.53584
1.5171
1.49832
1.47948
1.4606
1.44167
1.42271
1.4037
1.38466
1.36558
1.34646
1.32732
1.30814
1.28894
1.26971
1.25045
1.23117
1.21186
1.19253
1.17319
1.15382
1.13443
1.11503
1.09561
1.07617
1.05671
1.03724
1.01776
0.998259
0.978745
0.95922
0.939681
0.920128
0.900566
0.880991
0.861404
0.841806
0.822195
0.802573
0.782939
0.763295
0.74364
0.72397
0.704296
0.684607
0.664908
0.645194
0.62547
0.605736
0.585993
0.566233
0.546457
0.526679
0.506881
0.487071
0.467248
0.447411
0.427565
0.407701
0.387822
0.367928
0.348023
0.3281
0.308159
0.288204
0.268233
0.248244
0.228238
0.208215
0.188173
0.168114
0.148039
0.127941
0.107823
0.0876862
0.0675333
0.0473542
0.027155
0.00693525
-0.0133083
-0.0335662
-0.0538567
-0.0741672
-0.0944955
-0.11485
-0.13523
-0.155636
-0.176063
-0.196515
-0.21699
-0.237496
-0.258024
-0.278579
-0.29916
-0.319767
-0.340401
-0.361058
-0.381745
-0.402456
-0.423194
-0.443962
-0.464756
-0.485576
-0.506424
-0.527299
-0.548201
-0.569124
-0.590078
-0.611059
-0.632062
-0.653095
-0.674151
-0.695231
-0.716334
-0.737465
-0.758616
-0.779791
-0.800988
-0.822208
-0.843443
-0.864696
-0.88597
-0.907262
-0.928571
-0.949894
-0.971227
-0.99257
-1.01393
-1.03529
-1.05667
-1.07804
-1.09942
-1.1208
-1.14218
-1.16355
-1.18492
-1.20627
-1.22761
-1.24894
-1.27025
-1.29154
-1.31279
-1.33402
-1.35522
-1.37637
-1.39748
-1.41855
-1.43956
-1.46051
-1.48139
-1.50222
-1.52296
-1.54361
-1.56418
-1.58464
-1.60501
-1.62526
-1.64538
-1.66539
-1.68528
-1.70506
-1.72472
-1.74436
-1.76419
-1.7845
-1.80784
2.11978
2.1048
2.0898
2.0749
2.06021
2.04549
2.03058
2.01546
2.00011
1.98454
1.96876
1.95278
1.9366
1.92022
1.90368
1.88697
1.87009
1.85306
1.83589
1.81857
1.80114
1.78356
1.76588
1.74809
1.73018
1.71218
1.69408
1.67588
1.6576
1.63924
1.6208
1.60228
1.58369
1.56504
1.54632
1.52754
1.5087
1.4898
1.47086
1.45186
1.43282
1.41374
1.39461
1.37544
1.35623
1.33699
1.31771
1.2984
1.27906
1.25968
1.24028
1.22085
1.2014
1.18192
1.16242
1.1429
1.12335
1.10378
1.0842
1.06459
1.04497
1.02533
1.00567
0.985992
0.966302
0.946592
0.926872
0.907136
0.887386
0.867618
0.847841
0.828047
0.808242
0.788422
0.76859
0.748742
0.728883
0.709012
0.689129
0.66923
0.649319
0.629394
0.609458
0.589508
0.569544
0.549565
0.529576
0.509571
0.489551
0.469518
0.44947
0.429408
0.409332
0.389238
0.369131
0.349007
0.328868
0.308713
0.288537
0.268352
0.24814
0.22792
0.207674
0.187415
0.167137
0.14684
0.126524
0.106186
0.0858305
0.0654548
0.0450586
0.0246409
0.00420211
-0.0162584
-0.0367375
-0.0572432
-0.0777691
-0.0983168
-0.118887
-0.139482
-0.160099
-0.180741
-0.201405
-0.222093
-0.242807
-0.263546
-0.284307
-0.305094
-0.325905
-0.346743
-0.367603
-0.388491
-0.409402
-0.430338
-0.451298
-0.472288
-0.493299
-0.514336
-0.535398
-0.556483
-0.577593
-0.598726
-0.619885
-0.641065
-0.662268
-0.683493
-0.704743
-0.72601
-0.7473
-0.768607
-0.789937
-0.811286
-0.83265
-0.85403
-0.875423
-0.896832
-0.918258
-0.939695
-0.961139
-0.982589
-1.00405
-1.02552
-1.04699
-1.06846
-1.08993
-1.1114
-1.13287
-1.15432
-1.17577
-1.1972
-1.21862
-1.24001
-1.26139
-1.28275
-1.30407
-1.32535
-1.3466
-1.36781
-1.38897
-1.41009
-1.43114
-1.45214
-1.47307
-1.49393
-1.51471
-1.5354
-1.556
-1.5765
-1.5969
-1.61718
-1.63734
-1.65737
-1.67728
-1.69707
-1.71676
-1.73637
-1.75615
-1.77645
-1.79713
-1.81803
2.12682
2.11334
2.09871
2.08378
2.069
2.05432
2.03956
2.02458
2.00938
1.99396
1.97832
1.96247
1.94641
1.93016
1.91372
1.8971
1.88031
1.86337
1.84627
1.82903
1.81164
1.79413
1.77648
1.75872
1.74084
1.72287
1.70478
1.68659
1.66831
1.64994
1.63148
1.61295
1.59434
1.57565
1.55689
1.53807
1.51918
1.50023
1.48123
1.46216
1.44305
1.42389
1.40468
1.38543
1.36613
1.34679
1.32741
1.30799
1.28855
1.26906
1.24954
1.22999
1.21041
1.1908
1.17117
1.15151
1.13182
1.11211
1.09237
1.07262
1.05284
1.03304
1.01322
0.993382
0.973523
0.953647
0.933753
0.913841
0.893914
0.873967
0.854005
0.834031
0.814037
0.794026
0.774002
0.753964
0.733909
0.713839
0.693756
0.673657
0.653543
0.633412
0.613272
0.593113
0.572942
0.55275
0.53255
0.512333
0.492097
0.471852
0.451584
0.431307
0.41101
0.390699
0.370371
0.350028
0.329666
0.309288
0.288891
0.268481
0.248048
0.227603
0.207134
0.18665
0.166146
0.145625
0.125084
0.104523
0.0839411
0.0633436
0.0427192
0.022081
0.00141633
-0.0192658
-0.039967
-0.0606969
-0.0814426
-0.102213
-0.123
-0.143816
-0.164653
-0.185511
-0.206391
-0.227295
-0.248224
-0.269172
-0.290146
-0.311145
-0.332166
-0.353206
-0.374273
-0.395365
-0.416477
-0.437614
-0.458774
-0.479957
-0.501163
-0.522392
-0.543641
-0.564916
-0.586208
-0.607524
-0.628859
-0.650217
-0.671594
-0.692988
-0.714402
-0.735836
-0.757284
-0.778753
-0.800234
-0.821733
-0.84324
-0.864763
-0.886296
-0.907843
-0.929396
-0.95096
-0.972523
-0.994091
-1.01566
-1.03724
-1.05881
-1.08038
-1.10195
-1.1235
-1.14505
-1.16658
-1.18809
-1.20959
-1.23106
-1.25251
-1.27393
-1.29533
-1.31668
-1.33799
-1.35926
-1.38047
-1.40165
-1.42275
-1.4438
-1.46477
-1.48568
-1.5065
-1.52724
-1.54788
-1.56842
-1.58885
-1.60917
-1.62937
-1.64944
-1.66938
-1.6892
-1.7089
-1.72849
-1.74818
-1.76821
-1.78869
-1.80901
-1.82804
2.13324
2.12126
2.10742
2.09269
2.07785
2.06318
2.0485
2.03367
2.01862
2.00335
1.98785
1.97214
1.95621
1.94008
1.92375
1.90724
1.89056
1.8737
1.85668
1.8395
1.82219
1.80472
1.78713
1.76941
1.75157
1.73362
1.71555
1.69737
1.6791
1.66072
1.64226
1.62371
1.60508
1.58636
1.56757
1.54871
1.52978
1.51078
1.49172
1.47259
1.45341
1.43418
1.41489
1.39556
1.37617
1.35673
1.33726
1.31774
1.29818
1.27859
1.25895
1.23928
1.21957
1.19984
1.18007
1.16027
1.14045
1.12059
1.10071
1.0808
1.06087
1.04091
1.02093
1.00093
0.980898
0.960853
0.940782
0.920696
0.900586
0.88046
0.860314
0.840149
0.819967
0.799764
0.779543
0.759311
0.739055
0.718784
0.698499
0.678192
0.657874
0.637535
0.617184
0.596812
0.576426
0.556022
0.535604
0.515168
0.494717
0.474247
0.45376
0.43326
0.412741
0.392205
0.371651
0.351082
0.330493
0.309888
0.289265
0.268624
0.247963
0.227286
0.20659
0.185876
0.165142
0.144391
0.123618
0.102828
0.0820167
0.0611887
0.0403369
0.0194656
-0.00142445
-0.0223363
-0.0432666
-0.0642207
-0.0851934
-0.106191
-0.127204
-0.148243
-0.1693
-0.190384
-0.211483
-0.232608
-0.253755
-0.274919
-0.29611
-0.317323
-0.338553
-0.359807
-0.381083
-0.402378
-0.423698
-0.445036
-0.466399
-0.487779
-0.509183
-0.530604
-0.552045
-0.573507
-0.594987
-0.616484
-0.638002
-0.659533
-0.681086
-0.702655
-0.724231
-0.745828
-0.767441
-0.789064
-0.8107
-0.832347
-0.854004
-0.875664
-0.897335
-0.919014
-0.940699
-0.96238
-0.984066
-1.00575
-1.02743
-1.04911
-1.07078
-1.09245
-1.1141
-1.13574
-1.15736
-1.17896
-1.20054
-1.2221
-1.24363
-1.26512
-1.28659
-1.30801
-1.32939
-1.35072
-1.372
-1.39322
-1.41439
-1.4355
-1.45652
-1.47747
-1.49834
-1.51913
-1.53981
-1.56039
-1.58087
-1.60123
-1.62147
-1.64158
-1.66156
-1.6814
-1.70113
-1.72074
-1.74035
-1.76015
-1.7804
-1.80075
-1.82015
-1.83726
2.14021
2.12872
2.11574
2.10148
2.08675
2.07204
2.05742
2.04271
2.0278
2.01268
1.99734
1.98177
1.96598
1.94998
1.93378
1.91738
1.90079
1.88403
1.8671
1.85
1.83276
1.81536
1.79783
1.78016
1.76236
1.74443
1.72639
1.70823
1.68997
1.6716
1.65313
1.63458
1.61593
1.59719
1.57837
1.55948
1.5405
1.52146
1.50234
1.48316
1.46392
1.44461
1.42525
1.40583
1.38636
1.36684
1.34726
1.32764
1.30798
1.28827
1.26852
1.24873
1.22891
1.20904
1.18914
1.16921
1.14924
1.12924
1.10921
1.08914
1.06906
1.04894
1.0288
1.00862
0.98843
0.968211
0.947966
0.927697
0.907408
0.887097
0.866762
0.846406
0.826031
0.805633
0.785217
0.764779
0.744325
0.723848
0.703354
0.682842
0.662312
0.641759
0.621192
0.600605
0.580003
0.559378
0.538739
0.51808
0.497405
0.47671
0.455998
0.435269
0.414522
0.393755
0.372972
0.35217
0.331351
0.310511
0.289654
0.26878
0.247885
0.226974
0.206043
0.185092
0.164124
0.143135
0.122129
0.101101
0.0800557
0.058991
0.0379054
0.0167995
-0.00432411
-0.02547
-0.0466334
-0.067821
-0.0890245
-0.11025
-0.131495
-0.152764
-0.174049
-0.195355
-0.216683
-0.238032
-0.259399
-0.280788
-0.302196
-0.323626
-0.345073
-0.366543
-0.388032
-0.409538
-0.431063
-0.45261
-0.474175
-0.495756
-0.517357
-0.538976
-0.560613
-0.582263
-0.603929
-0.625613
-0.647311
-0.669023
-0.69075
-0.712489
-0.734237
-0.756
-0.777774
-0.799551
-0.821344
-0.843135
-0.864937
-0.886741
-0.908548
-0.930358
-0.952169
-0.97397
-0.995776
-1.01757
-1.03936
-1.06114
-1.08291
-1.10467
-1.1264
-1.14812
-1.16981
-1.19148
-1.21313
-1.23474
-1.25631
-1.27785
-1.29935
-1.3208
-1.3422
-1.36355
-1.38484
-1.40606
-1.42722
-1.4483
-1.4693
-1.49023
-1.51106
-1.53179
-1.55242
-1.57294
-1.59334
-1.61362
-1.63377
-1.65378
-1.67366
-1.69341
-1.71305
-1.73262
-1.75228
-1.77227
-1.79251
-1.81237
-1.83075
-1.84735
2.1474
2.13597
2.12362
2.11003
2.0956
2.08095
2.06633
2.0517
2.03693
2.02197
2.00678
1.99136
1.97571
1.95985
1.94377
1.92749
1.91102
1.89436
1.87753
1.86053
1.84336
1.82603
1.80856
1.79094
1.77319
1.7553
1.73729
1.71916
1.70092
1.68256
1.6641
1.64554
1.62688
1.60812
1.58928
1.57036
1.55135
1.53226
1.5131
1.49386
1.47456
1.45519
1.43575
1.41625
1.3967
1.37709
1.35742
1.3377
1.31793
1.29812
1.27826
1.25835
1.2384
1.2184
1.19837
1.1783
1.15819
1.13804
1.11787
1.09765
1.07741
1.05713
1.03682
1.01648
0.996117
0.975722
0.9553
0.934851
0.914377
0.893879
0.873354
0.852803
0.832231
0.811639
0.791017
0.77038
0.749715
0.729034
0.708327
0.687603
0.666856
0.646089
0.625302
0.604496
0.583669
0.562819
0.541956
0.521068
0.500165
0.479239
0.458297
0.437333
0.416353
0.39535
0.374333
0.353293
0.332236
0.311161
0.290063
0.26895
0.247815
0.226664
0.20549
0.184301
0.163091
0.141861
0.120615
0.0993444
0.0780596
0.0567515
0.035427
0.0140806
-0.00728224
-0.0286684
-0.0500681
-0.0714935
-0.0929357
-0.114396
-0.135876
-0.157376
-0.178896
-0.200433
-0.221992
-0.243566
-0.265164
-0.286774
-0.30841
-0.330058
-0.351726
-0.373414
-0.395119
-0.416838
-0.438577
-0.460331
-0.482103
-0.503889
-0.525691
-0.547507
-0.569339
-0.591184
-0.61304
-0.634912
-0.65679
-0.678684
-0.700587
-0.722497
-0.744417
-0.766345
-0.78828
-0.810217
-0.832158
-0.854098
-0.876042
-0.897989
-0.91993
-0.941872
-0.963805
-0.98573
-1.00765
-1.02956
-1.05145
-1.07333
-1.09519
-1.11704
-1.13885
-1.16065
-1.18241
-1.20414
-1.22584
-1.2475
-1.26913
-1.2907
-1.31222
-1.33369
-1.35511
-1.37647
-1.39776
-1.41897
-1.44011
-1.46117
-1.48215
-1.50303
-1.52381
-1.54449
-1.56505
-1.58549
-1.60582
-1.62601
-1.64607
-1.66598
-1.68577
-1.70542
-1.72499
-1.74458
-1.76435
-1.7844
-1.80437
-1.82347
-1.84116
-1.85783
2.15456
2.14308
2.13119
2.11825
2.10429
2.08982
2.07525
2.06068
2.04603
2.0312
2.01616
2.0009
1.9854
1.96968
1.95374
1.9376
1.92124
1.9047
1.88797
1.87106
1.85397
1.83673
1.81932
1.80177
1.78407
1.76623
1.74826
1.73016
1.71194
1.69361
1.67515
1.65659
1.63793
1.61916
1.60031
1.58136
1.56231
1.54319
1.52398
1.50469
1.48533
1.4659
1.44639
1.42682
1.40719
1.38749
1.36773
1.34792
1.32805
1.30813
1.28815
1.26812
1.24805
1.22793
1.20777
1.18756
1.16731
1.14702
1.12669
1.10633
1.08592
1.06548
1.04501
1.02451
1.00396
0.983392
0.962792
0.942159
0.921498
0.900809
0.880091
0.859348
0.838575
0.81778
0.796957
0.77611
0.755236
0.734342
0.713422
0.692479
0.671515
0.650526
0.629514
0.608482
0.587428
0.566351
0.545255
0.524136
0.502998
0.481838
0.460659
0.439457
0.418236
0.396997
0.375732
0.354456
0.333152
0.311834
0.290492
0.269134
0.247753
0.226356
0.204936
0.183501
0.16204
0.140569
0.11907
0.0975576
0.0760241
0.05447
0.0328997
0.0113081
-0.0102997
-0.0319298
-0.0535755
-0.0752416
-0.096925
-0.118627
-0.14035
-0.162088
-0.183843
-0.205618
-0.227411
-0.249218
-0.271047
-0.292889
-0.31475
-0.336624
-0.358519
-0.380425
-0.40235
-0.424287
-0.44624
-0.468208
-0.490187
-0.512179
-0.534189
-0.556203
-0.578234
-0.60027
-0.622323
-0.64438
-0.666447
-0.688518
-0.710601
-0.732682
-0.754772
-0.776866
-0.79896
-0.821053
-0.843149
-0.865241
-0.887328
-0.909409
-0.931488
-0.953556
-0.975614
-0.997656
-1.01969
-1.0417
-1.0637
-1.08567
-1.10763
-1.12955
-1.15145
-1.17331
-1.19514
-1.21693
-1.23869
-1.26039
-1.28205
-1.30365
-1.3252
-1.34669
-1.36811
-1.38947
-1.41076
-1.43195
-1.45307
-1.4741
-1.49504
-1.51587
-1.5366
-1.55721
-1.5777
-1.59807
-1.6183
-1.6384
-1.65836
-1.67818
-1.69786
-1.71744
-1.73698
-1.75661
-1.77646
-1.7964
-1.81589
-1.83425
-1.85147
-1.86838
2.16152
2.15012
2.13851
2.12614
2.11276
2.09861
2.08415
2.06965
2.05509
2.04039
2.0255
2.01039
1.99505
1.97948
1.96369
1.94768
1.93145
1.91502
1.89841
1.8816
1.86461
1.84745
1.83012
1.81264
1.795
1.77722
1.75929
1.74123
1.72304
1.70473
1.68629
1.66774
1.64908
1.63031
1.61143
1.59246
1.5734
1.55424
1.53499
1.51566
1.49624
1.47675
1.45718
1.43754
1.41783
1.39805
1.3782
1.35829
1.33833
1.3183
1.29821
1.27807
1.25787
1.23763
1.21733
1.19699
1.1766
1.15617
1.13569
1.11517
1.09461
1.07401
1.05337
1.03269
1.01198
0.991228
0.970443
0.949627
0.928777
0.907896
0.886983
0.866039
0.845067
0.824065
0.803034
0.781977
0.760892
0.73978
0.718642
0.697477
0.676286
0.655074
0.633833
0.612571
0.591287
0.569975
0.548643
0.527286
0.505911
0.484507
0.463087
0.441642
0.420177
0.39869
0.377181
0.355653
0.334103
0.312533
0.290942
0.269332
0.2477
0.22605
0.204379
0.182689
0.160979
0.139251
0.117502
0.0957347
0.0739491
0.0521428
0.0303223
0.00847648
-0.0133802
-0.0352598
-0.0571553
-0.0790712
-0.101001
-0.122948
-0.144917
-0.166897
-0.188898
-0.210914
-0.232945
-0.254992
-0.277054
-0.299131
-0.321224
-0.34333
-0.36545
-0.387584
-0.40973
-0.431889
-0.45406
-0.476242
-0.498436
-0.52064
-0.54285
-0.565073
-0.587301
-0.609537
-0.631781
-0.654025
-0.67628
-0.698536
-0.720795
-0.74305
-0.765311
-0.787569
-0.809821
-0.832073
-0.854323
-0.876563
-0.898791
-0.921011
-0.943221
-0.965416
-0.987592
-1.00976
-1.0319
-1.05401
-1.07611
-1.09818
-1.12022
-1.14222
-1.16419
-1.18612
-1.20801
-1.22986
-1.25165
-1.2734
-1.29509
-1.31672
-1.33828
-1.35978
-1.38121
-1.40256
-1.42383
-1.44501
-1.46609
-1.48709
-1.50798
-1.52876
-1.54942
-1.56997
-1.59038
-1.61066
-1.6308
-1.6508
-1.67065
-1.69037
-1.70996
-1.72949
-1.74903
-1.7687
-1.78853
-1.80819
-1.82705
-1.84478
-1.86179
-1.87876
2.16827
2.15705
2.14562
2.13372
2.12092
2.10723
2.093
2.07859
2.06412
2.04954
2.03479
2.01984
2.00465
1.98924
1.9736
1.95773
1.94164
1.92534
1.90884
1.89214
1.87525
1.85819
1.84095
1.82354
1.80598
1.78825
1.77038
1.75236
1.73421
1.71593
1.69751
1.67898
1.66032
1.64155
1.62267
1.60369
1.5846
1.56542
1.54613
1.52676
1.50729
1.48775
1.46812
1.44841
1.42863
1.40877
1.38883
1.36883
1.34877
1.32863
1.30844
1.28819
1.26787
1.2475
1.22707
1.2066
1.18607
1.16549
1.14486
1.12419
1.10347
1.08271
1.0619
1.04105
1.02016
0.999233
0.978265
0.957262
0.936219
0.915143
0.894033
0.872887
0.85171
0.830498
0.809258
0.787985
0.766683
0.745351
0.723987
0.7026
0.681179
0.659738
0.638266
0.616767
0.595246
0.573694
0.552121
0.530523
0.5089
0.487254
0.465584
0.443889
0.422174
0.400433
0.378674
0.35689
0.335086
0.313261
0.291412
0.269545
0.247656
0.225747
0.203816
0.181869
0.1599
0.137911
0.115906
0.0938776
0.0718347
0.0497692
0.0276884
0.00558973
-0.0165273
-0.0386612
-0.0608115
-0.0829823
-0.105164
-0.127366
-0.149583
-0.171811
-0.194062
-0.21632
-0.2386
-0.26089
-0.283191
-0.305508
-0.327835
-0.350178
-0.372529
-0.394894
-0.417267
-0.439649
-0.462044
-0.484443
-0.506853
-0.529267
-0.551689
-0.574115
-0.596547
-0.618982
-0.641421
-0.663857
-0.686297
-0.708736
-0.731172
-0.753604
-0.77604
-0.798459
-0.820877
-0.843281
-0.86568
-0.888066
-0.91044
-0.932792
-0.955133
-0.977453
-0.99975
-1.02202
-1.04427
-1.06649
-1.08868
-1.11084
-1.13296
-1.15504
-1.17707
-1.19907
-1.22101
-1.24291
-1.26475
-1.28652
-1.30824
-1.32989
-1.35147
-1.37297
-1.39439
-1.41573
-1.43698
-1.45813
-1.47919
-1.50013
-1.52097
-1.54168
-1.56228
-1.58274
-1.60307
-1.62326
-1.6433
-1.66319
-1.68294
-1.70256
-1.72209
-1.74158
-1.76113
-1.78081
-1.80047
-1.81965
-1.83788
-1.85514
-1.87206
-1.88897
2.1748
2.16384
2.15261
2.14105
2.1288
2.11561
2.10173
2.08749
2.07312
2.05865
2.04404
2.02923
2.01421
1.99896
1.98347
1.96775
1.95181
1.93564
1.91927
1.90269
1.88591
1.86895
1.8518
1.83448
1.81699
1.79933
1.78152
1.76356
1.74545
1.72721
1.70882
1.69031
1.67166
1.6529
1.63402
1.61502
1.59592
1.57671
1.5574
1.53799
1.51848
1.49889
1.4792
1.45943
1.43958
1.41964
1.39963
1.37954
1.35938
1.33914
1.31884
1.29847
1.27804
1.25755
1.23699
1.21638
1.19571
1.17499
1.15422
1.13339
1.11251
1.09158
1.07061
1.04958
1.02852
1.00741
0.986257
0.965065
0.943829
0.922553
0.901243
0.879894
0.858505
0.837085
0.815628
0.79414
0.772615
0.751056
0.729469
0.707849
0.686201
0.66452
0.642812
0.621072
0.599308
0.577515
0.555694
0.533847
0.511973
0.490075
0.468152
0.446202
0.424229
0.402234
0.380213
0.358169
0.336105
0.314014
0.291906
0.269773
0.247621
0.225446
0.203254
0.181037
0.158805
0.13655
0.114276
0.0919865
0.0696761
0.0473471
0.0250021
0.00264005
-0.0197396
-0.0421362
-0.0645487
-0.0869772
-0.109419
-0.131879
-0.15435
-0.176838
-0.199336
-0.22185
-0.244374
-0.266914
-0.289464
-0.312022
-0.334592
-0.35717
-0.379761
-0.402358
-0.42496
-0.447573
-0.470192
-0.492813
-0.51544
-0.538072
-0.560702
-0.58334
-0.605975
-0.628612
-0.651244
-0.673876
-0.696506
-0.719125
-0.741741
-0.76435
-0.786953
-0.809543
-0.832118
-0.854681
-0.877226
-0.89976
-0.922269
-0.944762
-0.967225
-0.989672
-1.01208
-1.03447
-1.05682
-1.07913
-1.10142
-1.12366
-1.14586
-1.16801
-1.19011
-1.21217
-1.23416
-1.25609
-1.27797
-1.29977
-1.32151
-1.34317
-1.36475
-1.38625
-1.40766
-1.42898
-1.4502
-1.47132
-1.49233
-1.51322
-1.53399
-1.55464
-1.57516
-1.59554
-1.61577
-1.63586
-1.6558
-1.67558
-1.69523
-1.71477
-1.73423
-1.75371
-1.77325
-1.79284
-1.81217
-1.83082
-1.84846
-1.86543
-1.88225
-1.89898
2.1811
2.17047
2.15947
2.14818
2.13636
2.12373
2.11028
2.09631
2.08208
2.06773
2.05324
2.03858
2.02372
2.00863
1.9933
1.97774
1.96194
1.94592
1.92968
1.91323
1.89657
1.87972
1.86267
1.84544
1.82804
1.81046
1.79272
1.77481
1.75676
1.73856
1.72021
1.70172
1.6831
1.66435
1.64548
1.62648
1.60736
1.58813
1.5688
1.54936
1.52982
1.51017
1.49043
1.4706
1.45068
1.43067
1.41058
1.39041
1.37015
1.34982
1.32942
1.30894
1.28839
1.26778
1.2471
1.22635
1.20555
1.18468
1.16375
1.14277
1.12174
1.10064
1.0795
1.0583
1.03706
1.01576
0.994426
0.973039
0.951611
0.930136
0.908619
0.887064
0.865465
0.843829
0.822156
0.800442
0.778693
0.756909
0.735089
0.713235
0.691348
0.669428
0.647475
0.625494
0.60348
0.581436
0.559365
0.537261
0.515135
0.492977
0.470793
0.448583
0.426348
0.404086
0.381802
0.359491
0.337156
0.314801
0.292421
0.270018
0.247595
0.225149
0.202683
0.180197
0.15769
0.135163
0.11262
0.0900554
0.0674745
0.0448755
0.0222589
-0.000375478
-0.0230207
-0.0456888
-0.0683667
-0.0910615
-0.11377
-0.13649
-0.159226
-0.181973
-0.204732
-0.227502
-0.250282
-0.273072
-0.295871
-0.318681
-0.341495
-0.364317
-0.387147
-0.40998
-0.43282
-0.455665
-0.478508
-0.501358
-0.524204
-0.547054
-0.569904
-0.592749
-0.615589
-0.63843
-0.66126
-0.684087
-0.706904
-0.729711
-0.752505
-0.775295
-0.798061
-0.820815
-0.843552
-0.866271
-0.888967
-0.911643
-0.93429
-0.956912
-0.979505
-1.00207
-1.0246
-1.04708
-1.06954
-1.09195
-1.11432
-1.13664
-1.15891
-1.18113
-1.20329
-1.2254
-1.24744
-1.26941
-1.29131
-1.31314
-1.33489
-1.35656
-1.37814
-1.39963
-1.42102
-1.44231
-1.46349
-1.48457
-1.50552
-1.52636
-1.54706
-1.56763
-1.58807
-1.60835
-1.62848
-1.64847
-1.66829
-1.68798
-1.70753
-1.72698
-1.74641
-1.76585
-1.78534
-1.80471
-1.82362
-1.84167
-1.85888
-1.87565
-1.89232
-1.90879
2.18717
2.17694
2.16621
2.15515
2.1437
2.13157
2.1186
2.10498
2.09097
2.07676
2.0624
2.04789
2.03317
2.01825
2.00308
1.98768
1.97205
1.95618
1.94008
1.92376
1.90723
1.8905
1.87356
1.85643
1.83912
1.82163
1.80396
1.78612
1.76813
1.74998
1.73167
1.71322
1.69463
1.6759
1.65703
1.63804
1.61892
1.59968
1.58033
1.56086
1.54129
1.5216
1.50182
1.48193
1.46195
1.44187
1.4217
1.40144
1.3811
1.36068
1.34017
1.31959
1.29892
1.27819
1.25739
1.23651
1.21556
1.19455
1.17348
1.15234
1.13114
1.10989
1.08858
1.06721
1.04578
1.0243
1.00277
0.981197
0.95957
0.937893
0.916171
0.894403
0.872593
0.850738
0.828839
0.806903
0.784924
0.762907
0.740851
0.718759
0.696629
0.674462
0.652264
0.63003
0.607766
0.585464
0.563135
0.540774
0.518382
0.495962
0.473512
0.451034
0.42853
0.405996
0.383442
0.360856
0.338249
0.315615
0.292959
0.270279
0.247578
0.224854
0.20211
0.179343
0.156559
0.133751
0.110931
0.0880859
0.0652277
0.0423496
0.0194562
-0.00345253
-0.0263786
-0.0493176
-0.0722697
-0.0952391
-0.118216
-0.141209
-0.16421
-0.187226
-0.210249
-0.233281
-0.256321
-0.279369
-0.302426
-0.325485
-0.348553
-0.371623
-0.394695
-0.417772
-0.440849
-0.463929
-0.487006
-0.51008
-0.533155
-0.556224
-0.579291
-0.602349
-0.6254
-0.64844
-0.671474
-0.694494
-0.717499
-0.740494
-0.76347
-0.786433
-0.809372
-0.832288
-0.855188
-0.878058
-0.900902
-0.923717
-0.946503
-0.969253
-0.991969
-1.01465
-1.03729
-1.05988
-1.08244
-1.10494
-1.12739
-1.14979
-1.17212
-1.1944
-1.21662
-1.23877
-1.26085
-1.28285
-1.30478
-1.32662
-1.34838
-1.37005
-1.39161
-1.41309
-1.43446
-1.45571
-1.47685
-1.49787
-1.51877
-1.53953
-1.56016
-1.58065
-1.60099
-1.62117
-1.6412
-1.66107
-1.68079
-1.70037
-1.71983
-1.73923
-1.7586
-1.77799
-1.79732
-1.81637
-1.83477
-1.8523
-1.86917
-1.88581
-1.9023
-1.9184
2.19301
2.1832
2.17279
2.16197
2.15082
2.13913
2.12667
2.11347
2.09975
2.08572
2.07151
2.05714
2.04258
2.02782
2.01282
1.99759
1.98211
1.9664
1.95045
1.93428
1.91788
1.90127
1.88445
1.86744
1.85023
1.83283
1.81524
1.79749
1.77956
1.76146
1.74321
1.7248
1.70624
1.68754
1.66869
1.64971
1.6306
1.61136
1.59199
1.5725
1.5529
1.53318
1.51335
1.49341
1.47337
1.45323
1.43299
1.41265
1.39223
1.37171
1.35111
1.33041
1.30964
1.28879
1.26786
1.24685
1.22577
1.20462
1.1834
1.16211
1.14075
1.11933
1.09784
1.0763
1.0547
1.03303
1.01131
0.989538
0.967712
0.945834
0.9239
0.901919
0.879889
0.857813
0.83569
0.813523
0.791309
0.769057
0.74676
0.724422
0.702047
0.679631
0.65718
0.634688
0.612164
0.589605
0.567009
0.544383
0.521724
0.499031
0.476313
0.453556
0.430778
0.407967
0.385131
0.362266
0.339378
0.316461
0.293522
0.270558
0.247572
0.224562
0.201533
0.178479
0.155409
0.132316
0.109207
0.0860765
0.0629344
0.0397674
0.0165935
-0.00660217
-0.029809
-0.0530285
-0.0762636
-0.0995088
-0.122764
-0.146035
-0.169309
-0.192597
-0.215889
-0.23919
-0.262498
-0.285808
-0.309125
-0.332445
-0.355766
-0.379089
-0.402412
-0.425734
-0.449057
-0.472371
-0.495683
-0.518992
-0.542294
-0.565587
-0.588869
-0.612143
-0.635406
-0.658652
-0.681886
-0.705105
-0.728301
-0.751479
-0.774638
-0.797775
-0.820884
-0.843969
-0.86702
-0.890047
-0.913035
-0.935994
-0.958909
-0.981791
-1.00463
-1.02742
-1.05017
-1.07286
-1.09551
-1.1181
-1.14062
-1.16309
-1.1855
-1.20783
-1.2301
-1.25228
-1.2744
-1.29643
-1.31837
-1.34022
-1.36198
-1.38364
-1.40519
-1.42664
-1.44797
-1.46918
-1.49027
-1.51123
-1.53206
-1.55275
-1.57329
-1.59368
-1.61392
-1.634
-1.65392
-1.67368
-1.69328
-1.71276
-1.73214
-1.75147
-1.77078
-1.79006
-1.80915
-1.82778
-1.84565
-1.86275
-1.87938
-1.89587
-1.91211
-1.92782
2.19861
2.18923
2.1792
2.16865
2.15778
2.14646
2.13447
2.12173
2.10837
2.09459
2.08056
2.06634
2.05194
2.03734
2.02251
2.00745
1.99214
1.97659
1.9608
1.94478
1.92852
1.91205
1.89536
1.87846
1.86136
1.84406
1.82657
1.8089
1.79104
1.77302
1.75483
1.73646
1.71795
1.69927
1.68046
1.66149
1.64239
1.62315
1.60377
1.58427
1.56465
1.5449
1.52503
1.50505
1.48496
1.46475
1.44445
1.42404
1.40353
1.38292
1.36222
1.34143
1.32055
1.29958
1.27853
1.25739
1.23618
1.21488
1.19352
1.17207
1.15055
1.12897
1.10731
1.08559
1.06381
1.04196
1.02004
0.998072
0.976043
0.953955
0.931812
0.909613
0.887363
0.86506
0.842708
0.820306
0.797857
0.775363
0.752819
0.730237
0.707609
0.684936
0.662227
0.639473
0.616686
0.593858
0.570992
0.548096
0.525158
0.502192
0.47919
0.456156
0.433093
0.409999
0.386875
0.363725
0.340546
0.317341
0.294111
0.270854
0.247577
0.224273
0.200949
0.177604
0.154238
0.130854
0.107449
0.0840273
0.0605896
0.0371335
0.0136636
-0.00981822
-0.0333183
-0.0568248
-0.0803472
-0.10388
-0.127419
-0.150971
-0.174526
-0.198093
-0.221663
-0.245234
-0.268816
-0.292395
-0.315977
-0.33956
-0.363142
-0.386722
-0.410299
-0.433873
-0.457439
-0.481
-0.504551
-0.528094
-0.551626
-0.575146
-0.598652
-0.62214
-0.645615
-0.669072
-0.692506
-0.715922
-0.739313
-0.762677
-0.786015
-0.809325
-0.832604
-0.855852
-0.879062
-0.902239
-0.925373
-0.948471
-0.971518
-0.994522
-1.01748
-1.04038
-1.06323
-1.08603
-1.10876
-1.13143
-1.15403
-1.17656
-1.19903
-1.22141
-1.24372
-1.26594
-1.28808
-1.31013
-1.33208
-1.35394
-1.37569
-1.39732
-1.41885
-1.44027
-1.46156
-1.48272
-1.50375
-1.52465
-1.5454
-1.566
-1.58645
-1.60674
-1.62687
-1.64684
-1.66664
-1.68628
-1.70579
-1.72516
-1.74447
-1.76371
-1.78292
-1.80201
-1.82077
-1.83892
-1.85632
-1.87307
-1.88951
-1.9058
-1.92171
-1.93702
2.20395
2.19504
2.18542
2.17519
2.16457
2.15357
2.14202
2.12975
2.1168
2.10332
2.08952
2.07548
2.06124
2.0468
2.03215
2.01725
2.00212
1.98674
1.97112
1.95526
1.93915
1.92282
1.90627
1.88949
1.87251
1.85532
1.83793
1.82035
1.80258
1.78463
1.7665
1.74821
1.72974
1.71111
1.69232
1.67338
1.6543
1.63506
1.61569
1.59618
1.57654
1.55677
1.53687
1.51685
1.4967
1.47645
1.45608
1.4356
1.41501
1.39432
1.37353
1.35264
1.33165
1.31057
1.28939
1.26813
1.24678
1.22535
1.20383
1.18224
1.16056
1.13881
1.11698
1.09508
1.07311
1.05108
1.02897
1.0068
0.984564
0.962268
0.939912
0.917493
0.895018
0.872488
0.849901
0.827265
0.804571
0.781833
0.759039
0.736202
0.713314
0.690384
0.667408
0.644393
0.621329
0.598231
0.575088
0.551912
0.528694
0.505443
0.482156
0.458834
0.435481
0.412093
0.388679
0.365233
0.341756
0.318252
0.294727
0.271168
0.247592
0.223985
0.200364
0.176715
0.153046
0.12936
0.105657
0.0819324
0.0581943
0.0344388
0.0106703
-0.0131106
-0.0369069
-0.0607102
-0.0845277
-0.108349
-0.132186
-0.156021
-0.179867
-0.203715
-0.22757
-0.251422
-0.275281
-0.299133
-0.322991
-0.346838
-0.370687
-0.394528
-0.418364
-0.442193
-0.466009
-0.489814
-0.513611
-0.537392
-0.561158
-0.584904
-0.608636
-0.632346
-0.656034
-0.6797
-0.70334
-0.726952
-0.750533
-0.774088
-0.797605
-0.821092
-0.84454
-0.867946
-0.891319
-0.914642
-0.937918
-0.961152
-0.984328
-1.00745
-1.03052
-1.05353
-1.07649
-1.09937
-1.12219
-1.14493
-1.16761
-1.1902
-1.21271
-1.23515
-1.25749
-1.27974
-1.3019
-1.32395
-1.34591
-1.36776
-1.38949
-1.41111
-1.4326
-1.45398
-1.47522
-1.49632
-1.51729
-1.53811
-1.55877
-1.57928
-1.59963
-1.61982
-1.63983
-1.65967
-1.67936
-1.69889
-1.71828
-1.73757
-1.75678
-1.77593
-1.79497
-1.81379
-1.83215
-1.84983
-1.86679
-1.88328
-1.89955
-1.9156
-1.93112
-1.94599
2.20902
2.20058
2.19141
2.18155
2.1712
2.1605
2.14933
2.13751
2.125
2.1119
2.09836
2.08453
2.07047
2.05621
2.04172
2.02701
2.01205
1.99685
1.9814
1.9657
1.94976
1.93358
1.91717
1.90053
1.88367
1.86661
1.84933
1.83185
1.81417
1.7963
1.77825
1.76002
1.74161
1.72303
1.70428
1.68538
1.66632
1.6471
1.62773
1.60822
1.58857
1.56878
1.54885
1.5288
1.50861
1.48831
1.46788
1.44733
1.42668
1.4059
1.38502
1.36404
1.34294
1.32175
1.30046
1.27907
1.25759
1.23602
1.21436
1.19261
1.17078
1.14886
1.12686
1.10478
1.08263
1.0604
1.0381
1.01573
0.99329
0.970781
0.948205
0.925568
0.902864
0.8801
0.857278
0.834399
0.811459
0.788467
0.765424
0.742325
0.719176
0.695982
0.672733
0.649444
0.626106
0.602725
0.579303
0.555837
0.532335
0.508788
0.485211
0.461593
0.437942
0.414256
0.390539
0.366789
0.34301
0.319202
0.295367
0.271502
0.247618
0.223703
0.19977
0.175814
0.151837
0.127839
0.103825
0.0797926
0.0557454
0.0316821
0.00760951
-0.0164824
-0.0405785
-0.0646891
-0.0888056
-0.11293
-0.137061
-0.161194
-0.185337
-0.209474
-0.233616
-0.257759
-0.281896
-0.306032
-0.330165
-0.354289
-0.378406
-0.402515
-0.426616
-0.450699
-0.474773
-0.49883
-0.52287
-0.546892
-0.570894
-0.594877
-0.618833
-0.642762
-0.666667
-0.690546
-0.714388
-0.738202
-0.761976
-0.785715
-0.809417
-0.833076
-0.856694
-0.880263
-0.903786
-0.927258
-0.950674
-0.974039
-0.997341
-1.02059
-1.04376
-1.06688
-1.08993
-1.1129
-1.13579
-1.15861
-1.18135
-1.204
-1.22656
-1.24903
-1.2714
-1.29367
-1.31584
-1.33791
-1.35986
-1.38169
-1.4034
-1.42499
-1.44644
-1.46777
-1.48895
-1.50998
-1.53087
-1.5516
-1.57218
-1.59259
-1.61283
-1.63289
-1.65279
-1.67251
-1.69208
-1.71149
-1.73078
-1.74996
-1.76906
-1.78807
-1.8069
-1.82537
-1.84329
-1.86051
-1.87713
-1.89339
-1.90947
-1.92519
-1.9403
-1.95472
2.21382
2.20585
2.19715
2.1877
2.17769
2.16726
2.15643
2.14503
2.13298
2.12027
2.10706
2.09348
2.07962
2.06554
2.05124
2.03671
2.02193
2.00691
1.99164
1.97611
1.96034
1.94432
1.92807
1.91157
1.89485
1.87791
1.86075
1.84338
1.8258
1.80803
1.79006
1.7719
1.75356
1.73504
1.71635
1.69748
1.67845
1.65925
1.6399
1.6204
1.60074
1.58094
1.56099
1.54091
1.52069
1.50034
1.47986
1.45925
1.43852
1.41768
1.39671
1.37563
1.35444
1.33314
1.31173
1.29022
1.26861
1.2469
1.22509
1.2032
1.1812
1.15912
1.13695
1.1147
1.09236
1.06994
1.04745
1.02487
1.00222
0.979495
0.956702
0.933837
0.910905
0.887904
0.86484
0.841715
0.818528
0.79528
0.771975
0.748614
0.725197
0.701729
0.678206
0.654634
0.631015
0.607347
0.583635
0.559879
0.536078
0.512238
0.488357
0.464436
0.44048
0.416485
0.392461
0.368398
0.344309
0.320186
0.296036
0.271857
0.247655
0.223424
0.199173
0.174897
0.150604
0.126287
0.101957
0.0776055
0.0532422
0.0288626
0.00447219
-0.0199287
-0.0443413
-0.0687601
-0.0931861
-0.11762
-0.142054
-0.166494
-0.190935
-0.215373
-0.239811
-0.264244
-0.288672