/*--------------------------------*- C++ -*----------------------------------*\
  =========                 |
  \\      /  F ield         | OpenFOAM: The Open Source CFD Toolbox
   \\    /   O peration     | Website:  https://openfoam.org
    \\  /    A nd           | Version:  8
     \\/     M anipulation  |
\*---------------------------------------------------------------------------*/
FoamFile
{
    version     2.0;
    format      ascii;
    class       volVectorField;
    location    "0.00757";
    object      U;
}
// * * * * * * * * * * * * * * * * * * * * * * * * * * * * * * * * * * * * * //

dimensions      [0 1 -1 0 0 0 0];

internalField   nonuniform List<vector> 
111706
(
(14.9999 6.90826e-08 -4.03333e-24)
(15 1.00135e-06 -1.04935e-22)
(14.9999 2.57293e-06 -6.26755e-22)
(14.9999 6.06326e-06 1.97934e-22)
(14.9999 9.5792e-06 3.57447e-21)
(14.9998 1.29664e-05 -3.72025e-21)
(14.9998 1.65705e-05 -1.42958e-22)
(14.9998 2.09683e-05 1.49452e-21)
(14.9998 2.58574e-05 4.77523e-21)
(14.9998 3.1467e-05 -7.94016e-21)
(14.9998 3.71709e-05 -2.12315e-22)
(14.9998 4.33233e-05 1.40732e-20)
(14.9997 5.00766e-05 9.3353e-21)
(14.9997 5.68016e-05 9.94561e-21)
(14.9997 6.39946e-05 9.0044e-21)
(14.9997 7.11265e-05 1.52149e-20)
(14.9997 7.84493e-05 -1.14817e-20)
(14.9997 8.62448e-05 2.04832e-20)
(14.9997 9.37096e-05 -1.53031e-20)
(14.9997 0.000101258 -2.28907e-20)
(14.9997 0.000108867 -4.1459e-20)
(14.9997 0.000116731 -1.77863e-20)
(14.9997 0.000124239 -1.84748e-20)
(14.9997 0.000132082 -1.06673e-20)
(14.9997 0.000139609 9.17721e-21)
(14.9997 0.000147523 2.03391e-20)
(14.9997 0.000155155 -3.2037e-20)
(14.9996 0.000162671 4.28941e-20)
(14.9996 0.000170365 -2.97093e-22)
(14.9996 0.000177987 2.23823e-20)
(14.9996 0.000185671 2.21558e-20)
(14.9996 0.000193035 2.72214e-22)
(14.9996 0.000200461 2.26861e-20)
(14.9996 0.000207921 2.34059e-20)
(14.9996 0.000214939 -2.35528e-20)
(14.9996 0.00022227 2.63979e-22)
(14.9996 0.000229342 -3.66394e-20)
(14.9996 0.000236432 2.35569e-20)
(14.9996 0.000243753 -1.01571e-20)
(14.9997 0.000250521 4.7434e-20)
(14.9997 0.000257571 -4.737e-20)
(14.9997 0.000264322 3.78736e-20)
(14.9997 0.000270854 9.04308e-21)
(14.9997 0.000277472 -2.25959e-22)
(14.9997 0.000284109 2.33834e-20)
(14.9997 0.000290421 7.79249e-21)
(14.9997 0.000297035 2.2846e-20)
(14.9997 0.000303364 -3.8074e-20)
(14.9997 0.000309312 -2.26709e-20)
(14.9997 0.000315543 5.39688e-20)
(14.9997 0.000321409 1.61294e-20)
(14.9997 0.000327423 4.34523e-20)
(14.9997 0.000333135 4.29315e-20)
(14.9997 0.000339062 -1.64495e-20)
(14.9997 0.000344612 -1.67802e-20)
(14.9997 0.000350048 -2.05607e-20)
(14.9997 0.000355447 -4.04905e-20)
(14.9997 0.000360878 1.70303e-20)
(14.9997 0.000365907 1.9726e-20)
(14.9997 0.000371143 -1.9365e-20)
(14.9997 0.000376191 1.90096e-20)
(14.9997 0.000380855 -1.40856e-22)
(14.9997 0.000385753 1.82329e-20)
(14.9997 0.000390361 -1.42943e-22)
(14.9998 0.000395002 1.74261e-20)
(14.9998 0.000399525 -3.50738e-20)
(14.9998 0.00040374 0)
(14.9998 0.000408249 -1.60623e-20)
(14.9998 0.00041239 1.56437e-20)
(14.9998 0.000416374 1.52031e-20)
(14.9998 0.000420263 3.33364e-20)
(14.9998 0.000424045 -1.85505e-20)
(14.9998 0.000427658 -2.79272e-20)
(14.9998 0.000431187 3.24453e-20)
(14.9998 0.000434824 -3.79951e-20)
(14.9998 0.000438217 1.8909e-20)
(14.9998 0.000441237 4.33071e-20)
(14.9998 0.000444605 -7.75179e-21)
(14.9998 0.00044755 0)
(14.9998 0.000450447 0)
(14.9999 0.000453046 0)
(14.9999 0.000455827 -9.60014e-21)
(14.9999 0.000458398 0)
(14.9999 0.000460944 -1.10372e-20)
(14.9999 0.000463138 3.93242e-20)
(14.9999 0.000465223 1.53727e-20)
(14.9999 0.000467485 -6.67484e-20)
(14.9999 0.000469372 1.32965e-20)
(14.9999 0.000471217 1.39137e-20)
(14.9999 0.00047293 -1.99993e-20)
(14.9999 0.00047463 -5.07788e-21)
(14.9999 0.000476212 4.56095e-21)
(14.9999 0.000477535 3.98221e-21)
(15 0.000478764 3.69879e-20)
(15 0.000479809 4.35008e-20)
(15 0.000480846 -1.78748e-20)
(15 0.000481679 -4.07179e-20)
(15 0.000482524 0)
(15 0.0004831 8.05831e-22)
(15 0.000483608 2.04692e-20)
(15 0.000484016 -2.58909e-22)
(15 0.000484327 -1.96736e-20)
(15 0.000484567 0)
(15 0.000484538 4.09583e-20)
(15 0.000484519 -9.70632e-21)
(15 0.000484293 -1.74696e-20)
(15 0.000484059 -7.03201e-21)
(15.0001 0.000483637 -2.04332e-20)
(15.0001 0.000483118 -2.50264e-20)
(15.0001 0.000482333 1.02742e-20)
(15.0001 0.000481427 5.60625e-21)
(15.0001 0.000480505 2.04273e-20)
(15.0001 0.000479445 -6.82209e-21)
(15.0001 0.00047834 2.04613e-20)
(15.0001 0.000476846 -1.57336e-20)
(15.0001 0.000475531 -1.17754e-20)
(15.0001 0.0004741 -2.92508e-20)
(15.0001 0.000472303 9.57161e-21)
(15.0001 0.000470476 5.04705e-20)
(15.0001 0.000468426 -3.05768e-20)
(15.0002 0.00046656 -2.00361e-20)
(15.0002 0.00046438 2.29462e-20)
(15.0002 0.000462145 2.00495e-20)
(15.0002 0.000459464 7.39457e-21)
(15.0002 0.00045714 -6.59382e-20)
(15.0002 0.00045442 1.37187e-20)
(15.0002 0.000451437 5.6005e-21)
(15.0002 0.000448561 -3.94461e-20)
(15.0002 0.00044559 4.99322e-20)
(15.0002 0.000442432 3.9079e-21)
(15.0002 0.000439154 -1.94843e-20)
(15.0002 0.000435768 -1.34979e-20)
(15.0002 0.000432207 3.63476e-20)
(15.0002 0.000428245 -3.68567e-20)
(15.0003 0.000424588 1.67303e-20)
(15.0003 0.000420591 1.92318e-20)
(15.0003 0.000416459 1.89941e-20)
(15.0003 0.000412352 -3.83997e-20)
(15.0003 0.000407922 -5.75562e-20)
(15.0003 0.000403733 1.83501e-22)
(15.0003 0.00039912 1.86301e-20)
(15.0003 0.000394291 0)
(15.0003 0.000389673 2.14952e-20)
(15.0003 0.000384607 0)
(15.0003 0.000379561 -1.83483e-20)
(15.0003 0.000374462 2.29e-20)
(15.0003 0.000369224 -5.15543e-21)
(15.0003 0.000363559 2.34334e-20)
(15.0003 0.000358112 1.78381e-20)
(15.0003 0.000352319 -4.84066e-20)
(15.0004 0.000346671 -1.04425e-20)
(15.0004 0.000340603 7.5817e-21)
(15.0004 0.00033483 4.22832e-20)
(15.0004 0.000328616 -8.44755e-21)
(15.0004 0.000322067 0)
(15.0004 0.000315833 9.05341e-21)
(15.0004 0.000309214 4.27497e-20)
(15.0004 0.000302595 4.19413e-20)
(15.0004 0.00029605 -4.2198e-20)
(15.0004 0.000289236 1.05528e-20)
(15.0004 0.000282061 2.74765e-22)
(15.0004 0.000275179 1.51769e-20)
(15.0004 0.000267644 -1.51894e-20)
(15.0004 0.000260344 3.0197e-20)
(15.0004 0.000253034 1.79994e-21)
(15.0004 0.0002454 -5.51189e-20)
(15.0004 0.000238092 -1.38106e-20)
(15.0004 0.000230246 -1.25859e-20)
(15.0004 0.000222406 -3.14043e-22)
(15.0004 0.000214603 3.4015e-22)
(15.0004 0.000206391 1.25056e-20)
(15.0004 0.000198213 4.21413e-25)
(15.0004 0.000189911 -7.39749e-20)
(15.0004 0.000181774 3.79396e-20)
(15.0004 0.00017346 -3.69762e-20)
(15.0004 0.000164767 3.42186e-20)
(15.0004 0.000156482 -3.35027e-20)
(15.0004 0.000147773 2.82658e-21)
(15.0004 0.000139411 3.07853e-20)
(15.0004 0.000130567 -2.78224e-21)
(15.0004 0.000121972 -1.98598e-20)
(15.0004 0.00011339 1.89138e-20)
(15.0004 0.000104846 7.09347e-21)
(15.0004 9.5832e-05 -9.50257e-21)
(15.0004 8.73247e-05 -3.69771e-20)
(15.0003 7.89793e-05 1.7099e-20)
(15.0003 7.04824e-05 -1.27037e-20)
(15.0003 6.24875e-05 6.79572e-21)
(15.0003 5.43738e-05 1.43194e-20)
(15.0003 4.69335e-05 -5.79869e-21)
(15.0003 3.99768e-05 1.83034e-21)
(15.0003 3.30557e-05 6.38759e-21)
(15.0002 2.6974e-05 -7.11258e-21)
(15.0002 2.14527e-05 4.21459e-21)
(15.0002 1.69013e-05 1.9026e-21)
(15.0002 1.2573e-05 2.6999e-21)
(15.0002 7.95285e-06 -1.29713e-21)
(15.0001 3.37496e-06 -8.55038e-22)
(15 1.25544e-06 4.27028e-22)
(15.0001 1.45165e-07 -5.03137e-23)
(14.9982 1.02721e-05 7.57882e-23)
(14.9993 2.51168e-05 -8.5645e-22)
(14.9996 1.44923e-05 -2.12962e-22)
(14.9994 2.4142e-05 -3.56003e-21)
(14.9993 4.42244e-05 5.06639e-21)
(14.9992 6.38117e-05 -3.78934e-21)
(14.9992 7.99189e-05 -8.16852e-21)
(14.9992 9.55176e-05 3.07119e-22)
(14.9991 0.000111717 2.79683e-21)
(14.9991 0.000129191 6.56109e-22)
(14.9991 0.000146908 -9.43831e-21)
(14.9991 0.000165097 5.05311e-21)
(14.999 0.000184139 1.52531e-20)
(14.999 0.000203482 -1.02826e-20)
(14.999 0.000223718 4.24773e-20)
(14.999 0.000244238 3.71627e-21)
(14.999 0.000265032 -2.80159e-20)
(14.999 0.000286596 -3.88468e-21)
(14.9989 0.000308065 1.85435e-20)
(14.9989 0.000329808 -8.07605e-23)
(14.9989 0.000351681 -9.92372e-21)
(14.9989 0.000374023 -3.47213e-20)
(14.9989 0.000395995 -2.46775e-20)
(14.9989 0.000418425 -7.65276e-23)
(14.9989 0.00044051 -1.14596e-20)
(14.9989 0.000463073 2.33712e-20)
(14.9989 0.000485535 9.79044e-22)
(14.9989 0.000507776 7.20627e-22)
(14.9989 0.000530039 -1.37723e-20)
(14.9989 0.000552301 -1.31006e-20)
(14.9989 0.000574524 1.31355e-20)
(14.9989 0.000596458 6.80392e-22)
(14.9989 0.000618468 -4.20816e-20)
(14.9989 0.000640406 1.11614e-19)
(14.9989 0.000661766 1.47923e-20)
(14.9989 0.000683368 2.75789e-20)
(14.9989 0.000704479 -3.00719e-20)
(14.9989 0.000725584 -5.33965e-22)
(14.9989 0.000747003 2.79112e-20)
(14.9989 0.000767513 6.95694e-20)
(14.9989 0.000788344 4.37451e-20)
(14.9989 0.000808641 -5.74503e-21)
(14.9989 0.000828573 2.67499e-20)
(14.9989 0.000848443 0)
(14.999 0.000868223 9.66262e-21)
(14.999 0.000887469 -1.70373e-20)
(14.999 0.00090701 5.97314e-20)
(14.999 0.000925843 -3.33077e-20)
(14.999 0.000944134 -6.00376e-20)
(14.999 0.000962696 1.72662e-20)
(14.999 0.000980808 2.49506e-20)
(14.999 0.000998681 1.24564e-20)
(14.9991 0.00101603 8.35152e-20)
(14.9991 0.00103367 4.19478e-20)
(14.9991 0.00105053 -1.95987e-22)
(14.9991 0.00106717 1.41061e-20)
(14.9991 0.00108363 -1.8317e-20)
(14.9991 0.00109975 -3.75505e-20)
(14.9991 0.00111532 6.1766e-20)
(14.9992 0.00113102 4.23525e-20)
(14.9992 0.00114615 1.58213e-21)
(14.9992 0.00116076 0)
(14.9992 0.00117547 1.98243e-20)
(14.9992 0.0011896 -1.93577e-20)
(14.9992 0.00120352 3.82921e-20)
(14.9993 0.00121708 1.10519e-22)
(14.9993 0.0012303 -1.41417e-22)
(14.9993 0.00124351 -3.70451e-20)
(14.9993 0.00125607 -3.98203e-20)
(14.9993 0.00126826 8.35053e-24)
(14.9994 0.00128008 3.99475e-20)
(14.9994 0.00129174 4.03677e-20)
(14.9994 0.00130293 -2.02016e-20)
(14.9994 0.00131367 8.75191e-21)
(14.9994 0.00132448 -2.03214e-20)
(14.9995 0.00133472 -3.40441e-20)
(14.9995 0.00134439 1.3047e-20)
(14.9995 0.00135427 2.05793e-20)
(14.9995 0.00136337 3.27212e-20)
(14.9995 0.00137217 -1.14533e-20)
(14.9996 0.0013804 3.17378e-20)
(14.9996 0.00138865 1.0462e-20)
(14.9996 0.00139647 -5.17994e-20)
(14.9996 0.00140404 -2.10707e-20)
(14.9996 0.00141091 2.10744e-20)
(14.9997 0.00141749 3.76717e-20)
(14.9997 0.001424 -4.83014e-24)
(14.9997 0.00143003 2.12666e-20)
(14.9997 0.00143559 5.24728e-23)
(14.9998 0.00144084 -2.74314e-20)
(14.9998 0.00144601 -2.68897e-20)
(14.9998 0.00145058 -4.78834e-20)
(14.9998 0.00145465 3.86749e-20)
(14.9998 0.00145838 4.32046e-20)
(14.9999 0.0014618 9.58513e-21)
(14.9999 0.00146512 7.90185e-21)
(14.9999 0.00146774 -2.38125e-20)
(14.9999 0.00147022 -2.1777e-20)
(15 0.00147198 -7.12851e-24)
(15 0.00147357 2.15307e-20)
(15 0.00147483 2.16138e-20)
(15 0.00147577 -6.58556e-24)
(15.0001 0.00147654 -2.18681e-20)
(15.0001 0.00147658 -4.37713e-20)
(15.0001 0.00147647 1.67437e-20)
(15.0001 0.00147566 1.86342e-20)
(15.0002 0.00147474 -2.55318e-20)
(15.0002 0.00147351 -4.05814e-23)
(15.0002 0.00147192 1.69519e-20)
(15.0002 0.00146983 4.35687e-20)
(15.0002 0.00146711 -4.96591e-20)
(15.0003 0.0014643 -2.16677e-20)
(15.0003 0.00146117 -4.09614e-23)
(15.0003 0.00145756 7.84751e-21)
(15.0003 0.00145343 4.91697e-21)
(15.0004 0.00144923 1.7894e-20)
(15.0004 0.00144471 -2.16923e-20)
(15.0004 0.00143946 1.01621e-20)
(15.0004 0.00143395 2.20405e-22)
(15.0005 0.00142797 -1.12466e-20)
(15.0005 0.001422 5.49397e-20)
(15.0005 0.00141542 -1.69626e-22)
(15.0005 0.00140851 -4.28004e-20)
(15.0005 0.00140077 -3.49766e-20)
(15.0006 0.00139324 7.63008e-23)
(15.0006 0.00138508 5.04966e-20)
(15.0006 0.00137632 -1.51935e-20)
(15.0006 0.0013676 2.13016e-20)
(15.0007 0.00135839 3.2495e-20)
(15.0007 0.00134866 -3.78823e-20)
(15.0007 0.00133874 -4.22468e-20)
(15.0007 0.0013284 6.03065e-20)
(15.0007 0.00131764 4.14243e-20)
(15.0008 0.00130617 -1.87348e-20)
(15.0008 0.00129465 -2.34176e-22)
(15.0008 0.00128274 -4.10653e-22)
(15.0008 0.00127042 -2.07808e-20)
(15.0008 0.00125784 -6.23805e-20)
(15.0009 0.0012446 1.17565e-21)
(15.0009 0.00123145 6.48342e-20)
(15.0009 0.00121769 4.29224e-20)
(15.0009 0.00120328 -2.77721e-21)
(15.0009 0.00118897 -1.85235e-22)
(15.001 0.00117403 4.13702e-21)
(15.001 0.00115867 0)
(15.001 0.00114308 5.10692e-21)
(15.001 0.0011272 2.01241e-20)
(15.001 0.00111042 1.93765e-20)
(15.0011 0.00109391 -3.91857e-20)
(15.0011 0.00107678 -7.12208e-21)
(15.0011 0.00105934 1.90023e-20)
(15.0011 0.00104134 8.65102e-21)
(15.0011 0.00102359 3.69988e-20)
(15.0011 0.00100518 -2.82382e-20)
(15.0011 0.000985926 3.76448e-20)
(15.0012 0.000966935 -2.94131e-20)
(15.0012 0.000947288 4.85792e-20)
(15.0012 0.000927471 -4.89511e-20)
(15.0012 0.000907516 1.26694e-20)
(15.0012 0.000887082 2.98446e-20)
(15.0012 0.000865972 4.39809e-20)
(15.0012 0.000845145 1.74789e-20)
(15.0012 0.000823211 1.34919e-20)
(15.0013 0.000801548 1.77732e-20)
(15.0013 0.000779794 1.64335e-20)
(15.0013 0.000757389 -4.82493e-20)
(15.0013 0.000735169 -4.83804e-20)
(15.0013 0.00071219 1.67915e-20)
(15.0013 0.000689025 -1.61948e-20)
(15.0013 0.000665845 3.98636e-22)
(15.0013 0.000642221 -1.62794e-20)
(15.0013 0.000618439 -9.3711e-20)
(15.0013 0.000594539 6.95492e-22)
(15.0013 0.000570541 4.65674e-20)
(15.0013 0.000546156 3.17996e-20)
(15.0013 0.000521517 2.67831e-20)
(15.0013 0.000497307 -7.30793e-20)
(15.0013 0.000472539 2.94548e-20)
(15.0013 0.000448174 1.60473e-20)
(15.0013 0.000423202 2.84938e-20)
(15.0013 0.000398635 2.30848e-20)
(15.0013 0.000374051 -1.54692e-20)
(15.0013 0.00034962 -1.07643e-20)
(15.0013 0.000324889 -3.3973e-20)
(15.0013 0.000300903 -2.71127e-20)
(15.0012 0.000277059 -9.76294e-21)
(15.0012 0.000253354 -2.69432e-20)
(15.0012 0.000230531 6.58215e-21)
(15.0012 0.000207877 -6.22528e-21)
(15.0012 0.000186067 5.93407e-21)
(15.0011 0.000164602 -3.89043e-22)
(15.0011 0.000143212 -8.3926e-21)
(15.0011 0.00012322 6.05263e-21)
(15.0011 0.000103794 1.78752e-20)
(15.001 8.33798e-05 -1.54062e-21)
(15.001 5.795e-05 -2.66075e-22)
(15.0007 3.14188e-05 -4.62539e-21)
(15.0006 1.91937e-05 2.40526e-21)
(15.001 3.3933e-05 -3.91988e-22)
(15.0024 1.43786e-05 -3.51325e-22)
(14.9968 5.78581e-06 1.44302e-22)
(14.9984 4.80869e-05 1.35389e-22)
(14.9991 4.2386e-05 6.75019e-22)
(14.999 4.13152e-05 -2.06562e-21)
(14.9988 6.38458e-05 -2.10201e-21)
(14.9986 9.86935e-05 8.9423e-21)
(14.9986 0.000131433 -2.31698e-21)
(14.9985 0.000160844 0)
(14.9985 0.000189733 -1.76798e-20)
(14.9984 0.000220151 2.74445e-20)
(14.9984 0.000251288 -2.42298e-20)
(14.9983 0.000282934 5.34904e-21)
(14.9983 0.000315199 5.59607e-21)
(14.9983 0.000348073 -2.22287e-20)
(14.9983 0.000382078 1.68493e-20)
(14.9982 0.000416539 8.13593e-21)
(14.9982 0.000451323 -4.01239e-20)
(14.9982 0.000486978 -4.14203e-20)
(14.9982 0.000522697 1.25313e-20)
(14.9982 0.000558862 1.32649e-20)
(14.9981 0.000595358 4.65048e-20)
(14.9981 0.000632187 1.07142e-20)
(14.9981 0.000669018 1.3981e-20)
(14.9981 0.000706185 -2.55941e-20)
(14.9981 0.000743004 1.18961e-20)
(14.9981 0.000780263 -5.24227e-20)
(14.9981 0.000817564 5.32219e-20)
(14.9981 0.000854513 1.25294e-20)
(14.9981 0.000891429 1.3205e-20)
(14.9981 0.000928476 -1.32685e-20)
(14.9981 0.000965262 -2.79467e-20)
(14.9981 0.00100197 4.18272e-20)
(14.9981 0.00103864 -7.01289e-20)
(14.9981 0.00107515 -4.31341e-20)
(14.9981 0.00111103 5.77154e-20)
(14.9981 0.00114713 5.57089e-20)
(14.9981 0.00118252 2.78363e-20)
(14.9981 0.00121777 -1.53934e-20)
(14.9981 0.00125323 1.19149e-20)
(14.9982 0.00128778 -5.50349e-20)
(14.9982 0.00132229 7.08986e-20)
(14.9982 0.00135645 1.6454e-20)
(14.9982 0.00139002 2.70074e-20)
(14.9982 0.00142359 2.68231e-20)
(14.9982 0.00145673 0)
(14.9982 0.00148909 -1.6988e-20)
(14.9983 0.00152154 7.90612e-21)
(14.9983 0.00155327 4.37551e-20)
(14.9983 0.0015844 -3.54139e-20)
(14.9983 0.0016154 -2.52478e-20)
(14.9983 0.00164598 3.20163e-20)
(14.9984 0.00167619 -4.27034e-20)
(14.9984 0.00170539 -3.03482e-20)
(14.9984 0.00173479 6.61336e-20)
(14.9984 0.00176336 1.83821e-20)
(14.9985 0.00179162 2.33142e-20)
(14.9985 0.00181919 4.93191e-20)
(14.9985 0.00184637 3.52458e-21)
(14.9985 0.00187295 -3.79806e-20)
(14.9986 0.00189923 4.04136e-20)
(14.9986 0.00192484 5.972e-20)
(14.9986 0.00194968 2.06077e-20)
(14.9987 0.00197438 1.93707e-20)
(14.9987 0.00199847 1.38095e-22)
(14.9987 0.00202191 -5.83029e-20)
(14.9988 0.00204479 3.76201e-20)
(14.9988 0.00206724 1.98024e-20)
(14.9988 0.00208921 1.79755e-20)
(14.9988 0.0021105 -3.75455e-20)
(14.9989 0.00213116 -2.38752e-23)
(14.9989 0.00215129 3.81955e-21)
(14.9989 0.00217109 -2.01675e-20)
(14.999 0.00219022 -2.56241e-20)
(14.999 0.00220847 3.53626e-20)
(14.999 0.00222638 3.50209e-20)
(14.9991 0.00224389 -1.38454e-20)
(14.9991 0.00226062 -1.33234e-20)
(14.9991 0.00227687 -4.6372e-20)
(14.9992 0.00229239 8.56605e-21)
(14.9992 0.00230742 -1.15216e-20)
(14.9993 0.00232152 -4.22236e-20)
(14.9993 0.00233542 5.28766e-20)
(14.9993 0.0023487 1.14675e-21)
(14.9994 0.00236145 -4.26041e-20)
(14.9994 0.00237315 -7.09813e-23)
(14.9994 0.00238447 5.21135e-23)
(14.9995 0.00239534 -2.93846e-20)
(14.9995 0.00240567 2.15168e-20)
(14.9996 0.00241521 3.64646e-20)
(14.9996 0.00242417 6.22701e-21)
(14.9996 0.00243265 5.57046e-21)
(14.9997 0.00244031 2.90153e-23)
(14.9997 0.00244739 -2.63027e-20)
(14.9997 0.00245384 -3.98609e-20)
(14.9998 0.00245976 -2.19654e-20)
(14.9998 0.00246529 6.58907e-20)
(14.9999 0.00246978 1.98988e-20)
(14.9999 0.00247377 -2.20444e-20)
(14.9999 0.00247693 2.11367e-20)
(15 0.0024798 3.62682e-22)
(15 0.00248195 -2.23835e-20)
(15.0001 0.00248338 8.37894e-22)
(15.0001 0.00248452 0)
(15.0001 0.00248483 2.01468e-21)
(15.0002 0.00248463 -1.9528e-20)
(15.0002 0.00248337 -3.18612e-21)
(15.0003 0.0024817 2.59202e-20)
(15.0003 0.00247951 -3.0905e-20)
(15.0003 0.00247665 -2.20681e-20)
(15.0004 0.0024732 1.4254e-24)
(15.0004 0.00246891 -1.87805e-23)
(15.0005 0.00246411 4.41228e-20)
(15.0005 0.00245871 2.193e-20)
(15.0005 0.00245247 -2.19586e-20)
(15.0006 0.00244567 2.19907e-20)
(15.0006 0.0024384 3.10156e-20)
(15.0006 0.00243071 -4.39131e-20)
(15.0007 0.0024219 -3.3425e-20)
(15.0007 0.00241254 1.10212e-20)
(15.0008 0.00240251 5.50582e-20)
(15.0008 0.00239225 1.19303e-20)
(15.0008 0.00238099 -3.4313e-20)
(15.0009 0.0023692 0)
(15.0009 0.00235662 2.17318e-20)
(15.001 0.0023435 3.59233e-20)
(15.001 0.00232953 -2.16123e-20)
(15.001 0.00231511 -2.14708e-20)
(15.0011 0.0023003 2.15386e-20)
(15.0011 0.00228452 -3.33234e-20)
(15.0011 0.002268 -2.13117e-20)
(15.0012 0.00225108 2.13739e-20)
(15.0012 0.00223356 3.95062e-20)
(15.0013 0.00221533 -5.89001e-20)
(15.0013 0.00219633 -1.68583e-21)
(15.0013 0.00217677 -1.87058e-20)
(15.0014 0.0021567 2.02941e-20)
(15.0014 0.00213597 -4.18211e-20)
(15.0014 0.0021145 2.0923e-20)
(15.0015 0.00209232 4.27357e-20)
(15.0015 0.00206992 2.25837e-20)
(15.0015 0.00204664 -1.83206e-20)
(15.0016 0.00202257 -2.02288e-20)
(15.0016 0.0019981 6.48367e-20)
(15.0016 0.00197293 -1.96612e-22)
(15.0017 0.00194725 -2.01203e-20)
(15.0017 0.00192074 0)
(15.0017 0.00189382 5.18921e-20)
(15.0018 0.00186592 -5.28384e-20)
(15.0018 0.00183816 0)
(15.0018 0.00180919 2.72962e-20)
(15.0018 0.00177973 -2.7728e-20)
(15.0019 0.00174972 1.95532e-20)
(15.0019 0.00171947 8.86788e-21)
(15.0019 0.00168846 3.89793e-20)
(15.0019 0.00165655 -2.68779e-22)
(15.002 0.00162463 -5.89118e-20)
(15.002 0.00159173 1.85539e-20)
(15.002 0.00155824 -7.20461e-20)
(15.002 0.00152463 4.87528e-20)
(15.0021 0.00149023 -3.07537e-20)
(15.0021 0.00145532 -1.80453e-20)
(15.0021 0.00142023 -3.09221e-20)
(15.0021 0.00138397 1.33849e-20)
(15.0021 0.00134781 4.98688e-20)
(15.0022 0.00131135 -1.54431e-20)
(15.0022 0.00127392 -8.24367e-20)
(15.0022 0.00123661 -6.35699e-20)
(15.0022 0.00119839 4.83016e-20)
(15.0022 0.00115982 -6.40436e-20)
(15.0022 0.00112104 0)
(15.0022 0.00108198 -4.76861e-20)
(15.0022 0.00104243 -1.58367e-20)
(15.0022 0.00100284 6.11326e-20)
(15.0022 0.000963003 -3.12448e-20)
(15.0022 0.000922543 4.75213e-20)
(15.0023 0.00088191 -5.84197e-20)
(15.0023 0.000841565 3.04786e-20)
(15.0023 0.000800573 4.23671e-20)
(15.0022 0.000759728 4.18338e-20)
(15.0022 0.000718627 4.03088e-20)
(15.0022 0.00067765 3.65017e-21)
(15.0022 0.000636791 7.46448e-22)
(15.0022 0.000596179 -1.57385e-20)
(15.0022 0.000555341 1.46588e-20)
(15.0022 0.000515232 0)
(15.0022 0.000475194 -3.09702e-20)
(15.0021 0.000435367 4.12485e-20)
(15.0021 0.000396573 -1.92985e-20)
(15.0021 0.000358162 -9.79174e-21)
(15.0021 0.000320143 5.17241e-21)
(15.002 0.000282303 -3.694e-20)
(15.002 0.000244986 4.87303e-21)
(15.0019 0.000209193 1.25727e-20)
(15.0019 0.000172204 2.06656e-21)
(15.0018 0.00013014 2.66463e-22)
(15.0016 8.45304e-05 -2.83376e-21)
(15.0013 5.50546e-05 1.13964e-21)
(15.0012 5.78247e-05 -1.56845e-22)
(15.0022 6.59084e-05 -1.68618e-21)
(15.0044 8.28225e-06 1.26914e-22)
(14.9957 9.28928e-06 -1.26842e-22)
(14.9974 5.46447e-05 6.5675e-22)
(14.9984 7.4654e-05 0)
(14.9986 6.88653e-05 0)
(14.9983 8.16571e-05 -1.07074e-21)
(14.9981 0.000122887 -1.7289e-21)
(14.9979 0.000172043 -3.81873e-21)
(14.9979 0.000217029 -1.87994e-21)
(14.9978 0.000259254 -6.02998e-21)
(14.9977 0.000302563 9.47404e-21)
(14.9977 0.000346953 -6.58661e-21)
(14.9976 0.000392137 -5.72145e-21)
(14.9976 0.000437969 -8.8589e-21)
(14.9975 0.00048473 5.35841e-23)
(14.9975 0.000532604 -3.5117e-20)
(14.9975 0.000581084 2.61861e-20)
(14.9974 0.0006301 8.2798e-21)
(14.9974 0.000680034 1.24067e-20)
(14.9974 0.000730347 -3.11876e-20)
(14.9974 0.00078113 1.32587e-20)
(14.9973 0.000832144 -4.73022e-20)
(14.9973 0.000883732 3.99104e-22)
(14.9973 0.000935469 1.04525e-20)
(14.9973 0.000987675 -1.35173e-20)
(14.9973 0.00103944 2.54636e-20)
(14.9973 0.00109163 3.63818e-22)
(14.9973 0.00114385 -5.16208e-20)
(14.9973 0.00119585 -2.73186e-20)
(14.9973 0.00124765 1.33666e-20)
(14.9973 0.00129977 5.12316e-23)
(14.9973 0.00135159 0)
(14.9973 0.00140316 2.79022e-20)
(14.9973 0.0014546 4.21297e-20)
(14.9973 0.00150589 -2.79004e-20)
(14.9973 0.00155662 -2.96988e-20)
(14.9973 0.00160731 -2.83526e-20)
(14.9973 0.00165741 -2.77634e-20)
(14.9974 0.00170728 -2.83083e-20)
(14.9974 0.00175705 3.63935e-21)
(14.9974 0.00180583 -5.54597e-20)
(14.9974 0.00185452 -4.4137e-20)
(14.9974 0.00190263 1.12439e-20)
(14.9975 0.00195012 1.06199e-20)
(14.9975 0.00199757 1.67441e-20)
(14.9975 0.00204446 2.72075e-20)
(14.9975 0.00209029 -2.29593e-22)
(14.9975 0.00213607 1.74836e-20)
(14.9976 0.00218097 5.24536e-20)
(14.9976 0.00222532 2.5897e-20)
(14.9976 0.00226914 -1.77911e-20)
(14.9977 0.00231243 2.50654e-20)
(14.9977 0.00235504 -1.35161e-20)
(14.9977 0.00239687 -1.81071e-20)
(14.9978 0.00243838 -1.88131e-20)
(14.9978 0.0024789 1.87658e-20)
(14.9978 0.00251898 2.83296e-20)
(14.9979 0.00255799 -1.89893e-20)
(14.9979 0.00259663 4.16774e-20)
(14.9979 0.00263452 -3.03866e-21)
(14.998 0.00267174 -6.29836e-20)
(14.998 0.00270815 -1.94963e-20)
(14.9981 0.00274369 1.95046e-20)
(14.9981 0.00277871 1.97718e-20)
(14.9981 0.00281285 5.95065e-20)
(14.9982 0.00284624 -1.95654e-20)
(14.9982 0.00287896 -4.03151e-20)
(14.9983 0.00291077 1.48517e-21)
(14.9983 0.00294187 1.82338e-20)
(14.9984 0.00297229 -2.02494e-20)
(14.9984 0.00300189 1.71267e-20)
(14.9985 0.00303065 4.10453e-20)
(14.9985 0.00305858 3.2583e-20)
(14.9985 0.00308584 -5.71122e-20)
(14.9986 0.003112 -3.6045e-20)
(14.9986 0.0031374 2.08383e-20)
(14.9987 0.00316233 6.87318e-21)
(14.9987 0.00318629 2.09872e-20)
(14.9988 0.00320927 8.07922e-21)
(14.9988 0.00323134 -2.50976e-20)
(14.9989 0.00325281 2.75747e-21)
(14.9989 0.0032732 -4.43173e-20)
(14.999 0.00329294 3.18629e-20)
(14.999 0.00331178 -1.09503e-20)
(14.9991 0.00332989 -6.47445e-20)
(14.9992 0.00334677 1.2392e-20)
(14.9992 0.00336302 4.34041e-20)
(14.9993 0.00337843 4.28353e-23)
(14.9993 0.00339306 1.42275e-20)
(14.9994 0.00340676 -2.17602e-20)
(14.9994 0.0034196 -5.95164e-20)
(14.9995 0.00343146 5.76687e-21)
(14.9995 0.00344254 4.54181e-24)
(14.9996 0.00345288 2.20975e-20)
(14.9996 0.00346216 2.21732e-20)
(14.9997 0.00347055 1.19899e-20)
(14.9997 0.00347821 1.6657e-20)
(14.9998 0.00348464 -2.00882e-20)
(14.9999 0.00349034 -2.23594e-20)
(14.9999 0.00349497 -2.23835e-20)
(15 0.00349916 -2.20326e-20)
(15 0.00350223 6.71081e-20)
(15.0001 0.00350418 2.24285e-20)
(15.0001 0.00350569 -2.38497e-20)
(15.0002 0.00350612 -2.24418e-20)
(15.0002 0.00350581 -2.50267e-20)
(15.0003 0.00350425 2.56582e-20)
(15.0004 0.00350193 -5.25588e-20)
(15.0004 0.00349872 -2.23599e-20)
(15.0005 0.00349441 7.22054e-20)
(15.0005 0.00348934 4.46781e-20)
(15.0006 0.00348345 -3.84283e-20)
(15.0006 0.00347655 -8.46725e-21)
(15.0007 0.00346874 -6.39017e-23)
(15.0008 0.00345996 5.23465e-23)
(15.0008 0.00345036 4.45196e-20)
(15.0009 0.00343986 -9.35175e-21)
(15.0009 0.00342869 -3.2044e-20)
(15.001 0.00341622 -1.17056e-20)
(15.001 0.00340297 3.33628e-20)
(15.0011 0.00338874 4.41498e-20)
(15.0011 0.00337381 0)
(15.0012 0.00335772 -2.20511e-20)
(15.0012 0.00334096 -8.48409e-21)
(15.0013 0.0033232 0)
(15.0014 0.00330439 -1.46266e-20)
(15.0014 0.0032845 -1.52105e-20)
(15.0015 0.00326406 -1.57734e-20)
(15.0015 0.00324278 -2.17998e-20)
(15.0016 0.00322029 -1.68042e-20)
(15.0016 0.00319704 2.15728e-20)
(15.0017 0.00317284 -2.16609e-20)
(15.0017 0.00314769 1.00933e-22)
(15.0018 0.0031216 2.36856e-20)
(15.0018 0.00309474 1.95932e-20)
(15.0019 0.00306703 1.65932e-22)
(15.0019 0.00303829 -4.17738e-20)
(15.002 0.00300875 -2.10594e-20)
(15.002 0.00297832 0)
(15.0021 0.00294687 -2.49363e-23)
(15.0021 0.00291478 -1.95074e-21)
(15.0022 0.00288165 -4.70941e-20)
(15.0022 0.00284757 6.89457e-20)
(15.0023 0.00281266 2.40637e-20)
(15.0023 0.00277683 -9.07961e-20)
(15.0023 0.0027405 0)
(15.0024 0.0027029 2.04581e-20)
(15.0024 0.00266471 5.81508e-21)
(15.0025 0.00262532 7.01355e-21)
(15.0025 0.00258545 1.98486e-20)
(15.0026 0.00254462 -2.76901e-20)
(15.0026 0.00250289 0)
(15.0026 0.00246046 1.97339e-20)
(15.0027 0.00241731 -9.57398e-21)
(15.0027 0.00237341 9.89768e-21)
(15.0027 0.00232837 -6.7995e-20)
(15.0028 0.00228313 3.02711e-20)
(15.0028 0.00223656 -2.99278e-22)
(15.0029 0.00218919 -3.0338e-20)
(15.0029 0.00214161 1.83039e-20)
(15.0029 0.00209316 -1.85327e-20)
(15.0029 0.00204388 -1.80525e-20)
(15.003 0.00199431 6.78342e-20)
(15.003 0.00194343 1.72209e-20)
(15.003 0.00189223 1.46743e-20)
(15.003 0.00184056 -4.96687e-20)
(15.0031 0.001788 -6.63396e-20)
(15.0031 0.00173516 4.95012e-20)
(15.0031 0.00168146 -1.63301e-20)
(15.0031 0.00162735 3.33624e-22)
(15.0031 0.00157283 1.57937e-20)
(15.0032 0.00151777 0)
(15.0032 0.00146208 6.39571e-20)
(15.0032 0.0014065 -3.17707e-20)
(15.0032 0.00135039 -3.1499e-20)
(15.0032 0.00129372 -6.22571e-20)
(15.0032 0.00123677 -1.65021e-20)
(15.0032 0.00118 4.37242e-20)
(15.0032 0.00112236 -2.96067e-20)
(15.0032 0.00106493 -1.2823e-20)
(15.0032 0.0010073 -2.79312e-20)
(15.0032 0.000949978 -4.36809e-20)
(15.0032 0.000892536 4.19717e-20)
(15.0032 0.000835237 4.22318e-22)
(15.0031 0.000777961 -4.39774e-22)
(15.0031 0.000721338 2.37554e-20)
(15.0031 0.000664909 3.04843e-20)
(15.0031 0.000608704 1.22245e-20)
(15.003 0.000553356 4.08816e-21)
(15.003 0.000498616 -1.66214e-20)
(15.003 0.000444092 -1.59103e-20)
(15.0029 0.000389948 3.96533e-22)
(15.0028 0.000336575 1.57559e-20)
(15.0028 0.000283887 -1.93816e-20)
(15.0027 0.000226689 7.81252e-21)
(15.0026 0.000162941 2.95625e-23)
(15.0022 0.000109028 0)
(15.0019 9.31036e-05 -1.18325e-21)
(15.0022 0.000102506 -1.48137e-21)
(15.0036 7.52439e-05 2.61964e-22)
(15.0059 1.32045e-05 1.87475e-22)
(14.9949 9.3178e-06 -2.06351e-22)
(14.9964 5.73337e-05 -9.81132e-22)
(14.9976 0.000102446 0)
(14.998 0.000106044 2.14473e-21)
(14.9978 0.000106896 1.10334e-21)
(14.9975 0.000143101 -2.84748e-21)
(14.9973 0.00020314 -6.0465e-21)
(14.9972 0.000264414 -2.64419e-21)
(14.9971 0.000321131 2.25636e-21)
(14.997 0.000377574 -1.09019e-20)
(14.997 0.000435109 1.68774e-20)
(14.9969 0.000493627 -8.54203e-21)
(14.9969 0.000552948 2.09287e-20)
(14.9968 0.000613432 -6.08781e-23)
(14.9968 0.000675013 1.07154e-20)
(14.9967 0.000737596 -7.81301e-21)
(14.9967 0.000800837 3.99105e-20)
(14.9966 0.000864869 2.94568e-20)
(14.9966 0.000929579 -8.62331e-21)
(14.9966 0.000995155 -7.42189e-22)
(14.9966 0.00106102 -1.29299e-20)
(14.9965 0.00112729 -1.07742e-20)
(14.9965 0.00119404 -2.49582e-20)
(14.9965 0.00126118 -1.11404e-20)
(14.9965 0.001328 -2.63117e-20)
(14.9965 0.00139519 5.07481e-20)
(14.9965 0.0014626 -1.42121e-20)
(14.9965 0.00152984 -2.72818e-20)
(14.9965 0.00159677 -2.75137e-20)
(14.9965 0.00166424 -4.11021e-20)
(14.9965 0.00173116 -1.39903e-20)
(14.9965 0.00179789 0)
(14.9965 0.00186444 -4.24395e-20)
(14.9965 0.00193075 -2.85147e-20)
(14.9965 0.0019966 1.51787e-21)
(14.9965 0.0020623 -1.31258e-20)
(14.9966 0.0021273 -2.84136e-20)
(14.9966 0.00219201 -4.38564e-20)
(14.9966 0.00225631 -2.85183e-20)
(14.9966 0.00231974 5.65204e-20)
(14.9966 0.00238292 -4.6869e-21)
(14.9967 0.00244564 -4.45458e-20)
(14.9967 0.00250742 -1.10735e-20)
(14.9967 0.00256894 2.50385e-22)
(14.9968 0.00262992 -2.24136e-22)
(14.9968 0.00268955 -2.68463e-20)
(14.9968 0.00274891 2.65767e-20)
(14.9969 0.00280759 -2.63112e-20)
(14.9969 0.00286525 2.60735e-20)
(14.9969 0.00292237 2.48756e-22)
(14.997 0.00297883 1.78801e-20)
(14.997 0.00303421 2.57824e-20)
(14.997 0.00308891 6.1656e-21)
(14.9971 0.00314294 -5.884e-21)
(14.9971 0.00319582 5.56654e-21)
(14.9972 0.00324805 2.37198e-20)
(14.9972 0.00329916 -2.33367e-20)
(14.9973 0.00334949 -2.33124e-20)
(14.9973 0.00339893 4.21551e-20)
(14.9974 0.00344747 0)
(14.9974 0.00349507 -2.18623e-20)
(14.9975 0.00354179 -4.28282e-20)
(14.9975 0.00358748 2.09539e-20)
(14.9976 0.00363199 -2.04986e-20)
(14.9976 0.00367576 4.0109e-20)
(14.9977 0.00371863 2.01413e-20)
(14.9978 0.00376023 1.92258e-20)
(14.9978 0.00380085 -1.92831e-21)
(14.9979 0.00384058 -2.04662e-20)
(14.9979 0.00387947 -3.53162e-20)
(14.998 0.00391719 1.72256e-20)
(14.998 0.00395351 1.64712e-20)
(14.9981 0.00398908 4.94375e-21)
(14.9982 0.00402361 -1.55438e-20)
(14.9982 0.00405699 -8.95399e-21)
(14.9983 0.00408942 -1.43772e-20)
(14.9984 0.00412073 -1.40416e-20)
(14.9984 0.0041509 3.47917e-20)
(14.9985 0.00417991 -4.28291e-20)
(14.9986 0.00420805 -1.6307e-22)
(14.9986 0.00423498 2.17553e-20)
(14.9987 0.00426066 -2.17226e-20)
(14.9988 0.00428527 2.11813e-20)
(14.9988 0.0043091 -2.0046e-20)