/*--------------------------------*- C++ -*----------------------------------*\
  =========                 |
  \\      /  F ield         | OpenFOAM: The Open Source CFD Toolbox
   \\    /   O peration     | Website:  https://openfoam.org
    \\  /    A nd           | Version:  8
     \\/     M anipulation  |
\*---------------------------------------------------------------------------*/
FoamFile
{
    version     2.0;
    format      ascii;
    class       volScalarField;
    location    "7.1";
    object      p;
}
// * * * * * * * * * * * * * * * * * * * * * * * * * * * * * * * * * * * * * //

dimensions      [0 2 -2 0 0 0 0];

internalField   nonuniform List<scalar> 
262620
(
-1.35572
-1.35593
-1.35661
-1.35763
-1.35896
-1.3606
-1.36254
-1.36475
-1.36721
-1.36991
-1.37283
-1.37596
-1.37928
-1.38278
-1.38644
-1.39025
-1.3942
-1.39827
-1.40246
-1.40675
-1.41112
-1.41559
-1.42012
-1.42471
-1.42936
-1.43406
-1.43879
-1.44356
-1.44835
-1.45316
-1.45798
-1.4628
-1.46763
-1.47245
-1.47727
-1.48207
-1.48685
-1.49161
-1.49635
-1.50106
-1.50574
-1.51038
-1.51499
-1.51956
-1.52409
-1.52858
-1.53302
-1.53742
-1.54177
-1.54607
-1.55032
-1.55452
-1.55866
-1.56276
-1.5668
-1.57079
-1.57472
-1.5786
-1.58243
-1.5862
-1.58991
-1.59357
-1.59718
-1.60073
-1.60422
-1.60766
-1.61105
-1.61438
-1.61765
-1.62088
-1.62405
-1.62717
-1.63023
-1.63325
-1.63621
-1.63912
-1.64199
-1.6448
-1.64756
-1.65028
-1.65295
-1.65557
-1.65814
-1.66067
-1.66315
-1.66559
-1.66799
-1.67034
-1.67265
-1.67491
-1.67714
-1.67932
-1.68147
-1.68357
-1.68564
-1.68767
-1.68966
-1.69161
-1.69353
-1.69541
-1.69726
-1.69907
-1.70085
-1.70259
-1.70431
-1.70599
-1.70764
-1.70925
-1.71084
-1.7124
-1.71393
-1.71543
-1.7169
-1.71835
-1.71976
-1.72116
-1.72252
-1.72386
-1.72517
-1.72646
-1.35558
-1.3558
-1.35647
-1.35749
-1.35882
-1.36046
-1.3624
-1.36461
-1.36707
-1.36977
-1.37269
-1.37582
-1.37914
-1.38264
-1.3863
-1.39011
-1.39406
-1.39813
-1.40232
-1.4066
-1.41098
-1.41545
-1.41998
-1.42458
-1.42923
-1.43393
-1.43866
-1.44343
-1.44822
-1.45303
-1.45785
-1.46268
-1.46751
-1.47234
-1.47715
-1.48195
-1.48674
-1.4915
-1.49624
-1.50096
-1.50564
-1.51029
-1.5149
-1.51947
-1.524
-1.52849
-1.53294
-1.53734
-1.54169
-1.54599
-1.55025
-1.55445
-1.5586
-1.5627
-1.56674
-1.57073
-1.57467
-1.57855
-1.58238
-1.58615
-1.58987
-1.59353
-1.59714
-1.60069
-1.60419
-1.60763
-1.61102
-1.61436
-1.61764
-1.62086
-1.62404
-1.62716
-1.63023
-1.63325
-1.63621
-1.63913
-1.64199
-1.64481
-1.64757
-1.65029
-1.65296
-1.65559
-1.65816
-1.66069
-1.66318
-1.66562
-1.66802
-1.67037
-1.67268
-1.67495
-1.67718
-1.67937
-1.68151
-1.68362
-1.68569
-1.68772
-1.68971
-1.69167
-1.69359
-1.69547
-1.69732
-1.69914
-1.70092
-1.70266
-1.70438
-1.70606
-1.70771
-1.70933
-1.71092
-1.71248
-1.71402
-1.71552
-1.71699
-1.71844
-1.71986
-1.72125
-1.72261
-1.72395
-1.72527
-1.72656
-1.35535
-1.35556
-1.35623
-1.35725
-1.35858
-1.36022
-1.36215
-1.36435
-1.36682
-1.36951
-1.37244
-1.37557
-1.37889
-1.38238
-1.38605
-1.38986
-1.39381
-1.39788
-1.40207
-1.40636
-1.41074
-1.4152
-1.41974
-1.42434
-1.42899
-1.4337
-1.43843
-1.44321
-1.448
-1.45281
-1.45764
-1.46247
-1.46731
-1.47213
-1.47696
-1.48176
-1.48655
-1.49132
-1.49607
-1.50078
-1.50547
-1.51012
-1.51474
-1.51932
-1.52385
-1.52835
-1.5328
-1.5372
-1.54156
-1.54587
-1.55013
-1.55434
-1.55849
-1.5626
-1.56665
-1.57064
-1.57458
-1.57847
-1.58231
-1.58608
-1.58981
-1.59347
-1.59709
-1.60064
-1.60415
-1.60759
-1.61099
-1.61433
-1.61761
-1.62084
-1.62402
-1.62715
-1.63022
-1.63324
-1.63621
-1.63913
-1.642
-1.64482
-1.64759
-1.65031
-1.65299
-1.65562
-1.6582
-1.66073
-1.66322
-1.66567
-1.66807
-1.67042
-1.67274
-1.67501
-1.67724
-1.67943
-1.68158
-1.68369
-1.68577
-1.6878
-1.68979
-1.69175
-1.69368
-1.69556
-1.69742
-1.69923
-1.70102
-1.70277
-1.70449
-1.70617
-1.70782
-1.70945
-1.71104
-1.7126
-1.71414
-1.71564
-1.71712
-1.71857
-1.71999
-1.72138
-1.72275
-1.7241
-1.72541
-1.72671
-1.355
-1.35521
-1.35587
-1.35688
-1.35821
-1.35985
-1.36178
-1.36398
-1.36644
-1.36914
-1.37206
-1.37519
-1.37851
-1.382
-1.38567
-1.38948
-1.39343
-1.39751
-1.4017
-1.40599
-1.41037
-1.41484
-1.41938
-1.42398
-1.42864
-1.43335
-1.43809
-1.44287
-1.44767
-1.45249
-1.45732
-1.46216
-1.467
-1.47183
-1.47666
-1.48147
-1.48627
-1.49105
-1.4958
-1.50052
-1.50521
-1.50987
-1.5145
-1.51908
-1.52363
-1.52813
-1.53259
-1.537
-1.54137
-1.54568
-1.54995
-1.55416
-1.55833
-1.56244
-1.5665
-1.5705
-1.57445
-1.57835
-1.58219
-1.58597
-1.5897
-1.59338
-1.597
-1.60056
-1.60407
-1.60753
-1.61093
-1.61428
-1.61757
-1.62081
-1.62399
-1.62712
-1.63021
-1.63323
-1.63621
-1.63914
-1.64201
-1.64484
-1.64762
-1.65035
-1.65303
-1.65566
-1.65825
-1.66079
-1.66329
-1.66574
-1.66814
-1.67051
-1.67283
-1.67511
-1.67734
-1.67954
-1.6817
-1.68381
-1.68589
-1.68793
-1.68993
-1.6919
-1.69382
-1.69572
-1.69757
-1.6994
-1.70118
-1.70294
-1.70466
-1.70635
-1.70801
-1.70964
-1.71124
-1.7128
-1.71434
-1.71585
-1.71733
-1.71878
-1.72021
-1.72161
-1.72298
-1.72433
-1.72565
-1.72694
-1.35454
-1.35474
-1.3554
-1.3564
-1.35773
-1.35936
-1.36128
-1.36348
-1.36594
-1.36864
-1.37156
-1.37468
-1.378
-1.3815
-1.38517
-1.38898
-1.39293
-1.39701
-1.4012
-1.4055
-1.40989
-1.41436
-1.41891
-1.42352
-1.42818
-1.43289
-1.43764
-1.44242
-1.44723
-1.45206
-1.4569
-1.46174
-1.46659
-1.47143
-1.47627
-1.48109
-1.4859
-1.49068
-1.49544
-1.50018
-1.50488
-1.50955
-1.51418
-1.51878
-1.52333
-1.52784
-1.53231
-1.53673
-1.54111
-1.54544
-1.54971
-1.55394
-1.55811
-1.56223
-1.5663
-1.57032
-1.57428
-1.57818
-1.58203
-1.58583
-1.58957
-1.59325
-1.59688
-1.60046
-1.60398
-1.60744
-1.61085
-1.61421
-1.61751
-1.62076
-1.62396
-1.6271
-1.63019
-1.63322
-1.63621
-1.63915
-1.64203
-1.64487
-1.64765
-1.65039
-1.65308
-1.65572
-1.65832
-1.66087
-1.66337
-1.66583
-1.66825
-1.67062
-1.67294
-1.67523
-1.67747
-1.67968
-1.68184
-1.68396
-1.68605
-1.6881
-1.6901
-1.69207
-1.69401
-1.69591
-1.69777
-1.6996
-1.7014
-1.70316
-1.70489
-1.70658
-1.70825
-1.70988
-1.71148
-1.71306
-1.7146
-1.71611
-1.7176
-1.71906
-1.72049
-1.72189
-1.72327
-1.72462
-1.72595
-1.72725
-1.35397
-1.35416
-1.35481
-1.35581
-1.35713
-1.35875
-1.36068
-1.36287
-1.36532
-1.36802
-1.37094
-1.37406
-1.37738
-1.38088
-1.38455
-1.38836
-1.39232
-1.3964
-1.4006
-1.4049
-1.40929
-1.41377
-1.41832
-1.42293
-1.4276
-1.43232
-1.43708
-1.44187
-1.44669
-1.45152
-1.45637
-1.46123
-1.46608
-1.47094
-1.47578
-1.48062
-1.48543
-1.49023
-1.495
-1.49975
-1.50446
-1.50914
-1.51379
-1.5184
-1.52296
-1.52749
-1.53197
-1.5364
-1.54079
-1.54513
-1.54942
-1.55366
-1.55784
-1.56198
-1.56606
-1.57009
-1.57406
-1.57798
-1.58184
-1.58565
-1.5894
-1.5931
-1.59674
-1.60033
-1.60386
-1.60734
-1.61076
-1.61413
-1.61744
-1.6207
-1.62391
-1.62706
-1.63016
-1.63321
-1.63621
-1.63916
-1.64205
-1.6449
-1.6477
-1.65045
-1.65315
-1.6558
-1.6584
-1.66096
-1.66348
-1.66595
-1.66837
-1.67075
-1.67309
-1.67539
-1.67764
-1.67985
-1.68202
-1.68416
-1.68625
-1.6883
-1.69032
-1.6923
-1.69424
-1.69615
-1.69802
-1.69986
-1.70166
-1.70343
-1.70517
-1.70687
-1.70854
-1.71018
-1.71179
-1.71337
-1.71493
-1.71645
-1.71794
-1.7194
-1.72084
-1.72225
-1.72364
-1.72499
-1.72633
-1.72763
-1.3533
-1.35348
-1.35412
-1.35511
-1.35642
-1.35804
-1.35995
-1.36214
-1.36459
-1.36728
-1.3702
-1.37332
-1.37664
-1.38014
-1.38381
-1.38763
-1.39159
-1.39567
-1.39987
-1.40418
-1.40858
-1.41306
-1.41762
-1.42224
-1.42692
-1.43165
-1.43642
-1.44122
-1.44604
-1.45089
-1.45575
-1.46061
-1.46548
-1.47035
-1.47521
-1.48005
-1.48488
-1.48969
-1.49448
-1.49924
-1.50397
-1.50866
-1.51332
-1.51794
-1.52253
-1.52707
-1.53156
-1.53601
-1.54041
-1.54477
-1.54907
-1.55332
-1.55753
-1.56168
-1.56577
-1.56981
-1.5738
-1.57774
-1.58161
-1.58544
-1.5892
-1.59292
-1.59657
-1.60018
-1.60372
-1.60721
-1.61065
-1.61403
-1.61736
-1.62063
-1.62385
-1.62702
-1.63014
-1.6332
-1.63621
-1.63917
-1.64208
-1.64494
-1.64775
-1.65051
-1.65322
-1.65589
-1.65851
-1.66108
-1.6636
-1.66608
-1.66852
-1.67091
-1.67326
-1.67557
-1.67783
-1.68006
-1.68224
-1.68438
-1.68649
-1.68855
-1.69058
-1.69257
-1.69452
-1.69644
-1.69832
-1.70017
-1.70198
-1.70376
-1.7055
-1.70721
-1.70889
-1.71054
-1.71216
-1.71375
-1.71531
-1.71684
-1.71834
-1.71981
-1.72126
-1.72268
-1.72407
-1.72543
-1.72677
-1.72808
-1.35252
-1.35268
-1.35331
-1.35429
-1.35559
-1.35721
-1.35912
-1.3613
-1.36375
-1.36643
-1.36935
-1.37247
-1.37579
-1.37929
-1.38296
-1.38678
-1.39074
-1.39483
-1.39904
-1.40335
-1.40776
-1.41225
-1.41681
-1.42144
-1.42613
-1.43087
-1.43565
-1.44046
-1.4453
-1.45015
-1.45503
-1.45991
-1.46479
-1.46967
-1.47454
-1.4794
-1.48425
-1.48907
-1.49387
-1.49865
-1.50339
-1.50811
-1.51278
-1.51742
-1.52202
-1.52658
-1.53109
-1.53556
-1.53998
-1.54435
-1.54867
-1.55294
-1.55716
-1.56133
-1.56544
-1.5695
-1.5735
-1.57745
-1.58135
-1.58519
-1.58898
-1.5927
-1.59638
-1.6
-1.60356
-1.60707
-1.61052
-1.61392
-1.61727
-1.62056
-1.62379
-1.62698
-1.63011
-1.63318
-1.63621
-1.63919
-1.64211
-1.64498
-1.64781
-1.65058
-1.65331
-1.65599
-1.65862
-1.66121
-1.66375
-1.66624
-1.66869
-1.6711
-1.67346
-1.67578
-1.67806
-1.68029
-1.68249
-1.68464
-1.68676
-1.68884
-1.69088
-1.69288
-1.69484
-1.69677
-1.69866
-1.70052
-1.70234
-1.70413
-1.70589
-1.70761
-1.7093
-1.71096
-1.71259
-1.71419
-1.71576
-1.71729
-1.7188
-1.72029
-1.72174
-1.72317
-1.72457
-1.72594
-1.72729
-1.72861
-1.35163
-1.35179
-1.3524
-1.35337
-1.35466
-1.35627
-1.35817
-1.36035
-1.36279
-1.36547
-1.36838
-1.37151
-1.37483
-1.37833
-1.382
-1.38582
-1.38978
-1.39388
-1.39809
-1.40241
-1.40682
-1.41132
-1.4159
-1.42054
-1.42524
-1.42999
-1.43478
-1.4396
-1.44445
-1.44932
-1.45421
-1.4591
-1.464
-1.4689
-1.47379
-1.47867
-1.48353
-1.48837
-1.49319
-1.49798
-1.50274
-1.50748
-1.51217
-1.51683
-1.52145
-1.52602
-1.53055
-1.53504
-1.53948
-1.54387
-1.54821
-1.5525
-1.55674
-1.56093
-1.56506
-1.56914
-1.57317
-1.57714
-1.58105
-1.58491
-1.58872
-1.59246
-1.59616
-1.5998
-1.60338
-1.60691
-1.61038
-1.61379
-1.61716
-1.62047
-1.62372
-1.62692
-1.63007
-1.63317
-1.63621
-1.6392
-1.64214
-1.64504
-1.64788
-1.65067
-1.65341
-1.65611
-1.65876
-1.66136
-1.66391
-1.66642
-1.66889
-1.67131
-1.67369
-1.67602
-1.67831
-1.68056
-1.68277
-1.68494
-1.68707
-1.68916
-1.69121
-1.69323
-1.69521
-1.69715
-1.69905
-1.70092
-1.70276
-1.70456
-1.70632
-1.70806
-1.70976
-1.71143
-1.71307
-1.71468
-1.71626
-1.71781
-1.71933
-1.72082
-1.72229
-1.72372
-1.72513
-1.72652
-1.72787
-1.7292
-1.35065
-1.35078
-1.35139
-1.35235
-1.35362
-1.35522
-1.35711
-1.35929
-1.36172
-1.3644
-1.36731
-1.37043
-1.37375
-1.37725
-1.38092
-1.38475
-1.38872
-1.39282
-1.39704
-1.40136
-1.40578
-1.41029
-1.41488
-1.41953
-1.42424
-1.429
-1.4338
-1.43864
-1.44351
-1.4484
-1.4533
-1.45821
-1.46313
-1.46804
-1.47295
-1.47784
-1.48272
-1.48759
-1.49242
-1.49724
-1.50202
-1.50677
-1.51149
-1.51617
-1.52081
-1.5254
-1.52996
-1.53447
-1.53893
-1.54334
-1.5477
-1.55202
-1.55628
-1.56049
-1.56464
-1.56874
-1.57279
-1.57678
-1.58072
-1.5846
-1.58843
-1.5922
-1.59591
-1.59957
-1.60317
-1.60672
-1.61022
-1.61365
-1.61704
-1.62037
-1.62364
-1.62686
-1.63003
-1.63315
-1.63621
-1.63922
-1.64218
-1.64509
-1.64795
-1.65076
-1.65353
-1.65624
-1.65891
-1.66152
-1.6641
-1.66662
-1.66911
-1.67154
-1.67394
-1.67629
-1.6786
-1.68086
-1.68309
-1.68527
-1.68742
-1.68952
-1.69159
-1.69362
-1.69561
-1.69757
-1.69949
-1.70137
-1.70322
-1.70503
-1.70681
-1.70856
-1.71028
-1.71196
-1.71361
-1.71523
-1.71682
-1.71839
-1.71992
-1.72142
-1.7229
-1.72435
-1.72577
-1.72716
-1.72853
-1.72986
-1.34956
-1.34968
-1.35027
-1.35121
-1.35248
-1.35407
-1.35595
-1.35812
-1.36054
-1.36322
-1.36613
-1.36924
-1.37256
-1.37607
-1.37974
-1.38357
-1.38754
-1.39165
-1.39587
-1.40021
-1.40464
-1.40916
-1.41375
-1.41842
-1.42314
-1.42792
-1.43274
-1.43759
-1.44247
-1.44738
-1.4523
-1.45723
-1.46216
-1.46709
-1.47202
-1.47694
-1.48184
-1.48672
-1.49158
-1.49642
-1.50122
-1.506
-1.51074
-1.51544
-1.5201
-1.52472
-1.5293
-1.53383
-1.53832
-1.54275
-1.54714
-1.55148
-1.55576
-1.56
-1.56418
-1.5683
-1.57237
-1.57639
-1.58035
-1.58426
-1.58811
-1.5919
-1.59564
-1.59932
-1.60295
-1.60652
-1.61004
-1.6135
-1.6169
-1.62026
-1.62355
-1.6268
-1.62999
-1.63312
-1.63621
-1.63924
-1.64223
-1.64516
-1.64804
-1.65087
-1.65365
-1.65638
-1.65907
-1.66171
-1.6643
-1.66685
-1.66935
-1.6718
-1.67422
-1.67658
-1.67891
-1.68119
-1.68344
-1.68564
-1.6878
-1.68992
-1.69201
-1.69405
-1.69606
-1.69803
-1.69997
-1.70186
-1.70373
-1.70556
-1.70735
-1.70911
-1.71084
-1.71254
-1.71421
-1.71584
-1.71745
-1.71902
-1.72057
-1.72208
-1.72357
-1.72503
-1.72646
-1.72787
-1.72925
-1.73059
-1.34838
-1.34848
-1.34905
-1.34998
-1.35124
-1.35281
-1.35468
-1.35684
-1.35926
-1.36193
-1.36484
-1.36795
-1.37127
-1.37477
-1.37845
-1.38228
-1.38626
-1.39037
-1.39461
-1.39895
-1.40339
-1.40792
-1.41253
-1.41721
-1.42194
-1.42673
-1.43157
-1.43644
-1.44134
-1.44626
-1.4512
-1.45615
-1.46111
-1.46606
-1.47101
-1.47595
-1.48087
-1.48578
-1.49066
-1.49552
-1.50035
-1.50515
-1.50992
-1.51464
-1.51933
-1.52398
-1.52858
-1.53314
-1.53765
-1.54212
-1.54653
-1.55089
-1.55521
-1.55946
-1.56367
-1.56782
-1.57192
-1.57596
-1.57995
-1.58388
-1.58776
-1.59158
-1.59534
-1.59905
-1.6027
-1.6063
-1.60984
-1.61333
-1.61676
-1.62014
-1.62346
-1.62673
-1.62994
-1.6331
-1.63621
-1.63927
-1.64227
-1.64523
-1.64813
-1.65098
-1.65379
-1.65654
-1.65925
-1.66191
-1.66452
-1.66709
-1.66961
-1.67209
-1.67452
-1.67691
-1.67925
-1.68156
-1.68382
-1.68604
-1.68822
-1.69036
-1.69246
-1.69452
-1.69655
-1.69854
-1.70049
-1.7024
-1.70428
-1.70613
-1.70794
-1.70972
-1.71146
-1.71318
-1.71486
-1.71651
-1.71813
-1.71971
-1.72127
-1.7228
-1.72431
-1.72578
-1.72723
-1.72865
-1.73004
-1.73139
-1.3471
-1.34718
-1.34774
-1.34865
-1.34989
-1.35145
-1.35331
-1.35546
-1.35788
-1.36054
-1.36344
-1.36656
-1.36987
-1.37338
-1.37706
-1.38089
-1.38488
-1.389
-1.39324
-1.39759
-1.40204
-1.40658
-1.4112
-1.4159
-1.42065
-1.42546
-1.43031
-1.4352
-1.44012
-1.44506
-1.45002
-1.45499
-1.45997
-1.46494
-1.46992
-1.47488
-1.47983
-1.48476
-1.48967
-1.49456
-1.49941
-1.50424
-1.50903
-1.51378
-1.5185
-1.52317
-1.52781
-1.53239
-1.53693
-1.54142
-1.54587
-1.55026
-1.5546
-1.55889
-1.56312
-1.5673
-1.57143
-1.5755
-1.57952
-1.58348
-1.58738
-1.59123
-1.59502
-1.59876
-1.60244
-1.60606
-1.60963
-1.61314
-1.6166
-1.62001
-1.62335
-1.62665
-1.62989
-1.63308
-1.63621
-1.63929
-1.64232
-1.6453
-1.64823
-1.65111
-1.65393
-1.65671
-1.65944
-1.66213
-1.66476
-1.66735
-1.6699
-1.67239
-1.67485
-1.67726
-1.67962
-1.68195
-1.68423
-1.68647
-1.68867
-1.69083
-1.69295
-1.69503
-1.69708
-1.69909
-1.70105
-1.70299
-1.70489
-1.70675
-1.70858
-1.71037
-1.71213
-1.71386
-1.71556
-1.71723
-1.71886
-1.72047
-1.72204
-1.72359
-1.7251
-1.72659
-1.72805
-1.72949
-1.73089
-1.73226
-1.34573
-1.34579
-1.34632
-1.34722
-1.34844
-1.34999
-1.35184
-1.35398
-1.35639
-1.35905
-1.36194
-1.36506
-1.36837
-1.37188
-1.37556
-1.3794
-1.38339
-1.38752
-1.39177
-1.39613
-1.40059
-1.40515
-1.40978
-1.41449
-1.41926
-1.42408
-1.42895
-1.43386
-1.4388
-1.44376
-1.44875
-1.45374
-1.45874
-1.46374
-1.46874
-1.47373
-1.47871
-1.48366
-1.4886
-1.49351
-1.4984
-1.50325
-1.50808
-1.51286
-1.5176
-1.52231
-1.52697
-1.53159
-1.53616
-1.54068
-1.54515
-1.54958
-1.55395
-1.55827
-1.56253
-1.56674
-1.5709
-1.575
-1.57905
-1.58304
-1.58698
-1.59085
-1.59468
-1.59844
-1.60215
-1.60581
-1.60941
-1.61295
-1.61643
-1.61987
-1.62324
-1.62656
-1.62983
-1.63305
-1.63621
-1.63932
-1.64238
-1.64538
-1.64833
-1.65124
-1.65409
-1.6569
-1.65965
-1.66236
-1.66502
-1.66763
-1.6702
-1.67272
-1.6752
-1.67763
-1.68002
-1.68237
-1.68467
-1.68694
-1.68916
-1.69134
-1.69348
-1.69558
-1.69765
-1.69968
-1.70166
-1.70362
-1.70553
-1.70742
-1.70926
-1.71108
-1.71286
-1.7146
-1.71632
-1.718
-1.71965
-1.72127
-1.72287
-1.72443
-1.72596
-1.72746
-1.72894
-1.73039
-1.73181
-1.73319
-1.34426
-1.3443
-1.34482
-1.34569
-1.3469
-1.34843
-1.35027
-1.3524
-1.3548
-1.35745
-1.36034
-1.36345
-1.36677
-1.37028
-1.37396
-1.37781
-1.3818
-1.38594
-1.39019
-1.39457
-1.39904
-1.40361
-1.40826
-1.41298
-1.41777
-1.42261
-1.4275
-1.43243
-1.43739
-1.44238
-1.44739
-1.45241
-1.45743
-1.46246
-1.46748
-1.4725
-1.47751
-1.48249
-1.48746
-1.4924
-1.49732
-1.5022
-1.50706
-1.51187
-1.51665
-1.52138
-1.52608
-1.53073
-1.53533
-1.53989
-1.54439
-1.54885
-1.55325
-1.5576
-1.5619
-1.56615
-1.57034
-1.57447
-1.57855
-1.58258
-1.58654
-1.59045
-1.59431
-1.59811
-1.60185
-1.60553
-1.60916
-1.61274
-1.61625
-1.61972
-1.62312
-1.62648
-1.62977
-1.63302
-1.63621
-1.63935
-1.64243
-1.64547
-1.64845
-1.65138
-1.65426
-1.65709
-1.65988
-1.66261
-1.6653
-1.66794
-1.67053
-1.67308
-1.67558
-1.67804
-1.68045
-1.68282
-1.68515
-1.68743
-1.68968
-1.69188
-1.69405
-1.69617
-1.69826
-1.70031
-1.70232
-1.70429
-1.70623
-1.70813
-1.71
-1.71183
-1.71363
-1.7154
-1.71713
-1.71883
-1.7205
-1.72214
-1.72375
-1.72533
-1.72688
-1.7284
-1.72989
-1.73136
-1.73279
-1.73418
-1.34271
-1.34272
-1.34321
-1.34407
-1.34526
-1.34678
-1.34861
-1.35073
-1.35311
-1.35576
-1.35864
-1.36175
-1.36507
-1.36857
-1.37226
-1.37611
-1.38011
-1.38426
-1.38852
-1.39291
-1.3974
-1.40198
-1.40664
-1.41138
-1.41619
-1.42105
-1.42596
-1.43091
-1.4359
-1.44091
-1.44594
-1.45099
-1.45604
-1.4611
-1.46615
-1.47119
-1.47623
-1.48125
-1.48625
-1.49122
-1.49617
-1.50109
-1.50597
-1.51082
-1.51563
-1.5204
-1.52513
-1.52981
-1.53445
-1.53904
-1.54358
-1.54807
-1.55251
-1.5569
-1.56123
-1.56551
-1.56974
-1.57391
-1.57802
-1.58208
-1.58608
-1.59003
-1.59392
-1.59775
-1.60152
-1.60524
-1.6089
-1.61251
-1.61606
-1.61956
-1.623
-1.62638
-1.62971
-1.63299
-1.63621
-1.63938
-1.64249
-1.64556
-1.64857
-1.65153
-1.65444
-1.6573
-1.66011
-1.66288
-1.66559
-1.66826
-1.67088
-1.67345
-1.67598
-1.67847
-1.6809
-1.6833
-1.68565
-1.68796
-1.69023
-1.69246
-1.69465
-1.6968
-1.69891
-1.70098
-1.70301
-1.70501
-1.70697
-1.70889
-1.71078
-1.71263
-1.71445
-1.71624
-1.71799
-1.71971
-1.7214
-1.72306
-1.72469
-1.72628
-1.72785
-1.72939
-1.7309
-1.73238
-1.73383
-1.73524
-1.34106
-1.34105
-1.34152
-1.34236
-1.34353
-1.34503
-1.34684
-1.34895
-1.35133
-1.35397
-1.35685
-1.35995
-1.36327
-1.36677
-1.37046
-1.37432
-1.37833
-1.38248
-1.38676
-1.39115
-1.39565
-1.40025
-1.40493
-1.40969
-1.41452
-1.4194
-1.42433
-1.42931
-1.43432
-1.43935
-1.44441
-1.44948
-1.45457
-1.45965
-1.46473
-1.46981
-1.47488
-1.47993
-1.48496
-1.48997
-1.49495
-1.4999
-1.50482
-1.50971
-1.51455
-1.51936
-1.52412
-1.52884
-1.53352
-1.53815
-1.54272
-1.54725
-1.55173
-1.55615
-1.56052
-1.56484
-1.5691
-1.57331
-1.57746
-1.58155
-1.58559
-1.58957
-1.5935
-1.59737
-1.60118
-1.60493
-1.60863
-1.61227
-1.61586
-1.61939
-1.62286
-1.62628
-1.62964
-1.63295
-1.63621
-1.63941
-1.64256
-1.64565
-1.6487
-1.65169
-1.65463
-1.65752
-1.66037
-1.66316
-1.6659
-1.6686
-1.67125
-1.67385
-1.67641
-1.67892
-1.68139
-1.68381
-1.68619
-1.68853
-1.69082
-1.69308
-1.69529
-1.69746
-1.6996
-1.70169
-1.70375
-1.70577
-1.70775
-1.7097
-1.71161
-1.71348
-1.71532
-1.71713
-1.71891
-1.72065
-1.72236
-1.72404
-1.72568
-1.7273
-1.72889
-1.73045
-1.73197
-1.73348
-1.73494
-1.73637
-1.33933
-1.33929
-1.33974
-1.34055
-1.3417
-1.34319
-1.34499
-1.34708
-1.34945
-1.35208
-1.35495
-1.35805
-1.36137
-1.36488
-1.36857
-1.37243
-1.37645
-1.3806
-1.38489
-1.3893
-1.39382
-1.39843
-1.40313
-1.40791
-1.41275
-1.41766
-1.42261
-1.42761
-1.43265
-1.43771
-1.4428
-1.4479
-1.45301
-1.45813
-1.46324
-1.46835
-1.47345
-1.47854
-1.4836
-1.48865
-1.49366
-1.49865
-1.50361
-1.50853
-1.51342
-1.51826
-1.52306
-1.52782
-1.53253
-1.5372
-1.54182
-1.54638
-1.5509
-1.55536
-1.55977
-1.56413
-1.56843
-1.57267
-1.57686
-1.581
-1.58508
-1.5891
-1.59306
-1.59697
-1.60081
-1.60461
-1.60834
-1.61202
-1.61564
-1.61921
-1.62272
-1.62617
-1.62957
-1.63292
-1.63621
-1.63944
-1.64263
-1.64576
-1.64883
-1.65186
-1.65484
-1.65776
-1.66063
-1.66346
-1.66623
-1.66896
-1.67164
-1.67427
-1.67686
-1.6794
-1.6819
-1.68435
-1.68676
-1.68912
-1.69144
-1.69372
-1.69596
-1.69816
-1.70032
-1.70244
-1.70453
-1.70657
-1.70858
-1.71055
-1.71248
-1.71438
-1.71625
-1.71808
-1.71987
-1.72164
-1.72337
-1.72507
-1.72674
-1.72837
-1.72998
-1.73156
-1.73311
-1.73463
-1.73612
-1.73755
-1.33751
-1.33744
-1.33786
-1.33866
-1.33979
-1.34125
-1.34304
-1.34512
-1.34748
-1.3501
-1.35297
-1.35606
-1.35937
-1.36288
-1.36658
-1.37045
-1.37447
-1.37864
-1.38294
-1.38736
-1.39189
-1.39652
-1.40124
-1.40603
-1.4109
-1.41583
-1.42081
-1.42583
-1.4309
-1.43599
-1.4411
-1.44623
-1.45138
-1.45653
-1.46168
-1.46682
-1.47195
-1.47707
-1.48218
-1.48726
-1.49231
-1.49734
-1.50233
-1.5073
-1.51222
-1.5171
-1.52195
-1.52675
-1.5315
-1.53621
-1.54086
-1.54547
-1.55003
-1.55453
-1.55898
-1.56338
-1.56772
-1.57201
-1.57624
-1.58041
-1.58453
-1.58859
-1.5926
-1.59654
-1.60043
-1.60426
-1.60804
-1.61176
-1.61542
-1.61902
-1.62257
-1.62606
-1.6295
-1.63288
-1.63621
-1.63948
-1.6427
-1.64587
-1.64898
-1.65204
-1.65505
-1.65801
-1.66091
-1.66377
-1.66658
-1.66934
-1.67205
-1.67472
-1.67733
-1.67991
-1.68243
-1.68491
-1.68735
-1.68975
-1.6921
-1.69441
-1.69667
-1.6989
-1.70109
-1.70324
-1.70535
-1.70742
-1.70945
-1.71144
-1.7134
-1.71533
-1.71722
-1.71907
-1.72089
-1.72268
-1.72443
-1.72615
-1.72784
-1.7295
-1.73113
-1.73273
-1.7343
-1.73584
-1.73735
-1.73881
-1.33561
-1.33551
-1.3359
-1.33667
-1.33778
-1.33923
-1.34099
-1.34306
-1.34541
-1.34802
-1.35088
-1.35398
-1.35729
-1.3608
-1.3645
-1.36837
-1.3724
-1.37658
-1.38089
-1.38532
-1.38987
-1.39451
-1.39925
-1.40407
-1.40896
-1.41391
-1.41892
-1.42397
-1.42906
-1.43418
-1.43932
-1.44449
-1.44967
-1.45485
-1.46003
-1.46521
-1.47038
-1.47554
-1.48068
-1.4858
-1.49089
-1.49596
-1.501
-1.506
-1.51096
-1.51589
-1.52078
-1.52562
-1.53041
-1.53516
-1.53986
-1.54451
-1.54911
-1.55366
-1.55816
-1.5626
-1.56698
-1.57131
-1.57558
-1.5798
-1.58396
-1.58807
-1.59211
-1.5961
-1.60003
-1.6039
-1.60772
-1.61148
-1.61518
-1.61883
-1.62241
-1.62595
-1.62942
-1.63284
-1.63621
-1.63952
-1.64278
-1.64598
-1.64913
-1.65223
-1.65527
-1.65826
-1.66121
-1.6641
-1.66694
-1.66974
-1.67248
-1.67518
-1.67783
-1.68044
-1.68299
-1.68551
-1.68798
-1.6904
-1.69278
-1.69512
-1.69742
-1.69968
-1.70189
-1.70407
-1.70621
-1.7083
-1.71036
-1.71239
-1.71437
-1.71632
-1.71824
-1.72011
-1.72196
-1.72377
-1.72555
-1.72729
-1.72901
-1.73069
-1.73234
-1.73396
-1.73555
-1.73712
-1.73864
-1.74012
-1.33362
-1.33349
-1.33386
-1.3346
-1.33569
-1.33711
-1.33886
-1.34091
-1.34325
-1.34586
-1.34871
-1.3518
-1.35511
-1.35862
-1.36232
-1.3662
-1.37023
-1.37442
-1.37875
-1.38319
-1.38776
-1.39242
-1.39718
-1.40202
-1.40693
-1.41191
-1.41694
-1.42202
-1.42714
-1.43229
-1.43747
-1.44266
-1.44787
-1.45309
-1.45831
-1.46353
-1.46874
-1.47394
-1.47912
-1.48428
-1.48941
-1.49452
-1.4996
-1.50464
-1.50965
-1.51462
-1.51955
-1.52444
-1.52928
-1.53407
-1.53882
-1.54351
-1.54816
-1.55275
-1.55729
-1.56177
-1.5662
-1.57058
-1.5749
-1.57916
-1.58336
-1.58751
-1.5916
-1.59563
-1.59961
-1.60353
-1.60739
-1.61119
-1.61493
-1.61862
-1.62225
-1.62582
-1.62934
-1.6328
-1.63621
-1.63956
-1.64285
-1.6461
-1.64929
-1.65242
-1.6555
-1.65854
-1.66152
-1.66445
-1.66732
-1.67015
-1.67294
-1.67567
-1.67835
-1.68099
-1.68358
-1.68613
-1.68863
-1.69109
-1.6935
-1.69587
-1.6982
-1.70049
-1.70273
-1.70494
-1.70711
-1.70923
-1.71132
-1.71337
-1.71538
-1.71736
-1.7193
-1.72121
-1.72308
-1.72492
-1.72672
-1.72849
-1.73023
-1.73193
-1.73361
-1.73525
-1.73687
-1.73845
-1.74
-1.74149
-1.33155
-1.33139
-1.33173
-1.33244
-1.3335
-1.33491
-1.33664
-1.33868
-1.341
-1.3436
-1.34645
-1.34953
-1.35284
-1.35635
-1.36005
-1.36393
-1.36798
-1.37218
-1.37651
-1.38098
-1.38556
-1.39024
-1.39502
-1.39988
-1.40481
-1.40982
-1.41488
-1.41998
-1.42513
-1.43032
-1.43553
-1.44076
-1.44601
-1.45126
-1.45652
-1.46177
-1.46702
-1.47226
-1.47748
-1.48269
-1.48786
-1.49302
-1.49814
-1.50323
-1.50828
-1.5133
-1.51827
-1.5232
-1.52809
-1.53293
-1.53772
-1.54247
-1.54716
-1.5518
-1.55638
-1.56092
-1.56539
-1.56982
-1.57418
-1.57849
-1.58274
-1.58694
-1.59107
-1.59515
-1.59917
-1.60313
-1.60704
-1.61088
-1.61467
-1.6184
-1.62208
-1.62569
-1.62925
-1.63276
-1.63621
-1.6396
-1.64294
-1.64622
-1.64945
-1.65263
-1.65575
-1.65882
-1.66184
-1.66481
-1.66772
-1.67059
-1.67341
-1.67618
-1.6789
-1.68157
-1.6842
-1.68678
-1.68932
-1.69181
-1.69425
-1.69666
-1.69902
-1.70134
-1.70361
-1.70585
-1.70805
-1.7102
-1.71232
-1.7144
-1.71644
-1.71845
-1.72042
-1.72235
-1.72425
-1.72611
-1.72794
-1.72974
-1.7315
-1.73323
-1.73493
-1.7366
-1.73824
-1.73985
-1.74142
-1.74293
-1.3294
-1.3292
-1.32951
-1.3302
-1.33124
-1.33262
-1.33434
-1.33636
-1.33867
-1.34125
-1.34409
-1.34717
-1.35047
-1.35399
-1.3577
-1.36158
-1.36564
-1.36984
-1.37419
-1.37867
-1.38327
-1.38797
-1.39277
-1.39765
-1.40261
-1.40764
-1.41273
-1.41787
-1.42305
-1.42827
-1.43351
-1.43878
-1.44406
-1.44936
-1.45465
-1.45995
-1.46524
-1.47052
-1.47578
-1.48103
-1.48625
-1.49145
-1.49662
-1.50175
-1.50685
-1.51192
-1.51694
-1.52192
-1.52685
-1.53174
-1.53658
-1.54138
-1.54612
-1.55081
-1.55544
-1.56002
-1.56455
-1.56902
-1.57343
-1.57779
-1.58209
-1.58633
-1.59052
-1.59464
-1.59871
-1.60272
-1.60667
-1.61057
-1.6144
-1.61818
-1.6219
-1.62556
-1.62916
-1.63271
-1.63621
-1.63964
-1.64302
-1.64635
-1.64962
-1.65284
-1.656
-1.65911
-1.66217
-1.66518
-1.66814
-1.67104
-1.6739
-1.67671
-1.67947
-1.68218
-1.68484
-1.68746
-1.69003
-1.69255
-1.69504
-1.69747
-1.69987
-1.70222
-1.70453
-1.7068
-1.70903
-1.71122
-1.71336
-1.71547
-1.71755
-1.71958
-1.72158
-1.72354
-1.72547
-1.72736
-1.72921
-1.73104
-1.73283
-1.73459
-1.73631
-1.738
-1.73967
-1.7413
-1.7429
-1.74443
-1.32718
-1.32694
-1.32722
-1.32787
-1.32889
-1.33025
-1.33194
-1.33395
-1.33624
-1.33882
-1.34165
-1.34472
-1.34803
-1.35154
-1.35525
-1.35914
-1.3632
-1.36742
-1.37178
-1.37628
-1.38089
-1.38561
-1.39043
-1.39534
-1.40033
-1.40538
-1.4105
-1.41567
-1.42088
-1.42614
-1.43142
-1.43672
-1.44204
-1.44737
-1.45271
-1.45805
-1.46338
-1.46871
-1.47402
-1.47931
-1.48458
-1.48982
-1.49504
-1.50022
-1.50537
-1.51048
-1.51555
-1.52058
-1.52557
-1.53051
-1.5354
-1.54024
-1.54503
-1.54977
-1.55446
-1.55909
-1.56367
-1.56819
-1.57266
-1.57706
-1.58141
-1.58571
-1.58994
-1.59412
-1.59823
-1.60229
-1.60629
-1.61023
-1.61412
-1.61794
-1.62171
-1.62542
-1.62907
-1.63267
-1.6362
-1.63969
-1.64311
-1.64648
-1.6498
-1.65306
-1.65627
-1.65942
-1.66252
-1.66557
-1.66857
-1.67151
-1.67441
-1.67726
-1.68006
-1.6828
-1.68551
-1.68816
-1.69077
-1.69333
-1.69585
-1.69832
-1.70075
-1.70314
-1.70548
-1.70779
-1.71005
-1.71227
-1.71445
-1.71659
-1.71869
-1.72076
-1.72279
-1.72478
-1.72674
-1.72866
-1.73054
-1.73239
-1.73421
-1.73599
-1.73775
-1.73947
-1.74116
-1.74282
-1.74443
-1.74599
-1.32487
-1.32459
-1.32484
-1.32547
-1.32645
-1.32779
-1.32946
-1.33145
-1.33373
-1.3363
-1.33912
-1.34219
-1.34549
-1.349
-1.35271
-1.35661
-1.36068
-1.36491
-1.36929
-1.3738
-1.37843
-1.38317
-1.38801
-1.39295
-1.39796
-1.40304
-1.40819
-1.41339
-1.41864
-1.42393
-1.42924
-1.43459
-1.43995
-1.44532
-1.4507
-1.45608
-1.46146
-1.46683
-1.47218
-1.47752
-1.48284
-1.48813
-1.4934
-1.49863
-1.50383
-1.50899
-1.51412
-1.5192
-1.52423
-1.52923
-1.53417
-1.53907
-1.54391
-1.5487
-1.55344
-1.55813
-1.56276
-1.56733
-1.57185
-1.57631
-1.58071
-1.58506
-1.58934
-1.59357
-1.59774
-1.60185
-1.6059
-1.60989
-1.61382
-1.6177
-1.62152
-1.62527
-1.62897
-1.63262
-1.6362
-1.63973
-1.6432
-1.64662
-1.64998
-1.65329
-1.65654
-1.65974
-1.66288
-1.66597
-1.66901
-1.672
-1.67494
-1.67783
-1.68067
-1.68346
-1.6862
-1.68889
-1.69154
-1.69414
-1.6967
-1.69921
-1.70167
-1.70409
-1.70647
-1.70881
-1.71111
-1.71336
-1.71558
-1.71775
-1.71989
-1.72198
-1.72404
-1.72607
-1.72805
-1.73
-1.73192
-1.7338
-1.73564
-1.73746
-1.73924
-1.74098
-1.7427
-1.74439
-1.74603
-1.74761
-1.32248
-1.32217
-1.32238
-1.32298
-1.32394
-1.32525
-1.3269
-1.32887
-1.33114
-1.33369
-1.3365
-1.33957
-1.34286
-1.34638
-1.35009
-1.354
-1.35808
-1.36232
-1.36671
-1.37123
-1.37588
-1.38064
-1.38551
-1.39047
-1.39551
-1.40062
-1.4058
-1.41103
-1.41632
-1.42164
-1.427
-1.43238
-1.43778
-1.44319
-1.44862
-1.45404
-1.45947
-1.46488
-1.47029
-1.47567
-1.48104
-1.48638
-1.4917
-1.49698
-1.50223
-1.50745
-1.51263
-1.51776
-1.52285
-1.5279
-1.5329
-1.53785
-1.54274
-1.54759
-1.55239
-1.55712
-1.56181
-1.56644
-1.57101
-1.57552
-1.57998
-1.58438
-1.58872
-1.593
-1.59722
-1.60139
-1.60549
-1.60953
-1.61352
-1.61745
-1.62131
-1.62512
-1.62887
-1.63256
-1.6362
-1.63978
-1.6433
-1.64676
-1.65017
-1.65352
-1.65682
-1.66007
-1.66326
-1.66639
-1.66948
-1.67251
-1.67549
-1.67842
-1.6813
-1.68413
-1.68692
-1.68965
-1.69234
-1.69498
-1.69757
-1.70012
-1.70263
-1.70508
-1.7075
-1.70987
-1.71221
-1.7145
-1.71675
-1.71895
-1.72112
-1.72325
-1.72535
-1.7274
-1.72942
-1.7314
-1.73335
-1.73526
-1.73713
-1.73898
-1.74078
-1.74256
-1.74431
-1.74602
-1.74769
-1.74929
-1.32002
-1.31967
-1.31985
-1.32041
-1.32134
-1.32263
-1.32426
-1.32621
-1.32846
-1.331
-1.3338
-1.33686
-1.34016
-1.34367
-1.34739
-1.3513
-1.35539
-1.35964
-1.36404
-1.36858
-1.37325
-1.37803
-1.38292
-1.38791
-1.39298
-1.39812
-1.40333
-1.4086
-1.41392
-1.41928
-1.42467
-1.43009
-1.43554
-1.441
-1.44646
-1.45194
-1.45741
-1.46287
-1.46832
-1.47376
-1.47918
-1.48457
-1.48994
-1.49528
-1.50058
-1.50585
-1.51108
-1.51627
-1.52142
-1.52652
-1.53158
-1.53658
-1.54154
-1.54644
-1.55129
-1.55609
-1.56083
-1.56551
-1.57014
-1.57471
-1.57923
-1.58368
-1.58808
-1.59241
-1.59669
-1.60091
-1.60507
-1.60916
-1.6132
-1.61718
-1.6211
-1.62496
-1.62877
-1.63251
-1.6362
-1.63982
-1.64339
-1.64691
-1.65037
-1.65377
-1.65711
-1.66041
-1.66364
-1.66683
-1.66996
-1.67304
-1.67606
-1.67904
-1.68196
-1.68484
-1.68766
-1.69044
-1.69317
-1.69585
-1.69848
-1.70107
-1.70361
-1.70611
-1.70856
-1.71098
-1.71334
-1.71567
-1.71796
-1.7202
-1.72241
-1.72457
-1.7267
-1.72878
-1.73084
-1.73285
-1.73483
-1.73677
-1.73868
-1.74055
-1.74239
-1.74419
-1.74597
-1.74771
-1.74941
-1.75103
-1.31749
-1.3171
-1.31724
-1.31777
-1.31867
-1.31993
-1.32153
-1.32346
-1.3257
-1.32823
-1.33102
-1.33407
-1.33736
-1.34088
-1.3446
-1.34851
-1.35261
-1.35687
-1.36129
-1.36585
-1.37054
-1.37534
-1.38025
-1.38526
-1.39036
-1.39554
-1.40078
-1.40608
-1.41144
-1.41683
-1.42227
-1.42773
-1.43322
-1.43872
-1.44424
-1.44976
-1.45528
-1.46079
-1.46629
-1.47178
-1.47725
-1.4827
-1.48812
-1.49352
-1.49888
-1.5042
-1.50949
-1.51474
-1.51994
-1.5251
-1.53021
-1.53528
-1.54029
-1.54525
-1.55016
-1.55502
-1.55981
-1.56456