# Forces      
# CofR        : (0.000000e+00 0.000000e+00 0.000000e+00)
# Time        forces(pressure viscous porous)	moments(pressure viscous porous)
0.26          	((8.413581e+00 1.418628e+02 -1.095431e-18) (2.055367e-01 7.348222e-02 -4.458230e-19) (0.000000e+00 0.000000e+00 0.000000e+00)) ((-9.221084e+01 5.468828e+00 -1.377595e+03) (-4.776344e-02 1.335988e-01 -7.077317e-01) (0.000000e+00 0.000000e+00 0.000000e+00))
