# Forces      
# CofR        : (0.000000e+00 0.000000e+00 0.000000e+00)
# Time        forces(pressure viscous porous)	moments(pressure viscous porous)
0.15          	((2.190154e+01 9.812963e+01 2.379675e-19) (1.094558e-01 1.402554e-02 -4.964355e-20) (0.000000e+00 0.000000e+00 0.000000e+00)) ((-6.378426e+01 1.423600e+01 -9.531435e+02) (-9.116598e-03 7.114630e-02 -1.019368e-01) (0.000000e+00 0.000000e+00 0.000000e+00))
