# Forces      
# CofR        : (0.000000e+00 0.000000e+00 0.000000e+00)
# Time        forces(pressure viscous porous)	moments(pressure viscous porous)
0.22          	((2.303453e+01 1.040254e+02 -9.823379e-21) (8.824294e-02 1.722725e-02 -2.152698e-20) (0.000000e+00 0.000000e+00 0.000000e+00)) ((-6.761651e+01 1.497245e+01 -1.012938e+03) (-1.119772e-02 5.735791e-02 -1.332188e-01) (0.000000e+00 0.000000e+00 0.000000e+00))
