# Forces      
# CofR        : (0.000000e+00 0.000000e+00 0.000000e+00)
# Time        forces(pressure viscous porous)	moments(pressure viscous porous)
0.07          	((3.248064e+01 8.055909e+01 4.691723e-20) (4.565399e-01 -9.483854e-02 -1.481175e-19) (0.000000e+00 0.000000e+00 0.000000e+00)) ((-5.236341e+01 2.111242e+01 -7.650846e+02) (6.164505e-02 2.967509e-01 9.781150e-01) (0.000000e+00 0.000000e+00 0.000000e+00))
