# Forces      
# CofR        : (0.000000e+00 0.000000e+00 0.000000e+00)
# Time        forces(pressure viscous porous)	moments(pressure viscous porous)
0.08          	((2.525502e+01 1.045418e+02 -4.222005e-19) (1.201558e-01 1.052146e-02 -8.194651e-20) (0.000000e+00 0.000000e+00 0.000000e+00)) ((-6.795218e+01 1.641576e+01 -1.012289e+03) (-6.838947e-03 7.810124e-02 -6.668202e-02) (0.000000e+00 0.000000e+00 0.000000e+00))
