# Forces      
# CofR        : (0.000000e+00 0.000000e+00 0.000000e+00)
# Time        forces(pressure viscous porous)	moments(pressure viscous porous)
0.1           	((1.754039e+00 -2.186249e+01 2.871228e-19) (6.333742e-01 -1.513129e-01 -1.316293e-19) (0.000000e+00 0.000000e+00 0.000000e+00)) ((1.421062e+01 1.140125e+00 2.044042e+02) (9.835341e-02 4.116932e-01 1.538240e+00) (0.000000e+00 0.000000e+00 0.000000e+00))
