# Forces      
# CofR        : (0.000000e+00 0.000000e+00 0.000000e+00)
# Time        forces(pressure viscous porous)	moments(pressure viscous porous)
0.01          	((3.678837e+01 1.402886e+02 -3.844609e-19) (4.373760e-02 4.567511e-02 -1.445447e-19) (0.000000e+00 0.000000e+00 0.000000e+00)) ((-9.118758e+01 2.391244e+01 -1.345998e+03) (-2.968882e-02 2.842944e-02 -4.071108e-01) (0.000000e+00 0.000000e+00 0.000000e+00))
