# Forces      
# CofR        : (0.000000e+00 0.000000e+00 0.000000e+00)
# Time        forces(pressure viscous porous)	moments(pressure viscous porous)
0.09          	((1.092052e+01 1.127232e+02 -7.077101e-19) (4.583338e-01 -2.419814e-03 -3.876460e-19) (0.000000e+00 0.000000e+00 0.000000e+00)) ((-7.327011e+01 7.098340e+00 -1.095703e+03) (1.572879e-03 2.979170e-01 4.289800e-02) (0.000000e+00 0.000000e+00 0.000000e+00))
