# Forces      
# CofR        : (0.000000e+00 0.000000e+00 0.000000e+00)
# Time        forces(pressure viscous porous)	moments(pressure viscous porous)
0.32          	((3.080827e+01 1.192974e+02 -6.351119e-19) (9.925240e-02 2.219729e-02 -1.186920e-19) (0.000000e+00 0.000000e+00 0.000000e+00)) ((-7.754331e+01 2.002537e+01 -1.148830e+03) (-1.442824e-02 6.451406e-02 -1.788921e-01) (0.000000e+00 0.000000e+00 0.000000e+00))
