# Forces      
# CofR        : (0.000000e+00 0.000000e+00 0.000000e+00)
# Time        forces(pressure viscous porous)	moments(pressure viscous porous)
0.05          	((2.373630e+01 1.356022e+02 -1.002530e-19) (-1.734361e-02 4.990437e-02 -2.835674e-19) (0.000000e+00 0.000000e+00 0.000000e+00)) ((-8.814140e+01 1.542860e+01 -1.321084e+03) (-3.243784e-02 -1.127335e-02 -4.588947e-01) (0.000000e+00 0.000000e+00 0.000000e+00))
