# Forces      
# CofR        : (0.000000e+00 0.000000e+00 0.000000e+00)
# Time        forces(pressure viscous porous)	moments(pressure viscous porous)
0.17          	((9.408641e+00 -1.940555e+00 1.963320e-19) (6.201555e-01 -1.543930e-01 -1.565757e-19) (0.000000e+00 0.000000e+00 0.000000e+00)) ((1.261361e+00 6.115617e+00 1.646007e+01) (1.003554e-01 4.031011e-01 1.568062e+00) (0.000000e+00 0.000000e+00 0.000000e+00))
