# Forces      
# CofR        : (0.000000e+00 0.000000e+00 0.000000e+00)
# Time        forces(pressure viscous porous)	moments(pressure viscous porous)
0.13          	((-1.165030e+00 4.160851e-01 2.017717e-19) (6.799582e-01 -1.347490e-01 -1.446600e-19) (0.000000e+00 0.000000e+00 0.000000e+00)) ((-2.704553e-01 -7.572696e-01 -1.177915e+01) (8.758684e-02 4.419728e-01 1.366569e+00) (0.000000e+00 0.000000e+00 0.000000e+00))
