# Forces      
# CofR        : (0.000000e+00 0.000000e+00 0.000000e+00)
# Time        forces(pressure viscous porous)	moments(pressure viscous porous)
0.25          	((3.894399e+01 1.457317e+02 -8.765361e-20) (4.883289e-02 4.596398e-02 -7.390527e-20) (0.000000e+00 0.000000e+00 0.000000e+00)) ((-9.472563e+01 2.531359e+01 -1.394676e+03) (-2.987659e-02 3.174138e-02 -4.096457e-01) (0.000000e+00 0.000000e+00 0.000000e+00))
