# Forces      
# CofR        : (0.000000e+00 0.000000e+00 0.000000e+00)
# Time        forces(pressure viscous porous)	moments(pressure viscous porous)
0.12          	((2.310009e+01 1.555500e+02 -2.947140e-19) (-1.537569e-02 6.145036e-02 -8.759347e-20) (0.000000e+00 0.000000e+00 0.000000e+00)) ((-1.011075e+02 1.501506e+01 -1.510247e+03) (-3.994273e-02 -9.994201e-03 -5.756566e-01) (0.000000e+00 0.000000e+00 0.000000e+00))
