# Forces      
# CofR        : (0.000000e+00 0.000000e+00 0.000000e+00)
# Time        forces(pressure viscous porous)	moments(pressure viscous porous)
0.27          	((-6.160101e+00 -3.266542e+01 3.615245e-19) (6.602169e-01 -1.390014e-01 -1.399626e-19) (0.000000e+00 0.000000e+00 0.000000e+00)) ((2.123252e+01 -4.004065e+00 3.045479e+02) (9.035088e-02 4.291410e-01 1.416359e+00) (0.000000e+00 0.000000e+00 0.000000e+00))
