# Forces      
# CofR        : (0.000000e+00 0.000000e+00 0.000000e+00)
# Time        forces(pressure viscous porous)	moments(pressure viscous porous)
0.28          	((4.884443e+01 1.636387e+02 2.506153e-19) (6.775764e-02 4.226694e-02 -9.480752e-20) (0.000000e+00 0.000000e+00 0.000000e+00)) ((-1.063651e+02 3.174888e+01 -1.553892e+03) (-2.747351e-02 4.404247e-02 -3.714345e-01) (0.000000e+00 0.000000e+00 0.000000e+00))
