# Forces      
# CofR        : (0.000000e+00 0.000000e+00 0.000000e+00)
# Time        forces(pressure viscous porous)	moments(pressure viscous porous)
0.11          	((4.427533e+01 1.633172e+02 3.617366e-19) (-6.717317e-03 6.410950e-02 -1.273623e-19) (0.000000e+00 0.000000e+00 0.000000e+00)) ((-1.061562e+02 2.877896e+01 -1.556291e+03) (-4.167118e-02 -4.366256e-03 -5.880170e-01) (0.000000e+00 0.000000e+00 0.000000e+00))
