# Forces      
# CofR        : (0.000000e+00 0.000000e+00 0.000000e+00)
# Time        forces(pressure viscous porous)	moments(pressure viscous porous)
0.23          	((9.230147e+00 6.435594e+01 -2.039192e-19) (6.320915e-01 -8.406560e-02 -2.221492e-19) (0.000000e+00 0.000000e+00 0.000000e+00)) ((-4.183136e+01 5.999596e+00 -6.270648e+02) (5.464264e-02 4.108595e-01 8.550873e-01) (0.000000e+00 0.000000e+00 0.000000e+00))
