/*--------------------------------*- C++ -*---------------------------------*\ 
| ========                 |                                                 | 
| \      /  F ield         | OpenFOAM: The Open Source CFD Toolbox           | 
|  \    /   O peration     | Version:  v1812                                 | 
|   \  /    A nd           | Web:      www.OpenFOAM.com                      | 
|    \/     M anipulation  |                                                 | 
\*--------------------------------------------------------------------------*/ 
FoamFile
{
    version     2.0;
    format      ascii;
    class       volVectorField;
    location    "/home/james/dafoam/myRuns/bezier_coanda_opt/0.00000000001/";
    object      sens_CL_shapey;
}
// * * * * * * * * * * * * * * * * * * * * * * * * * * * * * * * * * * * * * //

dimensions      [0 0 0 0 0 0 0];
internalField   uniform (0 0 0);
boundaryField
{
    allWalls
    {
        type  wall;
        value nonuniform List<vector>
164
(
(-0.082727 0.043499 0.000343)
(-0.135235 0.057426 0.000138)
(-0.127035 0.061724 0.000279)
(-0.066544 0.050345 0.000577)
(-0.050797 0.067408 0.000707)
(-0.046595 0.058228 0.000619)
(-0.041027 0.057834 0.000622)
(-0.056483 0.130544 0.000625)
(-0.057079 0.180402 0.000628)
(-0.043296 0.176870 0.001485)
(-0.034717 0.188098 0.002515)
(-0.028642 0.197120 0.003107)
(-0.021649 0.200967 0.003524)
(-0.017233 0.216147 0.004172)
(-0.012230 0.227228 0.005182)
(-0.008129 0.250855 0.005185)
(-0.003513 0.280702 0.004993)
(0.001837 0.338777 0.005252)
(0.009059 0.404777 0.005314)
(0.018295 0.474932 0.004919)
(0.025933 0.492477 0.003179)
(0.032489 0.491714 0.001356)
(0.038807 0.508782 0.000574)
(0.047453 0.547407 0.000000)
(0.054067 0.566436 -0.000391)
(0.063526 0.609285 -0.000634)
(0.072727 0.648342 -0.000523)
(0.076294 0.625661 -0.000323)
(0.084662 0.647254 -0.000323)
(0.094024 0.673847 -0.000323)
(0.103258 0.695502 -0.000323)
(0.112189 0.712376 -0.000313)
(0.120039 0.719531 -0.000303)
(0.127597 0.722032 -0.000303)
(0.135366 0.721680 -0.000303)
(0.143875 0.719367 -0.000303)
(0.145199 0.669560 -0.000275)
(0.129010 0.549856 -0.000246)
(0.089925 0.298296 -0.000246)
(0.142147 0.649993 -0.000246)
(-0.377675 0.714389 -0.000246)
(0.039381 -0.028542 -0.000246)
(0.230454 -0.912472 -0.000246)
(-0.020774 -0.295892 -0.000275)
(-0.142678 0.335382 -0.000303)
(-0.147895 0.449026 -0.000303)
(-0.106860 0.391746 -0.000303)
(-0.089125 0.381880 -0.000303)
(-0.082717 0.407954 -0.000313)
(-0.074510 0.417396 -0.000323)
(-0.064905 0.409340 -0.000323)
(-0.056541 0.400109 -0.000323)
(-0.049566 0.393504 -0.000323)
(-0.042938 0.383548 -0.000323)
(-0.037162 0.376646 0.000286)
(-0.030807 0.357217 0.000860)
(-0.026889 0.364737 0.000757)
(-0.023178 0.382840 0.000579)
(-0.015900 0.350657 0.000312)
(-0.011030 0.390485 -0.000825)
(-0.005633 0.386318 -0.001706)
(0.001062 0.312900 -0.001673)
(0.005551 0.275805 -0.001231)
(0.009028 0.231225 -0.001421)
(0.011815 0.202264 -0.002045)
(0.015733 0.190831 -0.001880)
(0.020883 0.192435 -0.001697)
(0.024951 0.181352 -0.001299)
(0.020599 0.133186 -0.001116)
(0.023138 0.108751 -0.001143)
(0.042698 0.147228 -0.000806)
(0.093415 0.240756 -0.000001)
(0.093254 0.196910 0.000092)
(-0.011713 -0.053446 0.000099)
(-0.059097 -0.150618 0.000580)
(-0.124763 -0.207599 0.000210)
(-0.061825 -0.149102 -0.000138)
(0.211314 0.140536 0.000245)
(0.220961 0.246599 0.000604)
(0.023882 0.128020 0.000608)
(0.088835 0.830298 -0.000246)
(-0.046568 0.427850 -0.000239)
(-0.023546 0.510941 -0.000232)
(0.026095 1.266601 -0.000232)
(0.049294 1.879677 -0.000232)
(0.046050 1.458281 -0.000232)
(0.078969 1.550200 -0.000232)
(0.359249 8.222986 -0.000232)
(1.229059 22.344529 -0.000232)
(-43.620938 -0.810274 -0.000151)
(418.953068 -688.092437 -0.000232)
(-47.427627 -21.424109 -0.000151)
(-392.495594 515.515320 -0.000151)
(14.773729 345.970185 -0.000070)
(17.049123 144.985689 -0.000070)
(8.068883 53.025562 -0.000070)
(2.773606 12.430802 -0.000070)
(1.882461 3.804153 -0.000070)
(1.234026 2.324479 -0.000070)
(0.208912 -0.120042 -0.000070)
(0.966518 1.960903 -0.000070)
(0.041377 0.576763 -0.000044)
(1.509376 2.871342 -0.000017)
(0.477345 1.594493 -0.000017)
(-0.533568 -0.264180 -0.000017)
(0.597501 1.365047 -0.000017)
(1.060549 1.583993 -0.000017)
(3.542190 3.815752 -0.000017)
(3.853628 3.639454 -0.000017)
(2.639525 2.008542 -0.000017)
(15.302983 12.733529 -0.000017)
(3.360552 2.457064 -0.000017)
(19.909791 3.792976 -0.000017)
(39.282613 10.448561 -0.000017)
(-51.010073 -20.916789 -0.000017)
(-74.276702 -8.329084 -0.000017)
(-26.975575 -7.068919 -0.000017)
(-2.146213 -18.301796 -0.000017)
(23.213065 -1.064305 -0.000017)
(14.333399 0.141954 -0.000017)
(-0.299571 -0.921396 -0.000017)
(-0.342625 -1.355110 -0.000017)
(0.746935 -1.478423 -0.000017)
(1.627037 -1.146909 -0.000017)
(2.629318 -1.299547 -0.000017)
(2.348444 -1.732606 -0.000017)
(2.993946 -2.037192 -0.000017)
(2.422005 -1.683092 -0.000017)
(1.700969 -1.053800 -0.000017)
(0.713271 -0.356686 -0.000017)
(0.168091 0.076221 -0.000017)
(0.114350 0.215433 -0.000017)
(0.041817 0.299637 -0.000017)
(-0.047226 0.322877 -0.000017)
(-0.138997 0.296454 -0.000017)
(-0.201241 0.255945 -0.000017)
(-0.227070 0.217727 -0.000017)
(-0.221052 0.178673 -0.000017)
(-0.186213 0.126740 -0.000017)
(-0.128335 0.053479 -0.000017)
(-0.052069 -0.045993 -0.000017)
(0.022382 -0.141227 -0.000017)
(0.050326 -0.158036 -0.000044)
(0.028938 -0.090615 -0.000070)
(-0.009094 0.008022 -0.000070)
(-0.034440 0.063180 -0.000070)
(-0.020925 -0.006629 -0.000070)
(0.015465 -0.156904 -0.000070)
(0.037120 -0.259597 -0.000070)
(0.024271 -0.212935 -0.000070)
(-0.002835 -0.109071 -0.000070)
(-159.702259 -0.047405 -0.000151)
(159.726349 0.048843 -0.000151)
(0.805626 -3.335621 -0.000070)
(0.731645 -2.168230 -0.000151)
(-0.063392 1.609933 -0.000232)
(-0.015812 0.360547 -0.000232)
(-0.008639 0.112989 -0.000232)
(-0.005441 0.267508 -0.000232)
(-0.001538 0.177047 -0.000232)
(0.003884 0.168648 -0.000232)
(0.011124 0.101514 -0.000232)
(0.074473 0.094456 -0.000239)
(-0.154153 0.337437 -0.000246)
)
;
    }
}
