/*--------------------------------*- C++ -*---------------------------------*\ 
| ========                 |                                                 | 
| \      /  F ield         | OpenFOAM: The Open Source CFD Toolbox           | 
|  \    /   O peration     | Version:  v1812                                 | 
|   \  /    A nd           | Web:      www.OpenFOAM.com                      | 
|    \/     M anipulation  |                                                 | 
\*--------------------------------------------------------------------------*/ 
FoamFile
{
    version     2.0;
    format      ascii;
    class       volVectorField;
    location    "/home/james/dafoam/myRuns/bezier_coanda_opt/0.00000000001/";
    object      sens_CL_shapey;
}
// * * * * * * * * * * * * * * * * * * * * * * * * * * * * * * * * * * * * * //

dimensions      [0 0 0 0 0 0 0];
internalField   uniform (0 0 0);
boundaryField
{
    allWalls
    {
        type  wall;
        value nonuniform List<vector>
164
(
(-0.058606 0.034322 0.000336)
(-0.083055 0.040033 0.000378)
(-0.120476 0.061654 0.000489)
(-0.124549 0.084209 0.000639)
(-0.079992 0.078055 0.000529)
(-0.055984 0.079096 0.000336)
(-0.048196 0.074729 0.000336)
(-0.052207 0.117355 0.000830)
(-0.057751 0.169878 0.001519)
(-0.043172 0.172256 0.002014)
(-0.036647 0.192112 0.002611)
(-0.029054 0.200376 0.003132)
(-0.022129 0.205642 0.003446)
(-0.016862 0.220182 0.003937)
(-0.011806 0.232857 0.004591)
(-0.006996 0.254009 0.005081)
(-0.002158 0.287789 0.005519)
(0.003716 0.340191 0.005847)
(0.011614 0.420988 0.006264)
(0.021289 0.486925 0.005517)
(0.028297 0.482648 0.003105)
(0.035507 0.499975 0.001263)
(0.043613 0.542457 0.000457)
(0.047154 0.523817 -0.000123)
(0.056021 0.564648 -0.000514)
(0.068840 0.648020 -0.000751)
(0.074475 0.653104 -0.000601)
(0.078385 0.637646 -0.000366)
(0.086109 0.656807 -0.000366)
(0.095131 0.684209 -0.000366)
(0.103805 0.705476 -0.000366)
(0.112221 0.722585 -0.000367)
(0.119677 0.730793 -0.000369)
(0.126911 0.734777 -0.000369)
(0.134255 0.735236 -0.000369)
(0.141426 0.729309 -0.000369)
(0.142529 0.680409 -0.000342)
(0.131595 0.586189 -0.000315)
(0.099819 0.366073 -0.000315)
(0.133308 0.622343 -0.000315)
(-0.349080 0.450230 -0.000315)
(-0.093410 0.092347 -0.000315)
(0.268402 -0.792458 -0.000315)
(0.079002 -0.500474 -0.000342)
(-0.118343 0.187773 -0.000369)
(-0.155360 0.397033 -0.000369)
(-0.113911 0.362104 -0.000369)
(-0.089107 0.335101 -0.000369)
(-0.082245 0.364952 -0.000369)
(-0.075879 0.388244 -0.000368)
(-0.065929 0.384773 -0.000366)
(-0.057608 0.380952 -0.000366)
(-0.050139 0.375313 -0.000366)
(-0.043490 0.369883 -0.000366)
(-0.037543 0.365717 0.000235)
(-0.031614 0.355450 0.000795)
(-0.023728 0.305261 0.000681)
(-0.023280 0.397094 0.000492)
(-0.018268 0.389639 0.000216)
(-0.008900 0.355835 -0.000184)
(-0.004720 0.379022 -0.001542)
(0.002127 0.318085 -0.002605)
(0.006631 0.288648 -0.001986)
(0.009929 0.225324 -0.001788)
(0.012770 0.200915 -0.001770)
(0.017030 0.192969 -0.001361)
(0.022783 0.197249 -0.001293)
(0.026492 0.182395 -0.001226)
(0.019882 0.124593 -0.001134)
(0.025428 0.110994 -0.001025)
(0.044129 0.145024 -0.000723)
(0.103706 0.251863 -0.000640)
(0.103160 0.212738 -0.000240)
(-0.026498 -0.080331 0.000336)
(-0.079308 -0.182370 0.000336)
(-0.137618 -0.220613 0.000336)
(-0.057771 -0.144846 0.000224)
(0.231183 0.150462 0.000224)
(0.230865 0.246872 0.000336)
(0.024948 0.122293 0.000336)
(0.078447 0.795309 -0.000315)
(-0.038354 0.499170 -0.000283)
(-0.019761 0.567918 -0.000252)
(0.026322 1.294461 -0.000252)
(0.049811 1.925887 -0.000252)
(0.047704 1.526043 -0.000252)
(0.081210 1.626398 -0.000252)
(0.366199 8.413422 -0.000252)
(1.249530 22.839598 -0.000252)
(-44.950607 0.913479 -0.000165)
(453.946736 -720.823590 -0.000252)
(-48.801071 -20.244732 -0.000165)
(-426.585848 537.858518 -0.000165)
(15.822137 367.011452 -0.000077)
(18.088783 153.048016 -0.000077)
(8.569667 55.936332 -0.000077)
(2.893823 13.027948 -0.000077)
(1.928044 3.832456 -0.000077)
(1.246969 2.324908 -0.000077)
(0.145658 -0.317248 -0.000077)
(0.949247 1.919558 -0.000077)
(-0.004714 0.508706 -0.000048)
(1.548217 2.955895 -0.000019)
(0.447298 1.586316 -0.000019)
(-0.637259 -0.378999 -0.000019)
(0.546410 1.336122 -0.000019)
(1.055810 1.606639 -0.000019)
(3.702854 3.980927 -0.000019)
(4.043236 3.808538 -0.000019)
(2.692910 2.027167 -0.000019)
(16.325634 13.606300 -0.000019)
(3.346109 2.508838 -0.000019)
(21.353688 4.048877 -0.000019)
(42.722776 11.424363 -0.000019)
(-55.738901 -23.145786 -0.000019)
(-81.168126 -9.415846 -0.000019)
(-29.339814 -7.421987 -0.000019)
(-2.689024 -19.886703 -0.000019)
(25.048019 -1.218112 -0.000019)
(15.682172 0.192966 -0.000019)
(-0.123450 -0.955490 -0.000019)
(-0.214365 -1.451767 -0.000019)
(0.815869 -1.596089 -0.000019)
(1.734712 -1.171403 -0.000019)
(2.756821 -1.144502 -0.000019)
(2.572561 -1.408779 -0.000019)
(3.500960 -1.602204 -0.000019)
(3.002014 -1.222940 -0.000019)
(2.197700 -0.683413 -0.000019)
(1.040996 -0.072746 -0.000019)
(0.424458 0.265057 -0.000019)
(0.380775 0.284732 -0.000019)
(0.277524 0.284478 -0.000019)
(0.134273 0.267688 -0.000019)
(0.003784 0.223408 -0.000019)
(-0.078870 0.173739 -0.000019)
(-0.120695 0.136451 -0.000019)
(-0.135814 0.110987 -0.000019)
(-0.129352 0.087663 -0.000019)
(-0.110208 0.064906 -0.000019)
(-0.087003 0.044057 -0.000019)
(-0.064044 0.024435 -0.000019)
(-0.043127 0.001740 -0.000048)
(-0.024496 -0.025016 -0.000077)
(-0.010080 -0.050830 -0.000077)
(-0.000289 -0.074871 -0.000077)
(0.009504 -0.106780 -0.000077)
(0.020106 -0.142975 -0.000077)
(0.022911 -0.167136 -0.000077)
(0.009333 -0.130891 -0.000077)
(-0.008104 -0.068384 -0.000077)
(-159.706582 -0.029885 -0.000165)
(159.712966 0.076295 -0.000165)
(0.602598 -2.382001 -0.000077)
(0.560181 -1.619315 -0.000165)
(-0.048848 1.077178 -0.000252)
(-0.016961 0.248974 -0.000252)
(-0.007840 0.130731 -0.000252)
(-0.003343 0.214473 -0.000252)
(-0.000612 0.166018 -0.000252)
(0.003330 0.139725 -0.000252)
(0.016556 0.125260 -0.000252)
(0.040872 0.151899 -0.000283)
(-0.068558 0.150476 -0.000315)
)
;
    }
}
