/*--------------------------------*- C++ -*---------------------------------*\ 
| ========                 |                                                 | 
| \      /  F ield         | OpenFOAM: The Open Source CFD Toolbox           | 
|  \    /   O peration     | Version:  v1812                                 | 
|   \  /    A nd           | Web:      www.OpenFOAM.com                      | 
|    \/     M anipulation  |                                                 | 
\*--------------------------------------------------------------------------*/ 
FoamFile
{
    version     2.0;
    format      ascii;
    class       volVectorField;
    location    "/home/james/dafoam/myRuns/bezier_coanda_opt/0.00000000001/";
    object      sens_CL_shapey;
}
// * * * * * * * * * * * * * * * * * * * * * * * * * * * * * * * * * * * * * //

dimensions      [0 0 0 0 0 0 0];
internalField   uniform (0 0 0);
boundaryField
{
    allWalls
    {
        type  wall;
        value nonuniform List<vector>
164
(
(0.036495 -0.016783 0.000677)
(0.118405 -0.024656 0.000759)
(0.110243 -0.015513 0.000786)
(-0.172168 0.146758 0.000819)
(-0.425616 0.351182 0.000857)
(-0.272201 0.285999 0.000901)
(-0.073297 0.153250 0.000950)
(-0.040695 0.136611 0.001004)
(-0.027634 0.072426 0.001063)
(-0.032402 0.117748 0.001125)
(-0.036303 0.162369 0.001960)
(-0.027116 0.168929 0.002961)
(-0.028403 0.211224 0.003375)
(-0.021398 0.217395 0.003820)
(-0.017507 0.245577 0.004288)
(-0.011696 0.266299 0.004765)
(-0.006137 0.304897 0.005884)
(0.000917 0.372652 0.007153)
(0.010524 0.463509 0.007856)
(0.024087 0.569599 0.008061)
(0.033951 0.564146 0.007230)
(0.042674 0.547050 0.004142)
(0.056563 0.633045 0.001164)
(0.071380 0.710912 0.000019)
(0.082779 0.741279 -0.000768)
(0.091509 0.734081 -0.001519)
(0.104325 0.765294 -0.001889)
(0.119459 0.808265 -0.001750)
(0.135238 0.847859 -0.001738)
(0.151738 0.885052 -0.001708)
(0.168556 0.916848 -0.001629)
(0.185327 0.941981 -0.001524)
(0.201749 0.958675 -0.001127)
(0.216755 0.963142 -0.000785)
(0.224798 0.932263 -0.000785)
(0.219016 0.848688 -0.000785)
(0.215063 0.766179 -0.000785)
(0.254120 0.846477 -0.000785)
(0.273514 0.888511 -0.000785)
(0.059754 0.069876 -0.000419)
(0.045152 -0.087648 -0.000501)
(-0.331463 -0.112853 -0.000205)
(-0.564437 0.433899 0.000010)
(-0.259818 1.121301 0.000207)
(0.327049 -0.305986 0.000054)
(0.443485 -1.245502 0.000042)
(0.091510 -0.465890 0.000095)
(-0.063922 0.011984 -0.000386)
(-0.033812 -0.006461 -0.000260)
(-0.020450 0.004541 0.000193)
(-0.033154 0.105650 0.000105)
(-0.043261 0.198897 0.000069)
(-0.043063 0.242086 0.000012)
(-0.039626 0.265095 0.000153)
(-0.035575 0.282061 0.000329)
(-0.031590 0.301046 0.000309)
(-0.024873 0.285960 0.000233)
(-0.023277 0.351799 0.000083)
(-0.016750 0.331780 -0.000929)
(-0.006970 0.339958 -0.002067)
(-0.002608 0.415540 -0.002384)
(0.004843 0.334564 -0.002486)
(0.009094 0.258204 -0.002463)
(0.011599 0.209651 -0.002378)
(0.016482 0.202783 -0.001044)
(0.026950 0.231587 0.000227)
(0.030793 0.216969 0.000221)
(0.031571 0.178321 0.000233)
(0.011894 0.078961 0.000256)
(0.037458 0.115163 0.000260)
(0.116631 0.311989 0.000276)
(0.099850 0.220824 0.000323)
(0.001362 -0.021149 0.000369)
(-0.071129 -0.145672 0.000413)
(-0.138148 -0.228219 0.000454)
(-0.121124 -0.214823 0.000491)
(0.076317 -0.025117 0.000525)
(0.283332 0.193414 0.000555)
(0.181137 0.211819 0.000581)
(-0.004214 0.059964 0.000600)
(-0.029333 0.137279 -0.000064)
(0.048117 1.021540 -0.000219)
(0.007116 0.894839 -0.000362)
(0.015701 1.203338 -0.000362)
(0.044831 1.985182 -0.000362)
(0.054497 1.895991 -0.000362)
(0.093400 2.074755 -0.000362)
(0.404408 9.203656 -0.000362)
(1.368222 25.595213 -0.000362)
(-56.339469 14.397789 -0.000241)
(838.313322 -1071.409786 -0.000241)
(-61.042770 -16.984743 -0.000119)
(-806.602514 775.575535 -0.000241)
(29.595702 615.912088 -0.000119)
(30.672455 242.871225 -0.000119)
(15.394095 90.791159 -0.000119)
(4.726366 21.731033 -0.000119)
(2.553513 4.345627 -0.000119)
(1.473806 2.900019 -0.000119)
(-0.668979 -2.857950 -0.000119)
(0.776582 1.468482 -0.000119)
(-0.965965 -1.482093 -0.000079)
(1.273340 2.294317 -0.000038)
(-0.458661 0.355983 -0.000038)
(-2.452380 -2.605614 -0.000038)
(-1.534050 -0.895324 -0.000038)
(-2.311960 -1.755738 -0.000038)
(0.690883 1.143768 -0.000038)
(5.690502 5.062601 -0.000038)
(1.006896 0.160057 -0.000038)
(14.674961 12.613433 -0.000038)
(-2.488331 2.209793 -0.000038)
(-28.825784 -24.912659 -0.000038)
(-1.515017 -16.499278 -0.000038)
(-30.237239 -22.687774 -0.000038)
(-40.221167 28.894106 -0.000038)
(-24.554880 40.456592 -0.000038)
(-20.113409 -23.423324 -0.000038)
(27.141070 -16.853119 -0.000038)
(39.451402 0.798578 -0.000038)
(16.134113 0.089530 -0.000038)
(2.167346 -0.111544 -0.000038)
(-1.907239 -0.961480 -0.000038)
(0.172347 -1.634377 -0.000038)
(3.121599 -1.840317 -0.000038)
(2.235717 -1.947646 -0.000038)
(1.953894 -1.857677 -0.000038)
(3.133552 -1.701606 -0.000038)
(3.632603 -1.227843 -0.000038)
(2.306924 -0.334459 -0.000038)
(1.345600 0.251731 -0.000038)
(1.109098 0.292130 -0.000038)
(0.902206 0.163764 -0.000038)
(0.537349 0.113939 -0.000038)
(0.250294 0.083346 -0.000038)
(0.090557 0.050512 -0.000038)
(0.006985 0.030464 -0.000038)
(-0.034528 0.023361 -0.000038)
(-0.052632 0.022495 -0.000038)
(-0.059755 0.024358 -0.000038)
(-0.061797 0.027310 -0.000038)
(-0.060832 0.030539 -0.000038)
(-0.057479 0.031584 -0.000079)
(-0.052764 0.031794 -0.000119)
(-0.047373 0.032618 -0.000119)
(-0.041158 0.031414 -0.000119)
(-0.034640 0.027616 -0.000119)
(-0.028319 0.020813 -0.000119)
(-0.022718 0.012045 -0.000119)
(-0.018284 0.004316 -0.000119)
(-0.014999 0.000355 -0.000119)
(-159.717097 -0.000721 -0.000241)
(159.702238 -0.000240 -0.000362)
(-0.077416 0.106469 -0.000241)
(-0.082550 0.183894 -0.000241)
(-0.014374 0.157060 -0.000362)
(-0.012139 0.203145 -0.000362)
(-0.007901 0.214665 -0.000362)
(-0.003201 0.168665 -0.000362)
(-0.002976 0.147498 -0.000362)
(0.002082 0.121192 -0.000362)
(0.008885 0.105914 -0.000362)
(0.029404 0.125708 -0.000573)
(0.109807 -0.119524 -0.000785)
)
;
    }
}
