/*--------------------------------*- C++ -*---------------------------------*\ 
| ========                 |                                                 | 
| \      /  F ield         | OpenFOAM: The Open Source CFD Toolbox           | 
|  \    /   O peration     | Version:  v1812                                 | 
|   \  /    A nd           | Web:      www.OpenFOAM.com                      | 
|    \/     M anipulation  |                                                 | 
\*--------------------------------------------------------------------------*/ 
FoamFile
{
    version     2.0;
    format      ascii;
    class       volVectorField;
    location    "/home/james/dafoam/myRuns/bezier_coanda_opt/0.00000000001/";
    object      sens_CL_shapey;
}
// * * * * * * * * * * * * * * * * * * * * * * * * * * * * * * * * * * * * * //

dimensions      [0 0 0 0 0 0 0];
internalField   uniform (0 0 0);
boundaryField
{
    allWalls
    {
        type  wall;
        value nonuniform List<vector>
164
(
(0.497260 -0.279727 0.001040)
(1.092772 -0.349646 0.001148)
(1.253314 -0.374367 0.001178)
(-0.442228 0.561063 0.001215)
(-2.137989 1.809480 0.001259)
(-1.215720 1.291719 0.001310)
(-0.115617 0.510210 0.001367)
(0.015520 0.349803 0.001429)
(0.159206 -0.355231 0.001497)
(0.104680 -0.270464 0.001571)
(0.020799 -0.020599 0.002684)
(0.022907 -0.012402 0.004011)
(-0.014609 0.153824 0.004533)
(-0.011588 0.161579 0.005094)
(-0.017742 0.258237 0.005682)
(-0.010672 0.263587 0.006276)
(-0.005899 0.331869 0.007365)
(0.002985 0.459185 0.008652)
(0.016305 0.606898 0.009529)
(0.036333 0.777667 0.009711)
(0.044577 0.694076 0.008491)
(0.052988 0.632541 0.003369)
(0.087335 0.975978 -0.001112)
(0.096089 0.980977 -0.001719)
(0.114471 1.046631 -0.002057)
(0.142846 1.209250 -0.003074)
(0.148374 1.138876 -0.003924)
(0.168611 1.197471 -0.003758)
(0.192188 1.272401 -0.002944)
(0.215217 1.333382 -0.002193)
(0.238900 1.388193 -0.002113)
(0.262165 1.431917 -0.002052)
(0.286562 1.470826 -0.001563)
(0.311808 1.505024 -0.001471)
(0.316961 1.438432 -0.001471)
(0.258540 1.124800 -0.001100)
(0.244372 1.006856 -0.001100)
(0.533065 2.122203 -0.001100)
(0.870418 3.539301 -0.001100)
(-0.342103 -1.938727 -0.001100)
(-0.084470 0.011387 -0.000721)
(-0.263656 0.065571 -0.000354)
(-0.131862 0.156033 -0.000931)
(0.056515 0.141203 -0.000960)
(0.098526 -0.221138 -0.000441)
(0.028219 -0.189565 -0.000778)
(-0.047870 0.041031 -0.000757)
(-0.064075 0.141003 -0.000693)
(-0.058694 0.176125 -0.001035)
(-0.056976 0.217886 -0.000902)
(-0.056811 0.261944 -0.000640)
(-0.053752 0.290300 -0.000509)
(-0.049130 0.307376 0.000070)
(-0.043724 0.316972 0.000495)
(-0.038161 0.322458 0.000288)
(-0.032801 0.328417 0.000014)
(-0.026593 0.321012 -0.000340)
(-0.023003 0.355859 -0.000787)
(-0.016724 0.344073 -0.001337)
(-0.008774 0.349379 -0.002215)
(-0.003211 0.376197 -0.002812)
(0.003462 0.301197 -0.002835)
(0.008159 0.248300 -0.002823)
(0.011312 0.211598 -0.002784)
(0.013051 0.175238 -0.000927)
(0.018829 0.179693 0.000872)
(0.022950 0.175255 0.000819)
(0.023501 0.145332 0.000791)
(0.019237 0.107556 0.000780)
(0.025045 0.095443 0.000620)
(0.036865 0.108249 0.000495)
(0.067491 0.146288 0.000560)
(0.051670 0.100128 0.000622)
(-0.024056 -0.047616 0.000681)
(-0.071465 -0.120907 0.000737)
(-0.070636 -0.119618 0.000787)
(0.022288 -0.037585 0.000834)
(0.134326 0.066768 0.000875)
(0.053420 0.013400 0.000910)
(0.051694 -0.178203 0.000936)
(-0.527589 -2.304674 -0.001100)
(0.458344 3.750360 -0.000774)
(0.161855 2.781665 -0.000448)
(-0.011375 1.258798 -0.000448)
(0.035747 2.644307 -0.000448)
(0.095996 3.716386 -0.000448)
(0.155571 4.177533 -0.000448)
(0.598107 13.474378 -0.000448)
(1.935545 39.481638 -0.000448)
(-103.064365 73.792746 -0.000332)
(2611.555957 -2616.769855 -0.000332)
(-112.414879 -12.499244 -0.000217)
(-2569.206668 1803.620697 -0.000332)
(99.078984 1790.765973 -0.000217)
(89.939723 653.004296 -0.000217)
(47.770261 250.415266 -0.000217)
(13.397016 62.550442 -0.000217)
(5.588872 6.042621 -0.000217)
(2.884089 6.384297 -0.000217)
(-4.905657 -16.483622 -0.000217)
(-0.848256 -2.471525 -0.000217)
(-4.597749 -8.334865 -0.000154)
(1.564486 3.846983 -0.000092)
(-6.138945 -6.730479 -0.000092)
(-12.993595 -16.057984 -0.000092)
(-11.101349 -11.688541 -0.000092)
(-7.944153 -7.757851 -0.000092)
(-0.803865 -0.667119 -0.000092)
(-21.244943 -18.017091 -0.000092)
(-51.240548 -43.237835 -0.000092)
(84.155751 66.011108 -0.000092)
(-30.812251 -13.697097 -0.000092)
(-204.510431 -158.667181 -0.000092)
(-222.442640 -171.590280 -0.000092)
(-313.124659 -114.248009 -0.000092)
(196.189479 327.678135 -0.000092)
(259.250793 238.667913 -0.000092)
(-17.872602 -98.186914 -0.000092)
(148.246823 -5.468133 -0.000092)
(89.843364 5.961227 -0.000092)
(7.837920 -1.446191 -0.000092)
(-1.614049 -1.513887 -0.000092)
(-2.365859 -0.948505 -0.000092)
(-0.515279 -0.653679 -0.000092)
(8.555697 -1.909211 -0.000092)
(4.466420 -2.099023 -0.000092)
(2.771180 -2.186620 -0.000092)
(5.467176 -2.588531 -0.000092)
(3.639979 -1.579668 -0.000092)
(0.819383 -0.084395 -0.000092)
(-0.176428 0.551553 -0.000092)
(0.085904 0.512998 -0.000092)
(0.224921 0.381119 -0.000092)
(0.060195 0.346217 -0.000092)
(-0.097555 0.301247 -0.000092)
(-0.150931 0.228058 -0.000092)
(-0.158323 0.161387 -0.000092)
(-0.160644 0.114648 -0.000092)
(-0.162755 0.084329 -0.000092)
(-0.155442 0.062979 -0.000092)
(-0.138028 0.047607 -0.000092)
(-0.117325 0.038513 -0.000092)
(-0.096425 0.033186 -0.000154)
(-0.078055 0.029564 -0.000217)
(-0.063327 0.026826 -0.000217)
(-0.050549 0.023638 -0.000217)
(-0.039497 0.019297 -0.000217)
(-0.030304 0.013828 -0.000217)
(-0.023097 0.007483 -0.000217)
(-0.017881 0.002253 -0.000217)
(-0.014381 -0.000918 -0.000217)
(-159.717097 -0.001519 -0.000332)
(159.699808 0.016581 -0.000448)
(-0.009598 -0.114206 -0.000332)
(-0.007223 -0.065297 -0.000332)
(-0.012240 0.062951 -0.000448)
(-0.012728 0.071225 -0.000448)
(-0.006628 0.117451 -0.000448)
(-0.002327 0.092710 -0.000448)
(-0.003934 0.094055 -0.000448)
(-0.000608 0.086586 -0.000448)
(0.002914 0.071248 -0.000448)
(0.021278 0.075911 -0.001067)
(0.067049 -0.043777 -0.001393)
)
;
    }
}
