/*--------------------------------*- C++ -*---------------------------------*\ 
| ========                 |                                                 | 
| \      /  F ield         | OpenFOAM: The Open Source CFD Toolbox           | 
|  \    /   O peration     | Version:  v1812                                 | 
|   \  /    A nd           | Web:      www.OpenFOAM.com                      | 
|    \/     M anipulation  |                                                 | 
\*--------------------------------------------------------------------------*/ 
FoamFile
{
    version     2.0;
    format      ascii;
    class       volVectorField;
    location    "/home/james/dafoam/myRuns/bezier_coanda_opt/0.00000000001/";
    object      sens_CL_shapey;
}
// * * * * * * * * * * * * * * * * * * * * * * * * * * * * * * * * * * * * * //

dimensions      [0 0 0 0 0 0 0];
internalField   uniform (0 0 0);
boundaryField
{
    allWalls
    {
        type  wall;
        value nonuniform List<vector>
188
(
(-0.007494 0.006795 0.000186)
(-0.021584 0.007884 0.000186)
(-0.058898 0.034459 0.000072)
(-0.094884 0.061337 0.000072)
(-0.040436 0.030446 0.000186)
(-0.019248 0.031643 0.000186)
(-0.022215 0.040827 0.000186)
(-0.010009 0.025002 0.000186)
(-0.009783 0.024683 0.000186)
(-0.008097 0.023392 0.000326)
(-0.009211 0.029521 0.000514)
(-0.008346 0.030398 0.000619)
(-0.007700 0.031295 0.000736)
(-0.007589 0.034315 0.000879)
(-0.007708 0.039420 0.001024)
(-0.007503 0.043867 0.001325)
(-0.006909 0.047119 0.001501)
(-0.006197 0.049794 0.001539)
(-0.005469 0.053654 0.001745)
(-0.004836 0.059615 0.001672)
(-0.004033 0.066294 0.001996)
(-0.003021 0.075257 0.002633)
(-0.001699 0.090553 0.002759)
(0.000220 0.106019 0.002277)
(0.003113 0.122944 0.001811)
(0.006826 0.141976 0.001731)
(0.009793 0.142317 0.001520)
(0.012618 0.141509 0.001286)
(0.015657 0.147300 0.001080)
(0.018225 0.149130 0.000552)
(0.020827 0.152728 0.000119)
(0.023254 0.155906 0.000119)
(0.025494 0.158756 0.000119)
(0.027536 0.161178 0.000119)
(0.029449 0.163598 0.000119)
(0.031092 0.165246 -0.000039)
(0.032559 0.166336 -0.000199)
(0.033771 0.166692 -0.000199)
(0.034620 0.166052 -0.000199)
(0.035176 0.164552 -0.000199)
(0.035431 0.162133 -0.000199)
(0.035325 0.158578 -0.000132)
(0.034985 0.154449 -0.000065)
(0.034682 0.150771 -0.000065)
(0.033383 0.142911 -0.000065)
(0.029301 0.123856 -0.000065)
(0.027391 0.114711 -0.000065)
(0.035876 0.151911 -0.000115)
(0.041486 0.178897 -0.000166)
(-0.000755 -0.047464 -0.000166)
(-0.001511 0.003771 -0.000166)
(-0.003475 0.010149 -0.000166)
(-0.004490 0.014281 -0.000115)
(-0.005917 0.019245 -0.000065)
(-0.007787 0.025202 -0.000065)
(-0.009206 0.030395 -0.000065)
(-0.010745 0.038503 -0.000065)
(-0.009727 0.036304 -0.000065)
(-0.004010 0.018165 -0.000132)
(0.000437 0.004594 -0.000199)
(0.002483 -0.005987 -0.000199)
(0.002543 -0.009933 -0.000199)
(-0.001018 0.003242 -0.000199)
(-0.003951 0.016244 -0.000199)
(-0.005038 0.022259 -0.000040)
(-0.006145 0.029877 0.000119)
(-0.007079 0.038151 0.000119)
(-0.007552 0.045372 0.000119)
(-0.007593 0.051428 0.000119)
(-0.007281 0.056545 0.000119)
(-0.006675 0.060971 0.000289)
(-0.005795 0.064421 0.000477)
(-0.004739 0.068022 0.000516)
(-0.003456 0.070550 0.000556)
(-0.002009 0.069042 0.000585)
(-0.000398 0.080798 0.000576)
(0.000716 0.069077 0.000376)
(0.001498 0.045980 0.000248)
(0.002462 0.047549 0.000262)
(0.002993 0.043542 0.000187)
(0.003285 0.037930 0.000013)
(0.003646 0.034440 -0.000063)
(0.004166 0.032927 -0.000008)
(0.003973 0.027360 -0.000017)
(0.004260 0.024913 -0.000023)
(0.004840 0.025377 0.000010)
(0.004550 0.021664 0.000066)
(0.004528 0.019225 0.000096)
(0.004401 0.016743 0.000124)
(0.005218 0.016826 0.000150)
(0.007012 0.017606 0.000174)
(0.007148 0.012524 0.000196)
(0.005435 0.002717 0.000046)
(0.003023 -0.005822 0.000065)
(0.005324 -0.002152 0.000253)
(0.010181 0.013610 0.000223)
(0.004441 0.012065 0.000027)
(0.006055 -0.004042 0.000027)
(0.027149 -0.001120 0.000186)
(0.030079 0.005858 0.000186)
(-0.013797 -0.030904 -0.000166)
(0.010708 0.213614 -0.000166)
(0.005740 0.175291 -0.000166)
(0.004297 0.154675 -0.000166)
(0.006448 0.218103 -0.000166)
(0.008750 0.273882 -0.000166)
(0.010650 0.320174 -0.000166)
(0.013755 0.407090 -0.000166)
(0.019212 0.568802 -0.000166)
(0.024209 0.736074 -0.000133)
(0.025759 0.743599 -0.000100)
(0.038761 1.106770 -0.000100)
(0.164676 3.900843 -0.000100)
(0.275668 7.631276 -0.000100)
(-9.751404 -28.054336 -0.000100)
(154.013913 -270.780307 -0.000100)
(-17.665579 -14.094596 -0.000100)
(-14.901490 -7.155705 -0.000100)
(-15.986915 -27.862998 -0.000100)
(-129.058505 262.458025 -0.000100)
(7.769875 90.612710 -0.000046)
(6.288125 41.086110 0.000009)
(2.452777 16.988684 0.000009)
(0.925919 1.476185 0.000009)
(2.713020 7.725960 0.000009)
(-1.343747 -2.842970 0.000009)
(-0.745814 -2.361929 0.000009)
(-1.461631 -2.350100 0.000009)
(-2.627463 -4.358252 0.000009)
(2.517473 3.177494 0.000009)
(2.988191 3.740964 0.000009)
(3.231596 3.305437 0.000009)
(5.893204 5.521869 0.000009)
(8.787755 7.289456 0.000009)
(18.047522 12.825046 0.000009)
(22.385172 14.017191 0.000009)
(13.021970 7.756453 0.000009)
(8.198752 4.278406 0.000009)
(58.798740 18.187148 0.000009)
(-12.941168 -3.407062 0.000009)
(-180.980185 -37.866727 0.000009)
(-137.686295 -16.741918 0.000009)
(-18.431487 4.402082 0.000009)
(53.322979 -1.468107 0.000009)
(69.433568 -7.725816 0.000009)
(39.952639 -6.892658 0.000009)
(21.578631 -4.367113 0.000009)
(0.960094 -2.169842 0.000009)
(1.293041 -2.421553 0.000009)
(2.173762 -2.506397 0.000009)
(2.063647 -3.234638 0.000009)
(2.477908 -1.877764 0.000009)
(-0.341525 0.395827 0.000009)
(0.577448 0.255594 0.000009)
(0.964684 -0.145306 0.000009)
(0.704238 -0.183196 0.000009)
(0.474374 -0.181075 0.000009)
(0.293385 -0.157728 0.000009)
(0.148227 -0.090657 0.000009)
(0.052334 -0.029788 0.000009)
(0.002020 0.006819 0.000009)
(-0.020078 0.025579 0.000009)
(-0.026830 0.032735 0.000009)
(-0.026254 0.033041 0.000009)
(-0.022867 0.029763 0.000009)
(-0.018704 0.023879 0.000009)
(-0.014689 0.016317 0.000009)
(-0.010033 0.010339 -0.000046)
(-59.802674 0.005519 -0.000100)
(59.796712 0.001192 -0.000100)
(-0.002396 0.003165 -0.000100)
(0.000575 0.001525 -0.000100)
(-0.014514 0.021625 -0.000100)
(-0.025397 0.041549 -0.000100)
(-0.011946 0.029266 -0.000100)
(-0.005465 0.019591 -0.000100)
(-0.003505 0.017486 -0.000100)
(-0.002381 0.015298 -0.000100)
(-0.001647 0.014235 -0.000133)
(-0.001221 0.013325 -0.000166)
(-0.001043 0.012241 -0.000166)
(-0.000956 0.011466 -0.000166)
(-0.000897 0.010959 -0.000166)
(-0.000848 0.010415 -0.000166)
(-0.000628 0.009766 -0.000166)
(-0.000401 0.009184 -0.000166)
(-0.000243 0.009625 -0.000166)
(-0.000093 0.004803 -0.000166)
)
;
    }
}
