/*--------------------------------*- C++ -*---------------------------------*\ 
| ========                 |                                                 | 
| \      /  F ield         | OpenFOAM: The Open Source CFD Toolbox           | 
|  \    /   O peration     | Version:  v1812                                 | 
|   \  /    A nd           | Web:      www.OpenFOAM.com                      | 
|    \/     M anipulation  |                                                 | 
\*--------------------------------------------------------------------------*/ 
FoamFile
{
    version     2.0;
    format      ascii;
    class       volVectorField;
    location    "/home/james/dafoam/myRuns/bezier_coanda_opt/0.00000000001/";
    object      sens_CL_shapey;
}
// * * * * * * * * * * * * * * * * * * * * * * * * * * * * * * * * * * * * * //

dimensions      [0 0 0 0 0 0 0];
internalField   uniform (0 0 0);
boundaryField
{
    allWalls
    {
        type  wall;
        value nonuniform List<vector>
188
(
(-0.013433 0.006334 0.000119)
(-0.023366 0.008161 0.000047)
(-0.043909 0.025316 0.000047)
(-0.067391 0.041705 0.000119)
(-0.055253 0.043252 0.000119)
(-0.028347 0.028509 0.000146)
(-0.005666 0.015494 0.000207)
(-0.014592 0.028545 0.000180)
(-0.014172 0.028542 0.000119)
(-0.011292 0.026579 0.000364)
(-0.013807 0.036585 0.000665)
(-0.010621 0.032107 0.000732)
(-0.007884 0.027918 0.000865)
(-0.008384 0.031908 0.001015)
(-0.009516 0.040871 0.001135)
(-0.009679 0.046716 0.001327)
(-0.008106 0.045459 0.001529)
(-0.007777 0.050352 0.001801)
(-0.007293 0.055821 0.002064)
(-0.006617 0.061757 0.002271)
(-0.005735 0.068025 0.002591)
(-0.004814 0.079635 0.002868)
(-0.003233 0.083262 0.003131)
(-0.001039 0.105914 0.002652)
(0.002172 0.142843 0.001985)
(0.006308 0.148205 0.001871)
(0.010350 0.146990 0.001592)
(0.014522 0.152659 0.001287)
(0.018587 0.157652 0.001019)
(0.022461 0.161749 0.000410)
(0.026223 0.166003 -0.000077)
(0.029872 0.170357 -0.000084)
(0.033270 0.174057 -0.000091)
(0.036352 0.176977 -0.000097)
(0.039112 0.179207 -0.000102)
(0.041526 0.180492 -0.000055)
(0.043499 0.180717 -0.000006)
(0.044931 0.179699 -0.000006)
(0.045827 0.177282 -0.000006)
(0.046249 0.173785 -0.000006)
(0.046188 0.169163 -0.000006)
(0.045291 0.162175 0.000069)
(0.043388 0.152298 0.000144)
(0.041582 0.143426 0.000144)
(0.041542 0.141004 0.000144)
(0.039354 0.131546 0.000144)
(0.027758 0.091693 0.000144)
(0.029259 0.099227 -0.000017)
(0.043747 0.157873 -0.000179)
(0.002371 -0.032364 -0.000179)
(0.000412 -0.007549 -0.000179)
(-0.001837 0.003646 -0.000179)
(-0.002352 0.004152 -0.000017)
(-0.003223 0.007628 0.000144)
(-0.005692 0.014416 0.000144)
(-0.008578 0.022362 0.000144)
(-0.011556 0.031525 0.000144)
(-0.013902 0.040351 0.000144)
(-0.016206 0.051584 0.000069)
(-0.015666 0.053697 -0.000006)
(-0.007515 0.032423 -0.000006)
(0.004089 -0.003077 -0.000006)
(0.010030 -0.029161 -0.000006)
(0.007207 -0.027649 -0.000006)
(0.001639 -0.011393 -0.000057)
(-0.001878 0.002724 -0.000106)
(-0.004293 0.015900 -0.000103)
(-0.006289 0.029695 -0.000100)
(-0.007351 0.040986 -0.000097)
(-0.007662 0.050166 -0.000094)
(-0.007368 0.057632 0.000090)
(-0.006574 0.063502 0.000295)
(-0.005391 0.068344 0.000342)
(-0.003884 0.073001 0.000390)
(-0.002107 0.075430 0.000423)
(-0.000221 0.078798 0.000411)
(0.001424 0.074435 0.000384)
(0.002015 0.050735 0.000375)
(0.003211 0.046882 0.000300)
(0.003274 0.041730 0.000221)
(0.003802 0.036897 0.000164)
(0.005255 0.042563 0.000120)
(0.004404 0.029969 0.000117)
(0.004518 0.026371 0.000099)
(0.005600 0.028742 0.000085)
(0.005143 0.023875 0.000075)
(0.004717 0.019729 0.000018)
(0.005049 0.019388 -0.000040)
(0.005436 0.018832 -0.000050)
(0.006558 0.018783 -0.000002)
(0.006914 0.015299 0.000085)
(0.007287 0.009490 0.000119)
(0.005241 -0.000452 0.000019)
(0.003384 -0.005946 -0.000147)
(0.007522 0.002608 -0.000151)
(0.009816 0.016155 0.000015)
(0.003596 0.009711 0.000119)
(0.005322 -0.004617 0.000021)
(0.021601 0.000551 0.000021)
(0.021390 0.005378 0.000119)
(-0.016196 -0.045419 -0.000179)
(0.009009 0.164229 -0.000179)
(0.005135 0.149343 -0.000179)
(0.003349 0.135379 -0.000179)
(0.005129 0.190362 -0.000179)
(0.007533 0.251263 -0.000179)
(0.009165 0.288174 -0.000179)
(0.011902 0.368400 -0.000179)
(0.016971 0.523985 -0.000179)
(0.021492 0.681966 -0.000143)
(0.023072 0.693222 -0.000108)
(0.035293 1.035760 -0.000108)
(0.152421 3.698943 -0.000108)
(0.268780 7.291025 -0.000108)
(-10.400394 -29.028871 -0.000108)
(124.658377 -255.012615 -0.000108)
(-19.316804 -13.889090 -0.000108)
(-14.439182 -6.932725 -0.000108)
(-16.113851 -28.972164 -0.000108)
(-99.719611 251.199938 -0.000108)
(6.992287 79.742080 -0.000048)
(5.405339 36.857245 0.000012)
(2.226760 15.730391 0.000012)
(0.854736 1.431003 0.000012)
(2.400089 6.798551 0.000012)
(-1.227646 -2.492386 0.000012)
(-0.581890 -1.856187 0.000012)
(-1.397989 -2.159717 0.000012)
(-2.803071 -4.590248 0.000012)
(2.135072 2.617492 0.000012)
(2.613119 3.269612 0.000012)
(2.591609 2.625414 0.000012)
(4.716979 4.431738 0.000012)
(6.640130 5.570581 0.000012)
(17.370510 12.142035 0.000012)
(26.160087 16.248242 0.000012)
(16.561392 9.883895 0.000012)
(10.792099 5.600063 0.000012)
(35.508922 12.967235 0.000012)
(48.486538 14.132288 0.000012)
(-62.030404 -14.870736 0.000012)
(-205.522138 -34.004387 0.000012)
(-124.180252 -11.109121 0.000012)
(8.437043 5.147674 0.000012)
(63.978005 -4.490950 0.000012)
(73.191333 -10.475674 0.000012)
(35.080966 -8.115090 0.000012)
(16.883601 -4.208661 0.000012)
(-0.707329 -1.773839 0.000012)
(1.808457 -3.134211 0.000012)
(4.442265 -4.130067 0.000012)
(1.992512 -2.735066 0.000012)
(0.394113 -0.223155 0.000012)
(0.631406 0.414907 0.000012)
(1.311184 -0.029540 0.000012)
(1.072961 -0.206354 0.000012)
(0.694290 -0.217392 0.000012)
(0.438802 -0.216613 0.000012)
(0.312423 -0.225720 0.000012)
(0.189729 -0.162247 0.000012)
(0.060578 -0.038943 0.000012)
(0.006303 0.009817 0.000012)
(-0.017476 0.033062 0.000012)
(-0.028972 0.049968 0.000012)
(-0.029783 0.053409 0.000012)
(-0.025136 0.046461 0.000012)
(-0.018749 0.032880 0.000012)
(-0.011833 0.019075 -0.000048)
(-59.802036 0.008924 -0.000108)
(59.795366 0.001825 -0.000108)
(-0.003021 0.004477 -0.000108)
(0.001840 0.000005 -0.000108)
(-0.019891 0.052736 -0.000108)
(-0.033660 0.090389 -0.000108)
(-0.013524 0.049530 -0.000108)
(-0.006470 0.025991 -0.000108)
(-0.004458 0.018358 -0.000108)
(-0.003215 0.012680 -0.000108)
(-0.002380 0.011086 -0.000143)
(-0.001803 0.008868 -0.000179)
(-0.001453 0.007190 -0.000179)
(-0.001252 0.007197 -0.000179)
(-0.001043 0.005702 -0.000179)
(-0.000889 0.004526 -0.000179)
(-0.000578 0.003068 -0.000179)
(-0.000316 0.003457 -0.000179)
(-0.000138 0.004774 -0.000179)
(0.001038 -0.007082 -0.000179)
)
;
    }
}
