/*--------------------------------*- C++ -*---------------------------------*\ 
| ========                 |                                                 | 
| \      /  F ield         | OpenFOAM: The Open Source CFD Toolbox           | 
|  \    /   O peration     | Version:  v1812                                 | 
|   \  /    A nd           | Web:      www.OpenFOAM.com                      | 
|    \/     M anipulation  |                                                 | 
\*--------------------------------------------------------------------------*/ 
FoamFile
{
    version     2.0;
    format      ascii;
    class       volVectorField;
    location    "/home/james/dafoam/myRuns/bezier_coanda_opt/0.00000000001/";
    object      sens_CL_shapey;
}
// * * * * * * * * * * * * * * * * * * * * * * * * * * * * * * * * * * * * * //

dimensions      [0 0 0 0 0 0 0];
internalField   uniform (0 0 0);
boundaryField
{
    allWalls
    {
        type  wall;
        value nonuniform List<vector>
198
(
(0.001917 -0.001115 0.000144)
(0.003060 -0.001524 0.000144)
(0.003818 -0.001479 0.000144)
(0.003869 -0.000246 0.000144)
(0.000187 0.003534 0.000144)
(-0.009464 0.010686 0.000144)
(-0.024053 0.021398 0.000144)
(-0.031959 0.027793 0.000144)
(-0.038276 0.036276 0.000144)
(-0.048903 0.053013 0.000144)
(-0.025228 0.028215 0.000144)
(-0.007258 0.012195 0.000144)
(-0.021982 0.042487 0.000394)
(-0.023666 0.053327 0.000670)
(-0.017609 0.048870 0.000725)
(-0.013422 0.046347 0.000787)
(-0.011517 0.049070 0.000856)
(-0.010485 0.055226 0.000931)
(-0.009023 0.061238 0.001011)
(-0.007651 0.071461 0.001589)
(-0.005926 0.083986 0.002280)
(-0.003226 0.093963 0.002582)
(0.000407 0.108321 0.002866)
(0.005016 0.127592 0.003106)
(0.012111 0.161234 0.003157)
(0.020005 0.188943 0.002211)
(0.025134 0.188571 0.001064)
(0.029171 0.187509 0.000617)
(0.031380 0.181887 0.000275)
(0.035091 0.187262 0.000024)
(0.037236 0.188095 -0.000151)
(0.038295 0.184472 -0.000219)
(0.040784 0.190264 -0.000216)
(0.040949 0.185986 -0.000216)
(0.041363 0.184103 -0.000216)
(0.041297 0.180888 -0.000216)
(0.040836 0.176618 -0.000216)
(0.039928 0.170945 -0.000247)
(0.038670 0.164186 -0.000274)
(0.037125 0.156546 -0.000264)
(0.035301 0.147997 -0.000256)
(0.033320 0.138969 -0.000247)
(0.031216 0.129517 -0.000240)
(0.029117 0.120251 -0.000232)
(0.026488 0.109021 -0.000226)
(0.021912 0.090028 -0.000220)
(0.019558 0.081779 -0.000214)
(0.026922 0.118483 -0.000209)
(0.031464 0.138975 -0.000205)
(-0.006501 -0.063660 -0.000186)
(0.007498 -0.040873 -0.000200)
(-0.002560 0.008763 -0.000200)
(-0.001467 0.001324 -0.000192)
(0.001715 -0.009375 -0.000182)
(0.000734 -0.006326 -0.000172)
(-0.000753 -0.003052 -0.000160)
(-0.004479 0.004131 -0.000148)
(-0.010637 0.016311 -0.000134)
(-0.020391 0.035541 -0.000118)
(-0.035257 0.064829 -0.000101)
(-0.051571 0.098848 -0.000083)
(-0.074728 0.158631 -0.000064)
(-0.080030 0.184689 -0.000135)
(-0.001190 0.042899 -0.000216)
(0.072185 -0.139083 -0.000216)
(0.062685 -0.177530 -0.000216)
(0.041352 -0.147065 -0.000216)
(0.027613 -0.116118 -0.000216)
(0.014171 -0.073367 -0.000019)
(0.003011 -0.028788 0.000188)
(-0.004654 0.011675 0.000200)
(-0.008291 0.042836 0.000194)
(-0.008543 0.066012 0.000163)
(-0.006288 0.083541 0.000103)
(-0.002244 0.097273 0.000013)
(0.001518 0.089721 -0.000342)
(0.005895 0.091119 -0.000652)
(0.011654 0.114024 -0.000652)
(0.008314 0.067767 -0.000632)
(0.004856 0.029769 -0.000602)
(0.008748 0.047042 -0.000567)
(0.008672 0.041270 -0.000106)
(0.009021 0.037000 0.000339)
(0.013310 0.047480 0.000343)
(0.010029 0.033549 0.000347)
(0.007072 0.020774 0.000352)
(0.008602 0.023886 0.000357)
(0.007725 0.019807 0.000243)
(0.007816 0.018021 0.000128)
(0.009901 0.019168 0.000130)
(0.005392 0.007947 0.000132)
(0.003917 -0.001342 0.000133)
(0.002691 -0.005106 0.000135)
(-0.002468 -0.011443 0.000137)
(0.007792 0.000048 0.000138)
(0.016953 0.010747 0.000139)
(0.015852 0.014092 0.000140)
(0.009488 0.013615 0.000141)
(0.001730 0.005989 0.000142)
(-0.000141 -0.000409 0.000143)
(-0.014133 -0.044336 -0.000169)
(0.011126 0.181513 -0.000169)
(0.005756 0.162926 -0.000169)
(0.003399 0.134446 -0.000169)
(0.005144 0.189527 -0.000169)
(0.007883 0.254528 -0.000169)
(0.009333 0.280776 -0.000169)
(0.011358 0.348678 -0.000169)
(0.015213 0.480247 -0.000169)
(0.018750 0.610211 -0.000169)
(0.019964 0.649278 -0.000169)
(0.028373 0.910011 -0.000169)
(0.099628 2.573915 -0.000117)
(0.149376 4.884113 -0.000066)
(-11.627598 -6.379033 -0.000066)
(94.961640 -156.798353 -0.000066)
(-9.819126 -6.612619 -0.000066)
(-1.387549 -3.141080 -0.000066)
(-7.954978 -7.176762 -0.000066)
(-81.314409 133.116445 -0.000066)
(2.138384 66.276809 -0.000066)
(3.539098 27.614012 -0.000066)
(1.664511 11.495224 -0.000066)
(0.793996 3.543804 -0.000036)
(0.417759 1.893761 -0.000007)
(0.150463 0.373440 -0.000007)
(-0.441850 -0.808809 -0.000007)
(-0.803962 -1.639466 -0.000007)
(0.505375 0.826426 -0.000007)
(1.341467 1.858844 -0.000007)
(5.338164 7.522961 -0.000007)
(11.717286 15.586208 -0.000007)
(13.127500 16.519534 -0.000007)
(19.718423 21.832432 -0.000007)
(32.013276 31.633239 -0.000007)
(22.343312 19.509277 -0.000007)
(5.706403 1.736616 -0.000007)
(-39.080574 -26.651257 -0.000007)
(-95.086138 -57.197589 -0.000007)
(-87.840929 -46.965654 -0.000007)
(-46.596625 -19.805426 -0.000007)
(8.765616 3.427439 -0.000007)
(30.395635 9.053912 -0.000007)
(23.845574 5.626550 -0.000007)
(28.184948 6.644751 -0.000007)
(24.581332 4.576389 -0.000007)
(16.746942 2.479485 -0.000007)
(3.338487 -0.745947 -0.000007)
(-1.389453 -2.091349 -0.000007)
(2.603497 -1.322416 -0.000007)
(3.880430 -1.389474 -0.000007)
(3.605320 -1.528967 -0.000007)
(1.349693 -0.631763 -0.000007)
(-1.174179 0.131624 -0.000007)
(-0.202374 0.377775 -0.000007)
(0.522300 0.322222 -0.000007)
(0.594928 0.205374 -0.000007)
(0.493214 0.089348 -0.000007)
(0.368534 0.024368 -0.000007)
(0.341677 -0.050317 -0.000007)
(0.322190 -0.094426 -0.000007)
(0.212904 -0.064525 -0.000007)
(0.128915 -0.043845 -0.000007)
(0.059475 -0.014454 -0.000007)
(-0.004251 0.027817 -0.000007)
(-0.028854 0.042970 -0.000007)
(-0.033043 0.043325 -0.000007)
(-0.035421 0.046188 -0.000007)
(-0.032286 0.045048 -0.000007)
(-0.026128 0.040628 -0.000007)
(-0.019977 0.035254 -0.000007)
(-0.015246 0.029747 -0.000007)
(-0.011862 0.023716 -0.000007)
(-0.008881 0.017081 -0.000036)
(-0.006029 0.010159 -0.000066)
(-0.003494 0.002117 -0.000066)
(-0.002476 -0.002424 -0.000066)
(-0.002971 -0.001829 -0.000066)
(-59.760424 0.000270 -0.000066)
(59.759659 0.001404 -0.000066)
(0.002667 0.000341 -0.000066)
(0.005619 -0.003778 -0.000066)
(-0.042685 0.153387 -0.000066)
(-0.045300 0.185208 -0.000066)
(-0.001091 0.050628 -0.000066)
(-0.004349 0.041344 -0.000117)
(-0.003511 0.031897 -0.000169)
(-0.002011 0.022659 -0.000169)
(-0.001189 0.016142 -0.000169)
(-0.000640 0.012210 -0.000169)
(-0.000219 0.010521 -0.000169)
(0.000009 0.005189 -0.000169)
(0.000080 0.000529 -0.000169)
(0.000313 -0.002901 -0.000169)
(0.000511 -0.007033 -0.000169)
(0.000222 0.001598 -0.000169)
(0.000709 0.008697 -0.000169)
(0.008014 -0.039212 -0.000183)
)
;
    }
}
