/*--------------------------------*- C++ -*---------------------------------*\ 
| ========                 |                                                 | 
| \      /  F ield         | OpenFOAM: The Open Source CFD Toolbox           | 
|  \    /   O peration     | Version:  v1812                                 | 
|   \  /    A nd           | Web:      www.OpenFOAM.com                      | 
|    \/     M anipulation  |                                                 | 
\*--------------------------------------------------------------------------*/ 
FoamFile
{
    version     2.0;
    format      ascii;
    class       volVectorField;
    location    "/home/james/dafoam/myRuns/bezier_coanda_opt/0.00000000001/";
    object      sens_CL_shapey;
}
// * * * * * * * * * * * * * * * * * * * * * * * * * * * * * * * * * * * * * //

dimensions      [0 0 0 0 0 0 0];
internalField   uniform (0 0 0);
boundaryField
{
    allWalls
    {
        type  wall;
        value nonuniform List<vector>
198
(
(0.000352 0.000047 0.000113)
(-0.002282 0.000376 0.000115)
(-0.006594 0.003336 0.000115)
(-0.017245 0.011093 0.000114)
(-0.025710 0.019825 0.000114)
(-0.028266 0.025930 0.000114)
(-0.029819 0.032255 0.000114)
(-0.023011 0.027790 0.000113)
(-0.010091 0.015884 0.000113)
(-0.007216 0.016704 0.000113)
(-0.012798 0.028340 0.000113)
(-0.012650 0.029521 0.000113)
(-0.010274 0.028083 0.000291)
(-0.010548 0.033460 0.000482)
(-0.009965 0.036909 0.000510)
(-0.009098 0.038786 0.000541)
(-0.008150 0.040181 0.000575)
(-0.008033 0.046193 0.000612)
(-0.007568 0.051360 0.000650)
(-0.006883 0.056800 0.001135)
(-0.006212 0.064135 0.001730)
(-0.005283 0.074635 0.001993)
(-0.003916 0.087460 0.002257)
(-0.001669 0.108882 0.002503)
(0.002167 0.142143 0.002617)
(0.006691 0.149510 0.001885)
(0.011347 0.147775 0.000962)
(0.016141 0.157072 0.000614)
(0.020491 0.161183 0.000342)
(0.024750 0.166298 0.000138)
(0.028691 0.170446 -0.000007)
(0.032318 0.174008 -0.000078)
(0.035500 0.176450 -0.000090)
(0.038188 0.177706 -0.000090)
(0.040312 0.177582 -0.000090)
(0.041820 0.175908 -0.000090)
(0.042641 0.172475 -0.000090)
(0.042686 0.166975 -0.000110)
(0.042032 0.159745 -0.000130)
(0.040814 0.151259 -0.000130)
(0.039082 0.141647 -0.000130)
(0.036763 0.130567 -0.000130)
(0.033720 0.117420 -0.000130)
(0.030435 0.104107 -0.000130)
(0.028195 0.095053 -0.000104)
(0.025753 0.085623 -0.000077)
(0.018962 0.060926 -0.000077)
(0.016562 0.055113 -0.000077)
(0.020223 0.071839 -0.000077)
(0.004586 -0.004269 -0.000077)
(-0.005542 0.025003 -0.000092)
(-0.008945 0.026052 -0.000077)
(-0.010508 0.030433 -0.000077)
(-0.013702 0.039307 -0.000077)
(-0.013695 0.039141 -0.000077)
(-0.011581 0.034115 -0.000077)
(-0.010623 0.035362 -0.000104)
(-0.004670 0.019633 -0.000130)
(-0.001271 0.007064 -0.000130)
(-0.003957 0.015693 -0.000130)
(-0.005533 0.021406 -0.000130)
(-0.004020 0.015657 -0.000130)
(-0.003638 0.013708 -0.000110)
(-0.004537 0.016689 -0.000090)
(-0.005704 0.021503 -0.000090)
(-0.006822 0.027316 -0.000090)
(-0.007866 0.034238 -0.000090)
(-0.008695 0.041836 -0.000090)
(-0.009172 0.049585 0.000080)
(-0.009160 0.056732 0.000255)
(-0.008722 0.063884 0.000257)
(-0.007813 0.070375 0.000243)
(-0.006478 0.077212 0.000209)
(-0.004685 0.083389 0.000151)
(-0.002418 0.077107 0.000068)
(0.000239 0.100721 -0.000248)
(0.001697 0.088203 -0.000536)
(0.002840 0.054514 -0.000562)
(0.004047 0.056946 -0.000566)
(0.004458 0.047562 -0.000556)
(0.005002 0.043724 -0.000537)
(0.005467 0.039357 -0.000153)
(0.006221 0.037589 0.000225)
(0.007225 0.037393 0.000234)
(0.004496 0.021807 0.000243)
(0.005196 0.020837 0.000253)
(0.011832 0.041089 0.000262)
(0.008646 0.027342 0.000156)
(0.005298 0.013310 0.000050)
(0.008204 0.018186 0.000058)
(0.007340 0.013336 0.000065)
(0.002997 0.002038 0.000072)
(0.000611 -0.005567 0.000079)
(-0.002483 -0.010408 0.000085)
(0.003136 -0.004275 0.000090)
(0.016191 0.010635 0.000095)
(0.019742 0.019100 0.000100)
(0.011448 0.018691 0.000104)
(0.001109 0.007042 0.000108)
(0.000748 -0.000042 0.000110)
(-0.003935 0.008532 -0.000092)
(0.003052 0.107348 -0.000106)
(0.001994 0.098749 -0.000106)
(0.002659 0.108197 -0.000106)
(0.004259 0.155712 -0.000106)
(0.005886 0.187218 -0.000106)
(0.007589 0.226920 -0.000106)
(0.009933 0.288538 -0.000106)
(0.013250 0.387408 -0.000106)
(0.016684 0.498071 -0.000106)
(0.017513 0.490200 -0.000106)
(0.025920 0.657249 -0.000106)
(0.095956 2.220136 -0.000073)
(0.162816 4.565789 -0.000040)
(-11.169793 -7.916688 -0.000040)
(57.700992 -135.687954 -0.000040)
(-10.112504 -5.346623 -0.000040)
(-1.466565 -2.275769 -0.000040)
(-8.242942 -9.055434 -0.000040)
(-45.156474 118.801034 -0.000040)
(1.394346 51.962773 -0.000040)
(2.402170 21.076610 -0.000040)
(1.339380 9.738653 -0.000040)
(0.623812 3.174576 -0.000021)
(0.286748 1.198574 -0.000001)
(0.213091 0.670416 -0.000001)
(-0.485450 -0.988868 -0.000001)
(-0.706003 -1.405585 -0.000001)
(0.017220 0.066581 -0.000001)
(0.279678 0.271524 -0.000001)
(1.559869 2.179689 -0.000001)
(4.717302 6.314659 -0.000001)
(10.287819 12.461560 -0.000001)
(12.046154 13.641776 -0.000001)
(17.465339 17.442964 -0.000001)
(24.062877 22.411235 -0.000001)
(31.274163 24.362171 -0.000001)
(14.901304 10.668261 -0.000001)
(-54.963067 -34.442324 -0.000001)
(-99.119355 -58.009082 -0.000001)
(-67.155865 -34.449690 -0.000001)
(-17.294312 -6.904404 -0.000001)
(18.548610 6.167551 -0.000001)
(26.850391 7.730950 -0.000001)
(20.539583 4.694195 -0.000001)
(21.697522 4.187879 -0.000001)
(15.876757 2.017533 -0.000001)
(4.239963 -0.719195 -0.000001)
(-2.037144 -1.903250 -0.000001)
(1.127470 -1.198031 -0.000001)
(3.485072 -1.125879 -0.000001)
(2.956461 -1.578678 -0.000001)
(1.755321 -1.031550 -0.000001)
(-0.097594 -0.373392 -0.000001)
(-0.284466 0.151469 -0.000001)
(0.303466 0.230027 -0.000001)
(0.405454 0.225897 -0.000001)
(0.278922 0.180310 -0.000001)
(0.218314 0.099334 -0.000001)
(0.178678 0.034679 -0.000001)
(0.126489 0.007932 -0.000001)
(0.069467 0.006829 -0.000001)
(0.027605 0.011167 -0.000001)
(0.006590 0.015095 -0.000001)
(-0.004108 0.015965 -0.000001)
(-0.009859 0.014708 -0.000001)
(-0.011410 0.012375 -0.000001)
(-0.009834 0.009618 -0.000001)
(-0.007941 0.007742 -0.000001)
(-0.006443 0.006474 -0.000001)
(-0.005388 0.005594 -0.000001)
(-0.004722 0.005331 -0.000001)
(-0.004344 0.005596 -0.000001)
(-0.003314 0.004738 -0.000021)
(-0.002604 0.005234 -0.000040)
(-0.002147 0.003272 -0.000040)
(-0.001040 -0.000497 -0.000040)
(-0.000523 -0.001452 -0.000040)
(-59.771634 -0.000162 -0.000040)
(59.772226 0.000808 -0.000040)
(0.000560 0.001942 -0.000040)
(0.000078 0.013127 -0.000040)
(0.049308 -0.213174 -0.000040)
(0.045574 -0.161633 -0.000040)
(-0.004971 0.091403 -0.000040)
(-0.001607 0.034575 -0.000073)
(-0.000417 0.004909 -0.000106)
(-0.000277 0.004975 -0.000106)
(-0.000579 0.017271 -0.000106)
(-0.000567 0.021467 -0.000106)
(-0.000506 0.021373 -0.000106)
(-0.000619 0.021614 -0.000106)
(-0.000749 0.022453 -0.000106)
(-0.000724 0.022662 -0.000106)
(-0.000635 0.024009 -0.000106)
(-0.000421 0.022122 -0.000106)
(-0.000376 0.020562 -0.000106)
(-0.002215 0.025937 -0.000106)
)
;
    }
}
