/*--------------------------------*- C++ -*---------------------------------*\ 
| ========                 |                                                 | 
| \      /  F ield         | OpenFOAM: The Open Source CFD Toolbox           | 
|  \    /   O peration     | Version:  v1812                                 | 
|   \  /    A nd           | Web:      www.OpenFOAM.com                      | 
|    \/     M anipulation  |                                                 | 
\*--------------------------------------------------------------------------*/ 
FoamFile
{
    version     2.0;
    format      ascii;
    class       volVectorField;
    location    "/home/james/dafoam/myRuns/bezier_coanda_opt/0.00000000001/";
    object      sens_CL_shapey;
}
// * * * * * * * * * * * * * * * * * * * * * * * * * * * * * * * * * * * * * //

dimensions      [0 0 0 0 0 0 0];
internalField   uniform (0 0 0);
boundaryField
{
    allWalls
    {
        type  wall;
        value nonuniform List<vector>
198
(
(-0.037328 0.031423 -0.000058)
(-0.522486 0.069336 -0.000055)
(-0.431454 0.056522 -0.000054)
(0.120548 -0.058890 -0.000053)
(-0.276528 0.110267 -0.000052)
(0.046044 -0.147407 -0.000051)
(0.453072 -0.269239 -0.000050)
(0.334998 -0.291172 -0.000048)
(0.267039 -0.209558 -0.000047)
(-0.003003 -0.094170 -0.000045)
(0.003024 -0.013438 -0.000044)
(-0.136494 0.264270 -0.000042)
(-0.067351 0.134458 -0.000040)
(-0.053484 0.103198 -0.000038)
(-0.040970 0.104863 -0.000034)
(-0.035730 0.116995 -0.000032)
(-0.021450 0.089516 -0.000030)
(-0.020512 0.100623 -0.000029)
(-0.021974 0.114575 -0.000088)
(0.009009 -0.034749 -0.000194)
(0.008744 -0.013875 -0.000299)
(-0.031076 0.197567 -0.000427)
(-0.027715 0.168766 -0.000585)
(-0.040766 0.246323 -0.000773)
(-0.044304 0.254728 -0.000823)
(-0.022402 0.294822 -0.000717)
(-0.012170 -0.200082 -0.000573)
(-0.012874 -0.617489 -0.000387)
(-0.029483 -0.367469 -0.000205)
(-0.066968 -0.377185 -0.000043)
(-0.126540 -0.490163 0.000089)
(-0.190857 -0.605385 0.000337)
(-0.241029 -0.665701 0.000517)
(-0.276301 -0.685560 0.000495)
(-0.277364 -0.627929 0.000473)
(-0.233787 -0.478672 0.000450)
(-0.161811 -0.286593 0.000427)
(-0.075306 -0.087062 0.000314)
(0.036668 0.129925 0.000212)
(0.203842 0.407915 0.000211)
(0.340194 0.598711 0.000210)
(0.295440 0.471799 0.000209)
(0.207034 0.281814 0.000208)
(0.154929 0.162648 0.000207)
(0.088837 0.033206 0.000206)
(0.048884 -0.035396 0.000205)
(0.023400 -0.065804 0.000205)
(0.009303 -0.053810 0.000204)
(-0.000359 -0.026676 0.000204)
(-0.011980 -0.057487 0.000205)
(0.258649 -1.716584 0.000170)
(-0.250470 0.963564 0.000208)
(-0.012537 0.236510 0.000205)
(0.162475 -0.368204 0.000202)
(0.039957 -0.117564 0.000198)
(0.055761 -0.146518 0.000194)
(0.134131 -0.379461 0.000190)
(0.054604 -0.340163 0.000185)
(0.193995 -0.162344 0.000180)
(0.167284 -0.156521 0.000175)
(-0.082384 -0.175287 0.000169)
(-0.063631 -0.038474 0.000163)
(-0.116230 0.213214 0.000277)
(-0.196552 0.411829 0.000405)
(-0.236283 0.552327 0.000426)
(-0.153309 0.652276 0.000448)
(0.119373 0.046267 0.000472)
(0.273315 -0.840743 0.000496)
(0.147938 -0.769895 0.000628)
(0.039723 -0.331664 0.000777)
(0.007113 -0.129931 0.000830)
(-0.000758 -0.044631 0.000867)
(-0.007004 0.034510 0.000875)
(-0.007961 0.093729 0.000841)
(-0.004306 0.140698 0.000644)
(0.001447 0.170369 0.000388)
(0.007119 0.164135 0.000233)
(0.005824 0.095238 0.000127)
(0.008308 0.074542 0.000064)
(0.014659 0.104497 0.000033)
(0.012435 0.075559 -0.000103)
(0.014185 0.070257 -0.000217)
(0.022488 0.095286 -0.000195)
(0.017400 0.065818 -0.000176)
(0.010316 0.033889 -0.000158)
(0.015222 0.045823 -0.000143)
(0.015145 0.041245 -0.000130)
(0.017596 0.044245 -0.000086)
(0.013424 0.032951 -0.000048)
(0.015627 0.024351 -0.000049)
(0.027386 0.028202 -0.000050)
(0.014185 -0.007438 -0.000052)
(0.008042 -0.021503 -0.000053)
(0.024137 0.004093 -0.000054)
(0.039707 0.033182 -0.000056)
(0.037129 0.057584 -0.000057)
(-0.015192 0.056657 -0.000058)
(-0.076169 0.025232 -0.000059)
(-0.050715 0.005509 -0.000059)
(0.107068 0.013650 -0.000060)
(-0.021891 -0.068946 0.000169)
(-0.021457 -0.023311 0.000131)
(-0.017801 0.024012 0.000131)
(-0.011536 0.082279 0.000131)
(-0.004420 0.126662 0.000131)
(0.001396 0.161106 0.000131)
(0.006071 0.186561 0.000131)
(0.011267 0.206650 0.000131)
(0.020111 0.258939 0.000131)
(0.032741 0.313867 0.000131)
(0.045693 -0.039495 0.000131)
(0.082369 -0.807923 0.000131)
(0.181955 1.205162 0.000097)
(0.675750 8.675499 0.000062)
(-19.101070 -16.974580 0.000062)
(24.745125 -251.689610 0.000062)
(-27.392250 -3.250081 0.000062)
(-8.239135 1.322949 0.000062)
(-22.759944 -24.666039 0.000062)
(-4.134765 239.539815 0.000062)
(-2.470800 44.123834 0.000062)
(-0.309449 18.935087 0.000062)
(-0.055320 8.686478 0.000062)
(0.289556 3.731201 0.000043)
(-0.304478 -1.217774 0.000023)
(0.159553 -1.457594 0.000023)
(0.340195 -0.082251 0.000023)
(0.390809 -0.280679 0.000023)
(1.600308 2.693579 0.000023)
(3.150644 5.967471 0.000023)
(1.799788 4.320517 0.000023)
(0.166527 1.263784 0.000023)
(-0.030568 0.976170 0.000023)
(-0.526260 0.184158 0.000023)
(-0.231792 0.487595 0.000023)
(-0.909170 -0.275197 0.000023)
(-0.738145 -0.119606 0.000023)
(-0.906565 -0.196743 0.000023)
(-1.243356 -0.427540 0.000023)
(-1.470583 -0.557885 0.000023)
(-0.063598 0.069630 0.000023)
(1.263379 0.623018 0.000023)
(0.647737 0.251745 0.000023)
(0.572786 0.067973 0.000023)
(0.823137 0.048289 0.000023)
(0.876174 -0.039448 0.000023)
(0.681999 -0.155860 0.000023)
(0.678536 -0.219371 0.000023)
(0.987925 -0.212878 0.000023)
(1.338751 -0.234811 0.000023)
(1.317073 -0.234289 0.000023)
(0.841367 -0.198926 0.000023)
(0.647620 -0.160550 0.000023)
(0.474328 -0.116704 0.000023)
(0.333944 -0.074235 0.000023)
(0.210160 -0.032450 0.000023)
(0.099432 0.009658 0.000023)
(-0.009863 0.057226 0.000023)
(-0.118597 0.111967 0.000023)
(-0.210460 0.166718 0.000023)
(-0.257094 0.211854 0.000023)
(-0.330526 0.289531 0.000023)
(-0.479365 0.436949 0.000023)
(-0.471245 0.457560 0.000023)
(-0.637590 0.688361 0.000023)
(-0.905829 1.053279 0.000023)
(-0.775449 0.997788 0.000023)
(0.180663 -0.268509 0.000023)
(1.134212 -1.717906 0.000023)
(1.870497 -3.329432 0.000023)
(2.846367 -5.769693 0.000023)
(2.858589 -6.555278 0.000023)
(2.228983 -6.108084 0.000023)
(1.471988 -4.405158 0.000043)
(0.441844 -1.329976 0.000062)
(-0.175079 0.547342 0.000062)
(-0.251717 1.852106 0.000062)
(-0.558406 1.962132 0.000062)
(-60.063911 0.518721 0.000062)
(59.339907 0.659888 0.000062)
(-0.530400 0.738901 0.000062)
(0.808000 -1.252206 0.000062)
(-3.504118 16.932565 0.000062)
(-4.296479 13.631953 0.000062)
(0.441469 -6.401222 0.000062)
(0.125374 -1.546979 0.000097)
(0.012287 0.056310 0.000131)
(0.013262 -0.207751 0.000131)
(0.010025 -0.129010 0.000131)
(0.007476 -0.023654 0.000131)
(0.008285 -0.077806 0.000131)
(0.006570 -0.045763 0.000131)
(0.006525 -0.009796 0.000131)
(0.012376 -0.208176 0.000131)
(0.011674 -0.308902 0.000131)
(-0.034942 0.373195 0.000131)
(-0.032392 0.900503 0.000131)
(0.369152 -1.772041 0.000131)
)
;
    }
}
