/*--------------------------------*- C++ -*---------------------------------*\ 
| ========                 |                                                 | 
| \      /  F ield         | OpenFOAM: The Open Source CFD Toolbox           | 
|  \    /   O peration     | Version:  v1812                                 | 
|   \  /    A nd           | Web:      www.OpenFOAM.com                      | 
|    \/     M anipulation  |                                                 | 
\*--------------------------------------------------------------------------*/ 
FoamFile
{
    version     2.0;
    format      ascii;
    class       volVectorField;
    location    "/home/james/dafoam/myRuns/bezier_coanda_opt/0.00000000001/";
    object      sens_CL_shapey;
}
// * * * * * * * * * * * * * * * * * * * * * * * * * * * * * * * * * * * * * //

dimensions      [0 0 0 0 0 0 0];
internalField   uniform (0 0 0);
boundaryField
{
    allWalls
    {
        type  wall;
        value nonuniform List<vector>
198
(
(0.011764 -0.003427 0.000116)
(0.008646 -0.003554 0.000117)
(0.002619 0.000405 0.000117)
(-0.019635 0.014553 0.000117)
(-0.038990 0.031497 0.000117)
(-0.044578 0.042097 0.000118)
(-0.047356 0.051533 0.000118)
(-0.019475 0.023287 0.000119)
(-0.001451 0.009358 0.000120)
(-0.015293 0.035921 0.000121)
(-0.013080 0.031778 0.000122)
(-0.008872 0.022702 0.000123)
(-0.009022 0.026788 0.000299)
(-0.010075 0.035797 0.000487)
(-0.008781 0.035741 0.000515)
(-0.007103 0.034194 0.000545)
(-0.007463 0.040576 0.000579)
(-0.007154 0.045475 0.000615)
(-0.006854 0.051978 0.000652)
(-0.006295 0.058390 0.001126)
(-0.005556 0.065594 0.001704)
(-0.004621 0.077202 0.001955)
(-0.003295 0.096121 0.002203)
(-0.001017 0.106624 0.002432)
(0.003087 0.139336 0.002531)
(0.007689 0.161853 0.001801)
(0.011775 0.154947 0.000887)
(0.016234 0.163215 0.000545)
(0.020380 0.169202 0.000279)
(0.024183 0.173339 0.000081)
(0.027798 0.177807 -0.000059)
(0.031036 0.181182 -0.000122)
(0.033891 0.183681 -0.000128)
(0.036285 0.184956 -0.000128)
(0.038171 0.184885 -0.000128)
(0.039512 0.183320 -0.000128)
(0.040264 0.180118 -0.000128)
(0.040381 0.175102 -0.000137)
(0.039904 0.168459 -0.000146)
(0.038947 0.160615 -0.000146)
(0.037566 0.151759 -0.000146)
(0.035566 0.141080 -0.000146)
(0.032884 0.128258 -0.000146)
(0.030288 0.116507 -0.000146)
(0.029133 0.110941 -0.000117)
(0.026810 0.101265 -0.000087)
(0.018192 0.067037 -0.000087)
(0.019582 0.078147 -0.000087)
(0.031371 0.129375 -0.000087)
(-0.001660 -0.040897 -0.000087)
(-0.006676 0.032510 -0.000099)
(-0.009595 0.027668 -0.000087)
(-0.009605 0.028804 -0.000087)
(-0.009155 0.028675 -0.000087)
(-0.009685 0.031965 -0.000087)
(-0.005899 0.020351 -0.000087)
(-0.004863 0.017588 -0.000117)
(-0.007601 0.028931 -0.000146)
(-0.008466 0.031808 -0.000146)
(-0.006850 0.025974 -0.000146)
(-0.006549 0.025000 -0.000146)
(-0.007302 0.028063 -0.000146)
(-0.007994 0.031332 -0.000137)
(-0.008578 0.034744 -0.000128)
(-0.009179 0.038940 -0.000128)
(-0.009723 0.043871 -0.000128)
(-0.010108 0.049231 -0.000128)
(-0.010247 0.054714 -0.000128)
(-0.010094 0.060117 0.000038)
(-0.009581 0.065026 0.000211)
(-0.008765 0.069894 0.000217)
(-0.007634 0.074464 0.000211)
(-0.006232 0.079667 0.000187)
(-0.004452 0.083199 0.000144)
(-0.002415 0.083655 0.000078)
(-0.000250 0.091786 -0.000236)
(0.001514 0.081482 -0.000527)
(0.002701 0.061675 -0.000546)
(0.003111 0.050544 -0.000545)
(0.003763 0.045257 -0.000533)
(0.004640 0.044918 -0.000514)
(0.004964 0.038767 -0.000120)
(0.005329 0.035123 0.000265)
(0.006482 0.036243 0.000269)
(0.006181 0.031105 0.000274)
(0.003124 0.015081 0.000279)
(0.004940 0.019022 0.000285)
(0.012074 0.038373 0.000166)
(0.008748 0.025400 0.000048)
(0.005216 0.011645 0.000057)
(0.007580 0.014795 0.000065)
(0.003175 0.003874 0.000073)
(0.001046 -0.003101 0.000080)
(-0.002297 -0.008700 0.000087)
(0.000868 -0.005567 0.000093)
(0.012302 0.007488 0.000098)
(0.017687 0.015833 0.000103)
(0.012347 0.015994 0.000107)
(0.005260 0.003893 0.000111)
(0.010792 -0.003775 0.000114)
(-0.012996 -0.036064 -0.000099)
(0.009943 0.163842 -0.000111)
(0.005022 0.143692 -0.000111)
(0.003110 0.123464 -0.000111)
(0.004809 0.175831 -0.000111)
(0.007316 0.231696 -0.000111)
(0.008839 0.261736 -0.000111)
(0.010975 0.327138 -0.000111)
(0.014739 0.446384 -0.000111)
(0.018244 0.565874 -0.000111)
(0.019285 0.588060 -0.000111)
(0.027690 0.819180 -0.000111)
(0.096467 2.411143 -0.000077)
(0.144737 4.610143 -0.000043)
(-10.957093 -5.923377 -0.000043)
(89.617398 -152.473605 -0.000043)
(-9.717834 -6.334389 -0.000043)
(-1.426358 -3.072695 -0.000043)
(-7.454807 -6.691975 -0.000043)
(-76.378542 129.865154 -0.000043)
(2.000672 63.838810 -0.000043)
(3.192956 25.410638 -0.000043)
(1.709036 11.665335 -0.000043)
(0.699493 3.519515 -0.000022)
(0.250593 1.106728 -0.000001)
(0.188445 0.574178 -0.000001)
(-0.567766 -1.151775 -0.000001)
(-0.706558 -1.342501 -0.000001)
(0.475663 0.927481 -0.000001)
(1.398525 2.026357 -0.000001)
(5.432606 7.711220 -0.000001)
(12.007446 15.956716 -0.000001)
(13.445520 16.930011 -0.000001)
(20.022810 22.156337 -0.000001)
(32.688362 32.184504 -0.000001)
(19.834992 16.908161 -0.000001)
(-2.871536 -5.421600 -0.000001)
(-48.727975 -33.341169 -0.000001)
(-94.960696 -56.718228 -0.000001)
(-76.942482 -40.119230 -0.000001)
(-35.737141 -13.860105 -0.000001)
(16.507971 7.018147 -0.000001)
(33.885967 10.708875 -0.000001)
(23.055265 5.413230 -0.000001)
(26.853734 6.078639 -0.000001)
(21.185574 3.596877 -0.000001)
(12.115457 1.792213 -0.000001)
(1.577486 -0.815728 -0.000001)
(-1.017715 -1.752805 -0.000001)
(3.047006 -1.404279 -0.000001)
(3.432219 -1.918737 -0.000001)
(2.611419 -1.829241 -0.000001)
(1.191954 -0.963495 -0.000001)
(-1.030364 -0.033042 -0.000001)
(-0.146681 0.356971 -0.000001)
(0.401815 0.388908 -0.000001)
(0.348760 0.338375 -0.000001)
(0.245026 0.229752 -0.000001)
(0.207481 0.123751 -0.000001)
(0.155833 0.066726 -0.000001)
(0.082590 0.049672 -0.000001)
(0.031381 0.042494 -0.000001)
(0.000591 0.037043 -0.000001)
(-0.014456 0.034617 -0.000001)
(-0.018482 0.032207 -0.000001)
(-0.017452 0.028629 -0.000001)
(-0.013778 0.022983 -0.000001)
(-0.009307 0.015744 -0.000001)
(-0.004980 0.007837 -0.000001)
(-0.001299 0.000578 -0.000001)
(0.001442 -0.005288 -0.000001)
(0.003144 -0.009862 -0.000001)
(0.004150 -0.014465 -0.000001)
(0.004361 -0.016918 -0.000022)
(0.003856 -0.017818 -0.000043)
(0.004900 -0.027854 -0.000043)
(0.005231 -0.030938 -0.000043)
(0.002480 -0.019801 -0.000043)
(-59.768225 -0.006587 -0.000043)
(59.771591 0.000291 -0.000043)
(0.002676 0.000520 -0.000043)
(0.000681 0.020263 -0.000043)
(0.086248 -0.389061 -0.000043)
(0.080113 -0.278104 -0.000043)
(-0.009876 0.183405 -0.000043)
(-0.004116 0.069599 -0.000077)
(-0.000904 0.010208 -0.000111)
(0.000049 -0.005422 -0.000111)
(-0.000574 0.012512 -0.000111)
(-0.000714 0.023090 -0.000111)
(-0.000574 0.020811 -0.000111)
(-0.000664 0.021030 -0.000111)
(-0.000777 0.021191 -0.000111)
(-0.000760 0.023107 -0.000111)
(-0.000518 0.021262 -0.000111)
(-0.000262 0.021375 -0.000111)
(-0.000703 0.026047 -0.000111)
(-0.003854 0.035063 -0.000111)
)
;
    }
}
