/*--------------------------------*- C++ -*----------------------------------*\
  =========                 |
  \\      /  F ield         | OpenFOAM: The Open Source CFD Toolbox
   \\    /   O peration     | Website:  https://openfoam.org
    \\  /    A nd           | Version:  8
     \\/     M anipulation  |
\*---------------------------------------------------------------------------*/
FoamFile
{
    version     2.0;
    format      ascii;
    class       volScalarField;
    location    "0.31";
    object      nut;
}
// * * * * * * * * * * * * * * * * * * * * * * * * * * * * * * * * * * * * * //

dimensions      [0 2 -1 0 0 0 0];

internalField   nonuniform List<scalar> 
112642
(
2.7874e-08
2.78776e-08
2.78701e-08
2.78679e-08
2.78665e-08
2.78656e-08
2.7865e-08
2.78646e-08
2.78643e-08
2.78641e-08
2.78639e-08
2.78638e-08
2.78637e-08
2.78636e-08
2.78635e-08
2.78634e-08
2.78634e-08
2.78633e-08
2.78632e-08
2.78632e-08
2.78631e-08
2.78631e-08
2.7863e-08
2.7863e-08
2.7863e-08
2.78629e-08
2.78629e-08
2.78629e-08
2.78629e-08
2.78628e-08
2.78628e-08
2.78628e-08
2.78628e-08
2.78628e-08
2.78628e-08
2.78627e-08
2.78627e-08
2.78627e-08
2.78627e-08
2.78627e-08
2.78627e-08
2.78627e-08
2.78627e-08
2.78626e-08
2.78626e-08
2.78626e-08
2.78626e-08
2.78626e-08
2.78626e-08
2.78626e-08
2.78626e-08
2.78626e-08
2.78626e-08
2.78626e-08
2.78626e-08
2.78626e-08
2.78626e-08
2.78626e-08
2.78626e-08
2.78625e-08
2.78625e-08
2.78625e-08
2.78625e-08
2.78625e-08
2.78625e-08
2.78625e-08
2.78625e-08
2.78625e-08
2.78625e-08
2.78625e-08
2.78625e-08
2.78625e-08
2.78625e-08
2.78625e-08
2.78625e-08
2.78625e-08
2.78625e-08
2.78625e-08
2.78625e-08
2.78625e-08
2.78625e-08
2.78625e-08
2.78625e-08
2.78625e-08
2.78625e-08
2.78625e-08
2.78625e-08
2.78625e-08
2.78625e-08
2.78625e-08
2.78625e-08
2.78625e-08
2.78625e-08
2.78625e-08
2.78625e-08
2.78625e-08
2.78625e-08
2.78625e-08
2.78625e-08
2.78625e-08
2.78625e-08
2.78625e-08
2.78625e-08
2.78625e-08
2.78625e-08
2.78625e-08
2.78625e-08
2.78625e-08
2.78625e-08
2.78625e-08
2.78625e-08
2.78625e-08
2.78625e-08
2.78625e-08
2.78625e-08
2.78625e-08
2.78625e-08
2.78626e-08
2.78626e-08
2.78626e-08
2.78626e-08
2.78626e-08
2.78626e-08
2.78626e-08
2.78626e-08
2.78626e-08
2.78626e-08
2.78626e-08
2.78626e-08
2.78626e-08
2.78626e-08
2.78626e-08
2.78626e-08
2.78626e-08
2.78626e-08
2.78626e-08
2.78626e-08
2.78627e-08
2.78627e-08
2.78627e-08
2.78627e-08
2.78627e-08
2.78627e-08
2.78627e-08
2.78627e-08
2.78627e-08
2.78627e-08
2.78628e-08
2.78628e-08
2.78628e-08
2.78628e-08
2.78628e-08
2.78628e-08
2.78628e-08
2.78629e-08
2.78629e-08
2.78629e-08
2.78629e-08
2.78629e-08
2.7863e-08
2.7863e-08
2.7863e-08
2.7863e-08
2.78631e-08
2.78631e-08
2.78631e-08
2.78632e-08
2.78632e-08
2.78632e-08
2.78633e-08
2.78633e-08
2.78634e-08
2.78634e-08
2.78635e-08
2.78635e-08
2.78636e-08
2.78636e-08
2.78637e-08
2.78638e-08
2.78639e-08
2.7864e-08
2.78641e-08
2.78642e-08
2.78643e-08
2.78645e-08
2.78646e-08
2.78648e-08
2.7865e-08
2.78653e-08
2.78656e-08
2.78659e-08
2.78664e-08
2.7867e-08
2.78677e-08
2.78689e-08
2.78706e-08
2.78734e-08
2.78778e-08
2.78927e-08
2.78859e-08
2.7887e-08
2.79061e-08
2.78869e-08
2.78799e-08
2.78756e-08
2.78729e-08
2.78712e-08
2.787e-08
2.78691e-08
2.78684e-08
2.78679e-08
2.78674e-08
2.78671e-08
2.78667e-08
2.78665e-08
2.78662e-08
2.7866e-08
2.78658e-08
2.78657e-08
2.78655e-08
2.78654e-08
2.78652e-08
2.78651e-08
2.7865e-08
2.78649e-08
2.78648e-08
2.78647e-08
2.78646e-08
2.78646e-08
2.78645e-08
2.78644e-08
2.78644e-08
2.78643e-08
2.78642e-08
2.78642e-08
2.78641e-08
2.78641e-08
2.78641e-08
2.7864e-08
2.7864e-08
2.78639e-08
2.78639e-08
2.78639e-08
2.78638e-08
2.78638e-08
2.78638e-08
2.78638e-08
2.78637e-08
2.78637e-08
2.78637e-08
2.78637e-08
2.78636e-08
2.78636e-08
2.78636e-08
2.78636e-08
2.78636e-08
2.78636e-08
2.78635e-08
2.78635e-08
2.78635e-08
2.78635e-08
2.78635e-08
2.78635e-08
2.78635e-08
2.78635e-08
2.78635e-08
2.78634e-08
2.78634e-08
2.78634e-08
2.78634e-08
2.78634e-08
2.78634e-08
2.78634e-08
2.78634e-08
2.78634e-08
2.78634e-08
2.78634e-08
2.78634e-08
2.78634e-08
2.78634e-08
2.78634e-08
2.78634e-08
2.78634e-08
2.78634e-08
2.78634e-08
2.78634e-08
2.78634e-08
2.78634e-08
2.78634e-08
2.78634e-08
2.78634e-08
2.78634e-08
2.78634e-08
2.78634e-08
2.78634e-08
2.78634e-08
2.78634e-08
2.78634e-08
2.78634e-08
2.78634e-08
2.78634e-08
2.78634e-08
2.78634e-08
2.78634e-08
2.78634e-08
2.78634e-08
2.78634e-08
2.78634e-08
2.78634e-08
2.78634e-08
2.78634e-08
2.78634e-08
2.78635e-08
2.78635e-08
2.78635e-08
2.78635e-08
2.78635e-08
2.78635e-08
2.78635e-08
2.78635e-08
2.78635e-08
2.78636e-08
2.78636e-08
2.78636e-08
2.78636e-08
2.78636e-08
2.78636e-08
2.78637e-08
2.78637e-08
2.78637e-08
2.78637e-08
2.78637e-08
2.78638e-08
2.78638e-08
2.78638e-08
2.78638e-08
2.78638e-08
2.78639e-08
2.78639e-08
2.78639e-08
2.7864e-08
2.7864e-08
2.7864e-08
2.7864e-08
2.78641e-08
2.78641e-08
2.78642e-08
2.78642e-08
2.78642e-08
2.78643e-08
2.78643e-08
2.78644e-08
2.78644e-08
2.78645e-08
2.78645e-08
2.78646e-08
2.78646e-08
2.78647e-08
2.78648e-08
2.78648e-08
2.78649e-08
2.7865e-08
2.78651e-08
2.78652e-08
2.78653e-08
2.78654e-08
2.78655e-08
2.78656e-08
2.78657e-08
2.78658e-08
2.78659e-08
2.78661e-08
2.78662e-08
2.78664e-08
2.78666e-08
2.78668e-08
2.7867e-08
2.78672e-08
2.78674e-08
2.78677e-08
2.7868e-08
2.78683e-08
2.78687e-08
2.78691e-08
2.78695e-08
2.787e-08
2.78705e-08
2.78712e-08
2.78719e-08
2.78728e-08
2.78739e-08
2.78753e-08
2.7877e-08
2.78794e-08
2.78827e-08
2.7888e-08
2.78964e-08
2.791e-08
2.79476e-08
2.79109e-08
2.78956e-08
2.79324e-08
2.79027e-08
2.78914e-08
2.78844e-08
2.78801e-08
2.78773e-08
2.78754e-08
2.78739e-08
2.78727e-08
2.78718e-08
2.78711e-08
2.78705e-08
2.787e-08
2.78695e-08
2.78691e-08
2.78688e-08
2.78685e-08
2.78682e-08
2.78679e-08
2.78677e-08
2.78675e-08
2.78673e-08
2.78671e-08
2.78669e-08
2.78668e-08
2.78666e-08
2.78665e-08
2.78663e-08
2.78662e-08
2.78661e-08
2.7866e-08
2.78659e-08
2.78658e-08
2.78657e-08
2.78656e-08
2.78656e-08
2.78655e-08
2.78654e-08
2.78654e-08
2.78653e-08
2.78652e-08
2.78652e-08
2.78651e-08
2.78651e-08
2.7865e-08
2.7865e-08
2.78649e-08
2.78649e-08
2.78649e-08
2.78648e-08
2.78648e-08
2.78647e-08
2.78647e-08
2.78647e-08
2.78647e-08
2.78646e-08
2.78646e-08
2.78646e-08
2.78646e-08
2.78645e-08
2.78645e-08
2.78645e-08
2.78645e-08
2.78645e-08
2.78644e-08
2.78644e-08
2.78644e-08
2.78644e-08
2.78644e-08
2.78644e-08
2.78644e-08
2.78644e-08
2.78643e-08
2.78643e-08
2.78643e-08
2.78643e-08
2.78643e-08
2.78643e-08
2.78643e-08
2.78643e-08
2.78643e-08
2.78643e-08
2.78643e-08
2.78643e-08
2.78643e-08
2.78643e-08
2.78643e-08
2.78643e-08
2.78643e-08
2.78643e-08
2.78643e-08
2.78643e-08
2.78643e-08
2.78643e-08
2.78643e-08
2.78643e-08
2.78643e-08
2.78643e-08
2.78643e-08
2.78643e-08
2.78643e-08
2.78643e-08
2.78643e-08
2.78643e-08
2.78644e-08
2.78644e-08
2.78644e-08
2.78644e-08
2.78644e-08
2.78644e-08
2.78644e-08
2.78644e-08
2.78645e-08
2.78645e-08
2.78645e-08
2.78645e-08
2.78645e-08
2.78645e-08
2.78646e-08
2.78646e-08
2.78646e-08
2.78646e-08
2.78647e-08
2.78647e-08
2.78647e-08
2.78647e-08
2.78648e-08
2.78648e-08
2.78648e-08
2.78649e-08
2.78649e-08
2.78649e-08
2.7865e-08
2.7865e-08
2.78651e-08
2.78651e-08
2.78651e-08
2.78652e-08
2.78652e-08
2.78653e-08
2.78653e-08
2.78654e-08
2.78655e-08
2.78655e-08
2.78656e-08
2.78656e-08
2.78657e-08
2.78658e-08
2.78658e-08
2.78659e-08
2.7866e-08
2.78661e-08
2.78662e-08
2.78663e-08
2.78664e-08
2.78665e-08
2.78666e-08
2.78667e-08
2.78668e-08
2.78669e-08
2.78671e-08
2.78672e-08
2.78673e-08
2.78675e-08
2.78677e-08
2.78678e-08
2.7868e-08
2.78682e-08
2.78684e-08
2.78687e-08
2.78689e-08
2.78692e-08
2.78694e-08
2.78697e-08
2.78701e-08
2.78704e-08
2.78708e-08
2.78712e-08
2.78716e-08
2.78721e-08
2.78726e-08
2.78732e-08
2.78738e-08
2.78745e-08
2.78753e-08
2.78763e-08
2.78773e-08
2.78786e-08
2.788e-08
2.78818e-08
2.78841e-08
2.7887e-08
2.78908e-08
2.78961e-08
2.79044e-08
2.79179e-08
2.79396e-08
2.79975e-08
2.79271e-08
2.79026e-08
2.79569e-08
2.79177e-08
2.79026e-08
2.78932e-08
2.78873e-08
2.78835e-08
2.78808e-08
2.78788e-08
2.78771e-08
2.78759e-08
2.78749e-08
2.7874e-08
2.78732e-08
2.78726e-08
2.7872e-08
2.78716e-08
2.78711e-08
2.78707e-08
2.78704e-08
2.787e-08
2.78697e-08
2.78695e-08
2.78692e-08
2.7869e-08
2.78688e-08
2.78686e-08
2.78684e-08
2.78682e-08
2.7868e-08
2.78679e-08
2.78677e-08
2.78676e-08
2.78674e-08
2.78673e-08
2.78672e-08
2.78671e-08
2.7867e-08
2.78669e-08
2.78668e-08
2.78667e-08
2.78666e-08
2.78665e-08
2.78665e-08
2.78664e-08
2.78663e-08
2.78663e-08
2.78662e-08
2.78661e-08
2.78661e-08
2.7866e-08
2.7866e-08
2.78659e-08
2.78659e-08
2.78658e-08
2.78658e-08
2.78658e-08
2.78657e-08
2.78657e-08
2.78657e-08
2.78656e-08
2.78656e-08
2.78656e-08
2.78655e-08
2.78655e-08
2.78655e-08
2.78655e-08
2.78655e-08
2.78654e-08
2.78654e-08
2.78654e-08
2.78654e-08
2.78654e-08
2.78653e-08
2.78653e-08
2.78653e-08
2.78653e-08
2.78653e-08
2.78653e-08
2.78653e-08
2.78653e-08
2.78653e-08
2.78653e-08
2.78652e-08
2.78652e-08
2.78652e-08
2.78652e-08
2.78652e-08
2.78652e-08
2.78652e-08
2.78652e-08
2.78652e-08
2.78652e-08
2.78652e-08
2.78652e-08
2.78653e-08
2.78653e-08
2.78653e-08
2.78653e-08
2.78653e-08
2.78653e-08
2.78653e-08
2.78653e-08
2.78653e-08
2.78653e-08
2.78654e-08
2.78654e-08
2.78654e-08
2.78654e-08
2.78654e-08
2.78654e-08
2.78655e-08
2.78655e-08
2.78655e-08
2.78655e-08
2.78655e-08
2.78656e-08
2.78656e-08
2.78656e-08
2.78656e-08
2.78657e-08
2.78657e-08
2.78657e-08
2.78658e-08
2.78658e-08
2.78659e-08
2.78659e-08
2.78659e-08
2.7866e-08
2.7866e-08
2.78661e-08
2.78661e-08
2.78662e-08
2.78663e-08
2.78663e-08
2.78664e-08
2.78664e-08
2.78665e-08
2.78666e-08
2.78666e-08
2.78667e-08
2.78668e-08
2.78668e-08
2.78669e-08
2.7867e-08
2.78671e-08
2.78672e-08
2.78673e-08
2.78674e-08
2.78675e-08
2.78676e-08
2.78677e-08
2.78678e-08
2.7868e-08
2.78681e-08
2.78682e-08
2.78684e-08
2.78685e-08
2.78687e-08
2.78688e-08
2.7869e-08
2.78692e-08
2.78694e-08
2.78696e-08
2.78698e-08
2.78701e-08
2.78703e-08
2.78706e-08
2.78709e-08
2.78711e-08
2.78715e-08
2.78718e-08
2.78722e-08
2.78725e-08
2.78729e-08
2.78734e-08
2.78738e-08
2.78744e-08
2.78749e-08
2.78755e-08
2.78762e-08
2.78769e-08
2.78777e-08
2.78786e-08
2.78796e-08
2.78807e-08
2.7882e-08
2.78835e-08
2.78852e-08
2.78872e-08
2.78897e-08
2.78928e-08
2.78968e-08
2.7902e-08
2.79092e-08
2.79203e-08
2.79383e-08
2.79673e-08
2.80437e-08
2.79403e-08
2.79115e-08
2.79796e-08
2.79323e-08
2.79136e-08
2.79018e-08
2.78946e-08
2.78898e-08
2.78863e-08
2.78837e-08
2.78816e-08
2.788e-08
2.78787e-08
2.78775e-08
2.78766e-08
2.78757e-08
2.7875e-08
2.78744e-08
2.78738e-08
2.78733e-08
2.78729e-08
2.78725e-08
2.78721e-08
2.78717e-08
2.78714e-08
2.78711e-08
2.78708e-08
2.78705e-08
2.78703e-08
2.78701e-08
2.78699e-08
2.78696e-08
2.78695e-08
2.78693e-08
2.78691e-08
2.7869e-08
2.78688e-08
2.78687e-08
2.78685e-08
2.78684e-08
2.78683e-08
2.78682e-08
2.78681e-08
2.7868e-08
2.78679e-08
2.78678e-08
2.78677e-08
2.78676e-08
2.78675e-08
2.78674e-08
2.78674e-08
2.78673e-08
2.78672e-08
2.78672e-08
2.78671e-08
2.7867e-08
2.7867e-08
2.78669e-08
2.78669e-08
2.78668e-08
2.78668e-08
2.78668e-08
2.78667e-08
2.78667e-08
2.78666e-08
2.78666e-08
2.78666e-08
2.78666e-08
2.78665e-08
2.78665e-08
2.78665e-08
2.78665e-08
2.78664e-08
2.78664e-08
2.78664e-08
2.78664e-08
2.78663e-08
2.78663e-08
2.78663e-08
2.78663e-08
2.78663e-08
2.78663e-08
2.78663e-08
2.78663e-08
2.78663e-08
2.78662e-08
2.78662e-08
2.78662e-08
2.78662e-08
2.78662e-08
2.78662e-08
2.78662e-08
2.78662e-08
2.78662e-08
2.78662e-08
2.78663e-08
2.78663e-08
2.78663e-08
2.78663e-08
2.78663e-08
2.78663e-08
2.78663e-08
2.78663e-08
2.78663e-08
2.78664e-08
2.78664e-08
2.78664e-08
2.78664e-08
2.78664e-08
2.78664e-08
2.78665e-08
2.78665e-08
2.78665e-08
2.78665e-08
2.78666e-08
2.78666e-08
2.78666e-08
2.78667e-08
2.78667e-08
2.78667e-08
2.78668e-08
2.78668e-08
2.78669e-08
2.78669e-08
2.78669e-08
2.7867e-08
2.78671e-08
2.78671e-08
2.78672e-08
2.78672e-08
2.78673e-08
2.78674e-08
2.78674e-08
2.78675e-08
2.78676e-08
2.78676e-08
2.78677e-08
2.78678e-08
2.78679e-08
2.7868e-08
2.7868e-08
2.78681e-08
2.78682e-08
2.78683e-08
2.78684e-08
2.78686e-08
2.78687e-08
2.78688e-08
2.78689e-08
2.7869e-08
2.78692e-08
2.78693e-08
2.78695e-08
2.78696e-08
2.78698e-08
2.78699e-08
2.78701e-08
2.78703e-08
2.78705e-08
2.78707e-08
2.78709e-08
2.78712e-08
2.78714e-08
2.78716e-08
2.78719e-08
2.78722e-08
2.78725e-08
2.78728e-08
2.78731e-08
2.78735e-08
2.78739e-08
2.78743e-08
2.78747e-08
2.78752e-08
2.78756e-08
2.78762e-08
2.78767e-08
2.78773e-08
2.7878e-08
2.78787e-08
2.78794e-08
2.78803e-08
2.78812e-08
2.78822e-08
2.78834e-08
2.78846e-08
2.7886e-08
2.78877e-08
2.78896e-08
2.78918e-08
2.78944e-08
2.78975e-08
2.79014e-08
2.79064e-08
2.7913e-08
2.7922e-08
2.79358e-08
2.7958e-08
2.79937e-08
2.8086e-08
2.7957e-08
2.79216e-08
2.80015e-08
2.79464e-08
2.79243e-08
2.79105e-08
2.79019e-08
2.78961e-08
2.78919e-08
2.78887e-08
2.78862e-08
2.78842e-08
2.78826e-08
2.78812e-08
2.788e-08
2.7879e-08
2.78781e-08
2.78773e-08
2.78766e-08
2.7876e-08
2.78754e-08
2.78749e-08
2.78744e-08
2.7874e-08
2.78736e-08
2.78732e-08
2.78729e-08
2.78726e-08
2.78723e-08
2.7872e-08
2.78717e-08
2.78715e-08
2.78712e-08
2.7871e-08
2.78708e-08
2.78706e-08
2.78704e-08
2.78703e-08
2.78701e-08
2.787e-08
2.78698e-08
2.78697e-08
2.78695e-08
2.78694e-08
2.78693e-08
2.78692e-08
2.78691e-08
2.7869e-08
2.78689e-08
2.78688e-08
2.78687e-08
2.78686e-08
2.78685e-08
2.78684e-08
2.78683e-08
2.78683e-08
2.78682e-08
2.78681e-08
2.78681e-08
2.7868e-08
2.7868e-08
2.78679e-08
2.78679e-08
2.78678e-08
2.78678e-08
2.78677e-08
2.78677e-08
2.78677e-08
2.78676e-08
2.78676e-08
2.78676e-08
2.78675e-08
2.78675e-08
2.78675e-08
2.78675e-08
2.78674e-08
2.78674e-08
2.78674e-08
2.78674e-08
2.78674e-08
2.78673e-08
2.78673e-08
2.78673e-08
2.78673e-08
2.78673e-08
2.78673e-08
2.78673e-08
2.78673e-08
2.78673e-08
2.78673e-08
2.78673e-08
2.78673e-08
2.78673e-08
2.78673e-08
2.78673e-08
2.78673e-08
2.78673e-08
2.78673e-08
2.78673e-08
2.78673e-08
2.78673e-08
2.78674e-08
2.78674e-08
2.78674e-08
2.78674e-08
2.78674e-08
2.78675e-08
2.78675e-08
2.78675e-08
2.78675e-08
2.78676e-08
2.78676e-08
2.78676e-08
2.78677e-08
2.78677e-08
2.78677e-08
2.78678e-08
2.78678e-08
2.78678e-08
2.78679e-08
2.78679e-08
2.7868e-08
2.7868e-08
2.78681e-08
2.78681e-08
2.78682e-08
2.78683e-08
2.78683e-08
2.78684e-08
2.78685e-08
2.78686e-08
2.78686e-08
2.78687e-08
2.78688e-08
2.78689e-08
2.7869e-08
2.78691e-08
2.78692e-08
2.78693e-08
2.78694e-08
2.78695e-08
2.78696e-08
2.78697e-08
2.78699e-08
2.787e-08
2.78701e-08
2.78703e-08
2.78704e-08
2.78706e-08
2.78707e-08
2.78709e-08
2.78711e-08
2.78712e-08
2.78714e-08
2.78716e-08
2.78718e-08
2.78721e-08
2.78723e-08
2.78725e-08
2.78728e-08
2.7873e-08
2.78733e-08
2.78736e-08
2.78739e-08
2.78742e-08
2.78746e-08
2.78749e-08
2.78753e-08
2.78757e-08
2.78762e-08
2.78766e-08
2.78771e-08
2.78776e-08
2.78782e-08
2.78788e-08
2.78794e-08
2.78801e-08
2.78808e-08
2.78816e-08
2.78824e-08
2.78834e-08
2.78844e-08
2.78855e-08
2.78867e-08
2.78881e-08
2.78897e-08
2.78914e-08
2.78934e-08
2.78957e-08
2.78984e-08
2.79015e-08
2.79053e-08
2.791e-08
2.79161e-08
2.79239e-08
2.79347e-08
2.79509e-08
2.79771e-08
2.8019e-08
2.81264e-08
2.79759e-08
2.79301e-08
2.80226e-08
2.79603e-08
2.7935e-08
2.79191e-08
2.79092e-08
2.79025e-08
2.78976e-08
2.78938e-08
2.78909e-08
2.78885e-08
2.78865e-08
2.78849e-08
2.78835e-08
2.78822e-08
2.78812e-08
2.78803e-08
2.78794e-08
2.78787e-08
2.7878e-08
2.78774e-08
2.78768e-08
2.78763e-08
2.78759e-08
2.78754e-08
2.7875e-08
2.78746e-08
2.78743e-08
2.78739e-08
2.78736e-08
2.78733e-08
2.78731e-08
2.78728e-08
2.78726e-08
2.78723e-08
2.78721e-08
2.78719e-08
2.78717e-08
2.78715e-08
2.78714e-08
2.78712e-08
2.7871e-08
2.78709e-08
2.78707e-08
2.78706e-08
2.78705e-08
2.78703e-08
2.78702e-08
2.78701e-08
2.787e-08
2.78699e-08
2.78698e-08
2.78697e-08
2.78696e-08
2.78695e-08
2.78694e-08
2.78694e-08
2.78693e-08
2.78692e-08
2.78692e-08
2.78691e-08
2.78691e-08
2.7869e-08
2.78689e-08
2.78689e-08
2.78689e-08
2.78688e-08
2.78688e-08
2.78687e-08
2.78687e-08
2.78687e-08
2.78686e-08
2.78686e-08
2.78686e-08
2.78685e-08
2.78685e-08
2.78685e-08
2.78685e-08
2.78684e-08
2.78684e-08
2.78684e-08
2.78684e-08
2.78684e-08
2.78684e-08
2.78683e-08
2.78683e-08
2.78683e-08
2.78683e-08
2.78683e-08
2.78683e-08
2.78683e-08
2.78683e-08
2.78683e-08
2.78683e-08
2.78683e-08
2.78684e-08
2.78684e-08
2.78684e-08
2.78684e-08
2.78684e-08
2.78684e-08
2.78684e-08
2.78685e-08
2.78685e-08
2.78685e-08
2.78685e-08
2.78686e-08
2.78686e-08
2.78686e-08
2.78687e-08
2.78687e-08
2.78687e-08
2.78688e-08
2.78688e-08
2.78689e-08
2.78689e-08
2.7869e-08
2.7869e-08
2.78691e-08
2.78691e-08
2.78692e-08
2.78692e-08
2.78693e-08
2.78694e-08
2.78695e-08
2.78695e-08
2.78696e-08
2.78697e-08
2.78698e-08
2.78699e-08
2.787e-08
2.78701e-08
2.78702e-08
2.78703e-08
2.78704e-08
2.78705e-08
2.78706e-08
2.78707e-08
2.78709e-08
2.7871e-08
2.78711e-08
2.78713e-08
2.78714e-08
2.78716e-08
2.78717e-08
2.78719e-08
2.78721e-08
2.78722e-08
2.78724e-08
2.78726e-08
2.78728e-08
2.7873e-08
2.78733e-08
2.78735e-08
2.78738e-08
2.7874e-08
2.78743e-08
2.78746e-08
2.78749e-08
2.78752e-08
2.78755e-08
2.78758e-08
2.78762e-08
2.78766e-08
2.7877e-08
2.78774e-08
2.78778e-08
2.78783e-08
2.78788e-08
2.78794e-08
2.78799e-08
2.78805e-08
2.78812e-08
2.78819e-08
2.78826e-08
2.78834e-08
2.78843e-08
2.78852e-08
2.78862e-08
2.78873e-08
2.78885e-08
2.78898e-08
2.78912e-08
2.78929e-08
2.78947e-08
2.78967e-08
2.78991e-08
2.79018e-08
2.79049e-08
2.79086e-08
2.79131e-08
2.79186e-08
2.79257e-08
2.79348e-08
2.79473e-08
2.79658e-08
2.79958e-08
2.80434e-08
2.81651e-08
2.79916e-08
2.79403e-08
2.80426e-08
2.79738e-08
2.79455e-08
2.79277e-08
2.79166e-08
2.7909e-08
2.79033e-08
2.7899e-08
2.78956e-08
2.78929e-08
2.78906e-08
2.78887e-08
2.7887e-08
2.78856e-08
2.78844e-08
2.78833e-08
2.78823e-08
2.78814e-08
2.78807e-08
2.78799e-08
2.78793e-08
2.78787e-08
2.78781e-08
2.78776e-08
2.78772e-08
2.78767e-08
2.78763e-08
2.78759e-08
2.78756e-08
2.78752e-08
2.78749e-08
2.78746e-08
2.78743e-08
2.78741e-08
2.78738e-08
2.78736e-08
2.78734e-08
2.78731e-08
2.78729e-08
2.78727e-08
2.78726e-08
2.78724e-08
2.78722e-08
2.78721e-08
2.78719e-08
2.78718e-08
2.78716e-08
2.78715e-08
2.78714e-08
2.78713e-08
2.78711e-08
2.7871e-08
2.78709e-08
2.78708e-08
2.78707e-08
2.78706e-08
2.78706e-08
2.78705e-08
2.78704e-08
2.78703e-08
2.78703e-08
2.78702e-08
2.78701e-08
2.78701e-08
2.787e-08
2.787e-08
2.78699e-08
2.78699e-08
2.78698e-08
2.78698e-08
2.78698e-08
2.78697e-08
2.78697e-08
2.78696e-08
2.78696e-08
2.78696e-08
2.78696e-08
2.78695e-08
2.78695e-08
2.78695e-08
2.78695e-08
2.78695e-08
2.78694e-08
2.78694e-08
2.78694e-08
2.78694e-08
2.78694e-08
2.78694e-08
2.78694e-08
2.78694e-08
2.78694e-08
2.78694e-08
2.78694e-08
2.78694e-08
2.78694e-08
2.78695e-08
2.78695e-08
2.78695e-08
2.78695e-08
2.78695e-08
2.78695e-08
2.78696e-08
2.78696e-08
2.78696e-08
2.78697e-08
2.78697e-08
2.78697e-08
2.78698e-08
2.78698e-08
2.78699e-08
2.78699e-08
2.78699e-08
2.787e-08
2.787e-08
2.78701e-08
2.78701e-08
2.78702e-08
2.78703e-08
2.78703e-08
2.78704e-08
2.78705e-08
2.78705e-08
2.78706e-08
2.78707e-08
2.78708e-08
2.78709e-08
2.7871e-08
2.78711e-08
2.78712e-08
2.78713e-08
2.78714e-08
2.78715e-08
2.78717e-08
2.78718e-08
2.78719e-08
2.78721e-08
2.78722e-08
2.78723e-08
2.78725e-08
2.78726e-08
2.78728e-08
2.7873e-08
2.78732e-08
2.78733e-08
2.78735e-08
2.78737e-08
2.78739e-08
2.78742e-08
2.78744e-08
2.78746e-08
2.78749e-08
2.78751e-08
2.78754e-08
2.78757e-08
2.7876e-08
2.78763e-08
2.78766e-08
2.78769e-08
2.78773e-08
2.78777e-08
2.78781e-08
2.78785e-08
2.78789e-08
2.78794e-08
2.78799e-08
2.78804e-08
2.78809e-08
2.78815e-08
2.78821e-08
2.78828e-08
2.78835e-08
2.78842e-08
2.7885e-08
2.78859e-08
2.78868e-08
2.78878e-08
2.78888e-08
2.789e-08
2.78912e-08
2.78926e-08
2.78941e-08
2.78958e-08
2.78977e-08
2.78998e-08
2.79021e-08
2.79048e-08
2.79079e-08
2.79116e-08
2.79158e-08
2.79209e-08
2.79272e-08
2.79353e-08
2.79456e-08
2.79598e-08
2.79805e-08
2.80141e-08
2.80671e-08
2.82012e-08
2.80105e-08
2.79511e-08
2.80624e-08
2.7987e-08
2.79559e-08
2.79363e-08
2.7924e-08
2.79155e-08
2.79092e-08
2.79043e-08
2.79004e-08
2.78973e-08
2.78947e-08
2.78925e-08
2.78907e-08
2.7889e-08
2.78876e-08
2.78864e-08
2.78853e-08
2.78843e-08
2.78834e-08
2.78826e-08
2.78818e-08
2.78811e-08
2.78805e-08
2.78799e-08
2.78794e-08
2.78789e-08
2.78784e-08
2.7878e-08
2.78775e-08
2.78772e-08
2.78768e-08
2.78765e-08
2.78761e-08
2.78758e-08
2.78755e-08
2.78753e-08
2.7875e-08
2.78748e-08
2.78746e-08
2.78743e-08
2.78741e-08
2.78739e-08
2.78737e-08
2.78736e-08
2.78734e-08
2.78732e-08
2.78731e-08
2.78729e-08
2.78728e-08
2.78726e-08
2.78725e-08
2.78724e-08
2.78722e-08
2.78721e-08
2.7872e-08
2.78719e-08
2.78718e-08
2.78717e-08
2.78717e-08
2.78716e-08
2.78715e-08
2.78714e-08
2.78714e-08
2.78713e-08
2.78712e-08
2.78712e-08
2.78711e-08
2.78711e-08
2.7871e-08
2.7871e-08
2.78709e-08
2.78709e-08
2.78708e-08
2.78708e-08
2.78708e-08
2.78707e-08
2.78707e-08
2.78707e-08
2.78706e-08
2.78706e-08
2.78706e-08
2.78706e-08
2.78706e-08
2.78705e-08
2.78705e-08
2.78705e-08
2.78705e-08
2.78705e-08
2.78705e-08
2.78705e-08
2.78705e-08
2.78705e-08
2.78705e-08
2.78705e-08
2.78705e-08
2.78706e-08
2.78706e-08
2.78706e-08
2.78706e-08
2.78706e-08
2.78707e-08
2.78707e-08
2.78707e-08
2.78708e-08
2.78708e-08
2.78708e-08
2.78709e-08
2.78709e-08
2.7871e-08
2.7871e-08
2.78711e-08
2.78711e-08
2.78712e-08
2.78712e-08
2.78713e-08
2.78714e-08
2.78714e-08
2.78715e-08
2.78716e-08
2.78716e-08
2.78717e-08
2.78718e-08
2.78719e-08
2.7872e-08
2.78721e-08
2.78722e-08
2.78723e-08
2.78724e-08
2.78726e-08
2.78727e-08
2.78728e-08
2.78729e-08
2.78731e-08
2.78732e-08
2.78734e-08
2.78735e-08
2.78737e-08
2.78738e-08
2.7874e-08
2.78742e-08
2.78744e-08
2.78746e-08
2.78748e-08
2.7875e-08
2.78752e-08
2.78754e-08
2.78757e-08
2.78759e-08
2.78762e-08
2.78764e-08
2.78767e-08
2.7877e-08
2.78773e-08
2.78776e-08
2.7878e-08
2.78783e-08
2.78787e-08
2.78791e-08
2.78795e-08
2.78799e-08
2.78803e-08
2.78808e-08
2.78813e-08
2.78818e-08
2.78824e-08
2.7883e-08
2.78836e-08
2.78842e-08
2.78849e-08
2.78857e-08
2.78865e-08
2.78873e-08
2.78882e-08
2.78891e-08
2.78902e-08
2.78913e-08
2.78925e-08
2.78938e-08
2.78952e-08
2.78968e-08
2.78985e-08
2.79004e-08
2.79025e-08
2.79049e-08
2.79076e-08
2.79106e-08
2.79142e-08
2.79183e-08
2.79231e-08
2.79288e-08
2.79359e-08
2.79449e-08
2.79565e-08
2.79722e-08
2.79951e-08
2.8032e-08
2.809e-08
2.82368e-08
2.80302e-08
2.79623e-08
2.80816e-08
2.8e-08
2.79663e-08
2.7945e-08
2.79315e-08
2.79221e-08
2.79151e-08
2.79097e-08
2.79054e-08
2.79019e-08
2.7899e-08
2.78965e-08
2.78944e-08
2.78925e-08
2.7891e-08
2.78895e-08
2.78883e-08
2.78871e-08
2.78861e-08
2.78852e-08
2.78844e-08
2.78836e-08
2.78829e-08
2.78822e-08
2.78816e-08
2.78811e-08
2.78805e-08
2.788e-08
2.78796e-08
2.78791e-08
2.78787e-08
2.78783e-08
2.7878e-08
2.78776e-08
2.78773e-08
2.7877e-08
2.78767e-08
2.78765e-08
2.78762e-08
2.78759e-08
2.78757e-08
2.78755e-08
2.78753e-08
2.78751e-08
2.78749e-08
2.78747e-08
2.78745e-08
2.78744e-08
2.78742e-08
2.7874e-08
2.78739e-08
2.78737e-08
2.78736e-08
2.78735e-08
2.78734e-08
2.78732e-08
2.78731e-08
2.7873e-08
2.78729e-08
2.78728e-08
2.78728e-08
2.78727e-08
2.78726e-08
2.78725e-08
2.78725e-08
2.78724e-08
2.78723e-08
2.78723e-08
2.78722e-08
2.78721e-08
2.78721e-08
2.7872e-08
2.7872e-08
2.78719e-08
2.78719e-08
2.78719e-08
2.78718e-08
2.78718e-08
2.78718e-08
2.78717e-08
2.78717e-08
2.78717e-08
2.78717e-08
2.78717e-08
2.78717e-08
2.78716e-08
2.78716e-08
2.78716e-08
2.78716e-08
2.78716e-08
2.78716e-08
2.78716e-08
2.78717e-08
2.78717e-08
2.78717e-08
2.78717e-08
2.78717e-08
2.78717e-08
2.78718e-08
2.78718e-08
2.78718e-08
2.78718e-08
2.78719e-08
2.78719e-08
2.7872e-08
2.7872e-08
2.7872e-08
2.78721e-08
2.78721e-08
2.78722e-08
2.78723e-08
2.78723e-08
2.78724e-08
2.78724e-08
2.78725e-08
2.78726e-08
2.78727e-08
2.78727e-08
2.78728e-08
2.78729e-08
2.7873e-08
2.78731e-08
2.78732e-08
2.78733e-08
2.78734e-08
2.78735e-08
2.78737e-08
2.78738e-08
2.78739e-08
2.78741e-08
2.78742e-08
2.78744e-08
2.78745e-08
2.78747e-08
2.78748e-08
2.7875e-08
2.78752e-08
2.78754e-08
2.78756e-08
2.78758e-08
2.7876e-08
2.78762e-08
2.78764e-08
2.78766e-08
2.78769e-08
2.78771e-08
2.78774e-08
2.78777e-08
2.7878e-08
2.78783e-08
2.78786e-08
2.78789e-08
2.78792e-08
2.78796e-08
2.788e-08
2.78804e-08
2.78808e-08
2.78812e-08
2.78816e-08
2.78821e-08
2.78826e-08
2.78831e-08
2.78837e-08
2.78843e-08
2.78849e-08
2.78855e-08
2.78862e-08
2.7887e-08
2.78877e-08
2.78886e-08
2.78895e-08
2.78904e-08
2.78914e-08
2.78925e-08
2.78936e-08
2.78949e-08
2.78962e-08
2.78977e-08
2.78993e-08
2.7901e-08
2.79029e-08
2.79051e-08
2.79075e-08
2.79101e-08
2.79131e-08
2.79165e-08
2.79205e-08
2.7925e-08
2.79304e-08
2.79368e-08
2.79447e-08
2.79546e-08
2.79674e-08
2.79847e-08
2.80097e-08
2.80496e-08
2.81125e-08
2.82711e-08
2.80508e-08
2.79715e-08
2.81007e-08
2.80128e-08
2.79765e-08
2.79536e-08
2.7939e-08
2.79288e-08
2.79211e-08
2.79151e-08
2.79104e-08
2.79065e-08
2.79033e-08
2.79005e-08
2.78982e-08
2.78961e-08
2.78944e-08
2.78928e-08
2.78914e-08
2.78901e-08
2.7889e-08
2.78879e-08
2.7887e-08
2.78861e-08
2.78853e-08
2.78846e-08
2.78839e-08
2.78833e-08
2.78827e-08
2.78821e-08
2.78816e-08
2.78811e-08
2.78807e-08
2.78803e-08
2.78799e-08
2.78795e-08
2.78791e-08
2.78788e-08
2.78785e-08
2.78782e-08
2.78779e-08
2.78776e-08
2.78773e-08
2.78771e-08
2.78769e-08
2.78766e-08
2.78764e-08
2.78762e-08
2.7876e-08
2.78758e-08
2.78756e-08
2.78755e-08
2.78753e-08
2.78751e-08
2.7875e-08
2.78748e-08
2.78747e-08
2.78746e-08
2.78745e-08
2.78743e-08
2.78742e-08
2.78741e-08
2.7874e-08
2.78739e-08
2.78739e-08
2.78738e-08
2.78737e-08
2.78736e-08
2.78735e-08
2.78735e-08
2.78734e-08
2.78733e-08
2.78733e-08
2.78732e-08
2.78732e-08
2.78731e-08
2.78731e-08
2.7873e-08
2.7873e-08
2.7873e-08
2.78729e-08
2.78729e-08
2.78729e-08
2.78729e-08
2.78728e-08
2.78728e-08
2.78728e-08
2.78728e-08
2.78728e-08
2.78728e-08
2.78728e-08
2.78728e-08
2.78728e-08
2.78728e-08
2.78728e-08
2.78728e-08
2.78728e-08
2.78728e-08
2.78729e-08
2.78729e-08
2.78729e-08
2.78729e-08
2.7873e-08
2.7873e-08
2.7873e-08
2.78731e-08
2.78731e-08
2.78732e-08
2.78732e-08
2.78733e-08
2.78733e-08
2.78734e-08
2.78735e-08
2.78735e-08
2.78736e-08
2.78737e-08
2.78738e-08
2.78738e-08
2.78739e-08
2.7874e-08
2.78741e-08
2.78742e-08
2.78743e-08
2.78744e-08
2.78745e-08
2.78746e-08
2.78748e-08
2.78749e-08
2.7875e-08
2.78752e-08
2.78753e-08
2.78755e-08
2.78756e-08
2.78758e-08
2.7876e-08
2.78762e-08
2.78763e-08
2.78765e-08
2.78767e-08
2.78769e-08
2.78771e-08
2.78774e-08
2.78776e-08
2.78778e-08
2.78781e-08
2.78783e-08
2.78786e-08
2.78789e-08
2.78792e-08
2.78795e-08
2.78798e-08
2.78801e-08
2.78805e-08
2.78808e-08
2.78812e-08
2.78816e-08
2.7882e-08
2.78824e-08
2.78829e-08
2.78834e-08
2.78839e-08
2.78844e-08
2.78849e-08
2.78855e-08
2.78861e-08
2.78868e-08
2.78874e-08
2.78882e-08
2.78889e-08
2.78897e-08
2.78906e-08
2.78915e-08
2.78925e-08
2.78935e-08
2.78946e-08
2.78958e-08
2.78971e-08
2.78985e-08
2.79e-08
2.79016e-08
2.79034e-08
2.79053e-08
2.79074e-08
2.79098e-08
2.79124e-08
2.79154e-08
2.79187e-08
2.79225e-08
2.79268e-08
2.79319e-08
2.79378e-08
2.79449e-08
2.79535e-08
2.79644e-08
2.79784e-08
2.79971e-08
2.80241e-08
2.8067e-08
2.81345e-08
2.83048e-08
2.80674e-08
2.7982e-08
2.81187e-08
2.80254e-08
2.79867e-08
2.79623e-08
2.79466e-08
2.79356e-08
2.79272e-08
2.79207e-08
2.79155e-08
2.79113e-08
2.79077e-08
2.79047e-08
2.79021e-08
2.78998e-08
2.78979e-08
2.78961e-08
2.78945e-08
2.78931e-08
2.78919e-08
2.78907e-08
2.78897e-08
2.78887e-08
2.78878e-08
2.7887e-08
2.78863e-08
2.78856e-08
2.78849e-08
2.78843e-08
2.78837e-08
2.78832e-08
2.78827e-08
2.78822e-08
2.78818e-08
2.78814e-08
2.7881e-08
2.78806e-08
2.78802e-08
2.78799e-08
2.78796e-08
2.78793e-08
2.7879e-08
2.78787e-08
2.78785e-08
2.78782e-08
2.7878e-08
2.78777e-08
2.78775e-08
2.78773e-08
2.78771e-08
2.78769e-08
2.78767e-08
2.78766e-08
2.78764e-08
2.78762e-08
2.78761e-08
2.78759e-08
2.78758e-08
2.78757e-08
2.78756e-08
2.78754e-08
2.78753e-08
2.78752e-08
2.78751e-08
2.78751e-08
2.7875e-08
2.78749e-08
2.78748e-08
2.78747e-08
2.78746e-08
2.78746e-08
2.78745e-08
2.78745e-08
2.78744e-08
2.78743e-08
2.78743e-08
2.78742e-08
2.78742e-08
2.78742e-08
2.78741e-08
2.78741e-08
2.78741e-08
2.7874e-08
2.7874e-08
2.7874e-08
2.7874e-08
2.7874e-08
2.7874e-08
2.78739e-08
2.78739e-08
2.78739e-08
2.78739e-08
2.7874e-08
2.7874e-08
2.7874e-08
2.7874e-08
2.7874e-08
2.7874e-08
2.78741e-08
2.78741e-08
2.78741e-08
2.78742e-08
2.78742e-08
2.78742e-08
2.78743e-08
2.78743e-08
2.78744e-08
2.78744e-08
2.78745e-08
2.78746e-08
2.78746e-08
2.78747e-08
2.78748e-08
2.78748e-08
2.78749e-08
2.7875e-08
2.78751e-08
2.78752e-08
2.78753e-08
2.78754e-08
2.78755e-08
2.78756e-08
2.78757e-08
2.78759e-08
2.7876e-08
2.78761e-08
2.78763e-08
2.78764e-08
2.78766e-08
2.78767e-08
2.78769e-08
2.78771e-08
2.78773e-08
2.78775e-08
2.78776e-08
2.78778e-08
2.78781e-08
2.78783e-08
2.78785e-08
2.78787e-08
2.7879e-08
2.78792e-08
2.78795e-08
2.78798e-08
2.788e-08
2.78803e-08
2.78806e-08
2.7881e-08
2.78813e-08
2.78816e-08
2.7882e-08
2.78824e-08
2.78828e-08
2.78832e-08
2.78836e-08
2.78841e-08
2.78845e-08
2.7885e-08
2.78856e-08
2.78861e-08
2.78867e-08
2.78873e-08
2.78879e-08
2.78886e-08
2.78893e-08
2.789e-08
2.78908e-08
2.78917e-08
2.78926e-08
2.78935e-08
2.78945e-08
2.78956e-08
2.78967e-08
2.78979e-08
2.78992e-08
2.79006e-08
2.79022e-08
2.79038e-08
2.79056e-08
2.79076e-08
2.79097e-08
2.7912e-08
2.79146e-08
2.79175e-08
2.79208e-08
2.79244e-08
2.79285e-08
2.79333e-08
2.79389e-08
2.79453e-08
2.7953e-08
2.79624e-08
2.79742e-08
2.79894e-08
2.80096e-08
2.80385e-08
2.80843e-08
2.8156e-08
2.83364e-08
2.80867e-08
2.79934e-08
2.81367e-08
2.80377e-08
2.79969e-08
2.79709e-08
2.79542e-08
2.79424e-08
2.79334e-08
2.79263e-08
2.79207e-08
2.79161e-08
2.79122e-08
2.79089e-08
2.7906e-08
2.79036e-08
2.79014e-08
2.78995e-08
2.78978e-08
2.78962e-08
2.78949e-08
2.78936e-08
2.78924e-08
2.78914e-08
2.78904e-08
2.78895e-08
2.78887e-08
2.78879e-08
2.78872e-08
2.78865e-08
2.78859e-08
2.78853e-08
2.78848e-08
2.78842e-08
2.78838e-08
2.78833e-08
2.78829e-08
2.78824e-08
2.78821e-08
2.78817e-08
2.78813e-08
2.7881e-08
2.78807e-08
2.78804e-08
2.78801e-08
2.78798e-08
2.78796e-08
2.78793e-08
2.78791e-08
2.78788e-08
2.78786e-08
2.78784e-08
2.78782e-08
2.7878e-08
2.78778e-08
2.78777e-08
2.78775e-08
2.78773e-08
2.78772e-08
2.7877e-08
2.78769e-08
2.78768e-08