/*--------------------------------*- C++ -*----------------------------------*\
  =========                 |
  \\      /  F ield         | OpenFOAM: The Open Source CFD Toolbox
   \\    /   O peration     | Website:  https://openfoam.org
    \\  /    A nd           | Version:  8
     \\/     M anipulation  |
\*---------------------------------------------------------------------------*/
FoamFile
{
    version     2.0;
    format      ascii;
    class       volScalarField;
    location    "0.31";
    object      p;
}
// * * * * * * * * * * * * * * * * * * * * * * * * * * * * * * * * * * * * * //

dimensions      [0 2 -2 0 0 0 0];

internalField   nonuniform List<scalar> 
112642
(
1.56077
1.54577
1.53082
1.51614
1.50229
1.48897
1.47595
1.46304
1.45014
1.43721
1.42419
1.41106
1.39782
1.38447
1.37102
1.35746
1.34379
1.33004
1.3162
1.30229
1.28831
1.27428
1.26019
1.24605
1.23187
1.21766
1.20341
1.18912
1.17481
1.16046
1.14608
1.13167
1.11723
1.10275
1.08823
1.07366
1.05906
1.04441
1.02971
1.01497
1.00018
0.985339
0.970449
0.955509
0.940519
0.925481
0.910394
0.895257
0.880068
0.864834
0.849555
0.834233
0.818868
0.803465
0.788019
0.772533
0.757004
0.741437
0.725824
0.710167
0.694468
0.678719
0.66292
0.647074
0.631179
0.615233
0.599235
0.58319
0.567094
0.550946
0.534748
0.518499
0.502199
0.485849
0.469449
0.453
0.436497
0.419949
0.403348
0.386698
0.369994
0.353242
0.336439
0.319587
0.30268
0.285719
0.268714
0.251651
0.234536
0.217369
0.200147
0.182877
0.165549
0.148167
0.13073
0.113241
0.0956942
0.0780908
0.0604312
0.0427165
0.0249424
0.00711396
-0.0107731
-0.0287178
-0.0467199
-0.0647774
-0.0828981
-0.101078
-0.119318
-0.137615
-0.155979
-0.174405
-0.192894
-0.211448
-0.230062
-0.24875
-0.267503
-0.286318
-0.305206
-0.324162
-0.34319
-0.362284
-0.381448
-0.400678
-0.419981
-0.439346
-0.458777
-0.478273
-0.49783
-0.517448
-0.537125
-0.556863
-0.576659
-0.596514
-0.616432
-0.636409
-0.656447
-0.676547
-0.696712
-0.716939
-0.737228
-0.757587
-0.778014
-0.798505
-0.819071
-0.839703
-0.860409
-0.881184
-0.902037
-0.922962
-0.943966
-0.96505
-0.986218
-1.00746
-1.02879
-1.05021
-1.07172
-1.09333
-1.11503
-1.13682
-1.15871
-1.1807
-1.20281
-1.22503
-1.24737
-1.26982
-1.2924
-1.3151
-1.33794
-1.36089
-1.38398
-1.4072
-1.43055
-1.45403
-1.47763
-1.50135
-1.5252
-1.54916
-1.57324
-1.59742
-1.62171
-1.64607
-1.67052
-1.69503
-1.7196
-1.74421
-1.76884
-1.79349
-1.81815
-1.84281
-1.86747
-1.89214
-1.91689
-1.94181
-1.96707
-1.99299
-2.02002
-2.04863
-2.07797
-2.1076
1.56966
1.55513
1.54052
1.52582
1.51182
1.49829
1.48514
1.47218
1.45927
1.44635
1.43337
1.4203
1.40712
1.39382
1.38042
1.36691
1.35329
1.33958
1.32579
1.31191
1.29796
1.28395
1.26988
1.25575
1.24158
1.22736
1.2131
1.19879
1.18445
1.17008
1.15567
1.14122
1.12673
1.1122
1.09763
1.08301
1.06835
1.05363
1.03887
1.02406
1.00919
0.994281
0.979315
0.964292
0.949215
0.934089
0.91891
0.903678
0.888393
0.873056
0.85767
0.842238
0.826759
0.811237
0.795667
0.780054
0.764399
0.748698
0.732953
0.717162
0.701324
0.685439
0.669504
0.653519
0.637484
0.621394
0.605256
0.589065
0.572821
0.556521
0.540171
0.523766
0.50731
0.490799
0.474237
0.457621
0.440953
0.424233
0.407463
0.390636
0.373758
0.356826
0.339845
0.322808
0.305719
0.288573
0.271379
0.254127
0.236822
0.219462
0.202048
0.184579
0.167055
0.149472
0.131836
0.114143
0.0963931
0.0785868
0.0607192
0.0427998
0.0248146
0.0067792
-0.0113206
-0.0294751
-0.0476896
-0.0659638
-0.0842969
-0.102694
-0.121148
-0.139666
-0.158245
-0.176889
-0.195597
-0.21437
-0.233208
-0.252117
-0.271093
-0.290139
-0.309253
-0.328442
-0.3477
-0.36703
-0.386426
-0.405893
-0.425428
-0.445029
-0.464691
-0.484418
-0.504204
-0.524051
-0.543955
-0.563921
-0.583942
-0.604023
-0.624162
-0.644365
-0.664626
-0.684949
-0.705335
-0.725783
-0.746297
-0.766875
-0.787522
-0.808235
-0.829016
-0.849867
-0.870791
-0.891782
-0.912849
-0.93399
-0.955208
-0.976506
-0.997882
-1.01934
-1.04088
-1.0625
-1.08422
-1.10602
-1.12791
-1.1499
-1.17199
-1.19417
-1.21647
-1.23887
-1.26139
-1.28402
-1.30677
-1.32964
-1.35263
-1.37574
-1.39898
-1.42234
-1.44582
-1.46943
-1.49314
-1.51698
-1.54093
-1.56499
-1.58914
-1.61341
-1.63775
-1.66219
-1.68668
-1.71124
-1.73584
-1.76046
-1.78512
-1.80979
-1.83446
-1.85913
-1.88382
-1.90856
-1.93343
-1.95855
-1.98418
-2.01065
-2.03815
-2.06707
-2.09613
-2.12516
1.57739
1.56351
1.54943
1.53467
1.52049
1.50671
1.49341
1.48034
1.4674
1.45448
1.44153
1.42851
1.41539
1.40216
1.38883
1.37538
1.36183
1.34818
1.33444
1.32061
1.30669
1.29271
1.27866
1.26456
1.25039
1.23618
1.22192
1.20761
1.19326
1.17886
1.16442
1.14994
1.13542
1.12085
1.10624
1.09158
1.07687
1.0621
1.04729
1.03242
1.01749
1.00252
0.987487
0.972397
0.95725
0.942047
0.926791
0.911479
0.896114
0.88069
0.865216
0.849687
0.834111
0.818484
0.80281
0.787089
0.771319
0.755503
0.73964
0.723729
0.707771
0.69176
0.675702
0.659592
0.643427
0.627212
0.61094
0.594615
0.578236
0.5618
0.545307
0.528764
0.512161
0.495501
0.478788
0.462021
0.445197
0.428319
0.411388
0.3944
0.377357
0.360257
0.343109
0.3259
0.308638
0.291316
0.273944
0.256516
0.239027
0.221487
0.203885
0.186232
0.168518
0.150747
0.132919
0.115034
0.0970888
0.0790864
0.0610225
0.0429038
0.0247202
0.00648315
-0.0118176
-0.0301755
-0.0485952
-0.0670733
-0.0856133
-0.104214
-0.122879
-0.141602
-0.160394
-0.179245
-0.198165
-0.217149
-0.236199
-0.255325
-0.274517
-0.293782
-0.313115
-0.332528
-0.35201
-0.371564
-0.391185
-0.410877
-0.430636
-0.450456
-0.470342
-0.49029
-0.510294
-0.530353
-0.550475
-0.570654
-0.590887
-0.611181
-0.631533
-0.651944
-0.672416
-0.692948
-0.713542
-0.734202
-0.754921
-0.775708
-0.796559
-0.817478
-0.838465
-0.859519
-0.880643
-0.90184
-0.923107
-0.944453
-0.96587
-0.987368
-1.00894
-1.03059
-1.05232
-1.07415
-1.09605
-1.11804
-1.14012
-1.16229
-1.18456
-1.20693
-1.2294
-1.25198
-1.27467
-1.29747
-1.32038
-1.34341
-1.36655
-1.38981
-1.41318
-1.43667
-1.46028
-1.48401
-1.50784
-1.53177
-1.55582
-1.57996
-1.6042
-1.62852
-1.65293
-1.6774
-1.70194
-1.72651
-1.75113
-1.77576
-1.80041
-1.82507
-1.84974
-1.87442
-1.89913
-1.92394
-1.94895
-1.97435
-2.00035
-2.02738
-2.05535
-2.08455
-2.11301
-2.14116
1.5841
1.57107
1.55768
1.54297
1.52864
1.51461
1.5011
1.48789
1.47489
1.46197
1.44906
1.43608
1.42303
1.40988
1.39662
1.38325
1.36977
1.35618
1.3425
1.32872
1.31486
1.30092
1.2869
1.27282
1.25867
1.24447
1.23021
1.21589
1.20153
1.18712
1.17266
1.15815
1.1436
1.129
1.11435
1.09965
1.08489
1.07009
1.05523
1.04031
1.02533
1.0103
0.995206
0.98006
0.964851
0.949582
0.934258
0.91888
0.903439
0.887942
0.872388
0.85678
0.841116
0.825401
0.809639
0.793821
0.777951
0.762035
0.746067
0.73005
0.713983
0.697861
0.681688
0.665462
0.649179
0.632843
0.616447
0.599998
0.583489
0.566925
0.5503
0.533617
0.516879
0.500079
0.483221
0.46631
0.449338
0.432309
0.415226
0.398081
0.380882
0.363623
0.346312
0.328938
0.311509
0.294021
0.276478
0.258874
0.241214
0.223494
0.205716
0.187881
0.169985
0.152031
0.134017
0.115943
0.0978097
0.079616
0.0613617
0.0430473
0.0246708
0.00623567
-0.0122605
-0.0308174
-0.0494356
-0.0681146
-0.0868564
-0.10566
-0.124527
-0.143455
-0.16245
-0.18151
-0.200634
-0.219828
-0.239089
-0.258423
-0.277827
-0.297307
-0.316855
-0.336482
-0.356178
-0.375951
-0.395788
-0.415696
-0.435671
-0.455704
-0.475804
-0.495963
-0.516175
-0.536447
-0.556777
-0.577159
-0.597602
-0.618098
-0.638657
-0.659271
-0.679947
-0.700681
-0.721477
-0.742337
-0.763258
-0.784243
-0.805295
-0.826409
-0.847595
-0.868848
-0.890162
-0.911554
-0.933019
-0.954555
-0.976166
-0.997854
-1.01962
-1.04146
-1.06338
-1.08539
-1.10748
-1.12965
-1.15191
-1.17426
-1.19671
-1.21925
-1.2419
-1.26465
-1.2875
-1.31046
-1.33353
-1.35672
-1.38002
-1.40342
-1.42694
-1.45056
-1.4743
-1.49814
-1.52208
-1.54612
-1.57026
-1.59449
-1.6188
-1.64319
-1.66765
-1.69216
-1.71671
-1.74131
-1.76592
-1.79055
-1.81519
-1.83983
-1.86448
-1.88916
-1.9139
-1.9388
-1.96399
-1.9897
-2.01615
-2.0437
-2.07202
-2.10128
-2.12885
-2.15584
1.59033
1.57833
1.56566
1.55127
1.53695
1.52273
1.50903
1.49567
1.48259
1.46964
1.45674
1.44382
1.43083
1.41775
1.40457
1.39128
1.37787
1.36436
1.35073
1.33701
1.32319
1.30929
1.2953
1.28124
1.26711
1.25291
1.23865
1.22433
1.20996
1.19553
1.18105
1.16652
1.15194
1.1373
1.12262
1.10788
1.09308
1.07823
1.06332
1.04835
1.03332
1.01823
1.00308
0.987874
0.972603
0.957271
0.941879
0.926427
0.910915
0.895346
0.879713
0.864027
0.848279
0.832476
0.816622
0.800712
0.784747
0.76873
0.75266
0.736535
0.72036
0.704129
0.68784
0.671495
0.655094
0.638636
0.622117
0.605536
0.588899
0.572201
0.555441
0.538619
0.52174
0.504798
0.487796
0.470733
0.453613
0.43643
0.419188
0.401888
0.384529
0.367106
0.349627
0.332087
0.314489
0.296828
0.27911
0.26133
0.243491
0.22559
0.20763
0.189608
0.171527
0.153382
0.135179
0.116913
0.0985856
0.0801955
0.0617433
0.0432307
0.0246543
0.00601831
-0.0126811
-0.0314425
-0.0502648
-0.0691508
-0.0880981
-0.107111
-0.126186
-0.145326
-0.164532
-0.183804
-0.203141
-0.222551
-0.242027
-0.261579
-0.281201
-0.300898
-0.320668
-0.340517
-0.360434
-0.380423
-0.400484
-0.420612
-0.440802
-0.461057
-0.481371
-0.501745
-0.522173
-0.542659
-0.563201
-0.583795
-0.604445
-0.625156
-0.645922
-0.666742
-0.687624
-0.708566
-0.729569
-0.750631
-0.771754
-0.792945
-0.814197
-0.835515
-0.8569
-0.878351
-0.899867
-0.921457
-0.94312
-0.964849
-0.986658
-1.00853
-1.03049
-1.05253
-1.07464
-1.09683
-1.11911
-1.14146
-1.16391
-1.18645
-1.20908
-1.2318
-1.25462
-1.27755
-1.30058
-1.3237
-1.34694
-1.37028
-1.39374
-1.41729
-1.44096
-1.46472
-1.48859
-1.51255
-1.53661
-1.56077
-1.58501
-1.60932
-1.63371
-1.65816
-1.68267
-1.70723
-1.73181
-1.75642
-1.78104
-1.80566
-1.83029
-1.85492
-1.87956
-1.90425
-1.92905
-1.95409
-1.97951
-2.00559
-2.03247
-2.06047
-2.0889
-2.11777
-2.14441
-2.16994
1.59639
1.58533
1.57337
1.55955
1.54543
1.53115
1.51729
1.50377
1.49058
1.47759
1.46469
1.4518
1.43887
1.42586
1.41275
1.39953
1.38619
1.37274
1.35918
1.34552
1.33174
1.31787
1.30391
1.28988
1.27576
1.26156
1.24731
1.23298
1.2186
1.20416
1.18966
1.1751
1.16049
1.14582
1.1311
1.11632
1.10149
1.08658
1.07163
1.05661
1.04153
1.02638
1.01117
0.995906
0.980574
0.965177
0.949719
0.934196
0.918611
0.902968
0.887261
0.871493
0.855663
0.839772
0.823826
0.807824
0.791762
0.775643
0.759472
0.743239
0.726952
0.710606
0.694201
0.677739
0.661214
0.644629
0.627983
0.611274
0.594501
0.577667
0.560768
0.543805
0.526779
0.509694
0.49254
0.475328
0.458049
0.440712
0.423309
0.405846
0.388321
0.370733
0.353082
0.335371
0.317596
0.299757
0.281861
0.263897
0.245875
0.227786
0.209638
0.191424
0.173151
0.154811
0.136411
0.117946
0.0994174
0.0808273
0.0621696
0.0434518
0.024668
0.0058242
-0.0130863
-0.0320563
-0.0510916
-0.0701905
-0.089352
-0.108581
-0.127871
-0.147231
-0.166654
-0.186147
-0.205706
-0.225339
-0.245038
-0.264815
-0.284665
-0.304588
-0.324587
-0.34466
-0.364807
-0.385024
-0.405312
-0.425663
-0.446083
-0.466557
-0.487097
-0.507687
-0.528337
-0.549042
-0.569801
-0.590611
-0.611479
-0.632401
-0.653379
-0.674414
-0.695508
-0.716658
-0.737871
-0.759142
-0.780475
-0.801872
-0.823328
-0.844851
-0.86644
-0.888091
-0.909811
-0.931603
-0.953464
-0.975393
-0.997395
-1.01947
-1.04162
-1.06385
-1.08615
-1.10854
-1.131
-1.15355
-1.17618
-1.19891
-1.22171
-1.24462
-1.26762
-1.29072
-1.31392
-1.33722
-1.36062
-1.38413
-1.40774
-1.43145
-1.45526
-1.47916
-1.50316
-1.52725
-1.55143
-1.5757
-1.60004
-1.62444
-1.64891
-1.67344
-1.698
-1.72259
-1.74721
-1.77184
-1.79647
-1.82109
-1.84572
-1.87034
-1.895
-1.91974
-1.94466
-1.96987
-1.99558
-2.02205
-2.04935
-2.07761
-2.10586
-2.13395
-2.15968
-2.18392
1.60228
1.59197
1.58077
1.56765
1.55386
1.53966
1.5257
1.51204
1.49873
1.48567
1.47274
1.45986
1.44697
1.43401
1.42096
1.40781
1.39454
1.38116
1.36765
1.35404
1.34031
1.32648
1.31256
1.29855
1.28444
1.27027
1.25601
1.24169
1.2273
1.21285
1.19833
1.18376
1.16912
1.15443
1.13967
1.12486
1.10998
1.09504
1.08004
1.06497
1.04984
1.03464
1.01938
1.00405
0.988662
0.973203
0.957678
0.942092
0.926438
0.910719
0.894935
0.879089
0.86318
0.847206
0.83117
0.815077
0.798919
0.782703
0.766425
0.750089
0.733688
0.717231
0.700708
0.684127
0.667478
0.650767
0.633992
0.617151
0.600244
0.583272
0.566233
0.549129
0.531956
0.514721
0.497418
0.480051
0.462616
0.445119
0.427554
0.409925
0.392232
0.374474
0.356649
0.338761
0.320809
0.30279
0.284708
0.266559
0.248348
0.230069
0.211729
0.19332
0.174848
0.156312
0.137706
0.119042
0.100306
0.0815092
0.062643
0.0437144
0.0247179
0.00566051
-0.0134644
-0.0326498
-0.0519054
-0.071218
-0.0906043
-0.11005
-0.129565
-0.149147
-0.168795
-0.188514
-0.2083
-0.228161
-0.248092
-0.2681
-0.288181
-0.308337
-0.328572
-0.348878
-0.369257
-0.389708
-0.410226
-0.430808
-0.451455
-0.47216
-0.492923
-0.513738
-0.534612
-0.555536
-0.576516
-0.597547
-0.618632
-0.639772
-0.660965
-0.682215
-0.703525
-0.724886
-0.746311
-0.767791
-0.789337
-0.810939
-0.832606
-0.854332
-0.876126
-0.897979
-0.919903
-0.941895
-0.963952
-0.986078
-1.00828
-1.03055
-1.0529
-1.07531
-1.09781
-1.12039
-1.14304
-1.16577
-1.18859
-1.21149
-1.23449
-1.25757
-1.28074
-1.30402
-1.32739
-1.35085
-1.37442
-1.39808
-1.42184
-1.44569
-1.46965
-1.49369
-1.51782
-1.54203
-1.56632
-1.59069
-1.61513
-1.63962
-1.66417
-1.68875
-1.71337
-1.738
-1.76265
-1.78729
-1.81194
-1.83657
-1.8612
-1.88585
-1.91055
-1.93537
-1.96043
-1.9859
-2.01194
-2.0388
-2.06642
-2.09472
-2.12259
-2.14971
-2.17442
-2.19769
1.60784
1.59824
1.58772
1.57538
1.56208
1.54808
1.53411
1.52034
1.50691
1.49375
1.48077
1.46788
1.455
1.44209
1.42909
1.416
1.4028
1.38947
1.37603
1.36247
1.3488
1.33501
1.32113
1.30715
1.29308
1.27891
1.26468
1.25036
1.23598
1.22152
1.207
1.19241
1.17775
1.16303
1.14825
1.13341
1.1185
1.10352
1.08848
1.07337
1.05819
1.04295
1.02764
1.01226
0.996812
0.981297
0.965712
0.950061
0.934345
0.918556
0.902698
0.886776
0.870791
0.854737
0.838615
0.822433
0.806184
0.78987
0.773489
0.75705
0.740542
0.72397
0.707333
0.690629
0.673861
0.657024
0.640118
0.623146
0.606103
0.588994
0.571815
0.554566
0.537249
0.519863
0.502408
0.484885
0.467294
0.449634
0.431906
0.414111
0.396245
0.378316
0.360315
0.34225
0.324118
0.305915
0.287646
0.269309
0.250908
0.232434
0.213899
0.195291
0.176619
0.157879
0.13907
0.120196
0.101253
0.0822438
0.0631656
0.0440215
0.0248085
0.00553266
-0.0138104
-0.0332181
-0.0526926
-0.072232
-0.0918397
-0.111514
-0.131254
-0.151066
-0.170942
-0.190894
-0.210912
-0.231006
-0.251174
-0.271419
-0.291736
-0.31213
-0.332603
-0.353145
-0.373764
-0.394451
-0.415203
-0.43602
-0.456897
-0.477832
-0.498823
-0.519868
-0.540965
-0.562116
-0.583317
-0.604569
-0.625876
-0.647234
-0.668648
-0.690116
-0.711637
-0.733218
-0.754853
-0.776548
-0.798303
-0.820111
-0.841988
-0.863924
-0.88592
-0.907977
-0.930104
-0.952294
-0.974547
-0.996873
-1.01927
-1.04174
-1.06427
-1.08688
-1.10957
-1.13233
-1.15516
-1.17808
-1.20108
-1.22416
-1.24733
-1.27059
-1.29394
-1.31738
-1.34091
-1.36453
-1.38825
-1.41207
-1.43597
-1.45997
-1.48405
-1.50822
-1.53247
-1.55679
-1.58119
-1.60566
-1.63017
-1.65475
-1.67935
-1.704
-1.72865
-1.75333
-1.77799
-1.80266
-1.82731
-1.85196
-1.8766
-1.90129
-1.92605
-1.951
-1.97626
-2.00201
-2.02841
-2.0556
-2.08341
-2.11156
-2.1388
-2.16484
-2.18862
-2.2109
1.61312
1.60413
1.59428
1.58271
1.56999
1.55635
1.54248
1.52865
1.51511
1.50185
1.4888
1.47588
1.463
1.45012
1.43717
1.42414
1.411
1.39774
1.38436
1.37086
1.35724
1.34352
1.32968
1.31573
1.3017
1.28756
1.27335
1.25905
1.24467
1.23022
1.21569
1.2011
1.18643
1.1717
1.1569
1.14202
1.12709
1.11208
1.09701
1.08186
1.06664
1.05136
1.036
1.02057
1.00507
0.989505
0.973863
0.958155
0.942372
0.926519
0.910595
0.894603
0.878538
0.862408
0.8462
0.829929
0.81359
0.79718
0.780701
0.764157
0.747542
0.730857
0.714104
0.697281
0.68039
0.663427
0.646393
0.629288
0.612109
0.59486
0.57754
0.560145
0.542681
0.525142
0.507535
0.489854
0.472103
0.45428
0.436384
0.418421
0.400382
0.382279
0.364101
0.345852
0.327537
0.309147
0.290689
0.272161
0.253562
0.234894
0.216157
0.197346
0.17847
0.159522
0.140506
0.121418
0.102262
0.0830372
0.0637406
0.0443758
0.0249419
0.00544246
-0.0141255
-0.0337579
-0.0534593
-0.0732295
-0.0930648
-0.112971
-0.132944
-0.15299
-0.173104
-0.19329
-0.21355
-0.233884
-0.254292
-0.274781
-0.295341
-0.315981
-0.336696
-0.35748
-0.378343
-0.399267
-0.420261
-0.441316
-0.462428
-0.483598
-0.504819
-0.526097
-0.547423
-0.568802
-0.590229
-0.611708
-0.63324
-0.654822
-0.676457
-0.698144
-0.719886
-0.741684
-0.763537
-0.785448
-0.807416
-0.829438
-0.851523
-0.873667
-0.89587
-0.918134
-0.94047
-0.962858
-0.985317
-1.00784
-1.03043
-1.05309
-1.07582
-1.09862
-1.12149
-1.14444
-1.16746
-1.19055
-1.21373
-1.23698
-1.26033
-1.28376
-1.30727
-1.33087
-1.35456
-1.37834
-1.40221
-1.42617
-1.45021
-1.47434
-1.49854
-1.52283
-1.54719
-1.57162
-1.59611
-1.62066
-1.64525
-1.66989
-1.69456
-1.71923
-1.74393
-1.76862
-1.79332
-1.81799
-1.84265
-1.86731
-1.89198
-1.91671
-1.94158
-1.96668
-1.99218
-2.01825
-2.04498
-2.07243
-2.10023
-2.12798
-2.15444
-2.17937
-2.20222
-2.22367
1.61808
1.60962
1.60044
1.58961
1.57757
1.56438
1.55074
1.53695
1.52334
1.50998
1.49685
1.48388
1.471
1.45813
1.44523
1.43224
1.41917
1.40598
1.39267
1.37924
1.36568
1.35202
1.33823
1.32434
1.31034
1.29624
1.28206
1.26778
1.25342
1.23898
1.22446
1.20986
1.19519
1.18045
1.16563
1.15074
1.13578
1.12075
1.10564
1.09046
1.07521
1.05989
1.04449
1.02902
1.01347
0.997849
0.982158
0.966388
0.950548
0.934631
0.918642
0.902579
0.886443
0.870232
0.853945
0.837585
0.821155
0.804653
0.788075
0.771424
0.754703
0.737906
0.721037
0.704093
0.687079
0.669988
0.652824
0.635587
0.618271
0.60088
0.583417
0.565878
0.548261
0.530572
0.512807
0.494969
0.477054
0.459064
0.441002
0.422863
0.404653
0.386368
0.368011
0.349577
0.331073
0.312494
0.293842
0.275117
0.25632
0.23745
0.218508
0.199492
0.180404
0.161246
0.142014
0.12271
0.103336
0.0838871
0.0643703
0.0447782
0.0251183
0.00538822
-0.0144065
-0.0342743
-0.0542071
-0.0742111
-0.0942847
-0.114426
-0.13464
-0.154925
-0.175282
-0.195712
-0.216216
-0.236799
-0.257456
-0.278191
-0.299002
-0.319893
-0.340855
-0.361892
-0.382997
-0.404171
-0.425407
-0.446705
-0.468059
-0.489466
-0.510927
-0.532437
-0.554
-0.57561
-0.597268
-0.61898
-0.640741
-0.662549
-0.68441
-0.706324
-0.728288
-0.750311
-0.772384
-0.794515
-0.816698
-0.83894
-0.86124
-0.883593
-0.906007
-0.928484
-0.951024
-0.973621
-0.996279
-1.019
-1.04179
-1.06465
-1.08757
-1.11056
-1.13362
-1.15676
-1.17995
-1.20323
-1.22659
-1.25002
-1.27353
-1.29712
-1.3208
-1.34456
-1.3684
-1.39234
-1.41635
-1.44044
-1.46462
-1.48887
-1.5132
-1.53759
-1.56205
-1.58657
-1.61115
-1.63577
-1.66043
-1.68512
-1.70983
-1.73454
-1.75925
-1.78397
-1.80866
-1.83335
-1.85801
-1.88269
-1.9074
-1.9322
-1.95719
-1.98249
-2.00824
-2.03461
-2.06161
-2.08918
-2.11677
-2.14396
-2.16947
-2.19333
-2.21523
-2.23589
1.62276
1.61478
1.60622
1.59612
1.58478
1.57218
1.55887
1.54521
1.5316
1.51817
1.50496
1.49194
1.47904
1.46618
1.45331
1.44038
1.42736
1.41424
1.40101
1.38764
1.37416
1.36055
1.34683
1.33299
1.31905
1.30499
1.29084
1.2766
1.26226
1.24784
1.23333
1.21874
1.20407
1.18932
1.1745
1.15959
1.14461
1.12955
1.11442
1.09921
1.08393
1.06857
1.05313
1.03762
1.02203
1.00636
0.990616
0.974795
0.958897
0.942918
0.926864
0.910731
0.894521
0.878234
0.861871
0.845423
0.828903
0.812305
0.795629
0.778874
0.762045
0.745135
0.72815
0.711088
0.693946
0.676727
0.659432
0.642057
0.624607
0.607074
0.589463
0.571777
0.554009
0.536165
0.518242
0.50024
0.48216
0.464003
0.445768
0.427455
0.409065
0.390598
0.372053
0.353434
0.334737
0.315963
0.297115
0.278187
0.259189
0.240111
0.220959
0.201732
0.18243
0.163052
0.143603
0.124077
0.104476
0.0848028
0.0650542
0.0452311
0.0253384
0.00537409
-0.0146597
-0.0347624
-0.0549372
-0.0751821
-0.0954955
-0.115884
-0.136343
-0.156875
-0.177481
-0.198164
-0.218919
-0.239757
-0.260668
-0.28166
-0.302729
-0.323872
-0.345092
-0.366384
-0.387744
-0.409169
-0.430655
-0.4522
-0.4738
-0.495454
-0.517156
-0.538908
-0.56071
-0.582556
-0.604455
-0.626402
-0.648394
-0.670438
-0.69253
-0.714676
-0.736874
-0.759121
-0.78142
-0.803776
-0.826182
-0.848646
-0.871163
-0.893737
-0.916366
-0.93906
-0.961804
-0.984609
-1.00748
-1.03041
-1.0534
-1.07645
-1.09957
-1.12275
-1.146
-1.16932
-1.19271
-1.21616
-1.23969
-1.26331
-1.28698
-1.31074
-1.33458
-1.35849
-1.38249
-1.40657
-1.43072
-1.45495
-1.47925
-1.50362
-1.52806
-1.55255
-1.57711
-1.60171
-1.62636
-1.65105
-1.67576
-1.70049
-1.72523
-1.74997
-1.7747
-1.79942
-1.82412
-1.84879
-1.87347
-1.89817
-1.92292
-1.94782
-1.97296
-1.99846
-2.02449
-2.05112
-2.0783
-2.1058
-2.13301
-2.1594
-2.18394
-2.20672
-2.2277
-2.24767
1.62715
1.61963
1.61163
1.60222
1.59161
1.57965
1.5668
1.55338
1.53985
1.5264
1.51314
1.50006
1.48713
1.47427
1.46142
1.44854
1.43558
1.42253
1.40936
1.39608
1.38266
1.36913
1.35547
1.3417
1.3278
1.3138
1.29969
1.28548
1.27118
1.25678
1.24228
1.22771
1.21304
1.19829
1.18346
1.16855
1.15356
1.13849
1.12333
1.1081
1.09279
1.0774
1.06193
1.04638
1.03074
1.01503
0.999231
0.983357
0.967403
0.951366
0.93525
0.919051
0.902767
0.886404
0.869961
0.85343
0.83682
0.820125
0.803352
0.786495
0.769555
0.752536
0.735433
0.718251
0.700984
0.683637
0.666207
0.648698
0.631108
0.613433
0.595676
0.577837
0.559919
0.541917
0.523831
0.505667
0.487418
0.46909
0.45068
0.432189
0.413618
0.394963
0.376232
0.357417
0.338528
0.319553
0.300503
0.281373
0.262163
0.242875
0.22351
0.204065
0.184545
0.164944
0.14527
0.125515
0.105687
0.0857786
0.0657953
0.0457349
0.0256028
0.00539775
-0.014878
-0.0352273
-0.0556451
-0.0761394
-0.0967008
-0.117341
-0.138051
-0.158839
-0.179701
-0.200639
-0.221658
-0.242753
-0.263927
-0.285182
-0.306511
-0.327921
-0.349399
-0.370954
-0.392573
-0.414255
-0.435998
-0.457796
-0.47965
-0.50155
-0.523504
-0.545503
-0.567548
-0.589642
-0.611781
-0.633969
-0.656202
-0.678483
-0.700816
-0.723197
-0.745629
-0.768109
-0.790642
-0.813223
-0.835861
-0.85855
-0.881289
-0.904087
-0.926937
-0.949847
-0.972807
-0.995825
-1.01891
-1.04204
-1.06524
-1.08849
-1.11181
-1.13519
-1.15863
-1.18214
-1.20571
-1.22935
-1.25306
-1.27684
-1.30069
-1.32461
-1.34861
-1.37268
-1.39683
-1.42104
-1.44533
-1.46969
-1.49411
-1.51859
-1.54313
-1.56772
-1.59236
-1.61705
-1.64176
-1.6665
-1.69126
-1.71602
-1.74079
-1.76553
-1.79027
-1.81498
-1.83968
-1.86436
-1.88904
-1.91377
-1.93859
-1.9636
-1.98891
-2.01464
-2.0409
-2.06773
-2.09495
-2.12221
-2.14883
-2.17432
-2.19781
-2.21958
-2.2397
-2.25893
1.63134
1.62423
1.61672
1.60796
1.59807
1.5868
1.57449
1.56143
1.54807
1.53466
1.52137
1.50825
1.49529
1.48241
1.46959
1.45674
1.44384
1.43085
1.41776
1.40455
1.39122
1.37776
1.36417
1.35046
1.33663
1.32268
1.30862
1.29445
1.28018
1.26581
1.25134
1.23678
1.22213
1.20739
1.19255
1.17764
1.16264
1.14756
1.13239
1.11713
1.1018
1.08638
1.07087
1.05528
1.03961
1.02385
1.00801
0.992085
0.976078
0.959981
0.943804
0.927536
0.911188
0.894748
0.878224
0.861611
0.84491
0.828124
0.811253
0.79429
0.777244
0.760112
0.742892
0.725587
0.708199
0.690723
0.67316
0.655512
0.637781
0.619965
0.602059
0.584069
0.565993
0.547832
0.529585
0.511253
0.492833
0.474332
0.455743
0.43707
0.418314
0.399471
0.380549
0.361537
0.342446
0.323272
0.304013
0.284675
0.265253
0.245747
0.226166
0.206496
0.186752
0.166924
0.147018
0.12703
0.106966
0.0868187
0.0665958
0.046291
0.0259136
0.00546071
-0.0150625
-0.0356634
-0.0563333
-0.0770805
-0.0979005
-0.118798
-0.139765
-0.160818
-0.18194
-0.203146
-0.22443
-0.245791
-0.267236
-0.288758
-0.310357
-0.332037
-0.353783
-0.375604
-0.397487
-0.419433
-0.441439
-0.463496
-0.485607
-0.507766
-0.529973
-0.552225
-0.574523
-0.596866
-0.619257
-0.641689
-0.664167
-0.686696
-0.709273
-0.731895
-0.754564
-0.777284
-0.800054
-0.822873
-0.845741
-0.868664
-0.891632
-0.914655
-0.937732
-0.960863
-0.984043
-1.00728
-1.03057
-1.05392
-1.07732
-1.10079
-1.1243
-1.14788
-1.17152
-1.19522
-1.21898
-1.2428
-1.26669
-1.29064
-1.31466
-1.33875
-1.36291
-1.38713
-1.41142
-1.43577
-1.46019
-1.48467
-1.50921
-1.5338
-1.55844
-1.58312
-1.60784
-1.63259
-1.65737
-1.68215
-1.70695
-1.73173
-1.75651
-1.78127
-1.806
-1.83071
-1.85539
-1.88007
-1.90478
-1.92954
-1.95444
-1.97958
-2.00506
-2.03101
-2.05746
-2.08438
-2.11148
-2.13833
-2.16418
-2.1887
-2.21113
-2.23193
-2.25129
-2.26987
1.63532
1.62857
1.62151
1.61333
1.60413
1.59358
1.58189
1.56928
1.55618
1.54289
1.52962
1.51649
1.50349
1.49061
1.47779
1.46498
1.45212
1.4392
1.42618
1.41304
1.39979
1.38641
1.37289
1.35925
1.34549
1.3316
1.31759
1.30347
1.28924
1.27491
1.26047
1.24593
1.2313
1.21657
1.20174
1.18683
1.17183
1.15673
1.14155
1.12628
1.11092
1.09548
1.07994
1.06432
1.04861
1.03281
1.01693
1.00096
0.984897
0.968744
0.952506
0.936175
0.919756
0.903244
0.886641
0.869946
0.853161
0.836282
0.819312
0.802248
0.785095
0.767849
0.750514
0.73309
0.715574
0.69797
0.680276
0.662491
0.644617
0.626654
0.608602
0.590457
0.572224
0.553902
0.53549
0.516989
0.498398
0.479721
0.46095
0.442095
0.42315
0.404115
0.384996
0.365786
0.346492
0.327111
0.307641
0.288091
0.268449
0.248727
0.228919
0.209025
0.189049
0.168989
0.148846
0.128622
0.108314
0.0879245
0.0674542
0.0468992
0.0262713
0.00556443
-0.0152144
-0.0360695
-0.0570016
-0.078007
-0.0990907
-0.120251
-0.141487
-0.162805
-0.184201
-0.205674
-0.227234
-0.248868
-0.270588
-0.292386
-0.314261
-0.336213
-0.358234
-0.380328
-0.402483
-0.424696
-0.446971
-0.469292
-0.491667
-0.514088
-0.536555
-0.559067
-0.581622
-0.604224
-0.626866
-0.649554
-0.672286
-0.695065
-0.717889
-0.740758
-0.763675
-0.786637
-0.809649
-0.832709
-0.855815
-0.878974
-0.902178
-0.925431
-0.948735
-0.97209
-0.995497
-1.01896
-1.04246
-1.06603
-1.08964
-1.11332
-1.13704
-1.16081
-1.18465
-1.20854
-1.23249
-1.2565
-1.28056
-1.30469
-1.32888
-1.35313
-1.37744
-1.40181
-1.42624
-1.45073
-1.47528
-1.49988
-1.52452
-1.54923
-1.57396
-1.59872
-1.62351
-1.64832
-1.67315
-1.69797
-1.72279
-1.7476
-1.77238
-1.79714
-1.82186
-1.84656
-1.87124
-1.89593
-1.92065
-1.94548
-1.97048
-1.99575
-2.02142
-2.04754
-2.07411
-2.10099
-2.12781
-2.15405
-2.17905
-2.2025
-2.22392
-2.24382
-2.26246
-2.28045
1.63913
1.63272
1.62604
1.61838
1.60982
1.59998
1.58896
1.57688
1.56415
1.55106
1.53787
1.52475
1.51175
1.49886
1.48604
1.47325
1.46044
1.44757
1.43462
1.42157
1.40838
1.39508
1.38165
1.36808
1.35438
1.34056
1.32662
1.31255
1.29837
1.28408
1.26967
1.25517
1.24055
1.22584
1.21103
1.19612
1.18112
1.16602
1.15083
1.13555
1.12017
1.10471
1.08915
1.0735
1.05775
1.04192
1.02599
1.00997
0.993865
0.977658
0.961363
0.944971
0.928481
0.911901
0.895221
0.878444
0.861572
0.844601
0.827536
0.810373
0.793112
0.775756
0.758305
0.74076
0.723118
0.705386
0.687558
0.669637
0.651619
0.633511
0.61531
0.597012
0.57862
0.560136
0.541557
0.522888
0.504118
0.485263
0.46631
0.447268
0.42813
0.408903
0.389581
0.370174
0.350668
0.331079
0.311395
0.291624
0.271763
0.251814
0.231778
0.211653
0.191443
0.171143
0.150761
0.130292
0.109735
0.0890944
0.0683737
0.0475613
0.0266774
0.005709
-0.0153287
-0.0364489
-0.0576467
-0.0789208
-0.100271
-0.121705
-0.143215
-0.164807
-0.186479
-0.208233
-0.230071
-0.251988
-0.27399
-0.296067
-0.318229
-0.340456
-0.362761
-0.385129
-0.407563
-0.430052
-0.452599
-0.475191
-0.49784
-0.520526
-0.54326
-0.566036
-0.588857
-0.611719
-0.634622
-0.657568
-0.68056
-0.703594
-0.726673
-0.749793
-0.772964
-0.796176
-0.819435
-0.84274
-0.866092
-0.889488
-0.912928
-0.93642
-0.959957
-0.983544
-1.00718
-1.03086
-1.0546
-1.07838
-1.1022
-1.12609
-1.15001
-1.17399
-1.19803
-1.22211
-1.24625
-1.27044
-1.29469
-1.31899
-1.34335
-1.36776
-1.39222
-1.41674
-1.44131
-1.46593
-1.4906
-1.51532
-1.54008
-1.56486
-1.58968
-1.61452
-1.63937
-1.66424
-1.68911
-1.71396
-1.7388
-1.76362
-1.7884
-1.81315
-1.83788
-1.86257
-1.88724
-1.91194
-1.9367
-1.9616
-1.9867
-2.01213
-2.03795
-2.06419
-2.09078
-2.11748
-2.14385
-2.16936
-2.19336
-2.21577
-2.23623
-2.25532
-2.27331
-2.29075
1.64279
1.63666
1.63032
1.62312
1.61515
1.60599
1.59565
1.58418
1.5719
1.55909
1.54606
1.53299
1.52001
1.50712
1.4943
1.48154
1.46876
1.45595
1.44306
1.43008
1.41698
1.40375
1.3904
1.37691
1.36329
1.34954
1.33566
1.32166
1.30753
1.29328
1.27892
1.26445
1.24987
1.23518
1.22038
1.20549
1.1905
1.1754
1.1602
1.14492
1.12952
1.11404
1.09846
1.08278
1.06701
1.05114
1.03518
1.01911
1.00296
0.986704
0.970353
0.953903
0.93735
0.9207
0.903946
0.88709
0.870132
0.853071
0.835911
0.818648
0.801284
0.783817
0.766251
0.748587
0.730825
0.712959
0.694999
0.67694
0.658784
0.640528
0.622174
0.603725
0.585173
0.566524
0.547779
0.528936
0.509993
0.490953
0.471818
0.452583
0.433252
0.41383
0.394304
0.374689
0.354976
0.335169
0.31527
0.295275
0.275191
0.255009
0.234742
0.21438
0.193929
0.173387
0.152757
0.132036
0.111229
0.090334
0.0693511
0.0482781
0.0271311
0.0058981
-0.015411
-0.0367997
-0.0582673
-0.0798174
-0.101445
-0.123155
-0.144946
-0.166822
-0.188775
-0.210819
-0.23294
-0.255148
-0.277436
-0.299804
-0.32225
-0.344765
-0.367359
-0.390008
-0.412724
-0.435497
-0.458318
-0.481192
-0.504114
-0.527076
-0.550081
-0.57313
-0.596221
-0.619348
-0.642519
-0.665731
-0.688985
-0.712281
-0.735618
-0.759003
-0.782425
-0.80589
-0.829401
-0.852958
-0.876554
-0.900196
-0.923879
-0.94761
-0.971386
-0.995206
-1.01907
-1.04298
-1.06694
-1.09094
-1.11498
-1.13908
-1.16321
-1.1874
-1.21163
-1.23591
-1.26024
-1.28461
-1.30903
-1.33351
-1.35804
-1.3826
-1.40722
-1.43189
-1.45659
-1.48134
-1.50613
-1.53095
-1.55581
-1.58068
-1.60558
-1.63049
-1.6554
-1.68031
-1.70521
-1.73009
-1.75494
-1.77976
-1.80454
-1.82928
-1.85399
-1.87867
-1.90336
-1.92807
-1.95289
-1.97786
-2.00309
-2.02864
-2.05457
-2.08088
-2.10737
-2.13374
-2.15951
-2.18415
-2.20714
-2.2285
-2.24808
-2.26644
-2.28386
-2.30079
1.64636
1.64045
1.6344
1.6276
1.62015
1.61163
1.60197
1.59115
1.5794
1.56696
1.55415
1.54121
1.52826
1.51539
1.50259
1.48984
1.4771
1.46434
1.45151
1.4386
1.42558
1.41244
1.39917
1.38576
1.37222
1.35855
1.34474
1.3308
1.31673
1.30254
1.28823
1.27379
1.25925
1.24459
1.22982
1.21494
1.19996
1.18487
1.16968
1.15438
1.13898
1.12349
1.10789
1.09219
1.07639
1.06049
1.04449
1.02839
1.01219
0.995896
0.979488
0.962982
0.946368
0.929648
0.912826
0.895893
0.878853
0.861706
0.844448
0.82709
0.809619
0.792047
0.774368
0.756584
0.738699
0.720707
0.702614
0.684416
0.666119
0.647715
0.629212
0.610604
0.591895
0.573081
0.554164