/*--------------------------------*- C++ -*----------------------------------*\
  =========                 |
  \\      /  F ield         | OpenFOAM: The Open Source CFD Toolbox
   \\    /   O peration     | Website:  https://openfoam.org
    \\  /    A nd           | Version:  8
     \\/     M anipulation  |
\*---------------------------------------------------------------------------*/
FoamFile
{
    version     2.0;
    format      ascii;
    class       volScalarField;
    location    "5";
    object      nut;
}
// * * * * * * * * * * * * * * * * * * * * * * * * * * * * * * * * * * * * * //

dimensions      [0 2 -1 0 0 0 0];

internalField   nonuniform List<scalar> 
248760
(
0.139974
0.139922
0.139869
0.139817
0.139764
0.139711
0.139658
0.139605
0.139552
0.139499
0.139446
0.139393
0.13934
0.139288
0.139235
0.139183
0.139131
0.139079
0.139027
0.138975
0.138924
0.138873
0.138822
0.138772
0.138722
0.138672
0.138623
0.138574
0.138525
0.138477
0.138429
0.138381
0.138334
0.138287
0.138241
0.138195
0.13815
0.138105
0.138061
0.138017
0.137973
0.13793
0.137887
0.137845
0.137804
0.137762
0.137722
0.137682
0.137642
0.137603
0.137564
0.137526
0.137488
0.137451
0.137414
0.137378
0.137342
0.137307
0.137273
0.137238
0.137204
0.137171
0.137138
0.137106
0.137074
0.137043
0.137012
0.136981
0.136951
0.136922
0.136893
0.136864
0.136836
0.136808
0.136781
0.136754
0.136727
0.136701
0.136675
0.13665
0.136625
0.136601
0.136577
0.136553
0.13653
0.136507
0.136484
0.136462
0.13644
0.136419
0.136398
0.136377
0.136357
0.136336
0.136317
0.136297
0.136278
0.13626
0.136241
0.136223
0.136205
0.136188
0.136171
0.136154
0.136137
0.136121
0.136106
0.13609
0.136075
0.136061
0.136047
0.136034
0.136022
0.136011
0.136001
0.135992
0.135985
0.13598
0.135977
0.135978
0.139974
0.139922
0.139869
0.139816
0.139763
0.13971
0.139657
0.139604
0.139551
0.139498
0.139445
0.139392
0.139339
0.139287
0.139234
0.139182
0.139129
0.139077
0.139026
0.138974
0.138923
0.138872
0.138821
0.13877
0.13872
0.13867
0.138621
0.138572
0.138523
0.138474
0.138426
0.138379
0.138332
0.138285
0.138238
0.138193
0.138147
0.138102
0.138058
0.138013
0.13797
0.137927
0.137884
0.137842
0.1378
0.137759
0.137718
0.137678
0.137638
0.137599
0.13756
0.137522
0.137484
0.137447
0.13741
0.137374
0.137338
0.137302
0.137268
0.137233
0.137199
0.137166
0.137133
0.137101
0.137069
0.137037
0.137006
0.136976
0.136946
0.136916
0.136887
0.136858
0.13683
0.136802
0.136774
0.136747
0.136721
0.136695
0.136669
0.136644
0.136619
0.136594
0.13657
0.136546
0.136523
0.1365
0.136477
0.136455
0.136433
0.136412
0.13639
0.13637
0.136349
0.136329
0.136309
0.13629
0.136271
0.136252
0.136233
0.136215
0.136197
0.13618
0.136163
0.136146
0.136129
0.136113
0.136097
0.136082
0.136067
0.136053
0.136039
0.136026
0.136014
0.136002
0.135992
0.135983
0.135976
0.135971
0.135969
0.13597
0.139974
0.139921
0.139869
0.139816
0.139763
0.13971
0.139656
0.139603
0.13955
0.139497
0.139444
0.139391
0.139338
0.139285
0.139232
0.13918
0.139127
0.139075
0.139023
0.138971
0.13892
0.138869
0.138818
0.138767
0.138717
0.138667
0.138617
0.138568
0.138519
0.13847
0.138422
0.138374
0.138327
0.13828
0.138234
0.138187
0.138142
0.138097
0.138052
0.138008
0.137964
0.13792
0.137878
0.137835
0.137793
0.137752
0.137711
0.137671
0.137631
0.137591
0.137552
0.137514
0.137476
0.137438
0.137401
0.137365
0.137329
0.137293
0.137258
0.137224
0.13719
0.137156
0.137123
0.137091
0.137059
0.137027
0.136996
0.136965
0.136935
0.136905
0.136876
0.136847
0.136818
0.13679
0.136763
0.136736
0.136709
0.136683
0.136657
0.136631
0.136606
0.136581
0.136557
0.136533
0.13651
0.136487
0.136464
0.136442
0.13642
0.136398
0.136377
0.136356
0.136335
0.136315
0.136295
0.136275
0.136256
0.136237
0.136219
0.1362
0.136183
0.136165
0.136148
0.136131
0.136114
0.136098
0.136082
0.136067
0.136052
0.136037
0.136023
0.13601
0.135998
0.135986
0.135976
0.135967
0.13596
0.135955
0.135953
0.135954
0.139974
0.139921
0.139868
0.139815
0.139762
0.139709
0.139655
0.139602
0.139549
0.139495
0.139442
0.139389
0.139336
0.139283
0.13923
0.139177
0.139124
0.139072
0.13902
0.138968
0.138916
0.138865
0.138814
0.138763
0.138712
0.138662
0.138612
0.138563
0.138513
0.138465
0.138416
0.138368
0.138321
0.138273
0.138227
0.13818
0.138134
0.138089
0.138044
0.137999
0.137955
0.137912
0.137869
0.137826
0.137784
0.137742
0.137701
0.13766
0.13762
0.13758
0.137541
0.137503
0.137464
0.137427
0.137389
0.137353
0.137317
0.137281
0.137246
0.137211
0.137177
0.137143
0.13711
0.137077
0.137044
0.137012
0.136981
0.13695
0.13692
0.13689
0.13686
0.136831
0.136802
0.136774
0.136746
0.136719
0.136692
0.136666
0.136639
0.136614
0.136589
0.136564
0.136539
0.136515
0.136491
0.136468
0.136445
0.136423
0.1364
0.136379
0.136357
0.136336
0.136315
0.136295
0.136275
0.136255
0.136236
0.136217
0.136198
0.13618
0.136162
0.136144
0.136126
0.136109
0.136093
0.136076
0.13606
0.136045
0.13603
0.136015
0.136001
0.135988
0.135975
0.135964
0.135954
0.135945
0.135938
0.135933
0.13593
0.135931
0.139974
0.139921
0.139868
0.139814
0.139761
0.139707
0.139654
0.1396
0.139547
0.139493
0.13944
0.139386
0.139333
0.13928
0.139226
0.139174
0.139121
0.139068
0.139016
0.138963
0.138912
0.13886
0.138808
0.138757
0.138706
0.138656
0.138606
0.138556
0.138507
0.138457
0.138409
0.13836
0.138313
0.138265
0.138218
0.138171
0.138125
0.138079
0.138034
0.137989
0.137945
0.137901
0.137858
0.137815
0.137772
0.13773
0.137689
0.137648
0.137607
0.137567
0.137528
0.137489
0.13745
0.137412
0.137375
0.137338
0.137301
0.137265
0.137229
0.137194
0.13716
0.137126
0.137092
0.137059
0.137026
0.136994
0.136963
0.136931
0.136901
0.13687
0.136841
0.136811
0.136782
0.136754
0.136726
0.136698
0.136671
0.136644
0.136618
0.136592
0.136566
0.136541
0.136517
0.136492
0.136468
0.136445
0.136422
0.136399
0.136377
0.136355
0.136333
0.136312
0.136291
0.13627
0.13625
0.13623
0.13621
0.136191
0.136172
0.136154
0.136135
0.136117
0.1361
0.136083
0.136066
0.136049
0.136033
0.136017
0.136002
0.135987
0.135973
0.13596
0.135947
0.135936
0.135925
0.135916
0.135909
0.135904
0.135902
0.135902
0.139973
0.13992
0.139867
0.139813
0.13976
0.139706
0.139652
0.139598
0.139545
0.139491
0.139437
0.139383
0.13933
0.139276
0.139223
0.13917
0.139117
0.139064
0.139011
0.138958
0.138906
0.138854
0.138802
0.138751
0.1387
0.138649
0.138599
0.138548
0.138499
0.138449
0.1384
0.138351
0.138303
0.138255
0.138208
0.138161
0.138114
0.138068
0.138022
0.137977
0.137933
0.137888
0.137844
0.137801
0.137758
0.137716
0.137674
0.137633
0.137592
0.137551
0.137512
0.137472
0.137433
0.137395
0.137357
0.13732
0.137283
0.137246
0.137211
0.137175
0.13714
0.137106
0.137072
0.137038
0.137005
0.136973
0.136941
0.136909
0.136878
0.136848
0.136818
0.136788
0.136759
0.13673
0.136701
0.136674
0.136646
0.136619
0.136592
0.136566
0.13654
0.136515
0.13649
0.136465
0.136441
0.136417
0.136394
0.136371
0.136348
0.136326
0.136304
0.136283
0.136261
0.136241
0.13622
0.1362
0.13618
0.136161
0.136142
0.136123
0.136104
0.136086
0.136068
0.136051
0.136034
0.136017
0.136001
0.135985
0.135969
0.135955
0.13594
0.135927
0.135914
0.135902
0.135892
0.135883
0.135875
0.13587
0.135868
0.135868
0.139973
0.13992
0.139866
0.139812
0.139758
0.139704
0.13965
0.139596
0.139542
0.139488
0.139434
0.13938
0.139326
0.139272
0.139219
0.139165
0.139112
0.139059
0.139006
0.138953
0.1389
0.138848
0.138796
0.138744
0.138692
0.138641
0.13859
0.13854
0.13849
0.13844
0.13839
0.138341
0.138293
0.138244
0.138196
0.138149
0.138102
0.138056
0.138009
0.137964
0.137919
0.137874
0.13783
0.137786
0.137743
0.1377
0.137658
0.137616
0.137575
0.137534
0.137493
0.137454
0.137414
0.137376
0.137337
0.1373
0.137262
0.137225
0.137189
0.137153
0.137118
0.137083
0.137049
0.137015
0.136982
0.136949
0.136916
0.136884
0.136853
0.136822
0.136792
0.136761
0.136732
0.136703
0.136674
0.136646
0.136618
0.13659
0.136563
0.136537
0.136511
0.136485
0.13646
0.136435
0.13641
0.136386
0.136363
0.136339
0.136316
0.136294
0.136272
0.13625
0.136228
0.136207
0.136186
0.136166
0.136146
0.136126
0.136107
0.136088
0.136069
0.136051
0.136033
0.136015
0.135998
0.135981
0.135964
0.135948
0.135932
0.135917
0.135903
0.135889
0.135876
0.135864
0.135853
0.135844
0.135837
0.135832
0.135829
0.13583
0.139973
0.139919
0.139865
0.139811
0.139757
0.139703
0.139649
0.139594
0.13954
0.139485
0.139431
0.139377
0.139323
0.139268
0.139214
0.13916
0.139107
0.139053
0.139
0.138947
0.138894
0.138841
0.138788
0.138736
0.138684
0.138633
0.138581
0.13853
0.13848
0.138429
0.13838
0.13833
0.138281
0.138232
0.138184
0.138136
0.138089
0.138042
0.137995
0.137949
0.137903
0.137858
0.137814
0.137769
0.137726
0.137682
0.13764
0.137597
0.137556
0.137514
0.137474
0.137433
0.137394
0.137354
0.137316
0.137277
0.13724
0.137202
0.137166
0.137129
0.137094
0.137058
0.137023
0.136989
0.136955
0.136922
0.136889
0.136857
0.136825
0.136794
0.136763
0.136732
0.136702
0.136673
0.136644
0.136615
0.136587
0.136559
0.136532
0.136505
0.136478
0.136452
0.136426
0.136401
0.136376
0.136352
0.136328
0.136304
0.136281
0.136258
0.136236
0.136213
0.136192
0.13617
0.136149
0.136128
0.136108
0.136088
0.136068
0.136049
0.13603
0.136011
0.135993
0.135975
0.135957
0.13594
0.135923
0.135907
0.135891
0.135876
0.135861
0.135847
0.135834
0.135822
0.135811
0.135802
0.135794
0.135789
0.135787
0.135787
0.139973
0.139919
0.139865
0.13981
0.139756
0.139701
0.139647
0.139592
0.139537
0.139483
0.139428
0.139373
0.139319
0.139264
0.13921
0.139155
0.139101
0.139047
0.138993
0.13894
0.138886
0.138833
0.13878
0.138728
0.138675
0.138623
0.138572
0.13852
0.138469
0.138418
0.138368
0.138318
0.138268
0.138219
0.138171
0.138122
0.138074
0.138027
0.13798
0.137933
0.137887
0.137841
0.137796
0.137751
0.137707
0.137663
0.13762
0.137577
0.137535
0.137493
0.137452
0.137411
0.137371
0.137331
0.137292
0.137253
0.137215
0.137177
0.13714
0.137103
0.137067
0.137031
0.136996
0.136961
0.136927
0.136893
0.13686
0.136827
0.136795
0.136763
0.136732
0.136701
0.13667
0.13664
0.136611
0.136582
0.136553
0.136525
0.136497
0.13647
0.136443
0.136416
0.13639
0.136365
0.136339
0.136315
0.13629
0.136266
0.136243
0.136219
0.136196
0.136174
0.136152
0.13613
0.136109
0.136088
0.136067
0.136047
0.136027
0.136007
0.135988
0.135969
0.13595
0.135932
0.135914
0.135896
0.135879
0.135863
0.135847
0.135831
0.135816
0.135802
0.135789
0.135776
0.135765
0.135756
0.135748
0.135743
0.13574
0.135741
0.139973
0.139918
0.139864
0.139809
0.139754
0.1397
0.139645
0.13959
0.139535
0.139479
0.139424
0.139369
0.139314
0.13926
0.139205
0.13915
0.139096
0.139041
0.138987
0.138933
0.138879
0.138825
0.138772
0.138719
0.138666
0.138614
0.138561
0.13851
0.138458
0.138407
0.138356
0.138305
0.138255
0.138206
0.138156
0.138107
0.138059
0.138011
0.137963
0.137916
0.137869
0.137823
0.137778
0.137732
0.137687
0.137643
0.137599
0.137556
0.137513
0.137471
0.137429
0.137388
0.137347
0.137307
0.137267
0.137228
0.137189
0.137151
0.137113
0.137076
0.137039
0.137003
0.136967
0.136932
0.136897
0.136862
0.136829
0.136795
0.136763
0.13673
0.136698
0.136667
0.136636
0.136606
0.136576
0.136546
0.136517
0.136488
0.13646
0.136432
0.136405
0.136378
0.136352
0.136326
0.1363
0.136275
0.13625
0.136225
0.136201
0.136178
0.136155
0.136132
0.136109
0.136087
0.136065
0.136044
0.136023
0.136002
0.135982
0.135962
0.135942
0.135923
0.135904
0.135885
0.135867
0.135849
0.135832
0.135815
0.135799
0.135783
0.135768
0.135753
0.13574
0.135727
0.135716
0.135706
0.135699
0.135693
0.135691
0.135691
0.139973
0.139918
0.139863
0.139808
0.139753
0.139698
0.139642
0.139587
0.139532
0.139476
0.139421
0.139365
0.13931
0.139255
0.1392
0.139145
0.13909
0.139035
0.13898
0.138926
0.138871
0.138817
0.138763
0.13871
0.138656
0.138603
0.138551
0.138498
0.138446
0.138394
0.138343
0.138292
0.138241
0.138191
0.138141
0.138092
0.138043
0.137994
0.137946
0.137898
0.137851
0.137804
0.137758
0.137712
0.137667
0.137622
0.137578
0.137534
0.13749
0.137447
0.137405
0.137363
0.137322
0.137281
0.13724
0.137201
0.137161
0.137122
0.137084
0.137046
0.137009
0.136972
0.136936
0.1369
0.136865
0.13683
0.136796
0.136762
0.136728
0.136696
0.136663
0.136631
0.1366
0.136569
0.136538
0.136508
0.136479
0.13645
0.136421
0.136393
0.136365
0.136338
0.136311
0.136284
0.136258
0.136233
0.136207
0.136182
0.136158
0.136134
0.13611
0.136087
0.136064
0.136042
0.136019
0.135998
0.135976
0.135955
0.135934
0.135914
0.135894
0.135874
0.135855
0.135836
0.135818
0.1358
0.135782
0.135765
0.135748
0.135732
0.135717
0.135702
0.135688
0.135675
0.135664
0.135654
0.135646
0.135641
0.135638
0.135639
0.139973
0.139918
0.139862
0.139807
0.139752
0.139696
0.13964
0.139585
0.139529
0.139473
0.139417
0.139361
0.139306
0.13925
0.139194
0.139139
0.139083
0.139028
0.138973
0.138918
0.138863
0.138809
0.138754
0.1387
0.138646
0.138593
0.13854
0.138487
0.138434
0.138382
0.13833
0.138278
0.138227
0.138176
0.138126
0.138076
0.138026
0.137977
0.137928
0.13788
0.137832
0.137785
0.137738
0.137691
0.137645
0.1376
0.137555
0.13751
0.137466
0.137423
0.13738
0.137337
0.137295
0.137254
0.137213
0.137172
0.137132
0.137093
0.137054
0.137016
0.136978
0.13694
0.136904
0.136867
0.136831
0.136796
0.136761
0.136727
0.136693
0.136659
0.136626
0.136594
0.136562
0.136531
0.1365
0.136469
0.136439
0.136409
0.13638
0.136351
0.136323
0.136295
0.136268
0.136241
0.136214
0.136188
0.136163
0.136137
0.136112
0.136088
0.136064
0.13604
0.136017
0.135994
0.135971
0.135949
0.135927
0.135906
0.135885
0.135864
0.135844
0.135824
0.135804
0.135785
0.135766
0.135747
0.135729
0.135712
0.135695
0.135678
0.135663
0.135648
0.135634
0.135621
0.135609
0.135599
0.135591
0.135585
0.135583
0.135583
0.139972
0.139917
0.139862
0.139806
0.13975
0.139694
0.139638
0.139582
0.139526
0.13947
0.139414
0.139357
0.139301
0.139245
0.139189
0.139133
0.139077
0.139021
0.138966
0.13891
0.138855
0.1388
0.138745
0.13869
0.138636
0.138582
0.138528
0.138475
0.138421
0.138369
0.138316
0.138264
0.138212
0.138161
0.13811
0.138059
0.138009
0.137959
0.137909
0.137861
0.137812
0.137764
0.137717
0.137669
0.137623
0.137577
0.137531
0.137486
0.137441
0.137397
0.137354
0.13731
0.137268
0.137226
0.137184
0.137143
0.137102
0.137062
0.137023
0.136984
0.136945
0.136907
0.13687
0.136833
0.136796
0.13676
0.136725
0.13669
0.136656
0.136622
0.136588
0.136555
0.136523
0.136491
0.136459
0.136428
0.136397
0.136367
0.136337
0.136308
0.136279
0.136251
0.136223
0.136196
0.136169
0.136142
0.136116
0.13609
0.136065
0.13604
0.136015
0.135991
0.135967
0.135944
0.135921
0.135898
0.135876
0.135854
0.135833
0.135812
0.135791
0.135771
0.135751
0.135731
0.135712
0.135693
0.135675
0.135657
0.135639
0.135623
0.135606
0.135591
0.135577
0.135564
0.135552
0.135541
0.135533
0.135527
0.135525
0.135526
0.139972
0.139917
0.139861
0.139805
0.139749
0.139692
0.139636
0.139579
0.139523
0.139466
0.13941
0.139353
0.139297
0.13924
0.139183
0.139127
0.139071
0.139014
0.138958
0.138902
0.138847
0.138791
0.138736
0.13868
0.138625
0.138571
0.138516
0.138462
0.138408
0.138355
0.138302
0.138249
0.138197
0.138145
0.138093
0.138042
0.137991
0.13794
0.13789
0.137841
0.137792
0.137743
0.137695
0.137647
0.1376
0.137553
0.137507
0.137461
0.137416
0.137371
0.137327
0.137283
0.137239
0.137197
0.137154
0.137113
0.137072
0.137031
0.136991
0.136951
0.136912
0.136873
0.136835
0.136797
0.13676
0.136724
0.136688
0.136652
0.136617
0.136583
0.136548
0.136515
0.136482
0.136449
0.136417
0.136385
0.136354
0.136323
0.136293
0.136263
0.136234
0.136205
0.136177
0.136149
0.136121
0.136094
0.136067
0.136041
0.136015
0.13599
0.135965
0.13594
0.135916
0.135892
0.135869
0.135846
0.135823
0.135801
0.135779
0.135757
0.135736
0.135715
0.135695
0.135675
0.135655
0.135636
0.135617
0.135599
0.135582
0.135564
0.135548
0.135532
0.135518
0.135504
0.135492
0.135482
0.135473
0.135467
0.135465
0.135466
0.139972
0.139916
0.13986
0.139804
0.139747
0.13969
0.139634
0.139577
0.13952
0.139463
0.139406
0.139349
0.139292
0.139235
0.139178
0.139121
0.139064
0.139007
0.138951
0.138894
0.138838
0.138782
0.138726
0.13867
0.138615
0.138559
0.138504
0.13845
0.138395
0.138341
0.138287
0.138234
0.138181
0.138128
0.138076
0.138024
0.137972
0.137921
0.137871
0.13782
0.137771
0.137721
0.137672
0.137624
0.137576
0.137529
0.137482
0.137435
0.137389
0.137344
0.137299
0.137254
0.13721
0.137167
0.137124
0.137082
0.13704
0.136998
0.136957
0.136917
0.136877
0.136838
0.136799
0.136761
0.136723
0.136686
0.136649
0.136613
0.136577
0.136542
0.136508
0.136473
0.13644
0.136406
0.136374
0.136341
0.13631
0.136278
0.136248
0.136217
0.136187
0.136158
0.136129
0.1361
0.136072
0.136045
0.136018
0.135991
0.135964
0.135938
0.135913
0.135888
0.135863
0.135839
0.135815
0.135791
0.135768
0.135746
0.135723
0.135701
0.13568
0.135658
0.135638
0.135617
0.135597
0.135578
0.135558
0.13554
0.135522
0.135504
0.135488
0.135472
0.135457
0.135443
0.135431
0.13542
0.135411
0.135405
0.135402
0.135403
0.139972
0.139916
0.139859
0.139802
0.139746
0.139689
0.139631
0.139574
0.139517
0.13946
0.139402
0.139345
0.139287
0.13923
0.139172
0.139115
0.139057
0.139
0.138943
0.138886
0.138829
0.138772
0.138716
0.13866
0.138603
0.138548
0.138492
0.138437
0.138382
0.138327
0.138273
0.138219
0.138165
0.138111
0.138059
0.138006
0.137954
0.137902
0.137851
0.1378
0.137749
0.137699
0.13765
0.1376
0.137552
0.137504
0.137456
0.137409
0.137362
0.137316
0.13727
0.137225
0.13718
0.137136
0.137093
0.13705
0.137007
0.136965
0.136923
0.136882
0.136842
0.136802
0.136762
0.136724
0.136685
0.136647
0.13661
0.136573
0.136537
0.136501
0.136465
0.136431
0.136396
0.136363
0.136329
0.136296
0.136264
0.136232
0.136201
0.13617
0.136139
0.136109
0.13608
0.136051
0.136022
0.135994
0.135966
0.135939
0.135912
0.135885
0.135859
0.135834
0.135809
0.135784
0.135759
0.135735
0.135712
0.135689
0.135666
0.135643
0.135621
0.1356
0.135578
0.135558
0.135537
0.135517
0.135498
0.135479
0.13546
0.135442
0.135425
0.135409
0.135394
0.13538
0.135367
0.135356
0.135347
0.135341
0.135338
0.135339
0.139972
0.139915
0.139858
0.139801
0.139744
0.139687
0.139629
0.139572
0.139514
0.139456
0.139398
0.13934
0.139282
0.139224
0.139166
0.139108
0.139051
0.138993
0.138935
0.138878
0.13882
0.138763
0.138706
0.138649
0.138592
0.138536
0.13848
0.138424
0.138368
0.138313
0.138258
0.138203
0.138148
0.138094
0.138041
0.137988
0.137935
0.137882
0.13783
0.137778
0.137727
0.137677
0.137626
0.137576
0.137527
0.137478
0.13743
0.137382
0.137334
0.137288
0.137241
0.137195
0.13715
0.137105
0.137061
0.137017
0.136974
0.136931
0.136889
0.136847
0.136806
0.136765
0.136725
0.136685
0.136646
0.136607
0.136569
0.136532
0.136495
0.136458
0.136422
0.136387
0.136352
0.136317
0.136283
0.13625
0.136217
0.136185
0.136153
0.136121
0.13609
0.136059
0.136029
0.136
0.13597
0.135942
0.135913
0.135885
0.135858
0.135831
0.135804
0.135778
0.135753
0.135727
0.135702
0.135678
0.135654
0.13563
0.135607
0.135584
0.135561
0.135539
0.135518
0.135496
0.135475
0.135455
0.135435
0.135416
0.135397
0.135379
0.135361
0.135344
0.135329
0.135314
0.135302
0.13529
0.135281
0.135275
0.135272
0.135273
0.139972
0.139915
0.139858
0.1398
0.139743
0.139685
0.139627
0.139569
0.139511
0.139453
0.139394
0.139336
0.139277
0.139219
0.139161
0.139102
0.139044
0.138985
0.138927
0.138869
0.138811
0.138753
0.138696
0.138638
0.138581
0.138524
0.138467
0.13841
0.138354
0.138298
0.138242
0.138187
0.138132
0.138077
0.138023
0.137969
0.137915
0.137862
0.137809
0.137757
0.137705
0.137654
0.137603
0.137552
0.137502
0.137452
0.137403
0.137354
0.137306
0.137259
0.137211
0.137165
0.137119
0.137073
0.137028
0.136983
0.136939
0.136896
0.136853
0.13681
0.136769
0.136727
0.136686
0.136646
0.136606
0.136567
0.136528
0.13649
0.136452
0.136415
0.136378
0.136342
0.136307
0.136271
0.136237
0.136203
0.136169
0.136136
0.136103
0.136071
0.136039
0.136008
0.135977
0.135947
0.135917
0.135888
0.135859
0.135831
0.135803
0.135775
0.135748
0.135721
0.135695
0.135669
0.135644
0.135619
0.135594
0.13557
0.135546
0.135523
0.1355
0.135477
0.135455
0.135433
0.135412
0.135391
0.135371
0.135351
0.135332
0.135313
0.135295
0.135278
0.135262
0.135248
0.135234
0.135223
0.135214
0.135207
0.135204
0.135205
0.139972
0.139914
0.139857
0.139799
0.139741
0.139683
0.139625
0.139566
0.139508
0.139449
0.13939
0.139331
0.139273
0.139214
0.139155
0.139096
0.139037
0.138978
0.138919
0.138861
0.138802
0.138744
0.138685
0.138627
0.138569
0.138512
0.138454
0.138397
0.13834
0.138283
0.138227
0.138171
0.138115
0.13806
0.138005
0.13795
0.137896
0.137842
0.137788
0.137735
0.137682
0.13763
0.137578
0.137527
0.137476
0.137426
0.137376
0.137327
0.137278
0.137229
0.137181
0.137134
0.137087
0.137041
0.136995
0.136949
0.136905
0.13686
0.136817
0.136773
0.136731
0.136689
0.136647
0.136606
0.136565
0.136525
0.136486
0.136447
0.136409
0.136371
0.136333
0.136297
0.13626
0.136224
0.136189
0.136154
0.13612
0.136086
0.136053
0.13602
0.135988
0.135956
0.135925
0.135894
0.135863
0.135833
0.135804
0.135775
0.135746
0.135718
0.13569
0.135663
0.135636
0.13561
0.135584
0.135559
0.135533
0.135509
0.135484
0.13546
0.135437
0.135414
0.135391
0.135369
0.135347
0.135326
0.135305
0.135285
0.135265
0.135246
0.135228
0.135211
0.135194
0.135179
0.135166
0.135154
0.135145
0.135138
0.135135
0.135136
0.139971
0.139914
0.139856
0.139798
0.13974
0.139681
0.139622
0.139564
0.139505
0.139446
0.139386
0.139327
0.139268
0.139208
0.139149
0.139089
0.13903
0.138971
0.138911
0.138852
0.138793
0.138734
0.138675
0.138616
0.138558
0.138499
0.138441
0.138383
0.138326
0.138268
0.138211
0.138154
0.138098
0.138042
0.137986
0.137931
0.137876
0.137821
0.137767
0.137713
0.137659
0.137606
0.137554
0.137502
0.13745
0.137399
0.137348
0.137298
0.137249
0.137199
0.137151
0.137102
0.137055
0.137008
0.136961
0.136915
0.136869
0.136824
0.13678
0.136736
0.136692
0.13665
0.136607
0.136565
0.136524
0.136483
0.136443
0.136403
0.136364
0.136326
0.136288
0.13625
0.136213
0.136176
0.13614
0.136105
0.13607
0.136036
0.136002
0.135968
0.135935
0.135903
0.135871
0.135839
0.135808
0.135778
0.135747
0.135718
0.135689
0.13566
0.135632
0.135604
0.135576
0.13555
0.135523
0.135497
0.135471
0.135446
0.135421
0.135397
0.135373
0.135349
0.135326
0.135303
0.135281
0.135259
0.135238
0.135217
0.135197
0.135178
0.135159
0.135141
0.135125
0.135109
0.135096
0.135084
0.135074
0.135067
0.135064
0.135065
0.139971
0.139913
0.139855
0.139797
0.139738
0.139679
0.13962
0.139561
0.139502
0.139442
0.139382
0.139323
0.139263
0.139203
0.139143
0.139083
0.139023
0.138963
0.138903
0.138843
0.138784
0.138724
0.138665
0.138605
0.138546
0.138487
0.138428
0.13837
0.138311
0.138253
0.138196
0.138138
0.138081
0.138024
0.137967
0.137911
0.137855
0.1378
0.137745
0.13769
0.137636
0.137582
0.137529
0.137476
0.137424
0.137372
0.13732
0.137269
0.137219
0.137169
0.13712
0.137071
0.137022
0.136974
0.136927
0.13688
0.136833
0.136788
0.136742
0.136698
0.136653
0.13661
0.136567
0.136524
0.136482
0.13644
0.136399
0.136359
0.136319
0.13628
0.136241
0.136203
0.136165
0.136128
0.136091
0.136055
0.136019
0.135984
0.135949
0.135915
0.135882
0.135848
0.135816
0.135784
0.135752
0.135721
0.13569
0.13566
0.13563
0.135601
0.135572
0.135543
0.135515
0.135488
0.135461
0.135434
0.135408
0.135382
0.135357
0.135332
0.135307
0.135283
0.135259
0.135236
0.135214
0.135191
0.13517
0.135148
0.135128
0.135108
0.135089
0.135071
0.135054
0.135038
0.135024
0.135012
0.135002
0.134995
0.134991
0.134992
0.139971
0.139913
0.139854
0.139796
0.139737
0.139677
0.139618
0.139558
0.139498
0.139439
0.139378
0.139318
0.139258
0.139197
0.139137
0.139076
0.139016
0.138956
0.138895
0.138835
0.138774
0.138714
0.138654
0.138594
0.138534
0.138475
0.138415
0.138356
0.138297
0.138238
0.13818
0.138121
0.138063
0.138006
0.137949
0.137892
0.137835
0.137779
0.137723
0.137668
0.137613
0.137558
0.137504
0.13745
0.137397
0.137344
0.137292
0.13724
0.137189
0.137138
0.137088
0.137038
0.136989
0.13694
0.136892
0.136844
0.136797
0.13675
0.136704
0.136659
0.136614
0.136569
0.136525
0.136482
0.136439
0.136397
0.136355
0.136314
0.136273
0.136233
0.136194
0.136155
0.136116
0.136078
0.136041
0.136004
0.135967
0.135931
0.135896
0.135861
0.135827
0.135793
0.13576
0.135727
0.135695
0.135663
0.135631
0.1356
0.13557
0.13554
0.135511
0.135482
0.135453
0.135425
0.135397
0.13537
0.135343
0.135317
0.135291
0.135265
0.13524
0.135216
0.135192
0.135168
0.135145
0.135122
0.1351
0.135078
0.135057
0.135037
0.135017
0.134999
0.134981
0.134965
0.134951
0.134938
0.134928
0.134921
0.134918
0.134919
0.139971
0.139912
0.139854
0.139795
0.139735
0.139676
0.139616
0.139556
0.139495
0.139435
0.139374
0.139314
0.139253
0.139192
0.139131
0.13907
0.139009
0.138948
0.138887
0.138826
0.138765
0.138704
0.138643
0.138583
0.138522
0.138462
0.138402
0.138342
0.138282
0.138223
0.138164
0.138105
0.138046
0.137988
0.13793
0.137872
0.137815
0.137758
0.137701
0.137645
0.137589
0.137534
0.137479
0.137424
0.13737
0.137317
0.137264
0.137211
0.137159
0.137107
0.137056
0.137005
0.136955
0.136906
0.136857
0.136808
0.13676
0.136713
0.136666
0.136619
0.136574
0.136528
0.136484
0.136439
0.136396
0.136353
0.13631
0.136268
0.136227
0.136186
0.136145
0.136106
0.136066
0.136028
0.135989
0.135952
0.135915
0.135878
0.135842
0.135806
0.135771
0.135737
0.135703
0.135669
0.135636
0.135604
0.135572
0.13554
0.135509
0.135479
0.135448
0.135419
0.13539
0.135361
0.135333
0.135305
0.135277
0.13525
0.135224
0.135198
0.135172
0.135147
0.135122
0.135098
0.135074
0.135051
0.135028
0.135006
0.134985
0.134964
0.134944
0.134925
0.134907
0.134891
0.134876
0.134863
0.134853
0.134846
0.134842
0.134843
0.139971
0.139912
0.139853
0.139793
0.139734
0.139674
0.139613
0.139553
0.139492
0.139431
0.13937
0.139309
0.139248
0.139187
0.139125
0.139063
0.139002
0.13894
0.138879
0.138817
0.138756
0.138694
0.138633
0.138571
0.13851
0.138449
0.138389
0.138328
0.138267
0.138207
0.138147
0.138088
0.138028
0.137969
0.13791
0.137852
0.137794
0.137736
0.137679
0.137622
0.137565
0.137509
0.137453
0.137398
0.137343
0.137289
0.137235
0.137181
0.137128
0.137076
0.137024
0.136972
0.136921
0.136871
0.136821
0.136772
0.136723
0.136675
0.136627
0.13658
0.136533
0.136487
0.136441
0.136396
0.136352
0.136308
0.136265
0.136222
0.136179
0.136138
0.136097
0.136056
0.136016
0.135977
0.135938
0.135899
0.135861
0.135824
0.135787
0.135751
0.135715
0.13568
0.135645
0.135611
0.135577
0.135544
0.135511
0.135479
0.135447
0.135416
0.135385
0.135355
0.135325
0.135296
0.135267
0.135238
0.13521
0.135183
0.135156
0.135129
0.135103
0.135077
0.135052
0.135027
0.135003
0.134979
0.134956
0.134933
0.134911
0.13489
0.13487
0.13485
0.134832
0.134815
0.1348
0.134787
0.134776
0.134769
0.134765
0.134766
0.139971
0.139912
0.139852
0.139792
0.139732
0.139672
0.139611
0.13955
0.139489
0.139428
0.139366
0.139305
0.139243
0.139181
0.139119
0.139057
0.138995
0.138933
0.13887
0.138808
0.138746
0.138684
0.138622
0.13856
0.138498
0.138437
0.138375
0.138314
0.138253
0.138192
0.138131
0.138071
0.13801
0.137951
0.137891
0.137832
0.137773
0.137714
0.137656
0.137598
0.137541
0.137484
0.137427
0.137371
0.137315
0.13726
0.137205
0.137151
0.137097
0.137044
0.136991
0.136939
0.136887
0.136836
0.136785
0.136735
0.136685
0.136636
0.136587
0.136539
0.136492
0.136445
0.136398
0.136352
0.136307
0.136262
0.136218
0.136175
0.136132
0.136089
0.136047
0.136006
0.135965
0.135925
0.135885
0.135846
0.135807
0.135769
0.135731
0.135694
0.135658
0.135622
0.135586
0.135551
0.135517
0.135483
0.13545
0.135417
0.135384
0.135352
0.135321
0.13529
0.13526
0.13523
0.1352
0.135171
0.135142
0.135114
0.135087
0.135059
0.135033
0.135006
0.13498
0.134955
0.13493
0.134906
0.134882
0.134859
0.134837
0.134815
0.134794
0.134774
0.134755
0.134738
0.134723
0.134709
0.134698
0.134691
0.134687
0.134688
0.13997
0.139911
0.139851
0.139791
0.139731
0.13967
0.139609
0.139548
0.139486
0.139424
0.139362
0.1393
0.139238
0.139176
0.139113
0.13905
0.138988
0.138925
0.138862
0.138799
0.138737
0.138674
0.138611
0.138549
0.138486
0.138424
0.138362
0.1383
0.138238
0.138176
0.138115
0.138054
0.137993
0.137932
0.137872
0.137812
0.137752
0.137692
0.137633
0.137575
0.137517
0.137459
0.137401
0.137344
0.137288
0.137232
0.137176
0.137121
0.137066
0.137012
0.136958
0.136905
0.136852
0.1368
0.136748
0.136697
0.136647
0.136597
0.136547
0.136498
0.13645
0.136402
0.136355
0.136308
0.136262
0.136216
0.136171
0.136127
0.136083
0.13604
0.135997
0.135955
0.135913
0.135872
0.135831
0.135791
0.135752
0.135713
0.135675
0.135637
0.1356
0.135563
0.135527
0.135491
0.135456
0.135421
0.135387
0.135354
0.13532
0.135288
0.135256
0.135224
0.135193
0.135162
0.135132
0.135102
0.135073
0.135044
0.135016
0.134988
0.134961
0.134934
0.134908
0.134882
0.134856
0.134831
0.134807
0.134783
0.13476
0.134738
0.134717
0.134697
0.134677
0.13466
0.134644
0.13463
0.134619
0.134611
0.134608
0.134609
0.13997
0.139911
0.13985
0.13979
0.139729
0.139668
0.139607
0.139545
0.139483
0.139421
0.139358
0.139296
0.139233
0.13917
0.139107
0.139044
0.138981
0.138917
0.138854
0.138791
0.138727
0.138664
0.138601
0.138537
0.138474
0.138411
0.138348
0.138285
0.138223
0.13816
0.138098
0.138036
0.137975
0.137913
0.137852
0.137791
0.137731
0.13767
0.137611
0.137551
0.137492
0.137433
0.137375
0.137317
0.13726
0.137203
0.137146
0.13709
0.137035
0.136979
0.136925
0.136871
0.136817
0.136764
0.136712
0.13666
0.136608
0.136557
0.136507
0.136457
0.136408
0.136359
0.136311
0.136263
0.136216
0.13617
0.136124
0.136079
0.136034
0.13599
0.135946
0.135903
0.135861
0.135819
0.135777
0.135737
0.135696
0.135657
0.135617
0.135579
0.135541
0.135503
0.135466
0.13543
0.135394
0.135359
0.135324
0.135289
0.135256
0.135222
0.135189
0.135157
0.135125
0.135094
0.135063
0.135033
0.135003
0.134974
0.134945
0.134916
0.134888
0.134861
0.134834
0.134807
0.134781
0.134756
0.134731
0.134707
0.134683
0.13466
0.134639
0.134618
0.134598
0.13458
0.134564
0.13455
0.134539
0.134531
0.134527
0.134528
0.13997
0.13991
0.13985
0.139789
0.139728
0.139666
0.139604
0.139542
0.13948
0.139417
0.139354
0.139291
0.139228
0.139165
0.139101
0.139037
0.138973
0.13891
0.138846
0.138782
0.138718
0.138654
0.13859
0.138526
0.138462
0.138398
0.138335
0.138271
0.138208
0.138145
0.138082
0.138019
0.137956
0.137894
0.137832
0.137771
0.137709
0.137648
0.137587
0.137527
0.137467
0.137408
0.137348
0.13729
0.137231
0.137174
0.137116
0.137059
0.137003
0.136947
0.136891
0.136836
0.136782
0.136728
0.136674
0.136621
0.136569
0.136517
0.136466
0.136415