/*--------------------------------*- C++ -*----------------------------------*\
  =========                 |
  \\      /  F ield         | OpenFOAM: The Open Source CFD Toolbox
   \\    /   O peration     | Website:  https://openfoam.org
    \\  /    A nd           | Version:  8
     \\/     M anipulation  |
\*---------------------------------------------------------------------------*/
FoamFile
{
    version     2.0;
    format      ascii;
    class       volScalarField;
    location    "5";
    object      p;
}
// * * * * * * * * * * * * * * * * * * * * * * * * * * * * * * * * * * * * * //

dimensions      [0 2 -2 0 0 0 0];

internalField   nonuniform List<scalar> 
248760
(
0.016874
0.0168391
0.0166775
0.0164453
0.0161344
0.0157475
0.0152896
0.014764
0.0141738
0.0135222
0.0128123
0.0120468
0.0112286
0.0103602
0.00944423
0.00848313
0.00747927
0.00643496
0.00535242
0.00423384
0.00308131
0.00189688
0.000682558
-0.000559721
-0.00182806
-0.00312063
-0.00443563
-0.00577131
-0.00712599
-0.008498
-0.00988574
-0.0112877
-0.0127022
-0.014128
-0.0155635
-0.0170074
-0.0184584
-0.0199152
-0.0213764
-0.022841
-0.0243078
-0.0257757
-0.0272436
-0.0287104
-0.0301753
-0.0316372
-0.0330952
-0.0345486
-0.0359966
-0.0374382
-0.0388729
-0.0402998
-0.0417184
-0.0431279
-0.0445279
-0.0459178
-0.047297
-0.0486651
-0.0500215
-0.051366
-0.052698
-0.0540172
-0.0553232
-0.0566158
-0.0578947
-0.0591595
-0.0604101
-0.0616462
-0.0628676
-0.0640741
-0.0652656
-0.0664419
-0.067603
-0.0687485
-0.0698786
-0.0709931
-0.0720919
-0.073175
-0.0742424
-0.0752939
-0.0763297
-0.0773496
-0.0783537
-0.079342
-0.0803146
-0.0812714
-0.0822124
-0.0831378
-0.0840475
-0.0849417
-0.0858203
-0.0866835
-0.0875312
-0.0883637
-0.0891808
-0.0899828
-0.0907697
-0.0915416
-0.0922986
-0.0930407
-0.0937681
-0.0944808
-0.0951789
-0.0958626
-0.0965319
-0.0971869
-0.0978277
-0.0984544
-0.099067
-0.0996658
-0.100251
-0.100822
-0.101379
-0.101923
-0.102454
-0.102971
-0.103474
-0.103965
-0.104456
-0.104943
0.0168848
0.0168492
0.0166889
0.0164566
0.0161461
0.0157595
0.015302
0.0147767
0.0141869
0.0135357
0.0128261
0.0120611
0.0112432
0.0103752
0.00945969
0.00849899
0.00749554
0.00645164
0.00536951
0.00425133
0.0030992
0.00191517
0.000701239
-0.000540656
-0.00180862
-0.00310082
-0.00441546
-0.0057508
-0.00710514
-0.00847682
-0.00986425
-0.0112659
-0.0126802
-0.0141056
-0.0155409
-0.0169846
-0.0184354
-0.0198919
-0.021353
-0.0228174
-0.024284
-0.0257517
-0.0272195
-0.0286862
-0.0301509
-0.0316128
-0.0330708
-0.0345241
-0.035972
-0.0374136
-0.0388482
-0.0402752
-0.0416938
-0.0431034
-0.0445034
-0.0458933
-0.0472726
-0.0486407
-0.0499972
-0.0513418
-0.0526739
-0.0539932
-0.0552994
-0.0565921
-0.0578711
-0.0591361
-0.0603868
-0.061623
-0.0628446
-0.0640513
-0.0652429
-0.0664194
-0.0675806
-0.0687264
-0.0698567
-0.0709713
-0.0720703
-0.0731536
-0.0742212
-0.0752729
-0.0763089
-0.077329
-0.0783334
-0.0793219
-0.0802946
-0.0812516
-0.0821929
-0.0831184
-0.0840284
-0.0849227
-0.0858016
-0.0866649
-0.0875129
-0.0883455
-0.0891629
-0.0899651
-0.0907522
-0.0915242
-0.0922814
-0.0930237
-0.0937512
-0.0944641
-0.0951624
-0.0958462
-0.0965156
-0.0971707
-0.0978116
-0.0984384
-0.0990511
-0.0996499
-0.100235
-0.100806
-0.101364
-0.101908
-0.102438
-0.102955
-0.103458
-0.103949
-0.10444
-0.104925
0.0169031
0.0168677
0.0167082
0.0164763
0.0161664
0.0157804
0.0153235
0.0147988
0.0142096
0.0135591
0.0128502
0.0120858
0.0112686
0.0104014
0.00948651
0.00852652
0.00752377
0.00648057
0.00539914
0.00428166
0.00313022
0.00194687
0.000733607
-0.000507631
-0.00177496
-0.00306653
-0.00438056
-0.00571531
-0.00706908
-0.00844022
-0.00982712
-0.0112282
-0.0126421
-0.0140671
-0.015502
-0.0169452
-0.0183956
-0.0198518
-0.0213126
-0.0227768
-0.0242431
-0.0257106
-0.0271782
-0.0286448
-0.0301094
-0.0315711
-0.033029
-0.0344823
-0.0359302
-0.0373718
-0.0388065
-0.0402335
-0.0416522
-0.0430618
-0.044462
-0.0458521
-0.0472315
-0.0485998
-0.0499566
-0.0513013
-0.0526337
-0.0539533
-0.0552598
-0.0565528
-0.0578321
-0.0590974
-0.0603485
-0.061585
-0.062807
-0.064014
-0.0652061
-0.0663829
-0.0675445
-0.0686907
-0.0698214
-0.0709364
-0.0720359
-0.0731196
-0.0741876
-0.0752397
-0.0762761
-0.0772967
-0.0783015
-0.0792904
-0.0802636
-0.081221
-0.0821627
-0.0830887
-0.0839991
-0.0848939
-0.0857732
-0.0866369
-0.0874853
-0.0883184
-0.0891362
-0.0899388
-0.0907263
-0.0914987
-0.0922563
-0.0929989
-0.0937269
-0.0944401
-0.0951388
-0.0958229
-0.0964927
-0.0971481
-0.0977893
-0.0984164
-0.0990294
-0.0996285
-0.100214
-0.100785
-0.101343
-0.101887
-0.102418
-0.102935
-0.103438
-0.103928
-0.10442
-0.104905
0.0169301
0.0168955
0.0167367
0.0165056
0.0161966
0.0158114
0.0153553
0.0148316
0.0142434
0.0135938
0.0128859
0.0121225
0.0113063
0.0104401
0.00952622
0.00856727
0.00756556
0.0065234
0.005443
0.00432654
0.00317612
0.00199378
0.000781509
-0.000458757
-0.00172513
-0.00301577
-0.0043289
-0.00566278
-0.0070157
-0.00838603
-0.00977216
-0.0111725
-0.0125856
-0.01401
-0.0154442
-0.0168869
-0.0183368
-0.0197925
-0.0212528
-0.0227166
-0.0241826
-0.0256497
-0.027117
-0.0285833
-0.0300477
-0.0315093
-0.0329671
-0.0344203
-0.0358681
-0.0373097
-0.0387444
-0.0401715
-0.0415903
-0.0430001
-0.0444005
-0.0457907
-0.0471704
-0.048539
-0.049896
-0.0512411
-0.0525738
-0.0538938
-0.0552006
-0.0564941
-0.0577738
-0.0590396
-0.0602911
-0.0615282
-0.0627506
-0.0639582
-0.0651507
-0.0663281
-0.0674903
-0.068637
-0.0697682
-0.0708839
-0.0719839
-0.0730682
-0.0741368
-0.0751896
-0.0762266
-0.0772478
-0.0782531
-0.0792427
-0.0802165
-0.0811745
-0.0821168
-0.0830435
-0.0839544
-0.0848498
-0.0857297
-0.0865941
-0.087443
-0.0882767
-0.089095
-0.0898982
-0.0906863
-0.0914593
-0.0922174
-0.0929606
-0.0936891
-0.0944028
-0.095102
-0.0957866
-0.0964569
-0.0971127
-0.0977544
-0.0983819
-0.0989953
-0.0995948
-0.10018
-0.100752
-0.10131
-0.101855
-0.102385
-0.102903
-0.103406
-0.103897
-0.104388
-0.104873
0.0169659
0.0169322
0.0167745
0.0165443
0.0162364
0.0158524
0.0153975
0.0148749
0.0142879
0.0136396
0.012933
0.0121709
0.011356
0.0104911
0.00957864
0.00862105
0.00762071
0.00657991
0.00550087
0.00438576
0.00323668
0.00205566
0.00084469
-0.000394298
-0.00165942
-0.00294885
-0.00426079
-0.00559352
-0.00694534
-0.0083146
-0.00969971
-0.0110991
-0.0125113
-0.0139348
-0.0153682
-0.0168102
-0.0182593
-0.0197143
-0.0211741
-0.0226373
-0.0241028
-0.0255695
-0.0270364
-0.0285024
-0.0299666
-0.0314279
-0.0328856
-0.0343387
-0.0357865
-0.0372281
-0.0386629
-0.04009
-0.041509
-0.042919
-0.0443196
-0.0457101
-0.0470901
-0.0484591
-0.0498166
-0.0511621
-0.0524952
-0.0538157
-0.0551231
-0.0564171
-0.0576974
-0.0589638
-0.060216
-0.0614537
-0.0626768
-0.0638851
-0.0650784
-0.0662565
-0.0674194
-0.0685669
-0.0696989
-0.0708154
-0.0719162
-0.0730013
-0.0740707
-0.0751243
-0.0761621
-0.0771842
-0.0781904
-0.0791808
-0.0801554
-0.0811143
-0.0820574
-0.0829849
-0.0838967
-0.084793
-0.0856736
-0.0865389
-0.0873887
-0.0882231
-0.0890423
-0.0898463
-0.0906351
-0.091409
-0.0921678
-0.0929118
-0.093641
-0.0943556
-0.0950555
-0.0957408
-0.0964118
-0.0970684
-0.0977108
-0.0983389
-0.098953
-0.0995532
-0.100139
-0.100712
-0.10127
-0.101815
-0.102347
-0.102865
-0.103368
-0.10386
-0.104352
-0.104837
0.0170101
0.0169776
0.0168211
0.0165922
0.0162857
0.015903
0.0154495
0.0149285
0.014343
0.0136962
0.0129912
0.0122307
0.0114175
0.0105542
0.00964341
0.00868749
0.00768883
0.00664971
0.00557235
0.00445891
0.00331148
0.00213209
0.000922726
-0.000314686
-0.00157827
-0.00286619
-0.00417667
-0.00550798
-0.00685844
-0.00822639
-0.00961024
-0.0110084
-0.0124195
-0.0138419
-0.0152743
-0.0167153
-0.0181636
-0.0196178
-0.0210768
-0.0225393
-0.0240043
-0.0254705
-0.0269369
-0.0284025
-0.0298664
-0.0313275
-0.032785
-0.034238
-0.0356857
-0.0371273
-0.0385622
-0.0399895
-0.0414086
-0.0428189
-0.0442198
-0.0456107
-0.0469911
-0.0483605
-0.0497184
-0.0510645
-0.0523983
-0.0537194
-0.0550274
-0.0563221
-0.0576032
-0.0588703
-0.0601233
-0.0613619
-0.0625858
-0.063795
-0.0649891
-0.0661682
-0.067332
-0.0684805
-0.0696134
-0.0707309
-0.0718327
-0.0729188
-0.0739892
-0.0750438
-0.0760827
-0.0771057
-0.0781129
-0.0791044
-0.0800801
-0.08104
-0.0819842
-0.0829127
-0.0838255
-0.0847228
-0.0856045
-0.0864708
-0.0873216
-0.088157
-0.0889772
-0.0897822
-0.0905721
-0.0913469
-0.0921067
-0.0928517
-0.0935818
-0.0942973
-0.0949981
-0.0956844
-0.0963562
-0.0970137
-0.097657
-0.098286
-0.098901
-0.0995019
-0.100089
-0.100662
-0.101222
-0.101767
-0.1023
-0.102818
-0.103322
-0.103815
-0.104307
-0.104794
0.0170626
0.0170316
0.0168764
0.0166491
0.0163441
0.0159631
0.0155113
0.014992
0.0144083
0.0137634
0.0130602
0.0123016
0.0114904
0.0106291
0.00972023
0.0087663
0.00776964
0.00673251
0.00565715
0.00454568
0.00340021
0.00222275
0.00101529
-0.00022025
-0.001482
-0.00276814
-0.00407689
-0.00540652
-0.00675535
-0.00812174
-0.0095041
-0.0109009
-0.0123106
-0.0137317
-0.0151629
-0.0166028
-0.01805
-0.0195033
-0.0209614
-0.0224232
-0.0238874
-0.025353
-0.0268189
-0.0282841
-0.0297475
-0.0312083
-0.0326656
-0.0341185
-0.0355661
-0.0370078
-0.0384427
-0.0398702
-0.0412895
-0.0427001
-0.0441014
-0.0454927
-0.0468736
-0.0482436
-0.0496021
-0.0509488
-0.0522833
-0.0536051
-0.054914
-0.0562095
-0.0574915
-0.0587595
-0.0600134
-0.061253
-0.0624779
-0.0636881
-0.0648834
-0.0660635
-0.0672285
-0.0683781
-0.0695122
-0.0706308
-0.0717338
-0.0728211
-0.0738927
-0.0749486
-0.0759886
-0.0770129
-0.0780214
-0.0790141
-0.079991
-0.0809522
-0.0818976
-0.0828274
-0.0837415
-0.08464
-0.0855229
-0.0863904
-0.0872425
-0.0880791
-0.0889006
-0.0897067
-0.0904978
-0.0912738
-0.0920348
-0.092781
-0.0935123
-0.0942289
-0.0949309
-0.0956183
-0.0962913
-0.0969499
-0.0975943
-0.0982244
-0.0988405
-0.0994425
-0.100031
-0.100605
-0.101165
-0.101712
-0.102245
-0.102765
-0.10327
-0.103764
-0.104257
-0.104745
0.0171232
0.0170938
0.0169402
0.0167147
0.0164115
0.0160324
0.0155826
0.0150653
0.0144836
0.0138408
0.0131398
0.0123835
0.0115744
0.0107154
0.00980885
0.00885722
0.00786286
0.00682803
0.00575496
0.00464578
0.00350256
0.00232734
0.00112208
-0.000111303
-0.00137094
-0.00265502
-0.00396177
-0.00528946
-0.00663642
-0.00800101
-0.00938164
-0.0107768
-0.0121849
-0.0136046
-0.0150344
-0.016473
-0.017919
-0.0193712
-0.0208283
-0.0222891
-0.0237525
-0.0252174
-0.0266827
-0.0281473
-0.0296104
-0.0310708
-0.0325279
-0.0339806
-0.0354282
-0.0368698
-0.0383049
-0.0397325
-0.0411521
-0.0425631
-0.0439648
-0.0453566
-0.046738
-0.0481086
-0.0494679
-0.0508154
-0.0521506
-0.0534733
-0.0547831
-0.0560796
-0.0573626
-0.0586317
-0.0598867
-0.0611274
-0.0623535
-0.0635649
-0.0647614
-0.0659429
-0.0671091
-0.06826
-0.0693955
-0.0705154
-0.0716198
-0.0727085
-0.0737815
-0.0748388
-0.0758803
-0.076906
-0.0779159
-0.07891
-0.0798884
-0.080851
-0.0817979
-0.0827291
-0.0836447
-0.0845446
-0.085429
-0.0862979
-0.0871514
-0.0879895
-0.0888124
-0.08962
-0.0904124
-0.0911898
-0.0919523
-0.0926998
-0.0934325
-0.0941504
-0.0948538
-0.0955425
-0.0962168
-0.0968768
-0.0975224
-0.0981538
-0.0987712
-0.0993744
-0.0999638
-0.100539
-0.101101
-0.101649
-0.102184
-0.102704
-0.103211
-0.103705
-0.1042
-0.104689
0.0171917
0.0171642
0.0170124
0.0167889
0.0164878
0.0161108
0.0156632
0.0151481
0.0145688
0.0139284
0.0132298
0.012476
0.0116695
0.010813
0.00990901
0.00895997
0.00796821
0.006936
0.00586552
0.00475892
0.00361826
0.00244556
0.00124279
1.18508e-05
-0.0012454
-0.00252714
-0.00383162
-0.00515712
-0.00650195
-0.00786451
-0.00924319
-0.0106365
-0.0120428
-0.0134609
-0.0148891
-0.0163262
-0.0177709
-0.0192218
-0.0206778
-0.0221376
-0.0236
-0.0250641
-0.0265286
-0.0279927
-0.0294552
-0.0309153
-0.0323721
-0.0338246
-0.0352721
-0.0367138
-0.038149
-0.0395768
-0.0409968
-0.0424081
-0.0438103
-0.0452026
-0.0465848
-0.047956
-0.0493161
-0.0506644
-0.0520006
-0.0533243
-0.0546351
-0.0559327
-0.0572169
-0.0584872
-0.0597435
-0.0609854
-0.0622129
-0.0634257
-0.0646236
-0.0658064
-0.0669742
-0.0681265
-0.0692636
-0.070385
-0.071491
-0.0725813
-0.0736559
-0.0747147
-0.0757579
-0.0767852
-0.0777968
-0.0787926
-0.0797726
-0.0807368
-0.0816854
-0.0826182
-0.0835355
-0.0844371
-0.0853231
-0.0861937
-0.0870488
-0.0878885
-0.088713
-0.0895222
-0.0903163
-0.0910953
-0.0918594
-0.0926084
-0.0933428
-0.0940623
-0.0947672
-0.0954575
-0.0961334
-0.0967948
-0.097442
-0.0980749
-0.0986939
-0.0992986
-0.0998895
-0.100466
-0.10103
-0.101579
-0.102115
-0.102637
-0.103146
-0.103641
-0.104138
-0.104628
0.0172679
0.0172425
0.0170927
0.0168715
0.0165726
0.016198
0.0157528
0.0152403
0.0146636
0.0140258
0.01333
0.0125789
0.0117752
0.0109216
0.0100205
0.0090743
0.00808544
0.00705612
0.00598854
0.00488481
0.003747
0.00257712
0.00137712
0.000148905
-0.00110568
-0.00238482
-0.00368677
-0.00500982
-0.00635229
-0.00771256
-0.00908907
-0.0104803
-0.0118847
-0.0133008
-0.0147273
-0.0161628
-0.0176059
-0.0190555
-0.0205101
-0.0219688
-0.0234302
-0.0248933
-0.0263571
-0.0278205
-0.0292825
-0.0307421
-0.0321986
-0.0336509
-0.0350983
-0.03654
-0.0379753
-0.0394034
-0.0408237
-0.0422355
-0.0436382
-0.0450312
-0.046414
-0.0477861
-0.049147
-0.0504963
-0.0518335
-0.0531583
-0.0544703
-0.0557692
-0.0570546
-0.0583262
-0.0595839
-0.0608273
-0.0620563
-0.0632706
-0.0644701
-0.0656546
-0.0668239
-0.067978
-0.0691167
-0.07024
-0.0713476
-0.0724397
-0.0735161
-0.0745768
-0.0756217
-0.0766509
-0.0776643
-0.0786619
-0.0796438
-0.0806099
-0.0815603
-0.082495
-0.0834141
-0.0843175
-0.0852054
-0.0860779
-0.0869348
-0.0877764
-0.0886027
-0.0894138
-0.0902096
-0.0909905
-0.0917562
-0.0925072
-0.0932432
-0.0939645
-0.0946711
-0.0953632
-0.0960408
-0.096704
-0.0973528
-0.0979875
-0.0986079
-0.0992145
-0.0998069
-0.100386
-0.10095
-0.101502
-0.102039
-0.102563
-0.103072
-0.10357
-0.104068
-0.10456
0.0173517
0.0173285
0.0171809
0.0169622
0.0166658
0.0162938
0.0158513
0.0153416
0.0147677
0.0141329
0.01344
0.012692
0.0118914
0.0110409
0.0101429
0.00919995
0.00821428
0.00718815
0.00612375
0.00502318
0.00388851
0.00272173
0.00152479
0.000299569
-0.000952076
-0.00222835
-0.00352752
-0.00484786
-0.00618772
-0.00754549
-0.00891959
-0.0103085
-0.0117107
-0.0131248
-0.0145494
-0.015983
-0.0174245
-0.0188725
-0.0203257
-0.0217831
-0.0232434
-0.0247055
-0.0261684
-0.027631
-0.0290924
-0.0305516
-0.0320077
-0.0334598
-0.0349071
-0.0363488
-0.0377842
-0.0392126
-0.0406333
-0.0420455
-0.0434488
-0.0448425
-0.0462261
-0.0475991
-0.048961
-0.0503113
-0.0516497
-0.0529757
-0.054289
-0.0555892
-0.056876
-0.0581492
-0.0594084
-0.0606534
-0.0618841
-0.0631001
-0.0643013
-0.0654876
-0.0666587
-0.0678147
-0.0689553
-0.0700804
-0.07119
-0.072284
-0.0733624
-0.0744251
-0.075472
-0.0765032
-0.0775187
-0.0785183
-0.0795023
-0.0804704
-0.0814229
-0.0823597
-0.0832808
-0.0841863
-0.0850763
-0.0859507
-0.0868097
-0.0876534
-0.0884817
-0.0892948
-0.0900926
-0.0908755
-0.0916433
-0.0923962
-0.0931342
-0.0938575
-0.0945661
-0.0952601
-0.0959396
-0.0966048
-0.0972555
-0.0978921
-0.0985145
-0.099123
-0.0997172
-0.100298
-0.100864
-0.101418
-0.101957
-0.102483
-0.102994
-0.103494
-0.103993
-0.104487
0.0174428
0.0174221
0.0172769
0.0170609
0.0167672
0.016398
0.0159585
0.0154518
0.014881
0.0142494
0.0135597
0.012815
0.0120178
0.0111707
0.0102762
0.00933665
0.00835446
0.0073318
0.00627087
0.00517375
0.0040425
0.0028791
0.00168549
0.000463547
-0.000784893
-0.00205804
-0.00335416
-0.00467156
-0.00600857
-0.0073636
-0.00873507
-0.0101215
-0.0115213
-0.0129332
-0.0143556
-0.0157873
-0.0172269
-0.0186732
-0.0201249
-0.0215808
-0.0230399
-0.0245009
-0.0259628
-0.0274246
-0.0288853
-0.030344
-0.0317997
-0.0332515
-0.0346987
-0.0361405
-0.037576
-0.0390047
-0.0404257
-0.0418385
-0.0432424
-0.0446369
-0.0460214
-0.0473953
-0.0487582
-0.0501098
-0.0514493
-0.0527767
-0.0540914
-0.0553931
-0.0566815
-0.0579563
-0.0592172
-0.060464
-0.0616964
-0.0629143
-0.0641174
-0.0653056
-0.0664788
-0.0676368
-0.0687794
-0.0699066
-0.0710184
-0.0721146
-0.0731951
-0.07426
-0.0753091
-0.0763425
-0.0773602
-0.0783621
-0.0793482
-0.0803187
-0.0812734
-0.0822124
-0.0831358
-0.0840436
-0.0849358
-0.0858125
-0.0866737
-0.0875196
-0.0883501
-0.0891654
-0.0899655
-0.0907505
-0.0915205
-0.0922756
-0.0930158
-0.0937412
-0.0944519
-0.095148
-0.0958296
-0.0964968
-0.0971496
-0.0977883
-0.0984126
-0.0990231
-0.0996193
-0.100202
-0.10077
-0.101325
-0.101867
-0.102394
-0.102907
-0.103408
-0.10391
-0.104406
0.0175412
0.0175231
0.0173805
0.0171674
0.0168766
0.0165105
0.0160741
0.0155706
0.0150032
0.014375
0.0136889
0.0129477
0.0121542
0.0113107
0.0104199
0.00948417
0.00850573
0.00748684
0.00642965
0.00533626
0.00420871
0.00304897
0.00185896
0.000640562
-0.000604409
-0.00187417
-0.003167
-0.0044812
-0.00581512
-0.00716718
-0.00853581
-0.00991949
-0.0113167
-0.0127261
-0.0141463
-0.0155758
-0.0170135
-0.0184579
-0.0199079
-0.0213623
-0.02282
-0.0242798
-0.0257407
-0.0272016
-0.0286615
-0.0301196
-0.0315749
-0.0330265
-0.0344736
-0.0359153
-0.037351
-0.03878
-0.0402014
-0.0416148
-0.0430194
-0.0444147
-0.0458
-0.047175
-0.0485391
-0.0498918
-0.0512328
-0.0525616
-0.0538778
-0.0551811
-0.0564712
-0.0577477
-0.0590105
-0.0602592
-0.0614936
-0.0627134
-0.0639187
-0.065109
-0.0662843
-0.0674445
-0.0685894
-0.0697189
-0.0708329
-0.0719314
-0.0730143
-0.0740816
-0.0751331
-0.076169
-0.077189
-0.0781934
-0.079182
-0.0801549
-0.081112
-0.0820535
-0.0829793
-0.0838895
-0.0847842
-0.0856633
-0.086527
-0.0873753
-0.0882083
-0.089026
-0.0898285
-0.0906159
-0.0913883
-0.0921457
-0.0928883
-0.0936161
-0.0943291
-0.0950276
-0.0957115
-0.0963811
-0.0970362
-0.0976771
-0.0983039
-0.0989165
-0.0995152
-0.1001
-0.100671
-0.101228
-0.101772
-0.102302
-0.102817
-0.103321
-0.103824
-0.104323
0.0176466
0.0176313
0.0174915
0.0172815
0.0169938
0.0166309
0.016198
0.015698
0.0151342
0.0145096
0.0138273
0.01309
0.0123003
0.0114608
0.010574
0.00964225
0.00866784
0.00765298
0.00659982
0.00551044
0.00438686
0.00323105
0.00204492
0.000830327
-0.000410913
-0.00167703
-0.00296631
-0.00427707
-0.00560768
-0.00695654
-0.00832209
-0.00970284
-0.0110973
-0.0125041
-0.0139217
-0.015349
-0.0167844
-0.0182269
-0.0196751
-0.0211278
-0.022584
-0.0240425
-0.0255022
-0.0269622
-0.0284214
-0.0298788
-0.0313336
-0.0327849
-0.0342318
-0.0356736
-0.0371094
-0.0385387
-0.0399606
-0.0413746
-0.0427799
-0.044176
-0.0455624
-0.0469385
-0.0483038
-0.0496579
-0.0510003
-0.0523306
-0.0536484
-0.0549535
-0.0562454
-0.0575238
-0.0587886
-0.0600393
-0.0612758
-0.0624979
-0.0637053
-0.0648979
-0.0660756
-0.0672381
-0.0683854
-0.0695174
-0.0706339
-0.071735
-0.0728204
-0.0738902
-0.0749443
-0.0759828
-0.0770055
-0.0780124
-0.0790037
-0.0799792
-0.080939
-0.0818831
-0.0828116
-0.0837245
-0.0846218
-0.0855036
-0.0863699
-0.0872208
-0.0880564
-0.0888767
-0.0896818
-0.0904718
-0.0912467
-0.0920067
-0.0927518
-0.0934821
-0.0941976
-0.0948986
-0.095585
-0.0962569
-0.0969145
-0.0975578
-0.0981868
-0.0988019
-0.0994028
-0.09999
-0.100563
-0.101123
-0.101668
-0.1022
-0.102718
-0.103223
-0.103729
-0.104229
0.0177588
0.0177466
0.0176097
0.017403
0.0171187
0.0167593
0.0163299
0.0158336
0.0152737
0.014653
0.0139747
0.0132415
0.0124559
0.0116207
0.0107381
0.00981066
0.00884055
0.00783
0.00678114
0.00569603
0.0045767
0.00342509
0.0022431
0.00103258
-0.000204672
-0.0014669
-0.00275238
-0.00405946
-0.00538651
-0.00673194
-0.00809421
-0.00947182
-0.0108633
-0.0122672
-0.0136822
-0.015107
-0.0165401
-0.0179804
-0.0194267
-0.0208777
-0.0223322
-0.0237893
-0.0252478
-0.0267067
-0.028165
-0.0296218
-0.031076
-0.032527
-0.0339737
-0.0354155
-0.0368516
-0.0382811
-0.0397035
-0.0411181
-0.0425242
-0.0439212
-0.0453087
-0.0466859
-0.0480526
-0.0494081
-0.050752
-0.052084
-0.0534036
-0.0547105
-0.0560043
-0.0572848
-0.0585517
-0.0598046
-0.0610434
-0.0622677
-0.0634776
-0.0646726
-0.0658528
-0.0670179
-0.0681678
-0.0693024
-0.0704216
-0.0715253
-0.0726135
-0.073686
-0.074743
-0.0757842
-0.0768097
-0.0778195
-0.0788135
-0.0797919
-0.0807545
-0.0817015
-0.0826328
-0.0835485
-0.0844487
-0.0853333
-0.0862024
-0.0870562
-0.0878945
-0.0887176
-0.0895255
-0.0903183
-0.091096
-0.0918587
-0.0926065
-0.0933395
-0.0940577
-0.0947614
-0.0954504
-0.0961251
-0.0967851
-0.0974312
-0.0980627
-0.0986804
-0.0992838
-0.0998736
-0.100449
-0.101011
-0.101559
-0.102094
-0.102614
-0.103122
-0.10363
-0.104133
0.0178777
0.0178687
0.0177349
0.0175317
0.0172509
0.0168952
0.0164697
0.0159774
0.0154214
0.014805
0.0141309
0.013402
0.0126209
0.0117901
0.0109121
0.00998914
0.0090236
0.00801762
0.00697333
0.00589278
0.00477796
0.00363081
0.00245323
0.00124704
1.40348e-05
-0.00124404
-0.00252548
-0.00382864
-0.0051519
-0.00649368
-0.00785244
-0.0092267
-0.010615
-0.0120159
-0.0134281
-0.0148502
-0.0162808
-0.0177188
-0.019163
-0.0206121
-0.0220649
-0.0235205
-0.0249777
-0.0264354
-0.0278928
-0.0293488
-0.0308025
-0.0322531
-0.0336996
-0.0351414
-0.0365776
-0.0380075
-0.0394304
-0.0408456
-0.0422526
-0.0436506
-0.0450391
-0.0464176
-0.0477856
-0.0491427
-0.0504883
-0.051822
-0.0531435
-0.0544523
-0.0557482
-0.0570309
-0.0583
-0.0595552
-0.0607964
-0.0620233
-0.0632356
-0.0644333
-0.0656162
-0.066784
-0.0679366
-0.0690741
-0.0701961
-0.0713027
-0.0723938
-0.0734693
-0.0745292
-0.0755734
-0.0766019
-0.0776147
-0.0786118
-0.0795931
-0.0805588
-0.0815088
-0.0824432
-0.0833619
-0.0842651
-0.0851527
-0.0860249
-0.0868816
-0.087723
-0.0885491
-0.08936
-0.0901557
-0.0909363
-0.091702
-0.0924527
-0.0931885
-0.0939097
-0.0946161
-0.095308
-0.0959854
-0.0966484
-0.097297
-0.0979315
-0.0985517
-0.099158
-0.0997501
-0.100329
-0.100893
-0.101444
-0.101981
-0.102504
-0.103014
-0.103525
-0.104029
0.0180032
0.0179975
0.017867
0.0176675
0.0173905
0.0170386
0.0166171
0.016129
0.0155773
0.0149653
0.0142957
0.0135714
0.0127949
0.0119688
0.0110956
0.0101775
0.00921676
0.00821563
0.00717617
0.00610043
0.00499039
0.00384797
0.00267505
0.00147345
0.000244951
-0.00100872
-0.00228588
-0.00358488
-0.00490411
-0.00624201
-0.00759706
-0.00896776
-0.0103527
-0.0117504
-0.0131595
-0.0145788
-0.0160068
-0.0174424
-0.0188843
-0.0203313
-0.0217823
-0.0232363
-0.024692
-0.0261486
-0.0276049
-0.0290601
-0.0305132
-0.0319634
-0.0334097
-0.0348515
-0.0362878
-0.0377181
-0.0391415
-0.0405574
-0.0419652
-0.0433642
-0.0447539
-0.0461338
-0.0475033
-0.0488619
-0.0502092
-0.0515448
-0.0528682
-0.0541792
-0.0554773
-0.0567622
-0.0580337
-0.0592914
-0.0605352
-0.0617647
-0.0629798
-0.0641802
-0.0653659
-0.0665366
-0.0676922
-0.0688326
-0.0699577
-0.0710673
-0.0721615
-0.0732401
-0.0743031
-0.0753505
-0.0763822
-0.0773982
-0.0783985
-0.0793831
-0.0803521
-0.0813053
-0.0822429
-0.0831649
-0.0840712
-0.0849621
-0.0858375
-0.0866974
-0.087542
-0.0883712
-0.0891852
-0.0899841
-0.0907678
-0.0915366
-0.0922904
-0.0930293
-0.0937535
-0.0944629
-0.0951578
-0.0958381
-0.096504
-0.0971556
-0.0977929
-0.098416
-0.099025
-0.09962
-0.100201
-0.100768
-0.101322
-0.101861
-0.102387
-0.1029
-0.103413
-0.103921
0.018135
0.0181328
0.0180058
0.0178102
0.0175371
0.0171893
0.0167721
0.0162883
0.0157411
0.0151337
0.0144689
0.0137494
0.0129778
0.0121567
0.0112885
0.0103754
0.0094198
0.00842376
0.0073894
0.00631873
0.00521373
0.00407631
0.00290831
0.00171156
0.00048781
-0.000761218
-0.00203385
-0.00332845
-0.00464342
-0.00597722
-0.00732833
-0.00869526
-0.0100766
-0.0114709
-0.0128768
-0.014293
-0.0157183
-0.0171513
-0.0185908
-0.0200357
-0.0214847
-0.0229369
-0.0243912
-0.0258464
-0.0273017
-0.028756
-0.0302085
-0.0316582
-0.0331043
-0.034546
-0.0359825
-0.0374131
-0.038837
-0.0402537
-0.0416623
-0.0430624
-0.0444534
-0.0458346
-0.0472056
-0.0485659
-0.049915
-0.0512526
-0.0525781
-0.0538913
-0.0551917
-0.0564791
-0.057753
-0.0590134
-0.0602598
-0.0614921
-0.0627101
-0.0639135
-0.0651021
-0.0662759
-0.0674346
-0.0685782
-0.0697064
-0.0708194
-0.0719168
-0.0729988
-0.0740651
-0.0751159
-0.0761509
-0.0771703
-0.078174
-0.0791621
-0.0801344
-0.0810911
-0.0820321
-0.0829575
-0.0838673
-0.0847616
-0.0856403
-0.0865037
-0.0873516
-0.0881842
-0.0890016
-0.0898038
-0.0905908
-0.0913628
-0.0921199
-0.0928621
-0.0935895
-0.0943021
-0.0950002
-0.0956837
-0.0963527
-0.0970073
-0.0976477
-0.0982739
-0.0988858
-0.0994839
-0.100068
-0.100638
-0.101194
-0.101737
-0.102265
-0.102781
-0.103297
-0.103808
0.018273
0.0182745
0.0181512
0.0179596
0.0176906
0.0173471
0.0169343
0.0164551
0.0159126
0.0153101
0.0146502
0.0139357
0.0131693
0.0123534
0.0114905
0.0105827
0.00963248
0.0086418
0.00761279
0.00654746
0.00544776
0.00431558
0.00315276
0.00196111
0.000742364
-0.00050177
-0.00176963
-0.00305959
-0.00437008
-0.00569955
-0.0070465
-0.00840945
-0.00978699
-0.0111777
-0.0125802
-0.0139933
-0.0154156
-0.0168458
-0.0182828
-0.0197254
-0.0211724
-0.0226227
-0.0240753
-0.0255292
-0.0269833
-0.0284367
-0.0298884
-0.0313377
-0.0327835
-0.0342251
-0.0356618
-0.0370927
-0.0385172
-0.0399346
-0.0413442
-0.0427454
-0.0441376
-0.0455203
-0.0468929
-0.048255
-0.049606
-0.0509456
-0.0522733
-0.0535888
-0.0548917
-0.0561816
-0.0574582
-0.0587213
-0.0599706
-0.0612058
-0.0624268
-0.0636333
-0.0648251
-0.0660021
-0.0671641
-0.068311
-0.0694427
-0.070559
-0.0716599
-0.0727453
-0.0738152
-0.0748695
-0.0759082
-0.0769312
-0.0779385
-0.0789301
-0.0799061
-0.0808663
-0.081811
-0.08274
-0.0836534
-0.0845513
-0.0854336
-0.0863005
-0.0871521
-0.0879882
-0.0888091
-0.0896148
-0.0904054
-0.0911808
-0.0919413
-0.0926869
-0.0934177
-0.0941337
-0.0948351
-0.0955219
-0.0961942
-0.0968521
-0.0974957
-0.098125
-0.0987402
-0.0993412
-0.0999284
-0.100502
-0.101061
-0.101607
-0.102138
-0.102656
-0.103175
-0.103688
0.0184171
0.0184224
0.0183029
0.0181155
0.0178508
0.0175118
0.0171036
0.0166292
0.0160917
0.0154942
0.0148395
0.0141303
0.0133693
0.0125588
0.0117014
0.0107992
0.00985456
0.00886949
0.00784609
0.00678635
0.0056922
0.00456553
0.00340815
0.00222185
0.00100835
-0.00023064
-0.00149349
-0.00277858
-0.00408435
-0.00540927
-0.00675184
-0.00811061
-0.00948415
-0.0108711
-0.01227
-0.0136797
-0.0150989
-0.0165262
-0.0179605
-0.0194006
-0.0208455
-0.0222939
-0.0237448
-0.0251971
-0.02665
-0.0281024
-0.0295534
-0.0310021
-0.0324476
-0.0338891
-0.0353259
-0.0367572
-0.0381822
-0.0396004
-0.0410109
-0.0424133
-0.0438068
-0.045191
-0.0465653
-0.0479292
-0.0492823
-0.050624
-0.051954
-0.0532719
-0.0545773
-0.0558699
-0.0571493
-0.0584153
-0.0596676
-0.0609059
-0.0621301
-0.0633398
-0.0645349
-0.0657153
-0.0668808
-0.0680312
-0.0691664
-0.0702864
-0.0713909
-0.0724801
-0.0735537
-0.0746117
-0.0756541
-0.0766809
-0.077692
-0.0786874
-0.0796672
-0.0806313
-0.0815797
-0.0825126
-0.0834298
-0.0843314
-0.0852176
-0.0860883
-0.0869436
-0.0877835
-0.0886081
-0.0894175
-0.0902117
-0.0909908
-0.091755
-0.0925042
-0.0932385
-0.0939581
-0.094663
-0.0953532
-0.096029
-0.0966903
-0.0973373
-0.0979699
-0.0985885
-0.0991928
-0.0997833
-0.10036
-0.100922
-0.101471
-0.102005
-0.102527
-0.103049
-0.103565
0.018567
0.0185763
0.0184608
0.0182778
0.0180175
0.0176832
0.0172798
0.0168104
0.016278
0.0156858
0.0150365
0.0143329
0.0135774
0.0127727
0.011921
0.0110247
0.0100858
0.00910663
0.00808909
0.00703519
0.00594685
0.00482593
0.00367424
0.00249354
0.00128555
5.19356e-05
-0.00120566
-0.00248565
-0.00378647
-0.00510661
-0.00644459
-0.00779896
-0.0091683
-0.0105512
-0.0119464
-0.0133526
-0.0147684
-0.0161927
-0.0176242
-0.0190618
-0.0205043
-0.0219506
-0.0233997
-0.0248505
-0.026302
-0.0277533
-0.0292035
-0.0306516
-0.0320968
-0.0335382
-0.0349751
-0.0364067
-0.0378323
-0.0392512
-0.0406628
-0.0420663
-0.0434612
-0.044847
-0.046223
-0.0475889
-0.048944
-0.050288
-0.0516204
-0.0529408
-0.0542489
-0.0555442
-0.0568266
-0.0580956
-0.0593511
-0.0605926
-0.0618201
-0.0630332
-0.0642318
-0.0654158
-0.0665849
-0.067739
-0.068878
-0.0700017
-0.0711101
-0.0722031
-0.0732806
-0.0743425
-0.0753889
-0.0764196
-0.0774348
-0.0784342
-0.079418
-0.0803861
-0.0813385
-0.0822753
-0.0831966
-0.0841022
-0.0849924
-0.085867
-0.0867263
-0.0875701
-0.0883986
-0.0892119
-0.09001
-0.090793
-0.0915609
-0.0923139
-0.093052
-0.0937753
-0.0944839
-0.0951778
-0.0958572
-0.0965221
-0.0971726
-0.0978088
-0.0984308
-0.0990386
-0.0996325
-0.100212
-0.100778
-0.10133
-0.101868
-0.102392
-0.102917
-0.103437
0.0187227
0.0187361
0.0186247
0.0184463
0.0181906
0.0178611
0.0174628
0.0169986
0.0164715
0.0158848
0.0152411
0.0145432
0.0137936
0.0129948
0.0121491
0.0112588
0.0103261
0.00935298
0.00834155
0.00729374
0.00621146
0.00509654
0.00395079
0.00277594
0.00157369
0.000345705
-0.0009064
-0.00218105
-0.00347669
-0.00479183
-0.006125
-0.00747475
-0.0088397
-0.0102185
-0.0116097
-0.0130121
-0.0144245
-0.0158456
-0.0172741
-0.0187089
-0.020149
-0.0215931
-0.0230403
-0.0244894
-0.0259395
-0.0273897
-0.028839
-0.0302864
-0.0317312
-0.0331725
-0.0346095
-0.0360415
-0.0374676
-0.0388873
-0.0402999
-0.0417046
-0.043101
-0.0444884
-0.0458662
-0.0472341
-0.0485914
-0.0499377
-0.0512726
-0.0525956
-0.0539065
-0.0552048
-0.0564902
-0.0577624
-0.0590211
-0.060266
-0.0614969
-0.0627136
-0.0639159
-0.0651036
-0.0662765
-0.0674344
-0.0685773
-0.069705
-0.0708175
-0.0719145
-0.0729961
-0.0740622
-0.0751127
-0.0761476
-0.0771669
-0.0781706
-0.0791585
-0.0801309
-0.0810875
-0.0820286
-0.082954
-0.0838638
-0.0847581
-0.085637
-0.0865003
-0.0873483
-0.0881809
-0.0889983
-0.0898005
-0.0905875
-0.0913594
-0.0921164
-0.0928584
-0.0935856
-0.0942981
-0.0949959
-0.095679
-0.0963477
-0.0970019
-0.0976419
-0.0982675
-0.098879
-0.0994763
-0.10006
-0.100629
-0.101185
-0.101725
-0.102253
-0.102782
-0.103305
0.018884
0.0189016
0.0187946
0.0186208
0.01837
0.0180455
0.0176524
0.0171935
0.016672
0.0160909
0.0154531
0.0147611
0.0140176
0.0132249
0.0123855
0.0115015
0.0105751
0.00960832
0.00860325
0.00756178
0.00648581
0.00537714
0.00423757
0.00306881
0.00187256
0.000650441
-0.000595934
-0.001865
-0.00315524
-0.00446516
-0.00579329
-0.00713822
-0.00849856
-0.00987295
-0.0112601
-0.0126586
-0.0140673
-0.015485
-0.0169104
-0.0183424
-0.0197798
-0.0212217
-0.0226668
-0.0241141
-0.0255628
-0.0270117
-0.02846
-0.0299068
-0.0313511
-0.0327923
-0.0342294
-0.0356616
-0.0370884
-0.0385088
-0.0399224
-0.0413284
-0.0427263
-0.0441153
-0.0454951
-0.0468649
-0.0482245
-0.0495732
-0.0509107
-0.0522365
-0.0535503
-0.0548516
-0.0561402
-0.0574157
-0.0586778
-0.0599262
-0.0611608
-0.0623812
-0.0635873
-0.0647789
-0.0659558
-0.0671178
-0.0682648
-0.0693966
-0.0705133
-0.0716145
-0.0727004
-0.0737708
-0.0748257
-0.075865