/*--------------------------------*- C++ -*----------------------------------*\
  =========                 |
  \\      /  F ield         | OpenFOAM: The Open Source CFD Toolbox
   \\    /   O peration     | Website:  https://openfoam.org
    \\  /    A nd           | Version:  8
     \\/     M anipulation  |
\*---------------------------------------------------------------------------*/
FoamFile
{
    version     2.0;
    format      ascii;
    class       volScalarField;
    location    "2.1";
    object      p;
}
// * * * * * * * * * * * * * * * * * * * * * * * * * * * * * * * * * * * * * //

dimensions      [0 2 -2 0 0 0 0];

internalField   nonuniform List<scalar> 
262620
(
-0.530041
-0.530162
-0.530544
-0.53112
-0.531873
-0.532801
-0.533895
-0.535143
-0.536535
-0.538063
-0.539716
-0.541487
-0.543368
-0.54535
-0.547425
-0.549586
-0.551826
-0.554139
-0.556517
-0.558955
-0.561447
-0.563988
-0.566571
-0.569192
-0.571847
-0.57453
-0.577237
-0.579966
-0.58271
-0.585468
-0.588236
-0.59101
-0.593787
-0.596565
-0.599342
-0.602114
-0.604879
-0.607635
-0.610381
-0.613114
-0.615833
-0.618536
-0.621221
-0.623888
-0.626535
-0.629161
-0.631765
-0.634346
-0.636903
-0.639436
-0.641944
-0.644425
-0.646881
-0.64931
-0.651712
-0.654086
-0.656433
-0.658752
-0.661043
-0.663306
-0.665541
-0.667747
-0.669925
-0.672075
-0.674197
-0.67629
-0.678357
-0.680395
-0.682406
-0.684389
-0.686346
-0.688275
-0.690178
-0.692055
-0.693906
-0.695731
-0.697532
-0.699307
-0.701058
-0.702784
-0.704487
-0.706165
-0.707822
-0.709455
-0.711067
-0.712656
-0.714224
-0.715771
-0.717297
-0.718803
-0.72029
-0.721756
-0.723205
-0.724634
-0.726046
-0.72744
-0.728816
-0.730176
-0.73152
-0.732847
-0.73416
-0.735456
-0.736739
-0.738007
-0.739261
-0.740501
-0.741729
-0.742944
-0.744147
-0.745338
-0.746518
-0.747686
-0.748844
-0.749992
-0.75113
-0.752258
-0.753377
-0.75449
-0.7556
-0.756663
-0.529967
-0.530088
-0.530467
-0.531042
-0.531795
-0.532722
-0.533815
-0.535063
-0.536455
-0.537982
-0.539635
-0.541406
-0.543287
-0.545268
-0.547343
-0.549505
-0.551745
-0.554058
-0.556437
-0.558875
-0.561368
-0.563909
-0.566493
-0.569115
-0.57177
-0.574453
-0.577162
-0.579891
-0.582637
-0.585395
-0.588164
-0.590939
-0.593718
-0.596497
-0.599274
-0.602047
-0.604814
-0.607571
-0.610318
-0.613053
-0.615773
-0.618477
-0.621164
-0.623832
-0.62648
-0.629108
-0.631713
-0.634295
-0.636854
-0.639388
-0.641897
-0.644381
-0.646838
-0.649269
-0.651672
-0.654048
-0.656396
-0.658717
-0.661009
-0.663274
-0.66551
-0.667718
-0.669897
-0.672049
-0.674172
-0.676267
-0.678335
-0.680375
-0.682387
-0.684372
-0.68633
-0.688261
-0.690166
-0.692044
-0.693897
-0.695724
-0.697525
-0.699302
-0.701054
-0.702782
-0.704486
-0.706167
-0.707824
-0.709459
-0.711072
-0.712663
-0.714232
-0.715781
-0.717308
-0.718816
-0.720304
-0.721772
-0.723221
-0.724653
-0.726065
-0.727461
-0.728839
-0.7302
-0.731545
-0.732874
-0.734188
-0.735486
-0.73677
-0.738039
-0.739294
-0.740537
-0.741766
-0.742982
-0.744186
-0.745379
-0.746559
-0.747729
-0.748889
-0.750038
-0.751177
-0.752307
-0.753427
-0.754542
-0.755653
-0.756717
-0.529834
-0.529955
-0.530331
-0.530905
-0.531657
-0.532583
-0.533675
-0.534921
-0.536312
-0.537839
-0.539492
-0.541263
-0.543143
-0.545124
-0.5472
-0.549361
-0.551602
-0.553915
-0.556295
-0.558734
-0.561228
-0.563769
-0.566354
-0.568977
-0.571634
-0.574319
-0.577029
-0.579759
-0.582507
-0.585267
-0.588038
-0.590815
-0.593595
-0.596376
-0.599156
-0.601931
-0.6047
-0.60746
-0.610209
-0.612945
-0.615668
-0.618374
-0.621064
-0.623734
-0.626385
-0.629015
-0.631623
-0.634208
-0.636769
-0.639306
-0.641818
-0.644304
-0.646764
-0.649197
-0.651603
-0.653981
-0.656332
-0.658655
-0.660951
-0.663218
-0.665456
-0.667667
-0.669849
-0.672003
-0.674129
-0.676227
-0.678297
-0.680339
-0.682354
-0.684342
-0.686302
-0.688236
-0.690143
-0.692024
-0.693879
-0.695708
-0.697512
-0.699291
-0.701045
-0.702776
-0.704482
-0.706165
-0.707825
-0.709462
-0.711077
-0.71267
-0.714241
-0.715792
-0.717321
-0.718831
-0.720321
-0.721791
-0.723243
-0.724676
-0.726091
-0.727488
-0.728868
-0.730232
-0.731578
-0.73291
-0.734225
-0.735525
-0.736811
-0.738082
-0.73934
-0.740584
-0.741814
-0.743033
-0.744239
-0.745433
-0.746616
-0.747788
-0.748949
-0.7501
-0.751242
-0.752373
-0.753496
-0.754612
-0.755725
-0.756791
-0.529638
-0.529756
-0.530129
-0.530701
-0.53145
-0.532374
-0.533465
-0.53471
-0.536099
-0.537625
-0.539277
-0.541047
-0.542927
-0.544908
-0.546984
-0.549146
-0.551387
-0.553701
-0.556081
-0.558521
-0.561016
-0.563559
-0.566146
-0.56877
-0.571429
-0.574116
-0.576828
-0.57956
-0.58231
-0.585073
-0.587846
-0.590626
-0.593409
-0.596193
-0.598976
-0.601754
-0.604526
-0.607289
-0.610041
-0.612781
-0.615507
-0.618217
-0.62091
-0.623584
-0.626239
-0.628872
-0.631484
-0.634073
-0.636638
-0.639179
-0.641694
-0.644184
-0.646648
-0.649085
-0.651495
-0.653877
-0.656232
-0.658559
-0.660858
-0.663129
-0.665372
-0.667587
-0.669773
-0.671931
-0.67406
-0.676163
-0.678236
-0.680283
-0.682301
-0.684293
-0.686257
-0.688195
-0.690105
-0.69199
-0.693849
-0.695682
-0.69749
-0.699273
-0.701031
-0.702765
-0.704475
-0.706162
-0.707825
-0.709466
-0.711084
-0.712681
-0.714256
-0.71581
-0.717343
-0.718857
-0.72035
-0.721824
-0.723279
-0.724715
-0.726133
-0.727534
-0.728918
-0.730284
-0.731634
-0.732969
-0.734287
-0.735591
-0.73688
-0.738155
-0.739415
-0.740663
-0.741897
-0.743118
-0.744327
-0.745525
-0.746711
-0.747886
-0.74905
-0.750204
-0.751348
-0.752483
-0.753608
-0.754727
-0.755843
-0.756912
-0.529379
-0.529492
-0.529862
-0.53043
-0.531177
-0.532098
-0.533186
-0.534429
-0.535817
-0.537342
-0.538993
-0.540762
-0.542641
-0.544623
-0.546698
-0.54886
-0.551102
-0.553417
-0.555798
-0.55824
-0.560736
-0.563281
-0.565869
-0.568496
-0.571157
-0.573847
-0.576561
-0.579297
-0.58205
-0.584816
-0.587592
-0.590376
-0.593163
-0.595951
-0.598737
-0.601519
-0.604295
-0.607063
-0.60982
-0.612564
-0.615295
-0.618009
-0.620707
-0.623386
-0.626046
-0.628684
-0.631301
-0.633895
-0.636465
-0.63901
-0.641531
-0.644026
-0.646495
-0.648937
-0.651353
-0.65374
-0.656101
-0.658433
-0.660737
-0.663013
-0.665261
-0.667481
-0.669672
-0.671835
-0.673971
-0.676078
-0.678157
-0.680208
-0.682232
-0.684228
-0.686198
-0.68814
-0.690056
-0.691946
-0.69381
-0.695648
-0.69746
-0.699248
-0.701011
-0.70275
-0.704465
-0.706156
-0.707824
-0.70947
-0.711093
-0.712694
-0.714274
-0.715832
-0.71737
-0.718888
-0.720385
-0.721864
-0.723323
-0.724764
-0.726187
-0.727591
-0.728979
-0.73035
-0.731704
-0.733043
-0.734366
-0.735673
-0.736966
-0.738245
-0.739509
-0.74076
-0.741999
-0.743224
-0.744437
-0.745638
-0.746828
-0.748007
-0.749175
-0.750333
-0.751481
-0.75262
-0.753749
-0.754872
-0.755992
-0.757064
-0.529058
-0.529166
-0.529531
-0.530096
-0.530838
-0.531757
-0.532842
-0.534082
-0.535468
-0.536991
-0.538641
-0.540409
-0.542288
-0.544269
-0.546344
-0.548507
-0.550749
-0.553065
-0.555448
-0.557891
-0.560389
-0.562936
-0.565527
-0.568157
-0.57082
-0.573513
-0.576231
-0.578971
-0.581727
-0.584497
-0.587278
-0.590066
-0.592857
-0.59565
-0.598441
-0.601229
-0.60401
-0.606783
-0.609545
-0.612295
-0.615031
-0.617752
-0.620455
-0.62314
-0.625805
-0.62845
-0.631073
-0.633673
-0.636249
-0.638801
-0.641328
-0.64383
-0.646305
-0.648754
-0.651175
-0.65357
-0.655936
-0.658275
-0.660586
-0.662868
-0.665123
-0.667349
-0.669547
-0.671716
-0.673858
-0.675971
-0.678057
-0.680115
-0.682145
-0.684148
-0.686124
-0.688072
-0.689995
-0.69189
-0.69376
-0.695604
-0.697423
-0.699217
-0.700986
-0.702731
-0.704452
-0.706149
-0.707823
-0.709474
-0.711103
-0.71271
-0.714295
-0.715859
-0.717403
-0.718926
-0.72043
-0.721913
-0.723378
-0.724825
-0.726253
-0.727663
-0.729056
-0.730432
-0.731792
-0.733136
-0.734464
-0.735776
-0.737075
-0.738358
-0.739628
-0.740884
-0.742127
-0.743358
-0.744576
-0.745782
-0.746977
-0.74816
-0.749334
-0.750496
-0.751649
-0.752792
-0.753926
-0.755054
-0.756178
-0.757254
-0.528676
-0.528778
-0.529138
-0.529698
-0.530436
-0.531351
-0.532432
-0.53367
-0.535053
-0.536574
-0.538222
-0.539989
-0.541867
-0.543848
-0.545923
-0.548086
-0.55033
-0.552647
-0.555031
-0.557476
-0.559976
-0.562526
-0.56512
-0.567753
-0.57042
-0.573116
-0.575839
-0.578582
-0.581343
-0.584118
-0.586904
-0.589697
-0.592494
-0.595292
-0.598089
-0.600883
-0.60367
-0.606449
-0.609218
-0.611974
-0.614717
-0.617445
-0.620155
-0.622847
-0.62552
-0.628171
-0.630802
-0.633409
-0.635993
-0.638552
-0.641087
-0.643596
-0.646079
-0.648535
-0.650964
-0.653366
-0.655741
-0.658087
-0.660406
-0.662696
-0.664958
-0.667192
-0.669397
-0.671575
-0.673724
-0.675845
-0.677938
-0.680003
-0.682041
-0.684051
-0.686035
-0.687991
-0.689921
-0.691824
-0.693701
-0.695552
-0.697379
-0.699179
-0.700956
-0.702707
-0.704435
-0.706139
-0.707821
-0.709479
-0.711115
-0.712728
-0.714321
-0.715891
-0.717442
-0.718971
-0.720482
-0.721972
-0.723443
-0.724896
-0.72633
-0.727747
-0.729146
-0.730529
-0.731895
-0.733244
-0.734579
-0.735897
-0.737202
-0.738491
-0.739767
-0.741029
-0.742278
-0.743514
-0.744738
-0.74595
-0.747151
-0.74834
-0.749519
-0.750687
-0.751845
-0.752994
-0.754134
-0.755267
-0.756397
-0.757478
-0.528235
-0.52833
-0.528684
-0.529238
-0.529971
-0.530881
-0.531959
-0.533193
-0.534574
-0.536092
-0.537738
-0.539504
-0.541381
-0.543361
-0.545437
-0.5476
-0.549844
-0.552163
-0.554549
-0.556996
-0.559499
-0.562052
-0.564649
-0.567285
-0.569956
-0.572657
-0.575384
-0.578133
-0.580899
-0.58368
-0.586471
-0.58927
-0.592073
-0.594878
-0.597682
-0.600482
-0.603277
-0.606063
-0.608839
-0.611603
-0.614354
-0.617089
-0.619808
-0.622508
-0.625189
-0.627849
-0.630487
-0.633103
-0.635695
-0.638264
-0.640807
-0.643325
-0.645816
-0.648281
-0.65072
-0.65313
-0.655514
-0.657869
-0.660196
-0.662496
-0.664767
-0.667009
-0.669224
-0.67141
-0.673568
-0.675698
-0.6778
-0.679874
-0.68192
-0.683939
-0.685931
-0.687896
-0.689834
-0.691746
-0.693632
-0.695492
-0.697326
-0.699135
-0.70092
-0.70268
-0.704416
-0.706129
-0.707818
-0.709484
-0.711128
-0.712749
-0.714349
-0.715928
-0.717486
-0.719024
-0.720541
-0.722039
-0.723518
-0.724978
-0.72642
-0.727844
-0.729251
-0.73064
-0.732013
-0.73337
-0.734711
-0.736037
-0.737348
-0.738645
-0.739927
-0.741196
-0.742452
-0.743695
-0.744926
-0.746144
-0.747351
-0.748547
-0.749732
-0.750907
-0.752072
-0.753227
-0.754373
-0.755513
-0.756649
-0.757736
-0.527736
-0.527823
-0.52817
-0.528718
-0.529445
-0.53035
-0.531423
-0.532653
-0.534031
-0.535546
-0.53719
-0.538954
-0.54083
-0.54281
-0.544885
-0.547049
-0.549295
-0.551615
-0.554003
-0.556453
-0.558958
-0.561514
-0.564115
-0.566756
-0.569431
-0.572137
-0.574869
-0.577623
-0.580396
-0.583182
-0.58598
-0.588786
-0.591596
-0.594408
-0.59722
-0.600028
-0.602831
-0.605625
-0.60841
-0.611183
-0.613942
-0.616686
-0.619414
-0.622123
-0.624813
-0.627483
-0.630131
-0.632756
-0.635358
-0.637936
-0.640489
-0.643017
-0.645519
-0.647994
-0.650442
-0.652863
-0.655256
-0.657622
-0.659959
-0.662268
-0.664549
-0.666802
-0.669027
-0.671223
-0.673391
-0.675531
-0.677643
-0.679727
-0.681783
-0.683812
-0.685814
-0.687788
-0.689736
-0.691658
-0.693553
-0.695422
-0.697266
-0.699085
-0.700879
-0.702648
-0.704394
-0.706115
-0.707814
-0.709489
-0.711142
-0.712772
-0.714381
-0.715969
-0.717535
-0.719082
-0.720608
-0.722114
-0.723602
-0.72507
-0.72652
-0.727953
-0.729367
-0.730765
-0.732146
-0.733511
-0.73486
-0.736194
-0.737513
-0.738818
-0.740108
-0.741385
-0.742648
-0.743899
-0.745137
-0.746363
-0.747578
-0.748781
-0.749974
-0.751156
-0.752328
-0.753491
-0.754644
-0.755791
-0.756935
-0.758028
-0.52718
-0.527258
-0.527598
-0.528138
-0.528859
-0.529758
-0.530826
-0.532052
-0.533425
-0.534938
-0.536579
-0.538342
-0.540216
-0.542195
-0.544271
-0.546436
-0.548682
-0.551004
-0.553394
-0.555846
-0.558355
-0.560915
-0.56352
-0.566165
-0.568846
-0.571557
-0.574295
-0.577055
-0.579834
-0.582628
-0.585433
-0.588246
-0.591064
-0.593885
-0.596705
-0.599521
-0.602333
-0.605137
-0.607931
-0.610713
-0.613482
-0.616236
-0.618974
-0.621693
-0.624394
-0.627074
-0.629733
-0.632369
-0.634982
-0.637571
-0.640135
-0.642674
-0.645186
-0.647672
-0.650132
-0.652564
-0.654968
-0.657345
-0.659694
-0.662014
-0.664307
-0.666571
-0.668806
-0.671014
-0.673193
-0.675344
-0.677467
-0.679562
-0.681629
-0.68367
-0.685682
-0.687668
-0.689626
-0.691559
-0.693464
-0.695345
-0.697199
-0.699028
-0.700833
-0.702613
-0.704368
-0.7061
-0.707808
-0.709494
-0.711157
-0.712798
-0.714416
-0.716014
-0.71759
-0.719146
-0.720682
-0.722198
-0.723695
-0.725173
-0.726632
-0.728074
-0.729498
-0.730905
-0.732295
-0.733669
-0.735027
-0.73637
-0.737697
-0.739011
-0.74031
-0.741595
-0.742867
-0.744126
-0.745373
-0.746608
-0.747831
-0.749042
-0.750243
-0.751434
-0.752614
-0.753785
-0.754946
-0.756101
-0.757252
-0.758353
-0.526567
-0.526636
-0.526967
-0.5275
-0.528213
-0.529106
-0.530169
-0.53139
-0.532759
-0.534268
-0.535907
-0.537667
-0.539541
-0.541519
-0.543594
-0.54576
-0.548007
-0.550331
-0.552723
-0.555179
-0.557691
-0.560255
-0.562864
-0.565515
-0.568201
-0.570918
-0.573662
-0.576429
-0.579215
-0.582017
-0.58483
-0.587651
-0.590478
-0.593307
-0.596137
-0.598963
-0.601784
-0.604598
-0.607402
-0.610195
-0.612975
-0.61574
-0.618489
-0.62122
-0.623932
-0.626623
-0.629294
-0.631942
-0.634567
-0.637167
-0.639744
-0.642294
-0.644819
-0.647318
-0.649789
-0.652234
-0.654651
-0.65704
-0.659401
-0.661734
-0.664038
-0.666315
-0.668563
-0.670783
-0.672974
-0.675137
-0.677273
-0.67938
-0.68146
-0.683512
-0.685536
-0.687534
-0.689504
-0.691448
-0.693366
-0.695258
-0.697124
-0.698965
-0.700781
-0.702572
-0.704339
-0.706082
-0.707802
-0.709499
-0.711173
-0.712824
-0.714454
-0.716062
-0.71765
-0.719216
-0.720763
-0.722289
-0.723797
-0.725285
-0.726755
-0.728207
-0.729641
-0.731058
-0.732458
-0.733842
-0.73521
-0.736562
-0.7379
-0.739223
-0.740531
-0.741826
-0.743108
-0.744376
-0.745632
-0.746876
-0.748108
-0.749329
-0.750539
-0.751738
-0.752928
-0.754107
-0.755278
-0.756442
-0.757602
-0.75871
-0.5259
-0.525958
-0.52628
-0.526804
-0.52751
-0.528396
-0.529452
-0.530668
-0.532033
-0.533538
-0.535174
-0.536932
-0.538804
-0.540781
-0.542857
-0.545023
-0.547272
-0.549597
-0.551992
-0.554451
-0.556967
-0.559535
-0.562149
-0.564805
-0.567497
-0.570221
-0.572972
-0.575747
-0.57854
-0.58135
-0.584171
-0.587002
-0.589838
-0.592677
-0.595517
-0.598353
-0.601185
-0.60401
-0.606826
-0.60963
-0.612422
-0.615199
-0.617959
-0.620703
-0.623427
-0.626131
-0.628814
-0.631475
-0.634113
-0.636727
-0.639316
-0.64188
-0.644418
-0.64693
-0.649415
-0.651873
-0.654303
-0.656706
-0.659081
-0.661427
-0.663745
-0.666035
-0.668297
-0.67053
-0.672735
-0.674912
-0.67706
-0.679181
-0.681274
-0.683339
-0.685377
-0.687387
-0.689371
-0.691328
-0.693259
-0.695163
-0.697042
-0.698896
-0.700724
-0.702528
-0.704307
-0.706063
-0.707795
-0.709503
-0.71119
-0.712853
-0.714495
-0.716115
-0.717714
-0.719292
-0.72085
-0.722388
-0.723907
-0.725406
-0.726888
-0.72835
-0.729796
-0.731224
-0.732635
-0.73403
-0.735408
-0.736771
-0.73812
-0.739453
-0.740772
-0.742077
-0.743369
-0.744648
-0.745914
-0.747168
-0.748411
-0.749641
-0.750861
-0.752071
-0.75327
-0.754459
-0.75564
-0.756813
-0.757983
-0.759099
-0.525179
-0.525225
-0.525537
-0.526052
-0.526749
-0.527628
-0.528677
-0.529887
-0.531247
-0.532748
-0.534381
-0.536137
-0.538007
-0.539984
-0.542059
-0.544225
-0.546476
-0.548803
-0.551201
-0.553663
-0.556183
-0.558756
-0.561376
-0.564037
-0.566736
-0.569467
-0.572225
-0.575008
-0.57781
-0.580628
-0.583459
-0.586299
-0.589146
-0.591996
-0.594846
-0.597694
-0.600537
-0.603374
-0.606201
-0.609018
-0.611822
-0.614612
-0.617386
-0.620142
-0.62288
-0.625598
-0.628295
-0.63097
-0.633622
-0.636249
-0.638853
-0.641431
-0.643984
-0.64651
-0.64901
-0.651482
-0.653927
-0.656344
-0.658734
-0.661094
-0.663427
-0.665732
-0.668008
-0.670256
-0.672475
-0.674666
-0.676829
-0.678964
-0.681072
-0.683151
-0.685203
-0.687228
-0.689226
-0.691196
-0.693141
-0.69506
-0.696952
-0.698819
-0.700662
-0.702479
-0.704272
-0.706041
-0.707786
-0.709508
-0.711207
-0.712883
-0.714538
-0.716171
-0.717783
-0.719373
-0.720944
-0.722494
-0.724026
-0.725537
-0.727031
-0.728506
-0.729963
-0.731403
-0.732826
-0.734232
-0.735623
-0.736997
-0.738357
-0.739702
-0.741032
-0.742349
-0.743652
-0.744941
-0.746219
-0.747484
-0.748737
-0.749979
-0.751209
-0.752429
-0.753639
-0.754839
-0.75603
-0.757214
-0.758394
-0.75952
-0.524405
-0.524439
-0.52474
-0.525245
-0.525933
-0.526803
-0.527846
-0.529049
-0.530404
-0.5319
-0.53353
-0.535283
-0.537151
-0.539127
-0.541202
-0.543369
-0.545621
-0.547951
-0.550351
-0.552817
-0.555342
-0.557919
-0.560545
-0.563213
-0.565918
-0.568656
-0.571423
-0.574214
-0.577025
-0.579853
-0.582694
-0.585544
-0.588402
-0.591263
-0.594124
-0.596984
-0.59984
-0.602689
-0.60553
-0.60836
-0.611178
-0.613981
-0.616769
-0.61954
-0.622292
-0.625025
-0.627736
-0.630426
-0.633093
-0.635736
-0.638355
-0.640949
-0.643516
-0.646058
-0.648573
-0.651061
-0.653522
-0.655955
-0.65836
-0.660736
-0.663085
-0.665405
-0.667697
-0.66996
-0.672195
-0.674402
-0.67658
-0.678731
-0.680853
-0.682948
-0.685016
-0.687056
-0.689068
-0.691055
-0.693014
-0.694948
-0.696855
-0.698737
-0.700594
-0.702426
-0.704233
-0.706016
-0.707776
-0.709512
-0.711225
-0.712916
-0.714584
-0.716231
-0.717856
-0.71946
-0.721044
-0.722608
-0.724152
-0.725678
-0.727184
-0.728672
-0.730142
-0.731595
-0.73303
-0.734449
-0.735852
-0.737239
-0.738611
-0.739968
-0.741311
-0.742639
-0.743954
-0.745256
-0.746545
-0.747822
-0.749087
-0.75034
-0.751582
-0.752814
-0.754035
-0.755246
-0.756448
-0.757644
-0.758835
-0.759971
-0.523579
-0.523599
-0.523889
-0.524383
-0.525061
-0.525923
-0.526958
-0.528155
-0.529504
-0.530996
-0.532621
-0.534371
-0.536238
-0.538213
-0.540288
-0.542455
-0.544709
-0.54704
-0.549444
-0.551914
-0.554443
-0.557026
-0.559657
-0.562332
-0.565044
-0.56779
-0.570566
-0.573366
-0.576186
-0.579024
-0.581876
-0.584737
-0.587606
-0.590479
-0.593353
-0.596226
-0.599095
-0.601958
-0.604812
-0.607657
-0.610489
-0.613307
-0.61611
-0.618896
-0.621663
-0.624411
-0.627139
-0.629844
-0.632527
-0.635187
-0.637822
-0.640432
-0.643016
-0.645575
-0.648106
-0.650611
-0.653088
-0.655538
-0.657959
-0.660353
-0.662718
-0.665055
-0.667363
-0.669644
-0.671895
-0.674119
-0.676314
-0.678481
-0.68062
-0.682731
-0.684815
-0.686871
-0.6889
-0.690902
-0.692878
-0.694827
-0.69675
-0.698648
-0.70052
-0.702368
-0.704191
-0.705989
-0.707764
-0.709515
-0.711243
-0.712949
-0.714632
-0.716293
-0.717933
-0.719552
-0.72115
-0.722729
-0.724287
-0.725826
-0.727346
-0.728848
-0.730332
-0.731798
-0.733248
-0.73468
-0.736096
-0.737497
-0.738882
-0.740252
-0.741607
-0.742949
-0.744277
-0.745591
-0.746893
-0.748183
-0.74946
-0.750726
-0.75198
-0.753224
-0.754458
-0.755681
-0.756895
-0.758103
-0.759306
-0.760452
-0.522702
-0.522708
-0.522986
-0.523468
-0.524136
-0.524988
-0.526015
-0.527205
-0.528548
-0.530035
-0.531656
-0.533403
-0.535267
-0.537241
-0.539316
-0.541484
-0.543739
-0.546073
-0.54848
-0.550954
-0.553487
-0.556076
-0.558714
-0.561395
-0.564116
-0.56687
-0.569654
-0.572464
-0.575295
-0.578143
-0.581006
-0.58388
-0.586761
-0.589646
-0.592533
-0.59542
-0.598303
-0.60118
-0.604049
-0.606908
-0.609756
-0.61259
-0.615408
-0.61821
-0.620994
-0.623759
-0.626503
-0.629225
-0.631925
-0.634602
-0.637254
-0.639882
-0.642483
-0.64506
-0.647609
-0.650131
-0.652626
-0.655094
-0.657533
-0.659944
-0.662327
-0.664682
-0.667008
-0.669306
-0.671575
-0.673817
-0.676029
-0.678214
-0.68037
-0.682499
-0.6846
-0.686673
-0.68872
-0.690739
-0.692732
-0.694698
-0.696638
-0.698553
-0.700441
-0.702306
-0.704145
-0.70596
-0.70775
-0.709518
-0.711262
-0.712983
-0.714682
-0.716359
-0.718015
-0.719649
-0.721262
-0.722856
-0.724429
-0.725984
-0.727519
-0.729035
-0.730534
-0.732015
-0.733478
-0.734925
-0.736355
-0.73777
-0.739169
-0.740553
-0.741922
-0.743278
-0.744619
-0.745947
-0.747262
-0.748565
-0.749856
-0.751135
-0.752403
-0.75366
-0.754906
-0.756143
-0.757369
-0.75859
-0.759805
-0.760963
-0.521774
-0.521766
-0.522031
-0.522501
-0.523158
-0.524
-0.525018
-0.526201
-0.527537
-0.529018
-0.530635
-0.532379
-0.534241
-0.536213
-0.538288
-0.540457
-0.542713
-0.54505
-0.54746
-0.549938
-0.552477
-0.555071
-0.557715
-0.560404
-0.563133
-0.565896
-0.56869
-0.571509
-0.574351
-0.577211
-0.580085
-0.582971
-0.585865
-0.588764
-0.591665
-0.594566
-0.597464
-0.600356
-0.603241
-0.606116
-0.608979
-0.611829
-0.614665
-0.617484
-0.620285
-0.623067
-0.625829
-0.628569
-0.631287
-0.633982
-0.636652
-0.639298
-0.641919
-0.644513
-0.647081
-0.649622
-0.652136
-0.654622
-0.657081
-0.659511
-0.661913
-0.664286
-0.666631
-0.668948
-0.671236
-0.673496
-0.675727
-0.67793
-0.680105
-0.682252
-0.684372
-0.686463
-0.688528
-0.690565
-0.692576
-0.69456
-0.696518
-0.69845
-0.700357
-0.702238
-0.704095
-0.705927
-0.707735
-0.70952
-0.711281
-0.713019
-0.714735
-0.716428
-0.7181
-0.719751
-0.721381
-0.72299
-0.72458
-0.726149
-0.7277
-0.729232
-0.730747
-0.732243
-0.733722
-0.735183
-0.736629
-0.738058
-0.739472
-0.740871
-0.742255
-0.743625
-0.744981
-0.746323
-0.747653
-0.748969
-0.750274
-0.751567
-0.752849
-0.75412
-0.75538
-0.75663
-0.757871
-0.759105
-0.760334
-0.761504
-0.520797
-0.520774
-0.521024
-0.521482
-0.522127
-0.522959
-0.523968
-0.525142
-0.526472
-0.527947
-0.52956
-0.5313
-0.53316
-0.535131
-0.537205
-0.539374
-0.541632
-0.543971
-0.546385
-0.548867
-0.551411
-0.554012
-0.556663
-0.559359
-0.562096
-0.564869
-0.567672
-0.570503
-0.573355
-0.576227
-0.579114
-0.582013
-0.584921
-0.587834
-0.590749
-0.593665
-0.596578
-0.599486
-0.602387
-0.605279
-0.60816
-0.611027
-0.61388
-0.616717
-0.619536
-0.622337
-0.625117
-0.627876
-0.630613
-0.633327
-0.636017
-0.638682
-0.641322
-0.643936
-0.646524
-0.649085
-0.651618
-0.654124
-0.656602
-0.659052
-0.661474
-0.663867
-0.666232
-0.668569
-0.670877
-0.673156
-0.675407
-0.67763
-0.679824
-0.681991
-0.68413
-0.686241
-0.688325
-0.690381
-0.692411
-0.694414
-0.696391
-0.698341
-0.700267
-0.702167
-0.704042
-0.705892
-0.707718
-0.70952
-0.711299
-0.713055
-0.714789
-0.7165
-0.718189
-0.719857
-0.721504
-0.72313
-0.724736
-0.726323
-0.727891
-0.729439
-0.73097
-0.732482
-0.733977
-0.735455
-0.736916
-0.738361
-0.739791
-0.741205
-0.742605
-0.74399
-0.745361
-0.746719
-0.748063
-0.749395
-0.750715
-0.752023
-0.753319
-0.754604
-0.75588
-0.757144
-0.758399
-0.759647
-0.760891
-0.762073
-0.519772
-0.519732
-0.519968
-0.520412
-0.521045
-0.521867
-0.522866
-0.524032
-0.525354
-0.526823
-0.528431
-0.530167
-0.532024
-0.533993
-0.536067
-0.538237
-0.540497
-0.542838
-0.545256
-0.547742
-0.550292
-0.552899
-0.555557
-0.558262
-0.561007
-0.563789
-0.566603
-0.569445
-0.572309
-0.575193
-0.578093
-0.581006
-0.583928
-0.586855
-0.589786
-0.592718
-0.595647
-0.598572
-0.60149
-0.604399
-0.607298
-0.610183
-0.613055
-0.61591
-0.618749
-0.621568
-0.624368
-0.627147
-0.629904
-0.632638
-0.635348
-0.638034
-0.640694
-0.643329
-0.645937
-0.648519
-0.651073
-0.6536
-0.656099
-0.658569
-0.661012
-0.663426
-0.665812
-0.668169
-0.670498
-0.672798
-0.67507
-0.677313
-0.679528
-0.681715
-0.683874
-0.686006
-0.68811
-0.690186
-0.692236
-0.694259
-0.696256
-0.698226
-0.700171
-0.70209
-0.703984
-0.705854
-0.707699
-0.70952
-0.711318
-0.713092
-0.714844
-0.716573
-0.718281
-0.719967
-0.721632
-0.723276
-0.724901
-0.726504
-0.72809
-0.729655
-0.731203
-0.732732
-0.734245
-0.735739
-0.737218
-0.738679
-0.740125
-0.741556
-0.742972
-0.744373
-0.74576
-0.747134
-0.748494
-0.749842
-0.751177
-0.7525
-0.753812
-0.755113
-0.756403
-0.757683
-0.758953
-0.760217
-0.761475
-0.762671
-0.5187
-0.518642
-0.518863
-0.519293
-0.519913
-0.520723
-0.521712
-0.522869
-0.524183
-0.525646
-0.527249
-0.528981
-0.530835
-0.532803
-0.534876
-0.537047
-0.539308
-0.541652
-0.544073
-0.546564
-0.54912
-0.551733
-0.554399
-0.557112
-0.559866
-0.562659
-0.565483
-0.568336
-0.571213
-0.57411
-0.577023
-0.57995
-0.582887
-0.58583
-0.588777
-0.591725
-0.594671
-0.597613
-0.600549
-0.603476
-0.606393
-0.609298
-0.612189
-0.615064
-0.617922
-0.620762
-0.623582
-0.626382
-0.62916
-0.631915
-0.634646
-0.637353
-0.640035
-0.642691
-0.645321
-0.647924
-0.6505
-0.653049
-0.65557
-0.658062
-0.660527
-0.662963
-0.66537
-0.667749
-0.6701
-0.672422
-0.674715
-0.67698
-0.679216
-0.681425
-0.683605
-0.685758
-0.687883
-0.689981
-0.692051
-0.694095
-0.696112
-0.698104
-0.700069
-0.702008
-0.703923
-0.705812
-0.707677
-0.709519
-0.711336
-0.71313
-0.714901
-0.71665
-0.718377
-0.720082
-0.721765
-0.723429
-0.725071
-0.726694
-0.728297
-0.729881
-0.731447
-0.732994
-0.734524
-0.736037
-0.737532
-0.739011
-0.740475
-0.741923
-0.743355
-0.744774
-0.746177
-0.747568
-0.748945
-0.750309
-0.751661
-0.753
-0.754328
-0.755645
-0.756951
-0.758247
-0.759533
-0.760813
-0.762087
-0.763296
-0.51758
-0.517505
-0.51771
-0.518125
-0.518732
-0.519529
-0.520508
-0.521655
-0.522962
-0.524418
-0.526015
-0.527743
-0.529594
-0.53156
-0.533632
-0.535803
-0.538066
-0.540413
-0.542838
-0.545334
-0.547895
-0.550515
-0.553188
-0.55591
-0.558674
-0.561477
-0.564313
-0.567177
-0.570067
-0.572977
-0.575905
-0.578846
-0.581798
-0.584757
-0.587721
-0.590686
-0.59365
-0.59661
-0.599565
-0.602511
-0.605448
-0.608372
-0.611283
-0.614179
-0.617058
-0.619919
-0.62276
-0.625581
-0.628381
-0.631158
-0.633911
-0.63664
-0.639345
-0.642023
-0.644676
-0.647302
-0.6499
-0.652472
-0.655015
-0.657531
-0.660018
-0.662477
-0.664907
-0.667309
-0.669682
-0.672027
-0.674343
-0.67663
-0.678889
-0.68112
-0.683323
-0.685498
-0.687645
-0.689765
-0.691857
-0.693923
-0.695961
-0.697974
-0.699961
-0.701922
-0.703857
-0.705768
-0.707654
-0.709516
-0.711354
-0.713168
-0.71496
-0.716729
-0.718475
-0.7202
-0.721904
-0.723586
-0.725248
-0.72689
-0.728513
-0.730116
-0.7317
-0.733267
-0.734815
-0.736346
-0.73786
-0.739357
-0.740838
-0.742304
-0.743755
-0.745191
-0.746613
-0.74802
-0.749415
-0.750796
-0.752165
-0.753522
-0.754867
-0.756201
-0.757524
-0.758837
-0.760139
-0.761435
-0.762725
-0.76395
-0.516415
-0.516321
-0.516509
-0.516909
-0.517501
-0.518287
-0.519254
-0.520391
-0.521689
-0.523139
-0.52473
-0.526453
-0.528301
-0.530265
-0.532336
-0.534508
-0.536772
-0.539122
-0.541551
-0.544052
-0.546619
-0.549246
-0.551927
-0.554658
-0.557432
-0.560245
-0.563092
-0.565969
-0.568872
-0.571797
-0.574739
-0.577696
-0.580663
-0.583639
-0.58662
-0.589603
-0.592585
-0.595564
-0.598538
-0.601504
-0.604461
-0.607406
-0.610338
-0.613255
-0.616155
-0.619038
-0.621902
-0.624745
-0.627567
-0.630367
-0.633143
-0.635896
-0.638623
-0.641325
-0.644001
-0.646651
-0.649273
-0.651868
-0.654436
-0.656975
-0.659486
-0.661969
-0.664423
-0.666848
-0.669245
-0.671613
-0.673953
-0.676264
-0.678546
-0.680801
-0.683026
-0.685225
-0.687395
-0.689538
-0.691653
-0.693741
-0.695802
-0.697838
-0.699846
-0.70183
-0.703787
-0.70572
-0.707628
-0.709511
-0.71137
-0.713207
-0.715019
-0.716809
-0.718576
-0.720322
-0.722046
-0.723749
-0.725432
-0.727094
-0.728736
-0.730359
-0.731963
-0.733549
-0.735117
-0.736667
-0.7382
-0.739717
-0.741217
-0.742702
-0.744171
-0.745625
-0.747065
-0.748491
-0.749904
-0.751303
-0.75269
-0.754065
-0.755428
-0.756779
-0.75812
-0.75945
-0.76077
-0.762083
-0.76339
-0.76463
-0.515204
-0.515091
-0.515262
-0.515645
-0.516223
-0.516995
-0.517951
-0.519078
-0.520367
-0.521809
-0.523394
-0.525113
-0.526957
-0.528919
-0.53099
-0.533162
-0.535427
-0.53778
-0.540213
-0.542718
-0.545292
-0.547926
-0.550615
-0.553355
-0.556139
-0.558963
-0.561823
-0.564713
-0.567629
-0.570568
-0.573525
-0.576498
-0.579482
-0.582475
-0.585474
-0.588475
-0.591476
-0.594475
-0.597468
-0.600455
-0.603433
-0.606399
-0.609353
-0.612292
-0.615215
-0.61812
-0.621007
-0.623874
-0.626719
-0.629543
-0.632343
-0.63512
-0.637871
-0.640598
-0.643298
-0.645972
-0.648619
-0.651239
-0.653831
-0.656395
-0.658931
-0.661438
-0.663917
-0.666367
-0.668789
-0.671181
-0.673546
-0.675881
-0.678188
-0.680466
-0.682717
-0.684939
-0.687133
-0.689299
-0.691439
-0.693551
-0.695636
-0.697694
-0.699726
-0.701732
-0.703713
-0.705668
-0.707599
-0.709505
-0.711387
-0.713245
-0.71508
-0.716891
-0.718681
-0.720448
-0.722194
-0.723918
-0.725621
-0.727304
-0.728968
-0.730611
-0.732236
-0.733842
-0.73543
-0.737001
-0.738554
-0.74009
-0.74161
-0.743114
-0.744603
-0.746076
-0.747536
-0.748981
-0.750412
-0.75183
-0.753236
-0.754629
-0.756011
-0.75738
-0.758739
-0.760087
-0.761426
-0.762757
-0.764082
-0.765337
-0.513949
-0.513815
-0.513969
-0.514335
-0.514898
-0.515656
-0.5166
-0.517716
-0.518996
-0.52043
-0.522009
-0.523723
-0.525563
-0.527523
-0.529592
-0.531765
-0.534032
-0.536387
-0.538824
-0.541335
-0.543914
-0.546556
-0.549254
-0.552003
-0.554797
-0.557633
-0.560504
-0.563408
-0.566338
-0.569292
-0.572265
-0.575254
-0.578255
-0.581266
-0.584283
-0.587303
-0.590324
-0.593343
-0.596357
-0.599365
-0.602364
-0.605353
-0.608329
-0.611291
-0.614237
-0.617166
-0.620077
-0.622968
-0.625838
-0.628685
-0.631511
-0.634312
-0.637089
-0.639841
-0.642567
-0.645266
-0.647939
-0.650584
-0.653201
-0.655791
-0.658353
-0.660885
-0.66339
-0.665866
-0.668313
-0.670731
-0.673121
-0.675482
-0.677814
-0.680117
-0.682393
-0.68464
-0.686859
-0.689051
-0.691215
-0.693351
-0.695461
-0.697543
-0.6996
-0.70163
-0.703634
-0.705613
-0.707568
-0.709497
-0.711402
-0.713283
-0.715141
-0.716975
-0.718787
-0.720577
-0.722345
-0.724091
-0.725817
-0.727522
-0.729207
-0.730872
-0.732518
-0.734145
-0.735755
-0.737346
-0.73892
-0.740476
-0.742017
-0.743541
-0.74505
-0.746544
-0.748023
-0.749488
-0.750939
-0.752377
-0.753802
-0.755214
-0.756615
-0.758004
-0.759382
-0.760748
-0.762106
-0.763456
-0.764799
-0.766071
-0.51265
-0.512495
-0.51263
-0.512979
-0.513526
-0.514271
-0.515201
-0.516307
-0.517577
-0.519003
-0.520575
-0.522283
-0.52412
-0.526077
-0.528146
-0.530318
-0.532587
-0.534945
-0.537386
-0.539902
-0.542487
-0.545136
-0.547843
-0.550602
-0.553407
-0.556254
-0.559138
-0.562055
-0.565
-0.567969
-0.570958
-0.573964
-0.576983
-0.580012
-0.583048
-0.586088
-0.589129
-0.592168
-0.595204
-0.598234
-0.601256
-0.604267
-0.607266
-0.610252
-0.613222
-0.616176
-0.619111
-0.622027
-0.624922
-0.627795
-0.630646
-0.633473
-0.636276
-0.639054
-0.641806
-0.644532
-0.647231
-0.649903
-0.652547
-0.655163
-0.657751
-0.660311
-0.662842
-0.665344
-0.667818
-0.670263
-0.672679
-0.675066
-0.677424
-0.679754
-0.682056
-0.684329
-0.686574
-0.688791
-0.69098
-0.693142
-0.695277
-0.697385
-0.699466
-0.701522
-0.703551
-0.705555
-0.707533
-0.709487