/*--------------------------------*- C++ -*----------------------------------*\
  =========                 |
  \\      /  F ield         | OpenFOAM: The Open Source CFD Toolbox
   \\    /   O peration     | Website:  https://openfoam.org
    \\  /    A nd           | Version:  8
     \\/     M anipulation  |
\*---------------------------------------------------------------------------*/
FoamFile
{
    version     2.0;
    format      ascii;
    class       volScalarField;
    location    "0.1376";
    object      nuTilda;
}
// * * * * * * * * * * * * * * * * * * * * * * * * * * * * * * * * * * * * * //

dimensions      [0 2 -1 0 0 0 0];

internalField   nonuniform List<scalar> 
119000
(
0.000762221
0.00011968
5.6254e-05
3.72283e-05
2.82548e-05
2.30809e-05
1.97452e-05
1.75309e-05
1.61884e-05
1.59691e-05
1.56902e-05
1.5945e-05
1.65069e-05
1.68148e-05
1.6693e-05
1.65326e-05
1.64392e-05
1.62376e-05
1.5865e-05
1.60017e-05
1.61135e-05
1.6214e-05
1.62927e-05
1.63596e-05
1.64501e-05
1.65612e-05
1.66597e-05
1.67068e-05
1.67385e-05
1.6775e-05
1.68189e-05
1.68694e-05
1.69203e-05
1.69662e-05
1.70086e-05
1.70487e-05
1.70867e-05
1.71223e-05
1.71549e-05
1.71848e-05
1.7212e-05
1.72365e-05
1.72588e-05
1.72782e-05
1.72847e-05
1.7275e-05
1.72507e-05
1.72183e-05
1.7182e-05
1.71445e-05
1.71073e-05
1.70702e-05
1.70325e-05
1.69935e-05
1.69533e-05
1.69118e-05
1.68696e-05
1.6827e-05
1.67844e-05
1.67419e-05
1.66993e-05
1.66549e-05
1.66078e-05
1.65578e-05
1.65058e-05
1.64523e-05
1.63976e-05
1.63415e-05
1.62838e-05
1.62243e-05
1.61628e-05
1.6099e-05
1.60329e-05
1.5964e-05
1.58901e-05
1.58035e-05
1.57097e-05
1.56165e-05
1.55351e-05
1.5461e-05
1.56075e-05
1.51982e-05
1.62362e-05
1.5052e-05
1.68118e-05
1.8359e-05
1.81662e-05
1.73381e-05
1.62351e-05
1.49798e-05
1.44148e-05
1.42355e-05
1.40869e-05
1.39318e-05
1.37544e-05
1.34409e-05
1.25891e-05
1.16692e-05
1.20614e-05
1.37361e-05
0.00213027
0.000549943
0.000287002
0.000192854
0.000146293
0.000118947
0.000101087
8.85624e-05
7.89371e-05
7.14724e-05
6.60254e-05
6.61404e-05
7.00558e-05
7.36696e-05
7.54981e-05
7.57864e-05
7.61129e-05
7.67672e-05
7.78911e-05
7.90043e-05
8.00328e-05
8.09426e-05
8.16767e-05
8.22978e-05
8.29224e-05
8.35123e-05
8.39936e-05
8.43948e-05
8.47697e-05
8.51487e-05
8.55504e-05
8.59835e-05
8.64121e-05
8.68024e-05
8.71645e-05
8.75072e-05
8.78328e-05
8.81388e-05
8.84213e-05
8.86831e-05
8.89238e-05
8.91434e-05
8.93469e-05
8.95314e-05
8.96249e-05
8.96033e-05
8.94788e-05
8.92955e-05
8.90823e-05
8.88569e-05
8.8632e-05
8.84064e-05
8.81763e-05
8.7936e-05
8.7686e-05
8.7426e-05
8.71598e-05
8.68893e-05
8.66182e-05
8.63465e-05
8.60729e-05
8.57876e-05
8.54827e-05
8.51577e-05
8.48178e-05
8.44665e-05
8.41064e-05
8.37362e-05
8.33549e-05
8.29603e-05
8.2551e-05
8.21253e-05
8.16821e-05
8.12192e-05
8.07225e-05
8.01343e-05
7.94796e-05
7.87838e-05
7.80766e-05
7.73752e-05
7.67359e-05
7.60058e-05
7.56086e-05
7.48116e-05
7.46776e-05
7.45721e-05
7.42178e-05
7.37251e-05
7.31882e-05
7.26508e-05
7.22692e-05
7.20233e-05
7.1854e-05
7.1772e-05
7.16858e-05
7.08358e-05
6.70027e-05
6.10532e-05
6.13057e-05
6.45247e-05
0.0033319
0.00105092
0.000579198
0.000393197
0.000298912
0.000242782
0.000205732
0.000179486
0.000159847
0.000144641
0.000132653
0.000123555
0.000118202
0.000116836
0.000115847
0.000114956
0.000114528
0.000114397
0.000114665
0.000115112
0.000115646
0.000115988
0.000116078
0.000115984
0.000115813
0.000115577
0.000115272
0.000114949
0.000114662
0.000114442
0.000114309
0.00011427
0.000114256
0.000114213
0.000114163
0.000114119
0.000114079
0.000114039
0.000113991
0.000113938
0.000113878
0.000113813
0.000113748
0.000113688
0.000113609
0.000113377
0.000113014
0.000112588
0.000112135
0.000111676
0.000111225
0.000110784
0.000110346
0.000109903
0.000109455
0.000109002
0.000108547
0.000108095
0.000107647
0.000107205
0.000106766
0.000106317
0.000105843
0.000105348
0.000104836
0.000104313
0.000103782
0.00010324
0.000102686
0.000102117
0.000101531
0.000100925
0.000100299
9.96506e-05
9.89676e-05
9.82028e-05
9.73647e-05
9.64805e-05
9.55844e-05
9.47029e-05
9.38655e-05
9.30592e-05
9.2373e-05
9.16787e-05
9.1179e-05
9.07744e-05
9.04085e-05
9.00951e-05
8.98586e-05
8.97185e-05
8.97195e-05
8.98541e-05
9.01219e-05
9.04491e-05
9.07127e-05
9.06917e-05
8.94792e-05
8.65003e-05
8.47195e-05
8.91907e-05
0.00439408
0.00160872
0.00090945
0.000622795
0.000475027
0.000386046
0.000326765
0.000284421
0.000252601
0.000227797
0.000207968
0.000191936
0.000179087
0.000168957
0.000160714
0.000155429
0.000152412
0.000150251
0.000148924
0.000148054
0.000147489
0.0001466
0.000145405
0.000144051
0.000142691
0.000141307
0.000139911
0.000138591
0.000137407
0.000136388
0.000135547
0.000134885
0.000134267
0.000133616
0.000133
0.00013243
0.000131896
0.000131386
0.000130893
0.000130416
0.000129954
0.000129509
0.00012909
0.000128702
0.00012834
0.00012795
0.000127515
0.000127056
0.000126593
0.000126147
0.000125731
0.000125346
0.000124981
0.000124629
0.000124291
0.00012397
0.000123672
0.000123403
0.000123167
0.000122968
0.000122802
0.000122648
0.000122488
0.000122333
0.000122195
0.000122082
0.000121997
0.00012194
0.000121908
0.000121899
0.00012191
0.000121937
0.000121978
0.000122026
0.000122059
0.000121981
0.000121794
0.000121525
0.000121201
0.000120843
0.00012047
0.000120088
0.000119719
0.00011934
0.000118986
0.000118635
0.000118261
0.00011785
0.000117404
0.000116929
0.000116444
0.000115962
0.000115522
0.000115178
0.000114925
0.000114652
0.000113833
0.000112067
0.000110895
0.00011385
0.00533345
0.00218019
0.00126192
0.000872487
0.000668002
0.000543578
0.000460026
0.000399945
0.000354542
0.000318938
0.000290261
0.000266741
0.000247206
0.000230795
0.000216743
0.000204918
0.00019515
0.000187996
0.000183449
0.000180149
0.000177683
0.000174707
0.000171525
0.000168391
0.000165502
0.000162693
0.000159972
0.000157485
0.000155285
0.000153382
0.000151768
0.000150434
0.000149309
0.000148319
0.000147445
0.000146666
0.000145955
0.000145295
0.00014468
0.000144115
0.000143599
0.000143137
0.000142742
0.000142423
0.000142183
0.000141991
0.000141826
0.000141691
0.000141599
0.000141563
0.000141592
0.000141682
0.000141807
0.000141954
0.000142124
0.000142317
0.000142534
0.000142774
0.000143036
0.000143315
0.000143598
0.000143841
0.000144008
0.000144122
0.000144203
0.000144264
0.000144308
0.00014434
0.000144361
0.000144375
0.000144388
0.000144404
0.000144424
0.00014445
0.000144466
0.000144283
0.00014395
0.000143521
0.000143031
0.000142503
0.000141955
0.000141402
0.000140851
0.000140299
0.000139752
0.0001392
0.000138616
0.000137974
0.000137277
0.000136526
0.000135728
0.000134892
0.000134039
0.000133233
0.000132525
0.00013189
0.000131072
0.000129999
0.000129751
0.000132179
0.00616317
0.00274253
0.00162664
0.00113653
0.00087354
0.000711966
0.000602676
0.000523621
0.000463568
0.000416234
0.000377903
0.000346235
0.000319634
0.000296946
0.000277267
0.000260061
0.000245027
0.000232141
0.000221337
0.000213336
0.000207691
0.000201355
0.000195348
0.000189927
0.000185237
0.000181092
0.000177355
0.000174057
0.000171211
0.000168784
0.000166756
0.000165096
0.00016375
0.000162643
0.000161718
0.000160929
0.000160225
0.000159589
0.000159019
0.000158525
0.000158101
0.000157756
0.000157504
0.00015736
0.000157323
0.000157355
0.000157438
0.000157572
0.000157762
0.000158017
0.000158342
0.000158728
0.000159117
0.000159503
0.000159893
0.000160288
0.000160691
0.0001611
0.000161512
0.000161921
0.000162311
0.000162603
0.000162739
0.000162788
0.00016278
0.000162731
0.000162645
0.000162527
0.000162383
0.000162223
0.000162056
0.000161893
0.000161741
0.000161605
0.000161479
0.000161266
0.000160956
0.000160572
0.000160142
0.00015969
0.000159231
0.000158778
0.000158337
0.000157902
0.000157474
0.00015704
0.00015656
0.000155986
0.000155328
0.000154584
0.000153747
0.00015281
0.000151769
0.000150659
0.000149551
0.000148486
0.000147355
0.000146223
0.000146147
0.000148257
0.0068943
0.00328298
0.00199689
0.00141076
0.00108858
0.000888781
0.000752692
0.000653712
0.000578162
0.000518344
0.000469688
0.000429283
0.000395135
0.000365827
0.000340271
0.00031769
0.000297682
0.000279976
0.00026414
0.000250628
0.000239349
0.000229109
0.000219956
0.00021218
0.000205794
0.00020034
0.000195558
0.000191482
0.000188059
0.000185193
0.000182842
0.000180947
0.000179443
0.000178237
0.000177242
0.000176393
0.000175614
0.000174895
0.000174249
0.000173692
0.000173209
0.000172818
0.00017254
0.000172389
0.000172364
0.000172404
0.000172497
0.000172652
0.000172877
0.000173179
0.000173561
0.000174014
0.00017442
0.000174802
0.000175181
0.000175564
0.000175953
0.000176345
0.000176737
0.000177117
0.000177474
0.000177777
0.000177994
0.00017814
0.000178232
0.000178283
0.000178288
0.000178249
0.000178176
0.00017808
0.000177974
0.000177872
0.000177783
0.000177713
0.000177656
0.000177526
0.000177312
0.000177031
0.000176704
0.000176349
0.000175981
0.000175608
0.000175233
0.000174846
0.000174448
0.00017403
0.000173532
0.000172878
0.000172113
0.000171243
0.00017026
0.000169148
0.000167884
0.000166471
0.000164969
0.000163443
0.00016187
0.000160347
0.000159898
0.000161641
0.0075362
0.00379961
0.00236819
0.00169159
0.0013108
0.00107217
0.000908533
0.000788889
0.000697157
0.000624224
0.000564672
0.000515015
0.000472863
0.000436551
0.000404794
0.000376599
0.0003515
0.000329328
0.000309672
0.00029244
0.000277463
0.000264144
0.000252249
0.000241737
0.00023256
0.000224546
0.000217693
0.000212157
0.000207687
0.00020402
0.000201077
0.000198725
0.000196862
0.000195341
0.000194043
0.000192891
0.000191771
0.000190707
0.000189734
0.000188884
0.000188109
0.000187452
0.000186942
0.00018659
0.000186392
0.00018624
0.000186135
0.000186116
0.000186194
0.000186371
0.000186651
0.000187029
0.000187454
0.000187907
0.000188379
0.000188869
0.000189376
0.000189895
0.000190418
0.000190925
0.0001914
0.000191832
0.000192205
0.000192518
0.000192777
0.000192985
0.000193121
0.000193184
0.00019319
0.000193149
0.00019308
0.000192998
0.000192916
0.000192845
0.000192781
0.000192599
0.00019232
0.000191978
0.000191592
0.00019118
0.000190756
0.000190328
0.000189895
0.00018944
0.000188967
0.000188477
0.000187948
0.00018733
0.000186615
0.000185796
0.000184857
0.000183773
0.000182502
0.000181009
0.000179328
0.000177523
0.000175608
0.000173668
0.000172576
0.000173731
0.00809694
0.0042916
0.0027372
0.00197628
0.00153837
0.00126067
0.00106896
0.000928087
0.000819612
0.000733027
0.000662085
0.000602719
0.000552141
0.000508459
0.000470164
0.00043659
0.000407035
0.000381009
0.000358013
0.000337715
0.00031983
0.00030393
0.000289718
0.000277013
0.000265681
0.000255571
0.000246583
0.000238719
0.000231952
0.000226408
0.00022211
0.000218732
0.000216065
0.000213832
0.000211862
0.00021007
0.000208271
0.000206563
0.000205012
0.000203657
0.000202376
0.000201271
0.00020037
0.000199674
0.000199172
0.000198803
0.000198545
0.000198411
0.000198412
0.000198539
0.000198793
0.000199172
0.000199648
0.000200195
0.00020078
0.000201396
0.000202039
0.000202701
0.000203365
0.000203997
0.000204576
0.000205102
0.00020557
0.000205975
0.000206319
0.000206602
0.000206769
0.000206825
0.000206802
0.000206713
0.000206579
0.00020642
0.000206254
0.000206094
0.000205944
0.000205741
0.000205474
0.000205159
0.00020481
0.000204444
0.00020407
0.000203694
0.00020331
0.000202882
0.000202424
0.000201943
0.000201431
0.000200859
0.0002002
0.000199437
0.000198549
0.000197507
0.000196249
0.000194702
0.000192898
0.000190879
0.000188671
0.000186338
0.000184526
0.000184953
0.00858299
0.00475831
0.0031014
0.00226253
0.00176986
0.00145306
0.00123296
0.00107042
0.00094474
0.000844039
0.000761271
0.000691785
0.000632389
0.000581305
0.000537035
0.000498482
0.000464728
0.00043507
0.000408902
0.000385752
0.000365232
0.000346945
0.000330561
0.000315837
0.000302579
0.000290616
0.000279808
0.000270067
0.00026133
0.000253601
0.00024692
0.000241458
0.000237213
0.000233654
0.00023051
0.000227682
0.000224818
0.000222175
0.000219826
0.000217801
0.000216045
0.000214571
0.000213365
0.000212403
0.000211661
0.000211091
0.000210671
0.00021041
0.000210319
0.00021038
0.000210588
0.00021094
0.00021142
0.000212
0.000212621
0.000213284
0.000213983
0.000214707
0.000215437
0.000216108
0.000216697
0.000217224
0.000217689
0.000218088
0.000218423
0.000218695
0.000218886
0.000218993
0.000219022
0.000218972
0.000218863
0.000218717
0.000218555
0.000218392
0.000218234
0.000218031
0.000217775
0.00021748
0.000217158
0.00021682
0.000216475
0.000216123
0.000215762
0.000215314
0.000214823
0.000214303
0.000213755
0.000213161
0.000212492
0.000211727
0.000210845
0.000209818
0.000208597
0.000207114
0.000205348
0.000203302
0.000200982
0.000198427
0.000196065
0.00019575
0.009007
0.00519985
0.0034589
0.00254847
0.00200404
0.0016483
0.00139966
0.00121513
0.00107186
0.000956639
0.000861656
0.000781666
0.000713762
0.000655739
0.000605741
0.000562364
0.000524492
0.000491252
0.000461933
0.000435959
0.00041286
0.000392214
0.000373665
0.00035693
0.000341776
0.000328003
0.000315451
0.000303978
0.000293497
0.000283948
0.000275276
0.000267585
0.00026087
0.00025499
0.000249931
0.000245567
0.000241597
0.000238026
0.000234915
0.000232263
0.000230026
0.000228181
0.00022666
0.00022541
0.000224394
0.000223558
0.000222892
0.000222415
0.000222143
0.000222044
0.000222112
0.000222345
0.00022273
0.000223244
0.000223778
0.000224372
0.000225019
0.000225707
0.000226412
0.000227096
0.000227731
0.000228313
0.000228836
0.000229289
0.00022967
0.000229984
0.000230227
0.000230394
0.000230481
0.000230473
0.000230388
0.00023025
0.000230084
0.000229905
0.000229722
0.000229466
0.000229154
0.000228806
0.000228437
0.000228058
0.000227674
0.000227282
0.000226884
0.00022645
0.000225985
0.000225495
0.000224981
0.00022443
0.000223803
0.000223084
0.000222255
0.000221288
0.000220137
0.000218745
0.000217063
0.000215067
0.000212726
0.000210058
0.00020733
0.00020626
0.00938095
0.00561686
0.00380827
0.0028328
0.00223948
0.00184549
0.00156829
0.00136155
0.00120038
0.00107027
0.000962715
0.000872641
0.000796588
0.000731834
0.000676199
0.000628036
0.000586036
0.000549185
0.000516667
0.00048782
0.000462101
0.000439048
0.000418273
0.000399466
0.000382364
0.000366735
0.000352411
0.000339203
0.00032702
0.00031577
0.000305311
0.000295763
0.000287131
0.000279346
0.000272371
0.000266144
0.000260543
0.000255612
0.00025144
0.000247943
0.000245041
0.000242676
0.000240694
0.000239012
0.000237581
0.000236327
0.000235265
0.000234437
0.000233863
0.000233469
0.000233272
0.000233272
0.000233454
0.0002338
0.000234251
0.000234793
0.000235413
0.00023609
0.000236799
0.000237505
0.000238182
0.000238818
0.000239397
0.000239895
0.00024031
0.000240648
0.000240912
0.000241101
0.000241199
0.000241174
0.000241055
0.000240873
0.00024065
0.000240408
0.000240159
0.000239869
0.000239538
0.000239179
0.000238805
0.000238426
0.000238043
0.000237641
0.000237231
0.000236805
0.000236359
0.000235895
0.000235409
0.000234892
0.000234285
0.000233587
0.000232788
0.000231861
0.000230761
0.00022944
0.000227846
0.000225934
0.000223664
0.00022103
0.000218167
0.000216523
0.00971333
0.00601021
0.00414845
0.00311437
0.00247498
0.00204382
0.00173816
0.00150905
0.00132972
0.00118441
0.00106466
0.000964843
0.000880818
0.000809415
0.000748166
0.000695188
0.000649007
0.000608478
0.000572685
0.000540883
0.000512465
0.000486921
0.000463831
0.000442864
0.000423727
0.000406158
0.000389991
0.000374986
0.000361063
0.00034819
0.000336261
0.000325268
0.000315186
0.000305959
0.000297538
0.000289869
0.000282866
0.000276505
0.000270832
0.000265884
0.000261794
0.000258519
0.000255742
0.000253342
0.000251255
0.000249356
0.000247705
0.00024637
0.000245368
0.000244653
0.000244196
0.000243966
0.00024395
0.00024413
0.000244466
0.000244924
0.000245487
0.000246128
0.00024681
0.000247496
0.000248167
0.000248807
0.000249397
0.000249884
0.000250275
0.000250583
0.000250812
0.000250966
0.000251044
0.000251025
0.000250909
0.000250721
0.000250485
0.000250221
0.000249942
0.000249624
0.00024927
0.000248891
0.000248501
0.000248107
0.00024771
0.000247274
0.00024682
0.000246358
0.000245888
0.000245404
0.000244904
0.000244383
0.000243809
0.000243165
0.000242434
0.000241589
0.000240577
0.000239362
0.000237892
0.000236112
0.000233973
0.00023145
0.000228604
0.00022658
0.0100105
0.00638094
0.00447868
0.00339221
0.00270945
0.00224259
0.00190862
0.00165707
0.00145935
0.00129902
0.00116747
0.00105811
0.000966208
0.000888194
0.000821318
0.000763478
0.000713045
0.000668759
0.000629601
0.000594753
0.00056354
0.000535409
0.000509905
0.000486678
0.000465411
0.000445802
0.000427704
0.000410985
0.00039552
0.000381225
0.000367989
0.000355746
0.000344439
0.000334007
0.000324385
0.000315516
0.00030733
0.000299775
0.000292855
0.000286544
0.000280943
0.000276185
0.000272027
0.000268447
0.000265354
0.000262667
0.000260391
0.000258541
0.000257106
0.000256038
0.000255279
0.000254762
0.000254483
0.000254442
0.000254591
0.000254891
0.000255322
0.000255858
0.000256443
0.000257031
0.000257621
0.000258194
0.00025873
0.000259199
0.000259588
0.000259894
0.000260117
0.000260262
0.000260333
0.000260317
0.000260197
0.000259997
0.00025974
0.000259447
0.000259132
0.000258758
0.000258342
0.000257904
0.000257458
0.00025701
0.000256561
0.000256098
0.000255628
0.000255158
0.000254686
0.000254204
0.000253705
0.00025319
0.000252643
0.000252043
0.000251372
0.000250603
0.000249663
0.000248541
0.000247185
0.00024554
0.000243549
0.000241178
0.000238446
0.000236274
0.0102774
0.00673013
0.00479839
0.00366546
0.00294195
0.0024412
0.00207913
0.00180508
0.00158878
0.00141408
0.00127097
0.00115219
0.00105245
0.000967828
0.000895296
0.000832549
0.000777808
0.000729683
0.000687071
0.000649081
0.000614978
0.000584159
0.000556137
0.000530551
0.00050705
0.000485465
0.000465605
0.000447303
0.000430403
0.000414781
0.000400317
0.000386907
0.00037447
0.000362933
0.000352217
0.000342262
0.000332997
0.000324355
0.000316339
0.000308847
0.000301964
0.000295781
0.000290222
0.000285265
0.000280903
0.000277153
0.000274031
0.0002715
0.000269501
0.000267953
0.000266768
0.000265833
0.000265166
0.000264784
0.00026464
0.000264671
0.000264871
0.00026521
0.000265644
0.000266131
0.000266646
0.00026716
0.00026765
0.000268092
0.000268468
0.000268762
0.000268967
0.000269087
0.000269131
0.000269091
0.000268929
0.000268679
0.000268365
0.000268011
0.000267631
0.000267211
0.000266756
0.000266282
0.000265802
0.000265321
0.000264831
0.000264337
0.000263844
0.000263356
0.000262872
0.000262374
0.000261855
0.000261324
0.000260773
0.000260181
0.000259536
0.000258814
0.000257966
0.000256958
0.00025574
0.000254256
0.000252447
0.00025027
0.000247727
0.000245564
0.0105181
0.00705889
0.00510722
0.00393344
0.00317168
0.00263903
0.00224916
0.00195264
0.00171822
0.00152942
0.00137494
0.0012468
0.00113925
0.001048
0.000969769
0.000902062
0.00084295
0.000790923
0.000744783
0.00070356
0.00066647
0.000632864
0.000602219
0.000574263
0.000548685
0.000525247
0.00050372
0.000483907
0.00046562
0.000448708
0.000433041
0.000418484
0.00040494
0.000392326
0.000380545
0.000369537
0.000359226
0.000349528
0.000340472
0.000332001
0.000324126
0.00031688
0.000310241
0.00030418
0.00029869
0.000293767
0.000289458
0.000285855
0.000282957
0.00028065
0.000278805
0.000277225
0.000275984
0.000275116
0.000274588
0.00027432
0.000274275
0.000274406
0.000274665
0.000275014
0.000275424
0.000275849
0.000276258
0.000276635
0.000276959
0.000277199
0.000277341
0.000277398
0.000277371
0.000277267
0.000277073
0.00027679
0.000276442
0.000276048
0.000275624
0.000275159
0.00027466
0.000274144
0.000273622
0.0002731
0.000272551
0.000271999
0.000271454
0.00027092
0.000270393
0.000269869
0.000269342
0.000268811
0.000268269
0.000267693
0.000267075
0.000266398
0.000265625
0.00026472
0.000263627
0.00026229
0.000260658
0.000258682
0.000256356
0.0002543
0.0107359
0.00736832
0.00540494
0.00419554
0.00339814
0.00283529
0.00241823
0.00209927
0.00184748
0.00164484
0.0014791
0.00134166
0.0012263
0.0011284
0.00104444
0.00097172
0.000908173
0.000852176
0.000802437
0.000757909
0.000717743
0.000681246
0.00064809
0.000617904
0.000590346
0.000565125
0.000541981
0.000520685
0.000501025
0.000482826
0.00046595
0.00045023
0.000435563
0.000421858
0.000408998
0.000396926
0.000385614
0.000374994
0.00036505
0.00035573
0.000347018
0.000338905
0.00033138
0.000324406
0.00031798
0.000312075
0.000306713
0.000301964
0.000297814
0.000294316
0.000291442
0.000289068
0.000287171
0.000285758
0.000284788
0.000284144
0.000283769
0.000283622
0.000283632
0.000283771
0.000284008
0.000284278
0.00028454
0.000284789
0.000285003
0.000285162
0.000285248
0.00028525
0.000285168
0.000285013
0.00028478
0.000284457
0.000284065
0.000283624
0.000283149
0.000282619
0.000282052
0.000281468
0.000280879
0.000280291
0.000279695
0.000279101
0.000278519
0.00027795
0.000277385
0.000276832
0.000276287
0.000275746
0.000275204
0.000274623
0.000274012
0.000273355
0.000272626
0.000271793
0.000270811
0.000269626
0.00026818
0.00026642
0.000264334
0.000262448
0.0109337
0.0076595
0.00569143
0.00445126
0.00362081
0.00302928
0.00258591
0.00224513
0.00197633
0.00176005
0.00158317
0.00143648
0.00131333
0.00120877
0.00111904
0.00104125
0.000973212
0.00091318
0.000859771
0.000811863
0.000768537
0.000729336
0.000693783
0.000661456
0.000631974
0.000605009
0.000580265
0.000557493
0.00053645
0.000516943
0.000498833
0.000481914
0.000466086
0.000451254
0.000437357
0.000424326
0.000412114
0.000400651
0.0003899
0.000379802
0.000370329
0.00036144
0.000353131
0.000345344
0.000338092
0.000331318
0.00032504
0.000319309
0.000314135
0.000309548
0.000305555
0.000302135
0.000299323
0.000297152
0.000295567
0.000294374
0.000293515
0.000292952
0.000292576
0.000292391
0.000292365
0.000292421
0.000292521
0.000292639
0.000292738
0.000292804
0.000292817
0.000292746
0.000292594
0.000292371
0.00029208
0.000291684
0.000291219
0.000290704
0.000290156
0.000289566
0.000288945
0.000288309
0.000287667
0.000287021
0.000286373
0.000285732
0.000285104
0.000284494
0.000283874
0.000283271
0.000282685
0.000282109
0.000281542
0.000280964
0.000280367
0.000279735
0.000279047
0.000278277
0.00027739
0.000276338
0.00027506
0.0002735
0.000271648
0.000269951
0.0111137
0.00793344
0.00596666
0.00470019
0.00383923
0.00322032
0.00275177
0.00238997
0.00210451
0.00187478
0.00168686
0.00153098
0.00140005
0.00128883
0.0011933
0.00111041
0.00103783
0.000973696
0.000916548
0.000865178
0.000818917
0.000777125
0.000739253
0.000704838
0.000673465
0.000644769
0.000618427
0.000594167
0.000571716
0.000550866
0.00053149
0.000513319
0.000496352
0.000480482
0.000465622
0.000451695
0.000438637
0.000426372
0.000414852
0.000404003
0.0003938
0.000384167
0.000375119
0.000366555
0.000358526
0.000351001
0.000343975
0.000337462
0.000331472
0.00032602
0.000321103
0.000316725
0.000312897
0.000309706
0.000307215
0.000305174
0.000303578
0.0003024
0.00030156
0.000301009
0.00030068
0.000300476
0.000300365
0.000300313
0.000300253
0.000300182
0.00030008
0.000299893
0.000299631
0.000299305
0.000298922
0.000298462
0.000297935
0.000297359
0.000296749
0.000296098
0.000295418
0.000294723
0.000294024
0.000293309
0.000292591
0.000291882
0.000291189
0.000290517
0.000289856
0.000289215
0.000288594
0.000287985
0.000287391
0.000286802
0.000286208
0.000285585
0.000284918
0.000284189
0.000283369
0.000282418
0.000281285
0.000279918
0.000278295
0.000276801
0.011278
0.00819113
0.00623064
0.00494194
0.00405294
0.00340777
0.00291579
0.0025335
0.00223172
0.00198874
0.0017899
0.00162489
0.00148622
0.00136833
0.001267
0.00117897
0.00110179
0.00103351
0.000972546
0.000917944
0.000868848
0.000824541
0.00078441
0.000747939
0.000714688
0.000684261
0.000656305
0.000630537
0.000606645
0.000584408
0.000563724
0.000544406
0.000526375
0.00050952
0.000493742
0.000478949
0.000465069
0.000452013
0.000439735
0.000428134
0.000417206
0.000406823
0.000397044
0.000387807
0.000379111
0.000370932
0.000363256
0.000356076
0.000349394
0.000343217
0.00033752
0.000332325
0.000327608
0.000323431
0.000319864
0.000316831
0.000314341
0.000312401
0.000310946
0.000309904
0.000309168
0.000308589
0.000308169
0.000307864
0.00030756
0.000307281
0.000307003
0.000306689
0.000306319
0.000305895
0.000305421
0.000304884
0.000304285
0.000303638
0.000302958
0.000302228
0.000301468
0.000300695
0.000299921
0.000299139
0.000298362
0.000297596
0.000296845
0.000296114
0.000295403
0.000294717
0.000294056
0.000293398
0.000292762
0.00029214
0.000291526
0.000290903
0.000290256
0.000289563
0.0002888
0.000287935
0.000286927
0.000285726
0.000284308
0.000283003
0.0114283
0.0084335
0.00648345
0.00517622
0.00426152
0.0035913
0.00307742
0.00267543
0.00235767
0.00210164
0.00189201
0.00171795
0.00157158
0.00144705
0.00133989
0.0012467
0.00116488
0.00109239
0.00102784
0.000970109
0.000918253
0.000871486
0.000829132
0.000790627
0.0007555
0.00072333
0.000693739
0.000666436
0.000641058
0.000617491
0.000595584
0.000575163
0.000556113
0.000538305
0.000521627
0.000505978
0.00049128
0.000477427
0.000464385
0.000452009
0.000440342
0.000429297
0.000418868
0.000409013
0.000399712
0.000390936
0.000382665
0.000374878
0.00036757
0.000360748
0.000354346
0.000348426
0.000342974
0.00033801
0.00033358
0.000329658
0.00032625
0.000323389
0.000321086
0.000319326
0.00031799
0.000316839
0.000315955
0.00031528
0.000314712
0.000314205
0.00031373
0.000313259
0.000312752
0.000312203
0.000311617
0.000310976
0.000310271
0.000309526
0.000308753
0.000307946
0.000307115
0.000306274
0.000305432
0.000304582
0.00030374
0.000302914
0.000302096
0.000301295
0.000300518
0.000299768
0.00029905
0.000298353
0.000297682
0.000297028
0.000296391
0.000295758
0.000295117
0.000294444
0.000293717
0.000292912
0.000291996
0.000290929
0.000289691
0.000288563
0.0115661
0.00866139
0.00672518
0.00540273
0.00446461
0.00377053
0.00323612
0.00281545
0.00248205
0.00221319
0.00199292
0.00180991
0.00165589
0.00152474
0.00141177
0.00131339
0.00122691
0.0011504
0.00108237
0.00102159
0.000967032
0.000917843
0.000873287
0.00083276
0.000795755
0.000761825
0.000730569
0.000701697
0.000674934
0.0006501
0.000627027
0.000605536
0.000585491
0.000566744
0.000549168
0.000532658
0.000517135
0.000502461
0.000488637
0.000475562
0.00046322
0.00045155
0.000440514
0.000430072
0.000420197
0.000410848
0.000402008
0.000393638
0.000385732
0.000378303
0.000371318
0.000364791
0.000358718
0.000353098
0.00034796
0.000343287
0.000339083
0.000335374
0.000332137
0.00032943
0.000327228
0.000325415
0.000323973
0.000322842
0.000321918
0.000321101
0.000320361
0.000319671
0.000318966
0.000318238
0.000317496
0.000316727
0.000315917
0.000315075
0.000314213
0.000313322
0.000312412
0.000311495
0.00031058
0.000309645
0.000308723
0.00030782
0.000306933
0.000306069
0.000305233
0.000304424
0.000303648
0.000302904
0.000302191
0.000301495
0.00030082
0.000300159
0.000299504
0.000298837
0.000298139
0.000297383
0.000296544
0.000295587
0.0002945
0.000293523
0.0116928
0.0088756
0.00695594
0.00562124
0.00466181
0.00394506
0.00339137
0.00295325
0.00260455
0.0023231
0.00209235
0.0019005
0.00173892
0.00160118
0.00148242
0.00137883
0.00128784
0.00120745
0.00113604
0.00107228
0.00101506
0.000963483
0.000916739
0.000874192
0.000835301
0.000799589
0.000766693
0.000736337
0.000708241
0.000682188
0.000657983
0.00063544
0.000614412
0.000594727
0.000576246
0.000558857
0.00054249
0.000527053
0.000512506
0.000498765
0.000485784
0.000473511
0.000461887
0.00045087
0.000440431
0.000430513
0.000421108
0.000412196
0.000403763
0.000395803
0.000388297
0.000381234
0.000374613
0.000368416
0.000362664
0.000357331
0.000352429
0.000347978
0.00034397
0.000340431
0.000337363
0.000334736
0.000332556
0.000330793
0.000329351
0.000328076
0.000326946
0.000325938
0.000324993
0.000324067
0.000323152
0.000322239
0.0003213
0.000320342
0.000319374
0.000318375
0.000317363
0.00031635
0.000315343
0.000314335
0.000313341
0.000312368
0.000311409
0.000310478
0.000309579
0.000308702
0.000307859
0.000307052
0.000306282
0.000305544
0.000304834
0.000304145
0.00030347
0.000302799
0.000302114
0.000301387
0.000300599
0.000299723
0.000298752
0.000297899
0.0118093
0.00907686
0.00717586
0.00583152
0.0048528
0.00411484
0.00354269
0.0030885
0.00272488
0.0024311
0.00219006
0.00198949
0.00182042
0.00167617
0.00155162
0.00144293
0.00134759
0.00126344
0.00118873
0.00112205
0.00106222
0.00100827
0.000959347
0.000914778
0.000873987
0.000836542
0.000802085
0.000770309
0.000740922
0.000713678
0.000688362
0.000664777
0.000642769
0.000622136
0.000602731
0.000584494
0.000567341
0.000551178
0.000535948
0.000521561
0.000507958
0.000495092
0.000482882
0.000471288
0.000460279
0.000449826
0.000439909
0.000430501
0.000421584
0.000413138
0.00040515
0.00039759
0.000390465
0.00038373
0.000377418
0.000371519
0.000366032
0.000360966
0.000356309
0.000352078
0.000348264
0.000344866
0.00034188
0.000339306
0.000337125
0.000335259
0.000333654
0.00033226
0.000331007
0.000329817
0.000328677
0.000327574
0.000326454
0.000325337
0.000324228
0.000323114
0.000321999
0.000320893
0.000319793
0.000318702
0.000317629
0.00031658
0.000315536
0.000314524
0.000313547
0.000312605
0.0003117
0.000310833
0.000310007
0.00030922
0.000308469
0.000307741
0.000307034
0.000306341
0.00030565
0.00030494
0.000304192
0.000303378
0.000302499
0.000301742
0.0119167
0.00926582
0.00738504
0.00603337
0.00503723
0.00427955
0.00368981
0.00322061
0.00284273
0.0025369
0.00228577
0.00207664
0.00190018
0.00174947
0.00161916
0.00150561
0.00140606
0.00131824
0.00124031
0.00117077
0.00110837
0.00105207
0.00100097
0.000954371
0.00091174
0.000872643
0.000836688
0.000803542
0.000772896
0.000744482
0.000718067
0.000693437
0.000670447
0.000648846
0.000628581
0.000609546
0.000591645
0.000574783
0.000558891
0.000543869
0.000529649
0.000516192
0.000503385
0.000491237
0.000479705
0.000468754
0.000458358
0.000448482
0.000439108
0.000430197
0.000421749
0.000413706
0.000406097
0.000398894
0.0003921
0.000385707
0.000379712
0.000374115
0.000368894
0.000364068
0.000359607
0.000355529
0.000351832
0.000348518
0.000345582
0.000343006
0.000340774
0.000338851
0.000337163
0.000335586
0.00033412
0.000332749
0.000331423
0.000330129
0.000328867
0.000327616
0.00032638
0.000325164
0.000323952
0.000322756
0.000321585
0.000320443
0.000319324
0.000318238
0.000317185
0.000316172
0.000315201
0.000314268
0.000313376
0.000312528
0.000311724
0.000310955