/*--------------------------------*- C++ -*----------------------------------*\
  =========                 |
  \\      /  F ield         | OpenFOAM: The Open Source CFD Toolbox
   \\    /   O peration     | Website:  https://openfoam.org
    \\  /    A nd           | Version:  8
     \\/     M anipulation  |
\*---------------------------------------------------------------------------*/
FoamFile
{
    version     2.0;
    format      ascii;
    class       volVectorField;
    location    "0.1376";
    object      U;
}
// * * * * * * * * * * * * * * * * * * * * * * * * * * * * * * * * * * * * * //

dimensions      [0 1 -1 0 0 0 0];

internalField   nonuniform List<vector> 
119000
(
(12.45 -0.232949 0)
(12.1442 -0.00325748 0)
(11.5825 0.0673758 0)
(10.963 0.0714854 0)
(10.3672 0.0693751 0)
(9.78813 0.0671279 0)
(9.21834 0.0651753 -4.39628e-18)
(8.65551 0.0636081 4.78795e-18)
(8.10121 0.0619434 0)
(7.56277 0.0593398 0)
(7.05583 0.051691 5.99704e-18)
(6.67023 0.0315516 -6.26725e-18)
(6.50509 -0.000141681 0)
(6.49832 -0.024613 -1.25219e-17)
(6.53202 -0.0252163 2.47333e-17)
(6.53844 -0.0190581 -1.23468e-17)
(6.51646 -0.0110411 0)
(6.48201 -0.00748216 0)
(6.44686 -0.00730041 -1.23457e-17)
(6.41946 -0.00815583 1.23276e-17)
(6.40071 -0.00892078 0)
(6.38632 -0.00871622 1.22509e-17)
(6.37233 -0.0083212 -1.22168e-17)
(6.35575 -0.00771713 0)
(6.33555 -0.00689802 -1.21787e-17)
(6.31165 -0.00662715 1.21747e-17)
(6.28452 -0.00614683 0)
(6.25577 -0.00567025 -2.43727e-17)
(6.22547 -0.00543645 2.43964e-17)
(6.19533 -0.00499263 2.44163e-17)
(6.16618 -0.00461554 1.67973e-24)
(6.13805 -0.00499356 -2.44433e-17)
(6.11072 -0.00548622 -2.44551e-17)
(6.08421 -0.00528936 2.44655e-17)
(6.05789 -0.00516569 0)
(6.03173 -0.00512766 0)
(6.00578 -0.0051507 2.45093e-17)
(5.98021 -0.0050957 -4.90538e-17)
(5.95516 -0.00488104 2.45452e-17)
(5.93023 -0.00496227 0)
(5.90535 -0.00508349 0)
(5.8809 -0.00486462 0)
(5.85673 -0.00467318 0)
(5.83262 -0.00445158 2.46641e-17)
(5.80799 -0.00404585 -2.4702e-17)
(5.78145 -0.00378162 0)
(5.75289 -0.00356137 2.4828e-17)
(5.72281 -0.00311249 -2.49099e-17)
(5.69222 -0.00250516 0)
(5.66139 -0.00228029 -2.50889e-17)
(5.63069 -0.00282935 2.5185e-17)
(5.60058 -0.00316012 0)
(5.57139 -0.00327751 0)
(5.54282 -0.00329741 0)
(5.51486 -0.00337262 0)
(5.4873 -0.0034009 -5.1322e-17)
(5.46023 -0.00350582 5.15179e-17)
(5.43356 -0.00359476 0)
(5.40743 -0.00376431 0)
(5.38177 -0.00393885 5.21018e-17)
(5.35661 -0.004198 -5.22979e-17)
(5.33172 -0.00442366 5.24944e-17)
(5.30691 -0.00466309 -5.26994e-17)
(5.28191 -0.00484319 0)
(5.25673 -0.00505747 0)
(5.23135 -0.00526635 -5.33506e-17)
(5.20587 -0.005531 5.35808e-17)
(5.18027 -0.0058057 0)
(5.15451 -0.00614408 -5.40564e-17)
(5.12844 -0.00650422 5.4304e-17)
(5.10189 -0.00692955 -5.45633e-17)
(5.07461 -0.00745535 5.48329e-17)
(5.04627 -0.00813768 5.51198e-17)
(5.01646 -0.00913187 7.24539e-24)
(4.98452 -0.0104058 -5.57598e-17)
(4.9489 -0.0116748 -5.61487e-17)
(4.90789 -0.0135628 5.66021e-17)
(4.86213 -0.0165931 0)
(4.81062 -0.0210015 -5.77148e-17)
(4.75334 -0.0275597 5.83763e-17)
(4.69002 -0.0366058 -5.91138e-17)
(4.6199 -0.0478636 5.99509e-17)
(4.54242 -0.0614932 6.08726e-17)
(4.45392 -0.0780136 -6.19713e-17)
(4.35146 -0.0986702 6.32283e-17)
(4.23084 -0.125221 -6.47646e-17)
(4.08792 -0.157842 0)
(3.91712 -0.196722 6.91517e-17)
(3.70951 -0.243742 -7.23525e-17)
(3.45436 -0.300204 0)
(3.14382 -0.367123 0)
(2.76995 -0.444001 0)
(2.32106 -0.537563 0)
(1.81943 -0.636537 1.07263e-16)
(1.24393 -0.686436 -9.74865e-17)
(0.526808 -0.70634 0)
(-0.255881 -0.666785 7.67087e-17)
(-0.586112 -0.788695 -6.19071e-17)
(-0.510942 -1.45468 0)
(-0.187173 -2.23873 -5.21392e-17)
(12.6831 0.0118169 0)
(12.586 0.0807312 0)
(12.4624 0.097506 -2.67927e-19)
(12.288 0.0963091 3.64119e-19)
(12.1127 0.0944027 0)
(11.942 0.0918689 -1.03521e-18)
(11.7759 0.089539 -1.16527e-18)
(11.6152 0.0876153 2.56857e-18)
(11.4593 0.0854729 2.78862e-18)
(11.3081 0.08208 -2.99295e-18)
(11.1617 0.0740783 0)
(10.998 0.056731 -3.30863e-18)
(10.8014 0.032825 1.00261e-17)
(10.6089 0.0151763 -1.33472e-17)
(10.4441 0.00686105 6.67539e-18)
(10.31 0.00613697 0)
(10.1992 0.00798168 0)
(10.1007 0.00786245 6.77922e-18)
(10.0089 0.00673995 -6.79514e-18)
(9.92143 0.00573139 0)
(9.83853 0.00490096 0)
(9.76022 0.00436038 0)
(9.68538 0.00408374 6.73713e-18)
(9.61295 0.00397298 -1.34577e-17)
(9.54261 0.00395506 1.34556e-17)
(9.47312 0.00359571 6.73258e-18)
(9.40407 0.00365911 4.83598e-24)
(9.33618 0.00364223 -2.70022e-17)
(9.26892 0.00357293 1.35207e-17)
(9.20314 0.00362609 0)
(9.13929 0.00352434 0)
(9.07706 0.0029092 0)
(9.01623 0.00238144 0)
(8.95738 0.00225954 0)
(8.90027 0.0020578 0)
(8.84483 0.00184178 1.35569e-17)
(8.79095 0.00160425 -1.35587e-17)
(8.73862 0.00137609 0)
(8.68806 0.00126245 0)
(8.6389 0.000967615 0)
(8.59091 0.000721138 1.35679e-17)
(8.5444 0.000679466 -1.35709e-17)
(8.49926 0.000611516 0)
(8.45545 0.00058894 0)
(8.41334 0.000698218 1.35858e-17)
(8.37225 0.000821074 -1.8999e-24)
(8.33202 0.00088791 -1.36407e-17)
(8.29268 0.0010769 -1.36802e-17)
(8.2546 0.00120067 2.7446e-17)
(8.21772 0.00112228 -4.05581e-24)
(8.18181 0.000614712 -1.38113e-17)
(8.14707 0.000293723 2.77103e-17)
(8.11375 2.45405e-06 -2.7798e-17)
(8.0818 -0.000163325 2.78848e-17)
(8.05119 -0.00039625 -2.79735e-17)
(8.02181 -0.000563231 -2.80621e-17)
(7.99359 -0.0008086 2.81519e-17)
(7.96647 -0.00101209 0)
(7.94038 -0.00128485 -2.83291e-17)
(7.91526 -0.00150439 2.84156e-17)
(7.89105 -0.00176538 -2.85023e-17)
(7.86762 -0.00195458 2.85904e-17)
(7.84484 -0.00214852 0)
(7.82257 -0.00227142 0)
(7.80071 -0.00241479 2.88847e-17)
(7.77921 -0.00252935 -2.899e-17)
(7.75807 -0.00267401 0)
(7.73728 -0.00279145 0)
(7.71681 -0.00291303 -2.93251e-17)
(7.6966 -0.00298564 2.94439e-17)
(7.67657 -0.00302766 0)
(7.65656 -0.00300656 2.96967e-17)
(7.63638 -0.00293757 -2.98321e-17)
(7.6157 -0.00278095 0)
(7.59411 -0.00258033 3.01286e-17)
(7.57109 -0.00202425 -3.03115e-17)
(7.54564 -0.00154292 0)
(7.51721 -0.00106304 0)
(7.48472 -0.00071098 -3.0991e-17)
(7.44734 -0.00077448 3.12412e-17)
(7.40404 -0.0011257 -3.14953e-17)
(7.35379 -0.00125559 6.3511e-17)
(7.29491 -0.00100793 -3.20044e-17)
(7.22563 -0.00038194 0)
(7.14237 0.000226611 3.25112e-17)
(7.04143 0.000923258 -3.27627e-17)
(6.9173 0.00207048 0)
(6.76298 0.00347897 0)
(6.56977 0.00468252 -3.36979e-17)
(6.32602 0.00537167 6.8281e-17)
(6.01622 0.00437377 -3.46873e-17)
(5.62297 0.000152627 3.54024e-17)
(5.1268 -0.0102014 6.60436e-22)
(4.52805 -0.0214573 -3.78568e-17)
(3.823 -0.0295053 4.02095e-17)
(2.9376 -0.034381 -8.79514e-17)
(1.74526 0.0668992 4.89149e-17)
(0.492859 0.391341 5.28856e-17)
(0.124816 0.463103 -1.01583e-16)
(0.67186 -0.508006 9.22515e-17)
(12.7659 0.0198048 -1.50578e-20)
(12.7251 0.0831707 -4.42757e-20)
(12.7142 0.107398 3.02548e-19)
(12.6559 0.107946 -6.301e-19)
(12.5902 0.107735 5.25078e-19)
(12.5239 0.106056 6.19337e-19)
(12.4579 0.104065 7.05008e-19)
(12.3935 0.10223 -3.13481e-18)
(12.3311 0.10013 1.7134e-18)
(12.2709 0.0964312 0)
(12.2122 0.0873645 0)
(12.1417 0.0695812 2.08996e-18)
(12.0397 0.0480411 2.16755e-18)
(11.9102 0.0320704 1.22078e-23)
(11.7733 0.0247414 -9.0151e-18)
(11.6474 0.0234923 -8.28156e-24)
(11.5356 0.0234402 4.62232e-18)
(11.4335 0.0224399 0)
(11.3374 0.0207438 0)
(11.2442 0.018987 0)
(11.1535 0.0175056 0)
(11.0659 0.0164824 0)
(10.9809 0.0158466 -4.70237e-18)
(10.8985 0.0155667 9.43444e-18)
(10.8189 0.0155885 -4.7353e-18)
(10.7411 0.0151529 9.51283e-18)
(10.6647 0.0152667 3.43358e-24)
(10.5901 0.0151463 2.59378e-24)
(10.5167 0.0149705 -9.64552e-18)
(10.4449 0.0148636 -9.68189e-18)
(10.3751 0.0146208 -8.4398e-25)
(10.3069 0.0138285 -1.0737e-24)
(10.2398 0.0131276 9.7547e-18)
(10.1746 0.0128073 0)
(10.1113 0.0124021 0)
(10.0497 0.0120151 0)
(9.98993 0.0115997 0)
(9.93175 0.011177 0)
(9.87541 0.0109294 0)
(9.82064 0.0104855 0)
(9.76721 0.0100822 0)
(9.71534 0.00988076 0)
(9.66501 0.00966565 0)
(9.6162 0.00951314 0)
(9.56936 0.00952318 0)
(9.52441 0.0095396 -9.97427e-18)
(9.48139 0.00945884 1.00032e-17)
(9.44021 0.00952788 1.00353e-17)
(9.40103 0.00959379 -1.00689e-17)
(9.36373 0.00948656 0)
(9.32792 0.00889531 0)
(9.29359 0.00843034 2.03352e-17)
(9.26086 0.00798009 -2.03983e-17)
(9.22973 0.00768385 2.04602e-17)
(9.20017 0.00732379 -2.05222e-17)
(9.17211 0.00704396 2.05831e-17)
(9.1455 0.0066871 -2.06434e-17)
(9.12024 0.00638561 0)
(9.09626 0.00602868 0)
(9.07345 0.00573318 -2.08109e-17)
(9.05172 0.0054118 2.08625e-17)
(9.03095 0.00516902 -2.0914e-17)
(9.01101 0.00493392 2.09686e-17)
(8.99178 0.00477729 -2.10252e-17)
(8.97322 0.004616 2.10833e-17)
(8.95526 0.00449181 0)
(8.9379 0.00434644 -2.11999e-17)
(8.92111 0.0042303 2.12583e-17)
(8.90489 0.00411648 -2.13174e-17)
(8.88923 0.00404995 2.13772e-17)
(8.87407 0.00401635 2.14383e-17)
(8.85933 0.00405749 -2.15007e-17)
(8.84489 0.00416506 2.15651e-17)
(8.83049 0.0043893 -2.16318e-17)
(8.81586 0.004743 2.17039e-17)
(8.80067 0.00543667 -2.17932e-17)
(8.78423 0.00627747 0)
(8.76597 0.00746772 0)
(8.74493 0.00890026 -2.21373e-17)
(8.72019 0.0106071 2.22606e-17)
(8.69061 0.0126611 -2.23816e-17)
(8.65495 0.0152932 2.24976e-17)
(8.61153 0.0185213 -2.26041e-17)
(8.55847 0.0223105 2.27014e-17)
(8.49304 0.0268104 2.27868e-17)
(8.41196 0.032749 -2.28577e-17)
(8.31085 0.0408685 2.2916e-17)
(8.18403 0.0518172 -2.29586e-17)
(8.02437 0.0663816 2.2987e-17)
(7.82261 0.0857776 -2.3003e-17)
(7.5659 0.111399 0)
(7.23829 0.144272 -2.30013e-17)
(6.81873 0.182464 2.30306e-17)
(6.2903 0.210942 0)
(5.64292 0.215203 0)
(4.84444 0.209151 2.44095e-17)
(3.79332 0.247643 -2.55622e-17)
(2.43072 0.389537 0)
(1.3618 0.518618 0)
(1.38448 0.217492 0)
(12.8251 0.0125268 1.1561e-20)
(12.8075 0.0801027 3.02145e-20)
(12.8384 0.109709 -1.02477e-19)
(12.8303 0.112466 2.86869e-19)
(12.813 0.113388 -3.61771e-19)
(12.7916 0.111799 0)
(12.767 0.109679 9.83888e-19)
(12.7407 0.107614 2.29844e-25)
(12.7135 0.105248 -1.20505e-18)
(12.6862 0.10149 0)
(12.6583 0.0935373 -1.40069e-18)
(12.6244 0.0792462 1.4918e-18)
(12.5733 0.0622027 0)
(12.5006 0.0481642 3.29252e-18)
(12.4144 0.0406148 -6.84115e-18)
(12.3254 0.0382572 7.04864e-18)
(12.2378 0.0371413 -3.60088e-18)
(12.1527 0.0357571 0)
(12.07 0.0337232 0)
(11.9882 0.0315886 0)
(11.9075 0.0297617 0)
(11.828 0.0284506 -3.78371e-18)
(11.7498 0.0275836 -2.40436e-24)
(11.6733 0.0271064 3.85167e-18)
(11.599 0.0269998 0)
(11.5262 0.0263565 0)
(11.4547 0.026329 0)
(11.385 0.0259751 7.99477e-18)
(11.3164 0.0256172 -8.06109e-18)
(11.2493 0.0252957 -8.12013e-18)
(11.1837 0.0248911 8.17102e-18)
(11.1195 0.0239206 8.21407e-18)
(11.0561 0.0230255 -8.25347e-18)
(10.9944 0.0224386 0)
(10.9342 0.0217785 0)
(10.8755 0.0211647 0)
(10.8183 0.0205275 -8.39189e-18)
(10.7625 0.0198825 8.42137e-18)
(10.7081 0.0194353 0)
(10.6551 0.0187914 0)
(10.6032 0.0181873 -8.50184e-18)
(10.5527 0.0177573 8.52585e-18)
(10.5035 0.0173066 0)
(10.4557 0.0168985 -8.5676e-18)
(10.4096 0.0166137 8.5851e-18)
(10.3652 0.0163099 -8.60407e-18)
(10.3229 0.0158992 8.62547e-18)
(10.2825 0.0156342 0)
(10.2442 0.0154138 8.66842e-18)
(10.2081 0.0150817 -8.68793e-18)
(10.1736 0.0143091 0)
(10.1408 0.0136244 0)
(10.1095 0.0129239 1.74732e-17)
(10.0798 0.0123671 -1.74998e-17)
(10.0517 0.0117566 -1.75245e-17)
(10.025 0.0112442 3.50928e-17)
(9.99979 0.0106864 -1.75657e-17)
(9.9759 0.010211 0)
(9.95326 0.00970175 0)
(9.93175 0.00927171 -1.76015e-17)
(9.91123 0.00883049 1.76066e-17)
(9.89157 0.0084795 0)
(9.87259 0.00814435 -1.7618e-17)
(9.85421 0.00789292 3.5251e-17)
(9.83638 0.00764446 -1.76327e-17)
(9.81908 0.00743915 0)
(9.80227 0.00721572 1.76418e-17)
(9.78593 0.00701944 -1.76433e-17)
(9.77006 0.00682278 1.76432e-17)
(9.75464 0.00667509 -1.7641e-17)
(9.73967 0.00656834 -1.76369e-17)
(9.7251 0.00655372 1.76308e-17)
(9.71084 0.00664022 0)
(9.69675 0.00688392 -1.76133e-17)
(9.68261 0.0073762 3.52092e-17)
(9.6681 0.0081906 -1.7609e-17)
(9.65278 0.00932806 0)
(9.6362 0.0109109 0)
(9.61765 0.0129722 -1.76758e-17)
(9.59631 0.0155473 1.77046e-17)
(9.57117 0.0187024 0)
(9.54104 0.0224858 -1.77585e-17)
(9.50446 0.0269239 1.77804e-17)
(9.45964 0.032068 0)
(9.40439 0.0384561 0)
(9.33589 0.046879 0)
(9.25051 0.0578701 -1.78106e-17)
(9.14363 0.0719076 -1.21928e-22)
(9.00947 0.0898173 1.77829e-17)
(8.84062 0.112848 0)
(8.62714 0.142213 1.77116e-17)
(8.35615 0.178455 -3.53154e-17)
(8.01033 0.221626 1.75985e-17)
(7.56993 0.265553 0)
(7.01662 0.30237 0)
(6.3275 0.329036 0)
(5.4408 0.355911 0)
(4.2342 0.429887 1.86377e-17)
(2.91946 0.581734 -1.87703e-17)
(2.33075 0.537592 0)
(12.8704 0.011556 0)
(12.8637 0.0765822 0)
(12.9124 0.107063 0)
(12.9294 0.112047 0)
(12.9385 0.114177 0)
(12.9418 0.11319 0)
(12.9402 0.111499 7.47172e-19)
(12.9351 0.109738 -8.38892e-19)
(12.9274 0.107543 -9.25132e-19)
(12.9181 0.10416 1.00688e-18)
(12.9068 0.0970688 0)
(12.8905 0.084624 0)
(12.8629 0.0698615 0)
(12.8209 0.0574777 2.60368e-18)
(12.7685 0.0507679 -5.46839e-18)
(12.711 0.0485739 2.85267e-18)
(12.6508 0.0474825 2.95743e-18)
(12.589 0.0461988 -6.09493e-18)
(12.5255 0.044234 3.11739e-18)
(12.4605 0.0420675 0)
(12.3948 0.040162 0)
(12.3288 0.0387748 0)
(12.2631 0.0378239 0)
(12.1981 0.0371917 0)
(12.1345 0.0368997 0)
(12.072 0.0360624 0)
(12.0106 0.0358017 7.01714e-18)
(11.9504 0.0352325 2.02526e-24)
(11.8912 0.0347032 -7.18509e-18)
(11.833 0.0342068 -7.25639e-18)
(11.7759 0.0336837 7.31838e-18)
(11.7198 0.032604 0)
(11.6642 0.0315677 0)
(11.6097 0.0307584 7.45969e-18)
(11.5562 0.0298968 6.19828e-25)
(11.5039 0.0291032 -1.50617e-17)
(11.4526 0.0282992 7.56183e-18)
(11.4021 0.0274868 0)
(11.3527 0.0268722 0)
(11.3043 0.0260816 0)
(11.2567 0.0253202 7.66561e-18)
(11.21 0.0247 -7.68604e-18)
(11.1644 0.0240617 0)
(11.1197 0.0234569 0)
(11.0764 0.0229364 0)
(11.0343 0.0223754 0)
(10.9937 0.0216904 7.74374e-18)
(10.9547 0.0211115 -7.74957e-18)
(10.9174 0.0206105 0)
(10.8821 0.0200624 0)
(10.8482 0.0191396 -1.5506e-17)
(10.8159 0.018264 1.5498e-17)
(10.7849 0.0173528 0)
(10.7553 0.0165652 1.54742e-17)
(10.727 0.0157436 -3.09178e-17)
(10.7001 0.0150252 3.0882e-17)
(10.6744 0.0142894 -1.54207e-17)
(10.65 0.0136495 0)
(10.6267 0.0130044 0)
(10.6043 0.0124511 -1.53438e-17)
(10.5829 0.0119131 1.53147e-17)
(10.5622 0.0114781 0)
(10.5421 0.0110724 1.52675e-17)
(10.5226 0.0107464 -1.525e-17)
(10.5035 0.0104308 -1.52343e-17)
(10.4849 0.0101604 1.5219e-17)
(10.4667 0.00988098 0)
(10.449 0.00962847 1.5189e-17)
(10.4316 0.00937667 -1.51739e-17)
(10.4145 0.00916919 1.51581e-17)
(10.3978 0.00900474 -1.51412e-17)
(10.3814 0.00893559 -1.51229e-17)
(10.3653 0.00898445 1.51026e-17)
(10.3494 0.00922591 0)
(10.3334 0.0097416 1.50577e-17)
(10.3173 0.0106028 -1.50461e-17)
(10.3008 0.011865 0)
(10.2835 0.0136511 0)
(10.2647 0.0159949 -1.50535e-17)
(10.2438 0.0189317 1.50609e-17)
(10.22 0.0225955 0)
(10.1922 0.0269844 1.50726e-17)
(10.1592 0.0322804 -1.50746e-17)
(10.1195 0.0387125 0)
(10.0711 0.0468911 0)
(10.0118 0.057381 0)
(9.93855 0.0706065 1.50421e-17)
(9.8475 0.0871976 -1.50242e-17)
(9.73398 0.10824 1.50009e-17)
(9.59203 0.134987 -1.49693e-17)
(9.41379 0.168588 0)
(9.18904 0.20988 0)
(8.90419 0.260843 -1.48075e-17)
(8.54211 0.319588 2.94789e-17)
(8.08269 0.380182 -1.46969e-17)
(7.5029 0.434957 0)
(6.76371 0.487557 0)
(5.76309 0.567205 0)
(4.49483 0.70065 0)
(3.50352 0.729516 0)
(12.9053 0.0124559 0)
(12.9044 0.0721959 0)
(12.9604 0.10202 6.05374e-20)
(12.9907 0.108938 -8.45443e-20)
(13.0149 0.112119 0)
(13.0329 0.112015 2.5784e-19)
(13.0451 0.110968 2.98207e-19)
(13.053 0.109734 -6.72695e-19)
(13.0574 0.107905 0)
(13.0593 0.104917 0)
(13.0583 0.0986101 0)
(13.0526 0.0875357 9.47216e-19)
(13.0378 0.0742993 -1.01083e-18)
(13.0123 0.0631927 2.14512e-18)
(12.9794 0.0572076 -4.52969e-18)
(12.9426 0.0554083 2.38061e-18)
(12.9034 0.0546388 0)
(12.862 0.0536497 0)
(12.8177 0.052047 0)
(12.7706 0.050184 0)
(12.721 0.0484701 -2.83524e-18)
(12.6704 0.0471627 2.90472e-18)
(12.6192 0.0462022 0)
(12.568 0.0454812 3.03931e-18)
(12.5174 0.0450508 -6.19678e-18)
(12.4672 0.0440991 3.15309e-18)
(12.4174 0.0436513 0)
(12.3684 0.0429531 6.50295e-18)
(12.32 0.0423104 -6.58689e-18)
(12.272 0.0417052 -6.66057e-18)
(12.2248 0.0411095 6.72384e-18)
(12.178 0.0400001 0)
(12.1314 0.0388891 0)
(12.0852 0.0379399 0)
(12.0395 0.0369684 6.89204e-18)
(11.9943 0.0360787 -6.92004e-18)
(11.9496 0.0351866 -6.94544e-18)
(11.9052 0.0342822 6.96884e-18)
(11.8615 0.0335683 0)
(11.8182 0.0327018 0)
(11.7754 0.0318484 7.0248e-18)
(11.733 0.0310985 -1.40765e-17)
(11.6913 0.0303365 3.92909e-25)
(11.6501 0.0296089 7.05428e-18)
(11.6099 0.0289469 0)
(11.5704 0.0282432 0)
(11.5319 0.0273863 7.05339e-18)
(11.4943 0.0265833 -1.16e-24)
(11.458 0.025875 -7.04199e-18)
(11.4232 0.0251671 -7.03232e-18)
(11.3897 0.0241372 -7.02031e-18)
(11.3573 0.0231107 1.40118e-17)
(11.3261 0.0220319 -1.39827e-17)
(11.296 0.0210545 1.39529e-17)
(11.2671 0.0200576 0)
(11.2394 0.0191621 1.38901e-17)
(11.2128 0.0182723 -1.38568e-17)
(11.1873 0.0174853 0)
(11.1629 0.0167179 0)
(11.1394 0.0160518 -1.37503e-17)
(11.1167 0.0154233 1.37147e-17)
(11.0949 0.0148995 0)
(11.0738 0.014414 1.36594e-17)
(11.0533 0.0140083 -1.36398e-17)
(11.0335 0.0136258 -1.36231e-17)
(11.0141 0.0132945 1.36081e-17)
(10.9953 0.0129671 -1.35949e-17)
(10.9768 0.0126689 1.35833e-17)
(10.9587 0.0123742 -1.35727e-17)
(10.9411 0.0121184 2.71251e-17)
(10.9237 0.0119042 -1.35521e-17)
(10.9067 0.0117826 0)
(10.8899 0.011785 0)
(10.8734 0.0119922 -1.35124e-17)
(10.8568 0.0124759 2.69916e-17)
(10.8402 0.0133007 -1.34848e-17)
(10.8233 0.0145604 1.34792e-17)
(10.8058 0.0163719 -1.34769e-17)
(10.7873 0.0187712 -1.34757e-17)
(10.7671 0.0218841 1.34747e-17)
(10.7445 0.0258031 0)
(10.7186 0.0305958 1.34666e-17)
(10.6885 0.036534 2.37825e-23)
(10.6528 0.0439291 -2.68907e-17)
(10.6099 0.0532446 1.34284e-17)
(10.5578 0.0648948 -1.34068e-17)
(10.4941 0.0794039 2.67636e-17)
(10.4156 0.0976381 -1.3355e-17)
(10.3184 0.120779 0)
(10.1978 0.150041 0)
(10.0473 0.186841 0)
(9.85904 0.232513 0)
(9.62218 0.289326 -1.31033e-17)
(9.32295 0.357024 2.60399e-17)
(8.9437 0.431833 -1.29383e-17)
(8.46248 0.507317 1.28808e-17)
(7.8502 0.585532 -1.28613e-17)
(7.0366 0.680317 0)
(5.94012 0.808478 0)
(4.80056 0.871698 -1.22222e-17)
(12.9322 0.012828 0)
(12.9347 0.0672699 0)
(12.9925 0.0959192 0)
(13.0298 0.104391 0)
(13.0629 0.108591 0)
(13.0897 0.109278 0)
(13.1105 0.108955 4.93036e-19)
(13.1265 0.108333 -5.58009e-19)
(13.1386 0.106985 0)
(13.1477 0.104456 0)
(13.1535 0.0989033 -7.39975e-19)
(13.1547 0.0890613 7.97778e-19)
(13.1479 0.0770954 0)
(13.1324 0.0670011 1.82118e-18)
(13.1113 0.0615216 -3.86211e-18)
(13.0876 0.0598653 2.03952e-18)
(13.0624 0.0592594 2.1464e-18)
(13.0357 0.0586135 -2.25073e-18)
(13.0069 0.0574667 0)
(12.9754 0.0559945 0)
(12.9411 0.054595 0)
(12.9053 0.0534631 -2.61404e-18)
(12.8685 0.0525681 2.69478e-18)
(12.8311 0.0518628 0)
(12.7934 0.0513999 0)
(12.7554 0.0504408 0)
(12.7172 0.0499084 -5.90931e-18)
(12.6792 0.0491659 1.20166e-17)
(12.6411 0.0484719 -6.09367e-18)
(12.6032 0.0478062 -6.16707e-18)
(12.5654 0.0471839 1.24573e-17)
(12.5278 0.0461066 -6.27965e-18)
(12.4899 0.0450071 0)
(12.4519 0.0440252 6.3549e-18)
(12.4138 0.0430327 -6.38323e-18)
(12.3758 0.0421251 0)
(12.3377 0.041218 0)
(12.2995 0.0402903 0)
(12.2615 0.0395405 -6.47033e-18)
(12.2236 0.03866 6.48661e-18)
(12.1857 0.0377734 0)
(12.148 0.0369571 0)
(12.1105 0.0361303 -6.51993e-18)
(12.0732 0.0353473 4.53727e-25)
(12.0365 0.0346059 6.52348e-18)
(12.0002 0.0338296 0)
(11.9643 0.0328763 0)
(11.929 0.0319344 0)
(11.8945 0.0310905 0)
(11.861 0.030269 0)
(11.8285 0.0291644 -1.29564e-17)
(11.7969 0.0280161 1.29252e-17)
(11.7662 0.0267948 0)
(11.7366 0.0256473 -1.28638e-17)
(11.7079 0.024492 1.28326e-17)
(11.6802 0.0234314 1.28003e-17)
(11.6536 0.0223943 -2.55347e-17)
(11.628 0.0214596 1.27335e-17)
(11.6033 0.0205648 0)
(11.5795 0.0197754 -1.2665e-17)
(11.5566 0.0190399 1.26318e-17)
(11.5344 0.018402 1.26014e-17)
(11.513 0.0178077 -1.25758e-17)
(11.4923 0.0172934 0)
(11.4722 0.0168185 0)
(11.4527 0.0164034 0)
(11.4337 0.0160088 1.24999e-17)
(11.4152 0.0156478 -2.19725e-24)
(11.397 0.0152958 -1.24741e-17)
(11.3793 0.0149786 0)
(11.3619 0.0147023 1.24517e-17)
(11.3448 0.0145144 -1.24398e-17)
(11.328 0.0144525 0)
(11.3114 0.0145955 0)
(11.2948 0.015011 1.23946e-17)
(11.2782 0.0157699 -1.23812e-17)
(11.2613 0.0169702 1.23711e-17)
(11.2439 0.0187188 -2.47261e-17)
(11.2256 0.0211408 -5.61989e-24)
(11.2059 0.0243055 1.23472e-17)
(11.1843 0.0283249 1.23375e-17)
(11.16 0.0333786 -1.23253e-17)
(11.132 0.0396946 0)
(11.0994 0.0476139 0)
(11.0608 0.0574761 -1.227e-17)
(11.0144 0.0697141 -3.97143e-23)
(10.9583 0.0849661 1.22146e-17)
(10.8898 0.104136 -1.21847e-17)
(10.8058 0.128315 1.21506e-17)
(10.7022 0.1587 0)
(10.5739 0.196914 0)
(10.4146 0.244456 0)
(10.2156 0.303431 0)
(9.96603 0.374995 0)
(9.65164 0.458095 0)
(9.25357 0.547981 0)
(8.74767 0.64415 0)
(8.08703 0.753121 0)
(7.18735 0.893872 0)
(6.0908 0.992799 0)
(12.953 0.0128029 0)
(12.9575 0.0623135 0)
(13.0141 0.0894206 0)
(13.0549 0.0989967 0)
(13.0929 0.104083 0)
(13.1248 0.105584 0)
(13.1508 0.106004 4.18438e-19)
(13.1719 0.106023 -4.74802e-19)
(13.189 0.105222 -5.29523e-19)
(13.2027 0.103202 5.83016e-19)
(13.213 0.0984023 0)
(13.2189 0.0896838 0)
(13.2176 0.0788378 0)
(13.2089 0.0695809 1.5809e-18)
(13.1955 0.0644166 -3.36534e-18)
(13.1805 0.0627334 1.78392e-18)
(13.1647 0.0622192 1.88447e-18)
(13.1482 0.061806 -3.96687e-18)
(13.1303 0.0609737 2.08085e-18)
(13.1106 0.0598579 0)
(13.0887 0.0587646 -2.26368e-18)
(13.0653 0.0578199 2.34963e-18)
(13.0407 0.0570379 0)
(13.0153 0.0563958 0)
(12.9892 0.0559911 -2.58395e-18)
(12.9625 0.0551456 2.65155e-18)
(12.935 0.0546487 5.4274e-18)
(12.9073 0.0539607 1.74939e-24)
(12.8789 0.0533055 -5.63155e-18)
(12.8502 0.0526487 -5.71208e-18)
(12.8212 0.0520462 5.77782e-18)
(12.792 0.0510446 0)
(12.7622 0.0500138 0)
(12.7319 0.0490673 5.90881e-18)
(12.7012 0.0481165 5.5556e-25)
(12.67 0.0472511 -1.19306e-17)
(12.6385 0.0463868 5.99124e-18)
(12.6066 0.0454893 0)
(12.5744 0.0447505 0)
(12.5421 0.0438994 0)
(12.5096 0.0430259 6.07524e-18)
(12.4769 0.0421939 -1.21795e-17)
(12.4441 0.0413531 2.83346e-25)
(12.4114 0.0405574 6.10689e-18)
(12.3788 0.0397769 0)
(12.3463 0.0389628 0)
(12.314 0.0379664 6.10838e-18)
(12.2819 0.0369548 -6.10476e-18)
(12.2503 0.0360314 0)
(12.2193 0.0351341 -6.08944e-18)
(12.1889 0.0339844 -6.07793e-18)
(12.1591 0.0327487 1.21279e-17)
(12.13 0.0314142 0)
(12.1017 0.0301227 1.20669e-17)
(12.0741 0.0288294 -2.4069e-17)
(12.0474 0.0276221 2.40018e-17)
(12.0215 0.0264502 -1.19663e-17)
(11.9965 0.0253778 0)
(11.9724 0.0243607 0)
(11.949 0.0234512 -1.18594e-17)
(11.9264 0.0226054 1.18253e-17)
(11.9044 0.0218492 0)
(11.8831 0.0211414 1.17634e-17)
(11.8625 0.0205146 -1.17363e-17)
(11.8425 0.0199403 -1.17112e-17)
(11.8231 0.0194353 1.16881e-17)
(11.8042 0.0189668 0)
(11.7857 0.0185376 1.16509e-17)
(11.7677 0.0181231 -2.32722e-17)
(11.7501 0.0177415 2.32458e-17)
(11.7328 0.0174008 -1.16104e-17)
(11.7159 0.0171449 -1.15977e-17)
(11.6993 0.0170141 1.15843e-17)
(11.6828 0.0170855 0)
(11.6665 0.0174282 1.15533e-17)
(11.6501 0.0181125 -1.15402e-17)
(11.6335 0.0192318 0)
(11.6165 0.0209166 0)
(11.5987 0.0232896 -1.15117e-17)
(11.5798 0.0264037 1.1502e-17)
(11.5593 0.0304523 0)
(11.5365 0.0356319 1.14775e-17)
(11.5106 0.0421112 -1.14614e-17)
(11.4808 0.0502388 -1.14431e-17)
(11.4458 0.0603539 1.14215e-17)
(11.4043 0.0729273 -1.1396e-17)
(11.3545 0.0886213 2.27332e-17)
(11.2944 0.108241 -1.13345e-17)
(11.2213 0.132805 1.1298e-17)
(11.1317 0.163559 -1.1255e-17)
(11.0216 0.202211 0)
(10.8856 0.25034 0)
(10.7169 0.309977 -1.10705e-17)
(10.5068 0.383095 2.19744e-17)
(10.2441 0.470586 -1.08925e-17)
(9.91349 0.569315 0)
(9.49494 0.677773 0)
(8.95549 0.798838 0)
(8.23152 0.955204 0)
(7.27031 1.08368 -9.88305e-18)
(12.9688 0.0126033 6.4915e-21)
(12.9747 0.0576393 1.20625e-20)
(13.0285 0.0828808 3.96527e-25)
(13.0704 0.093184 5.1037e-20)
(13.1109 0.0990048 -1.29332e-19)
(13.1455 0.101315 1.55722e-19)
(13.1746 0.102473 1.81248e-19)
(13.1988 0.103134 3.23346e-25)
(13.2189 0.102908 -4.60719e-19)
(13.2356 0.101415 0)
(13.249 0.0973286 -5.56096e-19)
(13.2582 0.0896535 1.20681e-18)
(13.2609 0.0798308 -6.50785e-19)
(13.2569 0.0712856 1.39622e-18)
(13.249 0.0663217 -2.98141e-18)
(13.24 0.0645432 3.16917e-18)
(13.2307 0.0640493 -1.67759e-18)
(13.2213 0.0637595 0)
(13.2112 0.0631331 0)
(13.1998 0.0622753 0)
(13.1869 0.0614128 -2.03101e-18)
(13.1728 0.0606397 -1.44151e-24)
(13.1576 0.0599819 2.19172e-18)
(13.1417 0.0594325 2.26775e-18)
(13.1251 0.0591226 -2.34021e-18)
(13.1078 0.0584258 0)
(13.0897 0.0580121 0)
(13.0711 0.0574324 5.06753e-18)
(13.0516 0.0568805 -5.17554e-18)
(13.0314 0.0563066 -5.27057e-18)
(13.0105 0.0557828 5.35001e-18)
(12.989 0.0549098 5.41518e-18)
(12.9667 0.0539898 -5.46703e-18)
(12.9436 0.0531194 0)
(12.9198 0.0522477 0)
(12.8954 0.0514621 0)
(12.8703 0.0506763 -5.61731e-18)
(12.8446 0.0498428 5.65042e-18)
(12.8184 0.0491464 0)
(12.7919 0.0483536 0)
(12.765 0.0475231 0)
(12.7377 0.0467126 -5.74941e-18)
(12.7101 0.0458941 2.4647e-25)
(12.6823 0.0451201 3.31101e-25)
(12.6544 0.0443368 5.78182e-18)
(12.6264 0.0435169 0)
(12.5982 0.0425276 5.7867e-18)
(12.5701 0.0415025 -8.86629e-25)
(12.542 0.0405483 -5.78062e-18)
(12.5142 0.0396155 0)
(12.4867 0.038457 0)
(12.4596 0.0371771 0)
(12.4328 0.0357738 -1.14701e-17)
(12.4065 0.0343821 1.14372e-17)
(12.3806 0.0329871 0)
(12.3554 0.0316643 1.13668e-17)
(12.3309 0.0303822 -1.13297e-17)
(12.307 0.0291934 0)
(12.2838 0.0280705 0)
(12.2613 0.0270539 -1.12157e-17)
(12.2393 0.0261091 1.11805e-17)
(12.218 0.02525 0)
(12.1973 0.0244433 1.1116e-17)
(12.1771 0.0237141 -2.68303e-24)
(12.1575 0.0230459 -2.21202e-17)
(12.1384 0.0224514 1.10352e-17)
(12.1199 0.0219038 -1.10138e-17)
(12.1018 0.0213997 1.09959e-17)
(12.0841 0.0209177 0)
(12.0669 0.0204688 0)
(12.0501 0.0200622 0)
(12.0336 0.0197367 0)
(12.0175 0.0195338 0)
(12.0015 0.0195264 -1.09204e-17)
(11.9857 0.0197854 2.1813e-17)
(11.9699 0.0203807 -1.08942e-17)
(11.9539 0.0214071 0)
(11.9376 0.022996 0)
(11.9207 0.0252331 -1.08631e-17)
(11.9028 0.028301 1.08514e-17)
(11.8835 0.0323094 0)
(11.8622 0.037454 0)
(11.8384 0.0439626 0)
(11.8111 0.0521155 -1.07872e-17)
(11.7795 0.0623001 1.07658e-17)
(11.7423 0.074999 -1.07408e-17)
(11.6981 0.0908343 2.14229e-17)
(11.6451 0.110525 -2.1356e-17)
(11.581 0.135054 1.06398e-17)
(11.503 0.165683 0)
(11.4078 0.204096 -1.05437e-17)
(11.2909 0.251966 1.04825e-17)
(11.1469 0.311319 0)
(10.9686 0.384385 1.03306e-17)
(10.7471 0.473184 -1.02374e-17)
(10.4705 0.576364 1.01356e-17)
(10.1227 0.693017 -1.00289e-17)
(9.67875 0.822701 0)
(9.09659 0.992244 0)
(8.29201 1.13898 0)
(12.9806 0.012262 0)
(12.9874 0.0531879 0)
(13.0377 0.0765636 0)
(13.0792 0.087227 0)
(13.1204 0.0936539 0)
(13.1562 0.0967096 0)
(13.1869 0.0985815 3.19256e-19)
(13.2128 0.0998831 -3.63521e-19)
(13.2348 0.100236 -4.07176e-19)
(13.2535 0.0992707 4.50552e-19)
(13.2688 0.0958454 0)
(13.2804 0.0891243 0)
(13.2861 0.080279 0)
(13.2857 0.0723543 1.24976e-18)
(13.2819 0.0675199 -2.67393e-18)
(13.2772 0.0656211 1.42332e-18)
(13.2726 0.0650732 1.50856e-18)
(13.2683 0.0648261 -3.18475e-18)
(13.2637 0.0643348 1.67459e-18)
(13.2583 0.06366 0)
(13.2519 0.0629634 -1.83289e-18)
(13.2446 0.0623276 1.9086e-18)
(13.2365 0.0617747 0)
(13.2278 0.061312 0)
(13.2185 0.0610763 -2.12178e-18)
(13.2086 0.0605136 2.18792e-18)
(13.198 0.060198 0)
(13.1868 0.0597453 4.62382e-18)
(13.1749 0.0593132 -4.73808e-18)
(13.162 0.0588479 -4.84393e-18)
(13.1485 0.0584393 4.93914e-18)
(13.1341 0.0577375 0)
(13.1187 0.0569737 0)
(13.1023 0.0562197 5.15025e-18)
(13.0849 0.0554548 5.05215e-25)
(13.0668 0.0547658 -1.05001e-17)
(13.0479 0.0540711 -2.97234e-25)
(13.0283 0.0533216 5.3401e-18)
(13.0081 0.0526907 0)
(12.9874 0.0519776 0)
(12.9661 0.051216 5.44102e-18)
(12.9443 0.0504586 -1.09295e-17)
(12.9221 0.0496927 2.15477e-25)
(12.8994 0.0489679 5.49745e-18)
(12.8764 0.0482152 0)
(12.853 0.0474277 0)
(12.8293 0.0464899 5.51696e-18)
(12.8053 0.0454988 -5.51729e-18)
(12.7811 0.0445565 0)
(12.757 0.0436252 -5.50801e-18)
(12.7328 0.0424926 -5.49896e-18)
(12.7088 0.0412172 1.09742e-17)
(12.6848 0.0398 0)
(12.661 0.0383614 0)
(12.6374 0.0369085 -1.08795e-17)
(12.6142 0.0355078 2.16879e-17)
(12.5914 0.0341457 -1.08069e-17)
(12.5691 0.0328674 0)
(12.5473 0.0316582 0)
(12.526 0.0305479 -1.06934e-17)
(12.5053 0.0295125 2.13178e-17)
(12.485 0.0285605 -1.06263e-17)
(12.4653 0.0276657 1.05957e-17)
(12.446 0.0268458 -1.05672e-17)
(12.4272 0.0260914 -1.05408e-17)
(12.4088 0.025411 1.05163e-17)
(12.391 0.0247821 0)
(12.3736 0.0241986 1.04758e-17)
(12.3566 0.0236441 -2.09191e-17)
(12.3401 0.0231247 2.08916e-17)
(12.3239 0.0226492 -1.04337e-17)
(12.3082 0.0222514 -1.04224e-17)
(12.2927 0.0219719 2.08223e-17)
(12.2775 0.0218783 -2.07984e-17)
(12.2624 0.0220418 2.07727e-17)
(12.2473 0.0225349 -1.03744e-17)
(12.2322 0.0234523 0)
(12.2168 0.0249114 0)
(12.2009 0.0270285 -1.03413e-17)
(12.1841 0.0300083 1.03284e-17)
(12.1661 0.0338925 0)
(12.1464 0.0389202 1.02983e-17)
(12.1244 0.045344 -1.02801e-17)
(12.0996 0.0534095 -1.02613e-17)
(12.0711 0.0635124 1.02403e-17)
(12.0378 0.0761356 -1.0216e-17)
(11.9985 0.0918581 1.01875e-17)
(11.9516 0.111365 0)
(11.8953 0.135591 1.01169e-17)
(11.8272 0.165735 -1.00735e-17)
(11.7445 0.203398 0)
(11.6436 0.25033 0)
(11.5198 0.308567 -9.8949e-18)
(11.3676 0.38035 1.96317e-17)
(11.1795 0.46831 -9.72467e-18)
(10.9463 0.572647 0)
(10.6553 0.693754 0)
(10.2872 0.828425 0)
(9.81469 1.00435 0)
(9.1559 1.17347 -8.69425e-18)
(12.9892 0.0118502 0)
(12.9966 0.0488108 0)
(13.0431 0.0704869 0)
(13.0833 0.0813088 0)
(13.1239 0.0882179 0)
(13.1599 0.0919574 0)
(13.1911 0.0945022 0)
(13.2179 0.0963981 0)
(13.2409 0.0973154 -3.64537e-19)
(13.2608 0.0968731 4.04194e-19)
(13.2775 0.0940783 0)
(13.2908 0.0882003 0)
(13.2989 0.0802381 0)
(13.3012 0.072944 0)
(13.3006 0.0682295 -1.21038e-18)
(13.2993 0.0661861 1.28962e-18)
(13.2981 0.065523 0)
(13.2975 0.065252 -1.44445e-18)
(13.297 0.0648384 1.51971e-18)
(13.296 0.0642834 0)
(13.2944 0.0637016 1.66511e-18)
(13.2922 0.0631652 -1.735e-18)
(13.2894 0.0626922 0)
(13.2861 0.0622985 0)
(13.2824 0.0621229 0)
(13.2782 0.0616783 0)
(13.2733 0.0614471 -4.1131e-18)
(13.268 0.0611035 4.23062e-18)
(13.2621 0.0607743 0)
(13.2553 0.0604153 -4.4529e-18)
(13.2479 0.0601244 9.11291e-18)