# Forces      
# CofR        : (0.000000e+00 0.000000e+00 0.000000e+00)
# Time        forces(pressure viscous porous)	moments(pressure viscous porous)
0.125         	((4.320145e-01 -1.389566e-04 1.844976e-23) (1.707182e-01 -5.493956e-07 -3.668301e-18) (0.000000e+00 0.000000e+00 0.000000e+00)) ((3.410618e-24 2.071091e-23 5.760398e-04) (-2.312828e-21 1.467504e-18 1.328555e-06) (0.000000e+00 0.000000e+00 0.000000e+00))
