# Forces      
# CofR        : (0.000000e+00 0.000000e+00 0.000000e+00)
# Time        forces(pressure viscous porous)	moments(pressure viscous porous)
0.05          	((6.009324e-01 -2.112296e-02 7.673186e-24) (1.735358e-01 2.313377e-05 -3.668333e-18) (0.000000e+00 0.000000e+00 0.000000e+00)) ((3.372365e-24 2.611289e-23 -6.881504e-03) (-2.310986e-21 1.467516e-18 1.259632e-05) (0.000000e+00 0.000000e+00 0.000000e+00))
