# Forces      
# CofR        : (0.000000e+00 0.000000e+00 0.000000e+00)
# Time        forces(pressure viscous porous)	moments(pressure viscous porous)
0.375         	((3.562209e-01 7.319015e-05 2.309770e-23) (1.672941e-01 4.232183e-08 -3.668296e-18) (0.000000e+00 0.000000e+00 0.000000e+00)) ((3.307516e-24 1.868166e-23 -8.225176e-06) (-2.312290e-21 1.467512e-18 -2.069928e-08) (0.000000e+00 0.000000e+00 0.000000e+00))
