# Forces      
# CofR        : (0.000000e+00 0.000000e+00 0.000000e+00)
# Time        forces(pressure viscous porous)	moments(pressure viscous porous)
0.25          	((3.558447e-01 -8.776778e-04 2.304455e-23) (1.672209e-01 -8.939198e-07 -3.668296e-18) (0.000000e+00 0.000000e+00 0.000000e+00)) ((3.300646e-24 1.861401e-23 1.558810e-04) (-2.312294e-21 1.467512e-18 6.085794e-07) (0.000000e+00 0.000000e+00 0.000000e+00))
