# Forces      
# CofR        : (-1.050000e-01 0.000000e+00 0.000000e+00)
# Time        forces(pressure viscous)	moments(pressure viscous)
800           	((9.519047e-01 6.390625e+01 -4.135303e-18) (2.825812e-01 2.186500e-02 1.473610e-18)) ((1.376465e-20 -2.886551e-19 -1.275591e+00) (1.281532e-22 2.501400e-21 2.429376e-03))
