# Forces      
# CofR        : (0.000000e+00 0.000000e+00 0.000000e+00)
# Time        forces(pressure viscous)	moments(pressure viscous)
0.005         	((6.788294e+00 3.161866e+01 -1.473595e-20) (1.644501e-01 -6.453327e-02 3.075657e-21)) ((4.457253e-22 4.187220e-21 4.879367e+00) (-1.131790e-23 -7.006869e-22 -2.390337e-02))
