/*--------------------------------*- C++ -*----------------------------------*\
  =========                 |
  \\      /  F ield         | OpenFOAM: The Open Source CFD Toolbox
   \\    /   O peration     | Website:  https://openfoam.org
    \\  /    A nd           | Version:  8
     \\/     M anipulation  |
\*---------------------------------------------------------------------------*/
FoamFile
{
    version     2.0;
    format      ascii;
    class       volScalarField;
    location    "0.09";
    object      p;
}
// * * * * * * * * * * * * * * * * * * * * * * * * * * * * * * * * * * * * * //

dimensions      [0 2 -2 0 0 0 0];

internalField   nonuniform List<scalar> 
112642
(
4.18202
4.15117
4.12049
4.08846
4.05334
4.01558
3.97581
3.93479
3.89293
3.8505
3.80763
3.7644
3.72085
3.677
3.63286
3.58843
3.54374
3.49879
3.45361
3.4082
3.36258
3.31676
3.27075
3.22456
3.17819
3.13169
3.08502
3.0382
2.99126
2.94419
2.89701
2.84971
2.80231
2.75482
2.70723
2.65956
2.61183
2.564
2.51613
2.4682
2.42022
2.37218
2.32408
2.27594
2.22776
2.17954
2.13128
2.08299
2.03466
1.9863
1.93791
1.88949
1.84104
1.79257
1.74407
1.69555
1.647
1.59845
1.54988
1.50129
1.4527
1.4041
1.35548
1.30686
1.25824
1.2096
1.16095
1.1123
1.06364
1.01496
0.966273
0.917564
0.868842
0.8201
0.771343
0.722572
0.673771
0.624965
0.576133
0.527282
0.4784
0.4295
0.380579
0.331639
0.28266
0.233646
0.184628
0.135561
0.0864678
0.0373387
-0.0118259
-0.0610138
-0.110248
-0.159524
-0.20884
-0.258189
-0.307587
-0.357037
-0.406529
-0.456071
-0.505665
-0.555314
-0.605017
-0.654784
-0.704605
-0.754481
-0.804431
-0.854445
-0.904524
-0.954663
-1.00488
-1.05518
-1.10554
-1.15599
-1.20651
-1.25713
-1.30783
-1.3586
-1.40947
-1.46043
-1.51149
-1.56263
-1.61386
-1.66517
-1.71658
-1.76808
-1.81966
-1.87134
-1.9231
-1.97497
-2.02692
-2.07897
-2.13112
-2.18338
-2.23574
-2.28821
-2.34079
-2.39348
-2.44629
-2.49921
-2.55223
-2.60537
-2.65863
-2.712
-2.7655
-2.81912
-2.87285
-2.9267
-2.98067
-3.03477
-3.08898
-3.14331
-3.19777
-3.25232
-3.30699
-3.36179
-3.4167
-3.47173
-3.52687
-3.58212
-3.63747
-3.69294
-3.74852
-3.80421
-3.85998
-3.91584
-3.9718
-4.02782
-4.08392
-4.14009
-4.19631
-4.25262
-4.30897
-4.36539
-4.42186
-4.47835
-4.53491
-4.59149
-4.6481
-4.70473
-4.76139
-4.81806
-4.87472
-4.93138
-4.98802
-5.04462
-5.10118
-5.15767
-5.21407
-5.27037
-5.3265
-5.38237
-5.43783
-5.49259
-5.54624
-5.59794
-5.64693
-5.6924
-5.7361
-5.77934
4.20031
4.1684
4.13716
4.10595
4.07223
4.03603
3.99746
3.95735
3.91611
3.87412
3.83158
3.78863
3.74533
3.70166
3.6577
3.61345
3.5689
3.52409
3.47902
3.4337
3.38817
3.3424
3.29645
3.2503
3.20396
3.15745
3.11078
3.06394
3.01696
2.96985
2.9226
2.87523
2.82773
2.78014
2.73244
2.68464
2.63676
2.58879
2.54074
2.49263
2.44445
2.39621
2.3479
2.29954
2.25112
2.20265
2.15414
2.10559
2.05699
2.00834
1.95966
1.91095
1.8622
1.81341
1.76459
1.71574
1.66687
1.61797
1.56905
1.52011
1.47115
1.42217
1.37317
1.32417
1.27514
1.2261
1.17705
1.12798
1.07889
1.02978
0.98066
0.931513
0.882351
0.833166
0.78396
0.734728
0.685477
0.636205
0.586909
0.537583
0.488233
0.438856
0.389454
0.340024
0.290562
0.241065
0.191546
0.141988
0.0923956
0.0427682
-0.00689389
-0.0565945
-0.106333
-0.156119
-0.205942
-0.255808
-0.305722
-0.355679
-0.405697
-0.455747
-0.505872
-0.556031
-0.606266
-0.656548
-0.706893
-0.757299
-0.80777
-0.858312
-0.908914
-0.959588
-1.01033
-1.06115
-1.11205
-1.16302
-1.21407
-1.2652
-1.31642
-1.36772
-1.41911
-1.47058
-1.52215
-1.5738
-1.62553
-1.67734
-1.72925
-1.78125
-1.83333
-1.8855
-1.93776
-1.99012
-2.04256
-2.09511
-2.14775
-2.20049
-2.25333
-2.30629
-2.35934
-2.4125
-2.46577
-2.51914
-2.57263
-2.62622
-2.67993
-2.73374
-2.78767
-2.84171
-2.89587
-2.95014
-3.00452
-3.059
-3.11361
-3.16833
-3.22315
-3.27808
-3.33311
-3.38825
-3.44351
-3.49888
-3.55434
-3.6099
-3.66557
-3.72133
-3.77719
-3.83314
-3.88917
-3.94528
-4.00146
-4.0577
-4.11401
-4.17038
-4.22681
-4.28327
-4.33978
-4.39636
-4.45295
-4.50957
-4.56622
-4.62289
-4.67957
-4.73627
-4.79295
-4.84965
-4.90632
-4.96295
-5.01956
-5.0761
-5.13257
-5.18897
-5.24521
-5.3013
-5.35716
-5.41264
-5.46753
-5.52142
-5.57393
-5.62406
-5.6716
-5.71616
-5.76042
-5.80469
4.22161
4.18787
4.1553
4.12468
4.0921
4.0574
4.02016
3.98105
3.94052
3.89907
3.8569
3.81425
3.77118
3.72775
3.68398
3.6399
3.5955
3.55084
3.50589
3.46069
3.41523
3.36955
3.32363
3.27752
3.2312
3.18471
3.13801
3.09115
3.04413
2.99696
2.94964
2.90219
2.8546
2.8069
2.75906
2.71113
2.66309
2.61496
2.56674
2.51843
2.47004
2.42159
2.37306
2.32446
2.2758
2.22706
2.17829
2.12945
2.08057
2.03162
1.98264
1.9336
1.88453
1.83541
1.78626
1.73707
1.68785
1.63858
1.5893
1.53998
1.49064
1.44126
1.39187
1.34244
1.293
1.24354
1.19405
1.14454
1.09501
1.04545
0.995867
0.946271
0.896639
0.846981
0.797299
0.747595
0.697859
0.648098
0.59831
0.548491
0.498641
0.448756
0.398855
0.348911
0.298939
0.248921
0.198884
0.148807
0.0986847
0.0485382
-0.00166364
-0.0518909
-0.10217
-0.152488
-0.202849
-0.253255
-0.303713
-0.354217
-0.404778
-0.455378
-0.506047
-0.556759
-0.607542
-0.658378
-0.709279
-0.760238
-0.811263
-0.862355
-0.913519
-0.964743
-1.01605
-1.06742
-1.11888
-1.1704
-1.222
-1.2737
-1.32547
-1.37732
-1.42924
-1.48127
-1.53337
-1.58555
-1.63782
-1.69017
-1.74261
-1.79513
-1.84774
-1.90044
-1.95323
-2.0061
-2.05907
-2.11214
-2.16529
-2.21855
-2.27191
-2.32536
-2.37892
-2.43258
-2.48633
-2.5402
-2.59416
-2.64824
-2.70241
-2.7567
-2.81109
-2.86557
-2.92018
-2.97489
-3.02969
-3.08462
-3.13963
-3.19476
-3.24998
-3.3053
-3.36072
-3.41625
-3.47186
-3.52759
-3.58339
-3.63929
-3.69528
-3.75136
-3.80752
-3.86376
-3.92006
-3.97643
-4.03288
-4.08936
-4.1459
-4.20248
-4.25911
-4.31577
-4.37247
-4.4292
-4.48595
-4.54269
-4.59947
-4.65623
-4.71302
-4.76977
-4.82653
-4.88323
-4.93992
-4.99655
-5.05313
-5.10963
-5.16602
-5.22229
-5.27841
-5.33428
-5.38985
-5.44486
-5.4991
-5.55205
-5.60323
-5.65182
-5.69813
-5.74187
-5.7876
-5.8338
4.24523
4.20899
4.1748
4.14404
4.11228
4.07897
4.04306
4.00509
3.96541
3.92457
3.88287
3.84057
3.79778
3.7546
3.71104
3.66715
3.62294
3.57842
3.53361
3.48852
3.44318
3.39756
3.35171
3.30564
3.25936
3.21287
3.16618
3.11929
3.07223
3.025
2.97762
2.93008
2.8824
2.83457
2.78662
2.73856
2.69037
2.64207
2.59367
2.54517
2.49658
2.44791
2.39915
2.35031
2.30139
2.2524
2.20334
2.15423
2.10505
2.0558
2.0065
1.95714
1.90773
1.85828
1.80879
1.75923
1.70963
1.66001
1.61033
1.56062
1.51088
1.46109
1.41128
1.36144
1.31156
1.26166
1.21172
1.16177
1.11177
1.06176
1.01171
0.961626
0.911518
0.861371
0.811195
0.761001
0.71076
0.66049
0.610197
0.559855
0.509493
0.459088
0.408658
0.35818
0.307674
0.257125
0.206545
0.155922
0.105261
0.0545556
0.00380668
-0.046976
-0.0978101
-0.148686
-0.199613
-0.250583
-0.301606
-0.352676
-0.4038
-0.454976
-0.506214
-0.557504
-0.608855
-0.660267
-0.711743
-0.76328
-0.814887
-0.866556
-0.918297
-0.970101
-1.02199
-1.07394
-1.12597
-1.17808
-1.23026
-1.28252
-1.33486
-1.38729
-1.43978
-1.49237
-1.54503
-1.59779
-1.65061
-1.70352
-1.75652
-1.80959
-1.86275
-1.91601
-1.96934
-2.02276
-2.07627
-2.12987
-2.18357
-2.23736
-2.29125
-2.34522
-2.39931
-2.45347
-2.50774
-2.56211
-2.61658
-2.67114
-2.72581
-2.78057
-2.83544
-2.89041
-2.94546
-3.00061
-3.05588
-3.11124
-3.16669
-3.22224
-3.27788
-3.33359
-3.38941
-3.44532
-3.50133
-3.55741
-3.61358
-3.66982
-3.72615
-3.78256
-3.83903
-3.89556
-3.95216
-4.00879
-4.06549
-4.12224
-4.17901
-4.23581
-4.29265
-4.34951
-4.40639
-4.46329
-4.52019
-4.57708
-4.63396
-4.69084
-4.7477
-4.80455
-4.86134
-4.91809
-4.97478
-5.03141
-5.08795
-5.14438
-5.2007
-5.25684
-5.31278
-5.36841
-5.42359
-5.47806
-5.53153
-5.58338
-5.63322
-5.68029
-5.72563
-5.76931
-5.81677
-5.86574
4.26934
4.23096
4.19504
4.16323
4.13179
4.09954
4.06498
4.02827
3.98958
3.9495
3.90837
3.86649
3.82404
3.78113
3.73783
3.69415
3.65014
3.60579
3.56114
3.51618
3.47095
3.42544
3.37968
3.33367
3.28743
3.24096
3.19427
3.14739
3.10031
3.05305
3.00561
2.95801
2.91024
2.86232
2.81426
2.76607
2.71774
2.66929
2.62072
2.57204
2.52326
2.47437
2.42539
2.37633
2.32717
2.27793
2.22861
2.17921
2.12974
2.0802
2.03059
1.98092
1.93118
1.88139
1.83154
1.78164
1.73168
1.68167
1.63162
1.58151
1.53137
1.48119
1.43096
1.38069
1.33038
1.28005
1.22966
1.17924
1.1288
1.07831
1.02778
0.977223
0.926631
0.875993
0.825328
0.77462
0.723883
0.673099
0.622283
0.571431
0.520543
0.469604
0.418637
0.367627
0.316582
0.265486
0.214357
0.163181
0.111967
0.0607032
0.00939615
-0.041953
-0.0933512
-0.1448
-0.196293
-0.247839
-0.299433
-0.351084
-0.402786
-0.454541
-0.506358
-0.558231
-0.610167
-0.662167
-0.714226
-0.766353
-0.818543
-0.870805
-0.923133
-0.975528
-1.028
-1.08054
-1.13316
-1.18585
-1.23862
-1.29147
-1.34439
-1.39739
-1.45047
-1.50364
-1.55687
-1.61019
-1.66359
-1.71707
-1.77062
-1.82427
-1.87799
-1.9318
-1.98568
-2.03966
-2.09372
-2.14787
-2.2021
-2.25643
-2.31085
-2.36535
-2.41995
-2.47464
-2.52943
-2.5843
-2.63926
-2.69432
-2.74948
-2.80472
-2.86006
-2.9155
-2.97102
-3.02663
-3.08234
-3.13812
-3.19401
-3.24997
-3.30602
-3.36215
-3.41835
-3.47465
-3.53103
-3.58746
-3.64398
-3.70057
-3.75722
-3.81394
-3.87071
-3.92754
-3.9844
-4.04131
-4.09824
-4.15521
-4.21222
-4.26923
-4.32626
-4.3833
-4.44034
-4.49739
-4.55442
-4.61145
-4.66844
-4.7254
-4.78232
-4.83921
-4.89603
-4.95281
-5.00949
-5.06609
-5.12257
-5.17892
-5.23511
-5.29109
-5.34679
-5.40208
-5.45678
-5.51057
-5.5631
-5.6137
-5.66215
-5.70805
-5.7529
-5.79754
-5.84683
-5.89819
4.29373
4.2537
4.21604
4.18266
4.15095
4.11935
4.08599
4.05056
4.013
3.97383
3.93336
3.892
3.84994
3.80737
3.76433
3.7209
3.6771
3.63294
3.58846
3.54368
3.49857
3.45317
3.40751
3.36158
3.31541
3.26898
3.22232
3.17545
3.12838
3.0811
3.03362
2.98596
2.93813
2.89013
2.84198
2.79367
2.74522
2.69662
2.6479
2.59905
2.55009
2.50101
2.45182
2.40253
2.35314
2.30365
2.25407
2.2044
2.15465
2.10483
2.05492
2.00494
1.95487
1.90475
1.85455
1.8043
1.75398
1.7036
1.65317
1.60268
1.55214
1.50154
1.4509
1.40021
1.34947
1.29869
1.24786
1.19699
1.14607
1.09512
1.04412
0.993068
0.941986
0.890865
0.839687
0.788483
0.737223
0.685932
0.63459
0.583212
0.531786
0.480319
0.42881
0.377258
0.325659
0.27401
0.222329
0.17059
0.118813
0.0669819
0.0151084
-0.0368195
-0.0887884
-0.140818
-0.192888
-0.245019
-0.297197
-0.349428
-0.401722
-0.454065
-0.506473
-0.558937
-0.611472
-0.664061
-0.716717
-0.769443
-0.822227
-0.87509
-0.928012
-0.981012
-1.03408
-1.08722
-1.14043
-1.19372
-1.24708
-1.30053
-1.35404
-1.40763
-1.4613
-1.51504
-1.56887
-1.62276
-1.67674
-1.73079
-1.78493
-1.83913
-1.89343
-1.94779
-2.00223
-2.05677
-2.11139
-2.16608
-2.22086
-2.27573
-2.33068
-2.38572
-2.44085
-2.49605
-2.55135
-2.60674
-2.6622
-2.71777
-2.7734
-2.82913
-2.88495
-2.94085
-2.99683
-3.0529
-3.10905
-3.16527
-3.22158
-3.27794
-3.33439
-3.39093
-3.44752
-3.5042
-3.56093
-3.61772
-3.67459
-3.73151
-3.78847
-3.84549
-3.90255
-3.95965
-4.01678
-4.07394
-4.13111
-4.1883
-4.2455
-4.30272
-4.35993
-4.41712
-4.47431
-4.53148
-4.58863
-4.64575
-4.70283
-4.75986
-4.81683
-4.87376
-4.9306
-4.98734
-5.04399
-5.10054
-5.15694
-5.21316
-5.2692
-5.32494
-5.38034
-5.43521
-5.48932
-5.54225
-5.5937
-5.64301
-5.6902
-5.73529
-5.78027
-5.82649
-5.87765
-5.93089
4.31849
4.27723
4.23814
4.20294
4.17038
4.13893
4.10649
4.07227
4.03592
3.99775
3.95809
3.91733
3.87575
3.83354
3.79082
3.74767
3.7041
3.66017
3.61588
3.57125
3.5263
3.48105
3.43549
3.38967
3.34356
3.2972
3.25059
3.20374
3.15668
3.10939
3.06188
3.0142
2.96631
2.91824
2.87
2.82159
2.77302
2.72429
2.67543
2.62643
2.57728
2.52802
2.47862
2.42912
2.3795
2.32977
2.27993
2.23001
2.17998
2.12986
2.07965
2.02936
1.97898
1.92852
1.87798
1.82738
1.7767
1.72595
1.67514
1.62426
1.57331
1.52231
1.47125
1.42014
1.36895
1.31773
1.26645
1.21511
1.16373
1.1123
1.06081
1.00928
0.957696
0.906072
0.854391
0.802666
0.750886
0.699069
0.647197
0.595278
0.543317
0.491302
0.439236
0.387127
0.334969
0.282761
0.230507
0.178196
0.125843
0.0734348
0.0209795
-0.0315332
-0.0840946
-0.136704
-0.189381
-0.242092
-0.294878
-0.347706
-0.400601
-0.453546
-0.50656
-0.55963
-0.612771
-0.665968
-0.719243
-0.772566
-0.825975
-0.879439
-0.932977
-0.986589
-1.04027
-1.09402
-1.14784
-1.20174
-1.25571
-1.30976
-1.36388
-1.41807
-1.47234
-1.52669
-1.5811
-1.63559
-1.69016
-1.74479
-1.79951
-1.8543
-1.90917
-1.9641
-2.01913
-2.07422
-2.1294
-2.18466
-2.24
-2.29541
-2.35091
-2.40648
-2.46215
-2.51788
-2.5737
-2.6296
-2.68558
-2.74164
-2.79778
-2.85399
-2.91029
-2.96665
-3.02309
-3.07962
-3.13621
-3.19286
-3.24959
-3.30639
-3.36324
-3.42016
-3.47715
-3.53419
-3.59128
-3.64843
-3.70563
-3.76287
-3.82016
-3.87747
-3.93481
-3.99219
-4.04957
-4.10696
-4.16436
-4.22177
-4.27917
-4.33655
-4.39393
-4.45128
-4.5086
-4.56589
-4.62314
-4.68034
-4.7375
-4.79456
-4.85158
-4.90851
-4.96534
-5.02206
-5.07867
-5.13511
-5.19139
-5.24747
-5.30328
-5.35877
-5.41377
-5.46811
-5.52148
-5.57347
-5.62373
-5.6718
-5.71797
-5.76276
-5.80851
-5.85661
-5.90928
-5.96396
4.3435
4.30159
4.26124
4.22428
4.19046
4.15863
4.12669
4.09352
4.05835
4.02127
3.98252
3.94249
3.90147
3.8597
3.81734
3.77449
3.7312
3.68749
3.64342
3.59898
3.55421
3.50908
3.46368
3.41796
3.37195
3.32566
3.27911
3.23231
3.18526
3.13799
3.09048
3.04276
2.99483
2.94671
2.89839
2.84989
2.80122
2.75237
2.70337
2.6542
2.6049
2.55545
2.50587
2.45615
2.40632
2.35635
2.30627
2.25608
2.20578
2.15537
2.10486
2.05425
2.00356
1.95277
1.9019
1.85094
1.7999
1.74878
1.69757
1.6463
1.59495
1.54354
1.49205
1.4405
1.38889
1.33721
1.28547
1.23367
1.18181
1.12989
1.07792
1.02589
0.9738
0.92166
0.869461
0.817211
0.764907
0.712548
0.660135
0.607666
0.555146
0.502577
0.449945
0.39727
0.344542
0.291753
0.238916
0.186021
0.133084
0.0800752
0.0270283
-0.0260829
-0.0792463
-0.132465
-0.185744
-0.239072
-0.292464
-0.345912
-0.39942
-0.452984
-0.506617
-0.56031
-0.614072
-0.667899
-0.721793
-0.775748
-0.829779
-0.883875
-0.93804
-0.992279
-1.04658
-1.10097
-1.15541
-1.20993
-1.26453
-1.3192
-1.37393
-1.42874
-1.48363
-1.53858
-1.59361
-1.6487
-1.70387
-1.75911
-1.81442
-1.8698
-1.92526
-1.98079
-2.03639
-2.09207
-2.14782
-2.20365
-2.25955
-2.31552
-2.37158
-2.4277
-2.4839
-2.54018
-2.59653
-2.65295
-2.70944
-2.766
-2.82265
-2.87936
-2.93613
-2.99297
-3.04988
-3.10686
-3.16388
-3.22098
-3.27814
-3.33536
-3.39261
-3.44993
-3.5073
-3.56471
-3.62216
-3.67966
-3.73719
-3.79476
-3.85234
-3.90995
-3.96758
-4.02521
-4.08284
-4.14047
-4.19809
-4.2557
-4.31328
-4.37085
-4.42837
-4.48586
-4.5433
-4.6007
-4.65803
-4.71531
-4.7725
-4.82962
-4.88663
-4.94356
-5.00036
-5.05703
-5.11354
-5.1699
-5.22603
-5.2819
-5.33747
-5.3926
-5.44713
-5.50081
-5.55333
-5.60427
-5.65334
-5.7003
-5.74586
-5.79091
-5.83785
-5.8878
-5.94184
-5.99729
4.36885
4.32655
4.28513
4.24659
4.21126
4.17861
4.14675
4.11431
4.08023
4.04428
4.00653
3.96732
3.92694
3.88569
3.84376
3.80125
3.75825
3.71481
3.67097
3.62675
3.58215
3.53723
3.49196
3.44637
3.40048
3.35428
3.30781
3.26107
3.21407
3.16681
3.11931
3.07158
3.02362
2.97545
2.92707
2.87849
2.82973
2.78078
2.73164
2.68234
2.63287
2.58326
2.53349
2.48357
2.43352
2.38333
2.333
2.28256
2.23199
2.1813
2.1305
2.0796
2.02858
1.97747
1.92624
1.87493
1.82352
1.77203
1.72044
1.66878
1.61703
1.56519
1.51328
1.4613
1.40924
1.35711
1.3049
1.25263
1.20028
1.14788
1.09541
1.04287
0.990275
0.937607
0.884888
0.832101
0.779259
0.726353
0.67338
0.620362
0.567269
0.514136
0.460933
0.407672
0.354362
0.300981
0.247551
0.194062
0.140514
0.0869094
0.0332475
-0.0204795
-0.0742551
-0.128099
-0.181992
-0.235951
-0.289968
-0.34404
-0.398183
-0.45238
-0.506646
-0.560976
-0.61538
-0.669841
-0.724375
-0.778978
-0.833642
-0.888387
-0.94319
-0.998074
-1.05302
-1.10804
-1.16313
-1.21829
-1.27352
-1.32883
-1.3842
-1.43964
-1.49515
-1.55072
-1.60638
-1.66208
-1.71787
-1.77373
-1.82964
-1.88563
-1.94169
-1.99782
-2.05401
-2.11028
-2.16662
-2.22302
-2.2795
-2.33605
-2.39266
-2.44934
-2.5061
-2.56291
-2.61979
-2.67675
-2.73376
-2.79084
-2.84798
-2.90518
-2.96245
-3.01976
-3.07715
-3.13457
-3.19206
-3.24958
-3.30717
-3.36479
-3.42247
-3.48017
-3.53792
-3.5957
-3.65351
-3.71134
-3.76921
-3.82707
-3.88497
-3.94286
-4.00076
-4.05865
-4.11651
-4.17437
-4.2322
-4.29
-4.34777
-4.40549
-4.46315
-4.52078
-4.57832
-4.63581
-4.69321
-4.75055
-4.80777
-4.8649
-4.92192
-4.97879
-5.03556
-5.09213
-5.14855
-5.20475
-5.2607
-5.31635
-5.37157
-5.42627
-5.48024
-5.53316
-5.58473
-5.63458
-5.68253
-5.72867
-5.77401
-5.81977
-5.86822
-5.91984
-5.97511
-6.03108
4.39428
4.35186
4.30975
4.2698
4.23295
4.19908
4.16686
4.1348
4.10161
4.06673
4.03004
3.99173
3.95211
3.91146
3.87
3.82789
3.78524
3.74209
3.69852
3.65453
3.61016
3.56542
3.52033
3.47489
3.42913
3.38305
3.33667
3.29
3.24306
3.19584
3.14836
3.10063
3.05266
3.00446
2.95603
2.90738
2.85854
2.80949
2.76024
2.71081
2.6612
2.61143
2.56147
2.51137
2.46112
2.41069
2.36014
2.30944
2.25861
2.20764
2.15656
2.10535
2.05402
2.00258
1.95101
1.89935
1.84758
1.79572
1.74375
1.69168
1.63953
1.58728
1.53494
1.48251
1.43001
1.37741
1.32474
1.272
1.21916
1.16626
1.11329
1.06024
1.00711
0.953928
0.900668
0.847347
0.793949
0.740481
0.686956
0.633361
0.579705
0.52598
0.472196
0.418339
0.364432
0.310454
0.256414
0.202314
0.14815
0.0939271
0.0396421
-0.0147098
-0.0691215
-0.123589
-0.178126
-0.232723
-0.287376
-0.342102
-0.39688
-0.45173
-0.506645
-0.561631
-0.616678
-0.671804
-0.726988
-0.782246
-0.837576
-0.892968
-0.948436
-1.00397
-1.05958
-1.11525
-1.171
-1.22681
-1.2827
-1.33865
-1.39466
-1.45075
-1.5069
-1.56312
-1.6194
-1.67575
-1.73216
-1.78864
-1.84518
-1.90178
-1.95846
-2.01519
-2.072
-2.12887
-2.18579
-2.24279
-2.29986
-2.35697
-2.41416
-2.47141
-2.52871
-2.58608
-2.6435
-2.70099
-2.75853
-2.81613
-2.87378
-2.93147
-2.98923
-3.04702
-3.10488
-3.16277
-3.2207
-3.27867
-3.33666
-3.39471
-3.45278
-3.51088
-3.56899
-3.62715
-3.6853
-3.74347
-3.80166
-3.85983
-3.91802
-3.97619
-4.03435
-4.09248
-4.15058
-4.20866
-4.26668
-4.32466
-4.38259
-4.44046
-4.49827
-4.55599
-4.61364
-4.6712
-4.72866
-4.78602
-4.84327
-4.90039
-4.95738
-5.01421
-5.07088
-5.12736
-5.18363
-5.23966
-5.29536
-5.35071
-5.40555
-5.45972
-5.513
-5.56509
-5.61565
-5.6644
-5.71142
-5.75707
-5.80263
-5.84954
-5.89955
-5.95269
-6.00883
-6.0651
4.41958
4.37731
4.33492
4.29389
4.25548
4.22026
4.18727
4.1552
4.12262
4.08871
4.05304
4.01572
3.97694
3.93697
3.89607
3.85441
3.81214
3.76934
3.72606
3.68233
3.6382
3.59367
3.54877
3.5035
3.4579
3.41195
3.36568
3.3191
3.27223
3.22507
3.17762
3.12992
3.08194
3.03373
2.98527
2.93657
2.88764
2.83851
2.78917
2.73962
2.68988
2.63994
2.58983
2.53955
2.48909
2.43846
2.38768
2.33674
2.28565
2.23441
2.18304
2.13153
2.07989
2.02812
1.97624
1.92422
1.87209
1.81985
1.7675
1.71503
1.66247
1.6098
1.55703
1.50417
1.4512
1.39815
1.34501
1.29177
1.23846
1.18505
1.13156
1.078
1.02435
0.970624
0.916827
0.862943
0.808988
0.754962
0.700861
0.646687
0.592443
0.538127
0.483739
0.429289
0.374764
0.320173
0.265518
0.210784
0.156001
0.101139
0.046214
-0.00877551
-0.0638294
-0.118951
-0.174133
-0.229383
-0.284701
-0.340077
-0.39552
-0.451033
-0.506613
-0.562266
-0.617987
-0.673774
-0.729638
-0.785569
-0.841566
-0.897637
-0.953775
-1.00998
-1.06626
-1.12261
-1.17902
-1.23551
-1.29206
-1.34867
-1.40535
-1.46209
-1.5189
-1.57577
-1.6327
-1.6897
-1.74675
-1.80386
-1.86104
-1.91828
-1.97557
-2.03293
-2.09035
-2.14782
-2.20536
-2.26296
-2.32061
-2.37832
-2.43608
-2.4939
-2.55178
-2.6097
-2.66767
-2.7257
-2.78377
-2.84189
-2.90005
-2.95825
-3.01649
-3.07478
-3.13309
-3.19144
-3.24982
-3.30822
-3.36665
-3.42511
-3.48357
-3.54205
-3.60055
-3.65905
-3.71756
-3.77605
-3.83454
-3.89304
-3.95149
-4.00993
-4.06833
-4.1267
-4.18503
-4.24332
-4.30153
-4.35967
-4.41776
-4.47576
-4.53368
-4.5915
-4.64923
-4.70685
-4.76435
-4.82174
-4.87897
-4.93607
-4.99301
-5.04977
-5.10632
-5.16268
-5.21877
-5.27457
-5.33
-5.38497
-5.43934
-5.49291
-5.54542
-5.59656
-5.64612
-5.69389
-5.74021
-5.78574
-5.83198
-5.88017
-5.93183
-5.98619
-6.04282
-6.09919
4.4444
4.40277
4.36048
4.31868
4.27897
4.24227
4.20821
4.17575
4.14345
4.11029
4.07562
4.03929
4.0014
3.9622
3.92193
3.8808
3.83897
3.79654
3.75358
3.71016
3.66628
3.622
3.5773
3.53223
3.48679
3.441
3.39486
3.34839
3.30161
3.25452
3.20713
3.15945
3.1115
3.06328
3.0148
2.96606
2.91709
2.86788
2.81845
2.7688
2.71893
2.66886
2.61859
2.56813
2.51748
2.46664
2.41564
2.36447
2.31313
2.26163
2.20998
2.15818
2.10622
2.05414
2.00192
1.94955
1.89707
1.84445
1.79171
1.73886
1.68588
1.63279
1.57959
1.52628
1.47286
1.41934
1.36572
1.312
1.25819
1.20427
1.15027
1.09617
1.042
0.987727
0.933366
0.878932
0.824406
0.769802
0.715117
0.660355
0.60551
0.550585
0.495593
0.44052
0.385379
0.330154
0.274865
0.219501
0.164063
0.108559
0.0529821
-0.00266433
-0.0583765
-0.114166
-0.170009
-0.225934
-0.281919
-0.337974
-0.394095
-0.450287
-0.506549
-0.562886
-0.619292
-0.675771
-0.732319
-0.788943
-0.845624
-0.90239
-0.959216
-1.01611
-1.07308
-1.13011
-1.18722
-1.24438
-1.30161
-1.35891
-1.41627
-1.47369
-1.53116
-1.5887
-1.6463
-1.70395
-1.76166
-1.81943
-1.87725
-1.93513
-1.99307
-2.05106
-2.1091
-2.1672
-2.22535
-2.28356
-2.34181
-2.40011
-2.45846
-2.51686
-2.57531
-2.6338
-2.69233
-2.75089
-2.8095
-2.86814
-2.92682
-2.98553
-3.04426
-3.10304
-3.16182
-3.22062
-3.27946
-3.33829
-3.39715
-3.456
-3.51487
-3.57373
-3.63259
-3.69146
-3.7503
-3.80912
-3.86792
-3.9267
-3.98544
-4.04413
-4.10278
-4.16136
-4.2199
-4.27837
-4.33676
-4.39507
-4.45329
-4.51141
-4.56943
-4.62734
-4.68512
-4.74279
-4.80032
-4.85769
-4.91491
-4.97196
-5.02883
-5.08549
-5.14192
-5.19809
-5.25398
-5.30951
-5.3646
-5.41913
-5.47295
-5.52582
-5.5775
-5.62769
-5.67625
-5.72321
-5.76914
-5.81493
-5.86215
-5.91182
-5.96491
-6.02022
-6.07701
-6.13299
4.46866
4.42799
4.38615
4.34398
4.30328
4.26515
4.22984
4.19664
4.16428
4.13163
4.09779
4.06242
4.02547
3.98711
3.94755
3.90701
3.86567
3.82366
3.78107
3.73797
3.69439
3.65036
3.6059
3.56105
3.5158
3.47017
3.42418
3.37784
3.33117
3.28417
3.23685
3.18923
3.14131
3.0931
3.04461
2.99586
2.94685
2.89758
2.84807
2.79832
2.74835
2.69814
2.64773
2.59711
2.54627
2.49524
2.44403
2.39262
2.34105
2.28929
2.23737
2.18527
2.13303
2.08062
2.02807
1.97536
1.92251
1.86952
1.81641
1.76315
1.70976
1.65625
1.60261
1.54885
1.49498
1.44099
1.38689
1.33267
1.27836
1.22394
1.1694
1.11478
1.06005
1.00523
0.950313
0.895303
0.840197
0.78501
0.729729
0.674358
0.61891
0.563371
0.507756
0.452049
0.396269
0.34041
0.284467
0.228453
0.172362
0.116186
0.0599517
0.00362345
-0.0527599
-0.109227
-0.16576
-0.22237
-0.27904
-0.335791
-0.392602
-0.449492
-0.506453
-0.563492
-0.620598
-0.677787
-0.735035
-0.792365
-0.849759
-0.90723
-0.964758
-1.02237
-1.08004
-1.13778
-1.19558
-1.25345
-1.31138
-1.36937
-1.42741
-1.48553
-1.54369
-1.60191
-1.66018
-1.71851
-1.77689
-1.83532
-1.89381
-1.95235
-2.01093
-2.06957
-2.12826
-2.18699
-2.24577
-2.30459
-2.36345
-2.42236
-2.48131
-2.5403
-2.59931
-2.65837
-2.71747
-2.77658
-2.83573
-2.89491
-2.9541
-3.01331
-3.07255
-3.1318
-3.19106
-3.25033
-3.3096
-3.36888
-3.42815
-3.48742
-3.54667
-3.60592
-3.66514
-3.72435
-3.78353
-3.84267
-3.90176
-3.96082
-4.01982
-4.07877
-4.13765
-4.19645
-4.25517
-4.31381
-4.37237
-4.43082
-4.48917
-4.54739
-4.60549
-4.66347
-4.7213
-4.77899
-4.83652
-4.89388
-4.95105
-5.00803
-5.0648
-5.12134
-5.1776
-5.23357
-5.2892
-5.34441
-5.39911
-5.45314
-5.50631
-5.55842
-5.60919
-5.65844
-5.70614
-5.75252
-5.79839
-5.8448
-5.89322
-5.94438
-5.99861
-6.05451
-6.11115
-6.16651
4.4922
4.45267
4.41168
4.36961
4.32826
4.28892
4.25224
4.21806
4.18531
4.15285
4.11966
4.08517
4.04915
4.01168
3.97288
3.93301
3.89222
3.85069
3.80851
3.76576
3.7225
3.67876
3.63457
3.58994
3.5449
3.49947
3.45365
3.40746
3.36091
3.31403
3.2668
3.21923
3.17137
3.12318
3.07472
3.02596
2.97692
2.92761
2.87803
2.82821
2.77813
2.72781
2.67727
2.62649
2.57549
2.52427
2.47285
2.42123
2.36942
2.31741
2.26522
2.21284
2.1603
2.10758
2.05469
2.00165
1.94845
1.89509
1.84159
1.78793
1.73414
1.6802
1.62612
1.57192
1.51758
1.46312
1.40853
1.35382
1.29899
1.24405
1.18899
1.13382
1.07854
1.02315
0.967667
0.912076
0.856388
0.8006
0.744709
0.688734
0.632662
0.576489
0.520239
0.463887
0.407463
0.350942
0.294338
0.237659
0.180886
0.124042
0.0671145
0.0101051
-0.0469765
-0.104134
-0.161372
-0.218678
-0.276059
-0.333512
-0.39104
-0.448645
-0.506321
-0.56408
-0.621913
-0.679817
-0.737794
-0.795841
-0.853966
-0.912156
-0.970415
-1.02875
-1.08714
-1.1456
-1.20413
-1.26271
-1.32135
-1.38006
-1.43881
-1.49763
-1.55649
-1.61541
-1.67438
-1.73339
-1.79246
-1.85158
-1.91073
-1.96994
-2.02919
-2.08849
-2.14782
-2.2072
-2.26662
-2.32607
-2.38556
-2.44508
-2.50463
-2.56422
-2.62383
-2.68345
-2.74311
-2.80279
-2.86248
-2.92219
-2.98191
-3.04164
-3.10137
-3.1611
-3.22084
-3.28057
-3.34028
-3.39999
-3.45968
-3.51936
-3.579
-3.63862
-3.6982
-3.75775
-3.81725
-3.8767
-3.93609
-3.99542
-4.05468
-4.11385
-4.17296
-4.23196
-4.29087
-4.34967
-4.40836
-4.46695
-4.52539
-4.58372
-4.64189
-4.6999
-4.75776
-4.81545
-4.87296
-4.93028
-4.98739
-5.04428
-5.10092
-5.15729
-5.21337
-5.2691
-5.32443
-5.37926
-5.43348
-5.48693
-5.53942
-5.59069
-5.64058
-5.68894
-5.73594
-5.78202
-5.82816
-5.87545
-5.92523
-5.9777
-6.03279
-6.08884
-6.145
-6.19964
4.51471
4.47673
4.43692
4.39531
4.35371
4.31338
4.27548
4.24014
4.2067
4.17413
4.14134
4.10759
4.07245
4.03586
3.9979
3.95873
3.91857
3.87756
3.83585
3.7935
3.75058
3.70715
3.66325
3.61888
3.57408
3.52886
3.48323
3.43721
3.39082
3.34406
3.29693
3.24947
3.20166
3.15353
3.10509
3.05634
3.00729
2.95795
2.90833
2.85844
2.80827
2.75786
2.70718
2.65627
2.6051
2.55372
2.5021
2.45028
2.39824
2.34598
2.29353
2.24088
2.18803
2.13501
2.08181
2.02842
1.97487
1.92114
1.86726
1.81321
1.759
1.70464
1.65013
1.59547
1.54066
1.48573
1.43064
1.37543
1.32008
1.26462
1.20903
1.1533
1.09747
1.04151
0.985443
0.929271
0.872973
0.816584
0.760074
0.703473
0.646759
0.589952
0.533047
0.476053
0.418948
0.361765
0.304481
0.247119
0.189657
0.132118
0.0744909
0.0167783
-0.0410119
-0.0988873
-0.156834
-0.214861
-0.272971
-0.331156
-0.389403
-0.447746
-0.506156
-0.564657
-0.623219
-0.681869
-0.740593
-0.799385
-0.858244
-0.917182
-0.976183
-1.03526
-1.09439
-1.15359
-1.21285
-1.27217
-1.33155
-1.39097
-1.45047
-1.51
-1.56958
-1.62921
-1.68889
-1.74861
-1.80839
-1.86819
-1.92804
-1.98792
-2.04786
-2.10782
-2.16782
-2.22786
-2.28792
-2.34801
-2.40813
-2.46828
-2.52845
-2.58862
-2.64883
-2.70905
-2.76928
-2.82951
-2.88976
-2.95001
-3.01024
-3.07049
-3.13072
-3.19094
-3.25115
-3.31133
-3.37151
-3.43164
-3.49174
-3.55182
-3.61185
-3.67183
-3.73176
-3.79164
-3.85147
-3.91121
-3.97089
-4.03047
-4.08999
-4.14939
-4.20869
-4.26789
-4.32696
-4.38591
-4.44474
-4.50342
-4.56197
-4.62035
-4.67857
-4.73662
-4.79448
-4.85215
-4.90962
-4.96687
-5.02389
-5.08066
-5.13714
-5.19333
-5.24918
-5.30462
-5.35958
-5.41398
-5.46767
-5.52049
-5.57221
-5.62264
-5.67167
-5.71925
-5.76577
-5.81185
-5.85857
-5.90696
-5.958
-6.01161
-6.06723
-6.12312
-6.17849
-6.23202
4.53618
4.49996
4.46158
4.42083
4.37938
4.3385
4.29949
4.26295
4.2286
4.19563
4.16298
4.12976
4.09542
4.05969
4.02256
3.98418
3.94469
3.90427
3.86305
3.82115
3.77862
3.73555
3.69196
3.64788
3.60334
3.55836
3.51294
3.46711
3.42089
3.37427
3.32728
3.27992
3.2322
3.18414
3.13574
3.08702
3.03798
2.98863
2.93898
2.88903
2.83879
2.78828
2.7375
2.68645
2.63515
2.58359
2.5318
2.47977
2.42751
2.37502
2.32232
2.2694
2.21628
2.16295
2.10942
2.05571
2.0018
1.94771
1.89345
1.83899
1.78438
1.72959
1.67463
1.61953
1.56426
1.50883
1.45326
1.39754
1.34168
1.28567
1.22953
1.17326
1.11686
1.06032
1.00367
0.946891
0.889985
0.83297
0.775842
0.718595
0.661238
0.603784
0.546206
0.488539
0.43076
0.372888
0.314917
0.256845
0.19869
0.140427
0.08209
0.0236568
-0.0348616
-0.0934657
-0.152152
-0.210921
-0.26977
-0.328695
-0.387697
-0.44679
-0.505955
-0.565211
-0.624538
-0.683943
-0.743425
-0.802982
-0.862608
-0.922306
-0.982072
-1.0419
-1.10179
-1.16176
-1.22177
-1.28185
-1.34197
-1.40215
-1.46238
-1.52265
-1.58298
-1.64333
-1.70374
-1.76418
-1.82466
-1.88518
-1.94574
-2.00632
-2.06694
-2.12759
-2.18827
-2.24897
-2.30969
-2.37043
-2.4312
-2.49197
-2.55276
-2.61356
-2.67436
-2.73516
-2.79597
-2.85678
-2.91758
-2.97837
-3.03914
-3.09989
-3.16063
-3.22134
-3.28202
-3.34267
-3.40327
-3.46384
-3.52435
-3.58483
-3.64523
-3.70558
-3.76585
-3.82606
-3.88619
-3.94623
-4.00617
-4.06602
-4.12576
-4.18538
-4.24488
-4.30425
-4.36348
-4.42257
-4.4815
-4.54028
-4.5989
-4.65733
-4.71557
-4.77363
-4.83147
-4.88911
-4.94651
-5.00366
-5.06056
-5.11718
-5.17348
-5.22943
-5.285
-5.3401
-5.39467
-5.44857
-5.50166
-5.55376
-5.60471
-5.6543
-5.70252
-5.74954
-5.79583
-5.84218
-5.88972
-5.93929
-5.99154
-6.04592
-6.1017
-6.15706
-6.2115
-6.26375
4.55645
4.52212
4.4855
4.44592
4.40509
4.36397
4.32417
4.28649
4.25113
4.2175
4.1847
4.15181
4.11809
4.08317
4.04689
4.00931
3.97055
3.93076
3.8901
3.84868
3.8066
3.76391
3.72067
3.6769
3.63265
3.58793
3.54275
3.49713
3.4511
3.40465
3.35781
3.31058
3.26297
3.215
3.16666
3.11798
3.06897
3.01962
2.96995
2.91996
2.86966
2.81908
2.7682
2.71704
2.6656
2.6139
2.56193
2.50971
2.45725
2.40454
2.35158
2.29841
2.245
2.19138
2.13755
2.0835
2.02925
1.9748
1.92014
1.86531
1.81027
1.75506
1.69967
1.6441
1.58836
1.53245
1.47638
1.42015
1.36376
1.30722
1.25053
1.19369
1.13672
1.07959
1.02234
0.964951
0.907433
0.849783
0.792012
0.734116
0.676102
0.617971
0.559722
0.501361
0.442896
0.384317
0.325638
0.266856
0.20797
0.148991
0.0899132
0.030738
-0.0285209
-0.0878795
-0.147315
-0.206846
-0.26645
-0.326144
-0.385914
-0.445778
-0.505717
-0.565748
-0.625854
-0.686045
-0.746302
-0.806645
-0.86705
-0.927535
-0.988077
-1.04869
-1.10937
-1.1701
-1.23089
-1.29173
-1.35263
-1.41357
-1.47456
-1.53559
-1.59667
-1.65778
-1.71892
-1.78011
-1.84132
-1.90257
-1.96384
-2.02513
-2.08646
-2.14781
-2.20917
-2.27055
-2.33194
-2.39335
-2.45476
-2.51618
-2.5776
-2.63902
-2.70043
-2.76183
-2.82322
-2.88459
-2.94596
-3.00728
-3.06859
-3.12986
-3.1911
-3.2523
-3.31344
-3.37455
-3.4356
-3.49659
-3.55752
-3.61837
-3.67915
-3.73985
-3.80047
-3.86099
-3.92142
-3.98174
-4.04195
-4.10202
-4.162
-4.22182
-4.2815
-4.34103
-4.4004
-4.45961
-4.51865
-4.57749
-4.63616
-4.69463
-4.75288
-4.81091
-4.86872
-4.92629
-4.9836
-5.04063
-5.09738
-5.15381
-5.20988
-5.26557
-5.32081
-5.37553
-5.42962
-5.48298
-5.53542
-5.58678
-5.63691
-5.68571
-5.73329
-5.77989
-5.82622
-5.87313
-5.92161
-5.97237
-6.02558
-6.08046
-6.13597
-6.19056