/*--------------------------------*- C++ -*---------------------------------*\ 
| ========                 |                                                 | 
| \      /  F ield         | OpenFOAM: The Open Source CFD Toolbox           | 
|  \    /   O peration     | Version:  v1812                                 | 
|   \  /    A nd           | Web:      www.OpenFOAM.com                      | 
|    \/     M anipulation  |                                                 | 
\*--------------------------------------------------------------------------*/ 
FoamFile
{
    version     2.0;
    format      ascii;
    class       volVectorField;
    location    "/home/james/dafoam/myRuns/bezier_coanda_opt/0.00000000001/";
    object      sens_CL_shapey;
}
// * * * * * * * * * * * * * * * * * * * * * * * * * * * * * * * * * * * * * //

dimensions      [0 0 0 0 0 0 0];
internalField   uniform (0 0 0);
boundaryField
{
    allWalls
    {
        type  wall;
        value nonuniform List<vector>
188
(
(0.022600 0.004564 0.000236)
(-0.043621 0.022245 0.000249)
(-0.092510 0.047120 0.000248)
(-0.083841 0.053248 0.000248)
(-0.046205 0.040871 0.000247)
(-0.024431 0.046361 0.000247)
(-0.018470 0.042057 0.000246)
(-0.007552 0.021446 0.000246)
(-0.006769 0.021781 0.000246)
(-0.006954 0.022769 0.000246)
(-0.006001 0.023654 0.000246)
(-0.006554 0.027969 0.000246)
(-0.006998 0.032110 0.000395)
(-0.006616 0.033842 0.000544)
(-0.006891 0.040162 0.000544)
(-0.006556 0.043979 0.000544)
(-0.005611 0.044716 0.000544)
(-0.005142 0.049691 0.000544)
(-0.004553 0.054646 0.001053)
(-0.003743 0.058233 0.001653)
(-0.002937 0.065216 0.001839)
(-0.001989 0.075253 0.002028)
(-0.000669 0.084042 0.002216)
(0.001193 0.104187 0.002395)
(0.003815 0.127269 0.002025)
(0.006344 0.129603 0.001473)
(0.009202 0.135873 0.001254)
(0.011456 0.139030 0.001020)
(0.013558 0.139066 0.000975)
(0.015373 0.140738 0.000803)
(0.017141 0.142369 0.000164)
(0.019217 0.147985 -0.000257)
(0.020574 0.148329 -0.000413)
(0.021892 0.149606 -0.000427)
(0.023731 0.154858 -0.000302)
(0.025133 0.157908 -0.000238)
(0.025923 0.156439 -0.000252)
(0.027042 0.157747 -0.000303)
(0.027715 0.157689 -0.000251)
(0.028280 0.157472 -0.000235)
(0.028601 0.156246 -0.000243)
(0.028664 0.153951 -0.000169)
(0.028535 0.151005 -0.000076)
(0.028559 0.149129 -0.000039)
(0.027953 0.143984 -0.000120)
(0.024865 0.126606 -0.000135)
(0.022805 0.115099 -0.000126)
(0.030282 0.155451 -0.000179)
(0.038309 0.198596 -0.000158)
(0.000237 -0.042663 -0.000158)
(-0.004070 0.021165 -0.000158)
(-0.006022 0.023426 -0.000158)
(-0.005944 0.025236 -0.000043)
(-0.007220 0.029509 -0.000020)
(-0.007019 0.028653 -0.000023)
(-0.004448 0.020254 -0.000018)
(-0.003369 0.017318 0.000011)
(-0.001159 0.008343 0.000021)
(0.000604 -0.000845 -0.000007)
(0.000330 -0.000190 0.000070)
(-0.001989 0.010177 0.000079)
(-0.003397 0.016500 0.000089)
(-0.003694 0.018162 0.000082)
(-0.004438 0.022981 0.000099)
(-0.005445 0.029842 0.000116)
(-0.006178 0.036134 0.000085)
(-0.006545 0.041531 0.000064)
(-0.006692 0.046498 0.000152)
(-0.006628 0.051028 0.000278)
(-0.006361 0.055108 0.000344)
(-0.005904 0.058754 0.000397)
(-0.005262 0.061836 0.000449)
(-0.004489 0.065071 0.000502)
(-0.003518 0.067063 0.000557)
(-0.002435 0.070734 0.000597)
(-0.001322 0.076367 0.000569)
(-0.000212 0.061227 0.000444)
(0.000867 0.047619 0.000326)
(0.001651 0.047043 0.000268)
(0.002249 0.043113 0.000221)
(0.002696 0.039568 0.000183)
(0.002874 0.033484 0.000153)
(0.003255 0.030990 0.000342)
(0.003599 0.028679 0.000544)
(0.003751 0.025426 0.000544)
(0.004305 0.025309 0.000544)
(0.004236 0.022597 0.000544)
(0.004187 0.019740 0.000544)
(0.004433 0.018475 0.000364)
(0.004631 0.016155 0.000186)
(0.006328 0.016773 0.000190)
(0.007002 0.013225 0.000194)
(0.006236 0.004958 0.000198)
(0.002662 -0.006014 0.000202)
(0.004461 -0.003970 0.000206)
(0.010318 0.012612 0.000210)
(0.004295 0.012457 0.000213)
(0.005425 -0.004579 0.000217)
(0.028032 -0.004753 0.000220)
(0.043348 0.004164 0.000222)
(-0.011262 -0.022369 -0.000158)
(0.012496 0.244136 -0.000158)
(0.006492 0.192910 -0.000158)
(0.004877 0.165329 -0.000158)
(0.007041 0.228663 -0.000158)
(0.009306 0.284828 -0.000158)
(0.011104 0.330479 -0.000158)
(0.014184 0.418060 -0.000158)
(0.019634 0.579500 -0.000158)
(0.024542 0.742156 -0.000128)
(0.025941 0.748171 -0.000098)
(0.039177 1.128532 -0.000098)
(0.162293 3.898635 -0.000098)
(0.271075 7.427913 -0.000098)
(-9.812516 -29.432492 -0.000098)
(114.507571 -247.822240 -0.000098)
(-20.712890 -14.216134 -0.000098)
(-15.402381 -7.266515 -0.000098)
(-16.012082 -29.177141 -0.000098)
(-88.807849 245.420490 -0.000098)
(6.944539 75.498934 -0.000045)
(5.191660 36.139762 0.000008)
(1.854212 14.436104 0.000008)
(0.876717 1.880414 0.000008)
(2.406873 7.208822 0.000008)
(-1.460690 -3.276062 0.000008)
(-0.576702 -2.205490 0.000008)
(-1.264546 -2.057034 0.000008)
(-2.347742 -4.007140 0.000008)
(2.986214 3.718447 0.000008)
(3.812637 4.615056 0.000008)
(4.923126 4.940964 0.000008)
(8.910350 8.203797 0.000008)
(13.825742 11.247178 0.000008)
(25.692571 18.194754 0.000008)
(30.390361 19.024427 0.000008)
(17.332402 9.672378 0.000008)
(12.126458 5.904107 0.000008)
(60.009140 18.104258 0.000008)
(-63.319999 -21.175389 0.000008)
(-220.990505 -51.161056 0.000008)
(-124.014308 -15.110341 0.000008)
(-3.539220 2.955878 0.000008)
(70.601213 -0.813142 0.000008)
(77.593075 -6.560856 0.000008)
(40.174549 -5.285483 0.000008)
(19.397283 -2.022435 0.000008)
(0.866568 -1.472688 0.000008)
(1.999620 -2.618292 0.000008)
(5.234991 -3.949250 0.000008)
(3.533671 -2.999179 0.000008)
(-0.123830 0.178012 0.000008)
(0.500441 0.572161 0.000008)
(1.402465 0.037508 0.000008)
(0.910973 -0.013486 0.000008)
(0.553842 -0.044612 0.000008)
(0.393226 -0.089240 0.000008)
(0.229741 -0.067787 0.000008)
(0.104890 -0.021537 0.000008)
(0.034371 0.007878 0.000008)
(0.002320 0.019610 0.000008)
(-0.010157 0.022435 0.000008)
(-0.014132 0.022228 0.000008)
(-0.014758 0.021885 0.000008)
(-0.013941 0.020760 0.000008)
(-0.012074 0.016568 0.000008)
(-0.010011 0.012320 0.000008)
(-0.007047 0.009396 -0.000045)
(-59.803173 0.005056 -0.000098)
(59.799148 0.000931 -0.000098)
(-0.002866 0.004662 -0.000098)
(0.003991 0.000973 -0.000098)
(0.000613 -0.017619 -0.000098)
(-0.012663 0.006560 -0.000098)
(-0.009931 0.030427 -0.000098)
(-0.005046 0.018405 -0.000098)
(-0.003177 0.017839 -0.000098)
(-0.002178 0.017265 -0.000098)
(-0.001603 0.016000 -0.000128)
(-0.001303 0.014753 -0.000158)
(-0.001184 0.014891 -0.000158)
(-0.001062 0.014678 -0.000158)
(-0.000977 0.014304 -0.000158)
(-0.000936 0.013845 -0.000158)
(-0.000815 0.014256 -0.000158)
(-0.000710 0.014108 -0.000158)
(-0.000718 0.016150 -0.000158)
(-0.001965 0.021784 -0.000158)
)
;
    }
}
