/*--------------------------------*- C++ -*---------------------------------*\ 
| ========                 |                                                 | 
| \      /  F ield         | OpenFOAM: The Open Source CFD Toolbox           | 
|  \    /   O peration     | Version:  v1812                                 | 
|   \  /    A nd           | Web:      www.OpenFOAM.com                      | 
|    \/     M anipulation  |                                                 | 
\*--------------------------------------------------------------------------*/ 
FoamFile
{
    version     2.0;
    format      ascii;
    class       volVectorField;
    location    "/home/james/dafoam/myRuns/bezier_coanda_opt/0.00000000001/";
    object      sens_CL_shapey;
}
// * * * * * * * * * * * * * * * * * * * * * * * * * * * * * * * * * * * * * //

dimensions      [0 0 0 0 0 0 0];
internalField   uniform (0 0 0);
boundaryField
{
    allWalls
    {
        type  wall;
        value nonuniform List<vector>
188
(
(0.016149 0.004055 0.000231)
(-0.038690 0.019188 0.000244)
(-0.072784 0.035726 0.000243)
(-0.089164 0.063211 0.000243)
(-0.051649 0.042853 0.000242)
(-0.005977 0.020407 0.000241)
(-0.017877 0.039983 0.000240)
(-0.011352 0.026101 0.000240)
(-0.007812 0.023038 0.000239)
(-0.008914 0.026489 0.000238)
(-0.006787 0.025135 0.000238)
(-0.007330 0.029753 0.000238)
(-0.007298 0.032661 0.000387)
(-0.006871 0.034459 0.000537)
(-0.007016 0.040292 0.000537)
(-0.006649 0.044079 0.000537)
(-0.005674 0.044667 0.000537)
(-0.005173 0.049401 0.000537)
(-0.004592 0.054435 0.001045)
(-0.003777 0.058035 0.001643)
(-0.002952 0.064538 0.001827)
(-0.001989 0.073635 0.002015)
(-0.000675 0.087641 0.002203)
(0.001089 0.101151 0.002381)
(0.003845 0.121581 0.002071)
(0.006491 0.130493 0.001807)
(0.009225 0.133584 0.001714)
(0.011643 0.138681 0.001138)
(0.013208 0.134252 0.000674)
(0.015293 0.137911 0.000469)
(0.017250 0.141294 0.000304)
(0.018723 0.141818 0.000175)
(0.020791 0.147578 -0.000198)
(0.022387 0.150823 -0.000300)
(0.023406 0.150465 -0.000254)
(0.024740 0.153040 -0.000308)
(0.025775 0.154218 -0.000206)
(0.026671 0.155107 -0.000229)
(0.027364 0.155200 -0.000250)
(0.027910 0.154897 -0.000260)
(0.028233 0.153705 -0.000267)
(0.028293 0.151422 -0.000272)
(0.028152 0.148445 -0.000272)
(0.028125 0.146314 -0.000259)
(0.027538 0.141286 -0.000254)
(0.024753 0.125509 -0.000246)
(0.022743 0.114064 -0.000226)
(0.028949 0.146668 -0.000189)
(0.035576 0.181045 -0.000156)
(0.002457 -0.026485 -0.000156)
(-0.004220 0.021874 -0.000156)
(-0.006074 0.023686 -0.000156)
(-0.006312 0.026945 0.000004)
(-0.006771 0.027881 0.000159)
(-0.007777 0.032258 0.000018)
(-0.005683 0.026508 -0.000113)
(-0.002365 0.013510 -0.000112)
(-0.000427 0.004749 -0.000106)
(0.000464 -0.000493 0.000004)
(0.000055 0.000616 0.000102)
(-0.002046 0.009990 0.000040)
(-0.003452 0.016555 0.000034)
(-0.003832 0.018712 0.000084)
(-0.004573 0.023566 0.000080)
(-0.005427 0.029984 0.000113)
(-0.006031 0.035940 0.000112)
(-0.006391 0.041324 0.000079)
(-0.006531 0.046271 0.000079)
(-0.006460 0.050785 0.000246)
(-0.006188 0.054858 0.000427)
(-0.005731 0.058481 0.000472)
(-0.005094 0.061559 0.000529)
(-0.004329 0.064810 0.000585)
(-0.003366 0.066775 0.000639)
(-0.002296 0.070525 0.000674)
(-0.001189 0.076297 0.000740)
(-0.000143 0.061093 0.000575)
(0.000872 0.047657 0.000322)
(0.001648 0.047094 0.000264)
(0.002251 0.043266 0.000218)
(0.002688 0.039712 0.000180)
(0.002878 0.033682 0.000150)
(0.003220 0.030916 0.000337)
(0.003610 0.028888 0.000537)
(0.003753 0.025687 0.000537)
(0.004280 0.025313 0.000537)
(0.004300 0.023070 0.000537)
(0.004053 0.019474 0.000537)
(0.004399 0.018447 0.000358)
(0.004490 0.016057 0.000181)
(0.006382 0.017114 0.000185)
(0.007457 0.014603 0.000189)
(0.006445 0.005517 0.000193)
(0.002654 -0.006402 0.000197)
(0.004325 -0.004614 0.000201)
(0.010561 0.012685 0.000205)
(0.004986 0.014651 0.000208)
(0.003923 -0.001747 0.000211)
(0.021433 -0.004393 0.000214)
(0.033584 0.003287 0.000216)
(-0.008846 -0.006395 -0.000156)
(0.010323 0.223576 -0.000156)
(0.005551 0.179799 -0.000156)
(0.004808 0.162825 -0.000156)
(0.006962 0.225336 -0.000156)
(0.009069 0.277181 -0.000156)
(0.010846 0.320980 -0.000156)
(0.013905 0.405883 -0.000156)
(0.019352 0.564888 -0.000156)
(0.024335 0.724869 -0.000125)
(0.025655 0.715889 -0.000095)
(0.038961 1.058808 -0.000095)
(0.163210 3.813066 -0.000095)
(0.281424 7.468137 -0.000095)
(-10.053636 -29.010682 -0.000095)
(109.099006 -241.971141 -0.000095)
(-19.818502 -13.686622 -0.000095)
(-14.533248 -6.856584 -0.000095)
(-15.825965 -29.028905 -0.000095)
(-84.273184 240.088322 -0.000095)
(6.691810 73.508215 -0.000043)
(4.960617 34.692835 0.000008)
(1.872123 14.370981 0.000008)
(0.859638 1.819004 0.000008)
(2.354312 6.997213 0.000008)
(-1.319253 -2.913809 0.000008)
(-0.521033 -1.971765 0.000008)
(-1.196902 -1.914705 0.000008)
(-2.283434 -3.867388 0.000008)
(2.697270 3.349349 0.000008)
(3.447789 4.189606 0.000008)
(4.292692 4.316386 0.000008)
(7.827895 7.207647 0.000008)
(12.410545 10.098854 0.000008)
(23.598077 16.696609 0.000008)
(27.938448 17.540095 0.000008)
(20.683084 11.551398 0.000008)
(20.534187 9.680506 0.000008)
(65.277337 19.342610 0.000008)
(-58.649692 -21.049046 0.000008)
(-224.289220 -53.212999 0.000008)
(-127.043106 -15.992802 0.000008)
(-1.854843 4.386715 0.000008)
(66.923135 -0.570103 0.000008)
(75.093315 -6.283451 0.000008)
(38.972370 -5.133807 0.000008)
(18.918833 -1.970761 0.000008)
(0.872864 -1.402734 0.000008)
(1.943079 -2.560096 0.000008)
(5.100980 -3.894793 0.000008)
(3.459317 -2.972555 0.000008)
(-0.077377 0.132166 0.000008)
(0.509504 0.540747 0.000008)
(1.384519 0.025172 0.000008)
(0.902277 -0.022187 0.000008)
(0.550590 -0.050647 0.000008)
(0.391330 -0.092516 0.000008)
(0.229174 -0.069715 0.000008)
(0.105687 -0.023283 0.000008)
(0.035910 0.006230 0.000008)
(0.003997 0.018241 0.000008)
(-0.008610 0.021418 0.000008)
(-0.012783 0.021549 0.000008)
(-0.013603 0.021491 0.000008)
(-0.012956 0.020589 0.000008)
(-0.011249 0.016610 0.000008)
(-0.009330 0.012540 0.000008)
(-0.006524 0.009632 -0.000043)
(-59.803010 0.005189 -0.000095)
(59.799354 0.000934 -0.000095)
(-0.002768 0.004680 -0.000095)
(0.004095 0.001079 -0.000095)
(0.001901 -0.018738 -0.000095)
(-0.010900 0.005873 -0.000095)
(-0.009173 0.031255 -0.000095)
(-0.004673 0.018882 -0.000095)
(-0.002952 0.018236 -0.000095)
(-0.002032 0.017602 -0.000095)
(-0.001508 0.016249 -0.000125)
(-0.001247 0.015067 -0.000156)
(-0.001147 0.015188 -0.000156)
(-0.001032 0.014894 -0.000156)
(-0.000952 0.014508 -0.000156)
(-0.000918 0.014074 -0.000156)
(-0.000801 0.014603 -0.000156)
(-0.000705 0.014424 -0.000156)
(-0.000750 0.016885 -0.000156)
(-0.002087 0.022862 -0.000156)
)
;
    }
}
