/*--------------------------------*- C++ -*---------------------------------*\ 
| ========                 |                                                 | 
| \      /  F ield         | OpenFOAM: The Open Source CFD Toolbox           | 
|  \    /   O peration     | Version:  v1812                                 | 
|   \  /    A nd           | Web:      www.OpenFOAM.com                      | 
|    \/     M anipulation  |                                                 | 
\*--------------------------------------------------------------------------*/ 
FoamFile
{
    version     2.0;
    format      ascii;
    class       volVectorField;
    location    "/home/james/dafoam/myRuns/bezier_coanda_opt/0.00000000001/";
    object      sens_CL_shapey;
}
// * * * * * * * * * * * * * * * * * * * * * * * * * * * * * * * * * * * * * //

dimensions      [0 0 0 0 0 0 0];
internalField   uniform (0 0 0);
boundaryField
{
    allWalls
    {
        type  wall;
        value nonuniform List<vector>
188
(
(0.023444 0.004729 0.000237)
(-0.043797 0.022410 0.000250)
(-0.094361 0.048034 0.000249)
(-0.086121 0.054647 0.000248)
(-0.046239 0.040962 0.000248)
(-0.024447 0.047066 0.000248)
(-0.018803 0.042821 0.000247)
(-0.007060 0.020879 0.000247)
(-0.006592 0.021582 0.000247)
(-0.006801 0.022542 0.000247)
(-0.005897 0.023534 0.000247)
(-0.006408 0.027543 0.000247)
(-0.006618 0.030574 0.000396)
(-0.006810 0.035184 0.000545)
(-0.007085 0.041110 0.000545)
(-0.006331 0.042645 0.000545)
(-0.005622 0.044903 0.000545)
(-0.005140 0.049778 0.000545)
(-0.004542 0.054640 0.001054)
(-0.003738 0.058276 0.001654)
(-0.002932 0.065268 0.001840)
(-0.001985 0.075333 0.002030)
(-0.000664 0.084101 0.002218)
(0.001199 0.104351 0.002396)
(0.003822 0.127506 0.002023)
(0.006346 0.129758 0.001469)
(0.009208 0.136113 0.001249)
(0.011462 0.139297 0.001017)
(0.013560 0.139309 0.000973)
(0.015373 0.140975 0.000801)
(0.017157 0.142736 0.000162)
(0.019237 0.148402 -0.000260)
(0.020531 0.148291 -0.000414)
(0.021904 0.149956 -0.000428)
(0.023761 0.155365 -0.000304)
(0.025124 0.158151 -0.000240)
(0.025934 0.156821 -0.000254)
(0.027042 0.158073 -0.000304)
(0.027725 0.158079 -0.000253)
(0.028289 0.157856 -0.000236)
(0.028615 0.156653 -0.000244)
(0.028682 0.154380 -0.000170)
(0.028560 0.151466 -0.000078)
(0.028590 0.149621 -0.000042)
(0.027978 0.144438 -0.000121)
(0.024851 0.126834 -0.000135)
(0.022785 0.115308 -0.000126)
(0.030421 0.156610 -0.000179)
(0.038619 0.200806 -0.000159)
(-0.000027 -0.044629 -0.000159)
(-0.004055 0.021037 -0.000159)
(-0.006005 0.023324 -0.000159)
(-0.005939 0.025190 -0.000043)
(-0.007228 0.029504 -0.000020)
(-0.007043 0.028727 -0.000023)
(-0.004518 0.020500 -0.000018)
(-0.003416 0.017492 0.000009)
(-0.001157 0.008350 0.000019)
(0.000619 -0.000906 -0.000007)
(0.000354 -0.000249 0.000070)
(-0.001971 0.010132 0.000078)
(-0.003380 0.016393 0.000087)
(-0.003669 0.017989 0.000081)
(-0.004415 0.022807 0.000098)
(-0.005434 0.029720 0.000115)
(-0.006173 0.036038 0.000084)
(-0.006544 0.041449 0.000064)
(-0.006694 0.046434 0.000151)
(-0.006634 0.050982 0.000276)
(-0.006370 0.055079 0.000344)
(-0.005913 0.058729 0.000399)
(-0.005272 0.061823 0.000449)
(-0.004500 0.065072 0.000502)
(-0.003527 0.067067 0.000556)
(-0.002442 0.070739 0.000595)
(-0.001327 0.076361 0.000568)
(-0.000215 0.061231 0.000443)
(0.000866 0.047639 0.000326)
(0.001652 0.047051 0.000268)
(0.002251 0.043114 0.000221)
(0.002699 0.039570 0.000183)
(0.002877 0.033475 0.000152)
(0.003261 0.030998 0.000342)
(0.003603 0.028674 0.000545)
(0.003754 0.025403 0.000545)
(0.004313 0.025306 0.000545)
(0.004241 0.022583 0.000545)
(0.004187 0.019707 0.000545)
(0.004440 0.018470 0.000365)
(0.004632 0.016140 0.000186)
(0.006324 0.016733 0.000191)
(0.006999 0.013184 0.000195)
(0.006203 0.004865 0.000199)
(0.002660 -0.006015 0.000203)
(0.004483 -0.003896 0.000207)
(0.010291 0.012626 0.000210)
(0.004211 0.012161 0.000214)
(0.005652 -0.005006 0.000217)
(0.029015 -0.004774 0.000220)
(0.044787 0.004311 0.000222)
(-0.011545 -0.024289 -0.000159)
(0.012750 0.246729 -0.000159)
(0.006608 0.194634 -0.000159)
(0.004894 0.165796 -0.000159)
(0.007058 0.229207 -0.000159)
(0.009341 0.285909 -0.000159)
(0.011142 0.331827 -0.000159)
(0.014226 0.419781 -0.000159)
(0.019678 0.581605 -0.000159)
(0.024582 0.744682 -0.000129)
(0.025997 0.752571 -0.000098)
(0.039228 1.137596 -0.000098)
(0.162286 3.910592 -0.000098)
(0.269832 7.426437 -0.000098)
(-9.796391 -29.458444 -0.000098)
(115.684022 -248.785309 -0.000098)
(-20.754615 -14.269755 -0.000098)
(-15.477619 -7.303600 -0.000098)
(-16.033431 -29.168776 -0.000098)
(-89.902028 246.270053 -0.000098)
(6.981083 75.932155 -0.000045)
(5.229848 36.336926 0.000008)
(1.863898 14.502476 0.000008)
(0.879806 1.888911 0.000008)
(2.419616 7.251451 0.000008)
(-1.473977 -3.309387 0.000008)
(-0.584670 -2.233852 0.000008)
(-1.272657 -2.073640 0.000008)
(-2.359952 -4.029741 0.000008)
(3.004856 3.741260 0.000008)
(3.834594 4.641249 0.000008)
(4.954406 4.971951 0.000008)
(8.965041 8.254261 0.000008)
(13.910705 11.315646 0.000008)
(25.826119 18.291012 0.000008)
(30.503083 19.097597 0.000008)
(17.254556 9.634692 0.000008)
(12.099828 5.876802 0.000008)
(60.021266 18.102078 0.000008)
(-64.151055 -21.392981 0.000008)
(-222.195367 -51.374163 0.000008)
(-124.061962 -15.039311 0.000008)
(-2.995767 3.066445 0.000008)
(71.114746 -0.803460 0.000008)
(78.012158 -6.584108 0.000008)
(40.236509 -5.320821 0.000008)
(19.389080 -2.051330 0.000008)
(0.856368 -1.494172 0.000008)
(2.021605 -2.632065 0.000008)
(5.266046 -3.954923 0.000008)
(3.553427 -2.986480 0.000008)
(-0.118535 0.194752 0.000008)
(0.511617 0.580310 0.000008)
(1.410251 0.042630 0.000008)
(0.915146 -0.010201 0.000008)
(0.556785 -0.042833 0.000008)
(0.395142 -0.088009 0.000008)
(0.231051 -0.066937 0.000008)
(0.105741 -0.020925 0.000008)
(0.034868 0.008354 0.000008)
(0.002611 0.019969 0.000008)
(-0.009982 0.022696 0.000008)
(-0.014027 0.022414 0.000008)
(-0.014700 0.022013 0.000008)
(-0.013913 0.020847 0.000008)
(-0.012063 0.016619 0.000008)
(-0.010008 0.012339 0.000008)
(-0.007041 0.009405 -0.000045)
(-59.803129 0.005064 -0.000098)
(59.799111 0.000934 -0.000098)
(-0.002864 0.004659 -0.000098)
(0.003982 0.000970 -0.000098)
(0.000537 -0.017389 -0.000098)
(-0.012736 0.006743 -0.000098)
(-0.009943 0.030359 -0.000098)
(-0.005054 0.018377 -0.000098)
(-0.003184 0.017811 -0.000098)
(-0.002184 0.017237 -0.000098)
(-0.001611 0.015979 -0.000129)
(-0.001311 0.014715 -0.000159)
(-0.001189 0.014859 -0.000159)
(-0.001065 0.014655 -0.000159)
(-0.000979 0.014277 -0.000159)
(-0.000937 0.013816 -0.000159)
(-0.000815 0.014216 -0.000159)
(-0.000711 0.014071 -0.000159)
(-0.000716 0.016103 -0.000159)
(-0.001951 0.021666 -0.000159)
)
;
    }
}
