/*--------------------------------*- C++ -*---------------------------------*\ 
| ========                 |                                                 | 
| \      /  F ield         | OpenFOAM: The Open Source CFD Toolbox           | 
|  \    /   O peration     | Version:  v1812                                 | 
|   \  /    A nd           | Web:      www.OpenFOAM.com                      | 
|    \/     M anipulation  |                                                 | 
\*--------------------------------------------------------------------------*/ 
FoamFile
{
    version     2.0;
    format      ascii;
    class       volVectorField;
    location    "/home/james/dafoam/myRuns/bezier_coanda_opt/0.00000000001/";
    object      sens_CL_shapey;
}
// * * * * * * * * * * * * * * * * * * * * * * * * * * * * * * * * * * * * * //

dimensions      [0 0 0 0 0 0 0];
internalField   uniform (0 0 0);
boundaryField
{
    allWalls
    {
        type  wall;
        value nonuniform List<vector>
188
(
(0.018525 0.004180 0.000233)
(-0.040371 0.020235 0.000245)
(-0.076145 0.037297 0.000244)
(-0.093294 0.066368 0.000244)
(-0.053405 0.044367 0.000243)
(-0.005628 0.021236 0.000243)
(-0.018098 0.041045 0.000242)
(-0.010631 0.025518 0.000242)
(-0.007357 0.022443 0.000241)
(-0.008352 0.025469 0.000241)
(-0.006506 0.024611 0.000241)
(-0.007106 0.029269 0.000240)
(-0.007193 0.032474 0.000391)
(-0.006791 0.034284 0.000542)
(-0.006970 0.040239 0.000542)
(-0.006622 0.044086 0.000542)
(-0.005650 0.044674 0.000542)
(-0.005158 0.049472 0.000542)
(-0.004576 0.054495 0.001049)
(-0.003764 0.058116 0.001646)
(-0.002942 0.064683 0.001832)
(-0.001980 0.073822 0.002021)
(-0.000664 0.087921 0.002210)
(0.001045 0.101365 0.002389)
(0.003753 0.121834 0.002011)
(0.006397 0.130766 0.001416)
(0.009140 0.133983 0.001170)
(0.011565 0.139176 0.000941)
(0.013118 0.134549 0.000731)
(0.015173 0.137941 0.000556)
(0.017252 0.142315 0.000415)
(0.018672 0.142496 -0.000055)
(0.020666 0.147618 -0.000444)
(0.022352 0.151531 -0.000403)
(0.023345 0.150975 -0.000358)
(0.024692 0.153630 -0.000253)
(0.025836 0.155041 -0.000202)
(0.026845 0.156194 -0.000235)
(0.027542 0.156310 -0.000234)
(0.028096 0.156011 -0.000234)
(0.028415 0.154794 -0.000223)
(0.028467 0.152493 -0.000203)
(0.028329 0.149526 -0.000189)
(0.028318 0.147479 -0.000173)
(0.027724 0.142414 -0.000158)
(0.024834 0.126091 -0.000142)
(0.022807 0.114597 -0.000165)
(0.029432 0.149782 -0.000176)
(0.036568 0.187392 -0.000157)
(0.001671 -0.031994 -0.000157)
(-0.004132 0.021333 -0.000157)
(-0.006034 0.023447 -0.000157)
(-0.006007 0.025957 0.000021)
(-0.007034 0.029587 0.000046)
(-0.007242 0.030325 -0.000106)
(-0.004316 0.020445 -0.000101)
(-0.002648 0.014824 -0.000094)
(-0.001192 0.008912 -0.000084)
(0.000283 0.001143 0.000040)
(0.000140 0.001100 0.000156)
(-0.002028 0.010778 0.000102)
(-0.003462 0.017409 0.000100)
(-0.003814 0.019425 0.000127)
(-0.004534 0.024180 0.000128)
(-0.005496 0.030335 0.000130)
(-0.006210 0.036017 0.000134)
(-0.006562 0.041355 0.000162)
(-0.006695 0.046265 0.000168)
(-0.006615 0.050723 0.000246)
(-0.006340 0.054757 0.000393)
(-0.005880 0.058358 0.000490)
(-0.005235 0.061397 0.000540)
(-0.004465 0.064625 0.000590)
(-0.003497 0.066576 0.000639)
(-0.002420 0.070264 0.000672)
(-0.001253 0.076097 0.000723)
(-0.000145 0.061151 0.000561)
(0.000872 0.047640 0.000324)
(0.001651 0.047065 0.000266)
(0.002251 0.043206 0.000219)
(0.002691 0.039629 0.000181)
(0.002874 0.033577 0.000150)
(0.003238 0.030977 0.000339)
(0.003601 0.028791 0.000542)
(0.003750 0.025568 0.000542)
(0.004298 0.025365 0.000542)
(0.004250 0.022781 0.000542)
(0.004151 0.019736 0.000542)
(0.004422 0.018498 0.000362)
(0.004438 0.015848 0.000183)
(0.006386 0.017032 0.000188)
(0.007314 0.014051 0.000192)
(0.006313 0.005295 0.000196)
(0.002657 -0.006076 0.000200)
(0.004421 -0.004284 0.000204)
(0.010490 0.012641 0.000207)
(0.004709 0.013834 0.000211)
(0.004416 -0.002716 0.000214)
(0.023700 -0.004475 0.000217)
(0.036997 0.003616 0.000219)
(-0.009681 -0.011888 -0.000157)
(0.011174 0.231118 -0.000157)
(0.005890 0.184154 -0.000157)
(0.004798 0.163096 -0.000157)
(0.006975 0.226287 -0.000157)
(0.009147 0.279673 -0.000157)
(0.010925 0.323902 -0.000157)
(0.013990 0.409597 -0.000157)
(0.019440 0.569295 -0.000157)
(0.024392 0.729984 -0.000126)
(0.025723 0.725403 -0.000095)
(0.039070 1.080320 -0.000095)
(0.162757 3.841027 -0.000095)
(0.279843 7.458594 -0.000095)
(-9.915860 -29.231988 -0.000095)
(109.230544 -243.727279 -0.000095)
(-20.489205 -13.928711 -0.000095)
(-15.020845 -7.085874 -0.000095)
(-15.942123 -29.202989 -0.000095)
(-83.929932 241.743362 -0.000095)
(6.770607 73.553171 -0.000043)
(5.005488 35.239740 0.000008)
(1.797141 14.104512 0.000008)
(0.859793 1.847735 0.000008)
(2.351850 7.035584 0.000008)
(-1.399198 -3.126112 0.000008)
(-0.539828 -2.081620 0.000008)
(-1.218525 -1.967765 0.000008)
(-2.275462 -3.875908 0.000008)
(2.895452 3.611458 0.000008)
(3.702084 4.484941 0.000008)
(4.764758 4.787116 0.000008)
(8.623557 7.941576 0.000008)
(13.384234 10.892609 0.000008)
(24.946145 17.662512 0.000008)
(29.653316 18.556967 0.000008)
(17.405392 9.693271 0.000008)
(12.171692 5.966070 0.000008)
(59.265798 17.917670 0.000008)
(-59.633136 -20.130001 0.000008)
(-213.963421 -49.737623 0.000008)
(-122.098611 -15.111946 0.000008)
(-5.275903 2.573305 0.000008)
(67.875067 -0.845703 0.000008)
(75.029503 -6.451163 0.000008)
(39.123414 -5.232196 0.000008)
(18.949868 -2.039581 0.000008)
(0.818055 -1.443046 0.000008)
(1.870899 -2.558065 0.000008)
(5.090232 -3.905160 0.000008)
(3.466550 -3.019767 0.000008)
(-0.113895 0.118199 0.000008)
(0.476758 0.539477 0.000008)
(1.375183 0.019769 0.000008)
(0.896466 -0.025557 0.000008)
(0.544590 -0.051812 0.000008)
(0.387088 -0.093918 0.000008)
(0.225776 -0.071041 0.000008)
(0.102698 -0.024121 0.000008)
(0.033391 0.005725 0.000008)
(0.001940 0.017911 0.000008)
(-0.010272 0.021160 0.000008)
(-0.014124 0.021302 0.000008)
(-0.014689 0.021232 0.000008)
(-0.013842 0.020317 0.000008)
(-0.011971 0.016315 0.000008)
(-0.009919 0.012223 0.000008)
(-0.006983 0.009354 -0.000043)
(-59.803252 0.005024 -0.000095)
(59.799269 0.000919 -0.000095)
(-0.002846 0.004645 -0.000095)
(0.003993 0.000986 -0.000095)
(0.001031 -0.018444 -0.000095)
(-0.012105 0.005836 -0.000095)
(-0.009737 0.030651 -0.000095)
(-0.004938 0.018555 -0.000095)
(-0.003102 0.017986 -0.000095)
(-0.002123 0.017391 -0.000095)
(-0.001555 0.016095 -0.000126)
(-0.001264 0.014906 -0.000157)
(-0.001158 0.015022 -0.000157)
(-0.001042 0.014760 -0.000157)
(-0.000960 0.014372 -0.000157)
(-0.000924 0.013919 -0.000157)
(-0.000806 0.014422 -0.000157)
(-0.000707 0.014236 -0.000157)
(-0.000749 0.016615 -0.000157)
(-0.002052 0.022445 -0.000157)
)
;
    }
}
