/*--------------------------------*- C++ -*---------------------------------*\ 
| ========                 |                                                 | 
| \      /  F ield         | OpenFOAM: The Open Source CFD Toolbox           | 
|  \    /   O peration     | Version:  v1812                                 | 
|   \  /    A nd           | Web:      www.OpenFOAM.com                      | 
|    \/     M anipulation  |                                                 | 
\*--------------------------------------------------------------------------*/ 
FoamFile
{
    version     2.0;
    format      ascii;
    class       volVectorField;
    location    "/home/james/dafoam/myRuns/bezier_coanda_opt/0.00000000001/";
    object      sens_CL_shapey;
}
// * * * * * * * * * * * * * * * * * * * * * * * * * * * * * * * * * * * * * //

dimensions      [0 0 0 0 0 0 0];
internalField   uniform (0 0 0);
boundaryField
{
    allWalls
    {
        type  wall;
        value nonuniform List<vector>
188
(
(0.023131 0.004619 0.000236)
(-0.044071 0.022532 0.000249)
(-0.093628 0.047715 0.000249)
(-0.084594 0.053741 0.000248)
(-0.046541 0.041310 0.000248)
(-0.024533 0.046732 0.000247)
(-0.018317 0.042078 0.000247)
(-0.007427 0.021349 0.000247)
(-0.006634 0.021598 0.000246)
(-0.006832 0.022546 0.000246)
(-0.005921 0.023499 0.000246)
(-0.006505 0.027866 0.000246)
(-0.006970 0.032056 0.000396)
(-0.006596 0.033803 0.000545)
(-0.006882 0.040166 0.000545)
(-0.006546 0.043962 0.000545)
(-0.005604 0.044718 0.000545)
(-0.005139 0.049721 0.000545)
(-0.004548 0.054644 0.001054)
(-0.003741 0.058255 0.001654)
(-0.002935 0.065252 0.001840)
(-0.001987 0.075300 0.002029)
(-0.000666 0.084082 0.002218)
(0.001197 0.104290 0.002396)
(0.003820 0.127416 0.002023)
(0.006346 0.129703 0.001469)
(0.009208 0.136024 0.001250)
(0.011462 0.139198 0.001017)
(0.013563 0.139226 0.000973)
(0.015378 0.140898 0.000802)
(0.017148 0.142540 0.000163)
(0.019225 0.148174 -0.000259)
(0.020581 0.148511 -0.000415)
(0.021901 0.149807 -0.000428)
(0.023738 0.155055 -0.000303)
(0.025143 0.158125 -0.000239)
(0.025930 0.156638 -0.000253)
(0.027051 0.157963 -0.000303)
(0.027727 0.157919 -0.000252)
(0.028290 0.157694 -0.000235)
(0.028614 0.156478 -0.000243)
(0.028674 0.154167 -0.000169)
(0.028549 0.151241 -0.000076)
(0.028579 0.149394 -0.000039)
(0.027970 0.144230 -0.000120)
(0.024863 0.126740 -0.000135)
(0.022801 0.115236 -0.000126)
(0.030371 0.156139 -0.000179)
(0.038497 0.199885 -0.000159)
(0.000085 -0.043810 -0.000159)
(-0.004063 0.021102 -0.000159)
(-0.006014 0.023377 -0.000159)
(-0.005942 0.025218 -0.000043)
(-0.007224 0.029513 -0.000020)
(-0.007031 0.028695 -0.000023)
(-0.004482 0.020380 -0.000018)
(-0.003391 0.017404 0.000010)
(-0.001157 0.008346 0.000020)
(0.000612 -0.000878 -0.000007)
(0.000344 -0.000226 0.000070)
(-0.001979 0.010151 0.000079)
(-0.003388 0.016445 0.000088)
(-0.003680 0.018067 0.000082)
(-0.004426 0.022891 0.000098)
(-0.005440 0.029779 0.000115)
(-0.006175 0.036083 0.000084)
(-0.006544 0.041487 0.000063)
(-0.006693 0.046466 0.000151)
(-0.006631 0.051007 0.000277)
(-0.006365 0.055092 0.000345)
(-0.005908 0.058741 0.000399)
(-0.005267 0.061830 0.000450)
(-0.004495 0.065073 0.000503)
(-0.003523 0.067067 0.000557)
(-0.002438 0.070739 0.000596)
(-0.001324 0.076363 0.000568)
(-0.000213 0.061230 0.000443)
(0.000867 0.047631 0.000326)
(0.001652 0.047048 0.000268)
(0.002250 0.043113 0.000221)
(0.002697 0.039568 0.000183)
(0.002875 0.033479 0.000153)
(0.003258 0.030992 0.000342)
(0.003601 0.028676 0.000545)
(0.003752 0.025413 0.000545)
(0.004309 0.025305 0.000545)
(0.004239 0.022591 0.000545)
(0.004187 0.019721 0.000545)
(0.004436 0.018469 0.000364)
(0.004631 0.016146 0.000186)
(0.006325 0.016751 0.000190)
(0.006999 0.013202 0.000195)
(0.006218 0.004910 0.000199)
(0.002659 -0.006016 0.000203)
(0.004469 -0.003937 0.000207)
(0.010301 0.012613 0.000210)
(0.004244 0.012298 0.000214)
(0.005539 -0.004806 0.000217)
(0.028580 -0.004780 0.000220)
(0.044217 0.004223 0.000222)
(-0.011429 -0.023489 -0.000159)
(0.012644 0.245641 -0.000159)
(0.006559 0.193916 -0.000159)
(0.004887 0.165607 -0.000159)
(0.007051 0.228981 -0.000159)
(0.009326 0.285458 -0.000159)
(0.011126 0.331265 -0.000159)
(0.014208 0.419063 -0.000159)
(0.019659 0.580725 -0.000159)
(0.024565 0.743625 -0.000128)
(0.025972 0.750749 -0.000098)
(0.039204 1.133859 -0.000098)
(0.162284 3.905601 -0.000098)
(0.270301 7.426737 -0.000098)
(-9.803144 -29.451256 -0.000098)
(115.168768 -248.362454 -0.000098)
(-20.738471 -14.248177 -0.000098)
(-15.446389 -7.287961 -0.000098)
(-16.024008 -29.174580 -0.000098)
(-89.420989 245.900789 -0.000098)
(6.965475 75.742963 -0.000045)
(5.213555 36.251432 0.000008)
(1.860110 14.474752 0.000008)
(0.878578 1.885067 0.000008)
(2.414000 7.232275 0.000008)
(-1.468205 -3.294758 0.000008)
(-0.581187 -2.221246 0.000008)
(-1.269426 -2.066841 0.000008)
(-2.355217 -4.020872 0.000008)
(2.996934 3.731435 0.000008)
(3.825398 4.630232 0.000008)
(4.941329 4.958908 0.000008)
(8.942511 8.233388 0.000008)
(13.875549 11.287280 0.000008)
(25.772954 18.252473 0.000008)
(30.462363 19.070751 0.000008)
(17.299824 9.657168 0.000008)
(12.115109 5.891469 0.000008)
(60.042776 18.110817 0.000008)
(-63.781259 -21.299062 0.000008)
(-221.724151 -51.297557 0.000008)
(-124.105645 -15.082756 0.000008)
(-3.262963 3.013158 0.000008)
(70.902994 -0.808366 0.000008)
(77.850713 -6.574364 0.000008)
(40.234659 -5.301838 0.000008)
(19.410581 -2.033645 0.000008)
(0.866278 -1.482300 0.000008)
(2.013583 -2.625834 0.000008)
(5.253071 -3.953319 0.000008)
(3.544567 -2.993686 0.000008)
(-0.121914 0.186706 0.000008)
(0.505706 0.576578 0.000008)
(1.406573 0.040173 0.000008)
(0.913191 -0.011752 0.000008)
(0.555374 -0.043645 0.000008)
(0.394232 -0.088582 0.000008)
(0.230422 -0.067332 0.000008)
(0.105318 -0.021200 0.000008)
(0.034610 0.008145 0.000008)
(0.002452 0.019813 0.000008)
(-0.010082 0.022584 0.000008)
(-0.014090 0.022335 0.000008)
(-0.014738 0.021960 0.000008)
(-0.013934 0.020811 0.000008)
(-0.012074 0.016598 0.000008)
(-0.010013 0.012332 0.000008)
(-0.007047 0.009402 -0.000045)
(-59.803153 0.005061 -0.000098)
(59.799130 0.000933 -0.000098)
(-0.002866 0.004662 -0.000098)
(0.003987 0.000971 -0.000098)
(0.000568 -0.017501 -0.000098)
(-0.012712 0.006657 -0.000098)
(-0.009943 0.030393 -0.000098)
(-0.005053 0.018389 -0.000098)
(-0.003182 0.017822 -0.000098)
(-0.002182 0.017249 -0.000098)
(-0.001608 0.015988 -0.000128)
(-0.001308 0.014731 -0.000159)
(-0.001188 0.014873 -0.000159)
(-0.001064 0.014664 -0.000159)
(-0.000978 0.014288 -0.000159)
(-0.000937 0.013827 -0.000159)
(-0.000815 0.014232 -0.000159)
(-0.000711 0.014086 -0.000159)
(-0.000718 0.016124 -0.000159)
(-0.001958 0.021724 -0.000159)
)
;
    }
}
