/*--------------------------------*- C++ -*---------------------------------*\ 
| ========                 |                                                 | 
| \      /  F ield         | OpenFOAM: The Open Source CFD Toolbox           | 
|  \    /   O peration     | Version:  v1812                                 | 
|   \  /    A nd           | Web:      www.OpenFOAM.com                      | 
|    \/     M anipulation  |                                                 | 
\*--------------------------------------------------------------------------*/ 
FoamFile
{
    version     2.0;
    format      ascii;
    class       volVectorField;
    location    "/home/james/dafoam/myRuns/bezier_coanda_opt/0.00000000001/";
    object      sens_CL_shapey;
}
// * * * * * * * * * * * * * * * * * * * * * * * * * * * * * * * * * * * * * //

dimensions      [0 0 0 0 0 0 0];
internalField   uniform (0 0 0);
boundaryField
{
    allWalls
    {
        type  wall;
        value nonuniform List<vector>
188
(
(0.023349 0.004642 0.000236)
(-0.044279 0.022662 0.000249)
(-0.094114 0.047976 0.000249)
(-0.084898 0.053947 0.000248)
(-0.046681 0.041510 0.000248)
(-0.024575 0.046891 0.000247)
(-0.018229 0.042054 0.000247)
(-0.007361 0.021285 0.000247)
(-0.006592 0.021561 0.000247)
(-0.006827 0.022586 0.000247)
(-0.005954 0.023659 0.000247)
(-0.006417 0.027556 0.000247)
(-0.006633 0.030605 0.000396)
(-0.006809 0.035165 0.000545)
(-0.007096 0.041141 0.000545)
(-0.006336 0.042652 0.000545)
(-0.005624 0.044893 0.000545)
(-0.005142 0.049773 0.000545)
(-0.004545 0.054649 0.001054)
(-0.003740 0.058270 0.001654)
(-0.002933 0.065259 0.001840)
(-0.001986 0.075321 0.002030)
(-0.000665 0.084095 0.002218)
(0.001198 0.104323 0.002396)
(0.003821 0.127467 0.002023)
(0.006347 0.129736 0.001469)
(0.009208 0.136073 0.001250)
(0.011462 0.139256 0.001017)
(0.013563 0.139281 0.000973)
(0.015377 0.140954 0.000801)
(0.017147 0.142596 0.000162)
(0.019224 0.148236 -0.000260)
(0.020580 0.148572 -0.000415)
(0.021900 0.149873 -0.000429)
(0.023737 0.155124 -0.000304)
(0.025141 0.158191 -0.000240)
(0.025929 0.156712 -0.000254)
(0.027051 0.158043 -0.000304)
(0.027729 0.158012 -0.000252)
(0.028292 0.157788 -0.000236)
(0.028617 0.156584 -0.000244)
(0.028686 0.154319 -0.000170)
(0.028562 0.151397 -0.000076)
(0.028590 0.149541 -0.000040)
(0.027978 0.144358 -0.000120)
(0.024857 0.126789 -0.000135)
(0.022790 0.115261 -0.000126)
(0.030397 0.156382 -0.000179)
(0.038563 0.200377 -0.000159)
(0.000021 -0.044273 -0.000159)
(-0.004059 0.021070 -0.000159)
(-0.006010 0.023351 -0.000159)
(-0.005940 0.025203 -0.000043)
(-0.007226 0.029508 -0.000020)
(-0.007037 0.028710 -0.000023)
(-0.004501 0.020440 -0.000018)
(-0.003404 0.017449 0.000010)
(-0.001156 0.008346 0.000020)
(0.000617 -0.000897 -0.000007)
(0.000349 -0.000236 0.000070)
(-0.001975 0.010141 0.000078)
(-0.003383 0.016413 0.000088)
(-0.003675 0.018028 0.000082)
(-0.004420 0.022848 0.000098)
(-0.005437 0.029752 0.000115)
(-0.006174 0.036057 0.000084)
(-0.006543 0.041464 0.000063)
(-0.006694 0.046454 0.000150)
(-0.006632 0.050990 0.000277)
(-0.006367 0.055085 0.000344)
(-0.005911 0.058736 0.000399)
(-0.005269 0.061828 0.000450)
(-0.004497 0.065070 0.000502)
(-0.003525 0.067064 0.000556)
(-0.002440 0.070743 0.000596)
(-0.001326 0.076361 0.000568)
(-0.000214 0.061228 0.000443)
(0.000867 0.047636 0.000326)
(0.001652 0.047046 0.000268)
(0.002251 0.043114 0.000221)
(0.002698 0.039568 0.000183)
(0.002876 0.033474 0.000152)
(0.003260 0.030997 0.000342)
(0.003602 0.028673 0.000545)
(0.003753 0.025406 0.000545)
(0.004311 0.025305 0.000545)
(0.004240 0.022584 0.000545)
(0.004187 0.019712 0.000545)
(0.004438 0.018471 0.000364)
(0.004632 0.016141 0.000186)
(0.006323 0.016737 0.000191)
(0.006998 0.013190 0.000195)
(0.006211 0.004889 0.000199)
(0.002657 -0.006019 0.000203)
(0.004473 -0.003920 0.000207)
(0.010295 0.012617 0.000210)
(0.004222 0.012231 0.000214)
(0.005585 -0.004902 0.000217)
(0.028810 -0.004789 0.000220)
(0.044581 0.004247 0.000222)
(-0.011495 -0.023943 -0.000159)
(0.012702 0.246226 -0.000159)
(0.006586 0.194301 -0.000159)
(0.004890 0.165701 -0.000159)
(0.007054 0.229094 -0.000159)
(0.009334 0.285697 -0.000159)
(0.011134 0.331567 -0.000159)
(0.014217 0.419452 -0.000159)
(0.019669 0.581202 -0.000159)
(0.024574 0.744199 -0.000128)
(0.025985 0.751752 -0.000098)
(0.039216 1.135929 -0.000098)
(0.162282 3.908323 -0.000098)
(0.270023 7.426395 -0.000098)
(-9.799324 -29.456117 -0.000098)
(115.444102 -248.587152 -0.000098)
(-20.747605 -14.260227 -0.000098)
(-15.463562 -7.296486 -0.000098)
(-16.028900 -29.171830 -0.000098)
(-89.677614 246.097878 -0.000098)
(6.973923 75.844147 -0.000045)
(5.222400 36.297323 0.000008)
(1.862268 14.489934 0.000008)
(0.879268 1.887080 0.000008)
(2.416986 7.242364 0.000008)
(-1.471309 -3.302582 0.000008)
(-0.583056 -2.227945 0.000008)
(-1.271249 -2.070620 0.000008)
(-2.357928 -4.025918 0.000008)
(3.001242 3.736736 0.000008)
(3.830438 4.636252 0.000008)
(4.948501 4.966031 0.000008)
(8.954971 8.244905 0.000008)
(13.894948 11.302920 0.000008)
(25.802912 18.274121 0.000008)
(30.486590 19.086582 0.000008)
(17.278716 9.646807 0.000008)
(12.107898 5.884360 0.000008)
(60.038793 18.108321 0.000008)
(-63.977665 -21.349758 0.000008)
(-221.992410 -51.343311 0.000008)
(-124.100495 -15.062975 0.000008)
(-3.128182 3.040333 0.000008)
(71.020058 -0.805910 0.000008)
(77.943417 -6.579704 0.000008)
(40.242919 -5.310998 0.000008)
(19.404236 -2.041666 0.000008)
(0.862536 -1.487955 0.000008)
(2.018331 -2.629113 0.000008)
(5.260199 -3.954401 0.000008)
(3.549248 -2.990269 0.000008)
(-0.120408 0.190823 0.000008)
(0.508583 0.578536 0.000008)
(1.408465 0.041431 0.000008)
(0.914201 -0.010952 0.000008)
(0.556094 -0.043220 0.000008)
(0.394698 -0.088285 0.000008)
(0.230742 -0.067127 0.000008)
(0.105529 -0.021054 0.000008)
(0.034736 0.008257 0.000008)
(0.002528 0.019898 0.000008)
(-0.010035 0.022646 0.000008)
(-0.014061 0.022379 0.000008)
(-0.014721 0.021990 0.000008)
(-0.013925 0.020831 0.000008)
(-0.012070 0.016610 0.000008)
(-0.010011 0.012336 0.000008)
(-0.007045 0.009404 -0.000045)
(-59.803141 0.005062 -0.000098)
(59.799120 0.000934 -0.000098)
(-0.002865 0.004661 -0.000098)
(0.003985 0.000971 -0.000098)
(0.000551 -0.017444 -0.000098)
(-0.012727 0.006702 -0.000098)
(-0.009944 0.030377 -0.000098)
(-0.005054 0.018383 -0.000098)
(-0.003183 0.017817 -0.000098)
(-0.002183 0.017243 -0.000098)
(-0.001609 0.015984 -0.000128)
(-0.001310 0.014723 -0.000159)
(-0.001189 0.014866 -0.000159)
(-0.001065 0.014660 -0.000159)
(-0.000978 0.014283 -0.000159)
(-0.000937 0.013822 -0.000159)
(-0.000815 0.014224 -0.000159)
(-0.000711 0.014079 -0.000159)
(-0.000717 0.016114 -0.000159)
(-0.001955 0.021695 -0.000159)
)
;
    }
}
