/*--------------------------------*- C++ -*---------------------------------*\ 
| ========                 |                                                 | 
| \      /  F ield         | OpenFOAM: The Open Source CFD Toolbox           | 
|  \    /   O peration     | Version:  v1812                                 | 
|   \  /    A nd           | Web:      www.OpenFOAM.com                      | 
|    \/     M anipulation  |                                                 | 
\*--------------------------------------------------------------------------*/ 
FoamFile
{
    version     2.0;
    format      ascii;
    class       volVectorField;
    location    "/home/james/dafoam/myRuns/bezier_coanda_opt/0.00000000001/";
    object      sens_CL_shapey;
}
// * * * * * * * * * * * * * * * * * * * * * * * * * * * * * * * * * * * * * //

dimensions      [0 0 0 0 0 0 0];
internalField   uniform (0 0 0);
boundaryField
{
    allWalls
    {
        type  wall;
        value nonuniform List<vector>
188
(
(0.015883 0.004039 0.000231)
(-0.038468 0.019065 0.000245)
(-0.072356 0.035512 0.000244)
(-0.088600 0.062783 0.000243)
(-0.051501 0.042742 0.000242)
(-0.006005 0.020264 0.000241)
(-0.017797 0.039782 0.000241)
(-0.011471 0.026203 0.000240)
(-0.007872 0.023115 0.000239)
(-0.008986 0.026614 0.000239)
(-0.006838 0.025258 0.000238)
(-0.007354 0.029785 0.000238)
(-0.007295 0.032628 0.000387)
(-0.006890 0.034517 0.000537)
(-0.007019 0.040281 0.000537)
(-0.006654 0.044088 0.000537)
(-0.005678 0.044668 0.000537)
(-0.005175 0.049386 0.000537)
(-0.004594 0.054425 0.001046)
(-0.003778 0.058011 0.001644)
(-0.002952 0.064489 0.001827)
(-0.001989 0.073598 0.002014)
(-0.000675 0.087628 0.002199)
(0.001087 0.101006 0.002376)
(0.003844 0.121899 0.002050)
(0.006501 0.130838 0.001480)
(0.009190 0.132844 0.001196)
(0.011634 0.138413 0.000942)
(0.013218 0.134337 0.000703)
(0.015284 0.137752 0.000505)
(0.017252 0.141262 0.000247)
(0.018714 0.141681 0.000120)
(0.020787 0.147511 -0.000124)
(0.022380 0.150711 -0.000248)
(0.023403 0.150368 -0.000205)
(0.024734 0.152929 -0.000262)
(0.025768 0.154104 -0.000220)
(0.026663 0.154987 -0.000236)
(0.027358 0.155087 -0.000222)
(0.027902 0.154767 -0.000242)
(0.028224 0.153575 -0.000228)
(0.028285 0.151302 -0.000180)
(0.028144 0.148324 -0.000162)
(0.028114 0.146176 -0.000142)
(0.027526 0.141144 -0.000124)
(0.024753 0.125435 -0.000176)
(0.022747 0.114000 -0.000235)
(0.028898 0.146290 -0.000193)
(0.035467 0.180325 -0.000155)
(0.002548 -0.025819 -0.000155)
(-0.004224 0.021906 -0.000155)
(-0.006078 0.023712 -0.000155)
(-0.006304 0.026954 -0.000001)
(-0.006763 0.027857 0.000010)
(-0.007770 0.032214 -0.000129)
(-0.005670 0.026472 -0.000121)
(-0.002361 0.013499 -0.000049)
(-0.000427 0.004750 0.000021)
(0.000462 -0.000474 0.000073)
(0.000053 0.000638 0.000123)
(-0.002049 0.010007 0.000088)
(-0.003457 0.016590 0.000087)
(-0.003839 0.018767 0.000123)
(-0.004579 0.023614 0.000125)
(-0.005434 0.030021 0.000154)
(-0.006036 0.035972 0.000160)
(-0.006394 0.041356 0.000143)
(-0.006535 0.046304 0.000150)
(-0.006462 0.050801 0.000288)
(-0.006188 0.054870 0.000416)
(-0.005730 0.058496 0.000436)
(-0.005091 0.061565 0.000489)
(-0.004326 0.064815 0.000540)
(-0.003363 0.066784 0.000589)
(-0.002293 0.070530 0.000620)
(-0.001195 0.076268 0.000721)
(-0.000151 0.061104 0.000584)
(0.000873 0.047697 0.000321)
(0.001631 0.046812 0.000265)
(0.002255 0.043333 0.000220)
(0.002711 0.040076 0.000184)
(0.002874 0.033627 0.000155)
(0.003211 0.030838 0.000340)
(0.003610 0.028894 0.000537)
(0.003755 0.025700 0.000537)
(0.004278 0.025307 0.000537)
(0.004299 0.023075 0.000537)
(0.004039 0.019451 0.000537)
(0.004388 0.018427 0.000358)
(0.004500 0.016086 0.000180)
(0.006389 0.017128 0.000185)
(0.007461 0.014609 0.000189)
(0.006450 0.005532 0.000193)
(0.002658 -0.006392 0.000197)
(0.004319 -0.004628 0.000201)
(0.010570 0.012685 0.000205)
(0.005028 0.014745 0.000208)
(0.003868 -0.001627 0.000211)
(0.021137 -0.004375 0.000214)
(0.033123 0.003257 0.000216)
(-0.008747 -0.005742 -0.000155)
(0.010238 0.222738 -0.000155)
(0.005512 0.179236 -0.000155)
(0.004803 0.162675 -0.000155)
(0.006958 0.225174 -0.000155)
(0.009058 0.276843 -0.000155)
(0.010834 0.320552 -0.000155)
(0.013893 0.405335 -0.000155)
(0.019339 0.564224 -0.000155)
(0.024324 0.724076 -0.000125)
(0.025640 0.714438 -0.000095)
(0.038951 1.055761 -0.000095)
(0.163232 3.809329 -0.000095)
(0.281944 7.469709 -0.000095)
(-10.059823 -28.999336 -0.000095)
(108.747042 -241.698358 -0.000095)
(-19.805813 -13.668797 -0.000095)
(-14.509539 -6.845212 -0.000095)
(-15.821109 -29.031207 -0.000095)
(-83.946332 239.844327 -0.000095)
(6.680614 73.378646 -0.000044)
(4.948608 34.634694 0.000008)
(1.868337 14.348548 0.000008)
(0.858544 1.816719 0.000008)
(2.350554 6.985281 0.000008)
(-1.315313 -2.904136 0.000008)
(-0.518598 -1.963506 0.000008)
(-1.193975 -1.908969 0.000008)
(-2.278805 -3.859006 0.000008)
(2.691760 3.342844 0.000008)
(3.441193 4.181802 0.000008)
(4.283587 4.307531 0.000008)
(7.811339 7.192494 0.000008)
(12.384204 10.077697 0.000008)
(23.552738 16.664260 0.000008)
(27.896156 17.513052 0.000008)
(20.682350 11.549703 0.000008)
(20.514350 9.674802 0.000008)
(65.225673 19.330096 0.000008)
(-58.388239 -20.972861 0.000008)
(-223.814863 -53.115542 0.000008)
(-126.946059 -15.999789 0.000008)
(-1.997740 4.354264 0.000008)
(66.750491 -0.572862 0.000008)
(74.936367 -6.276421 0.000008)
(38.922066 -5.128013 0.000008)
(18.898450 -1.968938 0.000008)
(0.868218 -1.399483 0.000008)
(1.933901 -2.556002 0.000008)
(5.090735 -3.892186 0.000008)
(3.453603 -2.974885 0.000008)
(-0.077762 0.127710 0.000008)
(0.507238 0.538387 0.000008)
(1.382485 0.023800 0.000008)
(0.901172 -0.023089 0.000008)
(0.549838 -0.051160 0.000008)
(0.390833 -0.092861 0.000008)
(0.228841 -0.069956 0.000008)
(0.105485 -0.023468 0.000008)
(0.035803 0.006079 0.000008)
(0.003941 0.018124 0.000008)
(-0.008641 0.021330 0.000008)
(-0.012799 0.021484 0.000008)
(-0.013611 0.021445 0.000008)
(-0.012958 0.020557 0.000008)
(-0.011249 0.016591 0.000008)
(-0.009329 0.012532 0.000008)
(-0.006524 0.009628 -0.000044)
(-59.803020 0.005186 -0.000095)
(59.799363 0.000933 -0.000095)
(-0.002768 0.004679 -0.000095)
(0.004095 0.001080 -0.000095)
(0.001924 -0.018803 -0.000095)
(-0.010873 0.005817 -0.000095)
(-0.009166 0.031271 -0.000095)
(-0.004668 0.018890 -0.000095)
(-0.002949 0.018244 -0.000095)
(-0.002029 0.017608 -0.000095)
(-0.001505 0.016252 -0.000125)
(-0.001244 0.015078 -0.000155)
(-0.001145 0.015199 -0.000155)
(-0.001031 0.014899 -0.000155)
(-0.000952 0.014512 -0.000155)
(-0.000917 0.014080 -0.000155)
(-0.000801 0.014611 -0.000155)
(-0.000704 0.014431 -0.000155)
(-0.000751 0.016895 -0.000155)
(-0.002090 0.022891 -0.000155)
)
;
    }
}
