/*--------------------------------*- C++ -*---------------------------------*\ 
| ========                 |                                                 | 
| \      /  F ield         | OpenFOAM: The Open Source CFD Toolbox           | 
|  \    /   O peration     | Version:  v1812                                 | 
|   \  /    A nd           | Web:      www.OpenFOAM.com                      | 
|    \/     M anipulation  |                                                 | 
\*--------------------------------------------------------------------------*/ 
FoamFile
{
    version     2.0;
    format      ascii;
    class       volVectorField;
    location    "/home/james/dafoam/myRuns/bezier_coanda_opt/0.00000000001/";
    object      sens_CL_shapey;
}
// * * * * * * * * * * * * * * * * * * * * * * * * * * * * * * * * * * * * * //

dimensions      [0 0 0 0 0 0 0];
internalField   uniform (0 0 0);
boundaryField
{
    allWalls
    {
        type  wall;
        value nonuniform List<vector>
188
(
(0.018027 0.004160 0.000231)
(-0.040097 0.020042 0.000243)
(-0.075442 0.036961 0.000242)
(-0.092470 0.065755 0.000242)
(-0.053009 0.044008 0.000241)
(-0.005683 0.021090 0.000240)
(-0.018095 0.040867 0.000240)
(-0.010736 0.025582 0.000239)
(-0.007459 0.022578 0.000239)
(-0.008452 0.025643 0.000239)
(-0.006563 0.024720 0.000238)
(-0.007154 0.029377 0.000238)
(-0.007213 0.032507 0.000389)
(-0.006805 0.034317 0.000540)
(-0.006977 0.040247 0.000540)
(-0.006625 0.044079 0.000540)
(-0.005653 0.044672 0.000540)
(-0.005158 0.049447 0.000540)
(-0.004576 0.054476 0.001046)
(-0.003764 0.058096 0.001642)
(-0.002941 0.064645 0.001826)
(-0.001979 0.073777 0.002015)
(-0.000663 0.087853 0.002201)
(0.001104 0.101421 0.002585)
(0.003747 0.121986 0.002525)
(0.006271 0.130905 0.001787)
(0.009014 0.134074 0.001237)
(0.011439 0.139258 0.000934)
(0.012997 0.134708 0.000680)
(0.015089 0.138422 0.000471)
(0.017051 0.141855 0.000304)
(0.018520 0.142358 0.000173)
(0.020594 0.148176 -0.000149)
(0.022194 0.151457 -0.000393)
(0.023211 0.151074 -0.000353)
(0.024552 0.153665 -0.000257)
(0.025817 0.154841 -0.000194)
(0.026939 0.155735 -0.000216)
(0.027634 0.155841 -0.000231)
(0.028190 0.155533 -0.000231)
(0.028511 0.154324 -0.000233)
(0.028560 0.152038 -0.000238)
(0.028419 0.149052 -0.000233)
(0.028404 0.146984 -0.000226)
(0.027814 0.141948 -0.000219)
(0.024945 0.125734 -0.000210)
(0.022925 0.114234 -0.000185)
(0.029404 0.149045 -0.000161)
(0.036386 0.186247 -0.000158)
(0.001821 -0.030883 -0.000158)
(-0.004135 0.021368 -0.000158)
(-0.006038 0.023476 -0.000158)
(-0.005942 0.025858 -0.000010)
(-0.006904 0.029349 0.000029)
(-0.007114 0.030059 -0.000077)
(-0.004177 0.020138 -0.000074)
(-0.002514 0.014535 -0.000069)
(-0.001082 0.008665 -0.000055)
(0.000390 0.000920 0.000037)
(0.000255 0.000884 0.000116)
(-0.001916 0.010552 0.000075)
(-0.003351 0.017198 0.000076)
(-0.003699 0.019227 0.000122)
(-0.004418 0.023974 0.000127)
(-0.005499 0.030386 0.000117)
(-0.006331 0.036316 0.000126)
(-0.006684 0.041634 0.000153)
(-0.006817 0.046539 0.000164)
(-0.006733 0.051005 0.000229)
(-0.006454 0.055029 0.000356)
(-0.005989 0.058623 0.000407)
(-0.005345 0.061671 0.000471)
(-0.004578 0.064888 0.000584)
(-0.003610 0.066837 0.000651)
(-0.002533 0.070529 0.000701)
(-0.001421 0.076234 0.000582)
(-0.000256 0.061151 0.000399)
(0.000874 0.047636 0.000321)
(0.001653 0.047066 0.000265)
(0.002253 0.043211 0.000218)
(0.002692 0.039634 0.000181)
(0.002875 0.033578 0.000151)
(0.003240 0.030979 0.000339)
(0.003603 0.028797 0.000540)
(0.003753 0.025576 0.000540)
(0.004300 0.025369 0.000540)
(0.004254 0.022797 0.000540)
(0.004150 0.019737 0.000540)
(0.004420 0.018492 0.000360)
(0.004443 0.015866 0.000181)
(0.006389 0.017046 0.000186)
(0.007322 0.014073 0.000190)
(0.006325 0.005319 0.000194)
(0.002663 -0.006076 0.000198)
(0.004420 -0.004302 0.000202)
(0.010506 0.012653 0.000205)
(0.004753 0.013969 0.000209)
(0.004319 -0.002536 0.000212)
(0.023258 -0.004446 0.000215)
(0.036320 0.003558 0.000217)
(-0.009515 -0.010796 -0.000158)
(0.011038 0.229789 -0.000158)
(0.005828 0.183260 -0.000158)
(0.004791 0.162876 -0.000158)
(0.006969 0.226055 -0.000158)
(0.009131 0.279154 -0.000158)
(0.010908 0.323237 -0.000158)
(0.013971 0.408739 -0.000158)
(0.019421 0.568263 -0.000158)
(0.024378 0.728753 -0.000127)
(0.025703 0.723065 -0.000096)
(0.039064 1.075343 -0.000096)
(0.162816 3.835206 -0.000096)
(0.280792 7.462227 -0.000096)
(-9.926928 -29.209391 -0.000096)
(108.711380 -243.328575 -0.000096)
(-20.465469 -13.898743 -0.000096)
(-14.981593 -7.067462 -0.000096)
(-15.935795 -29.204756 -0.000096)
(-83.451478 241.382603 -0.000096)
(6.753179 73.361634 -0.000043)
(4.986763 35.150556 0.000009)
(1.791162 14.070838 0.000009)
(0.858025 1.844551 0.000009)
(2.346458 7.018859 0.000009)
(-1.393000 -3.111083 0.000009)
(-0.536136 -2.069322 0.000009)
(-1.213676 -1.958446 0.000009)
(-2.267764 -3.861989 0.000009)
(2.886234 3.600691 0.000009)
(3.690768 4.471660 0.000009)
(4.748516 4.771413 0.000009)
(8.593871 7.914505 0.000009)
(13.338609 10.855998 0.000009)
(24.867202 17.606394 0.000009)
(29.572240 18.505814 0.000009)
(17.402189 9.689779 0.000009)
(12.172788 5.969657 0.000009)
(59.166870 17.891812 0.000009)
(-59.272598 -20.024839 0.000009)
(-213.213230 -49.580455 0.000009)
(-121.847493 -15.100278 0.000009)
(-5.419883 2.540336 0.000009)
(67.593920 -0.848132 0.000009)
(74.758640 -6.440078 0.000009)
(38.999338 -5.231361 0.000009)
(18.884281 -2.047556 0.000009)
(0.800726 -1.443265 0.000009)
(1.855191 -2.552269 0.000009)
(5.075348 -3.899470 0.000009)
(3.459672 -3.019794 0.000009)
(-0.111769 0.113282 0.000009)
(0.475817 0.536493 0.000009)
(1.373021 0.018276 0.000009)
(0.895283 -0.026587 0.000009)
(0.543862 -0.052449 0.000009)
(0.386596 -0.094320 0.000009)
(0.225470 -0.071321 0.000009)
(0.102554 -0.024355 0.000009)
(0.033353 0.005522 0.000009)
(0.001948 0.017747 0.000009)
(-0.010249 0.021036 0.000009)
(-0.014098 0.021211 0.000009)
(-0.014664 0.021168 0.000009)
(-0.013818 0.020273 0.000009)
(-0.011951 0.016291 0.000009)
(-0.009902 0.012214 0.000009)
(-0.006970 0.009350 -0.000043)
(-59.803253 0.005022 -0.000096)
(59.799280 0.000917 -0.000096)
(-0.002842 0.004642 -0.000096)
(0.003993 0.000988 -0.000096)
(0.001079 -0.018515 -0.000096)
(-0.012035 0.005773 -0.000096)
(-0.009708 0.030673 -0.000096)
(-0.004922 0.018573 -0.000096)
(-0.003091 0.018004 -0.000096)
(-0.002116 0.017405 -0.000096)
(-0.001549 0.016105 -0.000127)
(-0.001259 0.014921 -0.000158)
(-0.001155 0.015035 -0.000158)
(-0.001039 0.014767 -0.000158)
(-0.000958 0.014379 -0.000158)
(-0.000923 0.013928 -0.000158)
(-0.000805 0.014433 -0.000158)
(-0.000706 0.014244 -0.000158)
(-0.000748 0.016627 -0.000158)
(-0.002055 0.022477 -0.000158)
)
;
    }
}
