/*--------------------------------*- C++ -*---------------------------------*\ 
| ========                 |                                                 | 
| \      /  F ield         | OpenFOAM: The Open Source CFD Toolbox           | 
|  \    /   O peration     | Version:  v1812                                 | 
|   \  /    A nd           | Web:      www.OpenFOAM.com                      | 
|    \/     M anipulation  |                                                 | 
\*--------------------------------------------------------------------------*/ 
FoamFile
{
    version     2.0;
    format      ascii;
    class       volVectorField;
    location    "/home/james/dafoam/myRuns/bezier_coanda_opt/0.00000000001/";
    object      sens_CL_shapey;
}
// * * * * * * * * * * * * * * * * * * * * * * * * * * * * * * * * * * * * * //

dimensions      [0 0 0 0 0 0 0];
internalField   uniform (0 0 0);
boundaryField
{
    allWalls
    {
        type  wall;
        value nonuniform List<vector>
188
(
(0.017068 0.004095 0.000230)
(-0.039637 0.019703 0.000243)
(-0.074154 0.036379 0.000242)
(-0.090840 0.064569 0.000241)
(-0.052221 0.043325 0.000241)
(-0.005788 0.020798 0.000240)
(-0.018072 0.040532 0.000239)
(-0.010965 0.025773 0.000239)
(-0.007622 0.022783 0.000238)
(-0.008645 0.026015 0.000238)
(-0.006668 0.024921 0.000238)
(-0.007220 0.029517 0.000238)
(-0.007258 0.032609 0.000388)
(-0.006832 0.034379 0.000539)
(-0.006994 0.040273 0.000539)
(-0.006630 0.044055 0.000539)
(-0.005660 0.044665 0.000539)
(-0.005164 0.049425 0.000539)
(-0.004582 0.054439 0.001047)
(-0.003769 0.058057 0.001645)
(-0.002946 0.064586 0.001827)
(-0.001985 0.073698 0.002013)
(-0.000670 0.087737 0.002197)
(0.001092 0.101279 0.002373)
(0.003852 0.121778 0.002368)
(0.006494 0.130680 0.002087)
(0.009229 0.133829 0.001433)
(0.011648 0.138959 0.000870)
(0.013205 0.134430 0.000681)
(0.015252 0.137776 0.000522)
(0.017323 0.142092 0.000392)
(0.018751 0.142322 0.000288)
(0.020731 0.147396 -0.000046)
(0.022407 0.151271 -0.000322)
(0.023406 0.150757 -0.000296)
(0.024746 0.153377 -0.000230)
(0.025780 0.154557 -0.000205)
(0.026678 0.155460 -0.000231)
(0.027372 0.155556 -0.000236)
(0.027920 0.155263 -0.000237)
(0.028243 0.154074 -0.000242)
(0.028305 0.151801 -0.000252)
(0.028167 0.148829 -0.000250)
(0.028147 0.146732 -0.000245)
(0.027559 0.141698 -0.000239)
(0.024742 0.125735 -0.000233)
(0.022731 0.114304 -0.000204)
(0.029099 0.147851 -0.000168)
(0.035895 0.183249 -0.000156)
(0.002191 -0.028444 -0.000156)
(-0.004173 0.021623 -0.000156)
(-0.006093 0.023749 -0.000156)
(-0.006108 0.026108 -0.000070)
(-0.007192 0.029584 -0.000038)
(-0.007394 0.030213 -0.000089)
(-0.004391 0.020047 -0.000085)
(-0.002711 0.014365 -0.000078)
(-0.001267 0.008469 -0.000086)
(0.000239 0.000591 -0.000035)
(0.000109 0.000465 0.000030)
(-0.002070 0.010170 -0.000003)
(-0.003512 0.016852 0.000005)
(-0.003863 0.018856 0.000052)
(-0.004586 0.023602 0.000062)
(-0.005445 0.030018 0.000095)
(-0.006050 0.035979 0.000108)
(-0.006406 0.041348 0.000100)
(-0.006540 0.046290 0.000229)
(-0.006469 0.050798 0.000327)
(-0.006202 0.054861 0.000368)
(-0.005742 0.058481 0.000456)
(-0.005104 0.061557 0.000500)
(-0.004339 0.064811 0.000544)
(-0.003374 0.066786 0.000546)
(-0.002302 0.070521 0.000576)
(-0.001197 0.076264 0.000536)
(-0.000149 0.061096 0.000400)
(0.000871 0.047669 0.000323)
(0.001648 0.047085 0.000268)
(0.002252 0.043254 0.000224)
(0.002691 0.039700 0.000188)
(0.002881 0.033671 0.000159)
(0.003224 0.030911 0.000343)
(0.003615 0.028883 0.000539)
(0.003753 0.025644 0.000539)
(0.004288 0.025307 0.000539)
(0.004297 0.023026 0.000539)
(0.004076 0.019501 0.000539)
(0.004429 0.018505 0.000360)
(0.004476 0.015982 0.000182)
(0.006377 0.017061 0.000187)
(0.007444 0.014530 0.000191)
(0.006414 0.005422 0.000194)
(0.002638 -0.006412 0.000198)
(0.004349 -0.004525 0.000202)
(0.010542 0.012709 0.000205)
(0.004871 0.014342 0.000208)
(0.004103 -0.002146 0.000211)
(0.022366 -0.004431 0.000214)
(0.035038 0.003398 0.000216)
(-0.009133 -0.008305 -0.000156)
(0.010581 0.226154 -0.000156)
(0.005670 0.181527 -0.000156)
(0.004827 0.163305 -0.000156)
(0.006980 0.225870 -0.000156)
(0.009104 0.278244 -0.000156)
(0.010885 0.322309 -0.000156)
(0.013947 0.407579 -0.000156)
(0.019395 0.566948 -0.000156)
(0.024373 0.727333 -0.000125)
(0.025709 0.720260 -0.000095)
(0.039005 1.067875 -0.000095)
(0.163183 3.824656 -0.000095)
(0.280070 7.465286 -0.000095)
(-10.026255 -29.035394 -0.000095)
(110.355420 -242.864024 -0.000095)
(-19.823262 -13.745865 -0.000095)
(-14.596790 -6.894258 -0.000095)
(-15.832332 -29.017906 -0.000095)
(-85.508987 240.424852 -0.000095)
(6.796504 74.211470 -0.000043)
(5.034591 35.327287 0.000008)
(1.829693 14.175966 0.000008)
(0.860126 1.821336 0.000008)
(2.361819 7.020908 0.000008)
(-1.326289 -2.932150 0.000008)
(-0.529279 -1.999183 0.000008)
(-1.206035 -1.933295 0.000008)
(-2.295607 -3.889698 0.000008)
(2.713754 3.369064 0.000008)
(3.468133 4.213847 0.000008)
(4.320154 4.343374 0.000008)
(7.877097 7.252911 0.000008)
(12.489260 10.162213 0.000008)
(23.728555 16.790228 0.000008)
(28.049397 17.611964 0.000008)
(20.651698 11.538689 0.000008)
(20.586096 9.690363 0.000008)
(65.360785 19.359256 0.000008)
(-59.515058 -21.291708 0.000008)
(-225.637149 -53.474059 0.000008)
(-127.146597 -15.930154 0.000008)
(-1.306741 4.504461 0.000008)
(67.436988 -0.559729 0.000008)
(75.527680 -6.304909 0.000008)
(39.052464 -5.164037 0.000008)
(18.926482 -1.993123 0.000008)
(0.870738 -1.421118 0.000008)
(1.967987 -2.573744 0.000008)
(5.132400 -3.900387 0.000008)
(3.478799 -2.959941 0.000008)
(-0.072575 0.148751 0.000008)
(0.520078 0.548864 0.000008)
(1.391967 0.030283 0.000008)
(0.906268 -0.018894 0.000008)
(0.553422 -0.048852 0.000008)
(0.393173 -0.091264 0.000008)
(0.230440 -0.068842 0.000008)
(0.106513 -0.022647 0.000008)
(0.036398 0.006729 0.000008)
(0.004288 0.018622 0.000008)
(-0.008430 0.021699 0.000008)
(-0.012671 0.021752 0.000008)
(-0.013536 0.021635 0.000008)
(-0.012919 0.020688 0.000008)
(-0.011229 0.016669 0.000008)
(-0.009318 0.012564 0.000008)
(-0.006510 0.009646 -0.000043)
(-59.802961 0.005200 -0.000095)
(59.799317 0.000937 -0.000095)
(-0.002765 0.004679 -0.000095)
(0.004090 0.001077 -0.000095)
(0.001836 -0.018487 -0.000095)
(-0.010959 0.006089 -0.000095)
(-0.009174 0.031204 -0.000095)
(-0.004675 0.018864 -0.000095)
(-0.002956 0.018215 -0.000095)
(-0.002035 0.017588 -0.000095)
(-0.001514 0.016242 -0.000125)
(-0.001253 0.015029 -0.000156)
(-0.001150 0.015148 -0.000156)
(-0.001034 0.014876 -0.000156)
(-0.000953 0.014490 -0.000156)
(-0.000917 0.014044 -0.000156)
(-0.000800 0.014560 -0.000156)
(-0.000703 0.014378 -0.000156)
(-0.000747 0.016807 -0.000156)
(-0.002074 0.022733 -0.000156)
)
;
    }
}
