/*--------------------------------*- C++ -*---------------------------------*\ 
| ========                 |                                                 | 
| \      /  F ield         | OpenFOAM: The Open Source CFD Toolbox           | 
|  \    /   O peration     | Version:  v1812                                 | 
|   \  /    A nd           | Web:      www.OpenFOAM.com                      | 
|    \/     M anipulation  |                                                 | 
\*--------------------------------------------------------------------------*/ 
FoamFile
{
    version     2.0;
    format      ascii;
    class       volVectorField;
    location    "/home/james/dafoam/myRuns/bezier_coanda_opt/0.00000000001/";
    object      sens_CL_shapey;
}
// * * * * * * * * * * * * * * * * * * * * * * * * * * * * * * * * * * * * * //

dimensions      [0 0 0 0 0 0 0];
internalField   uniform (0 0 0);
boundaryField
{
    allWalls
    {
        type  wall;
        value nonuniform List<vector>
188
(
(0.007243 0.003862 0.000154)
(-0.037433 0.017264 0.000154)
(-0.062718 0.031119 0.000063)
(-0.074829 0.053318 -0.000006)
(-0.043769 0.036513 0.000085)
(-0.006284 0.018020 0.000154)
(-0.017320 0.036333 0.000154)
(-0.012494 0.026638 0.000154)
(-0.009311 0.024830 0.000154)
(-0.010100 0.028616 0.000324)
(-0.007760 0.027091 0.000541)
(-0.007950 0.031115 0.000644)
(-0.007671 0.033596 0.000758)
(-0.007121 0.035326 0.000849)
(-0.007068 0.040359 0.000954)
(-0.006607 0.043740 0.001110)
(-0.005674 0.044614 0.001310)
(-0.005143 0.049082 0.001530)
(-0.004548 0.053944 0.001703)
(-0.003738 0.057559 0.001927)
(-0.002918 0.063894 0.002149)
(-0.001962 0.072738 0.002390)
(-0.000670 0.086253 0.002641)
(0.001066 0.099572 0.002165)
(0.003622 0.119155 0.001622)
(0.006101 0.128024 0.001564)
(0.008736 0.130695 0.001389)
(0.011066 0.135084 0.001191)
(0.012626 0.131169 0.001015)
(0.014641 0.134539 0.000537)
(0.016532 0.137730 0.000141)
(0.017941 0.138055 0.000141)
(0.019962 0.143709 0.000141)
(0.021525 0.146928 0.000141)
(0.022503 0.146475 0.000141)
(0.023788 0.148959 -0.000018)
(0.025033 0.150093 -0.000177)
(0.026156 0.150959 -0.000178)
(0.026835 0.151064 -0.000178)
(0.027368 0.150759 -0.000178)
(0.027690 0.149626 -0.000178)
(0.027755 0.147452 -0.000115)
(0.027608 0.144500 -0.000052)
(0.027530 0.142121 -0.000052)
(0.027005 0.137409 -0.000052)
(0.024671 0.123816 -0.000052)
(0.022764 0.112484 -0.000052)
(0.027199 0.136179 -0.000102)
(0.032117 0.161538 -0.000153)
(0.005242 -0.005448 -0.000153)
(-0.004128 0.021575 -0.000153)
(-0.006053 0.023664 -0.000153)
(-0.005961 0.025992 -0.000102)
(-0.006931 0.029530 -0.000052)
(-0.007172 0.030382 -0.000052)
(-0.004216 0.020384 -0.000052)
(-0.002575 0.014863 -0.000052)
(-0.001164 0.009127 -0.000052)
(0.000300 0.001475 -0.000115)
(0.000152 0.001474 -0.000178)
(-0.002009 0.011132 -0.000178)
(-0.003445 0.017806 -0.000178)
(-0.003807 0.019879 -0.000178)
(-0.004523 0.024625 -0.000178)
(-0.005600 0.030978 -0.000018)
(-0.006422 0.036861 0.000141)
(-0.006758 0.042146 0.000141)
(-0.006878 0.046995 0.000141)
(-0.006789 0.051393 0.000141)
(-0.006503 0.055380 0.000141)
(-0.006032 0.058952 0.000298)
(-0.005380 0.061969 0.000473)
(-0.004603 0.065188 0.000511)
(-0.003629 0.067093 0.000550)
(-0.002548 0.070785 0.000577)
(-0.001435 0.076656 0.000567)
(-0.000261 0.061489 0.000512)
(0.000885 0.047842 0.000396)
(0.001668 0.047261 0.000278)
(0.002284 0.043544 0.000280)
(0.002723 0.039924 0.000256)
(0.002912 0.033828 0.000139)
(0.003265 0.031131 0.000068)
(0.003663 0.029157 0.000068)
(0.003799 0.025857 0.000055)
(0.004342 0.025528 0.000004)
(0.004367 0.023306 -0.000025)
(0.004159 0.019803 -0.000006)
(0.004500 0.018739 0.000016)
(0.004547 0.016153 0.000007)
(0.006496 0.017274 0.000000)
(0.007630 0.014773 -0.000043)
(0.006561 0.005481 -0.000088)
(0.002736 -0.006507 -0.000091)
(0.004516 -0.004441 0.000032)
(0.010957 0.013452 0.000154)
(0.005507 0.016653 0.000021)
(0.002189 0.000938 0.000021)
(0.014482 -0.003658 0.000154)
(0.023186 0.002367 0.000154)
(-0.005652 0.014425 -0.000153)
(0.008007 0.201472 -0.000153)
(0.004465 0.164125 -0.000153)
(0.004641 0.158536 -0.000153)
(0.006873 0.221926 -0.000153)
(0.008824 0.268658 -0.000153)
(0.010552 0.309289 -0.000153)
(0.013582 0.390352 -0.000153)
(0.019060 0.546230 -0.000153)
(0.024201 0.703011 -0.000123)
(0.025432 0.671050 -0.000093)
(0.039262 0.958333 -0.000093)
(0.164785 3.702802 -0.000093)
(0.308655 7.612225 -0.000093)
(-10.669391 -27.852626 -0.000093)
(106.424797 -241.361958 -0.000093)
(-19.043971 -12.956480 -0.000093)
(-13.435004 -6.386959 -0.000093)
(-15.923057 -28.531796 -0.000093)
(-82.496093 237.995859 -0.000093)
(6.528044 72.690204 -0.000042)
(4.757262 34.470637 0.000009)
(1.704304 13.676335 0.000009)
(0.805446 1.719553 0.000009)
(2.310169 6.879677 0.000009)
(-1.162731 -2.545240 0.000009)
(-0.464309 -1.777175 0.000009)
(-0.937480 -1.454869 0.000009)
(-1.940015 -3.237949 0.000009)
(2.090986 2.554637 0.000009)
(1.935055 2.313382 0.000009)
(2.990183 2.906427 0.000009)
(7.492189 6.862909 0.000009)
(12.046203 9.764169 0.000009)
(23.107006 16.203839 0.000009)
(28.072731 17.454913 0.000009)
(22.189437 12.000319 0.000009)
(19.403182 9.146356 0.000009)
(60.650808 18.015414 0.000009)
(-50.862680 -18.618591 0.000009)
(-208.012054 -49.527187 0.000009)
(-122.698253 -15.737558 0.000009)
(-5.457770 3.622415 0.000009)
(61.296600 -0.633249 0.000009)
(69.829921 -6.046735 0.000009)
(36.632725 -5.004837 0.000009)
(17.728969 -2.000177 0.000009)
(0.591680 -1.356157 0.000009)
(1.661871 -2.453529 0.000009)
(4.790981 -3.787490 0.000009)
(3.299577 -2.945686 0.000009)
(-0.042908 0.049207 0.000009)
(0.499374 0.479613 0.000009)
(1.338449 -0.004749 0.000009)
(0.874949 -0.044666 0.000009)
(0.533876 -0.066679 0.000009)
(0.378664 -0.103012 0.000009)
(0.220811 -0.077552 0.000009)
(0.101010 -0.030010 0.000009)
(0.033509 0.000501 0.000009)
(0.002680 0.013643 0.000009)
(-0.009450 0.017865 0.000009)
(-0.013394 0.018842 0.000009)
(-0.014081 0.019437 0.000009)
(-0.013341 0.019068 0.000009)
(-0.011563 0.015554 0.000009)
(-0.009577 0.011810 0.000009)
(-0.006765 0.009092 -0.000042)
(-59.803182 0.004864 -0.000093)
(59.799306 0.000859 -0.000093)
(-0.002753 0.004468 -0.000093)
(0.003857 0.001004 -0.000093)
(0.001605 -0.019448 -0.000093)
(-0.011024 0.004579 -0.000093)
(-0.009283 0.030719 -0.000093)
(-0.004656 0.018914 -0.000093)
(-0.002899 0.018368 -0.000093)
(-0.001972 0.017733 -0.000093)
(-0.001432 0.016384 -0.000123)
(-0.001166 0.015163 -0.000153)
(-0.001085 0.015215 -0.000153)
(-0.000989 0.014905 -0.000153)
(-0.000923 0.014509 -0.000153)
(-0.000897 0.014056 -0.000153)
(-0.000780 0.014539 -0.000153)
(-0.000677 0.014320 -0.000153)
(-0.000722 0.016679 -0.000153)
(-0.002050 0.022666 -0.000153)
)
;
    }
}
