/*--------------------------------*- C++ -*----------------------------------*\
  =========                 |
  \\      /  F ield         | OpenFOAM: The Open Source CFD Toolbox
   \\    /   O peration     | Website:  https://openfoam.org
    \\  /    A nd           | Version:  9
     \\/     M anipulation  |
\*---------------------------------------------------------------------------*/
FoamFile
{
    format      ascii;
    class       volScalarField;
    location    "0.0025";
    object      alphat;
}
// * * * * * * * * * * * * * * * * * * * * * * * * * * * * * * * * * * * * * //

dimensions      [1 -1 -1 0 0 0 0];

internalField   nonuniform List<scalar> 
36675
(
0.00121786
0.00016703
2.69348e-05
6.24326e-06
2.26173e-06
1.09026e-06
7.61302e-07
7.28904e-07
6.55081e-07
5.48639e-07
5.49518e-07
5.96653e-07
1.1358e-06
6.04375e-07
4.96383e-07
0.00344386
0.000946627
0.000471481
0.000301939
0.000215617
0.000162018
0.000139925
0.000139716
0.000131065
0.000115465
9.88457e-05
8.43489e-05
7.30585e-05
6.1953e-05
5.46765e-05
0.00540646
0.0017593
0.000907812
0.00058853
0.000428906
0.000330597
0.000262228
0.00022882
0.000198315
0.00016847
0.000141717
0.000119464
0.000103685
9.03537e-05
8.40035e-05
0.00712163
0.00261652
0.00135461
0.000867789
0.000622627
0.000472328
0.000364962
0.0002906
0.000235933
0.000193396
0.000159892
0.000135467
0.000125295
0.000117796
0.000112009
0.00857971
0.00343167
0.00178472
0.00113018
0.000795684
0.000588488
0.000452113
0.00035912
0.000293371
0.000245027
0.000208137
0.000179548
0.000163792
0.000149916
0.000136876
0.00975966
0.00414464
0.00217303
0.00136123
0.000939607
0.000691307
0.000533512
0.000427971
0.000354425
0.000300428
0.000258343
0.000222709
0.0001941
0.000170963
0.000152286
0.0106236
0.0047025
0.00249386
0.00154355
0.00105821
0.000778734
0.000603573
0.000486936
0.000405604
0.00034475
0.00029554
0.000255124
0.000222185
0.000195309
0.000173125
0.0110979
0.00502208
0.00266358
0.0016333
0.00111694
0.000823673
0.000640069
0.000516711
0.00042998
0.000364196
0.000312137
0.000270316
0.000236166
0.0002072
0.000182522
0.0109384
0.00491988
0.00261349
0.00159897
0.00109119
0.000805369
0.000625765
0.000504315
0.000418386
0.000354281
0.000303007
0.000261736
0.00022799
0.000199881
0.000175618
0.01046
0.00463015
0.00246424
0.00150606
0.00102408
0.000753427
0.000586394
0.000471916
0.00038974
0.000328218
0.000280215
0.00024145
0.000209521
0.00018326
0.00015938
0.00960773
0.00413998
0.00222256
0.0013639
0.00092192
0.000672979
0.000520131
0.000418552
0.000345576
0.000287908
0.000242454
0.000205757
0.000176106
0.000151437
0.00013101
0.00838527
0.00342096
0.00184475
0.00115644
0.000782037
0.000564038
0.00042772
0.000337503
0.00027451
0.000227329
0.000190684
0.000157779
0.000129907
0.000110306
9.94467e-05
0.0067533
0.00249076
0.00134165
0.00085827
0.000601384
0.000438376
0.000324972
0.000245448
0.000189095
0.000146834
0.000115454
9.15213e-05
7.3397e-05
6.5141e-05
5.20705e-05
0.0046167
0.00145907
0.000760695
0.000493688
0.000354349
0.000264257
0.000198428
0.000153417
0.000130278
0.000101681
7.66659e-05
5.61861e-05
3.82034e-05
2.52236e-05
2.73151e-05
0.00179472
0.000331032
0.000105137
3.40194e-05
1.22725e-05
5.05378e-06
2.31216e-06
1.2178e-06
8.08111e-07
5.39376e-07
6.84416e-07
9.02968e-07
4.24917e-07
3.35125e-07
3.64374e-07
6.3177e-07
1.15128e-06
1.70955e-06
2.03133e-06
2.11629e-06
1.85131e-06
1.40392e-06
9.60034e-07
6.29649e-07
4.1262e-07
2.83309e-07
1.95329e-07
1.30722e-07
8.86479e-08
7.85197e-08
5.54987e-05
6.14502e-05
6.71789e-05
7.08442e-05
7.20489e-05
7.05786e-05
6.59628e-05
5.10849e-05
3.75657e-05
2.68964e-05
1.85731e-05
1.22951e-05
7.93278e-06
5.00916e-06
3.07328e-06
8.76338e-05
9.29985e-05
9.73393e-05
0.000100899
0.000102815
0.000102536
9.97253e-05
9.26844e-05
8.05317e-05
6.81051e-05
5.54606e-05
4.32062e-05
3.17204e-05
2.16974e-05
1.36507e-05
0.000112561
0.000113072
0.000115411
0.00011663
0.000116988
0.00011613
0.000113877
0.000109163
0.000100818
9.1449e-05
8.08603e-05
6.91592e-05
5.62258e-05
4.29442e-05
3.05258e-05
0.000130823
0.000129554
0.000127372
0.00012594
0.000124124
0.000121624
0.000118136
0.000113437
0.000107422
0.000100822
9.30611e-05
8.37775e-05
7.27862e-05
6.02468e-05
4.70006e-05
0.000145192
0.000139633
0.000134611
0.00013009
0.000124998
0.000120067
0.000115012
0.000109778
0.000104866
9.98356e-05
9.44489e-05
8.81692e-05
8.03367e-05
7.02909e-05
5.85566e-05
0.000159673
0.00014785
0.000137902
0.000128497
0.000120222
0.00011272
0.000106041
0.000100314
9.56023e-05
9.15955e-05
8.79471e-05
8.42756e-05
7.94721e-05
7.29026e-05
6.41994e-05
0.000163867
0.000147686
0.000133823
0.000121637
0.000111045
0.000101754
9.38654e-05
8.74012e-05
8.22006e-05
7.82691e-05
7.54686e-05
7.34632e-05
7.13806e-05
6.84546e-05
6.36456e-05
0.000155403
0.000137599
0.00012213
0.000108618
9.68455e-05
8.67197e-05
7.82564e-05
7.13992e-05
6.60885e-05
6.23612e-05
6.00955e-05
5.88568e-05
5.82744e-05
5.78531e-05
5.67e-05
0.000137953
0.00011912
0.00010285
8.91399e-05
7.77847e-05
6.84774e-05
6.08888e-05
5.46709e-05
4.9792e-05
4.63515e-05
4.40525e-05
4.29671e-05
4.303e-05
4.40258e-05
4.50775e-05
0.00011081
9.35011e-05
7.94803e-05
6.83791e-05
5.96296e-05
5.25857e-05
4.66514e-05
4.08317e-05
3.57406e-05
3.19589e-05
2.95094e-05
2.83698e-05
2.85153e-05
2.98697e-05
3.16193e-05
8.08074e-05
6.76519e-05
5.89161e-05
5.27246e-05
4.77347e-05
4.30715e-05
3.79255e-05
3.12623e-05
2.57034e-05
2.17957e-05
1.92555e-05
1.78108e-05
1.7437e-05
1.79026e-05
1.88419e-05
4.15391e-05
3.96117e-05
3.88604e-05
3.80009e-05
3.66953e-05
3.47611e-05
3.21293e-05
2.83176e-05
2.39818e-05
1.98653e-05
1.61098e-05
1.26688e-05
1.03278e-05
9.11996e-06
8.73989e-06
2.75151e-05
2.80867e-05
2.8721e-05
2.85117e-05
2.75955e-05
2.60149e-05
2.43196e-05
2.10334e-05
1.73916e-05
1.38128e-05
1.05162e-05
7.5327e-06
4.51649e-06
3.02864e-06
2.28032e-06
3.90876e-07
3.86929e-07
3.63836e-07
3.30982e-07
2.96181e-07
2.62515e-07
5.11694e-07
5.82155e-07
5.7252e-07
5.00959e-07
4.12466e-07
3.30111e-07
2.36209e-07
3.38462e-07
1.68477e-07
8.22862e-08
8.57967e-08
8.94062e-08
9.10227e-08
9.37829e-08
9.81659e-08
1.02568e-07
1.07452e-07
1.07423e-07
1.07569e-07
1.20062e-07
1.42435e-07
1.89964e-07
2.88609e-07
5.56425e-07
2.70523e-06
2.22034e-06
1.77261e-06
1.42791e-06
1.29145e-06
1.20163e-06
1.11294e-06
1.01644e-06
8.98258e-07
7.68779e-07
6.89895e-07
6.57152e-07
7.10326e-07
9.48266e-07
1.72234e-06
1.14482e-05
9.51714e-06
8.00915e-06
6.79395e-06
5.5934e-06
4.51903e-06
3.58266e-06
2.78331e-06
2.11239e-06
1.55418e-06
1.12725e-06
7.9219e-07
6.01839e-07
7.15997e-07
1.22527e-06
2.67684e-05
2.29786e-05
1.95423e-05
1.65431e-05
1.40031e-05
1.17521e-05
9.60031e-06
7.61472e-06
5.84718e-06
4.3092e-06
3.06206e-06
2.02802e-06
1.354e-06
8.92536e-07
1.34583e-06
4.26267e-05
3.79732e-05
3.33134e-05
2.88397e-05
2.47393e-05
2.11387e-05
1.78884e-05
1.47004e-05
1.1676e-05
8.88169e-06
6.45788e-06
4.36885e-06
2.87382e-06
1.66089e-06
1.75051e-06
5.39922e-05
4.94192e-05
4.45864e-05
3.96385e-05
3.47546e-05
3.01487e-05
2.59479e-05
2.19379e-05
1.79286e-05
1.40305e-05
1.0448e-05
7.24755e-06
4.79803e-06
2.76352e-06
2.19384e-06
5.97625e-05
5.53965e-05
5.0982e-05
4.63014e-05
4.14324e-05
3.65393e-05
3.18026e-05
2.73063e-05
2.27271e-05
1.811e-05
1.36899e-05
9.65703e-06
6.42369e-06
3.78195e-06
2.57225e-06
5.98264e-05
5.59417e-05
5.19559e-05
4.77808e-05
4.33306e-05
3.86715e-05
3.39221e-05
2.92117e-05
2.44758e-05
1.9612e-05
1.48737e-05
1.05485e-05
6.99831e-06
4.20224e-06
2.52214e-06
5.35084e-05
5.02984e-05
4.69529e-05
4.33797e-05
3.95435e-05
3.54289e-05
3.10688e-05
2.65528e-05
2.19766e-05
1.74365e-05
1.30966e-05
9.22183e-06
6.0509e-06
3.65382e-06
2.00887e-06
4.23103e-05
3.95844e-05
3.67773e-05
3.3823e-05
3.06861e-05
2.73482e-05
2.3819e-05
2.01479e-05
1.64392e-05
1.2831e-05
9.46904e-06
6.56223e-06
4.24088e-06
2.55234e-06
1.37106e-06
2.93521e-05
2.70866e-05
2.48054e-05
2.24612e-05
2.00381e-05
1.75429e-05
1.49953e-05
1.24311e-05
9.9228e-06
7.57007e-06
5.46548e-06
3.71893e-06
2.38575e-06
1.45859e-06
8.56112e-07
1.70531e-05
1.53298e-05
1.36452e-05
1.19768e-05
1.03336e-05
8.74107e-06
7.22178e-06
5.79885e-06
4.4976e-06
3.35132e-06
2.38658e-06
1.62316e-06
1.08722e-06
7.64321e-07
5.65627e-07
7.47402e-06
6.35377e-06
5.3415e-06
4.42611e-06
3.61122e-06
2.90237e-06
2.30534e-06
1.80976e-06
1.4014e-06
1.06884e-06
8.07899e-07
6.07912e-07
5.30073e-07
6.36292e-07
5.18868e-07
1.72969e-06
1.32193e-06
1.00977e-06
7.72876e-07
5.95901e-07
5.21951e-07
4.97922e-07
4.88362e-07
4.81448e-07
4.71745e-07
4.77126e-07
5.03554e-07
6.25958e-07
8.447e-07
9.08955e-07
1.25717e-07
9.47719e-08
8.09468e-08
7.50264e-08
7.26072e-08
7.31235e-08
7.55398e-08
7.90594e-08
8.04739e-08
7.78992e-08
9.02595e-08
1.19218e-07
1.89354e-07
2.70605e-07
5.63968e-07
0.0163868
0.0163871
0.0163876
0.0163879
0.0163882
0.0163886
0.0163889
0.0163892
0.0163895
0.0163897
0.01639
0.0163903
0.0163905
0.0163908
0.016391
0.0163912
0.0163914
0.0163917
0.0163919
0.0163921
0.0163923
0.0163925
0.0163926
0.0163928
0.016393
0.0163932
0.0163933
0.0163935
0.0163936
0.0163938
0.016394
0.0163941
0.0163942
0.0163944
0.0163945
0.0163947
0.0163948
0.0163949
0.016395
0.0163952
0.0163953
0.0163954
0.0163955
0.0163957
0.0163958
0.0163959
0.016396
0.0163961
0.0163962
0.0163964
0.0163965
0.0163966
0.0163967
0.0163968
0.0163969
0.0163971
0.0163972
0.0163973
0.0163974
0.0163975
0.0163977
0.0163978
0.0163979
0.016398
0.0163981
0.0163982
0.0163984
0.0163985
0.0163986
0.0163987
0.0163988
0.0163989
0.016399
0.0163992
0.0163993
0.0163994
0.0163995
0.0163996
0.0163997
0.0163997
0.0163998
0.0163999
0.0163999
0.0163999
0.0163999
0.0163999
0.0163999
0.0163999
0.0163999
0.0163999
0.0163999
0.0164
0.0164
0.0164
0.0164
0.0164
0.0164
0.0164
0.0164001
0.0164001
0.0164001
0.0164002
0.0164002
0.0164002
0.0164003
0.0164004
0.0164005
0.0164006
0.0164008
0.0164009
0.0164011
0.0164013
0.0164014
0.0164016
0.0164018
0.016402
0.0164022
0.0164024
0.0164026
0.0164028
0.016403
0.0164032
0.0164034
0.0164036
0.0164038
0.016404
0.0164042
0.0164044
0.0164046
0.0164047
0.0163871
0.0163881
0.016389
0.0163898
0.0163905
0.016391
0.0163915
0.0163918
0.016392
0.0163922
0.0163922
0.0163922
0.0163923
0.0163926
0.0163929
0.0163932
0.0163937
0.0163941
0.0163946
0.0163951
0.0163956
0.016396
0.0163965
0.016397
0.0163975
0.016398
0.0163984
0.0163989
0.0163994
0.0163999
0.0164004
0.0164009
0.0164014
0.016402
0.0164025
0.016403
0.0164035
0.0164041
0.0164047
0.0164052
0.0164058
0.0164064
0.016407
0.0164077
0.0164083
0.016409
0.0164097
0.0164104
0.0164111
0.0164119
0.0164127
0.0164135
0.0164144
0.0164153
0.0164162
0.0164171
0.0164179
0.0164188
0.0164197
0.0164205
0.0164213
0.0164221
0.0164229
0.0164237
0.0164245
0.0164252
0.016426
0.0164267
0.0164274
0.0164282
0.0164289
0.0164296
0.0164302
0.0164309
0.0164316
0.0164322
0.0164329
0.0164335
0.0164342
0.0164348
0.0164354
0.016436
0.0164366
0.0164372
0.0164378
0.0164384
0.0164389
0.0164395
0.0164401
0.0164406
0.0164412
0.0164417
0.0164422
0.0164428
0.0164433
0.0164438
0.0164443
0.0164448
0.0164453
0.0164458
0.0164463
0.0164467
0.0164472
0.0164477
0.0164482
0.0164486
0.0164491
0.0164495
0.0164499
0.0164504
0.0164508
0.0164512
0.0164516
0.0164519
0.0164523
0.0164526
0.016453
0.0164533
0.0164536
0.016454
0.0164543
0.0164546
0.0164549
0.0164551
0.0164554
0.0164557
0.0164559
0.0164562
0.0164564
0.0164566
0.0163881
0.0163879
0.0163877
0.0163875
0.0163873
0.016387
0.0163867
0.0163863
0.0163859
0.0163856
0.0163853
0.0163852
0.0163851
0.016385
0.0163849
0.0163848
0.0163846
0.0163843
0.016384
0.0163837
0.0163835
0.0163833
0.0163831
0.016383
0.0163829
0.0163827
0.0163826
0.0163825
0.0163824
0.0163823
0.0163822
0.0163822
0.0163821
0.0163821
0.0163821
0.016382
0.016382
0.016382
0.016382
0.0163821
0.0163821
0.0163822
0.0163823
0.0163823
0.0163825
0.0163826
0.0163828
0.0163829
0.0163832
0.0163834
0.0163837
0.016384
0.0163843
0.0163847
0.016385
0.0163854
0.0163857
0.0163861
0.0163864
0.0163868
0.0163871
0.0163875
0.0163878
0.0163882
0.0163885
0.0163889
0.0163892
0.0163896
0.0163899
0.0163903
0.0163906
0.016391
0.0163914
0.0163917
0.0163921
0.0163924
0.0163928
0.0163931
0.0163935
0.0163939
0.0163942
0.0163946
0.0163949
0.0163953
0.0163956
0.016396
0.0163963
0.0163967
0.016397
0.0163974
0.0163977
0.0163981
0.0163984
0.0163988
0.0163991
0.0163994
0.0163998
0.0164001
0.0164004
0.0164007
0.0164011
0.0164014
0.0164017
0.016402
0.0164023
0.0164026
0.0164029
0.0164032
0.0164035
0.0164038
0.0164041
0.0164044
0.0164047
0.016405
0.0164052
0.0164055
0.0164058
0.0164061
0.0164063
0.0164066
0.0164069
0.0164071
0.0164074
0.0164077
0.0164079
0.0164082
0.0164084
0.0164087
0.0164089
0.0164091
0.0163369
0.0163369
0.0163369
0.0163369
0.016337
0.016337
0.016337
0.0163371
0.0163371
0.0163372
0.0163372
0.0163372
0.0163373
0.0163374
0.0163376
0.0163379
0.0163382
0.0163386
0.0163391
0.0163396
0.0163401
0.0163407
0.0163414
0.016342
0.0163427
0.0163433
0.016344
0.0163446
0.0163453
0.0163459
0.0163465
0.0163472
0.0163478
0.0163484
0.016349
0.0163496
0.0163502
0.0163508
0.0163514
0.0163519
0.0163525
0.0163531
0.0163536
0.0163542
0.0163547
0.0163552
0.0163557
0.0163563
0.0163568
0.0163573
0.0163578
0.0163582
0.0163587
0.0163592
0.0163596
0.0163601
0.0163605
0.0163609
0.0163613
0.0163617
0.0163621
0.0163625
0.0163629
0.0163633
0.0163636
0.016364
0.0163643
0.0163646
0.0163649
0.0163652
0.0163655
0.0163658
0.016366
0.0163663
0.0163665
0.0163667
0.0163669
0.0163671
0.0163673
0.0163674
0.0163676
0.0163677
0.0163678
0.0163678
0.0163679
0.0163679
0.0163679
0.0163679
0.0163678
0.0163677
0.0163675
0.0163672
0.0163669
0.0163665
0.0163662
0.0163659
0.0163656
0.0163653
0.016365
0.0163646
0.0163643
0.016364
0.0163637
0.0163634
0.0163631
0.0163628
0.0163625
0.0163622
0.016362
0.0163617
0.0163614
0.0163611
0.0163608
0.0163605
0.0163602
0.01636
0.0163598
0.0163597
0.0163596
0.0163596
0.0163595
0.0163595
0.0163594
0.0163594
0.0163594
0.0163594
0.0163594
0.0163594
0.0163595
0.0163596
0.0163304
0.0163306
0.0163308
0.0163309
0.0163311
0.0163313
0.0163314
0.0163316
0.0163318
0.016332
0.0163321
0.0163322
0.0163323
0.0163324
0.0163324
0.0163324
0.0163323
0.0163321
0.0163318
0.0163315
0.0163313
0.0163313
0.0163313
0.0163313
0.0163313
0.0163314
0.0163315
0.0163316
0.0163318
0.0163319
0.0163321
0.0163324
0.0163326
0.0163329
0.0163332
0.0163334
0.0163337
0.016334
0.0163342
0.0163345
0.0163347
0.016335
0.0163352
0.0163354
0.0163356
0.0163358
0.0163361
0.0163363
0.0163365
0.0163366
0.0163368
0.016337
0.0163372
0.0163374
0.0163375
0.0163377
0.0163378
0.016338
0.0163381
0.0163383
0.0163384
0.0163385
0.0163386
0.0163388
0.0163389
0.016339
0.0163391
0.0163392
0.0163393
0.0163394
0.0163395
0.0163395
0.0163396
0.0163397
0.0163398
0.0163398
0.0163399
0.01634
0.01634
0.0163401
0.0163402
0.0163403
0.0163403
0.0163404
0.0163405
0.0163405
0.0163406
0.0163407
0.0163407
0.0163408
0.0163409
0.016341
0.016341
0.0163411
0.0163412
0.0163412
0.0163413
0.0163414
0.0163415
0.0163415
0.0163416
0.0163417
0.0163417
0.0163418
0.0163419
0.016342
0.016342
0.0163421
0.0163422
0.0163423
0.0163423
0.0163424
0.0163425
0.0163426
0.0163426
0.0163427
0.0163428
0.0163428
0.0163429
0.016343
0.0163431
0.0163431
0.0163432
0.0163433
0.0163434
0.0163435
0.0163435
0.0163436
0.0163438
0.016344
0.0163078
0.016308
0.016308
0.0163081
0.0163081
0.0163082
0.0163083
0.0163084
0.0163085
0.0163085
0.0163086
0.0163087
0.0163087
0.0163086
0.0163083
0.016308
0.0163078
0.0163078
0.0163078
0.0163078
0.0163079
0.016308
0.0163082
0.0163083
0.0163085
0.0163087
0.016309
0.0163092
0.0163095
0.0163098
0.0163101
0.0163105
0.0163108
0.0163112
0.0163116
0.0163119
0.0163123
0.0163127
0.016313
0.0163133
0.0163137
0.016314
0.0163143
0.0163146
0.0163148
0.0163151
0.0163154
0.0163156
0.0163159
0.0163161
0.0163163
0.0163165
0.0163167
0.0163168
0.016317
0.0163171
0.0163172
0.0163173
0.0163174
0.0163175
0.0163175
0.0163175
0.0163175
0.0163175
0.0163174
0.0163173
0.0163172
0.0163169
0.0163165
0.016316
0.0163156
0.0163151
0.0163147
0.0163142
0.0163138
0.0163134
0.0163129
0.0163125
0.0163121
0.0163116
0.0163112
0.0163108
0.0163104
0.01631
0.0163096
0.0163092
0.0163088
0.0163084
0.016308
0.0163076
0.0163072
0.0163068
0.0163064
0.016306
0.0163057
0.0163053
0.0163049
0.0163046
0.0163042
0.0163039
0.0163035
0.0163032
0.0163028
0.0163025
0.0163022
0.0163019
0.0163015
0.0163012
0.0163009
0.0163006
0.0163003
0.0163
0.0162997
0.0162994
0.0162991
0.0162988
0.0162985
0.0162982
0.016298
0.0162977
0.0162975
0.0162973
0.0162973
0.0162973
0.0162974
0.0162975
0.0162977
0.0162978
0.016298
0.0162983
0.0162914
0.0162917
0.016292
0.0162923
0.0162925
0.0162927
0.016293
0.0162932
0.0162934
0.0162935
0.0162937
0.0162939
0.016294
0.0162941
0.0162942
0.0162943
0.0162944
0.0162944
0.0162944
0.0162944
0.0162944
0.0162942
0.0162939
0.0162936
0.0162933
0.016293
0.0162926
0.0162923
0.016292
0.0162917
0.0162914
0.0162912
0.0162909
0.0162906
0.0162903
0.01629
0.0162897
0.0162894
0.0162892
0.0162889
0.0162886
0.0162883
0.0162881
0.0162878
0.0162875
0.0162872
0.0162869
0.0162867
0.0162864
0.0162861
0.0162858
0.0162856
0.0162853
0.016285
0.0162847
0.0162845
0.0162842
0.0162839
0.0162837
0.0162834
0.0162831
0.0162828
0.0162826
0.0162823
0.0162821
0.0162819
0.0162819
0.0162819
0.016282
0.0162821
0.0162823
0.0162824
0.0162826
0.0162828
0.016283
0.0162832
0.0162834
0.0162836
0.0162838
0.0162841
0.0162843
0.0162846
0.0162848
0.0162851
0.0162854
0.0162857
0.0162859
0.0162862
0.0162865
0.0162868
0.0162871
0.0162874
0.0162877
0.016288
0.0162883
0.0162886
0.0162889
0.0162892
0.0162895
0.0162898
0.0162901
0.0162904
0.0162907
0.016291
0.0162913
0.0162916
0.0162919
0.0162922
0.0162925
0.0162928
0.0162931
0.0162935
0.0162938
0.0162941
0.0162944
0.0162947
0.016295
0.0162953
0.0162956
0.0162959
0.0162963
0.0162966
0.0162969
0.0162972
0.0162975
0.0162978
0.0162981
0.0162984
0.0162988
0.0162992
0.0162881
0.0162883
0.0162886
0.0162889
0.0162892
0.0162895
0.0162899
0.0162902
0.0162906
0.0162909
0.0162913
0.0162916
0.016292
0.0162923
0.0162927
0.016293
0.0162933
0.0162936
0.0162939
0.0162942
0.0162945
0.0162948
0.0162951
0.0162953
0.0162956
0.0162958
0.016296
0.0162962
0.0162964
0.0162965
0.0162967
0.0162968
0.0162969
0.016297
0.0162971
0.0162971
0.0162971
0.0162971
0.0162971
0.016297
0.0162968
0.0162966
0.0162961
0.0162956
0.0162952
0.0162948
0.0162944
0.0162941
0.0162938
0.0162935
0.0162932
0.0162929
0.0162926
0.0162923
0.016292
0.0162917
0.0162915
0.0162912
0.0162909
0.0162906
0.0162903
0.0162901
0.0162898
0.0162895
0.0162892
0.0162889
0.0162886
0.0162883
0.0162881
0.0162878
0.0162875
0.0162872
0.0162869
0.0162866
0.0162864
0.0162861
0.0162858
0.0162856
0.0162853
0.016285
0.0162848
0.0162845
0.0162843
0.0162841
0.0162838
0.0162836
0.0162833
0.0162831
0.0162829
0.0162827
0.0162825
0.0162823
0.016282
0.0162818
0.0162816
0.0162814
0.0162809
0.0162804
0.01628
0.0162796
0.0162795
0.0162794
0.0162794
0.0162794
0.0162794
0.0162794
0.0162795
0.0162796
0.0162797
0.0162798
0.0162799
0.01628
0.0162802
0.0162804
0.0162805
0.0162807
0.0162809
0.0162811
0.0162813
0.0162815
0.0162818
0.016282
0.0162822
0.0162824
0.0162827
0.0162829
0.0162832
0.0162834
0.0162837
0.016284
0.0162912
0.0162913
0.0162915
0.0162917
0.0162918
0.0162919
0.016292
0.0162921
0.0162922
0.0162922
0.0162922
0.0162922
0.0162922
0.0162921
0.016292
0.0162918
0.0162915
0.0162909
0.0162903
0.0162898
0.0162893
0.0162888
0.0162883
0.0162879
0.0162874
0.016287
0.0162865
0.0162861
0.0162857
0.0162852
0.0162848
0.0162843
0.0162839
0.0162835
0.016283
0.0162825
0.0162821
0.0162816
0.0162812
0.0162807
0.0162802
0.0162798
0.0162793
0.0162788
0.0162784
0.0162779
0.0162774
0.0162769
0.0162764
0.016276
0.0162755
0.016275
0.0162745
0.016274
0.0162735
0.016273
0.0162726
0.0162721
0.0162716
0.0162711
0.0162706
0.01627
0.0162695
0.016269
0.0162685
0.016268
0.0162674
0.0162669
0.0162664
0.0162659
0.0162654
0.0162649
0.0162643
0.0162637
0.0162633
0.016263
0.0162629
0.0162628
0.0162627
0.0162627
0.0162627
0.0162626
0.0162627
0.0162627
0.0162627
0.0162628
0.0162628
0.0162629
0.016263
0.0162631
0.0162632
0.0162633
0.0162634
0.0162635
0.0162636
0.0162637
0.0162639
0.016264
0.0162642
0.0162643
0.0162644
0.0162646
0.0162648
0.0162649
0.0162651
0.0162652
0.0162654
0.0162655
0.0162657
0.0162659
0.016266
0.0162662
0.0162664
0.0162665
0.0162667
0.0162669
0.016267
0.0162671
0.0162672
0.0162673
0.0162673
0.0162673
0.0162673
0.0162672
0.0162672
0.0162671
0.0162669
0.0162668
0.0162666
0.0162665
0.0162672
0.0162667
0.0162663
0.0162658
0.0162654
0.0162649
0.0162645
0.0162641
0.0162636
0.0162632
0.0162628
0.0162624
0.0162619
0.0162615
0.0162611
0.0162606
0.01626
0.0162597
0.0162597
0.0162597
0.0162598
0.0162599
0.01626
0.0162601
0.0162601
0.0162601
0.0162601
0.0162601
0.0162601
0.0162599
0.0162598
0.0162595
0.0162591
0.0162585
0.0162578
0.0162571
0.0162566
0.0162561
0.0162557
0.0162552
0.0162547
0.0162543
0.0162538
0.0162533
0.0162529
0.0162524
0.0162519
0.0162515
0.016251
0.0162505
0.01625
0.0162495
0.016249
0.0162486
0.0162481
0.0162476
0.0162471
0.0162467
0.0162462
0.0162457
0.0162452
0.0162447
0.0162441
0.0162436
0.0162431
0.0162426
0.0162421
0.0162415
0.016241
0.0162405
0.0162399
0.0162394
0.0162388
0.0162383
0.0162378
0.0162372
0.0162367
0.0162362
0.0162356
0.0162351
0.0162346
0.0162341
0.0162336
0.0162331
0.0162324
0.0162316
0.0162308
0.0162302
0.0162299
0.0162296
0.0162294
0.0162292
0.0162291
0.016229
0.0162289
0.0162288
0.0162287
0.0162287
0.0162286
0.0162286
0.0162286
0.0162285
0.0162285
0.0162285
0.0162285
0.0162285
0.0162285
0.0162285
0.0162285
0.0162285
0.0162285
0.0162285
0.0162285
0.0162285
0.0162285
0.0162285
0.0162285
0.0162284
0.0162283
0.0162282
0.0162281
0.0162279
0.0162277
0.0162274
0.0162271
0.0162268
0.0162265
0.0162261
0.0162257
0.0162255
0.0162425
0.0162418
0.0162412
0.0162405
0.0162399
0.0162392
0.0162386
0.0162379
0.0162373
0.0162366
0.016236
0.0162353
0.0162347
0.016234
0.0162334
0.0162327
0.0162321
0.0162316
0.0162315
0.0162315
0.0162316
0.0162316
0.0162315
0.0162314
0.0162313
0.016231
0.0162304
0.0162297
0.0162289
0.0162282
0.0162275
0.0162268
0.016226
0.0162253
0.0162246
0.0162239
0.0162231
0.0162224
0.0162217
0.0162209
0.0162202
0.0162194
0.0162187
0.016218
0.0162172
0.0162165
0.0162157
0.016215
0.0162142
0.0162135
0.0162127
0.016212
0.0162112
0.0162104
0.0162097
0.0162089
0.0162082
0.0162074
0.0162066
0.0162058
0.0162051
0.0162043
0.0162035
0.0162027
0.016202
0.0162012
0.0162004
0.0161996
0.0161988
0.016198
0.0161972
0.0161964
0.0161956
0.0161949
0.016194
0.0161933
0.0161926
0.0161922
0.016192
0.0161918
0.0161916
0.0161915
0.0161915
0.0161914
0.0161914
0.0161914
0.0161914
0.0161914
0.0161914
0.0161914
0.0161913
0.0161911
0.0161909
0.0161906
0.0161903
0.0161898
0.0161891
0.0161882
0.0161873
0.0161864
0.0161855
0.0161846
0.0161836
0.0161827
0.0161818
0.0161809
0.01618
0.0161791
0.0161782
0.0161773
0.0161763
0.0161754
0.0161745
0.0161736
0.0161727
0.0161717
0.0161708
0.0161699
0.016169
0.016168
0.0161671
0.0161662
0.0161652
0.0161643
0.0161634
0.0161624
0.0161615
0.0161606
0.0161599
0.0161596
0.0162189
0.0162181
0.0162174
0.0162166
0.0162159
0.0162151
0.0162143
0.0162136
0.0162128
0.0162121
0.0162113
0.0162105
0.0162098
0.016209
0.0162082
0.0162074
0.0162067
0.0162059
0.0162051
0.0162043
0.0162035
0.0162028
0.016202
0.0162012
0.0162004
0.0161996
0.0161989
0.0161981
0.0161973
0.0161965
0.0161957
0.0161949
0.0161941
0.0161933
0.0161925
0.0161917
0.0161909
0.01619
0.0161892
0.0161884
0.0161876
0.0161868
0.016186
0.0161851
0.0161843
0.0161835
0.0161826
0.0161818
0.016181
0.0161801
0.0161793
0.0161785
0.0161776
0.0161768
0.0161759
0.0161751
0.0161742
0.0161733
0.0161725
0.0161716
0.0161707
0.0161699
0.016169
0.0161681
0.0161672
0.0161664
0.0161655
0.0161646
0.0161637
0.0161628
0.0161619
0.016161
0.0161601
0.0161592
0.0161583
0.0161574
0.0161565
0.0161556
0.0161547
0.0161538
0.0161528
0.016152
0.0161513
0.016151
0.0161507
0.0161505
0.0161504
0.0161502
0.0161501
0.01615
0.0161498
0.0161496
0.0161493
0.016149
0.0161485
0.0161479
0.0161469
0.0161459
0.0161448
0.0161437
0.0161427
0.0161416
0.0161406
0.0161395
0.0161384
0.0161373
0.0161363
0.0161352
0.0161341
0.016133
0.016132
0.0161309
0.0161298
0.0161287
0.0161276
0.0161265
0.0161254
0.0161243
0.0161232
0.0161221
0.016121
0.0161199
0.0161188
0.0161177
0.0161166
0.0161155
0.0161144
0.0161133
0.0161124
0.016112
0.0161965
0.0161956
0.0161947
0.0161939
0.016193
0.0161921
0.0161912
0.0161904
0.0161895
0.0161886
0.0161877
0.0161868
0.0161859
0.016185
0.0161841
0.0161832
0.0161823
0.0161814
0.0161805
0.0161796
0.0161787
0.0161778
0.0161769
0.016176
0.0161751
0.0161741
0.0161732
0.0161723
0.0161714
0.0161704
0.0161695
0.0161686
0.0161676
0.0161667
0.0161657
0.0161648
0.0161638
0.0161629
0.0161619
0.016161
0.01616
0.0161591
0.0161581
0.0161571
0.0161562
0.0161552
0.0161542
0.0161532
0.0161523
0.0161513
0.0161503
0.0161493
0.0161483
0.0161473
0.0161463
0.0161453
0.0161443
0.0161433
0.0161423
0.0161413
0.0161403
0.0161392
0.0161382
0.0161372
0.0161362
0.0161351
0.0161341
0.0161331
0.016132
0.016131
0.0161299
0.0161289
0.0161278
0.0161268
0.0161257
0.0161246
0.0161236
0.0161225
0.0161214
0.0161204
0.0161193
0.0161182
0.0161171
0.016116
0.0161149
0.0161139
0.0161128
0.0161117
0.0161106
0.0161095
0.0161084
0.0161073
0.0161062
0.0161051
0.016104
0.0161029
0.0161018
0.0161007
0.0160996
0.0160984
0.0160973
0.0160962
0.016095
0.0160939
0.0160928
0.0160916
0.0160905
0.0160893
0.0160882
0.016087
0.0160858
0.0160847
0.0160835
0.0160823
0.0160812
0.01608
0.0160788
0.0160776
0.0160764
0.0160752
0.016074
0.0160728
0.0160716
0.0160704
0.0160692
0.0160679
0.0160667
0.0160656
0.0160645
0.0160639
0.0161749
0.0161739
0.0161729
0.0161719
0.0161709
0.0161699
0.0161689
0.0161679
0.0161669
0.0161658
0.0161648
0.0161638
0.0161628
0.0161617
0.0161607
0.0161597
0.0161586
0.0161576
0.0161566
0.0161555
0.0161545
0.0161534
0.0161524
0.0161513
0.0161502
0.0161492
0.0161481
0.0161471
0.016146
0.0161449
0.0161438
0.0161428
0.0161417
0.0161406
0.0161395
0.0161384
0.0161373
0.0161362
0.0161351
0.016134
0.0161329
0.0161318
0.0161307
0.0161296
0.0161285
0.0161274
0.0161262
0.0161251
0.016124
0.0161228
0.0161217
0.0161206
0.0161194
0.0161183
0.0161171
0.016116
0.0161148
0.0161136
0.0161125
0.0161113
0.0161101
0.016109
0.0161078
0.0161066
0.0161054
0.0161042
0.016103
0.0161018
0.0161006
0.0160994
0.0160982
0.016097
0.0160958
0.0160945
0.0160933
0.0160921
0.0160909
0.0160896
0.0160884
0.0160871
0.0160859
0.0160846
0.0160834
0.0160821
0.0160808
0.0160796
0.0160783
0.016077
0.0160757
0.0160745
0.0160732
0.0160719
0.0160706
0.0160693
0.016068
0.0160667
0.0160654
0.016064
0.0160627
0.0160614
0.0160601
0.0160587
0.0160574
0.016056
0.0160547
0.0160533
0.016052
0.0160506
0.0160493
0.0160479
0.0160465
0.0160451
0.0160438
0.0160424
0.016041
0.0160396
0.0160382
0.0160368
0.0160354
0.016034
0.0160326
0.0160311
0.0160297
0.0160283
0.0160268
0.0160254
0.016024
0.0160226
0.0160213
0.0160205
0.016154
0.0161528
0.0161517
0.0161505
0.0161494
0.0161482
0.016147
0.0161459
0.0161447
0.0161435
0.0161424
0.0161412
0.01614
0.0161388
0.0161376
0.0161364
0.0161353
0.0161341
0.0161329
0.0161317
0.0161305
0.0161292
0.016128
0.0161268
0.0161256
0.0161244
0.0161231
0.0161219
0.0161207
0.0161195
0.0161182
0.016117
0.0161157
0.0161145
0.0161132
0.016112
0.0161107
0.0161094
0.0161082
0.0161069
0.0161056
0.0161043
0.016103
0.0161018
0.0161005
0.0160992
0.0160979
0.0160966
0.0160952
0.0160939
0.0160926
0.0160913
0.01609
0.0160886
0.0160873
0.016086
0.0160846
0.0160833
0.0160819
0.0160806
0.0160792
0.0160778
0.0160765
0.0160751
0.0160737
0.0160723
0.016071
0.0160696
0.0160682
0.0160668
0.0160654
0.0160639
0.0160625
0.0160611
0.0160597
0.0160582
0.0160568
0.0160554
0.0160539
0.0160525
0.016051
0.0160496
0.0160481
0.0160466
0.0160452
0.0160437
0.0160422
0.0160407
0.0160392
0.0160377
0.0160362
0.0160347
0.0160332
0.0160316
0.0160301
0.0160286
0.0160271
0.0160255
0.016024
0.0160224
0.0160209
0.0160193
0.0160177
0.0160161
0.0160146
0.016013
0.0160114
0.0160098
0.0160082
0.0160066
0.016005
0.0160034
0.0160017
0.0160001
0.0159985
0.0159968
0.0159952
0.0159935
0.0159919
0.0159902
0.0159885
0.0159869
0.0159852
0.0159835
0.0159818
0.0159801
0.0159784
0.0159768
0.0159752
0.015974
0.016133
0.0161316
0.0161303
0.016129
0.0161277
0.0161263
0.016125
0.0161236
0.0161223
0.016121
0.0161196
0.0161183
0.0161169
0.0161155
0.0161142
0.0161128
0.0161114
0.0161101
0.0161087
0.0161073
0.0161059
0.0161045
0.0161031
0.0161017
0.0161003
0.0160989
0.0160975
0.0160961
0.0160947
0.0160933
0.0160918
0.0160904
0.016089
0.0160875
0.0160861
0.0160846
0.0160832
0.0160817
0.0160803
0.0160788
0.0160773
0.0160758
0.0160744
0.0160729
0.0160714
0.0160699
0.0160684
0.0160669
0.0160654
0.0160638
0.0160623
0.0160608
0.0160593
0.0160577
0.0160562
0.0160546
0.0160531
0.0160515
0.01605
0.0160484
0.0160468
0.0160452
0.0160436
0.016042
0.0160404
0.0160388
0.0160372
0.0160356
0.016034
0.0160324
0.0160307
0.0160291
0.0160274
0.0160258
0.0160241
0.0160225
0.0160208
0.0160191
0.0160174
0.0160157
0.016014
0.0160123
0.0160106
0.0160089
0.0160072
0.0160054
0.0160037
0.016002
0.0160002
0.0159985
0.0159967
0.0159949
0.0159932
0.0159914
0.0159896
0.0159878
0.015986
0.0159842
0.0159824
0.0159805
0.0159787
0.0159769
0.015975
0.0159732
0.0159713
0.0159694
0.0159676
0.0159657
0.0159638
0.0159619
0.01596
0.0159581
0.0159562
0.0159543
0.0159523
0.0159504
0.0159484
0.0159465
0.0159445
0.0159426
0.0159406
0.0159386
0.0159366
0.0159346
0.0159326
0.0159306
0.0159286
0.0159266
0.0159247
0.0159233
0.0161114
0.0161099
0.0161084
0.0161069
0.0161053
0.0161038
0.0161023
0.0161007
0.0160992
0.0160976
0.0160961
0.0160945
0.016093
0.0160914
0.0160898
0.0160883
0.0160867
0.0160851
0.0160835
0.0160819
0.0160803
0.0160787
0.0160771
0.0160755
0.0160739
0.0160723
0.0160707
0.016069
0.0160674
0.0160658
0.0160641
0.0160625
0.0160608
0.0160591
0.0160575
0.0160558
0.0160541
0.0160524
0.0160507
0.016049
0.0160473
0.0160456
0.0160439
0.0160422
0.0160405
0.0160387
0.016037
0.0160352
0.0160335
0.0160317
0.0160299
0.0160282
0.0160264
0.0160246
0.0160228
0.016021
0.0160192
0.0160174
0.0160156
0.0160138
0.0160119
0.0160101
0.0160082
0.0160064
0.0160045
0.0160026
0.0160008
0.0159989
0.015997
0.0159951
0.0159932
0.0159912
0.0159893
0.0159874
0.0159854
0.0159835
0.0159815
0.0159796
0.0159776
0.0159756
0.0159736
0.0159716