# Forces      
# CofR        : (0.000000e+00 0.000000e+00 0.000000e+00)
# Time        forces(pressure viscous porous)	moments(pressure viscous porous)
1             	((2.863267e-01 2.241855e-06 -1.810702e-24) (6.782011e-01 2.386470e-08 -7.408584e-17) (0.000000e+00 0.000000e+00 0.000000e+00)) ((2.339352e-26 8.607804e-25 -3.212520e-06) (-4.871754e-19 2.963406e-17 -1.200076e-08) (0.000000e+00 0.000000e+00 0.000000e+00))
