/*--------------------------------*- C++ -*----------------------------------*\
  =========                 |
  \\      /  F ield         | OpenFOAM: The Open Source CFD Toolbox
   \\    /   O peration     | Website:  https://openfoam.org
    \\  /    A nd           | Version:  8
     \\/     M anipulation  |
\*---------------------------------------------------------------------------*/
FoamFile
{
    version     2.0;
    format      ascii;
    class       volScalarField;
    location    "3";
    object      nuTilda;
}
// * * * * * * * * * * * * * * * * * * * * * * * * * * * * * * * * * * * * * //

dimensions      [0 2 -1 0 0 0 0];

internalField   nonuniform List<scalar> 
277560
(
0.13927
0.137855
0.136505
0.135229
0.134033
0.132919
0.131891
0.130947
0.130085
0.129304
0.128599
0.127966
0.1274
0.126897
0.126452
0.12606
0.125716
0.125417
0.125157
0.124934
0.124745
0.124586
0.124454
0.124348
0.124264
0.124203
0.124161
0.124138
0.124132
0.124143
0.124168
0.124208
0.124262
0.124328
0.124406
0.124496
0.124596
0.124707
0.124827
0.124957
0.125095
0.125241
0.125395
0.125555
0.125723
0.125896
0.126076
0.12626
0.126449
0.126643
0.126841
0.127042
0.127246
0.127454
0.127663
0.127875
0.128089
0.128304
0.12852
0.128737
0.128955
0.129173
0.129391
0.129609
0.129827
0.130044
0.130261
0.130476
0.13069
0.130904
0.131115
0.131326
0.131534
0.131741
0.131946
0.132149
0.13235
0.132548
0.132745
0.132939
0.133131
0.133321
0.133508
0.133693
0.133875
0.134055
0.134233
0.134408
0.13458
0.13475
0.134918
0.135083
0.135246
0.135406
0.135564
0.13572
0.135873
0.136024
0.136173
0.136319
0.136464
0.136606
0.136746
0.136884
0.13702
0.137154
0.137287
0.137417
0.137546
0.137673
0.137798
0.137921
0.138043
0.138164
0.138282
0.1384
0.138516
0.138631
0.138744
0.138856
0.139273
0.137856
0.136504
0.135227
0.13403
0.132916
0.131888
0.130944
0.130083
0.129302
0.128597
0.127965
0.1274
0.126898
0.126453
0.126062
0.125719
0.12542
0.125161
0.124938
0.124749
0.12459
0.124458
0.124352
0.124268
0.124207
0.124165
0.124142
0.124135
0.124145
0.124171
0.12421
0.124263
0.124329
0.124407
0.124496
0.124596
0.124706
0.124826
0.124955
0.125093
0.125239
0.125392
0.125553
0.12572
0.125893
0.126072
0.126256
0.126445
0.126638
0.126835
0.127036
0.12724
0.127447
0.127656
0.127868
0.128081
0.128296
0.128512
0.128729
0.128947
0.129164
0.129382
0.1296
0.129818
0.130035
0.130251
0.130466
0.130681
0.130894
0.131105
0.131315
0.131524
0.131731
0.131935
0.132138
0.132339
0.132538
0.132734
0.132929
0.133121
0.13331
0.133497
0.133682
0.133865
0.134045
0.134222
0.134397
0.13457
0.13474
0.134908
0.135073
0.135236
0.135396
0.135554
0.13571
0.135863
0.136014
0.136163
0.13631
0.136455
0.136597
0.136737
0.136875
0.137012
0.137146
0.137279
0.137409
0.137538
0.137665
0.13779
0.137914
0.138036
0.138157
0.138276
0.138394
0.13851
0.138625
0.138738
0.138851
0.139267
0.137847
0.136494
0.135217
0.13402
0.132907
0.131879
0.130936
0.130076
0.129296
0.128592
0.127961
0.127397
0.126895
0.126451
0.126061
0.125718
0.125419
0.12516
0.124938
0.124749
0.124589
0.124457
0.124351
0.124267
0.124205
0.124163
0.124139
0.124132
0.124141
0.124166
0.124205
0.124257
0.124322
0.124399
0.124487
0.124587
0.124696
0.124816
0.124944
0.125081
0.125226
0.125378
0.125538
0.125705
0.125877
0.126055
0.126239
0.126427
0.12662
0.126817
0.127017
0.127221
0.127427
0.127636
0.127847
0.12806
0.128275
0.12849
0.128707
0.128924
0.129142
0.129359
0.129577
0.129794
0.130011
0.130227
0.130443
0.130657
0.13087
0.131081
0.131291
0.1315
0.131706
0.131911
0.132114
0.132315
0.132514
0.13271
0.132905
0.133097
0.133286
0.133474
0.133659
0.133841
0.134022
0.134199
0.134374
0.134547
0.134718
0.134886
0.135051
0.135214
0.135375
0.135533
0.135689
0.135843
0.135995
0.136144
0.136291
0.136436
0.136579
0.136719
0.136858
0.136995
0.13713
0.137262
0.137394
0.137523
0.13765
0.137776
0.1379
0.138023
0.138144
0.138264
0.138382
0.138499
0.138614
0.138728
0.138841
0.139263
0.137838
0.136483
0.135205
0.134008
0.132896
0.131868
0.130926
0.130067
0.129288
0.128585
0.127955
0.127391
0.126891
0.126448
0.126057
0.125715
0.125416
0.125158
0.124935
0.124746
0.124586
0.124454
0.124346
0.124262
0.124199
0.124156
0.124131
0.124123
0.124131
0.124154
0.124192
0.124243
0.124307
0.124383
0.124471
0.124569
0.124677
0.124796
0.124923
0.125059
0.125203
0.125355
0.125513
0.125679
0.125851
0.126028
0.126211
0.126398
0.126591
0.126787
0.126986
0.127189
0.127395
0.127604
0.127814
0.128027
0.128241
0.128456
0.128672
0.128889
0.129106
0.129324
0.129541
0.129758
0.129975
0.130191
0.130406
0.13062
0.130833
0.131044
0.131254
0.131463
0.131669
0.131874
0.132077
0.132278
0.132477
0.132674
0.132868
0.133061
0.133251
0.133438
0.133624
0.133807
0.133987
0.134165
0.134341
0.134514
0.134685
0.134853
0.135019
0.135183
0.135344
0.135503
0.13566
0.135814
0.135966
0.136116
0.136263
0.136409
0.136552
0.136694
0.136833
0.13697
0.137106
0.13724
0.137371
0.137501
0.13763
0.137756
0.137881
0.138005
0.138127
0.138247
0.138366
0.138483
0.1386
0.138715
0.138828
0.139259
0.137829
0.136472
0.135193
0.133995
0.132883
0.131856
0.130915
0.130056
0.129278
0.128577
0.127947
0.127385
0.126885
0.126443
0.126053
0.125711
0.125412
0.125154
0.124931
0.124741
0.12458
0.124447
0.124339
0.124254
0.124189
0.124145
0.124118
0.124109
0.124116
0.124138
0.124174
0.124224
0.124286
0.124361
0.124447
0.124544
0.124651
0.124768
0.124894
0.125028
0.125171
0.125322
0.125479
0.125644
0.125814
0.125991
0.126173
0.126359
0.12655
0.126746
0.126945
0.127147
0.127352
0.12756
0.12777
0.127982
0.128195
0.12841
0.128625
0.128842
0.129059
0.129276
0.129493
0.12971
0.129926
0.130142
0.130357
0.130571
0.130784
0.130995
0.131206
0.131414
0.131621
0.131826
0.132029
0.13223
0.132429
0.132626
0.132821
0.133014
0.133204
0.133392
0.133578
0.133762
0.133943
0.134121
0.134297
0.134471
0.134643
0.134812
0.134978
0.135142
0.135304
0.135464
0.135621
0.135776
0.135929
0.13608
0.136228
0.136375
0.136519
0.136661
0.136802
0.13694
0.137076
0.137211
0.137344
0.137475
0.137604
0.137731
0.137857
0.137982
0.138105
0.138226
0.138346
0.138465
0.138582
0.138698
0.138813
0.139255
0.137821
0.136461
0.13518
0.133982
0.13287
0.131844
0.130903
0.130046
0.129269
0.128568
0.12794
0.127379
0.12688
0.126438
0.126048
0.125707
0.125408
0.125149
0.124926
0.124735
0.124574
0.124439
0.12433
0.124243
0.124177
0.124131
0.124103
0.124091
0.124096
0.124117
0.124151
0.124199
0.124259
0.124332
0.124416
0.124512
0.124617
0.124732
0.124857
0.12499
0.125131
0.12528
0.125437
0.1256
0.125769
0.125944
0.126125
0.12631
0.126501
0.126695
0.126893
0.127094
0.127298
0.127505
0.127715
0.127926
0.128139
0.128353
0.128568
0.128784
0.129001
0.129217
0.129434
0.129651
0.129867
0.130083
0.130298
0.130512
0.130724
0.130936
0.131146
0.131355
0.131562
0.131767
0.131971
0.132172
0.132372
0.132569
0.132764
0.132958
0.133148
0.133337
0.133523
0.133707
0.133889
0.134068
0.134245
0.13442
0.134592
0.134762
0.134929
0.135094
0.135257
0.135418
0.135576
0.135732
0.135886
0.136038
0.136187
0.136334
0.13648
0.136623
0.136765
0.136904
0.137042
0.137177
0.137311
0.137443
0.137574
0.137703
0.13783
0.137955
0.13808
0.138202
0.138323
0.138443
0.138562
0.138679
0.138795
0.139252
0.137813
0.13645
0.135168
0.13397
0.132858
0.131832
0.130892
0.130036
0.12926
0.128561
0.127934
0.127373
0.126875
0.126434
0.126045
0.125703
0.125404
0.125145
0.124921
0.124729
0.124566
0.124431
0.124319
0.12423
0.124163
0.124114
0.124084
0.124071
0.124074
0.124091
0.124124
0.124169
0.124228
0.124298
0.124381
0.124474
0.124577
0.124691
0.124813
0.124944
0.125084
0.125232
0.125386
0.125548
0.125716
0.125889
0.126069
0.126253
0.126442
0.126635
0.126832
0.127032
0.127236
0.127442
0.12765
0.12786
0.128073
0.128286
0.128501
0.128716
0.128933
0.129149
0.129366
0.129582
0.129798
0.130014
0.130228
0.130442
0.130655
0.130867
0.131077
0.131286
0.131493
0.131699
0.131903
0.132105
0.132305
0.132503
0.132699
0.132892
0.133084
0.133273
0.13346
0.133645
0.133827
0.134007
0.134185
0.134361
0.134534
0.134705
0.134873
0.135039
0.135203
0.135365
0.135524
0.135681
0.135836
0.135989
0.13614
0.136289
0.136435
0.13658
0.136723
0.136863
0.137002
0.137139
0.137275
0.137408
0.13754
0.13767
0.137799
0.137926
0.138051
0.138176
0.138298
0.138419
0.138539
0.138658
0.138775
0.139249
0.137806
0.136441
0.135157
0.133958
0.132847
0.131822
0.130883
0.130028
0.129254
0.128555
0.127929
0.12737
0.126872
0.126432
0.126043
0.125701
0.125402
0.125142
0.124917
0.124724
0.124559
0.124422
0.124308
0.124217
0.124147
0.124096
0.124063
0.124048
0.124048
0.124063
0.124093
0.124136
0.124192
0.12426
0.12434
0.124431
0.124532
0.124643
0.124763
0.124893
0.12503
0.125176
0.125329
0.125489
0.125655
0.125827
0.126005
0.126187
0.126375
0.126567
0.126763
0.126962
0.127164
0.127369
0.127577
0.127786
0.127998
0.128211
0.128425
0.12864
0.128855
0.129071
0.129288
0.129504
0.12972
0.129935
0.13015
0.130364
0.130577
0.130789
0.130999
0.131209
0.131416
0.131622
0.131827
0.132029
0.13223
0.132428
0.132625
0.132819
0.133011
0.133202
0.133389
0.133575
0.133758
0.13394
0.134118
0.134295
0.134469
0.134641
0.134811
0.134978
0.135143
0.135306
0.135467
0.135625
0.135782
0.135936
0.136088
0.136238
0.136386
0.136532
0.136677
0.136819
0.136959
0.137098
0.137235
0.13737
0.137503
0.137635
0.137765
0.137894
0.138021
0.138147
0.138271
0.138394
0.138515
0.138636
0.138755
0.139246
0.1378
0.136433
0.135148
0.133949
0.132837
0.131813
0.130876
0.130022
0.129249
0.128552
0.127927
0.127368
0.126872
0.126431
0.126043
0.125701
0.125401
0.12514
0.124914
0.124719
0.124553
0.124413
0.124298
0.124204
0.124131
0.124077
0.124041
0.124023
0.12402
0.124032
0.124059
0.124099
0.124152
0.124218
0.124295
0.124383
0.124482
0.12459
0.124708
0.124835
0.124971
0.125114
0.125265
0.125423
0.125587
0.125758
0.125934
0.126115
0.126301
0.126491
0.126686
0.126884
0.127085
0.127289
0.127495
0.127704
0.127915
0.128127
0.12834
0.128555
0.12877
0.128986
0.129202
0.129418
0.129633
0.129849
0.130063
0.130278
0.130491
0.130703
0.130914
0.131123
0.131331
0.131538
0.131743
0.131946
0.132147
0.132346
0.132543
0.132739
0.132932
0.133123
0.133312
0.133499
0.133683
0.133865
0.134045
0.134223
0.134399
0.134572
0.134743
0.134912
0.135078
0.135242
0.135405
0.135565
0.135722
0.135878
0.136032
0.136184
0.136333
0.136481
0.136627
0.136771
0.136913
0.137053
0.137192
0.137329
0.137464
0.137597
0.137729
0.13786
0.137988
0.138116
0.138242
0.138367
0.13849
0.138612
0.138733
0.139244
0.137795
0.136426
0.13514
0.133941
0.13283
0.131806
0.13087
0.130017
0.129246
0.12855
0.127926
0.127369
0.126873
0.126433
0.126044
0.125702
0.125402
0.12514
0.124912
0.124716
0.124548
0.124406
0.124287
0.124191
0.124115
0.124058
0.124019
0.123996
0.12399
0.123999
0.124022
0.124059
0.124109
0.124172
0.124246
0.124331
0.124427
0.124533
0.124648
0.124773
0.124906
0.125047
0.125196
0.125351
0.125513
0.125682
0.125856
0.126036
0.12622
0.126409
0.126602
0.126798
0.126998
0.127201
0.127407
0.127614
0.127824
0.128036
0.128248
0.128462
0.128677
0.128892
0.129108
0.129324
0.129539
0.129755
0.129969
0.130184
0.130397
0.130609
0.13082
0.13103
0.131239
0.131446
0.131651
0.131855
0.132057
0.132257
0.132456
0.132652
0.132846
0.133038
0.133228
0.133416
0.133602
0.133785
0.133967
0.134146
0.134323
0.134497
0.13467
0.13484
0.135008
0.135174
0.135338
0.135499
0.135659
0.135816
0.135972
0.136125
0.136277
0.136426
0.136574
0.13672
0.136863
0.137006
0.137146
0.137285
0.137422
0.137557
0.137691
0.137823
0.137954
0.138083
0.138211
0.138338
0.138463
0.138587
0.138709
0.139243
0.137791
0.13642
0.135133
0.133934
0.132823
0.131801
0.130866
0.130015
0.129245
0.12855
0.127928
0.127371
0.126876
0.126436
0.126047
0.125705
0.125404
0.125141
0.124912
0.124713
0.124543
0.124398
0.124277
0.124178
0.124098
0.124038
0.123995
0.123969
0.123959
0.123964
0.123984
0.124017
0.124064
0.124123
0.124194
0.124276
0.124369
0.124472
0.124584
0.124706
0.124836
0.124975
0.125121
0.125274
0.125434
0.125601
0.125773
0.12595
0.126133
0.12632
0.126511
0.126707
0.126905
0.127107
0.127311
0.127518
0.127727
0.127937
0.128149
0.128363
0.128577
0.128792
0.129007
0.129223
0.129438
0.129653
0.129868
0.130083
0.130296
0.130509
0.130721
0.130931
0.13114
0.131348
0.131554
0.131759
0.131961
0.132163
0.132362
0.132559
0.132754
0.132948
0.133139
0.133328
0.133515
0.1337
0.133883
0.134063
0.134242
0.134418
0.134592
0.134764
0.134934
0.135101
0.135267
0.13543
0.135592
0.135751
0.135908
0.136063
0.136217
0.136368
0.136518
0.136665
0.136811
0.136955
0.137098
0.137239
0.137378
0.137515
0.137651
0.137785
0.137918
0.138049
0.138179
0.138308
0.138435
0.138561
0.138685
0.139241
0.137787
0.136415
0.135128
0.133929
0.132819
0.131798
0.130864
0.130015
0.129246
0.128553
0.127931
0.127376
0.126881
0.126441
0.126052
0.125709
0.125408
0.125143
0.124912
0.124712
0.124539
0.124392
0.124268
0.124165
0.124082
0.124018
0.123971
0.123941
0.123927
0.123928
0.123944
0.123973
0.124016
0.124071
0.124139
0.124217
0.124307
0.124407
0.124516
0.124635
0.124762
0.124898
0.125042
0.125192
0.12535
0.125514
0.125684
0.12586
0.12604
0.126226
0.126415
0.126609
0.126806
0.127006
0.12721
0.127415
0.127623
0.127833
0.128044
0.128257
0.12847
0.128685
0.1289
0.129115
0.129331
0.129546
0.129761
0.129976
0.130189
0.130402
0.130615
0.130826
0.131035
0.131244
0.131451
0.131656
0.13186
0.132062
0.132262
0.132461
0.132657
0.132852
0.133045
0.133235
0.133424
0.13361
0.133794
0.133976
0.134156
0.134334
0.13451
0.134684
0.134855
0.135025
0.135192
0.135358
0.135521
0.135682
0.135841
0.135999
0.136154
0.136307
0.136459
0.136609
0.136757
0.136903
0.137047
0.13719
0.137331
0.137471
0.137609
0.137745
0.13788
0.138014
0.138146
0.138277
0.138406
0.138534
0.13866
0.13924
0.137784
0.136411
0.135123
0.133925
0.132816
0.131797
0.130865
0.130017
0.12925
0.128558
0.127937
0.127382
0.126888
0.126449
0.126059
0.125716
0.125413
0.125147
0.124914
0.124712
0.124537
0.124386
0.124259
0.124153
0.124066
0.123998
0.123947
0.123913
0.123895
0.123891
0.123903
0.123928
0.123966
0.124018
0.124081
0.124156
0.124242
0.124338
0.124445
0.12456
0.124685
0.124817
0.124958
0.125106
0.125261
0.125423
0.125591
0.125764
0.125943
0.126126
0.126314
0.126506
0.126701
0.1269
0.127102
0.127307
0.127514
0.127722
0.127933
0.128145
0.128358
0.128572
0.128787
0.129002
0.129217
0.129433
0.129648
0.129863
0.130077
0.13029
0.130503
0.130714
0.130925
0.131134
0.131342
0.131548
0.131753
0.131956
0.132158
0.132358
0.132555
0.132751
0.132945
0.133137
0.133328
0.133516
0.133701
0.133885
0.134067
0.134247
0.134425
0.1346
0.134774
0.134945
0.135114
0.135282
0.135447
0.13561
0.135772
0.135931
0.136089
0.136244
0.136398
0.13655
0.1367
0.136848
0.136995
0.13714
0.137284
0.137425
0.137566
0.137704
0.137841
0.137977
0.138111
0.138244
0.138376
0.138506
0.138635
0.139239
0.137782
0.136408
0.135121
0.133923
0.132816
0.131799
0.130868
0.130022
0.129256
0.128566
0.127946
0.127392
0.126897
0.126458
0.126068
0.125724
0.12542
0.125152
0.124918
0.124713
0.124535
0.124382
0.124251
0.124141
0.124051
0.123978
0.123923
0.123885
0.123862
0.123854
0.123861
0.123881
0.123915
0.123962
0.124022
0.124093
0.124175
0.124268
0.12437
0.124482
0.124604
0.124733
0.124871
0.125016
0.125169
0.125328
0.125493
0.125664
0.12584
0.126022
0.126208
0.126398
0.126592
0.126789
0.12699
0.127193
0.127399
0.127607
0.127817
0.128028
0.12824
0.128454
0.128668
0.128883
0.129099
0.129314
0.129529
0.129744
0.129959
0.130173
0.130386
0.130598
0.130809
0.131019
0.131228
0.131436
0.131642
0.131846
0.132049
0.13225
0.132449
0.132646
0.132842
0.133036
0.133227
0.133417
0.133605
0.13379
0.133974
0.134156
0.134335
0.134513
0.134688
0.134862
0.135033
0.135203
0.13537
0.135536
0.135699
0.135861
0.136021
0.136178
0.136334
0.136489
0.136641
0.136792
0.136941
0.137088
0.137234
0.137378
0.137521
0.137662
0.137801
0.137939
0.138076
0.138211
0.138345
0.138477
0.138608
0.139238
0.13778
0.136405
0.135119
0.133923
0.132818
0.131803
0.130875
0.130031
0.129267
0.128577
0.127958
0.127404
0.12691
0.12647
0.12608
0.125734
0.125429
0.125159
0.124923
0.124715
0.124534
0.124378
0.124244
0.12413
0.124035
0.123959
0.123899
0.123856
0.123829
0.123816
0.123818
0.123834
0.123863
0.123906
0.123961
0.124028
0.124106
0.124194
0.124293
0.124402
0.12452
0.124646
0.124781
0.124923
0.125072
0.125229
0.125391
0.12556
0.125734
0.125913
0.126097
0.126286
0.126478
0.126674
0.126873
0.127075
0.127279
0.127486
0.127695
0.127906
0.128118
0.128331
0.128545
0.12876
0.128975
0.12919
0.129406
0.129621
0.129836
0.13005
0.130264
0.130477
0.130689
0.1309
0.13111
0.131318
0.131525
0.131731
0.131935
0.132138
0.132338
0.132537
0.132734
0.13293
0.133123
0.133315
0.133504
0.133692
0.133878
0.134061
0.134243
0.134422
0.1346
0.134776
0.134949
0.135121
0.135291
0.135458
0.135624
0.135788
0.13595
0.13611
0.136269
0.136425
0.13658
0.136733
0.136885
0.137035
0.137183
0.137329
0.137474
0.137618
0.13776
0.1379
0.138039
0.138177
0.138313
0.138448
0.138581
0.139238
0.137779
0.136404
0.13512
0.133926
0.132824
0.131811
0.130886
0.130044
0.129281
0.128592
0.127974
0.12742
0.126925
0.126484
0.126093
0.125746
0.125439
0.125168
0.124929
0.124719
0.124535
0.124375
0.124237
0.124119
0.124021
0.12394
0.123876
0.123828
0.123795
0.123778
0.123774
0.123785
0.12381
0.123848
0.123898
0.123961
0.124034
0.124119
0.124214
0.124319
0.124433
0.124556
0.124687
0.124826
0.124973
0.125126
0.125286
0.125452
0.125624
0.125801
0.125983
0.126169
0.126359
0.126554
0.126751
0.126952
0.127155
0.127361
0.127569
0.127779
0.127991
0.128203
0.128417
0.128631
0.128847
0.129062
0.129278
0.129493
0.129709
0.129923
0.130138
0.130352
0.130564
0.130776
0.130987
0.131197
0.131405
0.131612
0.131818
0.132021
0.132224
0.132424
0.132623
0.13282
0.133016
0.133209
0.1334
0.13359
0.133778
0.133963
0.134147
0.134329
0.134509
0.134687
0.134862
0.135036
0.135208
0.135379
0.135547
0.135713
0.135878
0.13604
0.136201
0.13636
0.136518
0.136673
0.136827
0.136979
0.13713
0.137279
0.137427
0.137572
0.137717
0.13786
0.138001
0.138141
0.13828
0.138417
0.138553
0.139237
0.137778
0.136405
0.135122
0.133932
0.132833
0.131824
0.130901
0.130062
0.1293
0.128612
0.127994
0.127439
0.126943
0.126502
0.126109
0.125761
0.125452
0.125178
0.124937
0.124724
0.124537
0.124373
0.124232
0.12411
0.124007
0.123921
0.123852
0.123799
0.123762
0.123739
0.123731
0.123737
0.123756
0.123789
0.123835
0.123892
0.123962
0.124042
0.124133
0.124234
0.124344
0.124463
0.124591
0.124727
0.12487
0.125021
0.125178
0.125341
0.12551
0.125685
0.125864
0.126049
0.126237
0.12643
0.126626
0.126825
0.127027
0.127232
0.127439
0.127648
0.127859
0.128071
0.128285
0.128499
0.128714
0.128929
0.129145
0.129361
0.129577
0.129792
0.130007
0.130222
0.130436
0.130649
0.130861
0.131071
0.131281
0.131489
0.131696
0.131902
0.132105
0.132308
0.132508
0.132707
0.132904
0.1331
0.133293
0.133485
0.133675
0.133863
0.134048
0.134233
0.134415
0.134595
0.134773
0.134949
0.135124
0.135296
0.135467
0.135636
0.135803
0.135968
0.136132
0.136293
0.136453
0.136611
0.136768
0.136923
0.137076
0.137227
0.137377
0.137526
0.137673
0.137818
0.137962
0.138105
0.138246
0.138386
0.138524
0.139237
0.137778
0.136406
0.135127
0.133941
0.132846
0.131842
0.130922
0.130085
0.129325
0.128637
0.128018
0.127463
0.126966
0.126522
0.126128
0.125777
0.125467
0.125191
0.124947
0.124731
0.12454
0.124373
0.124227
0.124101
0.123993
0.123903
0.123829
0.123771
0.123729
0.123701
0.123687
0.123688
0.123702
0.123729
0.12377
0.123823
0.123888
0.123964
0.12405
0.124147
0.124253
0.124369
0.124493
0.124625
0.124765
0.124912
0.125066
0.125227
0.125393
0.125566
0.125743
0.125925
0.126112
0.126302
0.126497
0.126695
0.126896
0.127099
0.127305
0.127514
0.127724
0.127935
0.128148
0.128362
0.128577
0.128793
0.129009
0.129225
0.129441
0.129657
0.129873
0.130088
0.130303
0.130517
0.13073
0.130942
0.131153
0.131363
0.131571
0.131778
0.131984
0.132188
0.13239
0.132591
0.13279
0.132987
0.133183
0.133377
0.133569
0.133759
0.133947
0.134133
0.134318
0.1345
0.134681
0.13486
0.135037
0.135212
0.135385
0.135557
0.135726
0.135894
0.13606
0.136224
0.136387
0.136548
0.136707
0.136864
0.13702
0.137174
0.137327
0.137478
0.137628
0.137776
0.137923
0.138068
0.138212
0.138354
0.138495
0.139237
0.137779
0.13641
0.135135
0.133954
0.132865
0.131864
0.130949
0.130114
0.129355
0.128668
0.128048
0.127491
0.126992
0.126546
0.12615
0.125797
0.125483
0.125205
0.124958
0.124739
0.124545
0.124374
0.124224
0.124093
0.123981
0.123886
0.123807
0.123744
0.123696
0.123662
0.123643
0.123638
0.123647
0.12367
0.123705
0.123753
0.123813
0.123884
0.123966
0.124059
0.124161
0.124272
0.124392
0.124521
0.124658
0.124802
0.124953
0.12511
0.125274
0.125444
0.125618
0.125798
0.125983
0.126172
0.126365
0.126561
0.12676
0.126963
0.127168
0.127375
0.127585
0.127796
0.128008
0.128222
0.128437
0.128653
0.128869
0.129085
0.129302
0.129519
0.129735
0.129951
0.130167
0.130382
0.130596
0.130809
0.131022
0.131233
0.131443
0.131651
0.131859
0.132064
0.132269
0.132472
0.132673
0.132872
0.13307
0.133266
0.13346
0.133652
0.133843
0.134032
0.134219
0.134404
0.134587
0.134768
0.134948
0.135125
0.135301
0.135475
0.135648
0.135818
0.135987
0.136154
0.136319
0.136482
0.136644
0.136805
0.136963
0.13712
0.137276
0.137429
0.137582
0.137733
0.137882
0.13803
0.138176
0.138321
0.138465
0.139237
0.13778
0.136415
0.135146
0.13397
0.132887
0.131891
0.130979
0.130147
0.12939
0.128704
0.128083
0.127524
0.127023
0.126574
0.126175
0.125819
0.125503
0.125221
0.124971
0.124749
0.124551
0.124376
0.124222
0.124087
0.12397
0.12387
0.123786
0.123717
0.123663
0.123625
0.1236
0.12359
0.123593
0.12361
0.12364
0.123682
0.123737
0.123804
0.123881
0.123969
0.124067
0.124174
0.12429
0.124415
0.124548
0.124689
0.124837
0.124991
0.125152
0.125319
0.125491
0.125669
0.125851
0.126038
0.126229
0.126424
0.126622
0.126823
0.127027
0.127233
0.127442
0.127653
0.127865
0.128078
0.128293
0.128509
0.128725
0.128942
0.129159
0.129376
0.129594
0.129811
0.130027
0.130243
0.130459
0.130673
0.130887
0.131099
0.131311
0.131521
0.13173
0.131938
0.132144
0.132349
0.132552
0.132754
0.132954
0.133152
0.133348
0.133543
0.133736
0.133927
0.134117
0.134304
0.13449
0.134674
0.134856
0.135037
0.135215
0.135392
0.135567
0.13574
0.135912
0.136081
0.136249
0.136416
0.13658
0.136743
0.136905
0.137065
0.137223
0.137379
0.137535
0.137688
0.13784
0.137991
0.13814
0.138288
0.138434
0.139237
0.137783
0.136423
0.135159
0.13399
0.132912
0.13192
0.131012
0.130183
0.129429
0.128743
0.128123
0.127562
0.127058
0.126606
0.126203
0.125844
0.125524
0.12524
0.124986
0.124761
0.124559
0.12438
0.124222
0.124082
0.12396
0.123854
0.123765
0.123691
0.123632
0.123587
0.123557
0.123541
0.123538
0.12355
0.123574
0.123611
0.123661
0.123723
0.123795
0.123878
0.123972
0.124075
0.124187
0.124308
0.124437
0.124574
0.124718
0.12487
0.125028
0.125192
0.125362
0.125537
0.125717
0.125902
0.126091
0.126284
0.126481
0.12668
0.126883
0.127089
0.127296
0.127506
0.127718
0.127931
0.128146
0.128362
0.128578
0.128795
0.129013
0.129231
0.129449
0.129667
0.129884
0.130101
0.130318
0.130534
0.130749
0.130963
0.131176
0.131388
0.131599
0.131809
0.132017
0.132224
0.132429
0.132633
0.132835
0.133035
0.133234
0.133431
0.133627
0.133821
0.134013
0.134203
0.134391
0.134578
0.134763
0.134946
0.135127
0.135307
0.135484
0.13566
0.135835
0.136007
0.136178
0.136347
0.136515
0.136681
0.136845
0.137008
0.137169
0.137328
0.137486
0.137643
0.137798
0.137952
0.138104
0.138254
0.138403
0.139238
0.137787
0.136432
0.135175
0.134011
0.132938
0.131951
0.131047
0.130221
0.129469
0.128785
0.128165
0.127604
0.127097
0.126642
0.126235
0.125872
0.125549
0.125261
0.125004
0.124774
0.124569
0.124386
0.124223
0.124078
0.123951
0.12384
0.123745
0.123666
0.123601
0.123551
0.123515
0.123493
0.123484
0.12349
0.123508
0.12354
0.123585
0.123641
0.123709
0.123787
0.123876
0.123974
0.124082
0.124199
0.124324
0.124458
0.124599
0.124747
0.124902
0.125063
0.12523
0.125402
0.12558
0.125763
0.12595
0.126141
0.126336
0.126535
0.126737
0.126941
0.127148
0.127357
0.127568
0.127781
0.127996
0.128212
0.128428
0.128646
0.128864
0.129082
0.129301
0.12952
0.129738
0.129956
0.130174
0.130391
0.130608
0.130824
0.131039
0.131252
0.131465
0.131676
0.131887
0.132095
0.132303
0.132509
0.132713
0.132916
0.133117
0.133317
0.133515
0.133711
0.133906
0.134099
0.13429
0.134479
0.134667
0.134853
0.135037
0.135219
0.1354
0.135579
0.135756
0.135931
0.136105
0.136277
0.136448
0.136617
0.136784
0.136949
0.137114
0.137276
0.137437
0.137597
0.137755
0.137911
0.138066
0.13822
0.138371
0.139239
0.137792
0.136443
0.135192
0.134034
0.132965
0.131982
0.131082
0.13026
0.129511
0.128829
0.12821
0.127648
0.12714
0.126682
0.12627
0.125903
0.125576
0.125284
0.125023
0.124789
0.12458
0.124393
0.124225
0.124076
0.123943
0.123827
0.123727
0.123642
0.123571
0.123515
0.123473
0.123445
0.123431
0.12343
0.123443
0.123469
0.123508
0.123559
0.123622
0.123695
0.123779
0.123873
0.123977
0.124089
0.124211
0.12434
0.124477
0.124622
0.124774
0.124932
0.125096
0.125266
0.125441
0.125622
0.125807
0.125996
0.12619
0.126387
0.126587
0.126791
0.126997
0.127205
0.127416
0.127629
0.127843
0.128059
0.128275
0.128493
0.128712
0.128931
0.12915
0.12937
0.129589
0.129809
0.130028
0.130246
0.130464
0.130682
0.130898
0.131114
0.131328
0.131541
0.131754
0.131965
0.132174
0.132382
0.132589
0.132794
0.132998
0.1332
0.133401
0.1336
0.133797
0.133992
0.134186
0.134378
0.134569
0.134758
0.134944
0.13513
0.135313
0.135495
0.135675
0.135854
0.136031
0.136206
0.136379
0.136551
0.136721
0.13689
0.137057
0.137223
0.137387
0.13755
0.137711
0.137871
0.138029
0.138185
0.138339
0.13924
0.137797
0.136455
0.135209
0.134056
0.132992
0.132014
0.131118
0.130299
0.129553
0.128874
0.128256
0.127695
0.127185
0.126724
0.126309
0.125937
0.125605
0.125309
0.125044
0.124807
0.124593
0.124401
0.124229
0.124075
0.123937
0.123816
0.12371
0.123619
0.123543
0.12348
0.123432
0.123398
0.123378
0.123371
0.123378
0.123399
0.123432
0.123477
0.123534
0.123603
0.123682
0.123771
0.12387
0.123979
0.124096
0.124221
0.124355
0.124496
0.124644
0.124799
0.12496
0.125128
0.125301
0.125479
0.125662
0.125849
0.126041
0.126236
0.126435
0.126638
0.126843
0.127051
0.127261
0.127473
0.127687
0.127903
0.12812
0.128338
0.128557
0.128776
0.128997
0.129217
0.129438
0.129658
0.129878
0.130098
0.130318
0.130537
0.130755
0.130972
0.131188
0.131404
0.131618
0.131831
0.132043
0.132253
0.132462
0.13267
0.132876
0.133081
0.133284
0.133486
0.133686
0.133884
0.134081
0.134275
0.134469
0.13466
0.13485
0.135038
0.135225
0.13541
0.135593
0.135775
0.135954
0.136133
0.136309
0.136484
0.136658
0.13683
0.137
0.137169
0.137336
0.137502
0.137667
0.13783
0.137991
0.13815
0.138307
0.139241
0.137804
0.136467
0.135226
0.134077
0.133018
0.132044
0.131152
0.130338
0.129595
0.128919
0.128303
0.127742
0.127232
0.126769
0.12635
0.125974
0.125637
0.125337
0.125068
0.124826
0.124608
0.124412
0.124235
0.124076
0.123933
0.123806
0.123694
0.123597
0.123515
0.123447
0.123393
0.123352
0.123326
0.123313
0.123314
0.123328
0.123356
0.123396
0.123447
0.12351
0.123584
0.123669
0.123763
0.123867
0.12398
0.124101
0.124231
0.124368
0.124513
0.124665
0.124823
0.124988
0.125158
0.125334
0.125514
0.1257
0.12589
0.126084
0.126281
0.126482
0.126687
0.126894
0.127103
0.127315
0.127529
0.127744
0.127962
0.12818
0.128399
0.12862
0.128841
0.129062
0.129283
0.129505
0.129727
0.129948
0.130169
0.130389
0.130609
0.130828
0.131046
0.131264
0.13148
0.131695
0.131909
0.132122
0.132333
0.132543
0.132752
0.132959
0.133165
0.133369
0.133572
0.133773
0.133973
0.13417
0.134367
0.134561
0.134754
0.134945
0.135135
0.135323
0.135509
0.135694
0.135877
0.136058
0.136238
0.136416
0.136593
0.136768
0.136942
0.137114
0.137285
0.137454
0.137622
0.137788
0.137952
0.138114
0.138274
0.139242
0.13781
0.136479
0.135243
0.134099
0.133043
0.132074
0.131187
0.130376
0.129638
0.128964
0.12835
0.127791
0.127281
0.126816
0.126394
0.126014
0.125672
0.125367
0.125093
0.124847
0.124625
0.124424
0.124242
0.124078
0.12393
0.123798
0.12368
0.123577
0.123489
0.123414
0.123354
0.123307
0.123275
0.123256
0.12325
0.123259
0.12328
0.123314
0.12336
0.123418
0.123487
0.123566
0.123656
0.123755
0.123863
0.123981
0.124106
0.12424
0.124381
0.12453
0.124685
0.124846
0.125014
0.125187
0.125365
0.125549
0.125737
0.125929
0.126125
0.126325
0.126528
0.126734
0.126943
0.127155
0.127368
0.127584
0.127801
0.12802
0.128239
0.12846
0.128682
0.128904
0.129127
0.12935
0.129572
0.129795
0.130018
0.13024
0.130461
0.130682
0.130902
0.131121
0.13134
0.131557
0.131773
0.131988
0.132202
0.132414
0.132626
0.132836
0.133044
0.133251
0.133456
0.13366
0.133863
0.134063
0.134262
0.13446
0.134656
0.13485
0.135043
0.135234
0.135424
0.135611
0.135798
0.135982
0.136166
0.136347
0.136527
0.136706
0.136883
0.137059
0.137233
0.137406
0.137577
0.137746
0.137914
0.138078
0.13824
0.139244
0.137817
0.13649
0.135259
0.134119
0.133068
0.132103
0.13122
0.130414
0.129679
0.129009
0.128398
0.12784
0.12733
0.126865
0.12644
0.126056
0.12571
0.125399
0.125121
0.124871
0.124644
0.124439
0.124252
0.124082
0.123929
0.123791
0.123668
0.123559
0.123464
0.123383
0.123317
0.123264
0.123225
0.123199
0.123188
0.12319
0.123205
0.123233
0.123274
0.123326
0.123389
0.123464
0.123548
0.123643
0.123747
0.123859
0.123981
0.124111
0.124248
0.124393
0.124545
0.124703
0.124868
0.125039
0.125215
0.125396
0.125582
0.125772
0.125967
0.126166
0.126368
0.126573
0.126781
0.126992
0.127205
0.127421
0.127638
0.127857
0.128077
0.128299
0.128521
0.128744
0.128968
0.129192
0.129416
0.12964
0.129864
0.130088
0.130311
0.130533
0.130755
0.130976
0.131197
0.131416
0.131635
0.131852
0.132068
0.132283
0.132497
0.132709
0.132921
0.13313
0.133338
0.133545
0.13375
0.133954
0.134156
0.134357
0.134556
0.134753
0.134949
0.135144
0.135336
0.135528
0.135717
0.135905
0.136092
0.136277
0.136461
0.136643
0.136824
0.137004
0.137181
0.137358
0.137532
0.137704
0.137874
0.138042
0.138207
0.139245
0.137823
0.136501
0.135274
0.134138
0.133092
0.132132
0.131253
0.130452
0.129721
0.129054
0.128446
0.12789
0.127381
0.126914
0.126488
0.1261
0.125749
0.125434
0.125151
0.124896
0.124665
0.124455
0.124263
0.124088
0.123929
0.123786
0.123657
0.123542
0.123441
0.123354
0.123281
0.123222
0.123176
0.123144
0.123126
0.123121
0.123131
0.123153
0.123187
0.123234
0.123292
0.123361
0.12344
0.12353
0.123629
0.123738
0.123855
0.123981
0.124114
0.124256
0.124404
0.124559