/*--------------------------------*- C++ -*----------------------------------*\
  =========                 |
  \\      /  F ield         | OpenFOAM: The Open Source CFD Toolbox
   \\    /   O peration     | Website:  https://openfoam.org
    \\  /    A nd           | Version:  8
     \\/     M anipulation  |
\*---------------------------------------------------------------------------*/
FoamFile
{
    version     2.0;
    format      ascii;
    class       volScalarField;
    location    "3";
    object      p;
}
// * * * * * * * * * * * * * * * * * * * * * * * * * * * * * * * * * * * * * //

dimensions      [0 2 -2 0 0 0 0];

internalField   nonuniform List<scalar> 
277560
(
-0.00333442
-0.00553154
-0.00939868
-0.0127289
-0.0160392
-0.0192272
-0.0223162
-0.0253044
-0.0281949
-0.0309901
-0.0336924
-0.0363042
-0.0388281
-0.0412664
-0.0436215
-0.0458958
-0.0480914
-0.0502106
-0.0522555
-0.054228
-0.0561303
-0.0579642
-0.0597318
-0.0614346
-0.0630748
-0.0646538
-0.0661735
-0.0676355
-0.0690414
-0.0703929
-0.0716913
-0.0729383
-0.074135
-0.0752832
-0.0763839
-0.0774386
-0.0784484
-0.0794145
-0.0803381
-0.0812204
-0.0820622
-0.0828649
-0.0836292
-0.0843562
-0.0850467
-0.0857019
-0.0863225
-0.0869096
-0.0874638
-0.0879861
-0.088477
-0.0889375
-0.089368
-0.0897695
-0.0901425
-0.0904878
-0.0908058
-0.0910972
-0.0913627
-0.0916028
-0.091818
-0.0920089
-0.0921761
-0.0923201
-0.0924413
-0.0925403
-0.0926174
-0.0926733
-0.0927081
-0.0927226
-0.092717
-0.0926917
-0.0926471
-0.0925836
-0.0925015
-0.0924012
-0.0922829
-0.0921471
-0.0919938
-0.0918236
-0.0916365
-0.091433
-0.091213
-0.0909772
-0.0907253
-0.090458
-0.0901749
-0.0898768
-0.0895633
-0.0892351
-0.0888916
-0.0885339
-0.0881611
-0.0877742
-0.0873724
-0.0869568
-0.0865263
-0.0860822
-0.0856233
-0.0851509
-0.0846638
-0.0841633
-0.083648
-0.0831193
-0.0825761
-0.0820192
-0.0814478
-0.0808628
-0.080263
-0.0796496
-0.0790213
-0.0783793
-0.0777223
-0.0770515
-0.0763658
-0.0756645
-0.0749429
-0.0742191
-0.073558
-0.0728831
-0.00321286
-0.00563104
-0.00937517
-0.0127312
-0.0160355
-0.0192249
-0.022314
-0.0253026
-0.0281934
-0.0309887
-0.0336911
-0.0363031
-0.038827
-0.0412654
-0.0436206
-0.0458949
-0.0480907
-0.05021
-0.052255
-0.0542277
-0.0561303
-0.0579645
-0.0597323
-0.0614356
-0.0630761
-0.0646557
-0.0661759
-0.0676385
-0.0690451
-0.0703972
-0.0716964
-0.0729441
-0.0741418
-0.0752908
-0.0763925
-0.0774482
-0.0784591
-0.0794263
-0.0803511
-0.0812345
-0.0820777
-0.0828816
-0.0836473
-0.0843757
-0.0850677
-0.0857243
-0.0863465
-0.0869351
-0.0874909
-0.0880147
-0.0885074
-0.0889695
-0.0894018
-0.089805
-0.0901798
-0.0905268
-0.0908466
-0.0911399
-0.0914072
-0.0916491
-0.0918662
-0.0920591
-0.0922281
-0.092374
-0.092497
-0.092598
-0.092677
-0.0927348
-0.0927715
-0.0927879
-0.0927841
-0.0927608
-0.092718
-0.0926565
-0.0925761
-0.0924778
-0.0923612
-0.0922273
-0.0920758
-0.0919075
-0.0917221
-0.0915205
-0.0913022
-0.0910683
-0.090818
-0.0905525
-0.0902711
-0.0899748
-0.0896628
-0.0893364
-0.0889946
-0.0886386
-0.0882673
-0.0878822
-0.087482
-0.0870681
-0.0866392
-0.0861969
-0.0857396
-0.085269
-0.0847836
-0.0842849
-0.0837713
-0.0832445
-0.082703
-0.0821482
-0.0815786
-0.0809957
-0.080398
-0.0797868
-0.0791608
-0.0785213
-0.0778668
-0.0771989
-0.076516
-0.0758178
-0.0750994
-0.0743804
-0.0737245
-0.0730513
-0.00320141
-0.00565577
-0.00937478
-0.0127393
-0.0160435
-0.0192352
-0.0223261
-0.0253166
-0.0282093
-0.0310064
-0.0337105
-0.0363242
-0.0388498
-0.0412899
-0.0436468
-0.0459229
-0.0481204
-0.0502415
-0.0522884
-0.0542631
-0.0561676
-0.0580039
-0.0597738
-0.0614792
-0.0631219
-0.0647037
-0.0662263
-0.0676913
-0.0691003
-0.0704549
-0.0717567
-0.073007
-0.0742074
-0.075359
-0.0764635
-0.0775219
-0.0785356
-0.0795057
-0.0804334
-0.0813197
-0.0821658
-0.0829727
-0.0837413
-0.0844727
-0.0851677
-0.0858273
-0.0864524
-0.087044
-0.0876028
-0.0881296
-0.0886252
-0.0890902
-0.0895255
-0.0899316
-0.0903092
-0.090659
-0.0909817
-0.0912777
-0.0915477
-0.0917923
-0.092012
-0.0922074
-0.0923791
-0.0925274
-0.0926529
-0.0927561
-0.0928375
-0.0928975
-0.0929365
-0.092955
-0.0929534
-0.0929319
-0.0928912
-0.0928314
-0.0927531
-0.0926563
-0.0925416
-0.0924091
-0.0922594
-0.0920924
-0.0919086
-0.0917081
-0.0914914
-0.0912584
-0.0910096
-0.0907449
-0.0904649
-0.0901692
-0.0898586
-0.0895326
-0.089192
-0.0888363
-0.0884662
-0.0880812
-0.0876822
-0.0872683
-0.0868405
-0.086398
-0.0859417
-0.0854708
-0.0849863
-0.0844871
-0.0839745
-0.0834472
-0.0829064
-0.0823511
-0.0817822
-0.0811987
-0.0806018
-0.0799901
-0.0793649
-0.0787248
-0.0780711
-0.0774027
-0.0767208
-0.0760221
-0.0753051
-0.0745856
-0.0739317
-0.073258
-0.00320705
-0.00566098
-0.00938186
-0.0127517
-0.016059
-0.0192548
-0.0223497
-0.0253442
-0.0282407
-0.0310416
-0.0337495
-0.0363669
-0.0388963
-0.0413401
-0.0437007
-0.0459805
-0.0481818
-0.0503067
-0.0523574
-0.054336
-0.0562444
-0.0580846
-0.0598585
-0.061568
-0.0632148
-0.0648007
-0.0663275
-0.0677967
-0.0692099
-0.0705688
-0.0718749
-0.0731296
-0.0743343
-0.0754904
-0.0765992
-0.0776621
-0.0786801
-0.0796547
-0.0805868
-0.0814776
-0.082328
-0.0831393
-0.0839124
-0.0846481
-0.0853475
-0.0860114
-0.0866408
-0.0872366
-0.0877996
-0.0883305
-0.0888302
-0.0892993
-0.0897385
-0.0901486
-0.0905301
-0.0908837
-0.0912101
-0.0915098
-0.0917835
-0.0920316
-0.0922549
-0.0924537
-0.0926287
-0.0927802
-0.092909
-0.0930153
-0.0930998
-0.0931627
-0.0932047
-0.0932259
-0.0932271
-0.0932083
-0.0931702
-0.0931129
-0.093037
-0.0929425
-0.0928302
-0.0926999
-0.0925524
-0.0923874
-0.0922057
-0.0920071
-0.0917924
-0.0915611
-0.0913142
-0.0910511
-0.0907728
-0.0904786
-0.0901697
-0.0898451
-0.089506
-0.0891516
-0.088783
-0.0883993
-0.0880016
-0.0875888
-0.0871624
-0.0867209
-0.086266
-0.0857961
-0.0853128
-0.0848147
-0.0843032
-0.0837769
-0.0832374
-0.082683
-0.0821153
-0.0815328
-0.080937
-0.0803263
-0.0797022
-0.0790631
-0.0784106
-0.0777432
-0.0770623
-0.0763647
-0.0756487
-0.0749301
-0.0742772
-0.0736048
-0.00320863
-0.0056632
-0.00939278
-0.0127682
-0.0160812
-0.0192831
-0.0223839
-0.0253843
-0.0282866
-0.0310932
-0.0338068
-0.0364298
-0.0389647
-0.041414
-0.0437802
-0.0460656
-0.0482724
-0.0504029
-0.0524592
-0.0544434
-0.0563575
-0.0582035
-0.0599831
-0.0616984
-0.063351
-0.0649428
-0.0664754
-0.0679505
-0.0693697
-0.0707345
-0.0720465
-0.0733072
-0.0745179
-0.07568
-0.0767947
-0.0778636
-0.0788876
-0.0798681
-0.0808061
-0.0817028
-0.0825591
-0.0833763
-0.0841551
-0.0848966
-0.0856016
-0.0862712
-0.0869061
-0.0875074
-0.0880758
-0.0886121
-0.089117
-0.0895913
-0.0900356
-0.0904507
-0.0908372
-0.0911957
-0.0915268
-0.0918311
-0.0921093
-0.092362
-0.0925895
-0.0927926
-0.0929717
-0.0931273
-0.0932599
-0.0933701
-0.0934582
-0.0935248
-0.0935701
-0.0935948
-0.0935992
-0.0935836
-0.0935485
-0.0934942
-0.093421
-0.0933295
-0.0932196
-0.093092
-0.0929466
-0.0927841
-0.0926045
-0.0924082
-0.0921952
-0.0919661
-0.0917207
-0.0914596
-0.0911825
-0.0908902
-0.0905823
-0.0902594
-0.0899212
-0.0895684
-0.0892004
-0.088818
-0.0884207
-0.0880092
-0.0875829
-0.0871427
-0.0866877
-0.0862189
-0.0857353
-0.0852382
-0.0847262
-0.0842008
-0.0836606
-0.0831068
-0.0825384
-0.0819564
-0.0813597
-0.0807493
-0.0801242
-0.0794853
-0.0788316
-0.0781642
-0.0774821
-0.0767844
-0.0760667
-0.0753482
-0.0746937
-0.0740218
-0.00320772
-0.00566387
-0.00940717
-0.0127892
-0.0161104
-0.0193201
-0.0224287
-0.0254367
-0.0283466
-0.0311608
-0.0338818
-0.0365121
-0.0390543
-0.041511
-0.0438844
-0.0461771
-0.0483912
-0.050529
-0.0525927
-0.0545843
-0.0565058
-0.0583591
-0.0601462
-0.061869
-0.0635291
-0.0651284
-0.0666686
-0.0681512
-0.069578
-0.0709504
-0.07227
-0.0735382
-0.0747565
-0.0759262
-0.0770486
-0.0781249
-0.0791564
-0.0801443
-0.0810898
-0.0819937
-0.0828575
-0.0836818
-0.0844678
-0.0852164
-0.0859286
-0.086605
-0.0872468
-0.0878548
-0.0884299
-0.0889727
-0.0894841
-0.0899647
-0.0904153
-0.0908364
-0.0912289
-0.0915932
-0.09193
-0.09224
-0.0925236
-0.0927816
-0.0930143
-0.0932225
-0.0934065
-0.0935669
-0.0937042
-0.0938189
-0.0939114
-0.0939822
-0.0940317
-0.0940603
-0.0940685
-0.0940567
-0.094025
-0.0939742
-0.0939043
-0.0938159
-0.093709
-0.0935844
-0.0934418
-0.093282
-0.0931048
-0.092911
-0.0927002
-0.0924734
-0.0922299
-0.0919709
-0.0916956
-0.0914052
-0.0910988
-0.0907776
-0.0904407
-0.0900893
-0.0897224
-0.0893414
-0.088945
-0.0885347
-0.0881092
-0.0876699
-0.0872155
-0.0867475
-0.0862644
-0.0857679
-0.0852563
-0.0847314
-0.0841914
-0.083638
-0.0830697
-0.0824879
-0.0818911
-0.0812808
-0.0806555
-0.0800166
-0.0793625
-0.078695
-0.0780123
-0.0773142
-0.0765959
-0.0758768
-0.0752217
-0.0745495
-0.00320532
-0.00566345
-0.00942455
-0.0128146
-0.016146
-0.0193654
-0.0224837
-0.0255012
-0.0284204
-0.0312438
-0.0339739
-0.0366133
-0.0391646
-0.0416302
-0.0440127
-0.0463143
-0.0485374
-0.0506843
-0.052757
-0.0547576
-0.0566882
-0.0585506
-0.0603469
-0.0620787
-0.063748
-0.0653565
-0.0669059
-0.0683977
-0.0698336
-0.0712152
-0.072544
-0.0738214
-0.0750489
-0.0762277
-0.0773592
-0.0784446
-0.079485
-0.0804819
-0.0814362
-0.082349
-0.0832214
-0.0840544
-0.084849
-0.085606
-0.0863265
-0.0870112
-0.0876611
-0.0882771
-0.08886
-0.0894106
-0.0899295
-0.0904176
-0.0908754
-0.0913037
-0.0917032
-0.0920743
-0.0924179
-0.0927343
-0.0930244
-0.0932885
-0.0935273
-0.0937413
-0.0939311
-0.094097
-0.0942397
-0.0943596
-0.0944571
-0.0945327
-0.094587
-0.0946201
-0.0946327
-0.094625
-0.0945975
-0.0945505
-0.0944844
-0.0943995
-0.0942962
-0.0941746
-0.0940353
-0.0938782
-0.0937041
-0.0935127
-0.0933047
-0.0930799
-0.092839
-0.0925817
-0.0923088
-0.0920197
-0.0917154
-0.0913952
-0.0910603
-0.0907096
-0.0903445
-0.0899638
-0.089569
-0.0891588
-0.0887346
-0.0882951
-0.0878419
-0.0873735
-0.0868914
-0.0863941
-0.0858834
-0.0853574
-0.084818
-0.0842635
-0.0836954
-0.0831122
-0.0825155
-0.0819036
-0.0812781
-0.0806373
-0.0799828
-0.0793131
-0.0786298
-0.0779294
-0.0772103
-0.0764884
-0.0758326
-0.0751574
-0.00320116
-0.00566273
-0.00944486
-0.0128444
-0.0161882
-0.019419
-0.0225487
-0.0255773
-0.0285076
-0.0313419
-0.0340828
-0.036733
-0.039295
-0.0417712
-0.0441643
-0.0464766
-0.0487103
-0.0508678
-0.0529512
-0.0549625
-0.0569038
-0.0587769
-0.0605839
-0.0623266
-0.0640067
-0.0656259
-0.0671861
-0.0686887
-0.0701354
-0.0715278
-0.0728673
-0.0741554
-0.0753935
-0.0765831
-0.0777251
-0.0788211
-0.079872
-0.0808792
-0.0818438
-0.0827669
-0.0836494
-0.0844924
-0.0852968
-0.0860637
-0.0867938
-0.0874881
-0.0881473
-0.0887725
-0.0893644
-0.0899239
-0.0904515
-0.0909481
-0.0914143
-0.0918508
-0.0922583
-0.0926373
-0.0929884
-0.0933124
-0.0936097
-0.0938809
-0.0941265
-0.0943472
-0.0945434
-0.0947157
-0.0948644
-0.0949902
-0.0950934
-0.0951746
-0.0952341
-0.0952724
-0.0952898
-0.0952869
-0.0952639
-0.0952213
-0.0951593
-0.0950784
-0.0949788
-0.094861
-0.094725
-0.0945714
-0.0944001
-0.0942118
-0.0940064
-0.0937845
-0.0935458
-0.093291
-0.0930199
-0.0927331
-0.0924304
-0.0921122
-0.0917784
-0.0914296
-0.0910652
-0.0906862
-0.0902918
-0.0898829
-0.0894589
-0.0890206
-0.0885672
-0.0880997
-0.0876171
-0.0871207
-0.0866091
-0.0860837
-0.0855433
-0.0849891
-0.0844198
-0.0838368
-0.0832386
-0.0826266
-0.0819994
-0.0813583
-0.080702
-0.0800317
-0.0793464
-0.0786452
-0.0779237
-0.077201
-0.0765429
-0.0758675
-0.00319503
-0.00566226
-0.00946787
-0.0128784
-0.0162366
-0.0194805
-0.0226233
-0.0256648
-0.0286077
-0.0314546
-0.034208
-0.0368705
-0.0394448
-0.0419333
-0.0443386
-0.0466631
-0.0489091
-0.0510788
-0.0531744
-0.055198
-0.0571516
-0.0590371
-0.0608564
-0.0626114
-0.0643039
-0.0659355
-0.067508
-0.069023
-0.0704821
-0.0718868
-0.0732385
-0.0745389
-0.0757892
-0.0769908
-0.078145
-0.079253
-0.0803159
-0.0813349
-0.0823112
-0.0832458
-0.0841399
-0.0849942
-0.0858099
-0.0865878
-0.0873289
-0.0880339
-0.0887037
-0.0893393
-0.0899414
-0.0905109
-0.0910484
-0.0915546
-0.0920303
-0.092476
-0.0928924
-0.0932802
-0.09364
-0.0939723
-0.0942777
-0.0945568
-0.0948102
-0.0950383
-0.0952418
-0.095421
-0.0955766
-0.0957089
-0.0958185
-0.0959058
-0.0959711
-0.0960151
-0.096038
-0.0960403
-0.0960223
-0.0959845
-0.0959271
-0.0958506
-0.0957552
-0.0956413
-0.0955091
-0.095359
-0.0951911
-0.0950061
-0.0948036
-0.0945845
-0.0943483
-0.0940961
-0.0938271
-0.0935425
-0.0932414
-0.0929252
-0.0925927
-0.0922454
-0.0918821
-0.0915043
-0.0911106
-0.0907027
-0.090279
-0.0898413
-0.089388
-0.0889208
-0.088438
-0.0879415
-0.0874295
-0.0869038
-0.0863626
-0.0858077
-0.0852374
-0.0846534
-0.0840539
-0.0834406
-0.0828119
-0.0821693
-0.0815111
-0.080839
-0.0801515
-0.0794483
-0.0787242
-0.0779992
-0.0773388
-0.0766614
-0.00318682
-0.00566251
-0.00949365
-0.0129168
-0.0162911
-0.0195499
-0.0227073
-0.0257633
-0.0287205
-0.0315815
-0.0343489
-0.0370253
-0.0396134
-0.0421158
-0.0445349
-0.0468731
-0.0491329
-0.0513164
-0.0534258
-0.0554632
-0.0574306
-0.05933
-0.0611633
-0.0629322
-0.0646385
-0.0662841
-0.0678705
-0.0693994
-0.0708723
-0.0722908
-0.0736564
-0.0749705
-0.0762344
-0.0774497
-0.0786175
-0.0797389
-0.0808151
-0.0818474
-0.0828368
-0.0837844
-0.0846913
-0.0855583
-0.0863866
-0.0871769
-0.0879301
-0.0886471
-0.0893288
-0.0899759
-0.0905895
-0.0911701
-0.0917185
-0.0922354
-0.0927216
-0.0931776
-0.093604
-0.0940016
-0.0943709
-0.0947124
-0.0950269
-0.0953148
-0.0955767
-0.0958131
-0.0960246
-0.0962115
-0.0963746
-0.0965142
-0.0966308
-0.0967248
-0.0967967
-0.0968468
-0.0968758
-0.0968838
-0.0968714
-0.0968388
-0.0967865
-0.0967147
-0.0966239
-0.0965142
-0.0963862
-0.0962399
-0.0960759
-0.0958941
-0.095695
-0.0954787
-0.0952456
-0.0949957
-0.0947294
-0.0944467
-0.094148
-0.0938332
-0.0935028
-0.0931565
-0.092795
-0.0924177
-0.0920255
-0.0916177
-0.0911953
-0.0907573
-0.0903049
-0.0898371
-0.089355
-0.0888575
-0.0883458
-0.0878188
-0.0872777
-0.0867212
-0.0861506
-0.0855647
-0.0849646
-0.0843491
-0.0837195
-0.0830745
-0.0824151
-0.0817404
-0.0810515
-0.0803452
-0.0796197
-0.0788912
-0.0782293
-0.0775483
-0.00317657
-0.00566378
-0.00952206
-0.0129594
-0.0163516
-0.0196267
-0.0228005
-0.0258725
-0.0288455
-0.0317222
-0.0345051
-0.0371969
-0.0398004
-0.042318
-0.0447524
-0.0471059
-0.049381
-0.0515798
-0.0537045
-0.0557572
-0.05774
-0.0596548
-0.0615034
-0.0632878
-0.0650095
-0.0666705
-0.0682723
-0.0698166
-0.0713049
-0.0727388
-0.0741196
-0.0754489
-0.076728
-0.0779583
-0.0791411
-0.0802774
-0.0813685
-0.0824153
-0.0834192
-0.0843812
-0.0853022
-0.0861833
-0.0870254
-0.0878293
-0.088596
-0.0893263
-0.090021
-0.090681
-0.091307
-0.0918999
-0.0924604
-0.0929891
-0.0934868
-0.093954
-0.0943915
-0.0947998
-0.0951796
-0.0955313
-0.0958557
-0.0961532
-0.0964245
-0.0966699
-0.0968902
-0.0970857
-0.097257
-0.0974045
-0.0975287
-0.0976301
-0.0977091
-0.0977661
-0.0978015
-0.0978158
-0.0978094
-0.0977825
-0.0977357
-0.0976691
-0.0975833
-0.0974783
-0.0973547
-0.0972126
-0.0970525
-0.0968744
-0.0966789
-0.0964657
-0.0962357
-0.0959884
-0.0957249
-0.0954443
-0.095148
-0.0948348
-0.0945063
-0.0941613
-0.0938012
-0.0934248
-0.0930337
-0.0926264
-0.0922046
-0.0917668
-0.0913147
-0.0908466
-0.0903644
-0.0898664
-0.0893542
-0.0888263
-0.0882843
-0.0877265
-0.0871548
-0.0865673
-0.0859657
-0.0853484
-0.0847169
-0.0840696
-0.0834081
-0.0827308
-0.0820394
-0.0813302
-0.0806018
-0.0798702
-0.0792057
-0.0785219
-0.00316431
-0.00566635
-0.00955319
-0.0130062
-0.0164179
-0.019711
-0.0229026
-0.0259921
-0.0289824
-0.0318762
-0.0346761
-0.0373848
-0.0400051
-0.0425395
-0.0449906
-0.0473608
-0.0496526
-0.0518681
-0.0540096
-0.0560792
-0.0580788
-0.0600104
-0.0618759
-0.0636772
-0.0654159
-0.0670937
-0.0687124
-0.0702736
-0.0717787
-0.0732294
-0.0746269
-0.0759729
-0.0772685
-0.0785154
-0.0797145
-0.0808672
-0.0819744
-0.0830374
-0.0840571
-0.0850347
-0.0859713
-0.0868677
-0.0877249
-0.0885438
-0.0893252
-0.09007
-0.0907789
-0.0914528
-0.0920926
-0.0926989
-0.0932725
-0.0938142
-0.0943244
-0.094804
-0.0952535
-0.0956735
-0.0960646
-0.0964275
-0.0967627
-0.0970707
-0.0973521
-0.0976075
-0.0978373
-0.098042
-0.0982222
-0.0983784
-0.0985109
-0.0986203
-0.098707
-0.0987714
-0.098814
-0.0988351
-0.0988351
-0.0988145
-0.0987736
-0.0987127
-0.0986321
-0.0985323
-0.0984134
-0.098276
-0.09812
-0.097946
-0.097754
-0.0975446
-0.0973176
-0.0970736
-0.0968124
-0.0965347
-0.0962402
-0.0959295
-0.0956023
-0.0952594
-0.0949002
-0.0945255
-0.0941347
-0.0937287
-0.0933068
-0.0928699
-0.0924173
-0.0919498
-0.0914667
-0.0909688
-0.0904553
-0.0899272
-0.0893835
-0.0888253
-0.0882514
-0.087663
-0.0870589
-0.0864403
-0.085806
-0.0851571
-0.0844924
-0.0838132
-0.0831183
-0.0824069
-0.0816745
-0.0809406
-0.0802722
-0.0795869
-0.00315011
-0.0056704
-0.00958692
-0.0130572
-0.0164899
-0.0198023
-0.0230132
-0.0261217
-0.0291308
-0.0320431
-0.0348613
-0.0375884
-0.0402268
-0.0427794
-0.0452486
-0.047637
-0.0499469
-0.0521806
-0.0543404
-0.0564281
-0.058446
-0.060396
-0.0622798
-0.0640994
-0.0658564
-0.0675526
-0.0691897
-0.0707691
-0.0722925
-0.0737614
-0.0751772
-0.0765412
-0.0778549
-0.0791196
-0.0803366
-0.0815069
-0.0826317
-0.0837121
-0.0847491
-0.0857438
-0.0866971
-0.0876102
-0.0884838
-0.0893189
-0.0901163
-0.0908767
-0.0916011
-0.0922902
-0.0929448
-0.0935657
-0.0941536
-0.0947092
-0.0952331
-0.095726
-0.0961885
-0.0966212
-0.0970247
-0.0973996
-0.0977465
-0.0980659
-0.0983583
-0.0986244
-0.0988645
-0.0990793
-0.0992691
-0.0994346
-0.0995761
-0.0996942
-0.0997892
-0.0998616
-0.0999118
-0.0999403
-0.0999474
-0.0999335
-0.0998988
-0.0998441
-0.0997692
-0.0996749
-0.0995612
-0.0994286
-0.0992771
-0.0991075
-0.0989194
-0.0987138
-0.0984901
-0.0982494
-0.097991
-0.097716
-0.0974238
-0.0971154
-0.0967899
-0.0964487
-0.0960907
-0.0957173
-0.0953273
-0.0949221
-0.0945005
-0.094064
-0.0936112
-0.0931436
-0.0926599
-0.0921615
-0.0916471
-0.0911181
-0.0905729
-0.0900134
-0.0894377
-0.0888477
-0.0882414
-0.0876208
-0.086984
-0.0863327
-0.0856651
-0.0849831
-0.0842849
-0.0835704
-0.0828343
-0.0820969
-0.0814252
-0.0807367
-0.00313406
-0.0056761
-0.00962332
-0.0131122
-0.0165675
-0.0199006
-0.0231323
-0.026261
-0.0292902
-0.0322224
-0.0350604
-0.0378071
-0.0404651
-0.0430372
-0.0455259
-0.0479338
-0.0502633
-0.0525166
-0.0546958
-0.0568033
-0.0588408
-0.0608104
-0.062714
-0.0645533
-0.0663301
-0.0680461
-0.0697029
-0.0713021
-0.0728453
-0.0743338
-0.0757691
-0.0771527
-0.0784857
-0.0797698
-0.0810059
-0.0821953
-0.0833391
-0.0844382
-0.0854938
-0.0865069
-0.0874784
-0.0884094
-0.0893008
-0.0901533
-0.0909679
-0.0917453
-0.0924863
-0.0931917
-0.0938624
-0.0944989
-0.0951022
-0.0956729
-0.0962115
-0.0967188
-0.0971953
-0.0976417
-0.0980585
-0.0984464
-0.0988059
-0.0991375
-0.0994418
-0.0997194
-0.0999707
-0.100196
-0.100397
-0.100572
-0.100723
-0.100851
-0.100955
-0.101036
-0.101094
-0.10113
-0.101145
-0.101138
-0.101111
-0.101062
-0.100994
-0.100905
-0.100797
-0.10067
-0.100523
-0.100358
-0.100174
-0.0999724
-0.0997527
-0.0995151
-0.0992601
-0.0989877
-0.0986983
-0.0983918
-0.0980688
-0.0977289
-0.0973729
-0.0970002
-0.0966117
-0.0962067
-0.0957862
-0.0953494
-0.0948972
-0.0944288
-0.0939452
-0.0934456
-0.0929309
-0.0924001
-0.0918543
-0.0912924
-0.0907157
-0.0901228
-0.0895152
-0.0888913
-0.0882525
-0.0875976
-0.0869278
-0.0862419
-0.0855411
-0.0848223
-0.0840834
-0.0833411
-0.0826667
-0.0819734
-0.00311627
-0.00568357
-0.00966228
-0.0131713
-0.0166504
-0.0200056
-0.0232593
-0.0264097
-0.0294603
-0.0324137
-0.0352728
-0.0380404
-0.0407194
-0.0433123
-0.0458218
-0.0482506
-0.0506008
-0.052875
-0.0550752
-0.0572036
-0.0592622
-0.0612529
-0.0631776
-0.0650381
-0.066836
-0.0685732
-0.0702511
-0.0718715
-0.0734357
-0.0749453
-0.0764016
-0.0778061
-0.07916
-0.0804647
-0.0817214
-0.0829312
-0.0840953
-0.0852145
-0.0862901
-0.0873229
-0.0883139
-0.0892641
-0.0901745
-0.0910457
-0.0918787
-0.0926743
-0.0934332
-0.0941562
-0.094844
-0.0954974
-0.0961172
-0.096704
-0.0972584
-0.0977811
-0.0982727
-0.0987338
-0.0991649
-0.0995667
-0.0999397
-0.100284
-0.100602
-0.100891
-0.101155
-0.101392
-0.101603
-0.101789
-0.101951
-0.102088
-0.102202
-0.102292
-0.10236
-0.102404
-0.102427
-0.102428
-0.102408
-0.102366
-0.102304
-0.102222
-0.10212
-0.101998
-0.101857
-0.101696
-0.101518
-0.10132
-0.101104
-0.10087
-0.100618
-0.100349
-0.100062
-0.099758
-0.0994371
-0.099099
-0.0987445
-0.098373
-0.0979855
-0.0975812
-0.0971612
-0.0967245
-0.0962723
-0.0958035
-0.0953195
-0.0948188
-0.0943032
-0.0937709
-0.0932239
-0.0926601
-0.0920816
-0.0914863
-0.0908764
-0.0902498
-0.0896085
-0.0889504
-0.0882775
-0.0875879
-0.0868836
-0.0861608
-0.085418
-0.0846713
-0.0839934
-0.0832963
-0.00309683
-0.00569294
-0.00970384
-0.0132343
-0.0167386
-0.0201172
-0.0233941
-0.0265674
-0.0296407
-0.0326166
-0.0354981
-0.0382879
-0.040989
-0.043604
-0.0461357
-0.0485865
-0.0509589
-0.0532553
-0.0554778
-0.0576285
-0.0597094
-0.0617225
-0.0636697
-0.0655526
-0.0673731
-0.0691328
-0.0708333
-0.0724761
-0.0740629
-0.0755949
-0.0770736
-0.0785003
-0.0798764
-0.0812032
-0.0824818
-0.0837134
-0.0848991
-0.0860399
-0.0871366
-0.0881905
-0.0892023
-0.090173
-0.0911037
-0.0919949
-0.0928476
-0.0936626
-0.0944405
-0.0951822
-0.0958884
-0.0965599
-0.0971973
-0.0978013
-0.0983726
-0.0989118
-0.0994195
-0.0998962
-0.100343
-0.100759
-0.101147
-0.101506
-0.101836
-0.102139
-0.102415
-0.102665
-0.102888
-0.103086
-0.103259
-0.103407
-0.103531
-0.103631
-0.103707
-0.103761
-0.103793
-0.103802
-0.103789
-0.103756
-0.103701
-0.103625
-0.103529
-0.103413
-0.103278
-0.103123
-0.102948
-0.102755
-0.102544
-0.102314
-0.102065
-0.101799
-0.101515
-0.101214
-0.100895
-0.100559
-0.100206
-0.0998363
-0.0994495
-0.0990464
-0.0986264
-0.0981904
-0.0977377
-0.0972691
-0.0967839
-0.0962831
-0.0957657
-0.0952328
-0.0946833
-0.0941185
-0.093537
-0.0929404
-0.092327
-0.0916985
-0.0910532
-0.0903926
-0.0897154
-0.089023
-0.088314
-0.0875879
-0.0868397
-0.0860895
-0.0854066
-0.0847069
-0.00307588
-0.0057043
-0.0097479
-0.0133011
-0.0168319
-0.020235
-0.0235364
-0.0267339
-0.0298311
-0.0328307
-0.0357357
-0.038549
-0.0412734
-0.0439118
-0.0464668
-0.0489409
-0.0513368
-0.0536566
-0.0559026
-0.0580769
-0.0601815
-0.0622183
-0.0641892
-0.066096
-0.0679403
-0.0697239
-0.0714483
-0.073115
-0.0747256
-0.0762814
-0.0777838
-0.0792342
-0.0806338
-0.081984
-0.0832859
-0.0845407
-0.0857494
-0.0869129
-0.0880323
-0.0891085
-0.0901424
-0.091135
-0.0920872
-0.0929997
-0.0938734
-0.094709
-0.0955072
-0.0962689
-0.0969946
-0.0976852
-0.0983414
-0.0989638
-0.0995531
-0.10011
-0.100635
-0.101128
-0.101591
-0.102023
-0.102426
-0.1028
-0.103145
-0.103462
-0.103752
-0.104015
-0.104251
-0.104461
-0.104645
-0.104805
-0.10494
-0.10505
-0.105137
-0.105201
-0.105241
-0.105259
-0.105255
-0.105229
-0.105182
-0.105113
-0.105024
-0.104915
-0.104785
-0.104635
-0.104466
-0.104278
-0.104071
-0.103845
-0.1036
-0.103338
-0.103057
-0.102758
-0.102441
-0.102108
-0.101756
-0.101388
-0.101002
-0.1006
-0.10018
-0.0997446
-0.0992916
-0.0988228
-0.0983368
-0.0978351
-0.0973163
-0.0967821
-0.0962307
-0.0956641
-0.0950802
-0.0944812
-0.0938649
-0.0932335
-0.0925849
-0.0919211
-0.09124
-0.0905438
-0.0898305
-0.0891002
-0.0883471
-0.0875924
-0.0869051
-0.0862013
-0.00305352
-0.00571772
-0.00979448
-0.0133718
-0.0169301
-0.0203589
-0.0236861
-0.0269088
-0.030031
-0.0330555
-0.0359852
-0.0388231
-0.0415721
-0.044235
-0.0468145
-0.0493133
-0.0517337
-0.0540782
-0.056349
-0.0585481
-0.0606776
-0.0627395
-0.0647354
-0.0666673
-0.0685368
-0.0703456
-0.0720951
-0.0737871
-0.0754228
-0.0770038
-0.0785313
-0.0800067
-0.0814312
-0.0828062
-0.0841327
-0.085412
-0.0866449
-0.0878326
-0.0889759
-0.0900758
-0.0911332
-0.0921489
-0.0931239
-0.094059
-0.0949549
-0.0958123
-0.0966321
-0.0974149
-0.0981614
-0.0988724
-0.0995485
-0.10019
-0.100799
-0.101374
-0.101917
-0.102428
-0.102908
-0.103358
-0.103777
-0.104167
-0.104527
-0.104859
-0.105164
-0.10544
-0.10569
-0.105913
-0.10611
-0.106282
-0.106428
-0.10655
-0.106647
-0.106721
-0.106772
-0.106799
-0.106804
-0.106786
-0.106747
-0.106686
-0.106604
-0.106501
-0.106378
-0.106234
-0.106071
-0.105888
-0.105685
-0.105464
-0.105223
-0.104964
-0.104687
-0.104391
-0.104077
-0.103745
-0.103396
-0.103029
-0.102645
-0.102243
-0.101824
-0.101388
-0.100936
-0.100466
-0.0999798
-0.0994766
-0.0989572
-0.0984207
-0.0978683
-0.0972987
-0.0967133
-0.0961107
-0.0954925
-0.0948569
-0.0942058
-0.0935373
-0.0928532
-0.0921518
-0.091435
-0.090699
-0.0899421
-0.0891811
-0.0884901
-0.0877803
-0.00302987
-0.00573327
-0.0098435
-0.0134461
-0.0170331
-0.0204887
-0.0238426
-0.0270917
-0.0302401
-0.0332905
-0.0362461
-0.0391098
-0.0418845
-0.0445731
-0.0471783
-0.0497028
-0.052149
-0.0545193
-0.0568161
-0.0590413
-0.0611969
-0.063285
-0.0653073
-0.0672656
-0.0691615
-0.0709968
-0.0727729
-0.0744913
-0.0761536
-0.077761
-0.0793149
-0.0808166
-0.0822675
-0.0836684
-0.0850211
-0.0863261
-0.0875847
-0.0887978
-0.0899664
-0.0910913
-0.0921736
-0.0932136
-0.0942128
-0.0951716
-0.096091
-0.0969716
-0.0978142
-0.0986193
-0.0993878
-0.10012
-0.100818
-0.10148
-0.102109
-0.102704
-0.103266
-0.103796
-0.104295
-0.104762
-0.105198
-0.105605
-0.105982
-0.10633
-0.106649
-0.106941
-0.107205
-0.107442
-0.107652
-0.107837
-0.107996
-0.108129
-0.108238
-0.108323
-0.108384
-0.108421
-0.108435
-0.108427
-0.108396
-0.108343
-0.108269
-0.108173
-0.108057
-0.107919
-0.107762
-0.107584
-0.107387
-0.10717
-0.106934
-0.106678
-0.106404
-0.106111
-0.1058
-0.105471
-0.105123
-0.104758
-0.104375
-0.103974
-0.103556
-0.10312
-0.102667
-0.102197
-0.10171
-0.101206
-0.100685
-0.100147
-0.0995927
-0.0990207
-0.098433
-0.0978274
-0.0972062
-0.0965672
-0.0959126
-0.09524
-0.0945519
-0.093846
-0.0931246
-0.0923837
-0.0916216
-0.0908551
-0.0901596
-0.089445
-0.00300506
-0.00575102
-0.00989496
-0.0135241
-0.0171409
-0.0206242
-0.024006
-0.0272825
-0.0304581
-0.0335356
-0.0365181
-0.0394086
-0.0422101
-0.0449255
-0.0475575
-0.0501088
-0.052582
-0.0549794
-0.0573032
-0.0595556
-0.0617387
-0.0638542
-0.0659041
-0.06789
-0.0698136
-0.0716766
-0.0734805
-0.0752268
-0.0769168
-0.0785521
-0.0801337
-0.0816631
-0.0831414
-0.08457
-0.0859498
-0.087282
-0.0885676
-0.0898075
-0.0910026
-0.092154
-0.093262
-0.0943282
-0.0953527
-0.0963367
-0.0972808
-0.0981858
-0.0990523
-0.0998812
-0.100673
-0.101428
-0.102148
-0.102832
-0.103482
-0.104098
-0.104681
-0.105231
-0.105748
-0.106234
-0.106689
-0.107114
-0.107508
-0.107873
-0.108209
-0.108516
-0.108795
-0.109047
-0.109271
-0.10947
-0.109641
-0.109788
-0.109909
-0.110005
-0.110077
-0.110125
-0.110149
-0.11015
-0.110128
-0.110084
-0.110018
-0.10993
-0.109821
-0.10969
-0.109539
-0.109367
-0.109175
-0.108963
-0.108731
-0.10848
-0.108209
-0.10792
-0.107612
-0.107285
-0.106939
-0.106576
-0.106194
-0.105794
-0.105376
-0.104941
-0.104488
-0.104018
-0.10353
-0.103025
-0.102502
-0.101963
-0.101406
-0.100832
-0.100241
-0.0996335
-0.0990079
-0.0983665
-0.0977069
-0.0970313
-0.0963377
-0.0956283
-0.0949009
-0.0941557
-0.093387
-0.092616
-0.0919142
-0.091196
-0.0029792
-0.005771
-0.00994879
-0.0136057
-0.0172531
-0.0207652
-0.0241759
-0.0274808
-0.0306846
-0.0337901
-0.0368006
-0.039719
-0.0425484
-0.0452916
-0.0479515
-0.0505308
-0.053032
-0.0554575
-0.0578096
-0.0600904
-0.062302
-0.0644462
-0.0665248
-0.0685396
-0.0704922
-0.0723842
-0.0742171
-0.0759925
-0.0777116
-0.0793759
-0.0809866
-0.082545
-0.0840523
-0.0855095
-0.086918
-0.0882788
-0.0895927
-0.0908606
-0.0920837
-0.0932624
-0.0943983
-0.0954913
-0.0965426
-0.097553
-0.0985231
-0.0994538
-0.100346
-0.101199
-0.102015
-0.102795
-0.103538
-0.104245
-0.104918
-0.105556
-0.10616
-0.106731
-0.107269
-0.107775
-0.108249
-0.108693
-0.109105
-0.109488
-0.109841
-0.110165
-0.11046
-0.110727
-0.110967
-0.111179
-0.111365
-0.111525
-0.111659
-0.111767
-0.111851
-0.11191
-0.111945
-0.111956
-0.111944
-0.111909
-0.111851
-0.111771
-0.111669
-0.111546
-0.111401
-0.111236
-0.111049
-0.110843
-0.110616
-0.110369
-0.110102
-0.109816
-0.109511
-0.109187
-0.108844
-0.108482
-0.108102
-0.107703
-0.107286
-0.106851
-0.106398
-0.105927
-0.105439
-0.104932
-0.104408
-0.103867
-0.103308
-0.102731
-0.102138
-0.101527
-0.100898
-0.100252
-0.0995895
-0.0989087
-0.0982114
-0.097496
-0.0967644
-0.0960128
-0.0952393
-0.0944611
-0.0937549
-0.0930299
-0.00295241
-0.00579327
-0.010005
-0.0136908
-0.0173699
-0.0209117
-0.0243522
-0.0276864
-0.0309194
-0.0340539
-0.0370933
-0.0400406
-0.0428989
-0.045671
-0.0483598
-0.0509681
-0.0534984
-0.0559531
-0.0583346
-0.0606449
-0.0628862
-0.0650601
-0.0671687
-0.0692135
-0.0711963
-0.0731185
-0.0749818
-0.0767875
-0.078537
-0.0802317
-0.0818727
-0.0834613
-0.0849987
-0.0864863
-0.0879246
-0.0893152
-0.0906587
-0.0919562
-0.0932083
-0.0944163
-0.0955805
-0.096702
-0.0977816
-0.0988196
-0.0998171
-0.100775
-0.101693
-0.102573
-0.103415
-0.104219
-0.104987
-0.105719
-0.106415
-0.107076
-0.107703
-0.108296
-0.108856
-0.109383
-0.109878
-0.110341
-0.110773
-0.111174
-0.111545
-0.111886
-0.112199
-0.112482
-0.112738
-0.112966
-0.113166
-0.11334
-0.113487
-0.113609
-0.113705
-0.113775
-0.113822
-0.113844
-0.113842
-0.113816
-0.113768
-0.113696
-0.113603
-0.113487
-0.113349
-0.11319
-0.11301
-0.112809
-0.112587
-0.112345
-0.112082
-0.1118
-0.111498
-0.111176
-0.110836
-0.110476
-0.110097
-0.109699
-0.109284
-0.108849
-0.108396
-0.107924
-0.107435
-0.106927
-0.106402
-0.105858
-0.105298
-0.104718
-0.104122
-0.103507
-0.102876
-0.102225
-0.101558
-0.100873
-0.100171
-0.0994502
-0.0987132
-0.0979557
-0.0971761
-0.0963914
-0.0956798
-0.0949491
-0.00292481
-0.00581786
-0.0100635
-0.0137794
-0.0174909
-0.0210633
-0.0245345
-0.027899
-0.0311621
-0.0343265
-0.0373958
-0.0403729
-0.043261
-0.046063
-0.0487818
-0.0514201
-0.0539805
-0.0564655
-0.0588774
-0.0612183
-0.0634903
-0.0656953
-0.0678349
-0.0699109
-0.0719251
-0.0738788
-0.0757735
-0.0776108
-0.079392
-0.0811183
-0.0827909
-0.0844111
-0.0859802
-0.0874989
-0.0889687
-0.0903904
-0.0917649
-0.0930931
-0.0943759
-0.0956139
-0.0968084
-0.0979597
-0.0990685
-0.100136
-0.101162
-0.102148
-0.103094
-0.104001
-0.10487
-0.105701
-0.106495
-0.107252
-0.107973
-0.108658
-0.109309
-0.109925
-0.110508
-0.111057
-0.111573
-0.112057
-0.11251
-0.112931
-0.113321
-0.113681
-0.114011
-0.114312
-0.114584
-0.114828
-0.115044
-0.115233
-0.115394
-0.11553
-0.115639
-0.115722
-0.11578
-0.115813
-0.115822
-0.115807
-0.115768
-0.115706
-0.115621
-0.115513
-0.115383
-0.115231
-0.115057
-0.114862
-0.114645