/*--------------------------------*- C++ -*----------------------------------*\
  =========                 |
  \\      /  F ield         | OpenFOAM: The Open Source CFD Toolbox
   \\    /   O peration     | Website:  https://openfoam.org
    \\  /    A nd           | Version:  8
     \\/     M anipulation  |
\*---------------------------------------------------------------------------*/
FoamFile
{
    version     2.0;
    format      ascii;
    class       volVectorField;
    location    "0.25";
    object      U;
}
// * * * * * * * * * * * * * * * * * * * * * * * * * * * * * * * * * * * * * //

dimensions      [0 1 -1 0 0 0 0];

internalField   nonuniform List<vector> 
112642
(
(14.9998 4.03125e-07 -5.3756e-21)
(14.9996 -1.63026e-05 -1.84643e-20)
(14.9996 -2.33375e-05 -4.95707e-20)
(14.9996 -2.45208e-06 9.09435e-21)
(14.9995 1.06809e-05 1.07128e-19)
(14.9995 3.0525e-05 -7.9425e-20)
(14.9995 4.55106e-05 -2.32731e-21)
(14.9995 5.95932e-05 1.91423e-20)
(14.9995 7.14969e-05 4.98535e-20)
(14.9995 8.30854e-05 -6.88062e-20)
(14.9994 9.32453e-05 -1.57941e-21)
(14.9994 0.000103481 9.13435e-20)
(14.9994 0.000114268 5.35464e-20)
(14.9994 0.000124632 5.13904e-20)
(14.9994 0.000135717 4.23524e-20)
(14.9994 0.000146387 6.58735e-20)
(14.9994 0.000157516 -4.62067e-20)
(14.9994 0.000169507 7.6989e-20)
(14.9994 0.000180864 -5.42558e-20)
(14.9994 0.000192492 -7.70374e-20)
(14.9994 0.000204198 -1.32983e-19)
(14.9994 0.000216511 -5.46067e-20)
(14.9994 0.000228173 -5.45665e-20)
(14.9994 0.000240519 -3.03672e-20)
(14.9994 0.000252309 2.53581e-20)
(14.9994 0.000264875 5.44739e-20)
(14.9994 0.000276927 -8.34706e-20)
(14.9994 0.000288895 1.09131e-19)
(14.9994 0.000301189 -7.41075e-22)
(14.9994 0.000313357 5.44993e-20)
(14.9994 0.000325716 5.29177e-20)
(14.9994 0.000337551 6.38797e-22)
(14.9994 0.000349526 5.23945e-20)
(14.9994 0.000361607 5.32512e-20)
(14.9994 0.000372921 -5.28668e-20)
(14.9994 0.000384836 5.84807e-22)
(14.9994 0.00039629 -8.02914e-20)
(14.9994 0.000407812 5.10071e-20)
(14.9994 0.000419747 -2.1689e-20)
(14.9994 0.000430757 1.00675e-19)
(14.9994 0.000442302 -9.96254e-20)
(14.9994 0.000453336 7.90719e-20)
(14.9994 0.000464036 1.86391e-20)
(14.9994 0.00047492 -4.66734e-22)
(14.9994 0.000485849 4.77197e-20)
(14.9994 0.000496266 1.5719e-20)
(14.9994 0.000507219 4.60547e-20)
(14.9994 0.000517731 -7.64243e-20)
(14.9994 0.000527631 -4.52248e-20)
(14.9995 0.000538055 1.07318e-19)
(14.9995 0.000547907 3.19731e-20)
(14.9995 0.000558023 8.55122e-20)
(14.9995 0.000567676 8.41716e-20)
(14.9995 0.000577711 -3.22338e-20)
(14.9995 0.000587142 -3.2769e-20)
(14.9995 0.000596398 -3.99029e-20)
(14.9995 0.000605611 -7.83513e-20)
(14.9995 0.000614898 3.29667e-20)
(14.9995 0.000623512 3.79689e-20)
(14.9995 0.000632499 -3.71815e-20)
(14.9995 0.00064118 3.642e-20)
(14.9996 0.000649227 -2.69099e-22)
(14.9996 0.000657693 3.47921e-20)
(14.9996 0.000665688 -2.73855e-22)
(14.9996 0.000673756 3.31364e-20)
(14.9996 0.000681655 -6.66948e-20)
(14.9996 0.000689055 0)
(14.9996 0.000696978 -3.04096e-20)
(14.9996 0.000704298 2.95816e-20)
(14.9996 0.000711391 2.87176e-20)
(14.9996 0.000718337 6.30245e-20)
(14.9997 0.000725128 -3.50917e-20)
(14.9997 0.000731658 -5.26154e-20)
(14.9997 0.000738058 6.12057e-20)
(14.9997 0.000744666 -7.17294e-20)
(14.9997 0.000750872 3.56808e-20)
(14.9997 0.000756472 8.15341e-20)
(14.9997 0.000762675 -1.46877e-20)
(14.9997 0.000768173 0)
(14.9997 0.000773613 0)
(14.9998 0.000778558 0)
(14.9998 0.00078383 -1.80321e-20)
(14.9998 0.000788757 0)
(14.9998 0.000793657 -2.08463e-20)
(14.9998 0.000797962 7.4108e-20)
(14.9998 0.000802118 2.88917e-20)
(14.9998 0.000806574 -1.25799e-19)
(14.9998 0.000810398 2.51077e-20)
(14.9999 0.000814179 2.62762e-20)
(14.9999 0.000817734 -3.77431e-20)
(14.9999 0.00082129 -9.56717e-21)
(14.9999 0.000824654 8.59977e-21)
(14.9999 0.000827582 7.51556e-21)
(14.9999 0.000830365 6.99594e-20)
(14.9999 0.00083285 8.23226e-20)
(14.9999 0.00083533 -3.38494e-20)
(15 0.000837464 -7.71727e-20)
(15 0.000839637 0)
(15 0.000841363 1.54561e-21)
(15 0.00084298 3.88965e-20)
(15 0.000844439 -4.67567e-22)
(15 0.000845745 -3.74786e-20)
(15 0.000846936 0)
(15 0.000847676 7.81105e-20)
(15.0001 0.000848452 -1.83605e-20)
(15.0001 0.000848871 -3.34326e-20)
(15.0001 0.000849285 -1.33524e-20)
(15.0001 0.000849386 -3.91389e-20)
(15.0001 0.000849338 -4.7937e-20)
(15.0001 0.000848831 1.96046e-20)
(15.0001 0.000848122 1.0715e-20)
(15.0002 0.000847407 3.93348e-20)
(15.0002 0.00084645 -1.30817e-20)
(15.0002 0.000845442 3.95179e-20)
(15.0002 0.000843759 -3.02755e-20)
(15.0002 0.000842382 -2.29038e-20)
(15.0002 0.000840833 -5.66888e-20)
(15.0002 0.000838634 1.85184e-20)
(15.0002 0.000836383 9.84241e-20)
(15.0003 0.000833737 -5.95849e-20)
(15.0003 0.000831413 -3.91867e-20)
(15.0003 0.000828525 4.47505e-20)
(15.0003 0.000825544 3.93734e-20)
(15.0003 0.000821765 1.46702e-20)
(15.0003 0.000818616 -1.29824e-19)
(15.0003 0.000814772 2.7001e-20)
(15.0004 0.000810464 1.12262e-20)
(15.0004 0.000806358 -7.83746e-20)
(15.0004 0.000802086 9.92075e-20)
(15.0004 0.000797497 7.93839e-21)
(15.0004 0.000792714 -3.90301e-20)
(15.0004 0.00078774 -2.68535e-20)
(15.0004 0.000782482 7.31127e-20)
(15.0004 0.000776515 -7.43817e-20)
(15.0005 0.000771106 3.36679e-20)
(15.0005 0.000765096 3.91503e-20)
(15.0005 0.00075886 3.88045e-20)
(15.0005 0.000752673 -7.86093e-20)
(15.0005 0.000745908 -1.18367e-19)
(15.0005 0.000739596 3.80321e-22)
(15.0005 0.000732516 3.86826e-20)
(15.0006 0.000725048 0)
(15.0006 0.000717982 4.49007e-20)
(15.0006 0.000710094 0)
(15.0006 0.000702254 -3.88291e-20)
(15.0006 0.000694323 4.85853e-20)
(15.0006 0.000686137 -1.08988e-20)
(15.0006 0.000677178 5.03e-20)
(15.0006 0.000668617 3.86176e-20)
(15.0006 0.000659436 -1.0523e-19)
(15.0007 0.000650502 -2.30334e-20)
(15.0007 0.000640803 1.66271e-20)
(15.0007 0.000631665 9.39881e-20)
(15.0007 0.000621708 -1.88283e-20)
(15.0007 0.000611137 0)
(15.0007 0.00060116 2.05408e-20)
(15.0007 0.000590482 9.83309e-20)
(15.0007 0.000579796 9.74283e-20)
(15.0007 0.000569273 -9.90241e-20)
(15.0008 0.000558274 2.49612e-20)
(15.0008 0.000546562 6.5916e-22)
(15.0008 0.000535463 3.69225e-20)
(15.0008 0.000523121 -3.74471e-20)
(15.0008 0.000511244 7.5505e-20)
(15.0008 0.000499387 4.6551e-21)
(15.0008 0.000486868 -1.42098e-19)
(15.0008 0.000475065 -3.62309e-20)
(15.0008 0.000462184 -3.35598e-20)
(15.0008 0.000449354 -8.55097e-22)
(15.0008 0.000436613 9.4623e-22)
(15.0008 0.000423053 3.56432e-20)
(15.0009 0.000409611 -6.52772e-25)
(15.0009 0.000395833 -2.22041e-19)
(15.0009 0.00038234 1.17123e-19)
(15.0009 0.000368536 -1.17836e-19)
(15.0009 0.000353801 1.12964e-19)
(15.0009 0.000339926 -1.14728e-19)
(15.0009 0.000325019 1.00276e-20)
(15.0009 0.000310813 1.14727e-19)
(15.0009 0.000295409 -1.08368e-20)
(15.0009 0.000280553 -8.19334e-20)
(15.0009 0.000265523 8.26537e-20)
(15.0009 0.00025057 3.30523e-20)
(15.0009 0.000234302 -4.76083e-20)
(15.0009 0.000218991 -2.0059e-19)
(15.0009 0.000203992 1.01238e-19)
(15.0009 0.000188059 -8.31181e-20)
(15.0009 0.000173004 4.96183e-20)
(15.0009 0.000156954 1.18969e-19)
(15.0009 0.000141727 -5.55203e-20)
(15.0009 0.000126775 2.05264e-20)
(15.0009 0.00011009 8.69256e-20)
(15.0009 9.39158e-05 -1.19789e-19)
(15.0009 7.60368e-05 9.13713e-20)
(15.0009 5.85109e-05 5.5124e-20)
(15.0009 3.79499e-05 1.12835e-19)
(15.0008 2.13484e-05 -8.58604e-20)
(15.0008 5.92967e-06 -1.00154e-19)
(15.0009 -2.59672e-07 1.12273e-19)
(15.0004 3.9595e-06 -9.87022e-20)
(14.9989 3.50283e-05 2.87721e-20)
(14.9988 0.000195816 -4.68238e-20)
(14.9988 0.000269426 -7.55018e-21)
(14.9987 0.000235206 -7.3105e-20)
(14.9986 0.000236694 7.12187e-20)
(14.9985 0.000216305 -3.97456e-20)
(14.9985 0.000216599 -6.73366e-20)
(14.9984 0.000225303 2.05733e-21)
(14.9984 0.000243725 1.58837e-20)
(14.9984 0.000269225 3.17682e-21)
(14.9984 0.000298237 -4.0582e-20)
(14.9983 0.00032975 1.94832e-20)
(14.9983 0.000363112 5.3339e-20)
(14.9983 0.000396785 -3.3055e-20)
(14.9983 0.000431741 1.28288e-19)
(14.9983 0.000466007 1.00501e-20)
(14.9982 0.00050062 -7.59031e-20)
(14.9982 0.000535884 -9.39846e-21)
(14.9982 0.000570196 4.66973e-20)
(14.9982 0.000604732 -1.92534e-22)
(14.9982 0.000638957 -2.34428e-20)
(14.9982 0.000674052 -7.893e-20)
(14.9982 0.000708072 -5.45081e-20)
(14.9982 0.000742975 -1.66005e-22)
(14.9982 0.000777166 -2.47377e-20)
(14.9981 0.000812458 4.96013e-20)
(14.9981 0.000847346 2.00692e-21)
(14.9981 0.0008822 5.63658e-22)
(14.9981 0.000917208 -2.70906e-20)
(14.9981 0.000952125 -2.63675e-20)
(14.9981 0.000987267 2.61852e-20)
(14.9981 0.00102183 1.31817e-21)
(14.9982 0.0010567 -8.14164e-20)
(14.9982 0.00109148 2.14004e-19)
(14.9982 0.00112528 2.8502e-20)
(14.9982 0.00115967 5.19467e-20)
(14.9982 0.00119317 -5.72209e-20)
(14.9982 0.00122678 -9.92356e-22)
(14.9982 0.001261 5.17366e-20)
(14.9982 0.00129371 1.28817e-19)
(14.9982 0.00132721 8.08136e-20)
(14.9982 0.00135972 -1.13458e-20)
(14.9982 0.00139183 4.88072e-20)
(14.9983 0.00142395 0)
(14.9983 0.00145598 1.71297e-20)
(14.9983 0.00148726 -3.11896e-20)
(14.9983 0.00151919 1.08482e-19)
(14.9983 0.00155004 -5.95763e-20)
(14.9983 0.00158011 -1.08538e-19)
(14.9984 0.0016108 3.13037e-20)
(14.9984 0.00164083 4.46373e-20)
(14.9984 0.00167056 2.15636e-20)
(14.9984 0.00169953 1.4965e-19)
(14.9985 0.00172909 7.50574e-20)
(14.9985 0.0017574 -3.48133e-22)
(14.9985 0.00178541 2.57097e-20)
(14.9985 0.0018132 -3.28414e-20)
(14.9985 0.00184049 -6.72397e-20)
(14.9986 0.0018669 1.09824e-19)
(14.9986 0.00189362 7.50556e-20)
(14.9986 0.00191945 2.52468e-21)
(14.9987 0.00194444 0)
(14.9987 0.00196974 3.50799e-20)
(14.9987 0.0019941 -3.42412e-20)
(14.9987 0.00201821 6.79633e-20)
(14.9988 0.0020418 1.94964e-22)
(14.9988 0.0020649 -2.49618e-22)
(14.9988 0.00208807 -6.57018e-20)
(14.9989 0.00211022 -7.08296e-20)
(14.9989 0.00213184 1.47213e-23)
(14.9989 0.0021529 7.10383e-20)
(14.999 0.00217377 7.1778e-20)
(14.999 0.00219389 -3.59215e-20)
(14.999 0.00221331 1.52525e-20)
(14.9991 0.00223293 -3.61389e-20)
(14.9991 0.00225163 -6.04128e-20)
(14.9991 0.0022694 2.30819e-20)
(14.9992 0.00228761 3.66161e-20)
(14.9992 0.00230452 5.81263e-20)
(14.9992 0.002321 -2.0292e-20)
(14.9993 0.00233654 5.64317e-20)
(14.9993 0.00235217 1.85594e-20)
(14.9993 0.00236711 -9.22464e-20)
(14.9994 0.00238168 -3.75672e-20)
(14.9994 0.00239508 3.75917e-20)
(14.9994 0.00240807 6.71535e-20)
(14.9995 0.00242098 -8.60675e-24)
(14.9995 0.00243306 3.79947e-20)
(14.9996 0.00244444 9.37316e-23)
(14.9996 0.00245529 -4.90687e-20)
(14.9996 0.00246608 -4.8141e-20)
(14.9997 0.00247587 -8.57859e-20)
(14.9997 0.00248484 6.92895e-20)
(14.9997 0.00249327 7.74978e-20)
(14.9998 0.00250121 1.73562e-20)
(14.9998 0.00250903 1.43767e-20)
(14.9999 0.00251567 -4.2886e-20)
(14.9999 0.00252212 -3.91893e-20)
(14.9999 0.00252737 -1.35595e-23)
(15 0.00253235 3.87158e-20)
(15 0.00253682 3.91051e-20)
(15.0001 0.00254079 -1.09379e-23)
(15.0001 0.00254448 -3.95288e-20)
(15.0001 0.00254695 -7.91944e-20)
(15.0002 0.00254922 3.06116e-20)
(15.0002 0.00255028 3.39397e-20)
(15.0003 0.0025512 -4.61744e-20)
(15.0003 0.00255161 -7.22375e-23)
(15.0003 0.00255144 3.10115e-20)
(15.0004 0.00255041 7.93369e-20)
(15.0004 0.00254832 -9.03327e-20)
(15.0005 0.00254615 -3.95532e-20)
(15.0005 0.00254339 -7.28246e-23)
(15.0005 0.00253988 1.41346e-20)
(15.0006 0.00253547 9.47893e-21)
(15.0006 0.00253094 3.23475e-20)
(15.0007 0.00252594 -3.98584e-20)
(15.0007 0.00251963 1.84324e-20)
(15.0007 0.00251288 9.59941e-22)
(15.0008 0.00250531 -2.04678e-20)
(15.0008 0.00249777 1.01249e-19)
(15.0009 0.00248914 -3.08747e-22)
(15.0009 0.00247996 -7.93672e-20)
(15.001 0.00246928 -6.46213e-20)
(15.001 0.002459 1.39521e-22)
(15.001 0.00244762 9.33823e-20)
(15.0011 0.00243515 -2.79909e-20)
(15.0011 0.00242282 3.98407e-20)
(15.0012 0.00240962 6.01074e-20)
(15.0012 0.00239553 -7.07261e-20)
(15.0012 0.00238113 -7.94792e-20)
(15.0013 0.002366 1.13266e-19)
(15.0013 0.00235019 7.82787e-20)
(15.0014 0.00233311 -3.50502e-20)
(15.0014 0.00231599 -4.37626e-22)
(15.0014 0.0022982 -1.23693e-21)
(15.0015 0.00227967 -3.91744e-20)
(15.0015 0.00226072 -1.18822e-19)
(15.0015 0.00224056 1.78006e-21)
(15.0016 0.00222061 1.2369e-19)
(15.0016 0.00219956 8.22743e-20)
(15.0017 0.00217732 -4.87704e-21)
(15.0017 0.00215532 -3.54787e-22)
(15.0017 0.00213214 7.5363e-21)
(15.0018 0.00210822 0)
(15.0018 0.0020839 9.48058e-21)
(15.0018 0.00205907 3.95622e-20)
(15.0019 0.00203256 3.82521e-20)
(15.0019 0.00200658 -7.7643e-20)
(15.0019 0.00197946 -1.36186e-20)
(15.002 0.00195175 3.79741e-20)
(15.002 0.00192299 1.67872e-20)
(15.002 0.00189472 7.34507e-20)
(15.0021 0.00186523 -5.66309e-20)
(15.0021 0.00183414 7.66581e-20)
(15.0021 0.00180357 -5.96241e-20)
(15.0022 0.00177178 9.94196e-20)
(15.0022 0.00173964 -1.00794e-19)
(15.0022 0.00170724 2.58021e-20)
(15.0023 0.00167408 6.20448e-20)
(15.0023 0.00163944 9.17548e-20)
(15.0023 0.00160554 3.72233e-20)
(15.0023 0.00156948 2.83715e-20)
(15.0024 0.001534 3.84701e-20)
(15.0024 0.00149848 3.59195e-20)
(15.0024 0.00146164 -1.0588e-19)
(15.0024 0.00142548 -1.073e-19)
(15.0025 0.00138792 3.78728e-20)
(15.0025 0.00135017 -3.63504e-20)
(15.0025 0.00131279 9.14113e-22)
(15.0025 0.0012746 -3.7548e-20)
(15.0026 0.00123665 -2.22092e-19)
(15.0026 0.00119857 1.66991e-21)
(15.0026 0.00116061 1.13517e-19)
(15.0026 0.00112255 7.93177e-20)
(15.0026 0.00108379 6.91123e-20)
(15.0026 0.00104644 -1.9109e-19)
(15.0027 0.00100793 7.8871e-20)
(15.0027 0.000970582 4.37107e-20)
(15.0027 0.000931441 8.10075e-20)
(15.0027 0.000893424 6.9038e-20)
(15.0027 0.000854734 -4.68674e-20)
(15.0027 0.000816156 -3.49976e-20)
(15.0027 0.000775929 -1.14854e-19)
(15.0027 0.000736434 -9.53327e-20)
(15.0027 0.000697133 -3.75773e-20)
(15.0027 0.000656314 -1.10667e-19)
(15.0027 0.000616583 2.97467e-20)
(15.0027 0.000576536 -3.09329e-20)
(15.0027 0.000537345 3.30466e-20)
(15.0027 0.000499795 -2.43642e-21)
(15.0027 0.00046304 -6.25069e-20)
(15.0027 0.000431179 5.30023e-20)
(15.0026 0.00040467 1.97121e-19)
(15.0026 0.000382474 -2.1407e-20)
(15.0026 0.000368232 -5.24706e-21)
(15.0025 0.00033984 -1.38022e-19)
(15.0025 0.000310191 1.21134e-19)
(15.0025 0.000237685 -3.16685e-20)
(15.0023 3.5237e-05 -1.91824e-19)
(14.998 2.70398e-05 4.8925e-20)
(14.998 1.3471e-05 7.89256e-21)
(14.998 0.000337706 2.27752e-20)
(14.9979 0.000277303 -3.99936e-20)
(14.9977 0.00033179 -2.80708e-20)
(14.9976 0.000303434 9.0121e-20)
(14.9975 0.000314395 -1.84539e-20)
(14.9974 0.000328424 0)
(14.9974 0.000358972 -9.81282e-20)
(14.9973 0.000400426 1.31498e-19)
(14.9973 0.000449673 -1.02646e-19)
(14.9972 0.000503516 2.0441e-20)
(14.9972 0.000560015 1.95731e-20)
(14.9972 0.000617903 -7.15263e-20)
(14.9971 0.000677657 5.06449e-20)
(14.9971 0.000736759 2.32209e-20)
(14.9971 0.000796051 -1.08238e-19)
(14.997 0.000855792 -1.0693e-19)
(14.997 0.000914434 3.09734e-20)
(14.997 0.000973182 3.17031e-20)
(14.997 0.00103167 1.08515e-19)
(14.997 0.00109049 2.45435e-20)
(14.9969 0.00114867 3.08454e-20)
(14.9969 0.0012074 -5.5638e-20)
(14.9969 0.00126533 2.55905e-20)
(14.9969 0.00132432 -1.10017e-19)
(14.9969 0.00138312 1.10054e-19)
(14.9969 0.00144175 2.57679e-20)
(14.9969 0.00150049 2.68207e-20)
(14.9969 0.00155945 -2.66483e-20)
(14.9969 0.0016183 -5.51544e-20)
(14.9969 0.00167696 8.19877e-20)
(14.9969 0.00173579 -1.36584e-19)
(14.9969 0.00179441 -8.32197e-20)
(14.9969 0.00185197 1.10709e-19)
(14.9969 0.00191014 1.05859e-19)
(14.997 0.00196704 5.26009e-20)
(14.997 0.00202387 -2.90826e-20)
(14.997 0.00208114 2.2146e-20)
(14.997 0.0021369 -1.0249e-19)
(14.997 0.00219287 1.31619e-19)
(14.997 0.00224815 3.05157e-20)
(14.9971 0.00230271 4.97288e-20)
(14.9971 0.00235739 4.92299e-20)
(14.9971 0.00241145 0)
(14.9971 0.00246441 -3.10771e-20)
(14.9972 0.00251773 1.45281e-20)
(14.9972 0.00256997 7.95243e-20)
(14.9972 0.00262141 -6.42836e-20)
(14.9973 0.00267288 -4.56609e-20)
(14.9973 0.00272374 5.77504e-20)
(14.9973 0.0027742 -7.70041e-20)
(14.9974 0.00282308 -5.45775e-20)
(14.9974 0.00287247 1.18876e-19)
(14.9974 0.00292055 3.30166e-20)
(14.9975 0.00296823 4.18036e-20)
(14.9975 0.00301488 8.83407e-20)
(14.9976 0.00306099 6.30844e-21)
(14.9976 0.00310615 -6.79106e-20)
(14.9976 0.003151 7.22135e-20)
(14.9977 0.0031948 1.06626e-19)
(14.9977 0.00323744 3.67898e-20)
(14.9978 0.00328001 3.4528e-20)
(14.9978 0.00332166 2.46377e-22)
(14.9979 0.00336241 -1.03912e-19)
(14.9979 0.00340233 6.70623e-20)
(14.998 0.00344166 3.52318e-20)
(14.998 0.00348037 3.20319e-20)
(14.9981 0.003518 -6.68281e-20)
(14.9981 0.00355475 -4.25419e-23)
(14.9982 0.0035907 6.72299e-21)
(14.9982 0.0036262 -3.58498e-20)
(14.9983 0.00366067 -4.54797e-20)
(14.9983 0.00369376 6.29392e-20)
(14.9984 0.00372639 6.23412e-20)
(14.9985 0.0037584 -2.46992e-20)
(14.9985 0.00378918 -2.3778e-20)
(14.9986 0.00381927 -8.26613e-20)
(14.9986 0.00384816 1.51518e-20)
(14.9987 0.00387633 -2.05977e-20)
(14.9987 0.00390297 -7.51782e-20)
(14.9988 0.00392939 9.42783e-20)
(14.9989 0.0039548 1.84026e-21)
(14.9989 0.00397941 -7.59483e-20)
(14.999 0.00400226 -1.27554e-22)
(14.9991 0.00402459 9.39794e-23)
(14.9991 0.00404621 -5.25785e-20)
(14.9992 0.00406694 3.84364e-20)
(14.9992 0.00408645 6.50559e-20)
(14.9993 0.00410498 1.12652e-20)
(14.9994 0.00412281 1.00985e-20)
(14.9994 0.00413929 5.29607e-23)
(14.9995 0.00415482 -4.728e-20)
(14.9996 0.00416935 -7.13536e-20)
(14.9996 0.00418305 -3.94302e-20)
(14.9997 0.00419614 1.1837e-19)
(14.9998 0.00420747 3.56284e-20)
(14.9998 0.00421806 -3.96707e-20)
(14.9999 0.00422727 3.7912e-20)
(15 0.00423603 8.16929e-22)
(15 0.00424364 -4.02198e-20)
(15.0001 0.00425008 1.34545e-21)
(15.0002 0.00425605 0)
(15.0002 0.00426063 3.47174e-21)
(15.0003 0.00426445 -3.55415e-20)
(15.0004 0.00426644 -5.59897e-21)
(15.0004 0.00426779 4.68613e-20)
(15.0005 0.00426826 -5.57821e-20)
(15.0006 0.00426767 -4.01403e-20)
(15.0006 0.00426607 2.72157e-24)
(15.0007 0.00426302 -3.41468e-23)
(15.0008 0.00425921 8.05421e-20)
(15.0008 0.00425434 4.00848e-20)
(15.0009 0.00424814 -4.01881e-20)
(15.001 0.00424094 4.02991e-20)
(15.0011 0.00423293 5.67157e-20)
(15.0011 0.00422431 -8.06971e-20)
(15.0012 0.00421372 -6.17241e-20)
(15.0013 0.00420218 2.05253e-20)
(15.0013 0.00418946 1.01408e-19)
(15.0014 0.00417638 2.18338e-20)
(15.0015 0.00416151 -6.33053e-20)
(15.0015 0.00414575 0)
(15.0016 0.00412855 4.03681e-20)
(15.0017 0.00411044 6.66031e-20)
(15.0017 0.00409086 -4.02845e-20)
(15.0018 0.00407045 -4.00945e-20)
(15.0019 0.00404941 4.02933e-20)
(15.0019 0.00402668 -6.19544e-20)
(15.002 0.00400266 -4.00259e-20)
(15.0021 0.00397798 4.02222e-20)
(15.0021 0.00395223 7.42511e-20)
(15.0022 0.00392531 -1.10812e-19)
(15.0023 0.00389697 -3.44715e-21)
(15.0023 0.00386773 -3.50123e-20)
(15.0024 0.00383758 3.83757e-20)
(15.0025 0.00380625 -7.95447e-20)
(15.0025 0.00377364 4.00229e-20)
(15.0026 0.00373972 8.17219e-20)
(15.0027 0.00370546 4.31889e-20)
(15.0027 0.00366961 -3.55848e-20)
(15.0028 0.00363228 -3.91396e-20)
(15.0028 0.00359432 1.2558e-19)
(15.0029 0.00355502 -3.80563e-22)
(15.003 0.00351481 -3.93036e-20)
(15.003 0.00347312 0)
(15.0031 0.00343069 1.01598e-19)
(15.0031 0.00338639 -1.03851e-19)
(15.0032 0.00334239 0)
(15.0033 0.00329614 5.4093e-20)
(15.0033 0.00324904 -5.51925e-20)
(15.0034 0.00320079 3.92562e-20)
(15.0034 0.00315216 1.76673e-20)
(15.0035 0.00310211 7.85705e-20)
(15.0035 0.0030503 -5.45282e-22)
(15.0036 0.00299849 -1.20263e-19)
(15.0036 0.00294488 3.82219e-20)
(15.0037 0.00289009 -1.48737e-19)
(15.0037 0.00283506 1.01504e-19)
(15.0038 0.00277871 -6.44015e-20)
(15.0038 0.00272115 -3.8157e-20)
(15.0039 0.0026635 -6.57374e-20)
(15.0039 0.0026036 2.86182e-20)
(15.004 0.00254395 1.07921e-19)
(15.004 0.00248398 -3.36601e-20)
(15.0041 0.00242214 -1.81918e-19)
(15.0041 0.00236096 -1.41698e-19)
(15.0041 0.00229825 1.08947e-19)
(15.0042 0.00223518 -1.46223e-19)
(15.0042 0.00217229 0)
(15.0042 0.00210912 -1.11983e-19)
(15.0043 0.00204574 -3.77526e-20)
(15.0043 0.00198256 1.48336e-19)
(15.0043 0.00191945 -7.71577e-20)
(15.0044 0.00185592 1.19617e-19)
(15.0044 0.00179194 -1.50471e-19)
(15.0044 0.00172916 8.02725e-20)
(15.0044 0.00166501 1.14632e-19)
(15.0044 0.00160132 1.16457e-19)
(15.0045 0.00153643 1.15806e-19)
(15.0045 0.00147163 1.04995e-20)
(15.0045 0.00140616 2.30307e-21)
(15.0045 0.00134051 -5.05066e-20)
(15.0045 0.00127293 4.93808e-20)
(15.0045 0.00120551 0)
(15.0045 0.00113772 -1.18199e-19)
(15.0045 0.00106834 1.68755e-19)
(15.0045 0.00100026 -8.59992e-20)
(15.0045 0.000932458 -4.77029e-20)
(15.0045 0.00086545 2.85835e-20)
(15.0045 0.000800709 -2.3084e-19)
(15.0045 0.000740369 3.57391e-20)
(15.0044 0.000686183 1.0954e-19)
(15.0044 0.000641492 2.16174e-20)
(15.0043 0.000596676 3.71076e-21)
(15.0043 0.000562621 -5.35817e-20)
(15.0042 0.000489082 3.226e-20)
(15.0041 0.000426315 -7.76314e-21)
(15.0041 0.000160983 -1.40772e-19)
(15.0041 4.31597e-05 5.9992e-20)
(14.9972 -9.44052e-06 -3.88068e-20)
(14.9972 -0.000277034 4.03608e-20)
(14.9972 0.000224163 0)
(14.997 0.000205323 0)
(14.9969 0.000349087 -1.33927e-20)
(14.9967 0.000346411 -1.64235e-20)
(14.9965 0.000386363 -2.89108e-20)
(14.9964 0.00041469 -1.16824e-20)
(14.9963 0.000460285 -3.28359e-20)
(14.9962 0.000517681 4.4499e-20)
(14.9962 0.000585266 -2.734e-20)
(14.9961 0.000659003 -2.16582e-20)
(14.9961 0.000736839 -3.03885e-20)
(14.996 0.00081719 1.70945e-22)
(14.996 0.00089991 -1.04816e-19)
(14.9959 0.000982356 7.39775e-20)
(14.9959 0.00106518 2.23574e-20)
(14.9959 0.00114863 3.17978e-20)
(14.9958 0.00123136 -7.74052e-20)
(14.9958 0.00131414 3.16604e-20)
(14.9958 0.00139633 -1.10168e-19)
(14.9957 0.00147913 9.061e-22)
(14.9957 0.00156152 2.33159e-20)
(14.9957 0.00164458 -2.92788e-20)
(14.9957 0.00172665 5.43768e-20)
(14.9957 0.00180981 7.64351e-22)
(14.9957 0.0018928 -1.07075e-19)
(14.9957 0.00197582 -5.58149e-20)
(14.9956 0.00205878 2.70841e-20)
(14.9956 0.00214236 1.02246e-22)
(14.9956 0.00222578 0)
(14.9957 0.00230885 5.46874e-20)
(14.9957 0.00239196 8.19948e-20)
(14.9957 0.00247498 -5.38533e-20)
(14.9957 0.00255709 -5.70604e-20)
(14.9957 0.00263941 -5.40338e-20)
(14.9957 0.00272072 -5.26142e-20)
(14.9957 0.00280183 -5.3365e-20)
(14.9958 0.00288291 6.85385e-21)
(14.9958 0.00296237 -1.03629e-19)
(14.9958 0.00304198 -8.21286e-20)
(14.9958 0.00312056 2.08679e-20)
(14.9959 0.00319837 1.96541e-20)
(14.9959 0.00327625 3.07961e-20)
(14.9959 0.00335334 4.99643e-20)
(14.996 0.00342889 -4.20538e-22)
(14.996 0.00350462 3.18724e-20)
(14.9961 0.00357903 9.55958e-20)
(14.9961 0.00365275 4.70963e-20)
(14.9961 0.00372586 -3.22043e-20)
(14.9962 0.00379824 4.54088e-20)
(14.9962 0.00386971 -2.46334e-20)
(14.9963 0.00394003 -3.25983e-20)
(14.9963 0.00401005 -3.38231e-20)
(14.9964 0.00407847 3.36894e-20)
(14.9964 0.00414634 5.10873e-20)
(14.9965 0.00421259 -3.40085e-20)
(14.9966 0.00427835 7.47148e-20)
(14.9966 0.00434294 -5.58994e-21)
(14.9967 0.00440665 -1.12798e-19)
(14.9967 0.00446914 -3.47878e-20)
(14.9968 0.00453031 3.47767e-20)
(14.9969 0.00459086 3.52323e-20)
(14.9969 0.00465008 1.06151e-19)
(14.997 0.00470828 -3.48234e-20)
(14.9971 0.00476551 -7.17357e-20)
(14.9971 0.00482142 2.46257e-21)
(14.9972 0.00487634 3.26042e-20)
(14.9973 0.00493026 -3.59985e-20)
(14.9974 0.004983 3.06232e-20)
(14.9974 0.00503446 7.29514e-20)
(14.9975 0.00508469 5.82743e-20)
(14.9976 0.00513392 -1.01687e-19)
(14.9977 0.00518142 -6.42489e-20)
(14.9977 0.00522782 3.70405e-20)
(14.9978 0.00527349 1.20366e-20)
(14.9979 0.00531763 3.73178e-20)
(14.998 0.00536031 1.4186e-20)
(14.9981 0.00540147 -4.50209e-20)
(14.9981 0.00544178 5.27969e-21)
(14.9982 0.00548031 -7.92701e-20)
(14.9983 0.00551792 5.65556e-20)
(14.9984 0.00555404 -1.93165e-20)
(14.9985 0.00558907 -1.15406e-19)
(14.9986 0.00562204 2.1907e-20)
(14.9987 0.00565413 7.74436e-20)
(14.9987 0.00568483 7.78238e-23)
(14.9988 0.00571428 2.52167e-20)
(14.9989 0.0057423 -3.8889e-20)
(14.999 0.00576887 -1.0625e-19)
(14.9991 0.00579395 1.05186e-20)
(14.9992 0.00581773 8.5104e-24)
(14.9993 0.00584032 3.96036e-20)
(14.9994 0.00586121 3.97711e-20)
(14.9995 0.00588067 2.09146e-20)
(14.9996 0.00589899 2.95176e-20)
(14.9997 0.00591521 -3.59139e-20)
(14.9997 0.00593034 -4.02396e-20)
(14.9998 0.00594368 -4.03178e-20)
(14.9999 0.00595636 -3.95113e-20)
(15 0.00596721 1.21282e-19)
(15.0001 0.00597622 4.05065e-20)
(15.0002 0.00598454 -4.29023e-20)
(15.0003 0.00599104 -4.06019e-20)
(15.0004 0.00599641 -4.51193e-20)
(15.0005 0.00599962 4.6309e-20)
(15.0006 0.00600163 -9.49707e-20)
(15.0007 0.00600212 -4.063e-20)
(15.0008 0.00600082 1.31135e-19)
(15.0009 0.00599824 8.13687e-20)
(15.001 0.00599425 -7.02778e-20)
(15.0011 0.00598866 -1.58804e-20)
(15.0012 0.00598149 -1.14728e-22)
(15.0013 0.00597274 9.4157e-23)
(15.0014 0.0059626 8.15986e-20)
(15.0015 0.00595089 -1.69523e-20)
(15.0016 0.00593814 -5.86862e-20)
(15.0017 0.00592307 -2.17565e-20)
(15.0018 0.00590672 6.12849e-20)
(15.0019 0.00588861 8.15095e-20)
(15.002 0.00586934 0)
(15.0021 0.00584797 -4.08365e-20)
(15.0022 0.0058255 -1.59561e-20)
(15.0023 0.00580118 0)
(15.0024 0.00577508 -2.70055e-20)
(15.0024 0.00574709 -2.8142e-20)
(15.0025 0.00571811 -2.92457e-20)
(15.0026 0.0056877 -4.07941e-20)
(15.0027 0.00565516 -3.12954e-20)
(15.0028 0.00562129 4.05293e-20)
(15.0029 0.00558581 -4.07767e-20)
(15.003 0.00554863 1.89082e-22)
(15.0031 0.00550987 4.4984e-20)
(15.0032 0.00546968 3.69308e-20)
(15.0033 0.00542806 3.13353e-22)
(15.0034 0.0053846 -7.91517e-20)
(15.0035 0.00533971 -4.01995e-20)
(15.0036 0.00529328 0)
(15.0037 0.00524495 -4.76159e-23)
(15.0038 0.00519553 -3.57676e-21)
(15.0038 0.00514422 -9.05339e-20)
(15.0039 0.00509112 1.33108e-19)
(15.004 0.00503661 4.65586e-20)
(15.0041 0.00498037 -1.76536e-19)
(15.0042 0.00492319 0)
(15.0043 0.0048637 4.01205e-20)
(15.0044 0.00480316 1.12993e-20)
(15.0044 0.00474031 1.37101e-20)
(15.0045 0.00467667 3.93674e-20)
(15.0046 0.00461115 -5.50113e-20)
(15.0047 0.00454402 0)
(15.0048 0.00447546 3.9644e-20)
(15.0048 0.00440558 -1.92095e-20)
(15.0049 0.00433428 1.99694e-20)
(15.005 0.00426075 -1.38515e-19)
(15.0051 0.00418685 6.19574e-20)
(15.0051 0.00411044 -6.16031e-22)
(15.0052 0.00403248 -6.28489e-20)
(15.0053 0.00395406 3.81987e-20)
(15.0053 0.00387414 -3.89368e-20)
(15.0054 0.0037924 -3.82006e-20)
(15.0055 0.00371036 1.4462e-19)
(15.0055 0.00362576 3.70051e-20)
(15.0056 0.00354068 3.18494e-20)
(15.0057 0.00345494 -1.08731e-19)
(15.0057 0.00336751 -1.46665e-19)
(15.0058 0.00328004 1.1065e-19)
(15.0058 0.00319114 -3.70205e-20)
(15.0059 0.00310183 7.64616e-22)
(15.0059 0.00301236 3.65914e-20)
(15.006 0.00292219 0)
(15.006 0.00283154 1.53118e-19)
(15.0061 0.00274143 -7.73773e-20)
(15.0061 0.00265088 -7.81203e-20)
(15.0061 0.00255996 -1.57547e-19)
(15.0062 0.0024683 -4.27595e-20)
(15.0062 0.00237761 1.15667e-19)
(15.0062 0.00228496 -8.03806e-20)
(15.0062 0.00219268 -3.57685e-20)
(15.0063 0.00209913 -8.04709e-20)
(15.0063 0.00200582 -1.30292e-19)
(15.0063 0.00191107 1.30052e-19)
(15.0063 0.00181572 1.36661e-21)
(15.0063 0.00171863 -1.49239e-21)
(15.0063 0.00162158 8.51524e-20)
(15.0063 0.00152411 1.16342e-19)
(15.0063 0.00142501 4.99438e-20)
(15.0063 0.00132737 1.79707e-20)
(15.0063 0.00123062 -8.12755e-20)
(15.0063 0.00113541 -8.6626e-20)
(15.0062 0.00104393 2.45126e-21)
(15.0062 0.000958503 1.13429e-19)
(15.0062 0.000878823 -1.6547e-19)
(15.0061 0.000809465 8.15998e-20)
(15.006 0.000730477 3.95103e-22)
(15.0059 0.000654915 0)
(15.0058 0.000520061 -3.20891e-20)
(15.0058 0.000395926 -7.21524e-20)
(15.0058 -4.4765e-05 2.25513e-20)
(15.0057 2.76987e-05 7.86393e-20)
(14.9963 -5.38607e-05 -5.15067e-20)
(14.9963 -0.000369666 -5.96734e-20)
(14.9963 0.000104189 0)
(14.9962 0.000166206 3.85383e-20)
(14.996 0.000382595 1.30907e-20)
(14.9958 0.000410017 -2.52383e-20)
(14.9956 0.000480836 -4.36504e-20)
(14.9954 0.00052154 -1.63076e-20)
(14.9953 0.000577754 1.14424e-20)
(14.9952 0.000645992 -5.00494e-20)
(14.9951 0.000726669 6.9264e-20)
(14.995 0.000815618 -3.15067e-20)
(14.995 0.000910817 7.13686e-20)
(14.9949 0.00101037 -1.91795e-22)
(14.9948 0.00111331 3.1585e-20)
(14.9948 0.00121727 -2.19927e-20)
(14.9947 0.00132224 1.06421e-19)
(14.9947 0.00142798 7.54725e-20)
(14.9946 0.00153372 -2.1386e-20)
(14.9946 0.00164021 -1.77184e-21)
(14.9946 0.00174627 -2.98772e-20)
(14.9945 0.0018527 -2.44815e-20)
(14.9945 0.00195924 -5.51802e-20)
(14.9945 0.00206634 -2.4266e-20)
(14.9944 0.0021726 -5.60236e-20)
(14.9944 0.00227989 1.06552e-19)
(14.9944 0.0023873 -2.9239e-20)
(14.9944 0.00249482 -5.56244e-20)
(14.9944 0.0026022 -5.54304e-20)
(14.9944 0.0027106 -8.20207e-20)
(14.9944 0.00281847 -2.7707e-20)
(14.9944 0.00292619 0)
(14.9944 0.00303393 -8.24618e-20)
(14.9944 0.00314148 -5.49759e-20)
(14.9944 0.00324839 2.98742e-21)
(14.9944 0.0033554 -2.49631e-20)
(14.9945 0.00346128 -5.38021e-20)
(14.9945 0.00356694 -8.26435e-20)
(14.9945 0.00367214 -5.34869e-20)
(14.9946 0.00377593 1.05555e-19)
(14.9946 0.00387968 -8.66204e-21)
(14.9946 0.00398264 -8.25152e-20)
(14.9947 0.00408433 -2.04991e-20)
(14.9947 0.00418577 4.61041e-22)
(14.9947 0.0042865 -4.11565e-22)
(14.9948 0.00438522 -4.91518e-20)
(14.9948 0.00448381 4.8535e-20)
(14.9949 0.00458141 -4.79347e-20)
(14.9949 0.00467763 4.74002e-20)
(14.995 0.0047732 4.51454e-22)
(14.9951 0.00486789 3.22838e-20)
(14.9951 0.00496104 4.66198e-20)
(14.9952 0.0050532 1.12411e-20)
(14.9953 0.00514452 -1.07242e-20)
(14.9953 0.00523401 1.01457e-20)
(14.9954 0.00532264 4.26672e-20)
(14.9955 0.00540955 -4.19379e-20)
(14.9955 0.00549537 -4.18588e-20)
(14.9956 0.00557981 7.54843e-20)
(14.9957 0.00566304 0)
(14.9958 0.00574483 -3.91768e-20)
(14.9959 0.00582536 -7.67091e-20)
(14.9959 0.00590448 3.7515e-20)
(14.996 0.0059818 -3.66869e-20)
(14.9961 0.00605815 7.17653e-20)
(14.9962 0.00613323 3.58258e-20)
(14.9963 0.00620642 3.43883e-20)
(14.9964 0.00627822 -3.22755e-21)
(14.9965 0.00634871 -3.6374e-20)
(14.9966 0.00641803 -6.31679e-20)
(14.9967 0.00648557 3.0815e-20)
(14.9968 0.00655097 2.94709e-20)
(14.9969 0.00661528 8.57828e-21)
(14.997 0.00667798 -2.78292e-20)
(14.9971 0.00673894 -1.63325e-20)
(14.9972 0.00679843 -2.57633e-20)
(14.9973 0.00685618 -2.51774e-20)
(14.9974 0.0069122 6.20824e-20)
(14.9975 0.00696633 -7.61811e-20)
(14.9976 0.00701919 -2.93694e-22)
(14.9977 0.00707008 3.87266e-20)
(14.9978 0.00711904 -3.86818e-20)
(14.9979 0.00716629 3.81757e-20)
(14.998 0.00721237 -3.61731e-20)
(14.9981 0.00725613 -8.01841e-24)