/*--------------------------------*- C++ -*----------------------------------*\
  =========                 |
  \\      /  F ield         | OpenFOAM: The Open Source CFD Toolbox
   \\    /   O peration     | Website:  https://openfoam.org
    \\  /    A nd           | Version:  8
     \\/     M anipulation  |
\*---------------------------------------------------------------------------*/
FoamFile
{
    version     2.0;
    format      ascii;
    class       volScalarField;
    location    "45";
    object      nut;
}
// * * * * * * * * * * * * * * * * * * * * * * * * * * * * * * * * * * * * * //

dimensions      [0 2 -1 0 0 0 0];

internalField   nonuniform List<scalar> 
277560
(
0.145362
0.145229
0.14514
0.145048
0.144956
0.144865
0.144775
0.144686
0.144598
0.144511
0.144426
0.144341
0.144259
0.144178
0.144098
0.14402
0.143944
0.143869
0.143796
0.143725
0.143656
0.143588
0.143523
0.143459
0.143397
0.143337
0.143279
0.143223
0.143169
0.143117
0.143067
0.143019
0.142973
0.142928
0.142885
0.142842
0.142801
0.142761
0.142723
0.142685
0.14265
0.142616
0.142583
0.142551
0.142522
0.142494
0.142467
0.142442
0.142418
0.142396
0.142375
0.142356
0.142338
0.142322
0.142307
0.142294
0.142282
0.142272
0.142263
0.142256
0.14225
0.142246
0.142243
0.142241
0.142241
0.142243
0.142246
0.14225
0.142256
0.142263
0.142272
0.142282
0.142294
0.142307
0.142322
0.142338
0.142356
0.142375
0.142396
0.142418
0.142441
0.142467
0.142493
0.142522
0.142551
0.142582
0.142614
0.142646
0.14268
0.142714
0.14275
0.142786
0.142824
0.142863
0.142904
0.142946
0.142989
0.143033
0.143079
0.143127
0.143176
0.143226
0.143278
0.143331
0.143386
0.143442
0.1435
0.14356
0.143621
0.143684
0.143748
0.143815
0.143883
0.143953
0.144024
0.144098
0.144173
0.144251
0.14433
0.144415
0.145483
0.145354
0.145267
0.145178
0.145091
0.145004
0.144917
0.14483
0.144745
0.144661
0.144578
0.144496
0.144415
0.144336
0.144259
0.144182
0.144108
0.144034
0.143963
0.143893
0.143824
0.143758
0.143693
0.143629
0.143568
0.143508
0.14345
0.143393
0.143339
0.143286
0.143235
0.143187
0.143141
0.143097
0.143056
0.143017
0.142978
0.14294
0.142903
0.142867
0.142832
0.142798
0.142766
0.142735
0.142706
0.142678
0.142651
0.142626
0.142602
0.14258
0.142559
0.142539
0.142521
0.142504
0.142489
0.142474
0.142462
0.14245
0.14244
0.142432
0.142424
0.142418
0.142414
0.14241
0.142408
0.142408
0.142408
0.14241
0.142414
0.142418
0.142424
0.142431
0.14244
0.142449
0.14246
0.142473
0.142486
0.142501
0.142517
0.142535
0.142553
0.142574
0.142596
0.142621
0.14265
0.142682
0.142716
0.142752
0.142786
0.14282
0.142855
0.14289
0.142927
0.142964
0.143003
0.143043
0.143084
0.143126
0.14317
0.143214
0.14326
0.143308
0.143357
0.143407
0.143458
0.143511
0.143566
0.143622
0.14368
0.143739
0.1438
0.143863
0.143928
0.143994
0.144062
0.144132
0.144204
0.144278
0.144355
0.144436
0.145577
0.145455
0.145374
0.145291
0.145212
0.145134
0.145055
0.144976
0.144897
0.14482
0.144743
0.144668
0.144593
0.14452
0.144448
0.144377
0.144307
0.144239
0.144172
0.144106
0.144042
0.143979
0.143917
0.143857
0.143799
0.143742
0.143686
0.143632
0.14358
0.143528
0.143478
0.14343
0.143383
0.143339
0.143303
0.143273
0.143245
0.143216
0.143185
0.143154
0.143125
0.143096
0.143069
0.143042
0.143017
0.142994
0.142971
0.14295
0.142929
0.142911
0.142893
0.142876
0.142861
0.142847
0.142834
0.142823
0.142812
0.142803
0.142795
0.142788
0.142782
0.142778
0.142775
0.142772
0.142771
0.142772
0.142773
0.142775
0.142779
0.142784
0.14279
0.142797
0.142805
0.142815
0.142825
0.142837
0.14285
0.142864
0.142879
0.142896
0.142914
0.142933
0.142954
0.142976
0.142999
0.143023
0.143048
0.143073
0.1431
0.143126
0.143154
0.143183
0.143212
0.143243
0.143274
0.143307
0.14334
0.143375
0.143411
0.143447
0.143485
0.143524
0.143564
0.143605
0.143648
0.143692
0.143736
0.143783
0.14383
0.143879
0.143929
0.14398
0.144033
0.144087
0.144143
0.1442
0.144259
0.144319
0.144381
0.144448
0.145762
0.145654
0.145581
0.145505
0.145436
0.145375
0.145314
0.145248
0.145183
0.145118
0.145054
0.14499
0.144928
0.144866
0.144805
0.144745
0.144687
0.144629
0.144573
0.144517
0.144463
0.14441
0.144358
0.144307
0.144257
0.144209
0.144162
0.144117
0.144072
0.14403
0.143988
0.143949
0.143912
0.143877
0.143845
0.143813
0.143783
0.143752
0.143722
0.143693
0.143664
0.143637
0.143611
0.143585
0.143561
0.143538
0.143515
0.143494
0.143474
0.143455
0.143436
0.143419
0.143403
0.143388
0.143373
0.14336
0.143348
0.143337
0.143326
0.143317
0.143309
0.143301
0.143295
0.143289
0.143285
0.143281
0.143279
0.143277
0.143276
0.143277
0.143278
0.14328
0.143283
0.143287
0.143292
0.143298
0.143305
0.143313
0.143322
0.143331
0.143342
0.143354
0.143366
0.143379
0.143393
0.143408
0.143423
0.14344
0.143457
0.143475
0.143494
0.143514
0.143535
0.143557
0.143579
0.143603
0.143628
0.143654
0.143681
0.143709
0.143738
0.143769
0.1438
0.143833
0.143867
0.143902
0.143939
0.143977
0.144016
0.144057
0.1441
0.144144
0.144189
0.144236
0.144285
0.144336
0.144388
0.144443
0.1445
0.144561
0.146129
0.146044
0.145988
0.145931
0.145877
0.145825
0.145771
0.145716
0.145661
0.145606
0.145553
0.145499
0.145446
0.145394
0.145343
0.145292
0.145241
0.145192
0.145143
0.145095
0.145048
0.145002
0.144956
0.144912
0.144868
0.144825
0.144784
0.144743
0.144703
0.144664
0.144627
0.144591
0.144555
0.144521
0.144487
0.144454
0.144422
0.14439
0.144359
0.144328
0.144298
0.144269
0.144241
0.144214
0.144187
0.144162
0.144137
0.144112
0.144089
0.144066
0.144044
0.144023
0.144003
0.143983
0.143965
0.143946
0.143929
0.143913
0.143897
0.143882
0.143868
0.143855
0.143842
0.14383
0.143819
0.143809
0.143799
0.14379
0.143782
0.143775
0.143769
0.143763
0.143758
0.143754
0.143751
0.143749
0.143747
0.143746
0.143746
0.143747
0.143748
0.143751
0.143754
0.143758
0.143763
0.143768
0.143775
0.143783
0.143791
0.1438
0.143811
0.143822
0.143835
0.143849
0.143863
0.143879
0.143896
0.143914
0.143934
0.143955
0.143977
0.144
0.144025
0.144051
0.144079
0.144108
0.144139
0.144171
0.144205
0.14424
0.144277
0.144317
0.144357
0.1444
0.144445
0.144491
0.14454
0.14459
0.144644
0.144701
0.146602
0.146536
0.146493
0.146447
0.146402
0.146357
0.146311
0.146265
0.146218
0.146172
0.146126
0.14608
0.146034
0.145988
0.145943
0.145898
0.145853
0.145809
0.145765
0.145721
0.145678
0.145636
0.145593
0.145552
0.145511
0.14547
0.14543
0.14539
0.145351
0.145313
0.145275
0.145238
0.145201
0.145164
0.145128
0.145092
0.145056
0.145021
0.144987
0.144953
0.14492
0.144887
0.144855
0.144824
0.144793
0.144762
0.144733
0.144703
0.144675
0.144647
0.144619
0.144592
0.144566
0.14454
0.144515
0.144491
0.144467
0.144444
0.144421
0.144399
0.144378
0.144357
0.144337
0.144318
0.144299
0.144281
0.144263
0.144247
0.144231
0.144216
0.144201
0.144187
0.144174
0.144162
0.14415
0.144139
0.144129
0.14412
0.144112
0.144105
0.144098
0.144092
0.144088
0.144084
0.144081
0.144079
0.144078
0.144078
0.14408
0.144082
0.144086
0.144091
0.144097
0.144104
0.144113
0.144123
0.144134
0.144147
0.144161
0.144176
0.144193
0.144212
0.144232
0.144253
0.144277
0.144302
0.144329
0.144357
0.144388
0.14442
0.144454
0.14449
0.144528
0.144568
0.144611
0.144655
0.144702
0.144751
0.144802
0.144858
0.147099
0.147045
0.14701
0.146971
0.146933
0.146893
0.146853
0.146812
0.146771
0.14673
0.146688
0.146647
0.146605
0.146563
0.146521
0.146478
0.146436
0.146394
0.146352
0.14631
0.146268
0.146226
0.146185
0.146143
0.146101
0.14606
0.146019
0.145978
0.145937
0.145896
0.145855
0.145815
0.145774
0.145734
0.145694
0.145654
0.145614
0.145575
0.145536
0.145497
0.145459
0.145421
0.145384
0.145347
0.14531
0.145274
0.145239
0.145203
0.145169
0.145134
0.145101
0.145067
0.145034
0.145002
0.14497
0.144939
0.144908
0.144878
0.144849
0.14482
0.144791
0.144764
0.144737
0.14471
0.144684
0.144659
0.144635
0.144611
0.144588
0.144566
0.144545
0.144524
0.144504
0.144485
0.144467
0.14445
0.144433
0.144418
0.144403
0.14439
0.144378
0.144366
0.144356
0.144347
0.144339
0.144332
0.144326
0.144321
0.144318
0.144316
0.144315
0.144316
0.144318
0.144322
0.144327
0.144333
0.144341
0.14435
0.144361
0.144374
0.144388
0.144404
0.144422
0.144441
0.144463
0.144486
0.144511
0.144538
0.144567
0.144597
0.14463
0.144665
0.144702
0.144742
0.144783
0.144827
0.144873
0.144921
0.144973
0.145029
0.14756
0.147513
0.147482
0.147448
0.147412
0.147376
0.147339
0.147301
0.147263
0.147223
0.147184
0.147143
0.147103
0.147061
0.14702
0.146978
0.146936
0.146893
0.14685
0.146807
0.146764
0.14672
0.146677
0.146633
0.146589
0.146544
0.1465
0.146456
0.146411
0.146366
0.146321
0.146276
0.146231
0.146186
0.146141
0.146096
0.146051
0.146007
0.145962
0.145918
0.145874
0.145831
0.145788
0.145745
0.145703
0.145661
0.145619
0.145578
0.145537
0.145497
0.145457
0.145417
0.145378
0.14534
0.145302
0.145265
0.145228
0.145192
0.145157
0.145122
0.145088
0.145054
0.145021
0.144989
0.144958
0.144928
0.144898
0.144869
0.144841
0.144814
0.144788
0.144763
0.144738
0.144715
0.144693
0.144672
0.144651
0.144632
0.144614
0.144598
0.144582
0.144568
0.144554
0.144543
0.144532
0.144523
0.144515
0.144508
0.144503
0.144499
0.144497
0.144496
0.144497
0.144499
0.144503
0.144508
0.144516
0.144524
0.144535
0.144547
0.144561
0.144577
0.144594
0.144613
0.144635
0.144658
0.144683
0.14471
0.144739
0.144771
0.144804
0.14484
0.144878
0.144918
0.14496
0.145005
0.145052
0.145101
0.145153
0.14521
0.147949
0.147905
0.147875
0.147842
0.147807
0.147772
0.147735
0.147697
0.147658
0.147619
0.147578
0.147537
0.147495
0.147452
0.147409
0.147365
0.14732
0.147275
0.14723
0.147184
0.147137
0.14709
0.147043
0.146995
0.146947
0.146898
0.146849
0.1468
0.146751
0.146701
0.146651
0.146601
0.146551
0.146501
0.146451
0.1464
0.14635
0.1463
0.14625
0.146201
0.146151
0.146102
0.146054
0.146005
0.145957
0.14591
0.145863
0.145816
0.14577
0.145724
0.145679
0.145635
0.145591
0.145548
0.145505
0.145463
0.145422
0.145381
0.145341
0.145302
0.145264
0.145227
0.14519
0.145155
0.14512
0.145086
0.145054
0.145022
0.144991
0.144962
0.144933
0.144906
0.14488
0.144854
0.144831
0.144808
0.144787
0.144766
0.144747
0.14473
0.144714
0.144699
0.144686
0.144673
0.144663
0.144654
0.144646
0.14464
0.144635
0.144632
0.144631
0.144631
0.144633
0.144636
0.144641
0.144648
0.144657
0.144667
0.144679
0.144693
0.144709
0.144726
0.144746
0.144767
0.14479
0.144815
0.144843
0.144872
0.144903
0.144936
0.144972
0.14501
0.14505
0.145092
0.145136
0.145183
0.145232
0.145283
0.145338
0.145396
0.148247
0.148201
0.148171
0.148136
0.1481
0.148063
0.148024
0.147984
0.147943
0.147901
0.147858
0.147814
0.147769
0.147723
0.147676
0.147628
0.14758
0.147531
0.147481
0.147431
0.14738
0.147328
0.147276
0.147223
0.14717
0.147117
0.147063
0.147009
0.146954
0.146899
0.146845
0.146789
0.146734
0.146679
0.146623
0.146568
0.146513
0.146458
0.146403
0.146348
0.146294
0.14624
0.146187
0.146134
0.146081
0.146029
0.145978
0.145927
0.145877
0.145828
0.145779
0.145731
0.145684
0.145637
0.145591
0.145546
0.145502
0.145459
0.145417
0.145376
0.145336
0.145297
0.145259
0.145222
0.145186
0.145151
0.145118
0.145086
0.145055
0.145025
0.144996
0.144969
0.144943
0.144919
0.144896
0.144874
0.144854
0.144835
0.144817
0.144801
0.144787
0.144774
0.144762
0.144753
0.144744
0.144737
0.144732
0.144729
0.144727
0.144727
0.144728
0.144731
0.144736
0.144743
0.144751
0.144761
0.144773
0.144787
0.144802
0.144819
0.144838
0.14486
0.144883
0.144907
0.144934
0.144963
0.144994
0.145027
0.145062
0.145098
0.145137
0.145179
0.145222
0.145267
0.145315
0.145365
0.145417
0.145472
0.145529
0.145591
0.148448
0.148398
0.148364
0.148327
0.148288
0.148247
0.148205
0.148162
0.148117
0.148071
0.148024
0.147976
0.147926
0.147876
0.147825
0.147772
0.147719
0.147666
0.147611
0.147556
0.1475
0.147443
0.147386
0.147329
0.14727
0.147212
0.147153
0.147094
0.147035
0.146975
0.146915
0.146856
0.146796
0.146736
0.146676
0.146617
0.146557
0.146498
0.146439
0.146381
0.146323
0.146266
0.146209
0.146153
0.146098
0.146043
0.145989
0.145936
0.145883
0.145832
0.145781
0.145731
0.145682
0.145635
0.145588
0.145542
0.145498
0.145454
0.145412
0.145371
0.145331
0.145292
0.145255
0.145219
0.145184
0.145151
0.145119
0.145088
0.145059
0.145032
0.145005
0.144981
0.144957
0.144936
0.144915
0.144897
0.144879
0.144864
0.14485
0.144838
0.144827
0.144818
0.14481
0.144804
0.1448
0.144797
0.144797
0.144797
0.1448
0.144804
0.14481
0.144818
0.144827
0.144838
0.144851
0.144866
0.144883
0.144901
0.144921
0.144943
0.144967
0.144993
0.145021
0.14505
0.145082
0.145115
0.145151
0.145188
0.145228
0.145269
0.145312
0.145358
0.145405
0.145455
0.145507
0.145561
0.145617
0.145675
0.145737
0.145802
0.148557
0.1485
0.148463
0.148421
0.148378
0.148333
0.148287
0.148239
0.148189
0.148139
0.148087
0.148034
0.14798
0.147925
0.147869
0.147812
0.147754
0.147696
0.147637
0.147577
0.147516
0.147455
0.147393
0.147331
0.147269
0.147206
0.147143
0.14708
0.147016
0.146953
0.14689
0.146826
0.146763
0.1467
0.146637
0.146575
0.146513
0.146451
0.14639
0.14633
0.14627
0.146211
0.146152
0.146095
0.146038
0.145983
0.145928
0.145874
0.145822
0.14577
0.14572
0.14567
0.145622
0.145576
0.14553
0.145486
0.145443
0.145401
0.145361
0.145322
0.145284
0.145248
0.145214
0.145181
0.145149
0.145119
0.145091
0.145064
0.145039
0.145015
0.144993
0.144972
0.144954
0.144936
0.144921
0.144907
0.144895
0.144884
0.144875
0.144868
0.144862
0.144859
0.144856
0.144856
0.144857
0.14486
0.144865
0.144871
0.144879
0.144889
0.1449
0.144913
0.144928
0.144945
0.144964
0.144984
0.145006
0.145029
0.145055
0.145082
0.145111
0.145142
0.145175
0.145209
0.145245
0.145283
0.145323
0.145365
0.145409
0.145455
0.145502
0.145552
0.145603
0.145657
0.145713
0.14577
0.14583
0.145892
0.145956
0.146024
0.148584
0.14852
0.148478
0.148432
0.148384
0.148335
0.148284
0.148231
0.148178
0.148123
0.148066
0.148009
0.147951
0.147891
0.147831
0.14777
0.147708
0.147645
0.147582
0.147518
0.147453
0.147389
0.147324
0.147258
0.147192
0.147127
0.147061
0.146995
0.146929
0.146863
0.146798
0.146733
0.146668
0.146603
0.146539
0.146476
0.146413
0.146351
0.146289
0.146229
0.146169
0.14611
0.146052
0.145996
0.14594
0.145886
0.145832
0.14578
0.14573
0.14568
0.145632
0.145585
0.14554
0.145496
0.145453
0.145412
0.145373
0.145335
0.145298
0.145264
0.14523
0.145199
0.145169
0.14514
0.145114
0.145089
0.145065
0.145044
0.145024
0.145005
0.144989
0.144974
0.144961
0.144949
0.144939
0.144931
0.144925
0.14492
0.144917
0.144915
0.144916
0.144918
0.144921
0.144927
0.144934
0.144942
0.144953
0.144965
0.144978
0.144994
0.145011
0.145029
0.145049
0.145071
0.145095
0.14512
0.145147
0.145175
0.145206
0.145237
0.145271
0.145306
0.145343
0.145381
0.145422
0.145464
0.145507
0.145553
0.1456
0.145649
0.145699
0.145752
0.145806
0.145862
0.14592
0.14598
0.146042
0.146105
0.146172
0.146242
0.148545
0.148474
0.148428
0.148377
0.148325
0.148271
0.148216
0.14816
0.148102
0.148043
0.147983
0.147922
0.14786
0.147797
0.147734
0.147669
0.147604
0.147539
0.147473
0.147406
0.14734
0.147273
0.147206
0.147139
0.147071
0.147004
0.146937
0.146871
0.146804
0.146738
0.146672
0.146607
0.146543
0.146479
0.146416
0.146353
0.146291
0.146231
0.146171
0.146112
0.146055
0.145998
0.145943
0.145889
0.145836
0.145785
0.145735
0.145687
0.14564
0.145594
0.14555
0.145507
0.145467
0.145427
0.145389
0.145353
0.145319
0.145286
0.145255
0.145225
0.145198
0.145172
0.145147
0.145125
0.145104
0.145084
0.145067
0.145051
0.145037
0.145024
0.145014
0.145005
0.144997
0.144991
0.144987
0.144985
0.144984
0.144985
0.144988
0.144992
0.144997
0.145005
0.145014
0.145024
0.145036
0.14505
0.145065
0.145082
0.1451
0.14512
0.145141
0.145164
0.145189
0.145215
0.145242
0.145271
0.145302
0.145334
0.145367
0.145403
0.145439
0.145477
0.145517
0.145558
0.145601
0.145646
0.145692
0.145739
0.145789
0.14584
0.145892
0.145947
0.146003
0.14606
0.14612
0.146181
0.146245
0.14631
0.146377
0.146448
0.148456
0.148379
0.148329
0.148275
0.148219
0.148162
0.148104
0.148044
0.147984
0.147922
0.14786
0.147796
0.147732
0.147667
0.147602
0.147536
0.147469
0.147402
0.147335
0.147268
0.147201
0.147134
0.147067
0.147
0.146933
0.146866
0.1468
0.146735
0.146669
0.146605
0.146541
0.146478
0.146416
0.146355
0.146294
0.146235
0.146176
0.146119
0.146063
0.146008
0.145954
0.145902
0.145851
0.145802
0.145754
0.145707
0.145662
0.145619
0.145577
0.145537
0.145498
0.145461
0.145426
0.145392
0.145361
0.14533
0.145302
0.145275
0.14525
0.145226
0.145204
0.145184
0.145166
0.145149
0.145134
0.145121
0.145109
0.145099
0.14509
0.145084
0.145078
0.145075
0.145073
0.145072
0.145073
0.145076
0.14508
0.145086
0.145093
0.145101
0.145111
0.145123
0.145136
0.14515
0.145166
0.145184
0.145202
0.145223
0.145244
0.145267
0.145292
0.145317
0.145345
0.145373
0.145403
0.145435
0.145467
0.145502
0.145537
0.145574
0.145613
0.145653
0.145695
0.145738
0.145782
0.145828
0.145876
0.145925
0.145975
0.146028
0.146082
0.146137
0.146194
0.146253
0.146314
0.146377
0.146441
0.146507
0.146576
0.146648
0.148334
0.148252
0.1482
0.148143
0.148085
0.148026
0.147966
0.147905
0.147843
0.14778
0.147716
0.147652
0.147587
0.147522
0.147456
0.14739
0.147324
0.147258
0.147192
0.147126
0.14706
0.146994
0.146929
0.146864
0.146799
0.146735
0.146672
0.146609
0.146548
0.146487
0.146426
0.146367
0.146309
0.146252
0.146196
0.146141
0.146088
0.146036
0.145985
0.145935
0.145887
0.14584
0.145795
0.145751
0.145709
0.145669
0.14563
0.145593
0.145557
0.145523
0.145491
0.14546
0.145431
0.145404
0.145378
0.145354
0.145332
0.145311
0.145292
0.145274
0.145259
0.145244
0.145232
0.145221
0.145211
0.145203
0.145197
0.145192
0.145189
0.145187
0.145186
0.145187
0.145189
0.145193
0.145198
0.145205
0.145213
0.145222
0.145233
0.145245
0.145258
0.145273
0.145289
0.145306
0.145324
0.145344
0.145365
0.145388
0.145411
0.145436
0.145462
0.14549
0.145519
0.145549
0.14558
0.145613
0.145647
0.145682
0.145719
0.145757
0.145796
0.145837
0.14588
0.145923
0.145969
0.146015
0.146064
0.146113
0.146165
0.146217
0.146272
0.146328
0.146386
0.146446
0.146507
0.14657
0.146635
0.146702
0.146771
0.146844
0.148194
0.14811
0.148056
0.147998
0.147939
0.147879
0.147819
0.147757
0.147695
0.147633
0.14757
0.147506
0.147442
0.147378
0.147314
0.14725
0.147186
0.147122
0.147059
0.146996
0.146933
0.14687
0.146808
0.146747
0.146687
0.146627
0.146568
0.14651
0.146453
0.146397
0.146342
0.146288
0.146236
0.146185
0.146134
0.146086
0.146038
0.145992
0.145947
0.145904
0.145862
0.145822
0.145783
0.145746
0.14571
0.145676
0.145644
0.145613
0.145584
0.145556
0.14553
0.145506
0.145483
0.145462
0.145443
0.145425
0.145409
0.145394
0.14538
0.145369
0.145358
0.145349
0.145342
0.145336
0.145331
0.145328
0.145326
0.145326
0.145327
0.145329
0.145332
0.145337
0.145343
0.14535
0.145358
0.145368
0.145379
0.145391
0.145404
0.145419
0.145434
0.145451
0.145469
0.145488
0.145508
0.145529
0.145552
0.145575
0.1456
0.145626
0.145653
0.145681
0.145711
0.145742
0.145773
0.145807
0.145841
0.145877
0.145914
0.145952
0.145991
0.146032
0.146075
0.146118
0.146163
0.14621
0.146258
0.146307
0.146358
0.146411
0.146465
0.146521
0.146578
0.146637
0.146698
0.146761
0.146825
0.146891
0.14696
0.147032
0.148049
0.147964
0.147911
0.147853
0.147795
0.147736
0.147676
0.147616
0.147555
0.147495
0.147434
0.147372
0.147311
0.14725
0.147189
0.147128
0.147068
0.147008
0.146948
0.146889
0.146831
0.146773
0.146716
0.14666
0.146605
0.146551
0.146497
0.146445
0.146394
0.146344
0.146295
0.146248
0.146201
0.146156
0.146113
0.14607
0.146029
0.14599
0.145952
0.145915
0.14588
0.145846
0.145814
0.145783
0.145754
0.145726
0.1457
0.145676
0.145653
0.145632
0.145612
0.145594
0.145577
0.145561
0.145548
0.145535
0.145524
0.145514
0.145506
0.145499
0.145493
0.145489
0.145486
0.145484
0.145483
0.145484
0.145486
0.145489
0.145493
0.145498
0.145505
0.145512
0.145521
0.145531
0.145542
0.145554
0.145566
0.14558
0.145595
0.145611
0.145628
0.145646
0.145666
0.145686
0.145707
0.145729
0.145752
0.145776
0.145802
0.145828
0.145855
0.145884
0.145914
0.145944
0.145976
0.146009
0.146043
0.146078
0.146115
0.146153
0.146192
0.146232
0.146273
0.146316
0.14636
0.146406
0.146453
0.146502
0.146551
0.146603
0.146656
0.146711
0.146767
0.146825
0.146884
0.146946
0.147009
0.147074
0.147141
0.147213
0.147909
0.147826
0.147774
0.147717
0.147661
0.147604
0.147547
0.147489
0.147432
0.147374
0.147316
0.147259
0.147202
0.147145
0.147088
0.147032
0.146976
0.146921
0.146867
0.146813
0.14676
0.146708
0.146657
0.146606
0.146557
0.146509
0.146462
0.146416
0.146371
0.146328
0.146285
0.146244
0.146205
0.146166
0.146129
0.146093
0.146059
0.146026
0.145994
0.145963
0.145934
0.145907
0.145881
0.145856
0.145833
0.145811
0.145791
0.145772
0.145754
0.145738
0.145724
0.14571
0.145698
0.145688
0.145678
0.14567
0.145663
0.145658
0.145653
0.14565
0.145648
0.145647
0.145647
0.145649
0.145651
0.145654
0.145659
0.145664
0.145671
0.145678
0.145687
0.145696
0.145706
0.145718
0.14573
0.145743
0.145757
0.145772
0.145788
0.145805
0.145823
0.145842
0.145861
0.145882
0.145903
0.145926
0.145949
0.145973
0.145999
0.146025
0.146052
0.14608
0.146109
0.14614
0.146171
0.146203
0.146237
0.146271
0.146307
0.146344
0.146382
0.146421
0.146462
0.146503
0.146546
0.146591
0.146636
0.146684
0.146732
0.146782
0.146834
0.146887
0.146942
0.146998
0.147056
0.147116
0.147177
0.14724
0.147306
0.147375
0.147782
0.147701
0.147651
0.147598
0.147544
0.147491
0.147437
0.147383
0.14733
0.147276
0.147223
0.14717
0.147118
0.147066
0.147014
0.146963
0.146913
0.146864
0.146815
0.146767
0.14672
0.146674
0.146629
0.146585
0.146542
0.1465
0.146459
0.14642
0.146381
0.146344
0.146308
0.146273
0.146239
0.146207
0.146176
0.146146
0.146118
0.14609
0.146064
0.146039
0.146016
0.145994
0.145973
0.145953
0.145934
0.145917
0.145902
0.145887
0.145874
0.145862
0.145851
0.145842
0.145833
0.145826
0.14582
0.145815
0.145811
0.145808
0.145806
0.145805
0.145805
0.145806
0.145808
0.145811
0.145815
0.14582
0.145826
0.145833
0.14584
0.145849
0.145858
0.145868
0.145879
0.145891
0.145904
0.145917
0.145932
0.145947
0.145963
0.14598
0.145997
0.146016
0.146035
0.146055
0.146076
0.146098
0.146121
0.146145
0.146169
0.146195
0.146221
0.146249
0.146277
0.146307
0.146337
0.146368
0.146401
0.146434
0.146469
0.146505
0.146542
0.14658
0.14662
0.14666
0.146702
0.146745
0.14679
0.146836
0.146883
0.146932
0.146982
0.147034
0.147088
0.147143
0.147199
0.147258
0.147318
0.14738
0.147444
0.147512
0.14767
0.147594
0.147548
0.147498
0.147448
0.147399
0.147349
0.1473
0.147251
0.147203
0.147155
0.147107
0.14706
0.147013
0.146967
0.146922
0.146878
0.146834
0.146791
0.146749
0.146708
0.146668
0.146629
0.146591
0.146554
0.146518
0.146484
0.14645
0.146417
0.146386
0.146355
0.146326
0.146298
0.146271
0.146245
0.14622
0.146196
0.146174
0.146152
0.146132
0.146113
0.146094
0.146077
0.146061
0.146046
0.146033
0.14602
0.146009
0.145998
0.145989
0.145981
0.145973
0.145967
0.145962
0.145957
0.145954
0.145951
0.145949
0.145949
0.145949
0.14595
0.145952
0.145954
0.145958
0.145962
0.145967
0.145973
0.145979
0.145987
0.145995
0.146004
0.146013
0.146024
0.146035
0.146047
0.14606
0.146073
0.146088
0.146103
0.146119
0.146135
0.146153
0.146171
0.14619
0.14621
0.146231
0.146253
0.146275
0.146299
0.146323
0.146349
0.146375
0.146402
0.146431
0.14646
0.146491
0.146522
0.146555
0.146589
0.146624
0.14666
0.146698
0.146736
0.146777
0.146818
0.146861
0.146905
0.146951
0.146998
0.147047
0.147097
0.147149
0.147203
0.147258
0.147315
0.147374
0.147435
0.147498
0.147563
0.147632
0.147577
0.147506
0.147464
0.147418
0.147373
0.147328
0.147283
0.147239
0.147195
0.147152
0.147109
0.147067
0.147026
0.146985
0.146944
0.146905
0.146866
0.146828
0.146791
0.146755
0.14672
0.146685
0.146652
0.146619
0.146588
0.146557
0.146528
0.146499
0.146471
0.146445
0.146419
0.146394
0.14637
0.146348
0.146326
0.146305
0.146285
0.146266
0.146248
0.146231
0.146214
0.146199
0.146184
0.146171
0.146158
0.146146
0.146135
0.146126
0.146117
0.146108
0.146101
0.146095
0.146089
0.146084
0.14608
0.146077
0.146075
0.146073
0.146072
0.146072
0.146072
0.146074
0.146076
0.146078
0.146082
0.146086
0.14609
0.146096
0.146102
0.146109
0.146117
0.146125
0.146134
0.146144
0.146154
0.146166
0.146178
0.146191
0.146204
0.146219
0.146234
0.14625
0.146267
0.146285
0.146303
0.146323
0.146343
0.146365
0.146387
0.146411
0.146435
0.146461
0.146487
0.146515
0.146544
0.146574
0.146605
0.146638
0.146672
0.146707
0.146743
0.146781
0.14682
0.146861
0.146903
0.146947
0.146992
0.147039
0.147088
0.147138
0.14719
0.147244
0.1473
0.147357
0.147417
0.147478
0.147542
0.147608
0.147676
0.147748
0.147502
0.147437
0.147399
0.147357
0.147317
0.147277
0.147237
0.147198
0.14716
0.147121
0.147084
0.147047
0.147011
0.146975
0.14694
0.146906
0.146873
0.14684
0.146809
0.146777
0.146747
0.146718
0.146689
0.146661
0.146635
0.146608
0.146583
0.146559
0.146535
0.146512
0.14649
0.146469
0.146449
0.146429
0.14641
0.146392
0.146375
0.146358
0.146342
0.146327
0.146312
0.146298
0.146285
0.146273
0.146261
0.14625
0.14624
0.146231
0.146222
0.146214
0.146207
0.1462
0.146194
0.146189
0.146184
0.14618
0.146177
0.146174
0.146172
0.146171
0.14617
0.14617
0.146171
0.146172
0.146174
0.146177
0.14618
0.146184
0.146188
0.146194
0.1462
0.146206
0.146214
0.146222
0.146231
0.146241
0.146252
0.146263
0.146275
0.146288
0.146302
0.146317
0.146333
0.14635
0.146368
0.146387
0.146406
0.146427
0.146449
0.146473
0.146497
0.146522
0.146549
0.146577
0.146606
0.146637
0.146669
0.146702
0.146737
0.146773
0.146811
0.14685
0.146891
0.146933
0.146977
0.147023
0.14707
0.14712
0.147171
0.147223
0.147278
0.147335
0.147393
0.147454
0.147517
0.147581
0.147648
0.147717
0.147789
0.147864
0.147444
0.147384
0.14735
0.147314
0.147278
0.147242
0.147208
0.147173
0.147139
0.147106
0.147074
0.147042
0.147011
0.14698
0.14695
0.146921
0.146892
0.146864
0.146837
0.14681
0.146784
0.146759
0.146734
0.14671
0.146687
0.146665
0.146643
0.146622
0.146601
0.146581
0.146562
0.146543
0.146525
0.146507
0.14649
0.146474
0.146458
0.146443
0.146428
0.146414
0.1464
0.146387
0.146375
0.146363
0.146351
0.14634
0.14633
0.14632
0.146311
0.146303
0.146295
0.146287
0.14628
0.146274
0.146269
0.146264
0.146259
0.146255
0.146252
0.146249
0.146247
0.146246
0.146245
0.146245
0.146245
0.146247
0.146248
0.146251
0.146254
0.146258
0.146263
0.146269
0.146275
0.146282
0.14629
0.146299
0.146309
0.14632
0.146332
0.146344
0.146358
0.146372
0.146388
0.146405
0.146423
0.146442
0.146462
0.146483
0.146506
0.14653
0.146555
0.146581
0.146609
0.146638
0.146669
0.146701
0.146734
0.146769
0.146805
0.146843
0.146883
0.146924
0.146967
0.147011
0.147057
0.147105
0.147155
0.147206
0.147259
0.147314
0.147371
0.14743
0.147491
0.147554
0.147618
0.147685
0.147754
0.147825
0.147899
0.147976
0.147399
0.147345
0.147315
0.147283
0.147251
0.14722
0.14719
0.14716
0.14713
0.147102
0.147073
0.147046
0.147019
0.146992
0.146967
0.146941
0.146917
0.146892
0.146869
0.146846
0.146823
0.146801
0.14678
0.146759
0.146739
0.146719
0.146699
0.146681
0.146662
0.146644
0.146627
0.14661
0.146593
0.146577
0.146561
0.146546
0.146531
0.146516
0.146502
0.146488
0.146475
0.146462
0.146449
0.146437
0.146425
0.146414
0.146403
0.146393
0.146383
0.146374
0.146365
0.146357
0.14635
0.146343
0.146336
0.14633
0.146325
0.14632
0.146316
0.146312
0.146309
0.146307
0.146305
0.146304
0.146304
0.146304
0.146306
0.146308
0.146311
0.146314
0.146319
0.146324
0.14633
0.146338
0.146346
0.146355
0.146365
0.146376
0.146388
0.146401
0.146416
0.146431
0.146448
0.146466
0.146484
0.146505
0.146526
0.146549
0.146573
0.146598
0.146624
0.146652
0.146682
0.146712
0.146744
0.146778
0.146813
0.146849
0.146887
0.146927
0.146968
0.147011
0.147055
0.147101
0.147148
0.147197
0.147248
0.1473
0.147355
0.147411
0.147468
0.147528
0.147589
0.147652
0.147717
0.147784
0.147853
0.147924
0.147997
0.148074
0.147364
0.147316
0.147289
0.147261
0.147233
0.147205
0.147179
0.147153
0.147127
0.147102
0.147078
0.147054
0.14703
0.147007
0.146985
0.146963
0.146941
0.14692
0.146899
0.146879
0.146859
0.146839
0.14682
0.146801
0.146783
0.146765
0.146747
0.14673
0.146713
0.146696
0.14668
0.146664
0.146648
0.146633
0.146618
0.146603
0.146588
0.146574
0.14656
0.146546
0.146533
0.14652
0.146507
0.146495
0.146483
0.146471
0.14646
0.146449
0.146439
0.146429
0.14642
0.146412
0.146404
0.146396
0.146389
0.146383
0.146377
0.146372
0.146368
0.146364
0.146361
0.146359
0.146357
0.146356
0.146356
0.146357
0.146359
0.146361
0.146365
0.146369
0.146374
0.14638
0.146388
0.146396
0.146405
0.146415
0.146427
0.146439
0.146453
0.146467
0.146483
0.1465
0.146518
0.146538
0.146558
0.14658
0.146603
0.146627
0.146653
0.146679
0.146708
0.146737
0.146768
0.1468
0.146833
0.146868
0.146904
0.146941
0.14698
0.147021
0.147062
0.147105
0.14715
0.147196
0.147244
0.147293
0.147343
0.147395
0.147449
0.147504
0.147561
0.14762
0.14768
0.147742
0.147806
0.147871
0.147938
0.148007
0.148079
0.148154
0.147337
0.147293
0.147269
0.147243
0.147219
0.147194
0.147171
0.147148
0.147125
0.147103
0.147081
0.14706
0.147039
0.147019
0.146999
0.146979
0.14696
0.146941
0.146922
0.146903
0.146885
0.146867
0.14685
0.146832
0.146815
0.146798
0.146782
0.146765
0.146749
0.146733
0.146717
0.146701
0.146686
0.146671
0.146656
0.146641
0.146627
0.146613
0.146599
0.146585
0.146572
0.146559
0.146546
0.146534
0.146522
0.14651
0.146499
0.146488
0.146478
0.146468
0.146459
0.146451
0.146443
0.146436
0.146429
0.146423
0.146418
0.146413
0.146409
0.146406
0.146404
0.146403
0.146402
0.146402
0.146403
0.146405
0.146408
0.146412
0.146417
0.146423
0.14643
0.146437
0.146446
0.146456
0.146467
0.146479
0.146492
0.146506
0.146522
0.146538
0.146556
0.146574
0.146594
0.146615
0.146637
0.146661
0.146685
0.146711
0.146738
0.146766
0.146795
0.146825
0.146857
0.146889
0.146923
0.146959
0.146995
0.147033
0.147072
0.147112
0.147153
0.147196
0.14724
0.147285
0.147332
0.14738
0.14743
0.14748
0.147533
0.147586
0.147641
0.147698
0.147756
0.147816
0.147877
0.14794
0.148005
0.148071
0.14814
0.148212
0.147313
0.147272
0.147251
0.147227
0.147205
0.147183
0.147161
0.14714
0.14712
0.1471
0.14708
0.147061
0.147042
0.147023
0.147004
0.146986
0.146968
0.14695
0.146933
0.146915
0.146898
0.146881
0.146864
0.146847
0.146831
0.146814
0.146798
0.146782
0.146766
0.14675
0.146734
0.146719
0.146704
0.146689
0.146674
0.146659
0.146645
0.146631
0.146617
0.146603
0.14659
0.146577
0.146564
0.146552
0.14654
0.146529
0.146518
0.146508
0.146498
0.146489
0.14648
0.146472
0.146465
0.146459
0.146453
0.146448
0.146444