/*--------------------------------*- C++ -*----------------------------------*\
  =========                 |
  \\      /  F ield         | OpenFOAM: The Open Source CFD Toolbox
   \\    /   O peration     | Website:  https://openfoam.org
    \\  /    A nd           | Version:  10
     \\/     M anipulation  |
\*---------------------------------------------------------------------------*/
FoamFile
{
    format      ascii;
    class       volScalarField;
    location    "0.0005";
    object      nut;
}
// * * * * * * * * * * * * * * * * * * * * * * * * * * * * * * * * * * * * * //

dimensions      [0 2 -1 0 0 0 0];

internalField   nonuniform List<scalar> 
13320
(
0.000425874
0.000399198
0.000337873
0.000270019
0.000217276
0.000180139
0.000155747
0.00014064
0.000132487
0.000129014
0.00012783
0.000128052
0.000129866
0.000131822
0.000133663
0.000135119
0.000135782
0.0001358
0.00013568
0.000135338
0.000134837
0.000134488
0.000134542
0.000134918
0.000135736
0.000137308
0.000139361
0.000141395
0.000143198
0.000144871
0.000146424
0.000147806
0.000148965
0.000149999
0.000151041
0.000152034
0.000152689
0.000152893
0.000153
0.000153291
0.000153626
0.000153876
0.000154023
0.000154138
0.00015414
0.000153996
0.000153626
0.000153336
0.00015176
0.000154366
0.00170839
0.00162457
0.00148278
0.00131207
0.00116092
0.00104628
0.00096834
0.000919072
0.000893958
0.000886574
0.000886131
0.000891224
0.000902109
0.00091245
0.000922131
0.000929694
0.000933483
0.000933063
0.000932294
0.000931076
0.000928374
0.000925604
0.000923481
0.00092231
0.000922698
0.000926137
0.000931736
0.000937432
0.000942283
0.000946902
0.000951473
0.000955627
0.000958853
0.000961706
0.000964675
0.000967618
0.000969546
0.000970189
0.000969871
0.000970247
0.000970921
0.000971053
0.000970584
0.000969954
0.000968528
0.000966495
0.00096238
0.000957922
0.000944211
0.000943312
0.00315278
0.00306944
0.00289506
0.00265339
0.00241682
0.00222013
0.00207569
0.0019802
0.0019319
0.00192098
0.00192065
0.00193335
0.0019606
0.00198511
0.00200867
0.00202752
0.00203788
0.00204018
0.00203767
0.00203198
0.002024
0.00201465
0.00200529
0.00199705
0.00199131
0.00199185
0.00199719
0.00200288
0.0020083
0.00201329
0.00201759
0.00202088
0.00202314
0.00202523
0.00202829
0.00203189
0.00203357
0.0020321
0.0020291
0.00202763
0.00202696
0.00202539
0.00202249
0.00201951
0.00201485
0.0020094
0.0019996
0.00198953
0.00196722
0.00196291
0.00462247
0.00452571
0.00429321
0.00393849
0.00358246
0.00328334
0.00306103
0.00291404
0.0028424
0.0028318
0.00282928
0.00285362
0.0029073
0.00295409
0.00300349
0.00304758
0.00307941
0.00309923
0.00311035
0.00311431
0.00311449
0.00311139
0.00310739
0.00310478
0.00310593
0.00311475
0.00312886
0.0031431
0.00315651
0.00316885
0.00317969
0.00318858
0.00319547
0.00320172
0.00320918
0.00321755
0.00322291
0.00322287
0.00322005
0.00321922
0.00321973
0.00321874
0.00321544
0.00321186
0.00320576
0.00319841
0.00318502
0.00317101
0.00314452
0.00314268
0.00605087
0.00595126
0.00566456
0.00526624
0.00485686
0.00448558
0.00418228
0.00395229
0.0038015
0.00372475
0.00370978
0.00375091
0.00384435
0.00391729
0.00400299
0.00408371
0.00414841
0.00419657
0.00423176
0.0042549
0.00427097
0.00428013
0.00428612
0.00429285
0.00430402
0.00432367
0.0043486
0.00437315
0.0043961
0.00441711
0.00443565
0.00445113
0.00446347
0.00447459
0.0044872
0.00450081
0.00451038
0.00451217
0.00450984
0.00450999
0.00451194
0.00451183
0.00450826
0.00450418
0.00449703
0.00448801
0.00447224
0.00445545
0.00442912
0.00443182
0.00738596
0.00729234
0.00699994
0.00661423
0.00620091
0.00580149
0.0054507
0.00516093
0.0049408
0.00479013
0.00470814
0.00469256
0.00474128
0.0048321
0.00496588
0.00509479
0.00520426
0.00529348
0.00536495
0.00541743
0.00545833
0.00548638
0.00550677
0.00552573
0.00554868
0.00557999
0.00561607
0.00565104
0.00568353
0.00571309
0.00573918
0.00576107
0.00577857
0.00579415
0.00581145
0.00582994
0.00584359
0.00584726
0.00584505
0.00584541
0.00584849
0.00584915
0.00584491
0.00583995
0.0058319
0.00582093
0.0058034
0.00578489
0.00576147
0.00577058
0.00859092
0.00850741
0.0082477
0.00790678
0.00752365
0.00713156
0.00676596
0.00644903
0.00618897
0.00598929
0.00585224
0.00577379
0.00575681
0.00579536
0.00589224
0.00603129
0.00619593
0.0063397
0.00646173
0.00655573
0.00663286
0.00668811
0.00672841
0.00676266
0.00679846
0.00684104
0.00688715
0.00693119
0.00697183
0.00700852
0.00704081
0.00706786
0.0070892
0.00710798
0.00712871
0.00715076
0.00716742
0.00717213
0.00716868
0.00716815
0.00717149
0.00717238
0.0071661
0.00715934
0.00715038
0.00713605
0.00711681
0.00709764
0.00707894
0.00709338
0.00964129
0.00956696
0.00936073
0.00907992
0.00874563
0.00838464
0.00802795
0.0077138
0.00744279
0.00722453
0.00706214
0.00694559
0.00687769
0.00685878
0.00689407
0.00698242
0.00711706
0.00728058
0.00746785
0.00761635
0.00774437
0.0078378
0.00790537
0.0079591
0.00800886
0.00806146
0.00811531
0.00816589
0.00821219
0.00825347
0.00828962
0.00831972
0.00834257
0.00836229
0.00838432
0.00840743
0.00842521
0.00842976
0.00842298
0.00841895
0.00842084
0.0084213
0.00840939
0.00839941
0.00838963
0.00837889
0.00836478
0.008351
0.00834119
0.0083606
0.0105273
0.0104683
0.0103134
0.0100949
0.00981371
0.00949251
0.00916948
0.00886783
0.00860679
0.00839731
0.00824131
0.00811592
0.00802724
0.0079717
0.00795683
0.00798664
0.00806107
0.00817955
0.00834709
0.00854044
0.00873758
0.00888326
0.00898874
0.00906863
0.00913479
0.00919623
0.00925496
0.0093087
0.00935732
0.00939964
0.00943639
0.00946667
0.00948766
0.0095052
0.00952566
0.00954582
0.00956172
0.00956427
0.00954953
0.00953874
0.00953714
0.00953665
0.0095309
0.00952572
0.00952092
0.00951553
0.00950768
0.00950017
0.00949844
0.00951989
0.0112514
0.0112082
0.0110976
0.010935
0.0107106
0.0104501
0.010179
0.00991184
0.00966964
0.00946514
0.00930731
0.00919451
0.00911567
0.00905309
0.0090134
0.009003
0.00902294
0.00908054
0.00919068
0.00935405
0.00955852
0.00977
0.0099285
0.0100461
0.0101344
0.0102047
0.0102656
0.0103188
0.0103662
0.0104053
0.0104388
0.0104662
0.0104806
0.010492
0.0105077
0.0105181
0.0105281
0.0105272
0.0105149
0.0105066
0.0105085
0.0105125
0.0105122
0.0105119
0.0105122
0.0105116
0.010509
0.010507
0.01051
0.0105307
0.0118281
0.0117981
0.0117226
0.0116039
0.0114381
0.0112414
0.0110291
0.0108087
0.0106004
0.0104161
0.0102628
0.0101469
0.0100683
0.0100224
0.00998606
0.00996276
0.00995072
0.00995944
0.0100098
0.0101171
0.0102794
0.0104791
0.010681
0.0108528
0.0109743
0.0110567
0.0111184
0.0111679
0.0112107
0.0112408
0.0112667
0.0112878
0.0112878
0.011288
0.0112956
0.0113103
0.0113261
0.0113306
0.011323
0.0113179
0.0113235
0.0113317
0.0113355
0.0113384
0.011342
0.0113447
0.0113459
0.0113474
0.0113526
0.0113705
0.0122778
0.0122578
0.0122083
0.0121244
0.0120083
0.0118671
0.0117084
0.0115336
0.0113661
0.0112168
0.011083
0.0109744
0.0108917
0.0108374
0.010811
0.0108018
0.0107851
0.0107679
0.0107753
0.0108293
0.0109364
0.011089
0.0112704
0.0114607
0.0116329
0.0117349
0.0117977
0.0118396
0.0118744
0.011887
0.0118994
0.0119115
0.0119161
0.0119198
0.0119299
0.0119498
0.0119729
0.0119846
0.0119818
0.0119783
0.0119847
0.0119955
0.0120018
0.0120059
0.0120107
0.012015
0.0120178
0.0120208
0.0120263
0.0120403
0.0126243
0.0126115
0.0125804
0.0125229
0.0124444
0.0123452
0.0122256
0.0120955
0.0119662
0.0118457
0.011739
0.011654
0.0115799
0.0115222
0.0114882
0.0114795
0.0114813
0.0114622
0.0114502
0.0114705
0.0115331
0.0116365
0.0117723
0.0119326
0.0121037
0.0122334
0.0122986
0.0123275
0.0123509
0.0123683
0.0123855
0.0124019
0.0124141
0.0124238
0.0124373
0.0124605
0.0124882
0.0125054
0.0125056
0.0125014
0.012506
0.0125167
0.0125241
0.0125282
0.0125326
0.0125369
0.0125397
0.0125424
0.0125467
0.0125566
0.0128919
0.0128841
0.0128657
0.0128272
0.0127755
0.0127049
0.0126212
0.0125276
0.0124318
0.0123381
0.0122518
0.0121792
0.012121
0.0120733
0.0120376
0.0120208
0.0120156
0.0120102
0.0120014
0.012009
0.0120461
0.0121134
0.0122081
0.0123272
0.0124664
0.0125874
0.012655
0.0126895
0.0127179
0.012744
0.0127691
0.0127917
0.0128094
0.0128225
0.0128366
0.0128591
0.0128876
0.0129084
0.0129111
0.012905
0.0129046
0.0129125
0.0129194
0.0129225
0.0129258
0.0129298
0.0129327
0.0129349
0.0129382
0.0129451
0.0130922
0.013088
0.013078
0.0130529
0.01302
0.0129713
0.0129142
0.0128488
0.0127803
0.0127117
0.0126467
0.0125897
0.0125414
0.0125005
0.0124744
0.012457
0.0124421
0.012428
0.0124245
0.0124373
0.0124679
0.0125171
0.0125847
0.0126697
0.0127724
0.0128704
0.0129352
0.0129772
0.0130132
0.0130465
0.0130772
0.0131038
0.0131243
0.0131386
0.0131513
0.0131709
0.0131981
0.0132212
0.0132273
0.0132204
0.0132164
0.013221
0.0132272
0.0132286
0.0132273
0.0132279
0.0132291
0.0132304
0.0132326
0.0132377
0.0132488
0.0132472
0.013243
0.0132262
0.0132055
0.0131714
0.0131319
0.0130833
0.0130316
0.0129791
0.01293
0.0128894
0.0128552
0.0128216
0.0127976
0.0127912
0.0127783
0.0127571
0.0127432
0.0127563
0.012795
0.0128416
0.012895
0.0129582
0.0130337
0.0131113
0.0131719
0.0132183
0.0132585
0.0132945
0.0133263
0.0133532
0.0133734
0.0133864
0.0133955
0.0134089
0.0134314
0.0134546
0.0134635
0.0134557
0.0134453
0.0134433
0.0134485
0.0134508
0.0134496
0.0134481
0.0134475
0.0134473
0.0134478
0.0134505
0.0133757
0.0133743
0.0133745
0.0133647
0.0133535
0.0133315
0.0133052
0.0132704
0.013233
0.0131929
0.0131529
0.0131203
0.0130925
0.0130651
0.0130399
0.0130286
0.0130188
0.013
0.0129811
0.0129859
0.0130227
0.0130784
0.0131328
0.0131885
0.0132504
0.0133143
0.0133687
0.0134138
0.0134526
0.0134865
0.0135159
0.0135404
0.0135587
0.01357
0.0135757
0.0135826
0.0135986
0.013621
0.0136347
0.0136313
0.0136174
0.0136066
0.0136053
0.013609
0.0136111
0.0136117
0.0136125
0.0136133
0.0136144
0.0136165
0.0134519
0.0134508
0.0134519
0.0134466
0.0134413
0.013428
0.0134123
0.0133912
0.0133696
0.0133457
0.0133195
0.0132984
0.0132829
0.0132628
0.0132437
0.0132347
0.0132244
0.0132054
0.0131839
0.0131806
0.0132079
0.0132592
0.01332
0.0133734
0.0134251
0.0134774
0.0135256
0.0135682
0.0136054
0.0136378
0.013666
0.0136899
0.0137085
0.0137206
0.0137261
0.0137278
0.0137358
0.0137542
0.0137746
0.0137839
0.013778
0.0137653
0.0137558
0.0137516
0.0137511
0.0137515
0.0137523
0.0137534
0.0137547
0.0137566
0.0135194
0.0135217
0.0135233
0.0135188
0.0135158
0.0135033
0.013489
0.0134723
0.0134546
0.0134341
0.0134124
0.0133968
0.0133893
0.0133837
0.0133738
0.0133689
0.0133615
0.0133428
0.0133212
0.0133202
0.0133452
0.0133905
0.013447
0.0135062
0.0135583
0.0136082
0.0136547
0.013696
0.0137315
0.0137619
0.0137875
0.0138088
0.013824
0.0138337
0.0138371
0.013836
0.0138361
0.013844
0.0138599
0.0138747
0.0138793
0.0138741
0.0138643
0.013855
0.0138482
0.0138437
0.0138407
0.0138385
0.0138369
0.0138363
0.0136045
0.0136067
0.0136104
0.0136076
0.0136085
0.0136001
0.0135898
0.013577
0.013561
0.0135397
0.0135168
0.0134979
0.0134826
0.0134699
0.0134607
0.0134538
0.0134432
0.0134219
0.0134006
0.0134035
0.0134337
0.0134812
0.0135375
0.0135969
0.0136571
0.013708
0.0137511
0.0137872
0.013817
0.0138415
0.0138596
0.013875
0.0138876
0.0138967
0.0139012
0.013901
0.0138985
0.0138983
0.0139042
0.0139148
0.0139242
0.0139283
0.0139271
0.0139228
0.0139172
0.0139116
0.013907
0.0139033
0.0139002
0.0138975
0.0136287
0.0136222
0.013626
0.0136254
0.0136299
0.0136301
0.0136302
0.0136309
0.0136281
0.0136223
0.0136149
0.0136078
0.013597
0.0135891
0.0135886
0.013587
0.0135733
0.0135405
0.0135128
0.0135056
0.0135306
0.0135759
0.0136272
0.0136791
0.0137303
0.0137783
0.0138168
0.0138478
0.0138731
0.0138952
0.0139148
0.0139326
0.0139485
0.0139622
0.0139726
0.013979
0.0139817
0.0139826
0.0139851
0.013991
0.0139985
0.0140052
0.0140097
0.0140117
0.0140119
0.0140106
0.0140082
0.0140055
0.014003
0.0139999
0.0135888
0.0135839
0.0135847
0.0135851
0.0135872
0.0135874
0.0135888
0.0135923
0.0135954
0.0135999
0.0136066
0.0136132
0.0136177
0.0136271
0.013647
0.0136618
0.0136507
0.0136149
0.0135784
0.0135738
0.0135984
0.0136418
0.0136908
0.0137384
0.0137848
0.0138305
0.0138714
0.0139062
0.0139365
0.0139632
0.0139869
0.0140081
0.0140269
0.0140432
0.0140568
0.014067
0.0140736
0.0140772
0.0140785
0.0140805
0.0140834
0.0140869
0.0140901
0.0140925
0.0140941
0.0140944
0.0140935
0.0140919
0.0140903
0.0140883
0.0136008
0.0136092
0.0136062
0.0136071
0.0136001
0.0135958
0.013588
0.0135827
0.0135762
0.0135693
0.0135654
0.0135626
0.0135622
0.0135677
0.0135822
0.0135917
0.0135838
0.0135634
0.0135485
0.0135588
0.0135994
0.0136532
0.0137116
0.0137695
0.0138247
0.0138773
0.0139227
0.01396
0.0139905
0.0140155
0.0140361
0.014053
0.014067
0.0140785
0.0140879
0.0140945
0.0140993
0.0141018
0.0141026
0.0141023
0.0141018
0.0141014
0.0141011
0.0141009
0.0141008
0.0141
0.0140983
0.0140965
0.014095
0.0140946
0.0137004
0.0137178
0.0137156
0.0137172
0.0137091
0.0136997
0.0136855
0.0136695
0.0136506
0.0136314
0.0136119
0.013594
0.0135812
0.0135694
0.0135596
0.0135502
0.0135407
0.0135307
0.0135379
0.0135702
0.013617
0.0136771
0.0137401
0.0138012
0.0138588
0.0139094
0.0139494
0.0139791
0.0140008
0.0140166
0.0140281
0.0140366
0.0140423
0.014047
0.0140508
0.0140538
0.0140555
0.0140561
0.0140555
0.0140542
0.0140524
0.0140506
0.0140488
0.014047
0.0140453
0.014044
0.0140422
0.0140404
0.0140389
0.0140377
0.0138194
0.0138345
0.0138338
0.0138353
0.0138297
0.0138222
0.0138115
0.0137976
0.0137807
0.0137617
0.0137406
0.0137193
0.0136982
0.0136781
0.0136584
0.0136392
0.0136253
0.0136236
0.0136374
0.0136668
0.0137069
0.0137505
0.0137996
0.0138467
0.0138898
0.013926
0.0139518
0.0139689
0.0139801
0.0139873
0.0139911
0.0139936
0.0139952
0.0139962
0.0139969
0.0139971
0.0139971
0.0139968
0.0139962
0.0139953
0.0139942
0.0139931
0.0139919
0.0139905
0.0139893
0.0139884
0.0139874
0.0139865
0.0139855
0.0139847
0.0139018
0.0139103
0.0139105
0.0139112
0.0139086
0.0139046
0.0138991
0.0138913
0.0138817
0.0138702
0.0138565
0.0138412
0.0138252
0.0138085
0.0137923
0.0137782
0.0137683
0.0137667
0.0137748
0.0137913
0.0138135
0.0138391
0.0138667
0.0138932
0.0139163
0.0139349
0.0139481
0.0139555
0.01396
0.0139626
0.0139642
0.0139652
0.0139658
0.0139662
0.0139664
0.0139666
0.0139667
0.0139666
0.0139666
0.0139664
0.0139661
0.0139656
0.0139651
0.0139646
0.0139642
0.0139639
0.0139637
0.0139634
0.0139631
0.0139629
0.0139436
0.0139473
0.0139479
0.0139481
0.013947
0.0139454
0.0139431
0.0139397
0.0139357
0.0139304
0.013924
0.0139167
0.0139085
0.0138992
0.0138899
0.0138817
0.0138763
0.013875
0.0138775
0.0138841
0.0138934
0.0139044
0.013916
0.0139268
0.0139365
0.013944
0.0139491
0.0139524
0.0139545
0.013956
0.013957
0.0139579
0.0139585
0.0139591
0.0139595
0.0139597
0.0139599
0.0139602
0.0139604
0.0139606
0.0139607
0.0139608
0.0139608
0.0139609
0.0139609
0.0139609
0.013961
0.013961
0.013961
0.013961
0.0139624
0.0139639
0.0139645
0.0139646
0.0139642
0.0139637
0.0139627
0.0139612
0.0139597
0.0139574
0.013955
0.0139518
0.0139484
0.0139444
0.0139405
0.0139369
0.0139341
0.0139327
0.0139331
0.0139346
0.0139374
0.0139405
0.0139443
0.0139477
0.0139509
0.0139539
0.013956
0.0139577
0.013959
0.0139601
0.0139611
0.0139619
0.0139624
0.0139629
0.0139634
0.0139638
0.0139643
0.0139646
0.013965
0.0139653
0.0139654
0.0139656
0.0139659
0.013966
0.0139661
0.0139662
0.0139663
0.0139664
0.0139665
0.0139666
0.0139719
0.0139727
0.0139732
0.0139732
0.0139731
0.0139729
0.0139724
0.0139717
0.0139709
0.0139699
0.0139688
0.0139673
0.0139659
0.0139641
0.0139623
0.0139607
0.0139593
0.0139583
0.0139576
0.0139577
0.0139579
0.0139587
0.0139595
0.0139607
0.0139618
0.013963
0.0139643
0.0139654
0.0139664
0.0139671
0.0139678
0.0139684
0.0139691
0.0139696
0.0139701
0.0139705
0.0139709
0.0139713
0.0139716
0.0139719
0.013972
0.0139722
0.0139723
0.0139725
0.0139726
0.0139727
0.0139728
0.0139729
0.013973
0.0139731
0.013978
0.0139785
0.0139789
0.013979
0.0139791
0.0139789
0.0139785
0.0139782
0.0139777
0.013977
0.0139764
0.0139756
0.0139747
0.0139737
0.0139728
0.0139719
0.013971
0.0139702
0.0139696
0.0139691
0.013969
0.0139689
0.0139692
0.0139695
0.0139702
0.0139708
0.0139715
0.0139723
0.013973
0.0139737
0.0139743
0.0139749
0.0139754
0.0139759
0.0139763
0.0139767
0.013977
0.0139773
0.0139774
0.0139775
0.0139777
0.0139779
0.013978
0.0139782
0.0139783
0.0139784
0.0139784
0.0139785
0.0139786
0.0139786
0.0139825
0.013983
0.0139833
0.0139835
0.0139834
0.0139833
0.0139832
0.0139829
0.0139825
0.0139822
0.0139816
0.013981
0.0139805
0.01398
0.0139792
0.0139786
0.013978
0.0139774
0.0139769
0.0139764
0.0139761
0.013976
0.013976
0.0139762
0.0139765
0.0139771
0.0139776
0.0139782
0.0139787
0.0139793
0.0139798
0.0139803
0.0139807
0.0139809
0.0139812
0.0139815
0.0139817
0.0139819
0.0139821
0.0139822
0.0139824
0.0139825
0.0139826
0.0139827
0.0139828
0.0139829
0.0139829
0.013983
0.0139831
0.0139831
0.0139861
0.0139864
0.0139867
0.0139868
0.0139868
0.0139868
0.0139867
0.0139865
0.0139863
0.013986
0.0139856
0.0139852
0.0139848
0.0139844
0.0139838
0.0139834
0.0139829
0.0139825
0.0139821
0.0139817
0.0139814
0.0139814
0.0139813
0.0139813
0.0139816
0.0139819
0.0139824
0.0139829
0.0139833
0.0139837
0.013984
0.0139843
0.0139846
0.0139849
0.0139852
0.0139854
0.0139856
0.0139857
0.0139858
0.0139859
0.0139861
0.0139862
0.0139863
0.0139863
0.0139864
0.0139865
0.0139865
0.0139866
0.0139866
0.0139867
0.0139889
0.0139892
0.0139894
0.0139895
0.0139896
0.0139895
0.0139894
0.0139894
0.0139892
0.0139889
0.0139887
0.0139884
0.0139881
0.0139878
0.0139875
0.013987
0.0139867
0.0139864
0.0139861
0.0139858
0.0139856
0.0139854
0.0139854
0.0139854
0.0139856
0.0139858
0.0139861
0.0139864
0.0139867
0.0139871
0.0139874
0.0139876
0.0139879
0.0139881
0.0139883
0.0139885
0.0139886
0.0139887
0.0139888
0.0139889
0.013989
0.0139891
0.0139892
0.0139892
0.0139892
0.0139893
0.0139893
0.0139894
0.0139894
0.0139895
0.0139912
0.0139914
0.0139915
0.0139917
0.0139917
0.0139917
0.0139917
0.0139916
0.0139914
0.0139913
0.0139911
0.0139909
0.0139907
0.0139904
0.0139902
0.0139899
0.0139896
0.0139894
0.0139891
0.0139889
0.0139888
0.0139886
0.0139885
0.0139886
0.0139887
0.0139889
0.0139891
0.0139893
0.0139896
0.0139898
0.01399
0.0139903
0.0139905
0.0139906
0.0139908
0.0139908
0.013991
0.013991
0.0139912
0.0139912
0.0139913
0.0139914
0.0139914
0.0139915
0.0139915
0.0139915
0.0139916
0.0139916
0.0139916
0.0139917
0.013993
0.0139931
0.0139933
0.0139933
0.0139934
0.0139934
0.0139934
0.0139933
0.0139932
0.0139931
0.013993
0.0139928
0.0139927
0.0139925
0.0139923
0.0139921
0.0139919
0.0139917
0.0139915
0.0139914
0.0139912
0.0139911
0.0139911
0.0139911
0.0139911
0.0139912
0.0139914
0.0139916
0.0139918
0.013992
0.0139922
0.0139923
0.0139924
0.0139925
0.0139927
0.0139927
0.0139928
0.0139929
0.013993
0.013993
0.0139931
0.0139932
0.0139932
0.0139932
0.0139933
0.0139933
0.0139933
0.0139933
0.0139934
0.0139934
0.0139944
0.0139945
0.0139946
0.0139947
0.0139947
0.0139948
0.0139948
0.0139947
0.0139946
0.0139946
0.0139945
0.0139943
0.0139942
0.0139941
0.013994
0.0139938
0.0139937
0.0139935
0.0139934
0.0139932
0.0139931
0.0139931
0.013993
0.0139931
0.0139931
0.0139931
0.0139932
0.0139934
0.0139936
0.0139937
0.0139938
0.0139939
0.013994
0.0139941
0.0139942
0.0139943
0.0139943
0.0139944
0.0139944
0.0139945
0.0139945
0.0139946
0.0139946
0.0139946
0.0139946
0.0139947
0.0139947
0.0139947
0.0139947
0.0139948
0.0139955
0.0139956
0.0139957
0.0139958
0.0139958
0.0139958
0.0139958
0.0139958
0.0139958
0.0139957
0.0139957
0.0139956
0.0139955
0.0139954
0.0139953
0.0139952
0.013995
0.0139949
0.0139948
0.0139947
0.0139946
0.0139946
0.0139945
0.0139946
0.0139946
0.0139946
0.0139947
0.0139948
0.0139949
0.013995
0.0139951
0.0139952
0.0139953
0.0139953
0.0139954
0.0139954
0.0139955
0.0139955
0.0139956
0.0139956
0.0139957
0.0139957
0.0139957
0.0139958
0.0139958
0.0139958
0.0139958
0.0139958
0.0139958
0.0139959
0.0139964
0.0139965
0.0139966
0.0139966
0.0139967
0.0139967
0.0139967
0.0139967
0.0139966
0.0139966
0.0139966
0.0139965
0.0139964
0.0139963
0.0139963
0.0139962
0.0139961
0.013996
0.013996
0.0139959
0.0139958
0.0139958
0.0139958
0.0139957
0.0139958
0.0139958
0.0139958
0.0139959
0.013996
0.0139961
0.0139961
0.0139962
0.0139963
0.0139963
0.0139964
0.0139964
0.0139964
0.0139965
0.0139965
0.0139965
0.0139966
0.0139966
0.0139966
0.0139966
0.0139966
0.0139966
0.0139967
0.0139967
0.0139967
0.0139967
0.0139972
0.0139972
0.0139973
0.0139973
0.0139973
0.0139973
0.0139974
0.0139974
0.0139973
0.0139973
0.0139973
0.0139972
0.0139972
0.0139971
0.0139971
0.013997
0.0139969
0.0139969
0.0139968
0.0139968
0.0139967
0.0139967
0.0139967
0.0139967
0.0139967
0.0139967
0.0139967
0.0139968
0.0139968
0.0139969
0.013997
0.013997
0.0139971
0.0139971
0.0139971
0.0139971
0.0139972
0.0139972
0.0139972
0.0139972
0.0139973
0.0139973
0.0139973
0.0139973
0.0139973
0.0139973
0.0139973
0.0139974
0.0139974
0.0139974
0.0139977
0.0139978
0.0139978
0.0139979
0.0139979
0.0139979
0.0139979
0.0139979
0.0139979
0.0139979
0.0139979
0.0139978
0.0139978
0.0139977
0.0139977
0.0139977
0.0139976
0.0139976
0.0139975
0.0139975
0.0139975
0.0139974
0.0139974
0.0139974
0.0139974
0.0139974
0.0139974
0.0139975
0.0139975
0.0139976
0.0139976
0.0139976
0.0139977
0.0139977
0.0139977
0.0139977
0.0139978
0.0139978
0.0139978
0.0139978
0.0139978
0.0139978
0.0139978
0.0139979
0.0139979
0.0139979
0.0139979
0.0139979
0.0139979
0.0139979
0.0139982
0.0139982
0.0139983
0.0139983
0.0139983
0.0139983
0.0139983
0.0139983
0.0139983
0.0139983
0.0139983
0.0139983
0.0139982
0.0139982
0.0139982
0.0139981
0.0139981
0.0139981
0.0139981
0.013998
0.013998
0.013998
0.013998
0.0139979
0.0139979
0.013998
0.013998
0.013998
0.013998
0.0139981
0.0139981
0.0139981
0.0139982
0.0139982
0.0139982
0.0139982
0.0139982
0.0139982
0.0139982
0.0139983
0.0139983
0.0139983
0.0139983
0.0139983
0.0139983
0.0139983
0.0139983
0.0139983
0.0139983
0.0139983
0.0139986
0.0139986
0.0139986
0.0139986
0.0139986
0.0139987
0.0139987
0.0139987
0.0139986
0.0139986
0.0139986
0.0139986
0.0139986
0.0139986
0.0139986
0.0139985
0.0139985
0.0139985
0.0139985
0.0139984
0.0139984
0.0139984
0.0139984
0.0139984
0.0139984
0.0139984
0.0139984
0.0139984
0.0139985
0.0139985
0.0139985
0.0139985
0.0139985
0.0139985
0.0139986
0.0139986
0.0139986
0.0139986
0.0139986
0.0139986
0.0139986
0.0139986
0.0139986
0.0139986
0.0139987
0.0139987
0.0139987
0.0139987
0.0139987
0.0139987
0.0139989
0.0139989
0.0139989
0.0139989
0.0139989
0.0139989
0.0139989
0.0139989
0.0139989
0.0139989
0.0139989
0.0139989
0.0139989
0.0139989
0.0139989
0.0139988
0.0139988
0.0139988
0.0139988
0.0139988
0.0139988
0.0139988
0.0139987
0.0139987
0.0139987
0.0139987
0.0139988
0.0139988
0.0139988
0.0139988
0.0139988
0.0139988
0.0139988
0.0139989
0.0139989
0.0139989
0.0139989
0.0139989
0.0139989
0.0139989
0.0139989
0.0139989
0.0139989
0.0139989
0.0139989
0.0139989
0.0139989
0.0139989
0.0139989
0.0139989
0.0139991
0.0139991
0.0139991
0.0139991
0.0139991
0.0139991
0.0139991
0.0139991
0.0139991
0.0139991
0.0139991
0.0139991
0.0139991
0.0139991
0.0139991
0.0139991
0.0139991
0.0139991
0.013999
0.013999
0.013999
0.013999
0.013999
0.013999
0.013999
0.013999
0.013999
0.013999
0.013999
0.0139991
0.0139991
0.0139991
0.0139991
0.0139991
0.0139991
0.0139991
0.0139991
0.0139991
0.0139991
0.0139991
0.0139991
0.0139991
0.0139991
0.0139991
0.0139991
0.0139992
0.0139992
0.0139992
0.0139992
0.0139992
0.0139993
0.0139993
0.0139993
0.0139993
0.0139993
0.0139993
0.0139993
0.0139993
0.0139993
0.0139993
0.0139993
0.0139993
0.0139993
0.0139993
0.0139993
0.0139993
0.0139993
0.0139993
0.0139993
0.0139992
0.0139992
0.0139992
0.0139992
0.0139992
0.0139992
0.0139992
0.0139992
0.0139992
0.0139992
0.0139993
0.0139993
0.0139993
0.0139993
0.0139993
0.0139993
0.0139993
0.0139993
0.0139993
0.0139993
0.0139993
0.0139993
0.0139993
0.0139993
0.0139993
0.0139993
0.0139993
0.0139993
0.0139993
0.0139993
0.0139993
0.0139994
0.0139994
0.0139994
0.0139994
0.0139994
0.0139994
0.0139995
0.0139994
0.0139994
0.0139994
0.0139994
0.0139994
0.0139994
0.0139994
0.0139994
0.0139994
0.0139994
0.0139994
0.0139994
0.0139994
0.0139994
0.0139994
0.0139994
0.0139994
0.0139994
0.0139994
0.0139994
0.0139994
0.0139994
0.0139994
0.0139994
0.0139994
0.0139994
0.0139994
0.0139994
0.0139994
0.0139994
0.0139994
0.0139994
0.0139995
0.0139995
0.0139995
0.0139995
0.0139995
0.0139995
0.0139995
0.0139995
0.0139995
0.0139995
0.0139995
0.0139995
0.0139995
0.0139995
0.0139996
0.0139996
0.0139996
0.0139996
0.0139996
0.0139996
0.0139996
0.0139996
0.0139996
0.0139995
0.0139995
0.0139995
0.0139995
0.0139995
0.0139995
0.0139995
0.0139995
0.0139995
0.0139995
0.0139995
0.0139995
0.0139995
0.0139995
0.0139995
0.0139995
0.0139995
0.0139995
0.0139995
0.0139995
0.0139995
0.0139995
0.0139995
0.0139996
0.0139996
0.0139996
0.0139996
0.0139996
0.0139996
0.0139996
0.0139996
0.0139996
0.0139996
0.0139996
0.0139996
0.0139996
0.0139996
0.0139996
0.0139996
0.0139996
0.0139996
0.0139996
0.0139996
0.0139996
0.0139996
0.0139996
0.0139996
0.0139996
0.0139996
0.0139996
0.0139996
0.0139996
0.0139996
0.0139996
0.0139996
0.0139996
0.0139996
0.0139996
0.0139996
0.0139996
0.0139996
0.0139996
0.0139996
0.0139996
0.0139996
0.0139996
0.0139996
0.0139996
0.0139996
0.0139996
0.0139996
0.0139996
0.0139996
0.0139996
0.0139996
0.0139996
0.0139996
0.0139996
0.0139997
0.0139997
0.0139997
0.0139997
0.0139997
0.0139997
0.0139997
0.0139997
0.0139997
0.0139997
0.0139997
0.0139997
0.0139997
0.0139997
0.0139997
0.0139997
0.0139997
0.0139997
0.0139997
0.0139997
0.0139997
0.0139997
0.0139997
0.0139997
0.0139997
0.0139997
0.0139997
0.0139997
0.0139997
0.0139997
0.0139997
0.0139997
0.0139997
0.0139997
0.0139997
0.0139997
0.0139997
0.0139997
0.0139997
0.0139997
0.0139997
0.0139997
0.0139997
0.0139997
0.0139997
0.0139997
0.0139997
0.0139997
0.0139997
0.0139997
0.0139997
0.0139997
0.0139997
0.0139997
0.0139997
0.0139997
0.0139997
0.0139997
0.0139997
0.0139997
0.0139998
0.0139998
0.0139998
0.0139998
0.0139998
0.0139998
0.0139998
0.0139998
0.0139998
0.0139998
0.0139998
0.0139998
0.0139998
0.0139998
0.0139998
0.0139998
0.0139998
0.0139998
0.0139998
0.0139998
0.0139998
0.0139998
0.0139998
0.0139998
0.0139998
0.0139998
0.0139998
0.0139998
0.0139998
0.0139998
0.0139998
0.0139998
0.0139998
0.0139998
0.0139998
0.0139998
0.0139998
0.0139998
0.0139998
0.0139998
0.0139998
0.0139998
0.0139998
0.0139998
0.0139998
0.0139998
0.0139998
0.0139998
0.0139998
0.0139998
0.0139998
0.0139998
0.0139998
0.0139998
0.0139998
0.0139998
0.0139998
0.0139998
0.0139998
0.0139998
0.0139998
0.0139998
0.0139998
0.0139998
0.0139998
0.0139998
0.0139998
0.0139998
0.0139998
0.0139998
0.0139998
0.0139998
0.0139998
0.0139998
0.0139998
0.0139998
0.0139998
0.0139998
0.0139998
0.0139998
0.0139998
0.0139998
0.0139998
0.0139998
0.0139998
0.0139998
0.0139998
0.0139998
0.0139998
0.0139998
0.0139998
0.0139998
0.0139998
0.0139998
0.0139998
0.0139998
0.0139998
0.0139998
0.0139998
0.0139998
0.0139998
0.0139998
0.0139998
0.0139998
0.0139999
0.0139999
0.0139999
0.0139999
0.0139999
0.0139999
0.0139999
0.0139999
0.0139998
0.0139998
0.0139998
0.0139998
0.0139998
0.0139998
0.0139998
0.0139998
0.0139998
0.0139998
0.0139998
0.0139998
0.0139998
0.0139998
0.0139998
0.0139998
0.0139998
0.0139998
0.0139999
0.0139999
0.0139999
0.0139999
0.0139999
0.0139999
0.0139999
0.0139999
0.0139999
0.0139999
0.0139999
0.0139999
0.0139999
0.0139999
0.0139999
0.0139999
0.0139999
0.0139999
0.0139999
0.0139999
0.0139999
0.0139999
0.0139999
0.0139999
0.0139999
0.0139999
0.0139999
0.0139999
0.0139999
0.0139999
0.0139999
0.0139999
0.0139999
0.0139999
0.0139999
0.0139999
0.0139999
0.0139999
0.0139999
0.0139999
0.0139999
0.0139999
0.0139999
0.0139999
0.0139999
0.0139999
0.0139999
0.0139999
0.0139999
0.0139999
0.0139999
0.0139999
0.0139999
0.0139999
0.0139999
0.0139999
0.0139999
0.0139999
0.0139999
0.0139999
0.0139999
0.0139999
0.0139999
0.0139999
0.0139999
0.0139999
0.0139999
0.0139999
0.0139999
0.0139999
0.0139999
0.0139999
0.0139999
0.0139999
0.0139999
0.0139999
0.0139999
0.0139999
0.0139999
0.0139999
0.0139999
0.0139999
0.0139999
0.0139999
0.0139999
0.0139999
0.0139999
0.0139999
0.0139999
0.0139999
0.0139999
0.0139999
0.0139999
0.0139999
0.0139999
0.0139999
0.0139999
0.0139999
0.0139999
0.0139999
0.0139999
0.0139999
0.0139999
0.0139999
0.0139999
0.0139999
0.0139999
0.0139999
0.0139999
0.0139999
0.0139999
0.0139999
0.0139999
0.0139999
0.0139999
0.0139999
0.0139999
0.0139999
0.0139999
0.0139999
0.0139999
0.0139999
0.0139999
0.0139999
0.0139999
0.0139999
0.0139999
0.0139999
0.0139999
0.0139999
0.0139999
0.0139999
0.0139999
0.0139999
0.0139999
0.0139999
0.0139999
0.0139999
0.0139999
0.0139999
0.0139999
0.0139999
0.0139999
0.0139999
0.0139999
0.0139999
0.0139999
0.0139999
0.0139999
0.0139999
0.0139999
0.0139999
0.0139999
0.0139999
0.0139999
0.0139999
0.0139999
0.0139999
0.0139999
0.0139999
0.0139999
0.0139999
0.0139999
0.0139999
0.0139999
0.0139999
0.0139999
0.0139999
0.0139999
0.0139999
0.0139999
0.0139999
0.0139999
0.0139999
0.0139999
0.0139999
0.0139999
0.0139999
0.0139999
0.0139999
0.0139999
0.0139999
0.0139999
0.0139999
0.0139999
0.0139999
0.0139999
0.0139999
0.0139999
0.0139999
0.0139999
0.0139999
0.0139999
0.0139999
0.0139999
0.0139999
0.0139999
0.0139999
0.0139999
0.0139999
0.0139999
0.0139999
0.0139999
0.0139999
0.0139999
0.0139999
0.0139999
0.0139999
0.0139999
0.0139999
0.0139999
0.0139999
0.0139999
0.0139999
0.0139999
0.0139999
0.0139999
0.0139999
0.0139999
0.0139999
0.0139999
0.0139999
0.0139999
0.0139999
0.0139999
0.0139999
0.0139999
0.0139999
0.0139999
0.0139999
0.0139999
0.0139999
0.0139999
0.0139999
0.0139999
0.0139999
0.0139999
0.0139999
0.0139999
0.0139999
0.0139999
0.0139999
0.0139999
0.0139999
0.0139999
0.0139999
0.0139999
0.0139999
0.0139999
0.0139999
0.0139999
0.0139999
0.0139999
0.0139999
0.0139999
0.0139999
0.0139999
0.0139999
0.0139999
0.0139999
0.0139999
0.0139999
0.0139999
0.0139999
0.0139999
0.0139999
0.0139999
0.014
0.014
0.014
0.014
0.014
0.014
0.014
0.014
0.014
0.014
0.014
0.014
0.014
0.014
0.014
0.014
0.014
0.014
0.014
0.014
0.014
0.014
0.014
0.014
0.014
0.014
0.014
0.014
0.014
0.014
0.014
0.014
0.014
0.014
0.014
0.014
0.014
0.014
0.014
0.014
0.014
0.014
0.014
0.014
0.014
0.014
0.014
0.014
0.014
0.014
0.014
0.014
0.014
0.014
0.014
0.014
0.014
0.014
0.014
0.014
0.014
0.014
0.014
0.014
0.014
0.014
0.014
0.014
0.014
0.014
0.014
0.014
0.014
0.014
0.014
0.014
0.014
0.014
0.014
0.014
0.014
0.014
0.014
0.014
0.014
0.014
0.014