/*--------------------------------*- C++ -*----------------------------------*\
  =========                 |
  \\      /  F ield         | OpenFOAM: The Open Source CFD Toolbox
   \\    /   O peration     | Website:  https://openfoam.org
    \\  /    A nd           | Version:  10
     \\/     M anipulation  |
\*---------------------------------------------------------------------------*/
FoamFile
{
    format      ascii;
    class       volVectorField;
    location    "0.0005";
    object      U;
}
// * * * * * * * * * * * * * * * * * * * * * * * * * * * * * * * * * * * * * //

dimensions      [0 1 -1 0 0 0 0];

internalField   nonuniform List<vector> 
13320
(
(2.01385 3.38542 0)
(4.45579 8.91171 2.13794e-17)
(8.61371 12.9764 2.13811e-17)
(12.8751 14.3007 -1.20569e-18)
(16.3824 14.247 -3.53578e-17)
(18.9858 13.4496 3.30262e-17)
(20.9294 12.383 0)
(22.4444 11.281 6.07779e-17)
(23.6766 10.2386 -3.39309e-18)
(24.7032 9.26257 2.79423e-17)
(25.5476 8.34019 -1.4187e-18)
(26.2631 7.466 -8.12549e-17)
(26.8823 6.63818 -2.34915e-18)
(27.3857 5.8358 3.52026e-17)
(27.7816 5.04762 0)
(28.1857 4.29422 0)
(28.6457 3.58635 2.62272e-17)
(29.0334 2.91019 -1.43785e-18)
(29.1429 2.21421 2.14488e-17)
(28.9287 1.50926 1.87619e-17)
(28.51 0.819583 -5.27553e-19)
(28.0149 0.173696 -1.89743e-18)
(27.5263 -0.406604 -6.38398e-18)
(27.082 -0.927824 -2.47547e-17)
(26.6905 -1.39101 3.40082e-19)
(26.3777 -1.78233 -2.16536e-17)
(26.159 -2.09878 -2.26367e-17)
(26.0116 -2.35793 3.88661e-19)
(25.9066 -2.58055 2.6457e-17)
(25.8119 -2.77641 -2.91323e-17)
(25.6847 -2.94762 0)
(25.4845 -3.09215 -2.68596e-19)
(25.2204 -3.21313 -4.05261e-23)
(25.0006 -3.31395 3.18678e-19)
(24.9599 -3.42069 3.47082e-19)
(25.0351 -3.536 -3.79172e-19)
(24.9353 -3.62821 -1.30346e-17)
(24.4958 -3.66471 1.44838e-17)
(23.9803 -3.66987 1.56122e-17)
(23.6932 -3.69321 -4.9866e-23)
(23.5749 -3.73222 9.50935e-18)
(23.3593 -3.75472 4.4075e-23)
(23.0979 -3.76316 0)
(22.8438 -3.76332 -1.95805e-19)
(22.6402 -3.76366 7.07252e-18)
(22.3062 -3.7376 1.52066e-17)
(22.0557 -3.70588 -8.38903e-18)
(21.5081 -3.63651 -7.08823e-20)
(21.2773 -3.45858 -4.8632e-18)
(19.7079 -3.24362 -4.27271e-20)
(4.03201 2.4477 4.96745e-18)
(5.83843 6.87831 -9.23194e-18)
(9.07107 10.28 -1.74375e-17)
(12.5671 12.4249 3.35171e-17)
(15.9789 13.0823 6.35647e-17)
(18.8349 12.8376 -2.97489e-17)
(21.0824 12.1382 -2.8024e-17)
(22.8042 11.241 -5.32437e-17)
(24.1574 10.2904 1.48907e-18)
(25.2474 9.34853 1.3684e-18)
(26.1222 8.43601 -1.2485e-18)
(26.8509 7.56414 -2.39584e-21)
(27.4855 6.73392 0)
(28.001 5.93342 0)
(28.3982 5.15517 0)
(28.8017 4.40772 0)
(29.2733 3.68182 -2.24952e-17)
(29.6803 2.94738 -6.36318e-19)
(29.791 2.20753 -1.84156e-17)
(29.5827 1.48014 -1.66197e-17)
(29.1471 0.789215 4.68275e-19)
(28.6349 0.146419 1.68293e-18)
(28.1308 -0.44811 -3.39915e-22)
(27.6708 -0.980257 -5.11072e-22)
(27.2583 -1.44881 0)
(26.9206 -1.84806 1.92253e-17)
(26.6809 -2.16917 -2.07401e-17)
(26.5186 -2.43057 -2.20705e-17)
(26.3992 -2.65418 -4.73692e-17)
(26.2963 -2.84961 5.1347e-17)
(26.1658 -3.01762 -2.80697e-17)
(25.966 -3.15604 3.05293e-17)
(25.6982 -3.26602 -2.59585e-19)
(25.461 -3.36698 2.83087e-19)
(25.3922 -3.4848 1.9739e-17)
(25.4543 -3.60934 0)
(25.3711 -3.69417 -1.1762e-17)
(24.9673 -3.70618 -1.32671e-17)
(24.4482 -3.6988 1.4526e-17)
(24.1277 -3.71953 -3.08511e-17)
(23.9927 -3.75917 -8.44463e-18)
(23.782 -3.77725 9.2462e-18)
(23.5284 -3.77611 1.01354e-17)
(23.2659 -3.77046 0)
(23.0763 -3.75999 0)
(22.7449 -3.72215 -1.31801e-17)
(22.5391 -3.66146 -2.28974e-19)
(22.0383 -3.58236 1.59808e-17)
(21.8639 -3.34607 4.55246e-18)
(21.0579 -3.14894 0)
(6.04661 2.00277 -4.26968e-18)
(7.15478 5.85696 0)
(9.32363 9.03011 -1.41544e-17)
(12.2213 11.1906 -2.99909e-17)
(15.3107 12.3053 -2.7647e-17)
(18.1106 12.5011 0)
(20.4535 12.0863 -4.08658e-21)
(22.3368 11.3417 4.52059e-17)
(23.8407 10.4654 -2.08932e-17)
(25.0451 9.55246 3.79662e-21)
(26.0033 8.63962 -3.51422e-17)
(26.7885 7.75547 6.6058e-17)
(27.4621 6.91354 -3.65349e-18)
(28.0098 6.09464 1.66225e-18)
(28.4335 5.28456 -1.50964e-18)
(28.8541 4.50881 -1.49076e-22)
(29.3352 3.79346 2.48706e-18)
(29.7553 3.09916 -1.12609e-18)
(29.8801 2.37799 0)
(29.685 1.64624 1.47254e-17)
(29.2541 0.924774 -8.2884e-19)
(28.7429 0.245786 7.46739e-19)
(28.2367 -0.36048 2.00949e-18)
(27.7743 -0.906863 1.0196e-17)
(27.3585 -1.39166 0)
(27.0159 -1.80064 1.68077e-17)
(26.7702 -2.12961 1.78495e-17)
(26.6027 -2.39746 -1.92939e-17)
(26.4809 -2.62633 2.12002e-17)
(26.3739 -2.82657 -2.29819e-17)
(26.2402 -3.0001 4.98632e-17)
(26.0384 -3.14423 -2.75407e-17)
(25.7699 -3.26139 1.52168e-17)
(25.5304 -3.36146 0)
(25.4595 -3.46805 -3.50655e-17)
(25.5206 -3.58434 0)
(25.4403 -3.67244 1.04466e-17)
(25.039 -3.70434 -3.57213e-19)
(24.5196 -3.69905 -1.21185e-17)
(24.1991 -3.71386 4.28092e-19)
(24.0647 -3.74446 -4.68637e-19)
(23.8575 -3.75683 -2.56555e-19)
(23.6064 -3.74878 -8.71584e-18)
(23.3493 -3.73539 -1.01811e-17)
(23.1652 -3.70809 5.73904e-18)
(22.8509 -3.6629 5.93946e-18)
(22.6566 -3.5682 0)
(22.2107 -3.47375 -1.15841e-22)
(22.0469 -3.18342 -6.11417e-20)
(21.3546 -2.989 -4.22614e-18)
(7.75817 1.58776 4.58476e-19)
(8.55855 4.73521 -6.44247e-18)
(10.2269 7.54772 2.36793e-17)
(12.4761 9.77999 -2.20753e-17)
(15.1198 11.1299 -2.55498e-17)
(17.76 11.6502 2.26225e-17)
(20.1108 11.5387 2.13895e-17)
(22.0645 11.0203 -2.22657e-17)
(23.6433 10.284 -1.83348e-17)
(24.9087 9.45296 -2.94908e-17)
(25.9112 8.5876 2.90022e-17)
(26.7229 7.73006 -2.8235e-17)
(27.4147 6.90349 -2.57982e-17)
(27.9769 6.10298 -2.49649e-17)
(28.4044 5.31504 2.33278e-22)
(28.8215 4.54652 2.4251e-18)
(29.3036 3.81504 -1.10095e-18)
(29.7334 3.09521 -1.59665e-17)
(29.8773 2.35953 0)
(29.6976 1.62273 -2.61176e-17)
(29.2755 0.90957 0)
(28.7682 0.237949 -6.61808e-19)
(28.2636 -0.371417 7.09608e-22)
(27.7998 -0.918382 5.33113e-19)
(27.382 -1.40177 0)
(27.0369 -1.81292 -4.65897e-19)
(26.7887 -2.14296 1.6619e-17)
(26.6185 -2.41069 1.79633e-17)
(26.4953 -2.63883 -5.89016e-19)
(26.3879 -2.83711 -3.19107e-19)
(26.2559 -3.00686 -2.18126e-17)
(26.0568 -3.14528 -3.76669e-19)
(25.7901 -3.25409 -1.27047e-17)
(25.5463 -3.34895 -1.43033e-17)
(25.4621 -3.46034 3.11635e-17)
(25.5246 -3.58546 0)
(25.4588 -3.67272 -2.90179e-19)
(25.0799 -3.68489 3.17135e-19)
(24.5639 -3.66161 0)
(24.2277 -3.67142 1.17883e-17)
(24.0883 -3.70089 7.49274e-18)
(23.8893 -3.71017 6.83476e-18)
(23.6433 -3.69181 0)
(23.3907 -3.67235 9.03914e-18)
(23.2124 -3.63214 -9.889e-18)
(22.9212 -3.58003 -5.27091e-18)
(22.7379 -3.46074 0)
(22.3702 -3.36131 -1.17347e-22)
(22.2352 -3.05302 0)
(21.8242 -2.83393 3.80494e-18)
(9.30496 1.32119 7.87175e-19)
(9.80865 3.98274 5.18367e-18)
(10.935 6.50584 -1.12979e-17)
(12.6858 8.67168 2.18665e-17)
(14.9262 10.2026 3.91763e-17)
(17.3162 10.9961 -1.72414e-17)
(19.5808 11.1503 0)
(21.557 10.8343 0)
(23.2079 10.234 3.21614e-17)
(24.5555 9.48741 2.96326e-17)
(25.6345 8.66629 -1.70251e-18)
(26.5067 7.8292 3.11301e-18)
(27.2447 7.01086 -2.84928e-18)
(27.8457 6.20797 4.41422e-17)
(28.3011 5.40793 -2.185e-22)
(28.7311 4.63287 -1.82545e-17)
(29.2211 3.92041 -1.56135e-17)
(29.6719 3.22728 2.92026e-17)
(29.8472 2.50639 -8.01645e-19)
(29.6874 1.7673 1.15924e-17)
(29.2799 1.03568 0)
(28.7762 0.339548 0)
(28.2718 -0.285461 1.58585e-18)
(27.808 -0.848861 -6.63033e-18)
(27.3898 -1.34728 1.31182e-17)
(27.0434 -1.76776 5.37287e-22)
(26.7929 -2.10477 -1.38845e-17)
(26.6206 -2.37779 -9.68312e-19)
(26.496 -2.61 5.23858e-19)
(26.388 -2.81208 0)
(26.2571 -2.98574 0)
(26.0611 -3.12762 1.07165e-17)
(25.7959 -3.23821 0)
(25.5482 -3.33256 1.31159e-17)
(25.4588 -3.4378 1.94771e-22)
(25.5209 -3.55705 -9.45311e-19)
(25.4671 -3.64624 -8.25246e-18)
(25.097 -3.66524 5.63809e-19)
(24.5778 -3.64593 0)
(24.2379 -3.64678 -1.08141e-17)
(24.0997 -3.6688 -5.9181e-18)
(23.909 -3.67282 -1.25492e-17)
(23.6683 -3.64647 -8.87046e-19)
(23.4234 -3.62019 -7.29777e-18)
(23.252 -3.56641 4.25718e-18)
(22.9857 -3.50756 9.35756e-18)
(22.8096 -3.37162 5.27722e-18)
(22.4987 -3.26622 -1.14129e-17)
(22.3697 -2.97641 0)
(22.049 -2.78694 -3.37283e-18)
(10.6846 1.08335 0)
(11.0512 3.28813 1.27457e-18)
(11.8746 5.46035 8.53505e-18)
(13.1895 7.46328 0)
(14.9845 9.0488 -1.81269e-17)
(17.0749 10.063 2.14252e-18)
(19.1959 10.4766 1.22172e-17)
(21.1416 10.3957 5.67999e-18)
(22.8235 9.96776 2.46614e-17)
(24.2265 9.33899 -2.60189e-17)
(25.365 8.59546 0)
(26.2878 7.80661 2.7438e-18)
(27.0677 7.01771 1.50838e-17)
(27.704 6.23799 -1.37719e-17)
(28.1812 5.45612 -1.88203e-17)
(28.6235 4.67868 1.52181e-17)
(29.1257 3.95129 -2.00545e-22)
(29.5938 3.25529 -2.51192e-17)
(29.7953 2.52602 -1.42252e-18)
(29.6537 1.78122 1.28741e-18)
(29.2593 1.04727 -4.64583e-18)
(28.7628 0.349583 2.09203e-18)
(28.2621 -0.276677 0)
(27.7993 -0.839762 6.73915e-18)
(27.382 -1.33853 -1.2047e-17)
(27.0356 -1.76243 5.83124e-22)
(26.7847 -2.10224 0)
(26.6119 -2.37693 1.42159e-17)
(26.4869 -2.60982 -4.66107e-19)
(26.3798 -2.81144 0)
(26.2515 -2.98326 -5.47874e-19)
(26.0595 -3.12078 1.07254e-17)
(25.7972 -3.22637 -6.48342e-19)
(25.5466 -3.31445 -3.53499e-19)
(25.4466 -3.4189 -1.19378e-17)
(25.5055 -3.54407 0)
(25.4696 -3.63501 7.33843e-18)
(25.1226 -3.64665 -8.52435e-18)
(24.6123 -3.60656 5.48586e-19)
(24.257 -3.59845 1.02136e-17)
(24.1122 -3.61743 -6.57487e-19)
(23.9323 -3.61839 5.7556e-18)
(23.6989 -3.58367 0)
(23.4619 -3.55032 6.91431e-18)
(23.2979 -3.48718 3.54417e-18)
(23.0603 -3.42276 -3.89412e-18)
(22.8965 -3.27984 -1.31666e-22)
(22.6524 -3.16841 -1.55669e-19)
(22.5412 -2.89786 1.70532e-19)
(22.3483 -2.71239 2.99028e-18)
(11.91 0.915707 -1.1547e-18)
(12.1564 2.77976 -8.76066e-18)
(12.732 4.66056 -8.40852e-18)
(13.6939 6.49291 0)
(15.1171 8.07312 -1.76666e-17)
(16.8843 9.21507 -1.30314e-17)
(18.8053 9.83898 -1.41813e-17)
(20.6715 9.97353 0)
(22.3562 9.7205 -4.93285e-17)
(23.8031 9.21961 0)
(25.0033 8.56126 0)
(25.9854 7.82691 0)
(26.8178 7.06906 -1.77435e-17)
(27.5041 6.30596 1.41969e-17)
(28.0183 5.53438 1.47987e-17)
(28.4784 4.76676 1.68489e-18)
(28.9956 4.05549 1.22686e-17)
(29.492 3.376 1.11416e-17)
(29.7305 2.66344 0)
(29.6194 1.92224 8.00259e-18)
(29.2443 1.17537 -3.09631e-18)
(28.7546 0.462234 -1.85975e-18)
(28.2558 -0.188065 0)
(27.7944 -0.770627 -7.48993e-19)
(27.3775 -1.2855 6.70572e-19)
(27.0305 -1.71994 -1.05201e-17)
(26.7781 -2.06693 -1.20598e-17)
(26.6036 -2.34649 7.67564e-19)
(26.4776 -2.58272 -1.327e-17)
(26.3708 -2.78704 1.43837e-17)
(26.2452 -2.96127 0)
(26.058 -3.10175 -7.95261e-18)
(25.7991 -3.20659 -5.76836e-19)
(25.544 -3.29298 0)
(25.4349 -3.39351 0)
(25.4921 -3.51526 -1.12168e-17)
(25.473 -3.60903 -7.34234e-18)
(25.1456 -3.62111 4.46569e-19)
(24.6352 -3.5829 -4.87729e-19)
(24.2703 -3.56345 0)
(24.124 -3.57585 5.84381e-19)
(23.9558 -3.5736 -1.27872e-18)
(23.7304 -3.53163 3.49986e-19)
(23.5025 -3.49225 3.83817e-19)
(23.3459 -3.42173 -3.35714e-18)
(23.1356 -3.35261 3.91782e-18)
(22.9812 -3.21009 -2.52036e-19)
(22.7817 -3.09874 4.42232e-18)
(22.6832 -2.86902 -7.56216e-20)
(22.5382 -2.70299 8.2838e-20)
(13.0197 0.769928 1.13635e-22)
(13.206 2.33543 2.34677e-17)
(13.6246 3.93929 0)
(14.3334 5.54827 0)
(15.4217 7.0272 1.35761e-17)
(16.862 8.242 -1.34254e-21)
(18.541 9.03999 -1.23289e-17)
(20.2758 9.39117 0)
(21.9227 9.33499 2.15512e-17)
(23.3893 8.98907 -1.74958e-17)
(24.6358 8.44061 -1.84987e-17)
(25.6683 7.78045 -2.12595e-18)
(26.5475 7.07009 1.56332e-17)
(27.2808 6.33839 -1.43185e-17)
(27.8315 5.58492 1.30814e-17)
(28.3147 4.8184 0)
(28.8507 4.1054 0)
(29.372 3.43275 0)
(29.6476 2.71338 -8.969e-18)
(29.5655 1.96528 -1.52271e-17)
(29.2087 1.21022 -9.1866e-19)
(28.7289 0.489443 0)
(28.2364 -0.160751 7.42864e-19)
(27.7775 -0.744953 -6.6732e-19)
(27.3628 -1.26187 0)
(27.0169 -1.70063 0)
(26.7645 -2.05195 1.07334e-17)
(26.5895 -2.33501 -6.82244e-19)
(26.4632 -2.57375 -7.38344e-19)
(26.3572 -2.77963 -1.27994e-17)
(26.2349 -2.95421 8.67834e-19)
(26.0533 -3.09227 8.01946e-18)
(25.799 -3.19367 -8.21164e-18)
(25.5408 -3.27314 -5.59543e-19)
(25.4194 -3.36921 -1.03607e-17)
(25.4703 -3.49386 2.19477e-17)
(25.4715 -3.59269 -2.54777e-23)
(25.1728 -3.60446 1.26856e-17)
(24.6762 -3.54848 -4.33897e-19)
(24.2954 -3.51508 -1.37055e-22)
(24.1388 -3.51958 5.19323e-19)
(23.9841 -3.51484 -4.5443e-18)
(23.7696 -3.46675 0)
(23.5517 -3.42157 3.40894e-19)
(23.4034 -3.34715 -7.45148e-19)
(23.2216 -3.27465 -2.86373e-18)
(23.0803 -3.13793 -3.79995e-18)
(22.9245 -3.02616 2.45139e-19)
(22.8396 -2.82641 1.34094e-19)
(22.7467 -2.67527 -1.46832e-19)
(14.0066 0.659984 8.38994e-19)
(14.1426 1.99488 -1.20388e-17)
(14.4453 3.36755 -3.1014e-18)
(14.9614 4.77993 1.51584e-18)
(15.7787 6.14593 0)
(16.9286 7.34739 1.11724e-17)
(18.3526 8.24505 1.3368e-17)
(19.9171 8.76815 -2.50791e-17)
(21.4839 8.89581 2.11577e-17)
(22.9402 8.71147 1.74854e-17)
(24.2207 8.28993 -2.77357e-21)
(25.3026 7.72138 3.73403e-18)
(26.2316 7.07046 -3.4404e-18)
(27.0168 6.37907 0)
(27.6097 5.65243 -1.15494e-17)
(28.1146 4.9053 -1.05471e-17)
(28.6696 4.20943 0)
(29.2251 3.55206 -2.18914e-18)
(29.5452 2.85418 1.98813e-18)
(29.503 2.11415 1.62197e-17)
(29.1744 1.34731 3.25832e-18)
(28.7066 0.610605 2.34279e-21)
(28.2183 -0.0657472 2.64413e-18)
(27.7626 -0.670039 -5.94457e-19)
(27.3496 -1.20506 -1.06141e-18)
(27.0042 -1.65725 5.21189e-19)
(26.7509 -2.01725 -5.61657e-19)
(26.5744 -2.30549 -1.94331e-17)
(26.4474 -2.54709 1.05087e-17)
(26.3423 -2.75458 7.11992e-19)
(26.2239 -2.93002 0)
(26.0493 -3.06924 6.71434e-18)
(25.8002 -3.16967 7.30433e-18)
(25.5382 -3.24517 0)
(25.403 -3.33551 8.67179e-18)
(25.4487 -3.45675 -9.46207e-18)
(25.4702 -3.55946 5.15994e-18)
(25.2035 -3.57464 -5.01352e-22)
(24.7163 -3.51352 0)
(24.3207 -3.46736 0)
(24.1558 -3.46368 -3.69103e-18)
(24.0147 -3.45819 4.03637e-18)
(23.8124 -3.40525 -5.5235e-19)
(23.6039 -3.35384 -7.1279e-23)
(23.4626 -3.27859 6.61314e-19)
(23.3056 -3.2053 0)
(23.1756 -3.08012 0)
(23.0484 -2.97494 3.26006e-18)
(22.9735 -2.81355 3.5652e-19)
(22.9048 -2.68312 -1.30081e-19)
(14.9016 0.565512 7.12074e-19)
(15.0084 1.70219 -6.84093e-19)
(15.2388 2.87249 7.95888e-18)
(15.6189 4.09001 2.60054e-18)
(16.2319 5.30078 0)
(17.1158 6.44927 1.44666e-17)
(18.2822 7.39622 2.31456e-17)
(19.6436 8.0541 -2.78814e-21)
(21.09 8.3554 -2.86556e-17)
(22.5026 8.34434 -1.5508e-21)
(23.794 8.06597 1.06417e-17)
(24.9129 7.60401 0)
(25.8861 7.02787 0)
(26.7241 6.38558 0)
(27.3645 5.68566 -1.01869e-17)
(27.8983 4.94892 6.98554e-18)
(28.4721 4.2631 2.12716e-18)
(29.055 3.62131 0)
(29.4217 2.92801 -6.08749e-22)
(29.42 2.18703 -7.99261e-18)
(29.1166 1.41434 7.23349e-18)
(28.6646 0.668496 0)
(28.1864 -0.0142343 0)
(27.7356 -0.626991 1.05409e-18)
(27.3266 -1.16753 -8.49802e-18)
(26.9837 -1.62431 0)
(26.7312 -1.98872 -8.99781e-18)
(26.5546 -2.28122 9.72442e-18)
(26.4273 -2.52675 -9.34759e-18)
(26.3232 -2.7377 -6.3298e-19)
(26.2087 -2.91607 6.86678e-19)
(26.0411 -3.05701 -5.97076e-18)
(25.7993 -3.15532 -6.49455e-18)
(25.5346 -3.226 0)
(25.3848 -3.30872 0)
(25.4187 -3.43039 1.05105e-18)
(25.4608 -3.54134 -1.14667e-18)
(25.2342 -3.56203 -4.38293e-18)
(24.7703 -3.49135 -6.16287e-18)
(24.3569 -3.42916 7.49287e-19)
(24.1738 -3.4162 -1.63871e-18)
(24.0481 -3.40792 1.3438e-18)
(23.8619 -3.35502 -4.90132e-19)
(23.6627 -3.29818 0)
(23.5283 -3.22281 2.3465e-18)
(23.3952 -3.14883 3.2186e-19)
(23.2782 -3.03482 -3.51453e-19)
(23.1737 -2.93381 -3.08147e-18)
(23.1082 -2.79833 0)
(23.0553 -2.68345 1.84282e-18)
(15.7076 0.490755 0)
(15.7885 1.46917 -1.16258e-18)
(15.9673 2.4718 -1.697e-17)
(16.2484 3.52497 0)
(16.7084 4.5941 0)
(17.3848 5.65108 -1.66033e-17)
(18.3167 6.58315 -3.19709e-17)
(19.4615 7.31583 -1.81998e-21)
(20.7489 7.75538 1.06694e-17)
(22.0736 7.90953 3.32657e-18)
(23.3434 7.78639 0)
(24.4842 7.45152 0)
(25.4972 6.9658 -1.06138e-17)
(26.3855 6.39613 -9.77415e-18)
(27.0768 5.74215 6.72856e-18)
(27.6417 5.03313 3.17632e-22)
(28.2395 4.36396 3.7583e-18)
(28.8575 3.74336 5.526e-22)
(29.2726 3.07696 1.09253e-17)
(29.3235 2.33845 0)
(29.0551 1.55253 -5.13194e-18)
(28.6223 0.786391 0)
(28.1518 0.0804849 -1.04286e-18)
(27.7076 -0.547074 1.38893e-21)
(27.3026 -1.10404 7.5549e-18)
(26.9614 -1.57636 0)
(26.7087 -1.95314 8.00035e-18)
(26.5312 -2.25362 -7.53599e-22)
(26.4033 -2.50341 7.27113e-18)
(26.3004 -2.71623 -9.0055e-18)
(26.1907 -2.89487 -1.03748e-17)
(26.0327 -3.03421 6.63397e-19)
(25.8 -3.13043 1.09858e-22)
(25.5337 -3.19496 -7.07698e-18)
(25.3654 -3.26774 7.70562e-18)
(25.3852 -3.38212 -9.3368e-19)
(25.4488 -3.49665 4.07313e-18)
(25.2699 -3.52674 2.22429e-18)
(24.8316 -3.45213 8.51146e-18)
(24.4015 -3.3732 -6.65075e-19)
(24.2002 -3.34326 3.6356e-18)
(24.0843 -3.33138 -7.94831e-19)
(23.9156 -3.27648 8.69443e-19)
(23.7279 -3.21355 3.80909e-18)
(23.599 -3.1412 -2.08001e-18)
(23.4846 -3.07337 -5.70412e-19)
(23.3803 -2.97646 3.11334e-18)
(23.2916 -2.88724 2.38737e-18)
(23.2328 -2.77958 1.86347e-18)
(23.1872 -2.68398 -1.63054e-18)
(16.42 0.427599 1.01614e-18)
(16.4838 1.27371 -9.84795e-19)
(16.6314 2.13796 1.34648e-17)
(16.8432 3.04615 1.89635e-18)
(17.1935 3.97198 -1.10918e-17)
(17.7073 4.92056 3.56321e-18)
(18.4417 5.80573 1.03222e-17)
(19.3843 6.56499 1.6296e-17)
(20.5029 7.09781 6.16755e-18)
(21.7143 7.38793 1.735e-17)
(22.9289 7.41034 -1.0809e-17)
(24.0595 7.20183 0)
(25.0911 6.81889 1.85943e-17)
(26.0232 6.33255 8.57875e-18)
(26.7637 5.73888 3.94452e-18)
(27.3637 5.06397 -1.80963e-17)
(27.9823 4.42359 0)
(28.6317 3.82845 3.02836e-18)
(29.0976 3.18154 -1.10407e-17)
(29.1966 2.45885 7.52807e-18)
(28.9643 1.67254 4.54841e-18)
(28.5558 0.897496 -2.05721e-18)
(28.1017 0.174442 -1.85418e-18)
(27.6661 -0.475152 0)
(27.2676 -1.04931 0)
(26.9309 -1.53157 0)
(26.6802 -1.91263 -7.89632e-19)
(26.5032 -2.21527 6.71285e-22)
(26.3756 -2.46719 9.23305e-19)
(26.2742 -2.68265 -3.83397e-22)
(26.1697 -2.86475 -2.35608e-22)
(26.0213 -3.00932 0)
(25.7992 -3.10663 3.84405e-18)
(25.5331 -3.1664 6.98205e-18)
(25.3472 -3.23141 -6.08091e-18)
(25.3468 -3.34194 -6.63292e-18)
(25.4251 -3.46664 -3.61462e-18)
(25.3007 -3.51255 -9.86938e-19)
(24.903 -3.44025 -3.23624e-18)
(24.4618 -3.34649 0)
(24.2303 -3.30849 6.44704e-19)
(24.123 -3.29742 -7.04527e-19)
(23.9764 -3.24567 -2.31142e-18)
(23.7963 -3.1778 -4.21831e-18)
(23.667 -3.10462 -2.30265e-18)
(23.5668 -3.03696 -3.44289e-23)
(23.4745 -2.95025 -1.65341e-18)
(23.3959 -2.86956 -2.41399e-18)
(23.3427 -2.78199 -1.31847e-18)
(23.3013 -2.70294 1.44135e-18)
(17.074 0.375436 8.54106e-19)
(17.1223 1.11207 -8.31393e-19)
(17.247 1.86051 -6.51972e-18)
(17.4073 2.64888 -3.2229e-18)
(17.6745 3.45591 6.30579e-18)
(18.0574 4.29807 3.04903e-18)
(18.6214 5.10963 -5.90787e-18)
(19.3687 5.86336 -1.12323e-17)
(20.3017 6.45673 -5.32723e-18)
(21.3728 6.86197 -1.0028e-17)
(22.5069 7.02211 9.39887e-18)
(23.6133 6.94303 0)
(24.6523 6.66517 -2.84491e-17)
(25.621 6.26553 3.75921e-18)
(26.4161 5.73221 0)
(27.0546 5.09969 1.27313e-17)
(27.7043 4.47625 0)
(28.3867 3.90993 0)
(28.9042 3.30767 1.21916e-17)
(29.0639 2.5922 -4.43894e-18)
(28.8723 1.78942 -6.03981e-18)
(28.4855 0.991687 3.64177e-18)
(28.0432 0.254422 -1.64127e-18)
(27.6188 -0.401755 2.24313e-21)
(27.2282 -0.980615 1.32525e-18)
(26.8962 -1.47152 1.30005e-18)
(26.6471 -1.8659 -2.80598e-18)
(26.47 -2.18156 -4.54711e-18)
(26.342 -2.44377 0)
(26.2416 -2.66671 -3.32905e-22)
(26.1416 -2.85411 7.699e-18)
(26.0043 -3.00076 1.04577e-18)
(25.7968 -3.09838 -1.13699e-18)
(25.5344 -3.15425 4.95549e-18)
(25.33 -3.20459 0)
(25.2997 -3.30451 1.1766e-17)
(25.3894 -3.43456 -2.40447e-18)
(25.3266 -3.49332 -1.74949e-18)
(24.9829 -3.42822 -7.28423e-22)
(24.5356 -3.31141 1.04455e-18)
(24.2671 -3.24597 0)
(24.1594 -3.2289 -2.49591e-18)
(24.0391 -3.1877 2.72886e-18)
(23.8766 -3.12421 0)
(23.7502 -3.05511 1.62996e-18)
(23.6599 -2.99088 1.78657e-18)
(23.576 -2.91239 1.94905e-18)
(23.5018 -2.83552 1.86673e-18)
(23.4492 -2.75732 1.45583e-19)
(23.4077 -2.68672 -1.11375e-18)
(17.6781 0.331427 0)
(17.7092 0.974202 -2.79825e-18)
(17.8234 1.6247 0)
(17.9528 2.3066 0)
(18.1704 2.9953 5.3581e-18)
(18.4704 3.72567 -5.20127e-18)
(18.9131 4.44601 1.01106e-17)
(19.5037 5.15687 0)
(20.2629 5.76118 1.378e-17)
(21.1687 6.23797 -8.6736e-18)
(22.1751 6.5121 4.07809e-18)
(23.2004 6.56915 -1.14176e-17)
(24.206 6.42205 1.06339e-17)
(25.1802 6.14989 0)
(26.0095 5.72745 0)
(26.6861 5.15819 1.118e-17)
(27.3587 4.59378 0)
(28.0861 4.05922 2.35333e-18)
(28.6619 3.48108 -1.93556e-17)
(28.878 2.78232 0)
(28.7396 1.97527 0)
(28.3912 1.15848 -3.22352e-18)
(27.9722 0.397774 -1.455e-18)
(27.5604 -0.289314 1.30846e-18)
(27.1791 -0.903259 -2.34935e-18)
(26.8529 -1.42123 -3.46179e-18)
(26.6062 -1.82805 -3.7349e-18)
(26.43 -2.14665 2.68921e-18)
(26.3028 -2.40688 -5.8144e-18)
(26.2046 -2.62597 7.87424e-18)
(26.1114 -2.80983 0)
(25.9872 -2.95464 2.78189e-18)
(25.797 -3.04953 2.01615e-18)
(25.5433 -3.09812 -5.49052e-18)
(25.3209 -3.13048 4.78075e-18)
(25.2538 -3.21224 -5.21275e-18)
(25.3448 -3.34045 -1.42014e-18)
(25.3493 -3.42789 1.54949e-18)
(25.078 -3.38615 0)
(24.6448 -3.25744 -9.25213e-19)
(24.3308 -3.15473 2.02148e-18)
(24.2011 -3.12019 -1.10387e-18)
(24.0995 -3.07792 0)
(23.952 -3.01398 0)
(23.8266 -2.94956 -7.20353e-19)
(23.7465 -2.90052 7.89126e-19)
(23.6779 -2.84544 -1.72133e-18)
(23.6123 -2.78746 -1.88337e-18)
(23.5609 -2.72921 0)
(23.5207 -2.67454 1.12256e-18)
(18.1144 0.294874 0)
(18.1369 0.875483 2.34653e-18)
(18.2412 1.45053 -4.63405e-18)
(18.3448 2.05711 -1.38285e-17)
(18.5271 2.66086 4.53958e-18)
(18.7656 3.309 -1.32664e-17)
(19.1218 3.94782 8.18808e-22)
(19.6003 4.59877 4.13168e-18)
(20.2326 5.17366 -7.8944e-18)
(21.0133 5.6658 -7.47902e-18)
(21.9141 6.00194 1.41173e-17)
(22.8698 6.14313 2.64265e-17)
(23.8305 6.08661 6.17202e-18)
(24.7984 5.91063 -5.73884e-18)
(25.6493 5.57256 -2.02104e-21)
(26.3502 5.07398 -1.95965e-17)
(27.0426 4.55441 -9.02059e-18)
(27.7833 4.08182 1.24139e-17)
(28.4109 3.57004 -7.36434e-22)
(28.69 2.90879 0)
(28.5944 2.11257 -9.42676e-18)
(28.2752 1.27779 5.69733e-18)
(27.8784 0.495196 -3.47743e-21)
(27.4837 -0.210604 -1.84635e-21)
(27.1156 -0.826799 -1.04162e-18)
(26.7996 -1.34147 4.09164e-18)
(26.5589 -1.75033 4.41254e-18)
(26.3852 -2.07638 5.95872e-18)
(26.2592 -2.34725 3.8642e-18)
(26.1626 -2.5791 5.58168e-18)
(26.0741 -2.77751 0)
(25.9629 -2.93936 -3.28562e-18)
(25.7924 -3.0489 5.35627e-18)
(25.5523 -3.10507 9.72082e-19)
(25.3127 -3.13512 -3.17462e-18)
(25.208 -3.20369 0)
(25.2789 -3.33334 2.51336e-18)
(25.3371 -3.45264 -1.37064e-18)
(25.1535 -3.4484 -7.40929e-22)
(24.7648 -3.33734 -1.63537e-18)
(24.4184 -3.2264 0)
(24.2541 -3.1866 2.12119e-22)
(24.166 -3.15561 3.19762e-18)
(24.0357 -3.08749 -1.1656e-18)
(23.8969 -3.00301 -1.90726e-18)
(23.802 -2.93617 6.96103e-19)
(23.7364 -2.87839 0)
(23.6767 -2.82441 0)
(23.6285 -2.77279 2.26428e-19)
(23.5878 -2.7271 -1.23606e-18)
(18.6537 0.262457 0)
(18.6665 0.771077 3.92263e-18)
(18.7657 1.26878 1.94392e-18)
(18.8358 1.79888 7.75696e-18)
(18.9794 2.31795 -7.66317e-18)
(19.1471 2.89268 7.49447e-18)
(19.4075 3.45987 0)
(19.7572 4.06821 0)
(20.2356 4.62664 6.76413e-18)
(20.8586 5.1487 -6.43378e-18)
(21.6124 5.56467 -2.43517e-17)
(22.4645 5.80303 -1.71525e-17)
(23.3642 5.85125 1.07171e-17)
(24.3117 5.7744 1.49795e-17)
(25.1883 5.51824 4.63277e-18)
(25.927 5.08159 8.5659e-18)
(26.6538 4.60208 -7.90501e-18)
(27.4506 4.14905 4.97312e-22)
(28.1242 3.69032 9.99555e-18)
(28.4649 3.04424 -6.0887e-18)
(28.4329 2.24431 1.10855e-17)
(28.1569 1.39953 5.02713e-18)
(27.7845 0.608212 -2.27668e-18)
(27.4063 -0.103726 -2.04922e-18)
(27.0514 -0.737285 2.76533e-18)
(26.7425 -1.27988 3.62218e-18)
(26.5044 -1.71686 1.10346e-22)
(26.3314 -2.06314 2.1115e-18)
(26.2052 -2.34636 0)
(26.1095 -2.58406 -1.23525e-18)
(26.0261 -2.78345 1.33836e-18)
(25.928 -2.94266 -2.90753e-18)
(25.7805 -3.05206 -3.1592e-18)
(25.5616 -3.1006 -6.8803e-18)
(25.3173 -3.10747 0)
(25.1649 -3.13637 2.04043e-18)
(25.2 -3.24099 -2.2226e-18)
(25.2998 -3.36849 -1.21185e-18)
(25.2204 -3.39366 -1.32197e-18)
(24.8963 -3.27833 2.88805e-18)
(24.5153 -3.12058 -1.5771e-18)
(24.3006 -3.03657 3.44407e-18)
(24.2297 -3.01971 -2.8212e-18)
(24.1568 -2.99251 -1.02839e-18)
(24.0418 -2.92485 1.12095e-18)
(23.9361 -2.84949 -2.45427e-18)
(23.8593 -2.7813 0)
(23.7971 -2.71689 -1.46178e-18)
(23.7425 -2.65531 0)
(23.697 -2.60195 8.69721e-19)
(19.1439 0.237276 8.25633e-19)
(19.1337 0.681276 -1.63422e-18)
(19.2346 1.11626 3.25128e-18)
(19.3035 1.58405 0)
(19.4413 2.02409 6.4485e-18)
(19.6001 2.51391 6.32767e-18)
(19.8278 2.9849 -6.21362e-18)
(20.119 3.50668 -1.2003e-17)
(20.4996 3.99055 -1.15544e-17)
(20.9939 4.4834 0)
(21.5927 4.91678 1.0475e-17)
(22.2929 5.2426 0)
(23.0592 5.41536 4.63878e-18)
(23.9109 5.50025 -4.33491e-18)
(24.7386 5.40547 -4.0343e-18)
(25.4694 5.09858 1.27328e-21)
(26.1964 4.71625 -1.61184e-22)
(27.0055 4.38598 3.18365e-18)
(27.7569 3.96777 -2.92349e-18)
(28.1658 3.35618 1.07028e-17)
(28.1935 2.55962 -7.32058e-18)
(27.9708 1.68417 0)
(27.6409 0.829368 0)
(27.2922 0.0600756 -1.81014e-18)
(26.9579 -0.628151 4.08719e-19)
(26.6644 -1.20203 2.61908e-22)
(26.4351 -1.64342 -3.45431e-18)
(26.2673 -1.98165 3.96849e-22)
(26.1444 -2.25294 -2.01702e-18)
(26.0523 -2.47815 2.18466e-18)
(25.9756 -2.66748 -3.55055e-18)
(25.8925 -2.82231 1.28447e-18)
(25.7717 -2.93291 0)
(25.5845 -2.98666 1.52028e-18)
(25.3473 -2.98711 -3.30634e-18)
(25.1536 -2.98678 1.36471e-22)
(25.1233 -3.06054 3.92421e-18)
(25.2356 -3.20955 2.1384e-18)
(25.2817 -3.31251 -1.16662e-18)
(25.0835 -3.26302 1.27301e-18)
(24.7187 -3.08511 1.39053e-18)
(24.3984 -2.91918 -1.5177e-18)
(24.2427 -2.83943 -1.65748e-18)
(24.1846 -2.8226 2.71705e-18)
(24.1219 -2.80773 3.25513e-23)
(24.0422 -2.77614 1.07978e-18)
(23.9722 -2.73929 -5.87981e-19)
(23.9148 -2.7011 6.4252e-19)
(23.8607 -2.663 1.75069e-19)
(23.8159 -2.62275 -9.54612e-19)
(19.1735 0.21208 -6.8283e-19)
(19.1557 0.663479 2.71585e-18)
(19.2534 1.06948 -5.41886e-18)
(19.3158 1.52616 0)
(19.4478 1.93457 5.40949e-18)
(19.6023 2.38734 -1.06587e-17)
(19.8268 2.80988 5.2509e-18)
(20.112 3.27466 1.52698e-17)
(20.4787 3.68513 4.91813e-18)
(20.9538 4.10162 1.88482e-17)
(21.5171 4.46834 -1.79737e-17)
(22.1713 4.74504 0)
(22.8972 4.92269 -1.97957e-21)
(23.6898 5.00233 -7.5103e-18)
(24.4828 4.92989 -7.00951e-18)
(25.185 4.67873 0)
(25.9081 4.36572 0)
(26.7146 4.13132 5.5679e-18)
(27.4509 3.83149 -5.1243e-18)
(27.91 3.30831 -4.69757e-18)
(27.9886 2.54925 0)
(27.7988 1.68956 -3.89849e-18)
(27.4965 0.859625 5.30792e-18)
(27.1722 0.104139 -1.59935e-18)
(26.8569 -0.548879 1.79704e-18)
(26.5794 -1.09546 -1.4172e-18)
(26.3612 -1.53656 -3.05338e-18)
(26.1993 -1.89093 -1.64851e-18)
(26.0798 -2.18639 -3.56288e-18)
(25.9899 -2.44089 0)
(25.9168 -2.66303 0)
(25.8439 -2.85395 0)
(25.7458 -3.00428 0)
(25.5925 -3.09874 2.68174e-18)
(25.3766 -3.1308 0)
(25.1536 -3.12179 1.58845e-18)
(25.038 -3.15825 -6.99008e-22)
(25.0912 -3.28916 -1.88556e-18)
(25.2034 -3.46384 -2.05473e-18)
(25.1786 -3.55048 -1.99016e-22)
(24.9507 -3.47483 2.44613e-18)
(24.6354 -3.30976 -2.66795e-18)
(24.3824 -3.1468 0)
(24.2263 -3.04418 1.59231e-18)
(24.1322 -2.98374 0)
(24.0606 -2.94013 -9.48226e-19)
(23.9999 -2.90134 0)
(23.9483 -2.86934 -1.12742e-18)
(23.9088 -2.83932 -9.21256e-19)
(23.8682 -2.81128 -3.34561e-19)
(19.5768 0.190684 -1.12696e-18)
(19.6062 0.610823 7.06105e-22)
(19.6902 0.959699 4.50257e-18)
(19.7246 1.36961 -4.52815e-18)
(19.8092 1.72448 -4.52176e-18)
(19.8754 2.14876 -8.93648e-18)
(19.9945 2.55387 0)
(20.1586 3.01966 -8.60418e-18)
(20.3869 3.43733 8.34982e-18)
(20.7318 3.89556 -4.34176e-21)
(21.1677 4.31522 -2.99737e-21)
(21.7218 4.63945 0)
(22.3849 4.87041 6.90137e-18)
(23.1497 5.02463 -6.49212e-18)
(23.9301 4.98874 1.21415e-17)
(24.6671 4.78614 -5.65949e-18)
(25.4114 4.53068 0)
(26.2659 4.34062 4.86551e-18)
(27.072 4.08151 -8.9644e-18)
(27.5689 3.58278 1.19802e-21)
(27.7078 2.80648 5.23845e-21)
(27.5824 1.92096 6.05709e-21)
(27.3255 1.065 3.11936e-18)
(27.0354 0.282356 2.81812e-18)
(26.7488 -0.419219 3.17174e-19)
(26.4859 -1.02804 0)
(26.2737 -1.52281 -1.34658e-18)
(26.1146 -1.91641 1.45418e-18)
(25.9955 -2.23773 -1.22716e-22)
(25.905 -2.50449 0)
(25.8332 -2.72761 -1.84189e-18)
(25.768 -2.91234 3.99957e-18)
(25.6915 -3.05555 -6.51501e-18)
(25.5761 -3.14604 2.36246e-18)
(25.4043 -3.16767 1.28447e-18)
(25.1933 -3.1284 -1.39914e-18)
(25.0158 -3.07881 0)
(24.9587 -3.09591 -1.10857e-21)
(25.0328 -3.19926 -3.61974e-18)
(25.1078 -3.32301 -1.81151e-21)
(25.0588 -3.36581 -1.07516e-18)
(24.8878 -3.29914 -4.74995e-23)
(24.6673 -3.16544 1.27888e-18)
(24.4698 -3.01741 0)
(24.3212 -2.88551 0)
(24.2133 -2.77879 -1.15815e-22)
(24.1281 -2.69158 0)
(24.0612 -2.62013 9.87511e-19)
(24.0075 -2.55568 1.34409e-18)
(23.9611 -2.50681 -2.92847e-19)
(20.4011 0.165558 0)
(20.3701 0.487916 9.28168e-19)
(20.4852 0.768625 -3.72634e-18)
(20.5005 1.10313 7.52577e-18)
(20.6015 1.37295 3.76423e-18)
(20.6728 1.72666 5.68242e-21)
(20.7619 2.03999 -2.45703e-22)
(20.8841 2.41749 1.44873e-17)
(21.0104 2.77839 -7.05493e-18)
(21.2093 3.21972 -6.81591e-18)
(21.4606 3.66116 2.90966e-21)
(21.8004 4.04539 -6.23559e-18)
(22.2472 4.40296 5.92602e-18)
(22.8236 4.76799 -5.59213e-18)
(23.4622 4.96373 -5.24582e-18)
(24.1088 4.90376 4.90458e-18)
(24.8442 4.7891 -9.13184e-18)
(25.6846 4.71642 -8.46638e-18)
(26.5134 4.52579 1.17348e-17)
(27.1024 4.03184 -3.60041e-18)
(27.3115 3.23629 0)
(27.2605 2.29331 0)
(27.0737 1.34739 -5.4688e-18)
(26.8335 0.486364 -1.23625e-18)
(26.5838 -0.292586 1.39856e-18)
(26.3501 -0.941106 -2.19929e-18)
(26.1554 -1.43005 5.93188e-18)
(26.0062 -1.79461 -1.28205e-18)
(25.8947 -2.07546 -5.69736e-22)
(25.8116 -2.29708 -1.49755e-18)
(25.7479 -2.47704 4.86948e-18)
(25.6945 -2.62586 1.76102e-18)
(25.6391 -2.74612 -1.91325e-18)
(25.5629 -2.83164 2.07979e-18)
(25.447 -2.86569 -1.12949e-18)
(25.2851 -2.84284 -2.46113e-18)
(25.1061 -2.77582 4.01836e-18)
(24.9764 -2.71635 -4.37857e-18)
(24.9464 -2.72119 6.36095e-18)
(24.9859 -2.78985 -1.73474e-18)
(25.0113 -2.8726 1.88916e-18)
(24.9715 -2.90993 1.02857e-18)
(24.8729 -2.88742 0)
(24.7435 -2.81585 -1.22353e-18)
(24.6061 -2.72622 1.33282e-18)
(24.4811 -2.63001 -4.51557e-22)
(24.3756 -2.54014 0)
(24.296 -2.45507 0)
(24.2211 -2.38143 7.03929e-19)
(24.1688 -2.31593 2.55721e-19)
(20.1618 0.156055 1.5219e-18)
(20.0071 0.515509 -2.29465e-18)
(20.1174 0.795255 -3.08114e-18)
(20.1667 1.17233 -3.11929e-18)
(20.3045 1.42358 1.11457e-20)
(20.4927 1.75466 -9.11341e-21)
(20.6882 1.99821 0)
(20.9529 2.26881 -1.21774e-17)
(21.2106 2.50884 5.94808e-18)
(21.5201 2.79066 5.76703e-18)