/*--------------------------------*- C++ -*----------------------------------*\
  =========                 |
  \\      /  F ield         | OpenFOAM: The Open Source CFD Toolbox
   \\    /   O peration     | Website:  https://openfoam.org
    \\  /    A nd           | Version:  8
     \\/     M anipulation  |
\*---------------------------------------------------------------------------*/
FoamFile
{
    version     2.0;
    format      ascii;
    class       volScalarField;
    location    "0.33";
    object      p;
}
// * * * * * * * * * * * * * * * * * * * * * * * * * * * * * * * * * * * * * //

dimensions      [0 2 -2 0 0 0 0];

internalField   nonuniform List<scalar> 
112642
(
5.15806
5.11857
5.07984
5.04053
4.99919
4.95578
4.91064
4.86431
4.81716
4.76941
4.72119
4.67255
4.62353
4.57415
4.52443
4.47435
4.42396
4.37326
4.32228
4.27101
4.21948
4.16772
4.11571
4.06349
4.01105
3.95843
3.90562
3.85262
3.79948
3.74617
3.69274
3.63916
3.58545
3.53164
3.4777
3.42366
3.36954
3.31531
3.26101
3.20664
3.1522
3.09769
3.04311
2.98846
2.93377
2.87903
2.82425
2.76942
2.71454
2.65961
2.60466
2.54967
2.49464
2.43958
2.38449
2.32937
2.27422
2.21906
2.16386
2.10864
2.05341
1.99815
1.94287
1.88758
1.83226
1.77693
1.72158
1.66621
1.61083
1.55542
1.49999
1.44454
1.38906
1.33356
1.27803
1.22248
1.1669
1.1113
1.05567
1.00001
0.944315
0.88859
0.832835
0.777053
0.721221
0.665344
0.609455
0.553506
0.49752
0.441487
0.385408
0.329297
0.273126
0.216902
0.160626
0.104307
0.0479245
-0.008522
-0.0650234
-0.121588
-0.178217
-0.234913
-0.291677
-0.348518
-0.405425
-0.462401
-0.519465
-0.57661
-0.633833
-0.691129
-0.748526
-0.806009
-0.863581
-0.921251
-0.978997
-1.03687
-1.09483
-1.15289
-1.21105
-1.26933
-1.32772
-1.38621
-1.44481
-1.50351
-1.56235
-1.62128
-1.68034
-1.73951
-1.7988
-1.85821
-1.91774
-1.97741
-2.03719
-2.09711
-2.15717
-2.21736
-2.27768
-2.33815
-2.39876
-2.45951
-2.52039
-2.58142
-2.64261
-2.70393
-2.76541
-2.82704
-2.88882
-2.95075
-3.01284
-3.07507
-3.13746
-3.20001
-3.26272
-3.32556
-3.38856
-3.45172
-3.51503
-3.5785
-3.64212
-3.70589
-3.7698
-3.83387
-3.89809
-3.96246
-4.02696
-4.0916
-4.15638
-4.22128
-4.28632
-4.35148
-4.41675
-4.48216
-4.54767
-4.61332
-4.67905
-4.74487
-4.81081
-4.87683
-4.94292
-5.00909
-5.07534
-5.14165
-5.208
-5.2744
-5.34084
-5.40732
-5.4738
-5.5403
-5.6068
-5.67329
-5.73972
-5.80602
-5.87204
-5.93753
-6.00205
-6.06486
-6.12537
-6.18316
-6.2399
-6.29703
5.18161
5.14126
5.10196
5.06313
5.02286
4.98072
4.93664
4.89118
4.84463
4.79733
4.74946
4.70112
4.65237
4.6032
4.55369
4.50381
4.45359
4.40304
4.35219
4.30102
4.24961
4.19789
4.14595
4.09377
4.04135
3.98873
3.9359
3.88287
3.82967
3.77632
3.72278
3.66911
3.61529
3.56135
3.50727
3.45307
3.39877
3.34436
3.28985
3.23526
3.18058
3.12584
3.07101
3.0161
2.96112
2.90609
2.85101
2.79586
2.74066
2.6854
2.6301
2.57476
2.51937
2.46394
2.40847
2.35296
2.29742
2.24185
2.18623
2.13059
2.07492
2.01923
1.9635
1.90775
1.85198
1.79617
1.74034
1.68449
1.62861
1.5727
1.51677
1.46081
1.40482
1.3488
1.29275
1.23667
1.18055
1.12441
1.06824
1.01203
0.955785
0.899503
0.843189
0.786835
0.730439
0.673997
0.617525
0.561001
0.504434
0.447819
0.391159
0.33445
0.27769
0.22087
0.164003
0.107079
0.0500957
-0.00694397
-0.0640592
-0.121218
-0.178467
-0.23576
-0.293144
-0.350586
-0.408106
-0.465701
-0.523374
-0.581135
-0.638969
-0.69689
-0.754896
-0.812994
-0.871182
-0.929463
-0.987833
-1.04631
-1.10488
-1.16356
-1.22233
-1.28121
-1.3402
-1.39929
-1.45849
-1.5178
-1.57722
-1.63675
-1.6964
-1.75616
-1.81603
-1.87604
-1.93615
-1.9964
-2.05676
-2.11725
-2.17787
-2.23864
-2.29952
-2.36055
-2.42171
-2.483
-2.54444
-2.60601
-2.66772
-2.72958
-2.79158
-2.85372
-2.91601
-2.97844
-3.04102
-3.10373
-3.16661
-3.22962
-3.29279
-3.35609
-3.41953
-3.48312
-3.54686
-3.61075
-3.67477
-3.73892
-3.80323
-3.86767
-3.93225
-3.99697
-4.0618
-4.12677
-4.19186
-4.25705
-4.32237
-4.3878
-4.45335
-4.51898
-4.58472
-4.65059
-4.71651
-4.78252
-4.84862
-4.91478
-4.981
-5.0473
-5.11362
-5.18001
-5.24642
-5.31286
-5.37932
-5.44578
-5.51224
-5.57871
-5.64511
-5.71146
-5.77769
-5.84367
-5.90919
-5.97388
-6.03735
-6.09876
-6.15801
-6.21517
-6.27261
-6.33081
5.20718
5.16541
5.125
5.08641
5.04691
5.00593
4.96301
4.91844
4.87259
4.82582
4.77834
4.73033
4.68184
4.63294
4.58365
4.53397
4.48393
4.43356
4.38284
4.33182
4.28048
4.22888
4.17699
4.12485
4.07246
4.01986
3.96702
3.91396
3.86072
3.8073
3.75369
3.69993
3.646
3.59193
3.5377
3.48335
3.42888
3.37428
3.31958
3.26476
3.20986
3.15487
3.09979
3.04461
2.98936
2.93402
2.87863
2.82317
2.76764
2.71205
2.6564
2.60069
2.54494
2.48912
2.43327
2.37737
2.32142
2.26542
2.20939
2.15331
2.09721
2.04105
1.98487
1.92865
1.8724
1.81611
1.75979
1.70343
1.64705
1.59063
1.53418
1.4777
1.42118
1.36462
1.30802
1.2514
1.19474
1.13804
1.0813
1.02453
0.967712
0.910849
0.853962
0.797021
0.740042
0.683003
0.625938
0.568821
0.511645
0.454435
0.397157
0.339843
0.282464
0.225035
0.167549
0.110006
0.0523968
-0.00526991
-0.063008
-0.120798
-0.178672
-0.236599
-0.294612
-0.352691
-0.41085
-0.469079
-0.527389
-0.58578
-0.64426
-0.702812
-0.761468
-0.820194
-0.879028
-0.937943
-0.996947
-1.05607
-1.11527
-1.17458
-1.23397
-1.29349
-1.3531
-1.41282
-1.47264
-1.53257
-1.59261
-1.65276
-1.71302
-1.77339
-1.83389
-1.89448
-1.95521
-2.01605
-2.07701
-2.13811
-2.19932
-2.26067
-2.32214
-2.38374
-2.44547
-2.50734
-2.56933
-2.63146
-2.69372
-2.75613
-2.81866
-2.88133
-2.94414
-3.0071
-3.07017
-3.13341
-3.19677
-3.26027
-3.3239
-3.38767
-3.45157
-3.51562
-3.5798
-3.64412
-3.70855
-3.77311
-3.83781
-3.90265
-3.9676
-4.03267
-4.09785
-4.16315
-4.22856
-4.29407
-4.35968
-4.42539
-4.4912
-4.55709
-4.62307
-4.68915
-4.75529
-4.82147
-4.88774
-4.95405
-5.02043
-5.08682
-5.15327
-5.21972
-5.2862
-5.35267
-5.41916
-5.48563
-5.55206
-5.61846
-5.68479
-5.75099
-5.817
-5.88258
-5.94754
-6.01138
-6.07363
-6.13373
-6.19205
-6.24874
-6.30769
-6.36778
5.2343
5.19068
5.14901
5.11006
5.07101
5.03105
4.98921
4.94565
4.90059
4.85442
4.80742
4.75978
4.7116
4.66298
4.61393
4.56448
4.51466
4.46446
4.41391
4.36303
4.31183
4.26031
4.20851
4.15643
4.1041
4.05151
3.99868
3.94561
3.89234
3.83886
3.78518
3.73134
3.67731
3.62311
3.56876
3.51427
3.45962
3.40485
3.34995
3.29493
3.2398
3.18456
3.12922
3.07379
3.01825
2.96263
2.90693
2.85116
2.7953
2.73937
2.68337
2.6273
2.57116
2.51497
2.45873
2.40242
2.34605
2.28964
2.23317
2.17666
2.1201
2.06349
2.00684
1.95015
1.8934
1.83663
1.7798
1.72294
1.66604
1.6091
1.55212
1.49509
1.43804
1.38093
1.32378
1.2666
1.20937
1.15209
1.09479
1.03742
0.980025
0.922574
0.865089
0.807542
0.749958
0.692319
0.634638
0.576902
0.519115
0.461273
0.403374
0.34543
0.287421
0.229357
0.17123
0.113046
0.0547961
-0.00351531
-0.0618935
-0.120338
-0.178857
-0.237443
-0.296102
-0.354836
-0.413648
-0.472535
-0.531505
-0.590554
-0.649689
-0.7089
-0.768209
-0.827604
-0.887086
-0.946662
-1.00633
-1.06609
-1.12595
-1.18592
-1.24597
-1.30613
-1.36638
-1.42676
-1.48721
-1.54779
-1.60847
-1.66924
-1.73014
-1.79115
-1.85227
-1.9135
-1.97484
-2.0363
-2.09788
-2.15958
-2.22141
-2.28335
-2.34543
-2.40761
-2.46993
-2.53238
-2.59495
-2.65764
-2.72047
-2.78342
-2.84652
-2.90974
-2.97307
-3.03654
-3.10016
-3.16389
-3.22775
-3.29175
-3.35587
-3.42011
-3.48448
-3.54898
-3.61361
-3.67835
-3.74322
-3.8082
-3.8733
-3.93852
-4.00385
-4.06928
-4.13482
-4.20044
-4.26617
-4.33201
-4.39791
-4.4639
-4.52998
-4.59613
-4.66234
-4.72864
-4.79498
-4.86135
-4.92778
-4.99424
-5.06074
-5.12727
-5.19379
-5.26032
-5.32685
-5.39337
-5.45986
-5.52631
-5.59273
-5.65905
-5.72527
-5.79129
-5.85698
-5.92211
-5.98637
-6.04922
-6.11033
-6.16917
-6.22686
-6.28383
-6.3445
-6.40723
5.26165
5.21667
5.17368
5.13375
5.09475
5.05548
5.0147
4.97221
4.92805
4.8826
4.83615
4.78894
4.74114
4.69282
4.64405
4.59485
4.54525
4.49526
4.44489
4.39417
4.34311
4.29172
4.24003
4.18804
4.13576
4.0832
4.03039
3.97734
3.92405
3.87054
3.81682
3.7629
3.70878
3.65448
3.60002
3.54539
3.49059
3.43565
3.38056
3.32535
3.27001
3.21454
3.15895
3.10327
3.04746
2.99156
2.93556
2.87947
2.82329
2.76703
2.71068
2.65426
2.59776
2.54118
2.48454
2.42783
2.37106
2.31422
2.25732
2.20036
2.14336
2.08629
2.02917
1.97199
1.91476
1.85749
1.80016
1.74278
1.68537
1.6279
1.57038
1.51282
1.45521
1.39754
1.33984
1.28208
1.22429
1.16643
1.10853
1.05059
0.992597
0.93454
0.876446
0.818296
0.7601
0.701839
0.643535
0.58517
0.526755
0.468278
0.409745
0.351156
0.292506
0.23379
0.175018
0.116179
0.0572783
-0.00169384
-0.0607312
-0.119835
-0.179015
-0.238264
-0.29759
-0.356994
-0.416471
-0.476029
-0.535665
-0.595389
-0.655192
-0.715077
-0.775054
-0.83512
-0.89527
-0.955517
-1.01585
-1.07629
-1.13681
-1.19743
-1.25815
-1.31898
-1.37989
-1.44091
-1.50203
-1.56326
-1.62458
-1.68601
-1.74755
-1.8092
-1.87095
-1.93282
-1.9948
-2.05688
-2.11908
-2.1814
-2.24384
-2.30639
-2.36906
-2.43185
-2.49476
-2.55779
-2.62093
-2.68421
-2.7476
-2.81112
-2.87476
-2.93852
-3.00239
-3.0664
-3.13053
-3.19477
-3.25914
-3.32362
-3.38822
-3.45294
-3.51777
-3.58273
-3.6478
-3.71296
-3.77825
-3.84364
-3.90913
-3.97473
-4.04042
-4.10621
-4.17209
-4.23804
-4.30408
-4.3702
-4.4364
-4.50266
-4.56898
-4.63537
-4.70181
-4.76829
-4.83482
-4.90138
-4.96796
-5.03454
-5.10115
-5.16776
-5.23436
-5.30095
-5.36752
-5.43405
-5.50052
-5.56695
-5.63328
-5.6995
-5.76554
-5.8313
-5.89659
-5.96112
-6.02453
-6.08628
-6.14619
-6.20418
-6.26169
-6.31983
-6.38232
-6.44713
5.28921
5.24328
5.199
5.15779
5.11839
5.07947
5.03957
4.99812
4.95495
4.91034
4.86454
4.81785
4.77044
4.72249
4.67401
4.62509
4.57574
4.52597
4.47581
4.42529
4.37439
4.32313
4.27156
4.21967
4.16747
4.11498
4.06221
4.00918
3.9559
3.90238
3.84862
3.79464
3.74045
3.68607
3.6315
3.57674
3.52181
3.4667
3.41145
3.35605
3.30051
3.24482
3.18899
3.13306
3.077
3.02081
2.96453
2.90813
2.85164
2.79505
2.73837
2.68159
2.62472
2.56776
2.51073
2.45363
2.39644
2.33918
2.28186
2.22445
2.16699
2.10946
2.05186
1.99421
1.9365
1.87872
1.82089
1.763
1.70505
1.64705
1.58899
1.53088
1.47271
1.4145
1.35621
1.29789
1.2395
1.18107
1.12258
1.06403
1.00543
0.946772
0.88806
0.829294
0.770467
0.711575
0.652643
0.593636
0.53458
0.475456
0.416276
0.357028
0.297726
0.238348
0.178918
0.119411
0.0598423
0.000207976
-0.0595064
-0.119282
-0.179138
-0.239063
-0.299073
-0.35915
-0.419309
-0.479552
-0.539867
-0.600278
-0.66076
-0.721337
-0.781994
-0.842744
-0.903577
-0.96451
-1.02552
-1.08664
-1.14784
-1.20914
-1.27054
-1.33203
-1.39362
-1.4553
-1.51709
-1.57897
-1.64096
-1.70304
-1.76524
-1.82753
-1.88993
-1.95244
-2.01506
-2.07778
-2.14061
-2.20356
-2.26661
-2.32978
-2.39306
-2.45645
-2.51996
-2.58358
-2.64731
-2.71116
-2.77511
-2.8392
-2.90339
-2.96769
-3.03211
-3.09665
-3.1613
-3.22605
-3.29091
-3.35588
-3.42096
-3.48615
-3.55144
-3.61685
-3.68234
-3.74793
-3.81364
-3.87943
-3.9453
-4.01127
-4.07732
-4.14346
-4.20966
-4.27594
-4.34227
-4.40868
-4.47514
-4.54166
-4.60823
-4.67483
-4.74146
-4.80813
-4.87482
-4.94154
-5.00824
-5.07495
-5.14164
-5.20834
-5.275
-5.3416
-5.40817
-5.47469
-5.54113
-5.60748
-5.67372
-5.73977
-5.80558
-5.87098
-5.93576
-5.99951
-6.06196
-6.12259
-6.18149
-6.23897
-6.29688
-6.35666
-6.42099
-6.48744
5.31693
5.27037
5.2252
5.18258
5.14236
5.10338
5.06408
5.02358
4.98144
4.93773
4.89268
4.84659
4.79968
4.7521
4.70398
4.65536
4.60628
4.55677
4.50683
4.4565
4.40578
4.3547
4.30326
4.25149
4.19939
4.14697
4.09426
4.04127
3.98801
3.93448
3.8807
3.8267
3.77245
3.71799
3.66333
3.60846
3.5534
3.49815
3.44274
3.38716
3.33141
3.27552
3.21947
3.16329
3.10698
3.05053
2.99395
2.93726
2.88046
2.82354
2.76651
2.70938
2.65215
2.59482
2.5374
2.4799
2.4223
2.36463
2.30686
2.24902
2.19109
2.13311
2.07503
2.0169
1.95868
1.9004
1.84206
1.78365
1.72517
1.66663
1.60802
1.54936
1.49062
1.43184
1.37298
1.31407
1.25509
1.19606
1.13696
1.0778
1.01859
0.959311
0.899965
0.840564
0.781101
0.721573
0.661987
0.60233
0.542617
0.482835
0.422992
0.363077
0.303099
0.24306
0.182936
0.122766
0.0625044
0.00218718
-0.0582131
-0.118678
-0.179226
-0.239843
-0.300546
-0.361318
-0.422184
-0.483109
-0.54414
-0.605236
-0.666423
-0.7277
-0.789056
-0.850504
-0.912036
-0.973665
-1.03538
-1.09719
-1.15908
-1.22107
-1.28316
-1.34534
-1.40761
-1.46998
-1.53244
-1.595
-1.65767
-1.72042
-1.78328
-1.84623
-1.9093
-1.97246
-2.03572
-2.09909
-2.16257
-2.22615
-2.28983
-2.35361
-2.41752
-2.48152
-2.54563
-2.60984
-2.67417
-2.7386
-2.80314
-2.86778
-2.93254
-2.99738
-3.06234
-3.12741
-3.19258
-3.25784
-3.32321
-3.38868
-3.45423
-3.51988
-3.58564
-3.65149
-3.71742
-3.78343
-3.84954
-3.91572
-3.98199
-4.04832
-4.11472
-4.18119
-4.24772
-4.3143
-4.38093
-4.44761
-4.51434
-4.58108
-4.64788
-4.71469
-4.78152
-4.84836
-4.9152
-4.98204
-5.04888
-5.11566
-5.18244
-5.24918
-5.31587
-5.3825
-5.44907
-5.51553
-5.58191
-5.64816
-5.71423
-5.78008
-5.84557
-5.91051
-5.97462
-6.03754
-6.09893
-6.15851
-6.21666
-6.27414
-6.33304
-6.3947
-6.46043
-6.52818
5.34453
5.29794
5.25208
5.20821
5.16692
5.12746
5.0884
5.04867
5.0075
4.96475
4.92054
4.87514
4.82879
4.78168
4.73393
4.68565
4.63687
4.58762
4.53794
4.48783
4.43732
4.3864
4.33514
4.2835
4.23152
4.17919
4.12657
4.07363
4.0204
3.96689
3.91311
3.85907
3.8048
3.75027
3.69552
3.64056
3.58539
3.53001
3.47445
3.41869
3.36277
3.30667
3.25041
3.19399
3.13743
3.08072
3.02386
2.96688
2.90977
2.85253
2.79516
2.73768
2.6801
2.62239
2.56459
2.50669
2.44868
2.39058
2.33237
2.27409
2.21571
2.15725
2.0987
2.04007
1.98136
1.92257
1.8637
1.80476
1.74575
1.68666
1.6275
1.56827
1.50896
1.44959
1.39015
1.33064
1.27107
1.21142
1.15171
1.09193
1.03208
0.972171
0.912183
0.852138
0.792027
0.731839
0.67159
0.611267
0.55089
0.490423
0.429907
0.369309
0.308646
0.247911
0.187102
0.126228
0.065275
0.00425018
-0.0568504
-0.118022
-0.179277
-0.240605
-0.302017
-0.363507
-0.42508
-0.486728
-0.548467
-0.610286
-0.672189
-0.734181
-0.796248
-0.858422
-0.920662
-0.983005
-1.04543
-1.10795
-1.17056
-1.23325
-1.29605
-1.35892
-1.4219
-1.48497
-1.54813
-1.61138
-1.67472
-1.73816
-1.8017
-1.86533
-1.92906
-1.99289
-2.05682
-2.12085
-2.18497
-2.2492
-2.31352
-2.37795
-2.44247
-2.5071
-2.57182
-2.63664
-2.70156
-2.76657
-2.8317
-2.89692
-2.96224
-3.02764
-3.09314
-3.15874
-3.22442
-3.2902
-3.35608
-3.42204
-3.48808
-3.5542
-3.62041
-3.6867
-3.75305
-3.8195
-3.886
-3.95257
-4.01921
-4.0859
-4.15265
-4.21945
-4.28629
-4.35317
-4.42008
-4.48703
-4.554
-4.62099
-4.68799
-4.755
-4.822
-4.889
-4.95598
-5.02295
-5.08986
-5.15675
-5.22356
-5.29036
-5.35705
-5.42367
-5.49019
-5.55662
-5.62289
-5.68899
-5.75488
-5.82044
-5.88552
-5.94988
-6.01323
-6.07521
-6.13557
-6.19426
-6.25208
-6.31008
-6.37033
-6.43376
-6.50075
-6.56907
5.37208
5.32576
5.27946
5.23457
5.1921
5.15186
5.11271
5.07345
5.03313
4.99133
4.94803
4.90341
4.85768
4.81109
4.7638
4.71589
4.66743
4.61849
4.56906
4.51921
4.46891
4.41823
4.36712
4.31565
4.26381
4.21159
4.15906
4.10619
4.05303
3.99954
3.94578
3.89174
3.83743
3.78286
3.72805
3.673
3.61773
3.56224
3.50653
3.45063
3.39451
3.33824
3.28177
3.22513
3.16833
3.11136
3.05423
2.99697
2.93955
2.88199
2.82429
2.76648
2.70852
2.65046
2.59226
2.53396
2.47554
2.41701
2.35838
2.29965
2.24081
2.18188
2.12284
2.06372
2.00451
1.94521
1.88581
1.82634
1.76678
1.70714
1.64741
1.58761
1.52773
1.46776
1.40773
1.34761
1.28743
1.22716
1.16681
1.10641
1.04591
0.985357
0.924719
0.864009
0.803235
0.742374
0.68145
0.620452
0.559379
0.498235
0.437018
0.375719
0.314358
0.252912
0.191402
0.129809
0.0681421
0.00640554
-0.0554188
-0.117314
-0.179292
-0.241347
-0.303491
-0.365705
-0.428008
-0.490396
-0.552858
-0.615417
-0.678048
-0.740777
-0.803584
-0.866477
-0.92946
-0.992528
-1.05568
-1.11893
-1.18226
-1.24568
-1.3092
-1.37278
-1.43648
-1.50025
-1.56413
-1.62808
-1.69213
-1.75627
-1.8205
-1.88482
-1.94924
-2.01375
-2.07835
-2.14304
-2.20783
-2.27271
-2.33769
-2.40275
-2.46791
-2.53316
-2.59851
-2.66394
-2.72947
-2.79508
-2.86079
-2.92658
-2.99246
-3.05842
-3.12449
-3.19061
-3.25683
-3.32312
-3.3895
-3.45594
-3.52247
-3.58905
-3.65572
-3.72245
-3.78923
-3.85608
-3.92299
-3.98993
-4.05695
-4.12399
-4.19108
-4.2582
-4.32533
-4.39251
-4.45969
-4.52689
-4.5941
-4.6613
-4.7285
-4.7957
-4.86285
-4.92999
-4.99709
-5.06417
-5.13116
-5.1981
-5.26498
-5.33175
-5.39846
-5.46503
-5.53151
-5.59783
-5.66398
-5.72991
-5.79551
-5.8607
-5.92529
-5.98897
-6.05147
-6.11247
-6.17191
-6.23003
-6.28792
-6.34683
-6.40866
-6.47364
-6.54171
-6.61033
5.39926
5.35353
5.30723
5.26156
5.21803
5.17674
5.13716
5.09807
5.05839
5.01749
4.97511
4.93131
4.88631
4.84033
4.79352
4.74602
4.69796
4.64933
4.60021
4.55062
4.50058
4.45011
4.39921
4.34791
4.29622
4.24416
4.19174
4.13897
4.08586
4.03245
3.9787
3.92467
3.87035
3.81576
3.7609
3.70578
3.65042
3.59482
3.53899
3.48294
3.42667
3.37021
3.31354
3.25669
3.19967
3.14244
3.08507
3.02751
2.9698
2.91192
2.85391
2.79575
2.73745
2.67901
2.62043
2.56173
2.5029
2.44396
2.38489
2.3257
2.26641
2.207
2.14748
2.08786
2.02814
1.96832
1.9084
1.84839
1.78827
1.72806
1.66777
1.60739
1.54691
1.48635
1.42571
1.36499
1.30417
1.24327
1.18229
1.12123
1.06009
0.99887
0.937572
0.876185
0.814732
0.753193
0.691576
0.629881
0.568108
0.506259
0.444333
0.382323
0.320237
0.258079
0.195835
0.133514
0.0711227
0.00863945
-0.0539101
-0.11655
-0.179268
-0.242073
-0.304951
-0.367925
-0.430969
-0.494105
-0.557327
-0.620625
-0.684014
-0.747491
-0.811048
-0.874689
-0.93842
-1.00224
-1.06614
-1.13013
-1.1942
-1.25836
-1.32261
-1.38694
-1.45136
-1.51586
-1.58045
-1.64513
-1.7099
-1.77474
-1.83968
-1.9047
-1.96982
-2.03502
-2.1003
-2.16568
-2.23114
-2.29669
-2.36232
-2.42804
-2.49384
-2.55973
-2.6257
-2.69176
-2.75789
-2.82411
-2.89041
-2.95678
-3.02323
-3.08976
-3.15637
-3.22304
-3.28978
-3.35659
-3.42346
-3.49041
-3.5574
-3.62446
-3.69156
-3.75874
-3.82594
-3.89319
-3.9605
-4.02781
-4.09518
-4.16258
-4.22999
-4.29742
-4.36485
-4.43231
-4.49975
-4.56719
-4.63462
-4.70203
-4.76942
-4.83677
-4.90408
-4.97134
-5.03855
-5.10569
-5.17275
-5.23973
-5.30662
-5.37339
-5.44005
-5.50659
-5.57296
-5.63917
-5.70512
-5.77082
-5.8361
-5.90083
-5.9648
-6.02773
-6.08933
-6.1494
-6.20811
-6.26601
-6.32436
-6.3846
-6.44794
-6.5143
-6.58299
-6.65165
5.42587
5.38102
5.33518
5.28911
5.24459
5.20227
5.16196
5.12272
5.08343
5.04328
5.00177
4.95887
4.91466
4.86933
4.82309
4.77607
4.7284
4.68015
4.63136
4.58206
4.53229
4.48206
4.43139
4.38029
4.32879
4.27688
4.22459
4.17193
4.11892
4.06557
4.01188
3.95788
3.90356
3.84896
3.79408
3.73889
3.68345
3.62776
3.57182
3.51564
3.45924
3.4026
3.34575
3.2887
3.23145
3.17399
3.11635
3.05853
3.00053
2.94236
2.88402
2.82552
2.76687
2.70806
2.64912
2.59001
2.53078
2.47141
2.4119
2.35227
2.29251
2.23262
2.17263
2.11251
2.05227
1.99192
1.93147
1.8709
1.81024
1.74946
1.68859
1.62762
1.56655
1.50538
1.44413
1.38276
1.32132
1.25978
1.19815
1.13643
1.07463
1.01273
0.95075
0.888688
0.826534
0.764296
0.701979
0.639564
0.577086
0.51451
0.451855
0.389118
0.3263
0.263397
0.200418
0.137352
0.0742019
0.0109772
-0.0523331
-0.115729
-0.179206
-0.242771
-0.306419
-0.370148
-0.433969
-0.497871
-0.561854
-0.625928
-0.690083
-0.754324
-0.818652
-0.883068
-0.947553
-1.01214
-1.0768
-1.14155
-1.20639
-1.2713
-1.3363
-1.40138
-1.46655
-1.53179
-1.59712
-1.66253
-1.72802
-1.79361
-1.85926
-1.925
-1.99082
-2.05672
-2.12271
-2.18878
-2.25492
-2.32114
-2.38744
-2.45382
-2.52029
-2.58682
-2.65342
-2.72011
-2.78685
-2.85368
-2.92058
-2.98753
-3.05456
-3.12166
-3.18881
-3.25602
-3.32329
-3.39061
-3.45799
-3.52542
-3.59289
-3.66041
-3.72797
-3.79557
-3.86319
-3.93084
-3.99852
-4.06624
-4.13394
-4.20167
-4.26939
-4.33712
-4.40485
-4.47257
-4.54026
-4.60792
-4.67556
-4.74316
-4.81071
-4.87821
-4.94565
-5.01302
-5.08031
-5.14752
-5.21462
-5.28162
-5.3485
-5.41525
-5.48184
-5.5483
-5.61455
-5.68057
-5.74632
-5.8117
-5.87658
-5.94078
-6.00406
-6.06614
-6.12686
-6.18613
-6.24439
-6.30242
-6.36167
-6.42325
-6.48815
-6.55552
-6.6244
-6.69285
5.45152
5.40809
5.36309
5.31698
5.2718
5.22845
5.18725
5.14756
5.10839
5.06879
5.0281
4.98607
4.94267
4.89808
4.85246
4.80598
4.75877
4.71092
4.66248
4.61352
4.56405
4.5141
4.46366
4.41279
4.36148
4.30976
4.25762
4.20509
4.1522
4.09893
4.04531
3.99136
3.93707
3.88247
3.82756
3.77235
3.71685
3.66109
3.60506
3.54876
3.49221
3.43543
3.37841
3.32116
3.26369
3.206
3.14812
3.09004
3.03175
2.97329
2.91464
2.85581
2.7968
2.73764
2.67832
2.61882
2.55918
2.49938
2.43945
2.37937
2.31914
2.25879
2.19829
2.13767
2.07691
2.01604
1.95504
1.89393
1.8327
1.77135
1.70989
1.64832
1.58665
1.52487
1.46297
1.40099
1.33889
1.2767
1.21441
1.15202
1.08954
1.02695
0.964282
0.901511
0.838657
0.775699
0.712661
0.64953
0.586306
0.522999
0.459602
0.396117
0.33255
0.268886
0.205152
0.141318
0.0774064
0.0134059
-0.0506769
-0.114849
-0.179104
-0.243449
-0.307879
-0.372398
-0.436998
-0.501693
-0.566457
-0.631322
-0.696262
-0.761292
-0.826405
-0.8916
-0.956884
-1.02225
-1.08769
-1.15322
-1.21882
-1.28452
-1.35028
-1.41613
-1.48206
-1.54806
-1.61415
-1.68031
-1.74655
-1.81286
-1.87926
-1.94573
-2.01227
-2.07889
-2.14558
-2.21235
-2.27919
-2.3461
-2.41308
-2.48013
-2.54726
-2.61444
-2.68169
-2.749
-2.81638
-2.88382
-2.95131
-3.01886
-3.08646
-3.15413
-3.22184
-3.28958
-3.35739
-3.42523
-3.4931
-3.56102
-3.62897
-3.69693
-3.76494
-3.83297
-3.90101
-3.96906
-4.03711
-4.10517
-4.17324
-4.24129
-4.30932
-4.37733
-4.44533
-4.5133
-4.58123
-4.64911
-4.71694
-4.7847
-4.85241
-4.92004
-4.98759
-5.05505
-5.12241
-5.18965
-5.25677
-5.32377
-5.39063
-5.45731
-5.52384
-5.59015
-5.65625
-5.72206
-5.78753
-5.85253
-5.91693
-5.98051
-6.04305
-6.10429
-6.16416
-6.22283
-6.28094
-6.33949
-6.39986
-6.46292
-6.52907
-6.59713
-6.66583
-6.73349
5.47615
5.43445
5.39066
5.34495
5.2995
5.25526
5.21313
5.17276
5.13343
5.09414
5.05411
5.01289
4.97035
4.92654
4.88162
4.83573
4.78902
4.74161
4.69358
4.64497
4.59583
4.54616
4.49601
4.44538
4.3943
4.34277
4.29082
4.23845
4.18568
4.13253
4.07899
4.02511
3.97087
3.91628
3.86137
3.80614
3.75061
3.69479
3.63867
3.58227
3.52561
3.46867
3.4115
3.35407
3.2964
3.23849
3.18037
3.12203
3.06348
3.00472
2.94577
2.88661
2.82728
2.76775
2.70805
2.64817
2.58812
2.5279
2.46754
2.407
2.34631
2.28548
2.22449
2.16336
2.10209
2.04069
1.97914
1.91747
1.85567
1.79375
1.73169
1.66951
1.60722
1.54481
1.48229
1.41965
1.3569
1.29405
1.23108
1.168
1.10483
1.04154
0.978167
0.914677
0.851097
0.787418
0.723636
0.659766
0.595799
0.531728
0.467582
0.403321
0.338989
0.274553
0.210034
0.145418
0.0807258
0.0159316
-0.0489396
-0.113908
-0.17896
-0.244107
-0.309335
-0.374663
-0.440063
-0.505562
-0.57114
-0.636811
-0.702552
-0.7684
-0.834307
-0.900316
-0.966397
-1.03256
-1.09881
-1.16513
-1.23153
-1.29801
-1.36456
-1.4312
-1.4979
-1.56468
-1.63154
-1.69846
-1.76547
-1.83254
-1.89968
-1.96689
-2.03417
-2.10152
-2.16894
-2.23642
-2.30396
-2.37157
-2.43924
-2.50698
-2.57476
-2.64261
-2.71051
-2.77846
-2.84647
-2.91453
-2.98262
-3.05077
-3.11896
-3.18719
-3.25545
-3.32375
-3.39207
-3.46043
-3.5288
-3.59721
-3.66561
-3.73405
-3.80249
-3.87093
-3.93939
-4.00782
-4.07625
-4.14466
-4.21305
-4.28142
-4.34976
-4.41805
-4.4863
-4.5545
-4.62265
-4.69073
-4.75874
-4.82666
-4.89451
-4.96225
-5.02989
-5.09742
-5.16481
-5.23208
-5.29921
-5.36617
-5.43297
-5.49958
-5.56598
-5.63214
-5.69803
-5.76358
-5.82872
-5.89328
-5.9571
-6.02
-6.08172
-6.14216
-6.20135
-6.25966
-6.31796
-6.37733
-6.43897
-6.50345
-6.57049
-6.63883
-6.707
-6.77358
5.49957
5.45981
5.41763
5.37279
5.32745
5.28266
5.2396
5.19844
5.15869
5.11946
5.0799
5.03942
4.99769
4.9547
4.9105
4.86527
4.81913
4.77222
4.72462
4.67641
4.62761
4.57828
4.52843
4.47807
4.42723
4.37592
4.32417
4.27198
4.21936
4.16635
4.11292
4.0591
4.00494
3.95039
3.8955
3.84028
3.78473
3.72886
3.67267
3.61619
3.55941
3.50235
3.44503
3.38743
3.32957
3.27146
3.21311
3.15453
3.09572
3.03667
2.97742
2.91794
2.85827
2.79839
2.73832
2.67806
2.61761
2.55699
2.49618
2.43519
2.37404
2.31272
2.25124
2.18961
2.12781
2.06587
2.00378
1.94154
1.87916
1.81664
1.75399
1.6912
1.62828
1.56524
1.50207
1.43877
1.37536
1.31182
1.24816
1.1844
1.12052
1.05652
0.992417
0.928196
0.863882
0.799453
0.734919
0.670293
0.60555
0.54072
0.475785
0.410748
0.345621
0.280398
0.215076
0.149667
0.0841628
0.0185682
-0.04712
-0.112905
-0.178773
-0.244741
-0.310797
-0.37694
-0.443173
-0.50949
-0.5759
-0.642392
-0.708967
-0.775633
-0.842378
-0.909198
-0.976112
-1.04309
-1.11015
-1.1773
-1.2445
-1.3118
-1.37915
-1.44659
-1.5141
-1.58166
-1.64931
-1.71702
-1.78479
-1.85263
-1.92054
-1.98851
-2.05654
-2.12463
-2.19278
-2.26099
-2.32926
-2.39758
-2.46594
-2.53437
-2.60284
-2.67135
-2.73991
-2.80851
-2.87715
-2.94583
-3.01454
-3.08328
-3.15205
-3.22085
-3.28967
-3.35851
-3.42736
-3.49624
-3.56511
-3.634
-3.70287
-3.77175
-3.84062
-3.90949
-3.97833
-4.04716
-4.11594
-4.1847
-4.25342
-4.32208
-4.39071
-4.45927
-4.52776
-4.59619
-4.66453
-4.73281
-4.80096
-4.86905
-4.93701
-5.00483
-5.07254
-5.14012
-5.20754
-5.27481
-5.34191
-5.40883
-5.47554
-5.54202
-5.60828
-5.67425
-5.73989
-5.80512
-5.86984
-5.93388
-5.9971
-6.05924
-6.12019
-6.17988
-6.23857
-6.29682
-6.35562
-6.41602
-6.47903
-6.54464
-6.61223
-6.68035
-6.74759
-6.81298
5.52153
5.48407
5.44383
5.40024
5.35544
5.31039
5.26665
5.22465
5.1843
5.14489
5.10559
5.06569
5.02473
4.98253
4.93912
4.89457
4.84906
4.80269
4.75559
4.7078
4.65939
4.6104
4.56088
4.51081
4.46025
4.40919
4.35766
4.30566
4.25323
4.20036
4.14707
4.09338
4.03927
3.9848
3.92994
3.87474
3.81918
3.76328
3.70705
3.6505
3.59363
3.53646
3.479
3.42125
3.36321
3.30491
3.24635
3.18753
3.12847
3.06915
3.0096
2.94982
2.88981
2.82959
2.76916
2.70851
2.64767
2.58661
2.52538
2.46395
2.40233
2.34053
2.27855
2.2164
2.15408
2.0916
2.02895
1.96615
1.90318
1.84007
1.77681
1.7134
1.64985
1.58616
1.52233
1.45837
1.39427
1.33005
1.26569
1.20122
1.13661
1.07189
1.00704
0.942091
0.877005
0.811823
0.746517
0.681113
0.615588
0.549966
0.484235
0.418398
0.352464
0.286424
0.220294
0.154062
0.0877284
0.0212985
-0.045211
-0.111837
-0.178542
-0.245357
-0.312244
-0.379239
-0.446322
-0.513488
-0.580737
-0.648082
-0.715505
-0.783016
-0.850606
-0.918272
-0.986027
-1.05385
-1.12175
-1.18972
-1.25778
-1.32588
-1.39407
-1.46232
-1.53064
-1.59902
-1.66747
-1.73597
-1.80455
-1.87317
-1.94185
-2.01059
-2.07939
-2.14824
-2.21714
-2.28608
-2.35508
-2.42412
-2.4932
-2.56231
-2.63148
-2.70067
-2.76989
-2.83915
-2.90843
-2.97774
-3.04706
-3.11641
-3.18576
-3.25514
-3.32451
-3.39389
-3.46329
-3.53266
-3.60203
-3.6714
-3.74074
-3.81006
-3.87936
-3.94862
-4.01787
-4.08705
-4.1562
-4.22528
-4.29432
-4.36328
-4.43217
-4.50098
-4.56971
-4.63834
-4.70688
-4.7753
-4.84363
-4.91181
-4.97987
-5.04778
-5.11553
-5.18314
-5.25056
-5.31781
-5.38485
-5.45169
-5.51828
-5.58463
-5.6507
-5.71644
-5.78176
-5.84661
-5.91086
-5.97434
-6.03686
-6.09826
-6.15847
-6.21756
-6.27598
-6.33446
-6.39401
-6.45559
-6.51977
-6.58628
-6.65404
-6.72158
-6.78756
-6.85129
5.54203
5.50705
5.46898
5.42704
5.38319
5.33835
5.29417
5.2514
5.21035
5.17056
5.1313
5.09178
5.05149
5.01007
4.96742
4.92363
4.87878
4.83302
4.78643
4.73911
4.69113
4.64254
4.59336
4.54362
4.49335
4.44258
4.39129
4.33952
4.28728
4.23458
4.18145
4.12788
4.07389
4.01949
3.9647
3.90953
3.85399
3.79808
3.74182
3.68521
3.62826
3.571
3.51342
3.45553
3.39733
3.33885
3.28009
3.22104
3.16173
3.10215
3.04233
2.98224
2.92192
2.86136
2.80056
2.73954
2.67829
2.61683
2.55516
2.49328
2.4312
2.36891
2.30644
2.24378
2.18094
2.1179
2.05469
1.99131
1.92777
1.86405
1.80017
1.73614
1.67194
1.60759
1.5431
1.47846
1.41366
1.34874
1.28368
1.21847
1.15313
1.08767
1.02207
0.956352
0.890501
0.824535
0.758448
0.692238
0.625925
0.559479
0.492941
0.426284
0.359521
0.292651
0.225679
0.158601
0.091425
0.024152
-0.0432196
-0.110701
-0.178265
-0.245941
-0.313702
-0.381556
-0.449504
-0.517543
-0.585666
-0.653878
-0.722172
-0.790551
-0.859
-0.927547
-0.996152
-1.06484
-1.1336
-1.20243
-1.27133
-1.34028
-1.40933
-1.4784
-1.54756
-1.61677
-1.68603
-1.75536
-1.82474
-1.89417
-1.96364
-2.03317
-2.10275
-2.17236
-2.24203
-2.31172
-2.38145
-2.45122
-2.52102
-2.59086
-2.66071
-2.73058
-2.80048
-2.8704
-2.94033
-3.01027
-3.08021
-3.15016
-3.22011
-3.29005
-3.36
-3.42992
-3.49983
-3.56972
-3.63958
-3.70942
-3.77922
-3.84898
-3.91869
-3.98837
-4.05798
-4.12754
-4.19702
-4.26643
-4.33577
-4.40501
-4.47416
-4.54322
-4.61215
-4.68098
-4.74968
-4.81826
-4.8867
-4.95499
-5.02312
-5.09109
-5.15888
-5.22648
-5.29389
-5.36107
-5.42804
-5.49477
-5.56123
-5.62739
-5.69322
-5.75866
-5.82365
-5.88805
-5.95176
-6.01459
-6.07643
-6.1371
-6.19664
-6.25535
-6.31375
-6.37271
-6.43321
-6.49597
-6.56118
-6.62812
-6.69564
-6.7622
-6.82674
-6.88862
5.56099
5.52854
5.49292
5.45293
5.41049
5.36623
5.32199
5.27863
5.2369
5.19657
5.15713
5.11784
5.07804
5.03731
4.99544
4.95242
4.90828
4.86315
4.81713
4.77033
4.72282
4.67464
4.62585
4.57647
4.52653
4.47605
4.42504
4.37351
4.32149
4.269
4.21604
4.16262
4.10876
4.05448
3.99976
3.94465
3.88914
3.83324
3.77696
3.72032
3.66331
3.60597
3.54828
3.49027
3.43193
3.37328
3.31432
3.25507
3.19553
3.1357
3.07559
3.01522
2.95458
2.89368
2.83253
2.77114
2.7095
2.64764
2.58553
2.52321
2.46066
2.3979
2.33493
2.27175
2.20837
2.14479
2.08102
2.01706
1.95292
1.88859
1.82409
1.75941
1.69457
1.62955
1.56438
1.49905
1.43356
1.36791
1.30212
1.23618
1.1701
1.10387
1.0375
0.970999
0.904368
0.8376
0.770709
0.703692
0.636547
0.569287
0.501906
0.434406
0.366798
0.29907
0.231244
0.163299
0.0952621
0.0271113
-0.0411365
-0.109496
-0.177943
-0.246502
-0.315151
-0.383901
-0.452732
-0.521667
-0.590678
-0.659787
-0.728969
-0.798241
-0.867587
-0.937007
-1.00651
-1.07607
-1.14571
-1.21542
-1.28518
-1.35502
-1.42491
-1.49486
-1.56486
-1.63492
-1.70502
-1.77519
-1.84539
-1.91563
-1.98592
-2.05626
-2.12662
-2.19702
-2.26745
-2.33792
-2.4084
-2.47891
-2.54944
-2.61999
-2.69055
-2.76112
-2.8317
-2.90227
-2.97286
-3.04343
-3.11401
-3.18456
-3.2551
-3.32562
-3.39611
-3.46658
-3.53702
-3.60741
-3.67777
-3.74807
-3.81832
-3.88851
-3.95865
-4.02871
-4.0987
-4.1686
-4.23842
-4.30813
-4.37776
-4.44727
-4.51667
-4.58594
-4.65508
-4.72408
-4.79295
-4.86165
-4.93019
-4.99857
-5.06675
-5.13474
-5.20254
-5.27013
-5.33748
-5.40459
-5.47144
-5.53804
-5.60431
-5.67025
-5.73581
-5.80092
-5.86548
-5.9294
-5.99253
-6.05469
-6.1158
-6.1758
-6.23486
-6.29335
-6.352
-6.41168
-6.47319
-6.53703
-6.60293
-6.67
-6.73679
-6.80209
-6.86482
-6.92479
5.57829
5.54854
5.5155
5.47771
5.43704
5.39384
5.34989
5.30625
5.2639
5.22298
5.18321
5.14393
5.10448
5.06434
5.0232
4.98093
4.93752
4.89308