/*--------------------------------*- C++ -*----------------------------------*\
  =========                 |
  \\      /  F ield         | OpenFOAM: The Open Source CFD Toolbox
   \\    /   O peration     | Website:  https://openfoam.org
    \\  /    A nd           | Version:  9
     \\/     M anipulation  |
\*---------------------------------------------------------------------------*/
FoamFile
{
    format      ascii;
    class       volScalarField;
    location    "0.008099";
    object      alphat;
}
// * * * * * * * * * * * * * * * * * * * * * * * * * * * * * * * * * * * * * //

dimensions      [1 -1 -1 0 0 0 0];

internalField   nonuniform List<scalar> 
6352
(
0.00125236
0.000147507
2.38998e-05
6.38254e-06
2.67139e-06
1.48659e-06
1.48782e-06
1.54279e-06
1.38529e-06
1.12788e-06
8.81235e-07
7.07824e-07
6.05187e-07
5.55201e-07
6.01149e-07
6.4083e-07
6.60038e-07
1.44987e-06
0.00359454
0.000892207
0.000461532
0.000308989
0.000232228
0.000186319
0.000190133
0.000193368
0.000184714
0.000169133
0.000151309
0.000135388
0.000122689
0.000113028
0.000106273
0.000101137
9.58376e-05
8.87003e-05
0.00572667
0.00169771
0.000900332
0.000603269
0.000453968
0.000361398
0.000307199
0.000285562
0.000260632
0.00023479
0.000209474
0.000188055
0.000171287
0.000158374
0.000148696
0.000141003
0.000133519
0.000124883
0.000114215
0.00767072
0.0025831
0.00136548
0.000900544
0.000664495
0.000517997
0.000417243
0.000355595
0.00030728
0.000267248
0.000233846
0.000209479
0.000192454
0.000180569
0.00017319
0.00016918
0.000166389
0.000162815
0.000156645
0.00942697
0.00348054
0.00183754
0.00119537
0.000865192
0.000659322
0.000514041
0.000416076
0.000346211
0.00029416
0.000255439
0.00023494
0.000224183
0.000215293
0.000207152
0.000200636
0.000195316
0.000189669
0.000182886
0.000177215
0.0109896
0.00434957
0.00229982
0.00147892
0.00105071
0.000781943
0.000604856
0.000486253
0.000404302
0.000345543
0.000302087
0.00027705
0.000260448
0.000245835
0.000232285
0.000221505
0.000213086
0.000206125
0.000199724
0.000194547
0.0123481
0.00515798
0.00273744
0.00174216
0.00121463
0.000897432
0.000695284
0.000561969
0.000470788
0.000405082
0.000354661
0.000318481
0.000289274
0.000266231
0.000248816
0.000236924
0.000228158
0.000220627
0.000213699
0.00020721
0.013486
0.0058725
0.00313598
0.0019752
0.00136393
0.00100653
0.00078278
0.000636218
0.000535433
0.00046101
0.000401326
0.000354292
0.000317159
0.000288057
0.000266522
0.000252416
0.000241232
0.000230687
0.000221409
0.000213526
0.0143781
0.00646274
0.00348067
0.00217337
0.00149584
0.00110454
0.000861159
0.000701676
0.000590759
0.000506076
0.000439291
0.000386652
0.000345162
0.000312184
0.000286027
0.000264435
0.000246095
0.000231945
0.000221304
0.000212798
0.0149816
0.00689795
0.00373341
0.00231092
0.00158722
0.00117376
0.000917281
0.000748622
0.000627173
0.000535446
0.000464923
0.000409493
0.000365322
0.000328651
0.000297549
0.000271248
0.000249364
0.000231669
0.000218757
0.000207783
0.0150836
0.00694313
0.00373841
0.00231019
0.00158996
0.00117642
0.000917939
0.000747698
0.000625939
0.000534441
0.000464243
0.000408431
0.000363501
0.000326645
0.000295792
0.000268874
0.000246405
0.00022758
0.000212334
0.000199506
0.0148666
0.00680094
0.0036591
0.00225732
0.00155243
0.00115022
0.000897005
0.000729022
0.000610386
0.000520844
0.000451799
0.000397345
0.000353049
0.000316437
0.000285731
0.000259644
0.000237231
0.000217929
0.000201825
0.000188241
0.0144251
0.00651183
0.00350396
0.00215699
0.00148022
0.00109746
0.000856454
0.000694335
0.000580113
0.00049552
0.000429305
0.000376718
0.000334093
0.000299285
0.00026922
0.000243824
0.000222315
0.000204071
0.000188634
0.000175522
0.0136879
0.00608582
0.00327871
0.00201477
0.00137667
0.00101873
0.000797223
0.000645935
0.000538019
0.000458372
0.000397187
0.000348338
0.000307662
0.000274074
0.000245866
0.000222572
0.000203118
0.00018625
0.000171342
0.000159517
0.0126631
0.00547948
0.00297794
0.00183541
0.00124598
0.000914621
0.000712984
0.000579711
0.000482777
0.000409004
0.000351662
0.000306645
0.000270817
0.000240834
0.000214219
0.000192454
0.000175427
0.000161617
0.000151612
0.000146224
0.0113401
0.00469296
0.00256146
0.00160217
0.00108613
0.000788925
0.000607438
0.000489878
0.000408109
0.000347739
0.000296988
0.000255322
0.000223006
0.000196442
0.000174629
0.00015927
0.000149057
0.000142095
0.000135266
0.000128307
0.00968728
0.00373103
0.00203904
0.0013035
0.000902169
0.00065328
0.000494331
0.000389118
0.000316655
0.000264826
0.00022484
0.000193566
0.000175102
0.000154397
0.000135823
0.000121587
0.00011307
0.000109504
0.000106739
0.00010879
0.00764684
0.00261922
0.00143425
0.000938384
0.000672368
0.000505919
0.000384997
0.0002974
0.00023284
0.000183311
0.000144749
0.00011577
9.79256e-05
9.36891e-05
9.39407e-05
9.22116e-05
8.94658e-05
8.67995e-05
8.51727e-05
8.56104e-05
0.0051201
0.00149682
0.000792642
0.000529972
0.000392187
0.000304089
0.0002376
0.000202918
0.000173988
0.000142384
0.000112966
8.92331e-05
7.22717e-05
6.31628e-05
5.83167e-05
5.34228e-05
4.83456e-05
4.1776e-05
3.57273e-05
4.69858e-05
0.00193954
0.000329026
0.000107583
3.84378e-05
1.54244e-05
7.02124e-06
3.42724e-06
2.13348e-06
1.44635e-06
9.43214e-07
6.23082e-07
7.45702e-07
5.64217e-07
5.93792e-07
6.24349e-07
6.30773e-07
1.30494e-06
1.44905e-06
5.00552e-07
5.55119e-07
0.000203909
0.000208658
0.000203884
0.000206437
0.000200383
0.000194497
0.000199627
0.000192779
0.000184831
0.000189424
0.000180141
0.000170961
0.000162084
0.000176947
0.000166551
0.000157006
0.000148473
0.000163997
0.000153585
0.000144728
0.000137386
0.000132166
0.000149124
0.000140621
0.000135028
0.000130677
0.000127052
0.000124034
0.000139652
0.000133326
0.000128211
0.000124119
0.000120715
0.000117755
0.000123154
0.000119481
0.000116518
0.000113926
0.000111493
0.00010907
0.000108057
0.000106467
0.000104515
0.00010228
9.97091e-05
9.67803e-05
9.34846e-05
8.22919e-05
8.11907e-05
8.00814e-05
7.84048e-05
7.60929e-05
7.342e-05
7.02679e-05
5.61736e-05
5.89813e-05
5.87474e-05
5.71492e-05
5.46619e-05
5.26519e-05
4.88725e-05
4.59983e-05
6.54397e-07
6.76524e-07
6.44746e-07
5.9417e-07
5.34347e-07
9.62435e-07
3.99513e-07
3.68346e-07
0.0163538
0.0163538
0.0163538
0.0163538
0.0163537
0.0163537
0.0163536
0.0163536
0.0163535
0.0163535
0.0163534
0.0163534
0.0163533
0.0163532
0.0163532
0.0163531
0.016353
0.016353
0.0163529
0.0163529
0.0163528
0.0163527
0.0163527
0.0163526
0.0163525
0.0163525
0.0163524
0.0163523
0.0163522
0.0163522
0.0163521
0.016352
0.016352
0.0163519
0.0163518
0.0163518
0.0163517
0.0163516
0.0163516
0.0163515
0.0163514
0.0163513
0.0163513
0.0163512
0.0163511
0.0163511
0.016351
0.0163509
0.0163508
0.0163508
0.0163507
0.0163506
0.0163506
0.0163505
0.0163504
0.0163503
0.0163503
0.0163502
0.0163501
0.01635
0.01635
0.0163373
0.0163374
0.0163375
0.0163376
0.0163377
0.0163378
0.0163379
0.016338
0.0163381
0.0163381
0.0163382
0.0163383
0.0163383
0.0163384
0.0163384
0.0163384
0.0163384
0.0163384
0.0163384
0.0163384
0.0163384
0.0163383
0.0163382
0.0163381
0.016338
0.0163379
0.0163379
0.0163378
0.0163379
0.0163379
0.0163379
0.0163379
0.0163379
0.0163379
0.0163379
0.0163379
0.0163379
0.016338
0.016338
0.016338
0.016338
0.016338
0.016338
0.016338
0.016338
0.0163381
0.0163381
0.0163381
0.0163381
0.0163381
0.0163381
0.0163381
0.0163381
0.0163382
0.0163382
0.0163382
0.0163382
0.0163382
0.0163382
0.0163382
0.0163383
0.0163224
0.0163224
0.0163225
0.0163225
0.0163226
0.0163226
0.0163227
0.0163227
0.0163228
0.0163228
0.0163229
0.0163229
0.016323
0.016323
0.0163231
0.0163231
0.0163231
0.0163232
0.0163232
0.0163232
0.0163232
0.0163232
0.0163232
0.0163232
0.0163231
0.016323
0.0163228
0.0163227
0.0163225
0.0163224
0.0163222
0.016322
0.0163219
0.0163217
0.0163216
0.0163214
0.0163213
0.0163211
0.0163209
0.0163208
0.0163206
0.0163205
0.0163203
0.0163202
0.01632
0.0163199
0.0163197
0.0163195
0.0163194
0.0163192
0.0163191
0.0163189
0.0163188
0.0163186
0.0163184
0.0163183
0.0163181
0.016318
0.0163178
0.0163177
0.0163175
0.0163002
0.0163003
0.0163004
0.0163005
0.0163006
0.0163007
0.0163008
0.016301
0.0163011
0.0163012
0.0163013
0.0163014
0.0163015
0.0163016
0.0163017
0.0163017
0.0163018
0.0163019
0.016302
0.016302
0.0163021
0.0163021
0.0163022
0.0163022
0.0163022
0.0163022
0.0163022
0.0163021
0.0163019
0.0163017
0.0163015
0.0163012
0.016301
0.0163008
0.0163006
0.0163004
0.0163002
0.0163
0.0162998
0.0162995
0.0162993
0.0162991
0.0162989
0.0162987
0.0162985
0.0162983
0.0162981
0.0162979
0.0162976
0.0162975
0.0162973
0.0162972
0.0162972
0.0162972
0.0162973
0.0162973
0.0162974
0.0162974
0.0162975
0.0162975
0.0162976
0.0162639
0.0162641
0.0162643
0.0162644
0.0162646
0.0162648
0.0162649
0.0162651
0.0162653
0.0162654
0.0162656
0.0162658
0.0162659
0.0162661
0.0162663
0.0162664
0.0162666
0.0162668
0.0162669
0.0162671
0.0162673
0.0162674
0.0162676
0.0162678
0.0162679
0.0162681
0.0162683
0.0162684
0.0162686
0.0162687
0.0162689
0.0162691
0.0162692
0.0162694
0.0162695
0.0162697
0.0162699
0.01627
0.0162702
0.0162703
0.0162705
0.0162707
0.0162708
0.016271
0.0162711
0.0162713
0.0162714
0.0162716
0.0162717
0.0162719
0.016272
0.0162722
0.0162723
0.0162725
0.0162726
0.0162728
0.0162729
0.0162731
0.0162732
0.0162734
0.0162735
0.0162343
0.0162344
0.0162345
0.0162346
0.0162347
0.0162348
0.0162349
0.016235
0.0162352
0.0162353
0.0162354
0.0162355
0.0162357
0.0162358
0.016236
0.0162361
0.0162362
0.0162364
0.0162365
0.0162367
0.0162368
0.0162369
0.0162371
0.0162372
0.0162374
0.0162375
0.0162377
0.0162378
0.016238
0.0162381
0.0162382
0.0162384
0.0162385
0.0162387
0.0162388
0.016239
0.0162391
0.0162392
0.0162394
0.0162395
0.0162397
0.0162398
0.0162399
0.0162401
0.0162402
0.0162403
0.0162405
0.0162406
0.0162407
0.0162409
0.016241
0.0162411
0.0162412
0.0162414
0.0162415
0.0162416
0.0162417
0.0162418
0.016242
0.0162421
0.0162422
0.0162078
0.0162073
0.0162069
0.0162064
0.0162059
0.0162054
0.0162049
0.0162045
0.016204
0.0162035
0.016203
0.0162025
0.0162021
0.0162016
0.0162011
0.0162006
0.0162001
0.0161996
0.0161991
0.0161987
0.0161982
0.0161977
0.0161972
0.0161967
0.0161962
0.0161958
0.0161953
0.0161948
0.0161943
0.0161938
0.0161933
0.0161928
0.0161923
0.0161919
0.0161914
0.0161909
0.0161904
0.0161899
0.0161894
0.0161889
0.0161884
0.0161879
0.0161874
0.016187
0.0161865
0.016186
0.0161855
0.016185
0.0161845
0.016184
0.0161835
0.016183
0.0161825
0.016182
0.0161815
0.016181
0.0161806
0.0161801
0.0161796
0.0161791
0.0161786
0.0161765
0.0161758
0.0161752
0.0161745
0.0161739
0.0161732
0.0161726
0.0161719
0.0161713
0.0161706
0.01617
0.0161693
0.0161686
0.016168
0.0161673
0.0161667
0.016166
0.0161654
0.0161647
0.016164
0.0161634
0.0161627
0.0161621
0.0161614
0.0161607
0.0161601
0.0161594
0.0161587
0.0161581
0.0161574
0.0161567
0.0161561
0.0161554
0.0161547
0.0161541
0.0161534
0.0161527
0.0161521
0.0161514
0.0161507
0.01615
0.0161494
0.0161487
0.016148
0.0161474
0.0161467
0.016146
0.0161453
0.0161446
0.016144
0.0161433
0.0161426
0.0161419
0.0161413
0.0161406
0.0161399
0.0161392
0.0161385
0.0161378
0.0161372
0.0161365
0.016141
0.0161401
0.0161392
0.0161383
0.0161375
0.0161366
0.0161357
0.0161348
0.0161339
0.0161331
0.0161322
0.0161313
0.0161304
0.0161295
0.0161287
0.0161278
0.0161269
0.016126
0.0161251
0.0161242
0.0161233
0.0161224
0.0161215
0.0161206
0.0161197
0.0161188
0.0161179
0.016117
0.0161161
0.0161152
0.0161143
0.0161134
0.0161125
0.0161116
0.0161107
0.0161098
0.0161089
0.016108
0.0161071
0.0161061
0.0161052
0.0161043
0.0161034
0.0161025
0.0161016
0.0161006
0.0160997
0.0160988
0.0160979
0.016097
0.016096
0.0160951
0.0160942
0.0160933
0.0160923
0.0160914
0.0160905
0.0160895
0.0160886
0.0160877
0.0160867
0.0160858
0.0160994
0.0160982
0.016097
0.0160958
0.0160947
0.0160935
0.0160923
0.0160911
0.0160899
0.0160887
0.0160875
0.0160863
0.0160851
0.0160839
0.0160827
0.0160815
0.0160803
0.0160791
0.0160779
0.0160767
0.0160755
0.0160743
0.0160731
0.0160719
0.0160706
0.0160694
0.0160682
0.016067
0.0160658
0.0160645
0.0160633
0.0160621
0.0160608
0.0160596
0.0160584
0.0160571
0.0160559
0.0160547
0.0160534
0.0160522
0.0160509
0.0160497
0.0160484
0.0160472
0.0160459
0.0160447
0.0160434
0.0160422
0.0160409
0.0160397
0.0160384
0.0160371
0.0160359
0.0160346
0.0160333
0.0160321
0.0160308
0.0160295
0.0160283
0.016027
0.0160257
0.0160244
0.0160512
0.0160496
0.016048
0.0160464
0.0160448
0.0160432
0.0160416
0.01604
0.0160384
0.0160368
0.0160352
0.0160336
0.0160319
0.0160303
0.0160287
0.0160271
0.0160254
0.0160238
0.0160221
0.0160205
0.0160189
0.0160172
0.0160156
0.0160139
0.0160122
0.0160106
0.0160089
0.0160073
0.0160056
0.0160039
0.0160022
0.0160006
0.0159989
0.0159972
0.0159955
0.0159938
0.0159921
0.0159904
0.0159887
0.015987
0.0159853
0.0159836
0.0159819
0.0159802
0.0159785
0.0159768
0.0159751
0.0159733
0.0159716
0.0159699
0.0159682
0.0159664
0.0159647
0.015963
0.0159612
0.0159595
0.0159578
0.015956
0.0159543
0.0159525
0.0159508
0.015949
0.0159949
0.0159928
0.0159906
0.0159885
0.0159863
0.0159842
0.015982
0.0159798
0.0159776
0.0159754
0.0159733
0.0159711
0.0159689
0.0159667
0.0159644
0.0159622
0.01596
0.0159578
0.0159555
0.0159533
0.0159511
0.0159488
0.0159466
0.0159443
0.015942
0.0159398
0.0159375
0.0159352
0.0159329
0.0159306
0.0159284
0.0159261
0.0159237
0.0159214
0.0159191
0.0159168
0.0159145
0.0159122
0.0159098
0.0159075
0.0159052
0.0159028
0.0159005
0.0158981
0.0158958
0.0158934
0.015891
0.0158887
0.0158863
0.0158839
0.0158815
0.0158792
0.0158768
0.0158744
0.015872
0.0158696
0.0158672
0.0158648
0.0158624
0.01586
0.0158576
0.0158551
0.0159296
0.0159267
0.0159238
0.0159209
0.0159179
0.015915
0.0159121
0.0159091
0.0159062
0.0159032
0.0159002
0.0158972
0.0158942
0.0158912
0.0158882
0.0158852
0.0158822
0.0158791
0.0158761
0.015873
0.0158699
0.0158668
0.0158637
0.0158606
0.0158575
0.0158544
0.0158513
0.0158481
0.015845
0.0158418
0.0158387
0.0158355
0.0158323
0.0158291
0.0158259
0.0158227
0.0158195
0.0158163
0.0158131
0.0158098
0.0158066
0.0158033
0.0158001
0.0157968
0.0157935
0.0157903
0.015787
0.0157837
0.0157804
0.0157771
0.0157738
0.0157705
0.0157671
0.0157638
0.0157605
0.0157571
0.0157538
0.0157505
0.0157471
0.0157438
0.0157404
0.0157371
0.0158536
0.0158496
0.0158457
0.0158417
0.0158378
0.0158338
0.0158298
0.0158258
0.0158218
0.0158177
0.0158137
0.0158096
0.0158055
0.0158014
0.0157972
0.0157931
0.0157889
0.0157847
0.0157805
0.0157763
0.0157721
0.0157678
0.0157635
0.0157592
0.0157549
0.0157506
0.0157463
0.0157419
0.0157375
0.0157331
0.0157287
0.0157243
0.0157199
0.0157154
0.0157109
0.0157064
0.0157019
0.0156974
0.0156929
0.0156884
0.0156838
0.0156792
0.0156746
0.0156701
0.0156654
0.0156608
0.0156562
0.0156516
0.0156469
0.0156422
0.0156376
0.0156329
0.0156282
0.0156235
0.0156188
0.0156141
0.0156094
0.0156046
0.0155999
0.0155952
0.0155904
0.0155856
0.0157651
0.0157598
0.0157544
0.0157491
0.0157437
0.0157383
0.0157328
0.0157273
0.0157218
0.0157163
0.0157107
0.0157051
0.0156995
0.0156938
0.0156881
0.0156823
0.0156766
0.0156708
0.0156649
0.015659
0.0156531
0.0156472
0.0156412
0.0156352
0.0156291
0.0156231
0.0156169
0.0156108
0.0156046
0.0155984
0.0155922
0.0155859
0.0155796
0.0155732
0.0155668
0.0155604
0.015554
0.0155476
0.0155411
0.0155345
0.015528
0.0155214
0.0155148
0.0155082
0.0155016
0.0154949
0.0154882
0.0154815
0.0154748
0.015468
0.0154612
0.0154544
0.0154476
0.0154408
0.015434
0.0154271
0.0154203
0.0154134
0.0154066
0.0153997
0.0153927
0.0153858
0.015662
0.0156548
0.0156475
0.0156402
0.0156329
0.0156255
0.015618
0.0156105
0.0156029
0.0155953
0.0155876
0.0155798
0.015572
0.0155641
0.0155562
0.0155481
0.01554
0.0155319
0.0155237
0.0155154
0.015507
0.0154986
0.0154901
0.0154815
0.0154729
0.0154641
0.0154554
0.0154465
0.0154376
0.0154286
0.0154195
0.0154104
0.0154012
0.0153919
0.0153825
0.0153731
0.0153636
0.0153541
0.0153445
0.0153348
0.015325
0.0153152
0.0153054
0.0152954
0.0152854
0.0152754
0.0152653
0.0152552
0.015245
0.0152348
0.0152245
0.0152142
0.0152038
0.0151934
0.015183
0.0151726
0.0151621
0.0151516
0.0151411
0.0151306
0.01512
0.0151095
0.0155417
0.0155319
0.015522
0.0155121
0.015502
0.0154919
0.0154816
0.0154712
0.0154607
0.0154502
0.0154394
0.0154286
0.0154176
0.0154066
0.0153953
0.015384
0.0153725
0.0153609
0.0153491
0.0153372
0.0153252
0.0153129
0.0153006
0.0152881
0.0152754
0.0152626
0.0152496
0.0152364
0.0152231
0.0152096
0.015196
0.0151821
0.0151681
0.0151539
0.0151396
0.0151251
0.0151104
0.0150955
0.0150805
0.0150653
0.0150499
0.0150344
0.0150187
0.0150028
0.0149869
0.0149708
0.0149545
0.0149382
0.0149218
0.0149053
0.0148887
0.014872
0.0148553
0.0148386
0.0148219
0.0148052
0.0147885
0.0147718
0.0147552
0.0147387
0.0147223
0.0147059
0.0154012
0.0153879
0.0153745
0.0153608
0.0153471
0.0153331
0.0153189
0.0153046
0.01529
0.0152752
0.0152602
0.0152449
0.0152294
0.0152137
0.0151977
0.0151814
0.0151648
0.015148
0.0151308
0.0151133
0.0150955
0.0150774
0.015059
0.0150401
0.015021
0.0150014
0.0149814
0.0149611
0.0149403
0.0149191
0.0148975
0.0148754
0.0148529
0.0148299
0.0148064
0.0147825
0.0147581
0.0147333
0.0147081
0.0146825
0.0146564
0.0146301
0.0146034
0.0145764
0.0145493
0.0145219
0.0144945
0.014467
0.0144396
0.0144122
0.014385
0.014358
0.0143312
0.0143047
0.0142785
0.0142528
0.0142275
0.0142028
0.0141788
0.0141554
0.0141327
0.0141108
0.0152373
0.0152192
0.0152009
0.0151823
0.0151634
0.0151442
0.0151246
0.0151046
0.0150843
0.0150635
0.0150424
0.0150207
0.0149986
0.014976
0.0149529
0.0149292
0.0149049
0.01488
0.0148545
0.0148283
0.0148013
0.0147737
0.0147452
0.0147159
0.0146857
0.0146546
0.0146225
0.0145894
0.0145553
0.0145201
0.0144838
0.0144464
0.0144078
0.0143681
0.0143273
0.0142854
0.0142426
0.014199
0.0141546
0.0141097
0.0140644
0.0140189
0.0139733
0.013928
0.0138831
0.0138388
0.0137955
0.0137534
0.0137127
0.0136735
0.0136361
0.0136005
0.0135668
0.0135352
0.0135056
0.0134783
0.0134541
0.0134339
0.0134172
0.0134029
0.0133907
0.0133804
0.0150465
0.015022
0.0149972
0.0149719
0.014946
0.0149196
0.0148925
0.0148648
0.0148363
0.0148072
0.0147772
0.0147464
0.0147147
0.014682
0.0146482
0.0146134
0.0145773
0.01454
0.0145013
0.0144612
0.0144194
0.0143761
0.0143309
0.0142838
0.0142347
0.0141834
0.0141298
0.0140739
0.0140155
0.0139545
0.0138911
0.0138252
0.0137571
0.0136869
0.013615
0.0135419
0.013468
0.0133939
0.0133204
0.0132481
0.0131779
0.0131104
0.0130464
0.0129864
0.0129312
0.0128821
0.0128418
0.0128086
0.0127813
0.0127599
0.0127441
0.0127337
0.0127287
0.0127292
0.0127351
0.0127464
0.012763
0.0127842
0.0128094
0.012837
0.0128651
0.0128962
0.0148246
0.0147919
0.0147585
0.0147242
0.0146891
0.0146529
0.0146157
0.0145774
0.0145379
0.0144971
0.0144548
0.0144109
0.0143654
0.0143181
0.0142687
0.0142173
0.0141635
0.0141071
0.0140481
0.013986
0.0139207
0.0138519
0.0137792
0.0137025
0.0136215
0.0135358
0.0134454
0.01335
0.0132497
0.0131447
0.0130356
0.0129231
0.0128085
0.0126931
0.0125787
0.0124674
0.0123611
0.0122621
0.0121731
0.0120996
0.0120401
0.0119939
0.0119617
0.0119437
0.0119399
0.0119509
0.011977
0.0120182
0.0120738
0.0121423
0.012221
0.012308
0.012408
0.0125227
0.0126551
0.0127987
0.0129542
0.0131187
0.013289
0.0134645
0.0136443
0.0138276
0.0145689
0.0145254
0.0144808
0.0144349
0.0143875
0.0143386
0.014288
0.0142355
0.014181
0.0141243
0.0140651
0.0140033
0.0139385
0.0138705
0.013799
0.0137237
0.013644
0.0135598
0.0134704
0.0133754
0.0132742
0.0131664
0.0130514
0.0129286
0.0127976
0.012658
0.01251
0.012354
0.012191
0.012023
0.011853
0.0116853
0.0115244
0.011376
0.0112484
0.0111473
0.0110721
0.0110259
0.0110109
0.0110288
0.0110825
0.0111723
0.0112964
0.0114504
0.0116279
0.0118433
0.0120927
0.0123702
0.0126734
0.0129987
0.0133417
0.0137008
0.0140705
0.0144474
0.0148306
0.0152188
0.0156104
0.0160036
0.0163986
0.0167953
0.0171919
0.0175886
0.0142752
0.014218
0.0141592
0.0140984
0.0140355
0.0139702
0.0139023
0.0138315
0.0137575
0.01368
0.0135987
0.0135131
0.0134227
0.0133271
0.0132258
0.0131181
0.0130033
0.0128808
0.0127497
0.0126091
0.0124582
0.012296
0.0121216
0.0119344
0.0117339
0.0115208
0.0112964
0.0110643
0.0108304
0.0106028
0.0103929
0.0102191
0.0100859
0.0100032
0.00998039
0.0100232
0.0101379
0.0103236
0.0105745
0.0108812
0.0112693
0.0117201
0.0122234
0.0127607
0.013331
0.0139262
0.0145442
0.0151845
0.015843
0.0165164
0.0172014
0.0178912
0.0185771
0.019255
0.0199303
0.0205985
0.0212546
0.0218966
0.0225231
0.023133
0.0237253
0.0242987
0.0139395
0.0138654
0.013789
0.0137098
0.0136276
0.0135419
0.0134526
0.013359
0.0132608
0.0131575
0.0130486
0.0129334
0.0128112
0.0126814
0.012543
0.0123951
0.0122368
0.0120668
0.0118839
0.0116868
0.0114742
0.0112447
0.0109972
0.0107317
0.0104491
0.0101532
0.00985166
0.0095573
0.00929402
0.00908005
0.00893793
0.0088932
0.00896489
0.00916481
0.00949145
0.00992872
0.0105034
0.011179
0.0119283
0.0127509
0.0136348
0.0145636
0.0155216
0.0164918
0.0174641
0.0184309
0.0193856
0.0203232
0.0212393
0.0221305
0.0229942
0.0238284
0.0246313
0.0254018
0.0261396
0.0268448
0.0275177
0.0281586
0.0287679
0.0293459
0.0298932
0.0304098
0.0135585
0.0134623
0.0133647
0.0132636
0.0131583
0.0130486
0.0129338
0.0128135
0.012687
0.0125536
0.0124127
0.0122634
0.0121049
0.0119361
0.0117559
0.0115631
0.0113562
0.0111337
0.010894
0.0106351
0.0103554
0.0100534
0.00972866
0.00938317
0.00902331
0.00866273
0.0083273
0.0080426
0.00785411
0.00781307
0.00796013
0.00831643
0.00887814
0.0096354
0.0105657
0.0116183
0.0127697
0.0139811
0.0152239
0.0164747
0.0177161
0.018935
0.0201212
0.021267
0.0223671
0.0234181
0.0244181
0.0253665
0.0262635
0.0271102
0.0279079
0.0286583
0.0293632
0.0300248
0.0306452
0.0312262
0.0317698
0.0322775
0.032751
0.0331921
0.0336003
0.0339731
0.0131333
0.01301
0.0128841
0.0127566
0.0126252
0.0124881
0.0123448
0.0121946
0.0120369
0.0118708
0.0116955
0.0115102
0.0113137
0.0111048
0.0108822
0.0106445
0.0103898
0.0101164
0.00982201
0.00950452
0.00916191
0.00879319
0.00840036
0.00799234
0.00758925
0.00721221
0.00691513
0.00677726
0.00687982
0.0072773
0.00797686
0.00895461
0.010175
0.0115528
0.0130267
0.014541
0.0160547
0.0175386
0.0189722
0.020342
0.0216401
0.0228625
0.0240083
0.0250787
0.0260762
0.0270044
0.0278671
0.0286683
0.029412
0.0301015
0.0307401
0.0313305
0.0318755
0.0323788
0.0328435
0.0332717
0.0336644
0.0340218
0.0343439
0.0346301
0.0348811
0.0350994
0.0126618
0.0125083
0.0123515
0.0121913
0.0120289
0.011862
0.011688
0.0115064
0.0113163
0.0111171
0.0109078
0.0106875
0.0104551
0.0102093
0.00994863
0.00967146
0.00937587
0.00905969
0.00872053
0.00835592
0.00796391
0.00754493
0.00710693
0.0066705
0.00625789
0.00594137
0.0058383
0.00606142
0.00666686
0.00764944
0.00897956
0.0105471
0.0122563
0.014006
0.0157321
0.0173945
0.018969
0.0204436
0.0218139
0.0230809
0.0242485
0.0253218
0.0263067
0.0272094
0.0280364
0.0287936
0.0294867
0.0301208
0.0307003
0.0312292
0.0317106
0.0321471
0.0325412
0.032895
0.0332099
0.0334884
0.0337334
0.0339481
0.0341346
0.0342942
0.034427
0.0345333
0.0121434
0.0119563
0.0117658
0.0115717
0.0113741
0.0111744
0.0109693
0.0107565
0.0105353
0.010305
0.0100649
0.00981411
0.00955143
0.00927564
0.00898526
0.00867859
0.00835364
0.00800811
0.00763947
0.00724517
0.00682358
0.00637742
0.00592423
0.00548661
0.00512833
0.00499938
0.00526189
0.00595959
0.00706246
0.008568
0.0103385
0.012246
0.0141531
0.0159876
0.0177121
0.0193098
0.0207753
0.0221118
0.0233266
0.0244288
0.0254276
0.0263316
0.0271474
0.0278829
0.0285456
0.0291425
0.0296795
0.0301618
0.0305937
0.0309788
0.0313189
0.0316154
0.0318697
0.0320851
0.0322691
0.0324249
0.0325541
0.0326578
0.0327371
0.0327925
0.0328243
0.0328328
0.0115786
0.011355
0.0111289
0.0109
0.010668
0.0104333
0.0101981
0.0099562
0.00970724
0.00945059
0.00918554
0.0089112
0.00862656
0.00833038
0.00802122
0.00769739
0.00735696
0.00699767
0.00661705
0.00621263
0.00578319
0.00533356
0.00488967
0.00448842
0.00425991
0.00443839
0.00512635
0.00618893
0.00761026
0.0094175
0.0114081
0.0134058
0.0153105
0.0170774
0.0186932
0.0201581
0.0214738
0.0226515
0.0237048
0.0246466
0.025489
0.0262434
0.0269091
0.0274965
0.0280152
0.0284724
0.0288739
0.0292243
0.0295274
0.0297857
0.0300009
0.0301737
0.0303098
0.030417
0.0304965
0.0305496
0.0305773
0.0305806
0.0305599
0.030516
0.0304494
0.0303606
0.0109692
0.0107071
0.0104447
0.0101815
0.00991713
0.00965146
0.00938546
0.0091194
0.00884845
0.00857215
0.00828986
0.00800076
0.00770383
0.00739788
0.00708151
0.00675313
0.0064109
0.00605279
0.00567659
0.00528015
0.00486269
0.00443033
0.0040158
0.00368351
0.00364335
0.00417569
0.00519233
0.00639413
0.00793754
0.00983764
0.0118782
0.0138498
0.0156717
0.017323
0.0188077
0.0201415
0.0213129
0.0223423
0.0232493
0.0240483
0.0247513
0.0253679
0.0259056
0.0263721
0.0267747
0.0271195
0.0274117
0.0276554
0.0278538
0.0280092
0.0281229
0.0281975
0.0282415
0.0282558
0.0282409
0.0281976
0.0281262
0.0280272
0.0279009
0.027748
0.0275697
0.0273673
0.0103188
0.0100173
0.00971936
0.00942415
0.00913102
0.00883957
0.00855007
0.00826474
0.00797814
0.00768967
0.00739854
0.00710377
0.00680427
0.00649876
0.00618586
0.00586405
0.0055317
0.00518706
0.00482838
0.00445405
0.00406383
0.00366415
0.00329091
0.00304517
0.00321136
0.0040555
0.00524938
0.00639725
0.00785333
0.00975729
0.0117751
0.01367
0.0153856
0.0169142
0.0182666
0.0194575
0.0204991
0.0214073
0.0221975
0.0228836
0.0234772
0.0239883
0.0244254
0.0247959
0.0251065
0.0253626
0.0255689
0.0257291
0.025846
0.0259219
0.0259579
0.0259591
0.0259263
0.0258597
0.0257591
0.025624
0.0254538
0.0252474
0.0250042
0.0247242
0.0244086
0.0240611
0.00963219
0.00929215
0.00896114
0.00863795
0.00832149
0.00801089
0.00770585
0.00740805
0.00711355
0.00682123
0.00652992
0.00623834
0.00594518
0.00564904
0.00534849
0.00504208
0.00472837
0.00440599
0.00407371
0.00373068
0.00337737
0.00301995
0.00269146
0.00253166
0.00287755
0.00394942
0.00521619
0.00621747
0.00747062
0.00926341
0.0111686
0.0129679
0.0145857
0.016012
0.0172584
0.0183416
0.0192787
0.0200864
0.0207804
0.0213743
0.0218802
0.0223082
0.0226668
0.0229634
0.0232039
0.0233936
0.0235365
0.0236361
0.0236949
0.0237154
0.0236995
0.0236464
0.0235552
0.0234251
0.0232545
0.0230415
0.0227832
0.0224765
0.0221177
0.0217041
0.0212361
0.0207225
0.00891597
0.00853989
0.00818025
0.00783492
0.00750206
0.00718002
0.00686752
0.0065642
0.00627079
0.00598317
0.00569986
0.00541931
0.00513997
0.00486028
0.00457874
0.00429397
0.0040047
0.0037099
0.0034089
0.00310169
0.00278971
0.00247939
0.00220053
0.00210511
0.00257599
0.00379271
0.00503145
0.00584092
0.00683238
0.00845821
0.0102453
0.0119523
0.0134822
0.0148187
0.0159736
0.0169653
0.0178132
0.0185353
0.0191482
0.0196662
0.0201016
0.0204646
0.0207635
0.0210055
0.0211962
0.0213401
0.021441
0.0215017
0.0215247
0.0215118
0.0214653
0.0213825
0.0212576
0.0210896
0.0208762
0.0206142
0.0202992
0.0199262
0.0194893
0.0189835
0.0184084
0.0177802
0.00817788
0.00777032
0.00738834
0.0070283
0.00668709
0.006362
0.00605075
0.00575186
0.00546625
0.00519016
0.00492141
0.00465799
0.00439804
0.00413981
0.00388174
0.00362244
0.00336079
0.00309604
0.00282803
0.00255757
0.00228733
0.00202487
0.00179816
0.00173957
0.00226804
0.0035414
0.00472008
0.00536894
0.00608009
0.00748027
0.00913614
0.0107541
0.0122041
0.0134598
0.0145324
0.0154423
0.016211
0.0168583
0.0174018
0.0178568
0.0182355
0.0185483
0.0188034
0.0190074
0.0191655
0.0192819
0.0193595
0.0194009
0.0194076
0.0193811
0.0193224
0.0192322
0.0191004
0.0189236
0.0186995
0.0184248
0.0180953
0.0177061
0.0172521
0.0167294
0.0161388
0.0154931
0.00742683
0.00699433
0.00659796
0.00623171
0.00589075
0.00557099
0.00526905
0.00498244
0.00471131
0.00445258
0.00420349
0.00396162
0.0037248
0.00349116
0.00325903
0.00302705
0.00279417
0.00255988
0.0023244
0.00208938
0.00185902
0.0016431
0.00146978
0.00145125
0.00195366
0.00319833
0.00435236
0.00488699
0.00541781
0.0064317
0.00793609
0.00946393
0.0108391
0.0120199
0.0130161
0.0138503
0.0145466
0.0151268
0.0156098
0.0160114
0.0163444
0.0166188
0.0168425
0.0170218
0.0171613
0.0172645
0.017334
0.0173715
0.0173781
0.0173543
0.0173002
0.017215
0.0170969
0.0169375
0.0167308
0.0164753
0.0161674
0.0158039
0.0153818
0.0149003
0.0143628
0.0137815
0.00667246
0.00622345
0.00582183
0.00545837
0.00512609
0.00481937
0.00453367
0.00426556
0.00401428
0.00377731
0.0035514
0.00333382
0.00312224
0.00291466
0.00270938
0.00250503
0.00230064
0.00209582
0.00189121
0.00168941
0.00149674
0.00132664
0.0012102
0.00123471
0.00163933
0.00280243
0.00395071
0.00440079
0.00473706
0.0053858
0.00671578
0.00814634
0.00944883
0.0105583
0.0114814
0.0122436
0.0128718
0.0133902
0.0138191
0.0141747
0.0144698
0.0147145
0.014916
0.0150802
0.015211
0.0153115
0.0153835
0.0154282
0.0154462
0.0154372
0.0154006
0.0153349
0.015238
0.0151067
0.0149379
0.0147247
0.014463
0.0141523
0.0137911
0.0133807
0.0129257
0.012436
0.0059248
0.00546924
0.00507207
0.00472019
0.00440426
0.00411711
0.00385312
0.00360805
0.00338042
0.00316801
0.00296724
0.00277523
0.00258956
0.0024082
0.00222946
0.00205197
0.00187482
0.00169775
0.00152189
0.00135133
0.00119587
0.00107486
0.00101916
0.00106198
0.00138819
0.00240887
0.00352167
0.00394152
0.00413959
0.00456124
0.00553044
0.00684822
0.00807661
0.00911684
0.00996846
0.0106604
0.0112232
0.0116832
0.0120621
0.0123767
0.0126396
0.0128604
0.0130459
0.0132011
0.0133296
0.0134336
0.0135146
0.0135732
0.0136093
0.0136224
0.0136114
0.0135744
0.0135094
0.0134137
0.0132848
0.0131202
0.0129187
0.0126764
0.0123916
0.0120658
0.011704
0.0113128
0.00519388
0.00474264
0.00435952
0.00402717
0.00373398
0.00347141
0.00323298
0.00301384
0.00281207
0.00262553
0.00245052
0.00228412
0.00212393
0.00196797
0.00181457
0.00166244
0.0015107
0.00135937
0.0012104
0.00107071
0.000956259
0.000890535
0.000867788
0.000927481
0.00121816
0.00202869
0.00307242
0.00350934
0.00361377
0.00383646
0.00441791
0.0056039
0.0067527
0.00772464
0.0085054
0.00912768
0.00962621
0.01003
0.0103619
0.0106387
0.0108729
0.0110733
0.0112462
0.0113958
0.011525
0.0116355
0.0117283
0.0118035
0.0118607
0.011899
0.011917
0.0119129
0.0118847
0.0118303
0.0117476
0.0116349
0.011491
0.0113148
0.0111075
0.0108701
0.0106036
0.0103105
0.00448929
0.0040535
0.00369316
0.00338692
0.00312126
0.00288665
0.00267603
0.0024841
0.00230902
0.00214845
0.00199873
0.00185703
0.00172108
0.00158898
0.00145917
0.00133043
0.00120207
0.00107463
0.000951862
0.000846299
0.000780754
0.000747397
0.000749729
0.000821663
0.00107008