/*--------------------------------*- C++ -*----------------------------------*\
  =========                 |
  \\      /  F ield         | OpenFOAM: The Open Source CFD Toolbox
   \\    /   O peration     | Website:  https://openfoam.org
    \\  /    A nd           | Version:  9
     \\/     M anipulation  |
\*---------------------------------------------------------------------------*/
FoamFile
{
    format      ascii;
    class       volScalarField;
    location    "0.008099";
    object      nut;
}
// * * * * * * * * * * * * * * * * * * * * * * * * * * * * * * * * * * * * * //

dimensions      [0 2 -1 0 0 0 0];

internalField   nonuniform List<scalar> 
6352
(
0.000653452
7.69672e-05
1.24707e-05
3.33038e-06
1.39393e-06
7.75705e-07
7.76353e-07
8.05036e-07
7.22854e-07
5.88537e-07
4.59839e-07
3.69352e-07
3.15796e-07
2.89713e-07
3.1369e-07
3.34398e-07
3.44422e-07
7.56572e-07
0.00187557
0.000465542
0.000240823
0.000161229
0.000121176
9.72214e-05
9.92119e-05
0.000100901
9.63849e-05
8.82551e-05
7.89548e-05
7.06473e-05
6.40209e-05
5.89799e-05
5.54549e-05
5.2775e-05
5.00099e-05
4.62856e-05
0.00298809
0.000885843
0.000469785
0.000314782
0.000236879
0.000188577
0.000160297
0.000149007
0.000135999
0.000122515
0.000109305
9.81293e-05
8.93795e-05
8.26417e-05
7.75916e-05
7.35776e-05
6.96728e-05
6.51661e-05
5.95999e-05
0.00400246
0.00134783
0.000712493
0.000469897
0.00034673
0.00027029
0.000217717
0.00018555
0.00016034
0.000139452
0.000122023
0.000109308
0.000100425
9.4223e-05
9.0373e-05
8.82809e-05
8.68245e-05
8.49598e-05
8.17402e-05
0.00491885
0.0018161
0.000958808
0.000623737
0.000451452
0.000344032
0.000268226
0.000217109
0.000180654
0.000153494
0.00013329
0.000122594
0.000116981
0.000112342
0.000108094
0.000104695
0.000101919
9.89725e-05
9.54331e-05
9.24741e-05
0.00573422
0.00226955
0.00120002
0.000771687
0.000548252
0.000408015
0.000315613
0.000253727
0.000210966
0.000180306
0.00015763
0.000144567
0.000135904
0.000128279
0.000121209
0.000115584
0.000111191
0.000107559
0.000104219
0.000101518
0.00644305
0.00269137
0.00142837
0.000909045
0.000633787
0.000468276
0.000362798
0.000293235
0.000245658
0.000211373
0.000185063
0.000166185
0.000150945
0.000138922
0.000129834
0.000123629
0.000119056
0.000115126
0.000111511
0.000108125
0.00703679
0.0030642
0.00163632
0.00103064
0.000711689
0.000525203
0.000408452
0.000331977
0.000279389
0.000240556
0.000209413
0.000184871
0.000165495
0.00015031
0.000139074
0.000131713
0.000125878
0.000120375
0.000115534
0.000111421
0.00750228
0.00337218
0.00181618
0.00113405
0.000780519
0.000576346
0.00044935
0.000366133
0.000308258
0.000264071
0.000229223
0.000201757
0.000180107
0.0001629
0.000149251
0.000137984
0.000128415
0.000121031
0.000115479
0.000111041
0.00781717
0.00359927
0.00194805
0.00120582
0.0008282
0.000612461
0.000478634
0.000390629
0.000327258
0.000279396
0.000242598
0.000213674
0.000190627
0.000171492
0.000155263
0.000141539
0.00013012
0.000120887
0.00011415
0.000108424
0.00787043
0.00362284
0.00195066
0.00120544
0.000829631
0.000613848
0.000478977
0.000390147
0.000326614
0.000278871
0.000242243
0.000213121
0.000189676
0.000170445
0.000154346
0.000140301
0.000128576
0.000118754
0.000110798
0.000104105
0.00775719
0.00354864
0.00190928
0.00117785
0.000810045
0.000600177
0.000468053
0.000380401
0.000318499
0.000271776
0.000235749
0.000207335
0.000184222
0.000165118
0.000149096
0.000135484
0.000123789
0.000113717
0.000105314
9.8226e-05
0.00752683
0.00339779
0.00182833
0.0011255
0.000772367
0.000572649
0.000446894
0.000362302
0.000302702
0.000258562
0.000224011
0.000196572
0.000174331
0.000156168
0.00014048
0.000127229
0.000116006
0.000106486
9.84312e-05
9.1589e-05
0.00714215
0.0031755
0.00171079
0.00105129
0.000718337
0.000531565
0.000415987
0.000337047
0.000280737
0.000239178
0.000207252
0.000181763
0.000160539
0.000143013
0.000128294
0.000116139
0.000105989
9.71867e-05
8.94078e-05
8.32376e-05
0.00660742
0.00285912
0.00155386
0.000957698
0.000650143
0.000477243
0.000372032
0.000302491
0.000251912
0.000213418
0.000183497
0.000160008
0.000141313
0.000125668
0.00011178
0.000100424
9.15389e-05
8.43328e-05
7.91123e-05
7.63011e-05
0.00591708
0.00244872
0.00133654
0.000835998
0.000566732
0.000411656
0.000316958
0.000255617
0.00021295
0.00018145
0.000154969
0.000133227
0.000116365
0.000102504
9.11221e-05
8.31079e-05
7.7779e-05
7.41466e-05
7.05832e-05
6.6952e-05
0.00505467
0.0019468
0.00106395
0.000680154
0.000470745
0.000340877
0.000257939
0.000203041
0.00016523
0.000138186
0.000117322
0.000101003
9.13687e-05
8.05653e-05
7.08733e-05
6.34452e-05
5.90007e-05
5.71404e-05
5.56975e-05
5.67677e-05
0.00399
0.00136667
0.000748377
0.00048964
0.000350836
0.000263985
0.00020089
0.000155182
0.000121495
9.56516e-05
7.55304e-05
6.04091e-05
5.1098e-05
4.88875e-05
4.90189e-05
4.81168e-05
4.66841e-05
4.52929e-05
4.44441e-05
4.46725e-05
0.00267158
0.000781018
0.000413591
0.000276534
0.00020464
0.000158672
0.000123979
0.000105882
9.07869e-05
7.42964e-05
5.8946e-05
4.65622e-05
3.77118e-05
3.29588e-05
3.04301e-05
2.78765e-05
2.52273e-05
2.17992e-05
1.8643e-05
2.45179e-05
0.00101201
0.000171681
5.61357e-05
2.00565e-05
8.04834e-06
3.66365e-06
1.78832e-06
1.11325e-06
7.54705e-07
4.92172e-07
3.25127e-07
3.89112e-07
2.94413e-07
3.09846e-07
3.25792e-07
3.29145e-07
6.80934e-07
7.56132e-07
2.61196e-07
2.89669e-07
0.000106403
0.000108881
0.00010639
0.000107722
0.000104563
0.000101492
0.000104168
0.000100595
9.64478e-05
9.88437e-05
9.39998e-05
8.92099e-05
8.45778e-05
9.23328e-05
8.69084e-05
8.19281e-05
7.74757e-05
8.55754e-05
8.01427e-05
7.55209e-05
7.169e-05
6.89662e-05
7.78143e-05
7.33777e-05
7.04597e-05
6.81891e-05
6.6298e-05
6.47235e-05
7.28721e-05
6.95714e-05
6.69025e-05
6.4767e-05
6.2991e-05
6.14467e-05
6.4263e-05
6.23468e-05
6.08006e-05
5.94485e-05
5.8179e-05
5.69148e-05
5.63854e-05
5.5556e-05
5.45378e-05
5.33715e-05
5.20301e-05
5.0502e-05
4.87824e-05
4.2941e-05
4.23665e-05
4.17878e-05
4.09131e-05
3.97068e-05
3.83122e-05
3.66674e-05
2.93122e-05
3.07774e-05
3.06554e-05
2.98215e-05
2.85237e-05
2.74749e-05
2.55028e-05
2.40031e-05
3.41475e-07
3.53022e-07
3.3644e-07
3.10049e-07
2.78833e-07
5.0222e-07
2.08475e-07
1.92213e-07
0.0140214
0.0140214
0.0140214
0.0140213
0.0140213
0.0140212
0.0140212
0.0140211
0.014021
0.014021
0.0140209
0.0140209
0.0140208
0.0140207
0.0140207
0.0140206
0.0140205
0.0140205
0.0140204
0.0140203
0.0140203
0.0140202
0.0140201
0.0140201
0.01402
0.0140199
0.0140198
0.0140198
0.0140197
0.0140196
0.0140196
0.0140195
0.0140194
0.0140194
0.0140193
0.0140192
0.0140191
0.0140191
0.014019
0.0140189
0.0140189
0.0140188
0.0140187
0.0140187
0.0140186
0.0140185
0.0140184
0.0140184
0.0140183
0.0140182
0.0140182
0.0140181
0.014018
0.014018
0.0140179
0.0140178
0.0140177
0.0140177
0.0140176
0.0140175
0.0140175
0.0140069
0.014007
0.0140071
0.0140072
0.0140072
0.0140073
0.0140074
0.0140075
0.0140075
0.0140076
0.0140076
0.0140077
0.0140077
0.0140077
0.0140077
0.0140078
0.0140078
0.0140078
0.0140078
0.0140077
0.0140077
0.0140076
0.0140075
0.0140074
0.0140073
0.0140073
0.0140072
0.0140072
0.0140072
0.0140072
0.0140072
0.0140072
0.0140072
0.0140072
0.0140072
0.0140073
0.0140073
0.0140073
0.0140073
0.0140073
0.0140073
0.0140073
0.0140073
0.0140073
0.0140073
0.0140073
0.0140073
0.0140073
0.0140073
0.0140073
0.0140073
0.0140074
0.0140074
0.0140074
0.0140074
0.0140074
0.0140074
0.0140074
0.0140074
0.0140074
0.0140074
0.0139922
0.0139923
0.0139923
0.0139924
0.0139924
0.0139925
0.0139925
0.0139926
0.0139926
0.0139927
0.0139927
0.0139928
0.0139928
0.0139929
0.0139929
0.0139929
0.013993
0.013993
0.013993
0.0139931
0.0139931
0.0139931
0.0139931
0.013993
0.013993
0.0139929
0.0139928
0.0139926
0.0139925
0.0139924
0.0139922
0.0139921
0.013992
0.0139918
0.0139917
0.0139916
0.0139915
0.0139913
0.0139912
0.0139911
0.0139909
0.0139908
0.0139907
0.0139905
0.0139904
0.0139903
0.0139902
0.01399
0.0139899
0.0139898
0.0139896
0.0139895
0.0139894
0.0139892
0.0139891
0.013989
0.0139889
0.0139887
0.0139886
0.0139885
0.0139883
0.0139734
0.0139735
0.0139736
0.0139737
0.0139738
0.0139739
0.013974
0.0139741
0.0139742
0.0139742
0.0139743
0.0139744
0.0139745
0.0139746
0.0139747
0.0139747
0.0139748
0.0139749
0.0139749
0.013975
0.013975
0.0139751
0.0139751
0.0139751
0.0139752
0.0139751
0.0139751
0.013975
0.0139749
0.0139747
0.0139745
0.0139743
0.0139741
0.0139739
0.0139738
0.0139736
0.0139734
0.0139732
0.013973
0.0139729
0.0139727
0.0139725
0.0139723
0.0139721
0.013972
0.0139718
0.0139716
0.0139714
0.0139712
0.0139711
0.0139709
0.0139709
0.0139709
0.0139709
0.0139709
0.013971
0.013971
0.013971
0.0139711
0.0139712
0.0139712
0.0139412
0.0139414
0.0139415
0.0139417
0.0139418
0.013942
0.0139421
0.0139423
0.0139424
0.0139425
0.0139427
0.0139428
0.013943
0.0139431
0.0139433
0.0139434
0.0139436
0.0139437
0.0139439
0.013944
0.0139442
0.0139443
0.0139444
0.0139446
0.0139447
0.0139449
0.013945
0.0139452
0.0139453
0.0139455
0.0139456
0.0139457
0.0139459
0.013946
0.0139462
0.0139463
0.0139464
0.0139466
0.0139467
0.0139469
0.013947
0.0139471
0.0139473
0.0139474
0.0139476
0.0139477
0.0139478
0.013948
0.0139481
0.0139482
0.0139484
0.0139485
0.0139486
0.0139488
0.0139489
0.013949
0.0139492
0.0139493
0.0139494
0.0139496
0.0139497
0.0139156
0.0139156
0.0139157
0.0139158
0.0139159
0.013916
0.0139161
0.0139162
0.0139163
0.0139164
0.0139165
0.0139167
0.0139168
0.0139169
0.013917
0.0139171
0.0139173
0.0139174
0.0139175
0.0139176
0.0139178
0.0139179
0.013918
0.0139181
0.0139183
0.0139184
0.0139185
0.0139186
0.0139188
0.0139189
0.013919
0.0139192
0.0139193
0.0139194
0.0139195
0.0139197
0.0139198
0.0139199
0.01392
0.0139202
0.0139203
0.0139204
0.0139205
0.0139206
0.0139208
0.0139209
0.013921
0.0139211
0.0139212
0.0139214
0.0139215
0.0139216
0.0139217
0.0139218
0.0139219
0.013922
0.0139221
0.0139222
0.0139223
0.0139225
0.0139226
0.0138921
0.0138917
0.0138913
0.0138908
0.0138904
0.01389
0.0138896
0.0138892
0.0138888
0.0138884
0.013888
0.0138876
0.0138872
0.0138868
0.0138864
0.0138859
0.0138855
0.0138851
0.0138847
0.0138843
0.0138839
0.0138835
0.0138831
0.0138827
0.0138822
0.0138818
0.0138814
0.013881
0.0138806
0.0138802
0.0138798
0.0138794
0.013879
0.0138785
0.0138781
0.0138777
0.0138773
0.0138769
0.0138765
0.0138761
0.0138757
0.0138752
0.0138748
0.0138744
0.013874
0.0138736
0.0138732
0.0138728
0.0138723
0.0138719
0.0138715
0.0138711
0.0138707
0.0138703
0.0138699
0.0138694
0.013869
0.0138686
0.0138682
0.0138678
0.0138674
0.0138647
0.0138641
0.0138635
0.013863
0.0138624
0.0138619
0.0138613
0.0138608
0.0138602
0.0138597
0.0138591
0.0138586
0.013858
0.0138575
0.0138569
0.0138563
0.0138558
0.0138552
0.0138547
0.0138541
0.0138535
0.013853
0.0138524
0.0138519
0.0138513
0.0138507
0.0138502
0.0138496
0.0138491
0.0138485
0.0138479
0.0138474
0.0138468
0.0138462
0.0138457
0.0138451
0.0138446
0.013844
0.0138434
0.0138429
0.0138423
0.0138417
0.0138411
0.0138406
0.01384
0.0138394
0.0138389
0.0138383
0.0138377
0.0138372
0.0138366
0.013836
0.0138354
0.0138349
0.0138343
0.0138337
0.0138332
0.0138326
0.013832
0.0138314
0.0138309
0.0138334
0.0138327
0.013832
0.0138312
0.0138305
0.0138297
0.013829
0.0138282
0.0138275
0.0138267
0.013826
0.0138252
0.0138245
0.0138237
0.013823
0.0138222
0.0138215
0.0138207
0.01382
0.0138192
0.0138185
0.0138177
0.013817
0.0138162
0.0138155
0.0138147
0.0138139
0.0138132
0.0138124
0.0138117
0.0138109
0.0138101
0.0138094
0.0138086
0.0138078
0.0138071
0.0138063
0.0138055
0.0138048
0.013804
0.0138032
0.0138025
0.0138017
0.0138009
0.0138001
0.0137994
0.0137986
0.0137978
0.0137971
0.0137963
0.0137955
0.0137947
0.0137939
0.0137932
0.0137924
0.0137916
0.0137908
0.01379
0.0137893
0.0137885
0.0137877
0.0137869
0.0137971
0.0137961
0.0137951
0.0137941
0.0137931
0.0137921
0.0137911
0.01379
0.013789
0.013788
0.013787
0.013786
0.013785
0.013784
0.013783
0.013782
0.0137809
0.0137799
0.0137789
0.0137779
0.0137769
0.0137758
0.0137748
0.0137738
0.0137727
0.0137717
0.0137707
0.0137697
0.0137686
0.0137676
0.0137666
0.0137655
0.0137645
0.0137634
0.0137624
0.0137614
0.0137603
0.0137593
0.0137582
0.0137572
0.0137561
0.0137551
0.013754
0.013753
0.0137519
0.0137509
0.0137498
0.0137488
0.0137477
0.0137467
0.0137456
0.0137445
0.0137435
0.0137424
0.0137414
0.0137403
0.0137392
0.0137382
0.0137371
0.013736
0.013735
0.0137339
0.0137549
0.0137535
0.0137522
0.0137508
0.0137495
0.0137481
0.0137468
0.0137454
0.013744
0.0137427
0.0137413
0.0137399
0.0137386
0.0137372
0.0137358
0.0137344
0.0137331
0.0137317
0.0137303
0.0137289
0.0137275
0.0137261
0.0137247
0.0137233
0.013722
0.0137206
0.0137192
0.0137178
0.0137163
0.0137149
0.0137135
0.0137121
0.0137107
0.0137093
0.0137079
0.0137065
0.013705
0.0137036
0.0137022
0.0137007
0.0136993
0.0136979
0.0136965
0.013695
0.0136936
0.0136921
0.0136907
0.0136892
0.0136878
0.0136864
0.0136849
0.0136834
0.013682
0.0136805
0.0136791
0.0136776
0.0136762
0.0136747
0.0136732
0.0136718
0.0136703
0.0136688
0.0137057
0.0137039
0.0137021
0.0137002
0.0136984
0.0136966
0.0136947
0.0136929
0.013691
0.0136892
0.0136874
0.0136855
0.0136836
0.0136818
0.0136799
0.013678
0.0136762
0.0136743
0.0136724
0.0136705
0.0136686
0.0136667
0.0136648
0.0136629
0.013661
0.0136591
0.0136572
0.0136553
0.0136534
0.0136515
0.0136495
0.0136476
0.0136457
0.0136437
0.0136418
0.0136398
0.0136379
0.0136359
0.013634
0.013632
0.0136301
0.0136281
0.0136261
0.0136242
0.0136222
0.0136202
0.0136182
0.0136162
0.0136142
0.0136122
0.0136102
0.0136082
0.0136062
0.0136042
0.0136022
0.0136002
0.0135982
0.0135962
0.0135942
0.0135921
0.0135901
0.0135881
0.0136486
0.0136461
0.0136437
0.0136412
0.0136387
0.0136362
0.0136337
0.0136312
0.0136287
0.0136262
0.0136237
0.0136212
0.0136187
0.0136161
0.0136136
0.013611
0.0136085
0.0136059
0.0136033
0.0136008
0.0135982
0.0135956
0.013593
0.0135904
0.0135878
0.0135852
0.0135825
0.0135799
0.0135773
0.0135746
0.013572
0.0135693
0.0135666
0.0135639
0.0135613
0.0135586
0.0135559
0.0135532
0.0135505
0.0135478
0.013545
0.0135423
0.0135396
0.0135368
0.0135341
0.0135314
0.0135286
0.0135258
0.0135231
0.0135203
0.0135175
0.0135147
0.013512
0.0135092
0.0135064
0.0135036
0.0135008
0.013498
0.0134951
0.0134923
0.0134895
0.0134867
0.0135821
0.0135788
0.0135755
0.0135721
0.0135688
0.0135654
0.013562
0.0135586
0.0135552
0.0135518
0.0135484
0.0135449
0.0135415
0.013538
0.0135345
0.013531
0.0135275
0.013524
0.0135205
0.0135169
0.0135134
0.0135098
0.0135062
0.0135026
0.013499
0.0134953
0.0134917
0.013488
0.0134844
0.0134807
0.013477
0.0134733
0.0134696
0.0134658
0.0134621
0.0134583
0.0134546
0.0134508
0.013447
0.0134432
0.0134394
0.0134355
0.0134317
0.0134278
0.013424
0.0134201
0.0134162
0.0134123
0.0134084
0.0134045
0.0134006
0.0133967
0.0133927
0.0133888
0.0133848
0.0133809
0.0133769
0.0133729
0.013369
0.013365
0.013361
0.013357
0.0135049
0.0135004
0.0134958
0.0134913
0.0134867
0.0134821
0.0134775
0.0134729
0.0134682
0.0134635
0.0134588
0.0134541
0.0134493
0.0134445
0.0134397
0.0134349
0.01343
0.0134251
0.0134202
0.0134153
0.0134103
0.0134053
0.0134003
0.0133953
0.0133902
0.0133851
0.01338
0.0133748
0.0133696
0.0133644
0.0133592
0.0133539
0.0133487
0.0133433
0.013338
0.0133326
0.0133273
0.0133218
0.0133164
0.013311
0.0133055
0.0133
0.0132944
0.0132889
0.0132833
0.0132777
0.0132721
0.0132665
0.0132608
0.0132552
0.0132495
0.0132438
0.013238
0.0132323
0.0132265
0.0132208
0.013215
0.0132092
0.0132035
0.0131977
0.0131918
0.013186
0.0134148
0.0134087
0.0134026
0.0133964
0.0133901
0.0133838
0.0133775
0.0133711
0.0133647
0.0133583
0.0133518
0.0133452
0.0133386
0.0133319
0.0133252
0.0133185
0.0133117
0.0133048
0.0132979
0.0132909
0.0132839
0.0132768
0.0132697
0.0132625
0.0132552
0.0132479
0.0132406
0.0132331
0.0132256
0.0132181
0.0132105
0.0132028
0.0131951
0.0131874
0.0131795
0.0131716
0.0131637
0.0131557
0.0131476
0.0131395
0.0131313
0.0131231
0.0131148
0.0131065
0.0130981
0.0130897
0.0130812
0.0130727
0.0130641
0.0130555
0.0130469
0.0130382
0.0130295
0.0130207
0.0130119
0.0130031
0.0129943
0.0129854
0.0129765
0.0129676
0.0129587
0.0129498
0.0133099
0.0133015
0.0132931
0.0132847
0.0132761
0.0132675
0.0132587
0.0132499
0.0132411
0.0132321
0.013223
0.0132139
0.0132046
0.0131952
0.0131858
0.0131762
0.0131665
0.0131567
0.0131468
0.0131368
0.0131267
0.0131164
0.013106
0.0130955
0.0130848
0.0130741
0.0130632
0.0130521
0.0130409
0.0130296
0.0130182
0.0130066
0.0129948
0.0129829
0.0129709
0.0129587
0.0129463
0.0129338
0.0129212
0.0129084
0.0128955
0.0128824
0.0128692
0.0128559
0.0128425
0.0128289
0.0128152
0.0128015
0.0127876
0.0127737
0.0127596
0.0127456
0.0127315
0.0127173
0.0127032
0.012689
0.0126749
0.0126608
0.0126467
0.0126327
0.0126187
0.0126048
0.0131874
0.013176
0.0131646
0.013153
0.0131412
0.0131293
0.0131173
0.013105
0.0130927
0.0130801
0.0130674
0.0130545
0.0130413
0.013028
0.0130145
0.0130007
0.0129867
0.0129725
0.012958
0.0129433
0.0129283
0.0129131
0.0128975
0.0128817
0.0128655
0.0128491
0.0128323
0.0128152
0.0127977
0.0127798
0.0127616
0.0127431
0.0127241
0.0127048
0.012685
0.0126649
0.0126444
0.0126235
0.0126022
0.0125806
0.0125586
0.0125363
0.0125138
0.012491
0.0124681
0.012445
0.0124218
0.0123986
0.0123753
0.0123522
0.0123291
0.0123062
0.0122835
0.012261
0.0122388
0.0122169
0.0121955
0.0121745
0.0121541
0.0121342
0.0121149
0.0120962
0.0130447
0.0130292
0.0130136
0.0129977
0.0129816
0.0129651
0.0129484
0.0129315
0.0129141
0.0128965
0.0128785
0.0128601
0.0128414
0.0128222
0.0128026
0.0127825
0.012762
0.012741
0.0127194
0.0126972
0.0126745
0.0126511
0.012627
0.0126023
0.0125768
0.0125506
0.0125235
0.0124956
0.0124668
0.0124371
0.0124064
0.0123748
0.0123422
0.0123087
0.0122742
0.0122388
0.0122026
0.0121657
0.0121281
0.0120901
0.0120518
0.0120132
0.0119746
0.0119362
0.0118981
0.0118606
0.0118239
0.0117882
0.0117536
0.0117204
0.0116887
0.0116585
0.0116299
0.011603
0.0115779
0.0115548
0.0115342
0.0115171
0.0115029
0.0114908
0.0114805
0.0114718
0.0128788
0.0128579
0.0128367
0.012815
0.0127928
0.0127702
0.0127471
0.0127235
0.0126993
0.0126744
0.0126489
0.0126227
0.0125957
0.0125679
0.0125393
0.0125097
0.0124791
0.0124475
0.0124147
0.0123807
0.0123453
0.0123086
0.0122703
0.0122305
0.0121889
0.0121455
0.0121001
0.0120527
0.0120033
0.0119517
0.0118979
0.0118421
0.0117843
0.0117248
0.0116639
0.0116018
0.0115391
0.0114763
0.0114139
0.0113526
0.011293
0.0112358
0.0111814
0.0111306
0.0110838
0.0110422
0.0110082
0.0109801
0.0109572
0.0109393
0.0109261
0.0109176
0.0109136
0.0109143
0.0109197
0.0109297
0.0109441
0.0109625
0.0109842
0.011008
0.0110322
0.011059
0.0126865
0.0126584
0.0126298
0.0126004
0.0125703
0.0125394
0.0125076
0.0124748
0.0124411
0.0124062
0.0123702
0.0123328
0.012294
0.0122537
0.0122118
0.012168
0.0121222
0.0120744
0.0120242
0.0119715
0.011916
0.0118576
0.0117959
0.0117308
0.011662
0.0115893
0.0115124
0.0114314
0.0113462
0.011257
0.0111643
0.0110687
0.0109713
0.0108732
0.010776
0.0106814
0.0105911
0.010507
0.0104315
0.0103693
0.010319
0.0102801
0.0102532
0.0102384
0.0102358
0.0102458
0.0102688
0.0103046
0.0103528
0.010412
0.01048
0.010555
0.0106411
0.01074
0.0108539
0.0109774
0.0111111
0.0112525
0.0113989
0.0115498
0.0117043
0.0118618
0.0124653
0.0124279
0.0123896
0.0123502
0.0123096
0.0122677
0.0122244
0.0121795
0.0121329
0.0120845
0.0120339
0.0119812
0.0119259
0.0118679
0.011807
0.0117428
0.011675
0.0116032
0.0115271
0.0114463
0.0113602
0.0112685
0.0111706
0.0110661
0.0109546
0.0108359
0.0107099
0.0105771
0.0104383
0.0102953
0.0101507
0.0100079
0.00987098
0.00974475
0.00963638
0.00955068
0.00948712
0.00944844
0.00943656
0.00945283
0.00949976
0.0095776
0.00968491
0.0098178
0.00997093
0.0101567
0.0103716
0.0106106
0.0108716
0.0111516
0.0114468
0.0117556
0.0120735
0.0123976
0.0127271
0.0130609
0.0133974
0.0137353
0.0140747
0.0144154
0.014756
0.0150967
0.0122117
0.0121626
0.0121121
0.01206
0.012006
0.01195
0.0118919
0.0118313
0.011768
0.0117017
0.0116322
0.011559
0.0114819
0.0114003
0.0113138
0.0112219
0.0111241
0.0110196
0.0109078
0.010788
0.0106593
0.0105211
0.0103725
0.0102129
0.0100421
0.00986039
0.00966921
0.0094714
0.00927206
0.00907812
0.00889936
0.00875156
0.00863847
0.00856871
0.00855028
0.00858812
0.00868765
0.00884819
0.00906465
0.00932912
0.00966345
0.0100515
0.0104848
0.0109471
0.0114376
0.0119496
0.0124813
0.013032
0.0135985
0.0141777
0.0147667
0.0153599
0.0159496
0.0165325
0.017113
0.0176875
0.0182515
0.0188032
0.0193415
0.0198654
0.020374
0.0208665
0.0119225
0.0118589
0.0117933
0.0117254
0.0116548
0.0115814
0.0115049
0.0114248
0.0113407
0.0112524
0.0111592
0.0110607
0.0109563
0.0108454
0.0107272
0.0106009
0.0104657
0.0103206
0.0101645
0.00999637
0.00981494
0.00961912
0.00940806
0.0091815
0.00894045
0.00868804
0.00843085
0.00817982
0.00795542
0.00777326
0.00765268
0.0076156
0.00767838
0.0078512
0.00813281
0.00850936
0.00900393
0.00958514
0.0102296
0.010937
0.0116973
0.0124963
0.0133205
0.0141551
0.0149916
0.0158232
0.0166446
0.017451
0.018239
0.0190056
0.0197484
0.0204657
0.021156
0.0218183
0.0224525
0.0230585
0.0236367
0.0241872
0.0247103
0.0252066
0.0256762
0.0261195
0.0115949
0.0115124
0.0114285
0.0113418
0.0112516
0.0111575
0.0110592
0.0109562
0.0108479
0.0107338
0.0106133
0.0104856
0.0103501
0.0102058
0.0100518
0.00988701
0.00971029
0.00952028
0.00931554
0.00909452
0.00885571
0.00859787
0.00832065
0.00802574
0.00771858
0.00741085
0.00712468
0.00688195
0.00672163
0.00668769
0.00681509
0.00712199
0.00760519
0.00825625
0.00905615
0.00996117
0.010951
0.0119926
0.0130612
0.0141368
0.0152046
0.016253
0.0172733
0.018259
0.0192054
0.0201096
0.0209699
0.0217859
0.0225577
0.0232861
0.0239723
0.0246177
0.025224
0.0257928
0.0263261
0.0268254
0.0272924
0.0277285
0.0281351
0.0285137
0.0288638
0.0291834
0.0112298
0.011124
0.011016
0.0109067
0.0107941
0.0106766
0.0105539
0.0104253
0.0102903
0.0101482
0.00999828
0.00983976
0.00967171
0.00949314
0.0093029
0.0090997
0.00888209
0.00864844
0.00839695
0.00812574
0.0078331
0.00751818
0.00718271
0.0068343
0.00649014
0.00616832
0.00591495
0.00579792
0.00588696
0.00622892
0.0068301
0.00767009
0.00871851
0.00990215
0.0111685
0.0124697
0.0137707
0.0150463
0.0162791
0.0174572
0.018574
0.0196259
0.0206121
0.0215335
0.0223924
0.0231917
0.0239347
0.0246247
0.0252651
0.0258589
0.0264087
0.026917
0.0273861
0.0278192
0.0282189
0.0285871
0.0289245
0.0292315
0.029508
0.0297534
0.0299685
0.0301552
0.0108254
0.0106937
0.0105592
0.010422
0.0102829
0.01014
0.00999104
0.00983557
0.00967294
0.00950249
0.00932349
0.00913508
0.00893634
0.00872616
0.00850332
0.00826639
0.00801375
0.00774354
0.00745372
0.00714218
0.00680726
0.00644934
0.0060752
0.00570246
0.00535013
0.00508002
0.00499263
0.00518469
0.00570457
0.00654804
0.00768993
0.00903548
0.0105027
0.0120051
0.0134879
0.0149164
0.0162701
0.0175383
0.0187175
0.0198082
0.0208137
0.0217384
0.0225871
0.0233653
0.0240782
0.0247311
0.0253287
0.0258755
0.0263753
0.0268313
0.0272463
0.0276225
0.027962
0.0282666
0.0285376
0.0287772
0.0289878
0.0291721
0.029332
0.0294686
0.0295821
0.0296726
0.010381
0.0102207
0.0100575
0.0098912
0.00972202
0.00955109
0.00937557
0.00919346
0.00900423
0.0088073
0.00860198
0.00838747
0.00816286
0.00792706
0.00767881
0.00741665
0.00713889
0.00684357
0.00652852
0.00619158
0.00583134
0.00545015
0.00506299
0.00468919
0.00438325
0.0042735
0.00449888
0.00509728
0.00604329
0.00733476
0.00885347
0.0104899
0.0121267
0.0137021
0.0151839
0.0165576
0.0178185
0.0189691
0.0200155
0.0209654
0.0218266
0.0226063
0.0233103
0.0239452
0.0245174
0.0250328
0.0254965
0.0259131
0.026286
0.0266187
0.0269123
0.0271683
0.0273877
0.0275735
0.0277321
0.0278663
0.0279774
0.0280664
0.0281342
0.0281813
0.0282081
0.0282146
0.00989721
0.00970567
0.00951211
0.00931614
0.00911758
0.0089168
0.00871554
0.00850867
0.00829575
0.00807627
0.00784961
0.00761505
0.00737167
0.00711846
0.00685416
0.00657734
0.00628634
0.00597925
0.00565395
0.00530834
0.00494138
0.00455719
0.00417795
0.0038352
0.00364013
0.00379318
0.0043825
0.00529327
0.00651176
0.00806094
0.00976766
0.0114813
0.0131162
0.0146341
0.0160232
0.0172836
0.0184165
0.0194313
0.0203394
0.021152
0.0218791
0.0225306
0.0231058
0.0236136
0.0240622
0.0244577
0.0248051
0.0251084
0.0253708
0.0255945
0.0257809
0.0259307
0.0260486
0.0261415
0.0262104
0.0262564
0.0262804
0.0262831
0.0262652
0.0262272
0.0261694
0.0260925
0.00937552
0.00915108
0.00892652
0.00870133
0.00847514
0.00824791
0.00802042
0.00779291
0.00756123
0.00732499
0.00708364
0.00683647
0.00658263
0.00632108
0.00605064
0.00576993
0.00547741
0.00517134
0.00484981
0.00451102
0.00415429
0.00378486
0.00343068
0.00314682
0.00311266
0.00356812
0.00443854
0.00546829
0.00679072
0.00841888
0.010168
0.0118592
0.0134234
0.0148423
0.0161194
0.0172675
0.0182768
0.0191644
0.0199471
0.0206371
0.0212446
0.0217778
0.022243
0.0226469
0.0229957
0.0232947
0.0235482
0.0237598
0.0239322
0.0240674
0.0241667
0.0242321
0.024271
0.0242841
0.0242721
0.0242354
0.0241744
0.0240894
0.0239809
0.0238494
0.0236958
0.0235215
0.00881885
0.00856084
0.00830593
0.00805343
0.00780275
0.00755355
0.00730603
0.0070621
0.00681709
0.00657049
0.00632161
0.00606964
0.00581361
0.00555246
0.005285
0.00500994
0.00472587
0.00443132
0.00412478
0.00380489
0.00347144
0.00312994
0.00281104
0.00260109
0.00274317
0.00346502
0.00448691
0.00547024
0.00671743
0.00834829
0.0100775
0.0117029
0.0131759
0.0144898
0.0156533
0.0166789
0.0175767
0.0183602
0.0190426
0.0196354
0.0201488
0.0205913
0.0209699
0.0212913
0.0215608
0.0217834
0.0219629
0.0221027
0.022205
0.0222719
0.0223044
0.0223068
0.0222797
0.0222234
0.0221378
0.0220224
0.0218766
0.0216997
0.021491
0.0212505
0.0209792
0.0206805
0.00823144
0.0079405
0.0076574
0.00738106
0.00711051
0.00684501
0.00658427
0.00632973
0.006078
0.00582815
0.00557914
0.00532992
0.00507935
0.00482622
0.00456934
0.00430745
0.00403933
0.00376382
0.00347986
0.00318672
0.00288483
0.00257944
0.00229878
0.00216224
0.00245776
0.00337405
0.0044581
0.00531578
0.00638891
0.00792413
0.00955657
0.0110996
0.0124886
0.0137145
0.0147869
0.0157199
0.0165278
0.0172249
0.0178243
0.0183378
0.0187757
0.0191464
0.0194574
0.0197148
0.019924
0.0200892
0.0202141
0.0203015
0.0203537
0.0203729
0.0203606
0.0203163
0.0202391
0.0201283
0.0199827
0.0198004
0.0195793
0.0193163
0.0190085
0.0186535
0.0182516
0.0178105
0.00761878
0.00729712
0.00698964
0.00669446
0.00640996
0.00613473
0.00586767
0.00560845
0.00535769
0.00511188
0.00486975
0.00462997
0.00439122
0.00415218
0.00391156
0.00366818
0.00342097
0.00316904
0.00291183
0.00264931
0.00238275
0.00211761
0.00187936
0.0017978
0.00220001
0.00323991
0.00429979
0.00499322
0.00584213
0.00723404
0.00876485
0.0102284
0.0115416
0.0126902
0.0136838
0.014538
0.015269
0.0158922
0.0164218
0.0168698
0.0172467
0.0175612
0.0178206
0.0180308
0.0181967
0.0183223
0.0184107
0.0184644
0.0184856
0.0184758
0.0184371
0.018367
0.0182608
0.0181174
0.017935
0.0177107
0.0174409
0.0171213
0.0167467
0.0163128
0.0158192
0.0152799
0.00698756
0.00663907
0.00631258
0.0060049
0.00571334
0.00543556
0.0051696
0.0049142
0.00467014
0.0044342
0.00420453
0.00397941
0.00375725
0.00353656
0.00331601
0.00309441
0.00287082
0.00264458
0.00241557
0.00218447
0.00195358
0.00172934
0.00153566
0.00148556
0.0019369
0.00302503
0.00403342
0.00458934
0.00519829
0.00639672
0.0078147
0.00920149
0.0104457
0.0115245
0.0124471
0.0132308
0.0138935
0.0144522
0.0149219
0.0153154
0.0156432
0.0159143
0.0161355
0.0163127
0.0164502
0.0165517
0.0166197
0.0166564
0.0166632
0.0166414
0.0165918
0.0165151
0.0164027
0.0162516
0.0160598
0.0158247
0.0155425
0.015209
0.0148199
0.0143718
0.0138653
0.0133114
0.00634535
0.00597566
0.00563695
0.00532403
0.00503273
0.00475955
0.00450158
0.0042567
0.00402503
0.00380395
0.00359109
0.00338439
0.00318202
0.00298235
0.00278399
0.00258574
0.00238674
0.00218654
0.00198534
0.00178454
0.00158773
0.00140327
0.00125519
0.00123931
0.00166837
0.00273184
0.00371896
0.0041771
0.00463177
0.00549948
0.00678731
0.0080963
0.0092759
0.01029
0.0111467
0.0118651
0.0124654
0.0129662
0.0133836
0.013731
0.0140191
0.0142568
0.0144507
0.0146062
0.0147272
0.014817
0.0148776
0.0149105
0.0149168
0.0148969
0.0148509
0.0147781
0.014677
0.0145406
0.0143635
0.0141446
0.0138808
0.0135693
0.0132077
0.012795
0.0123344
0.0118362
0.00570041
0.00531672
0.0049736
0.00466311
0.00437927
0.00411727
0.00387319
0.00364414
0.00342944
0.00322697
0.00303393
0.00284801
0.0026672
0.00248981
0.0023144
0.00213978
0.00196513
0.00179012
0.00161531
0.00144289
0.00127829
0.00113298
0.0010335
0.00105439
0.00139993
0.00239359
0.0033756
0.00376135
0.00404968
0.00460488
0.00574308
0.00696823
0.00808499
0.00903759
0.00983126
0.0104875
0.0110292
0.0114767
0.0118472
0.0121547
0.0124101
0.0126218
0.0127963
0.0129384
0.0130517
0.0131386
0.0132009
0.0132397
0.0132553
0.0132477
0.0132163
0.0131599
0.0130766
0.0129639
0.0128189
0.012636
0.0124115
0.012145
0.0118355
0.0114838
0.011094
0.0106747
0.00506132
0.00467211
0.00433286
0.00403232
0.00376248
0.00351721
0.0032917
0.00308235
0.00288787
0.00270638
0.00253484
0.00237078
0.00221212
0.00205715
0.00190441
0.00175275
0.00160138
0.00145009
0.00129984
0.00115413
0.00102133
0.000917949
0.000870353
0.000906895
0.00118547
0.00205739
0.00300885
0.00336868
0.00353885
0.00389985
0.00472914
0.00585728
0.00691008
0.0078029
0.00853499
0.00913075
0.00961596
0.0100131
0.0103405
0.0106125
0.0108398
0.0110307
0.0111911
0.0113252
0.0114361
0.0115258
0.0115955
0.0116458
0.0116767
0.0116877
0.0116779
0.0116457
0.0115894
0.0115068
0.0113957
0.011254
0.0110807
0.0108726
0.0106282
0.0103488
0.0100387
0.00970371
0.00443662
0.00405119
0.003724
0.00344017
0.00318977
0.00296552
0.00276186
0.00257466
0.00240229
0.00224291
0.00209339
0.00195121
0.00181433
0.00168106
0.00154999
0.00141999
0.00129035
0.00116105
0.00103379
0.000914455
0.000816682
0.000760533
0.00074109
0.000792049
0.00104028
0.00173265
0.00262489
0.00299915
0.00308924
0.00328021
0.00377773
0.00479273
0.00577692
0.00661086
0.00728191
0.00781767
0.00824755
0.00859617
0.0088829
0.00912222
0.00932469
0.00949786
0.00964711
0.00977614
0.00988742
0.00998248
0.0100621
0.0101264
0.0101752
0.0102075
0.0102223
0.0102181
0.0101931
0.0101455
0.0100736
0.00997605
0.0098518
0.00969988
0.00952144
0.00931735
0.00908856
0.00883724
0.0038345
0.00346234
0.00315465
0.00289315
0.00266628
0.00246592
0.00228602
0.00212207
0.00197252
0.00183533
0.00170741
0.00158635
0.00147018