/*--------------------------------*- C++ -*----------------------------------*\
  =========                 |
  \\      /  F ield         | OpenFOAM: The Open Source CFD Toolbox
   \\    /   O peration     | Website:  https://openfoam.org
    \\  /    A nd           | Version:  9
     \\/     M anipulation  |
\*---------------------------------------------------------------------------*/
FoamFile
{
    format      ascii;
    class       volScalarField;
    location    "0.008099";
    object      nuTilda;
}
// * * * * * * * * * * * * * * * * * * * * * * * * * * * * * * * * * * * * * //

dimensions      [0 2 -1 0 0 0 0];

internalField   nonuniform List<scalar> 
6352
(
0.000654168
0.000100329
4.76979e-05
3.26533e-05
2.59231e-05
2.22792e-05
2.2284e-05
2.24926e-05
2.18797e-05
2.07586e-05
1.94929e-05
1.8437e-05
1.77168e-05
1.77222e-05
2.1038e-05
2.37832e-05
2.58725e-05
1.74426e-05
0.00187566
0.000466944
0.000245794
0.000171096
0.000135957
0.000116211
0.000117812
0.000119175
0.000115541
0.000109094
0.000101859
9.55078e-05
9.05018e-05
8.67871e-05
8.45752e-05
8.29538e-05
8.11409e-05
7.66064e-05
0.00298812
0.000886233
0.000471161
0.000317788
0.000242002
0.000196228
0.000170254
0.000160132
0.000148683
0.000137092
0.000126041
0.000116941
0.000109979
0.000104723
0.000100897
9.79035e-05
9.49892e-05
9.13199e-05
8.72943e-05
0.00400248
0.001348
0.000713095
0.000471274
0.000349226
0.000274304
0.000223681
0.000193412
0.000170293
0.000151698
0.000136675
0.000126043
0.000118791
0.000113818
0.000110778
0.000109146
0.000108012
0.000106517
0.000104029
0.00491886
0.00181619
0.000959141
0.000624522
0.000452941
0.000346565
0.000272298
0.000223102
0.000188873
0.000164135
0.000146331
0.000137159
0.000132424
0.000128554
0.000125046
0.000122264
0.000120008
0.000117622
0.000114784
0.000112431
0.00573423
0.00226961
0.00120023
0.0007722
0.000549266
0.000409832
0.000318604
0.000258243
0.000217271
0.000188551
0.000167849
0.000156196
0.0001486
0.000142011
0.000135986
0.000131256
0.0001276
0.000124604
0.000121872
0.000119677
0.00644305
0.00269141
0.00142852
0.000909416
0.000634547
0.000469661
0.000365083
0.000296677
0.000250451
0.000217657
0.00019296
0.000175595
0.000161858
0.000151234
0.000143347
0.000138039
0.000134168
0.000130872
0.000127865
0.000125069
0.00703679
0.00306423
0.00163643
0.00103093
0.000712293
0.000526308
0.000410265
0.000334692
0.000283161
0.000245538
0.000215801
0.000192781
0.000174967
0.000161292
0.000151367
0.000144967
0.000139955
0.000135281
0.000131213
0.00012779
0.00750229
0.0033722
0.00181627
0.00113429
0.000781021
0.000577264
0.000450853
0.000368378
0.000311388
0.000268264
0.000234661
0.000208573
0.000188368
0.00017261
0.000160349
0.000150415
0.000142127
0.000135836
0.000131167
0.000127475
0.00781718
0.00359929
0.00194813
0.00120603
0.000828647
0.000613275
0.000479961
0.000392608
0.000330049
0.000283168
0.000247503
0.00021984
0.000198139
0.00018044
0.000165721
0.000153529
0.000143593
0.000135714
0.000130057
0.000125315
0.00787043
0.00362286
0.00195074
0.00120565
0.000830075
0.000614658
0.000480302
0.00039213
0.000329415
0.000282657
0.000247161
0.000219314
0.000197252
0.000179482
0.000164899
0.000152442
0.000142266
0.000133914
0.000127274
0.000121777
0.0077572
0.00354867
0.00190936
0.00117807
0.000810511
0.000601024
0.00046944
0.000382485
0.000321438
0.00027575
0.000240918
0.000213836
0.000192179
0.000174624
0.000160211
0.000148235
0.000138174
0.000129696
0.000122764
0.000117019
0.00752684
0.00339781
0.00182842
0.00112574
0.00077288
0.000573579
0.000448413
0.000364593
0.000305942
0.000262923
0.000229679
0.000203701
0.000183044
0.000166534
0.000152599
0.00014111
0.000131607
0.000123723
0.000117184
0.000111723
0.00714216
0.00317553
0.0017109
0.00105157
0.00071893
0.000532644
0.000417736
0.000339683
0.000284475
0.000244212
0.000213757
0.0001899
0.000170473
0.000154826
0.000142023
0.000131719
0.000123315
0.000116184
0.000110001
0.000105173
0.00660743
0.00285915
0.00155398
0.000958032
0.000650866
0.000478578
0.000374208
0.000305736
0.000256488
0.000219596
0.000191506
0.000169993
0.000153331
0.000139776
0.000128087
0.00011879
0.000111683
0.000106024
0.00010198
9.98196e-05
0.00591709
0.00244877
0.00133671
0.000836436
0.000567681
0.000413442
0.000319925
0.000260071
0.000219152
0.000189609
0.000165457
0.000146276
0.000131909
0.000120476
0.000111355
0.000105074
0.00010095
9.81696e-05
9.54615e-05
9.27106e-05
0.00505468
0.00194688
0.00106422
0.000680814
0.000472116
0.000343456
0.00026232
0.000209782
0.000174726
0.00015059
0.00013271
0.000119253
0.000111561
0.000103113
9.56908e-05
9.00819e-05
8.67072e-05
8.53184e-05
8.42673e-05
8.50605e-05
0.00399002
0.00136683
0.000748923
0.000490908
0.000353275
0.000268181
0.000207757
0.000165648
0.000136228
0.000114954
9.92288e-05
8.77299e-05
8.08917e-05
7.92211e-05
7.93122e-05
7.86414e-05
7.73358e-05
7.63089e-05
7.58846e-05
7.60299e-05
0.00267162
0.000781519
0.00041536
0.00028038
0.00021129
0.000168787
0.000138335
0.000123228
0.000111088
9.82851e-05
8.66832e-05
7.70776e-05
7.11312e-05
6.7509e-05
6.55393e-05
6.34803e-05
5.94792e-05
5.63693e-05
5.51588e-05
6.07095e-05
0.00101231
0.000180613
8.45772e-05
5.56772e-05
4.18084e-05
3.35098e-05
2.76688e-05
2.4453e-05
2.21227e-05
1.98322e-05
1.78036e-05
1.64378e-05
2.17846e-05
2.44171e-05
2.57078e-05
2.56508e-05
1.60196e-05
1.52059e-05
2.34248e-05
2.62022e-05
0.000123656
0.000125691
0.000123645
0.000124737
0.000122151
0.000119655
0.000121829
0.000118929
0.000115592
0.000117516
0.000113638
0.000109845
0.000106216
0.000112313
0.000108037
0.000104157
0.000100721
0.000106994
0.000102775
9.92223e-05
9.63002e-05
9.42337e-05
0.000100981
9.75851e-05
9.53656e-05
9.36454e-05
9.22169e-05
9.10296e-05
9.72e-05
9.46918e-05
9.2673e-05
9.10624e-05
8.9726e-05
8.85637e-05
9.06852e-05
8.92416e-05
8.80801e-05
8.70652e-05
8.6114e-05
8.51565e-05
8.47852e-05
8.41532e-05
8.33885e-05
8.25134e-05
8.151e-05
8.03084e-05
7.90941e-05
7.47709e-05
7.42858e-05
7.38302e-05
7.31549e-05
7.22288e-05
7.08311e-05
6.99538e-05
6.50718e-05
6.61061e-05
6.59239e-05
6.51978e-05
6.40699e-05
6.11907e-05
6.15759e-05
6.02489e-05
2.80805e-05
2.80131e-05
2.73956e-05
2.65983e-05
2.51656e-05
1.49961e-05
2.20137e-05
2.27194e-05
0.0140214
0.0140214
0.0140214
0.0140213
0.0140213
0.0140212
0.0140212
0.0140211
0.014021
0.014021
0.0140209
0.0140209
0.0140208
0.0140207
0.0140207
0.0140206
0.0140205
0.0140205
0.0140204
0.0140203
0.0140203
0.0140202
0.0140201
0.0140201
0.01402
0.0140199
0.0140199
0.0140198
0.0140197
0.0140196
0.0140196
0.0140195
0.0140194
0.0140194
0.0140193
0.0140192
0.0140192
0.0140191
0.014019
0.0140189
0.0140189
0.0140188
0.0140187
0.0140187
0.0140186
0.0140185
0.0140185
0.0140184
0.0140183
0.0140182
0.0140182
0.0140181
0.014018
0.014018
0.0140179
0.0140178
0.0140177
0.0140177
0.0140176
0.0140175
0.0140175
0.0140069
0.014007
0.0140071
0.0140072
0.0140073
0.0140073
0.0140074
0.0140075
0.0140075
0.0140076
0.0140076
0.0140077
0.0140077
0.0140077
0.0140078
0.0140078
0.0140078
0.0140078
0.0140078
0.0140078
0.0140077
0.0140076
0.0140075
0.0140074
0.0140073
0.0140073
0.0140072
0.0140072
0.0140072
0.0140072
0.0140072
0.0140072
0.0140072
0.0140072
0.0140073
0.0140073
0.0140073
0.0140073
0.0140073
0.0140073
0.0140073
0.0140073
0.0140073
0.0140073
0.0140073
0.0140073
0.0140073
0.0140073
0.0140073
0.0140073
0.0140074
0.0140074
0.0140074
0.0140074
0.0140074
0.0140074
0.0140074
0.0140074
0.0140074
0.0140074
0.0140074
0.0139922
0.0139923
0.0139923
0.0139924
0.0139924
0.0139925
0.0139925
0.0139926
0.0139926
0.0139927
0.0139927
0.0139928
0.0139928
0.0139929
0.0139929
0.013993
0.013993
0.013993
0.013993
0.0139931
0.0139931
0.0139931
0.0139931
0.013993
0.013993
0.0139929
0.0139928
0.0139926
0.0139925
0.0139924
0.0139922
0.0139921
0.013992
0.0139919
0.0139917
0.0139916
0.0139915
0.0139913
0.0139912
0.0139911
0.0139909
0.0139908
0.0139907
0.0139906
0.0139904
0.0139903
0.0139902
0.01399
0.0139899
0.0139898
0.0139896
0.0139895
0.0139894
0.0139893
0.0139891
0.013989
0.0139889
0.0139887
0.0139886
0.0139885
0.0139883
0.0139734
0.0139735
0.0139736
0.0139737
0.0139738
0.0139739
0.013974
0.0139741
0.0139742
0.0139742
0.0139743
0.0139744
0.0139745
0.0139746
0.0139747
0.0139747
0.0139748
0.0139749
0.0139749
0.013975
0.013975
0.0139751
0.0139751
0.0139751
0.0139752
0.0139752
0.0139751
0.013975
0.0139749
0.0139747
0.0139745
0.0139743
0.0139741
0.013974
0.0139738
0.0139736
0.0139734
0.0139732
0.013973
0.0139729
0.0139727
0.0139725
0.0139723
0.0139721
0.013972
0.0139718
0.0139716
0.0139714
0.0139712
0.0139711
0.0139709
0.0139709
0.0139709
0.0139709
0.0139709
0.013971
0.013971
0.013971
0.0139711
0.0139712
0.0139712
0.0139412
0.0139414
0.0139415
0.0139417
0.0139418
0.013942
0.0139421
0.0139423
0.0139424
0.0139426
0.0139427
0.0139428
0.013943
0.0139431
0.0139433
0.0139434
0.0139436
0.0139437
0.0139439
0.013944
0.0139442
0.0139443
0.0139444
0.0139446
0.0139447
0.0139449
0.013945
0.0139452
0.0139453
0.0139455
0.0139456
0.0139457
0.0139459
0.013946
0.0139462
0.0139463
0.0139465
0.0139466
0.0139467
0.0139469
0.013947
0.0139471
0.0139473
0.0139474
0.0139476
0.0139477
0.0139478
0.013948
0.0139481
0.0139482
0.0139484
0.0139485
0.0139486
0.0139488
0.0139489
0.013949
0.0139492
0.0139493
0.0139494
0.0139496
0.0139497
0.0139156
0.0139156
0.0139157
0.0139158
0.0139159
0.013916
0.0139161
0.0139162
0.0139163
0.0139164
0.0139165
0.0139167
0.0139168
0.0139169
0.013917
0.0139171
0.0139173
0.0139174
0.0139175
0.0139176
0.0139178
0.0139179
0.013918
0.0139181
0.0139183
0.0139184
0.0139185
0.0139187
0.0139188
0.0139189
0.013919
0.0139192
0.0139193
0.0139194
0.0139195
0.0139197
0.0139198
0.0139199
0.01392
0.0139202
0.0139203
0.0139204
0.0139205
0.0139207
0.0139208
0.0139209
0.013921
0.0139211
0.0139212
0.0139214
0.0139215
0.0139216
0.0139217
0.0139218
0.0139219
0.013922
0.0139221
0.0139222
0.0139224
0.0139225
0.0139226
0.0138921
0.0138917
0.0138913
0.0138909
0.0138904
0.01389
0.0138896
0.0138892
0.0138888
0.0138884
0.013888
0.0138876
0.0138872
0.0138868
0.0138864
0.0138859
0.0138855
0.0138851
0.0138847
0.0138843
0.0138839
0.0138835
0.0138831
0.0138827
0.0138823
0.0138818
0.0138814
0.013881
0.0138806
0.0138802
0.0138798
0.0138794
0.013879
0.0138786
0.0138781
0.0138777
0.0138773
0.0138769
0.0138765
0.0138761
0.0138757
0.0138752
0.0138748
0.0138744
0.013874
0.0138736
0.0138732
0.0138728
0.0138723
0.0138719
0.0138715
0.0138711
0.0138707
0.0138703
0.0138699
0.0138694
0.013869
0.0138686
0.0138682
0.0138678
0.0138674
0.0138647
0.0138641
0.0138636
0.013863
0.0138625
0.0138619
0.0138613
0.0138608
0.0138602
0.0138597
0.0138591
0.0138586
0.013858
0.0138575
0.0138569
0.0138563
0.0138558
0.0138552
0.0138547
0.0138541
0.0138536
0.013853
0.0138524
0.0138519
0.0138513
0.0138508
0.0138502
0.0138496
0.0138491
0.0138485
0.0138479
0.0138474
0.0138468
0.0138463
0.0138457
0.0138451
0.0138446
0.013844
0.0138434
0.0138429
0.0138423
0.0138417
0.0138412
0.0138406
0.01384
0.0138395
0.0138389
0.0138383
0.0138377
0.0138372
0.0138366
0.013836
0.0138355
0.0138349
0.0138343
0.0138337
0.0138332
0.0138326
0.013832
0.0138314
0.0138309
0.0138334
0.0138327
0.013832
0.0138312
0.0138305
0.0138297
0.013829
0.0138282
0.0138275
0.0138267
0.013826
0.0138253
0.0138245
0.0138238
0.013823
0.0138223
0.0138215
0.0138208
0.01382
0.0138192
0.0138185
0.0138177
0.013817
0.0138162
0.0138155
0.0138147
0.0138139
0.0138132
0.0138124
0.0138117
0.0138109
0.0138101
0.0138094
0.0138086
0.0138078
0.0138071
0.0138063
0.0138055
0.0138048
0.013804
0.0138032
0.0138025
0.0138017
0.0138009
0.0138002
0.0137994
0.0137986
0.0137978
0.0137971
0.0137963
0.0137955
0.0137947
0.0137939
0.0137932
0.0137924
0.0137916
0.0137908
0.01379
0.0137893
0.0137885
0.0137877
0.0137869
0.0137971
0.0137961
0.0137951
0.0137941
0.0137931
0.0137921
0.0137911
0.0137901
0.013789
0.013788
0.013787
0.013786
0.013785
0.013784
0.013783
0.013782
0.0137809
0.0137799
0.0137789
0.0137779
0.0137769
0.0137758
0.0137748
0.0137738
0.0137728
0.0137717
0.0137707
0.0137697
0.0137686
0.0137676
0.0137666
0.0137655
0.0137645
0.0137635
0.0137624
0.0137614
0.0137603
0.0137593
0.0137582
0.0137572
0.0137562
0.0137551
0.0137541
0.013753
0.013752
0.0137509
0.0137498
0.0137488
0.0137477
0.0137467
0.0137456
0.0137446
0.0137435
0.0137424
0.0137414
0.0137403
0.0137392
0.0137382
0.0137371
0.013736
0.013735
0.0137339
0.0137549
0.0137535
0.0137522
0.0137508
0.0137495
0.0137481
0.0137468
0.0137454
0.013744
0.0137427
0.0137413
0.0137399
0.0137386
0.0137372
0.0137358
0.0137344
0.0137331
0.0137317
0.0137303
0.0137289
0.0137275
0.0137261
0.0137248
0.0137234
0.013722
0.0137206
0.0137192
0.0137178
0.0137164
0.0137149
0.0137135
0.0137121
0.0137107
0.0137093
0.0137079
0.0137065
0.013705
0.0137036
0.0137022
0.0137008
0.0136993
0.0136979
0.0136965
0.013695
0.0136936
0.0136921
0.0136907
0.0136893
0.0136878
0.0136864
0.0136849
0.0136835
0.013682
0.0136805
0.0136791
0.0136776
0.0136762
0.0136747
0.0136732
0.0136718
0.0136703
0.0136688
0.0137057
0.0137039
0.0137021
0.0137002
0.0136984
0.0136966
0.0136947
0.0136929
0.0136911
0.0136892
0.0136874
0.0136855
0.0136836
0.0136818
0.0136799
0.013678
0.0136762
0.0136743
0.0136724
0.0136705
0.0136686
0.0136667
0.0136648
0.0136629
0.013661
0.0136591
0.0136572
0.0136553
0.0136534
0.0136515
0.0136495
0.0136476
0.0136457
0.0136437
0.0136418
0.0136398
0.0136379
0.0136359
0.013634
0.013632
0.0136301
0.0136281
0.0136261
0.0136242
0.0136222
0.0136202
0.0136182
0.0136162
0.0136142
0.0136122
0.0136102
0.0136082
0.0136062
0.0136042
0.0136022
0.0136002
0.0135982
0.0135962
0.0135942
0.0135921
0.0135901
0.0135881
0.0136486
0.0136461
0.0136437
0.0136412
0.0136387
0.0136362
0.0136338
0.0136313
0.0136288
0.0136262
0.0136237
0.0136212
0.0136187
0.0136161
0.0136136
0.013611
0.0136085
0.0136059
0.0136034
0.0136008
0.0135982
0.0135956
0.013593
0.0135904
0.0135878
0.0135852
0.0135825
0.0135799
0.0135773
0.0135746
0.013572
0.0135693
0.0135666
0.013564
0.0135613
0.0135586
0.0135559
0.0135532
0.0135505
0.0135478
0.0135451
0.0135423
0.0135396
0.0135369
0.0135341
0.0135314
0.0135286
0.0135259
0.0135231
0.0135203
0.0135175
0.0135148
0.013512
0.0135092
0.0135064
0.0135036
0.0135008
0.013498
0.0134951
0.0134923
0.0134895
0.0134867
0.0135822
0.0135788
0.0135755
0.0135722
0.0135688
0.0135654
0.013562
0.0135586
0.0135552
0.0135518
0.0135484
0.0135449
0.0135415
0.013538
0.0135345
0.013531
0.0135275
0.013524
0.0135205
0.0135169
0.0135134
0.0135098
0.0135062
0.0135026
0.013499
0.0134953
0.0134917
0.013488
0.0134844
0.0134807
0.013477
0.0134733
0.0134696
0.0134658
0.0134621
0.0134583
0.0134546
0.0134508
0.013447
0.0134432
0.0134394
0.0134355
0.0134317
0.0134279
0.013424
0.0134201
0.0134162
0.0134124
0.0134085
0.0134045
0.0134006
0.0133967
0.0133928
0.0133888
0.0133849
0.0133809
0.0133769
0.0133729
0.013369
0.013365
0.013361
0.013357
0.0135049
0.0135004
0.0134958
0.0134913
0.0134867
0.0134821
0.0134775
0.0134729
0.0134682
0.0134635
0.0134588
0.0134541
0.0134493
0.0134445
0.0134397
0.0134349
0.01343
0.0134252
0.0134202
0.0134153
0.0134103
0.0134053
0.0134003
0.0133953
0.0133902
0.0133851
0.01338
0.0133748
0.0133696
0.0133644
0.0133592
0.0133539
0.0133487
0.0133433
0.013338
0.0133327
0.0133273
0.0133219
0.0133164
0.013311
0.0133055
0.0133
0.0132944
0.0132889
0.0132833
0.0132777
0.0132721
0.0132665
0.0132608
0.0132552
0.0132495
0.0132438
0.013238
0.0132323
0.0132265
0.0132208
0.013215
0.0132092
0.0132035
0.0131977
0.0131918
0.013186
0.0134149
0.0134087
0.0134026
0.0133964
0.0133901
0.0133838
0.0133775
0.0133712
0.0133647
0.0133583
0.0133518
0.0133452
0.0133386
0.0133319
0.0133252
0.0133185
0.0133117
0.0133048
0.0132979
0.0132909
0.0132839
0.0132768
0.0132697
0.0132625
0.0132552
0.0132479
0.0132406
0.0132331
0.0132257
0.0132181
0.0132105
0.0132029
0.0131951
0.0131874
0.0131795
0.0131716
0.0131637
0.0131557
0.0131476
0.0131395
0.0131313
0.0131231
0.0131148
0.0131065
0.0130981
0.0130897
0.0130812
0.0130727
0.0130641
0.0130555
0.0130469
0.0130382
0.0130295
0.0130207
0.0130119
0.0130031
0.0129943
0.0129854
0.0129765
0.0129676
0.0129587
0.0129498
0.0133099
0.0133015
0.0132931
0.0132847
0.0132761
0.0132675
0.0132588
0.01325
0.0132411
0.0132321
0.013223
0.0132139
0.0132046
0.0131952
0.0131858
0.0131762
0.0131665
0.0131567
0.0131468
0.0131368
0.0131267
0.0131164
0.013106
0.0130955
0.0130849
0.0130741
0.0130632
0.0130521
0.013041
0.0130296
0.0130182
0.0130066
0.0129948
0.0129829
0.0129709
0.0129587
0.0129463
0.0129338
0.0129212
0.0129084
0.0128955
0.0128825
0.0128693
0.0128559
0.0128425
0.0128289
0.0128152
0.0128015
0.0127876
0.0127737
0.0127597
0.0127456
0.0127315
0.0127173
0.0127032
0.012689
0.0126749
0.0126608
0.0126467
0.0126327
0.0126187
0.0126049
0.0131874
0.013176
0.0131646
0.013153
0.0131412
0.0131293
0.0131173
0.0131051
0.0130927
0.0130801
0.0130674
0.0130545
0.0130413
0.013028
0.0130145
0.0130007
0.0129867
0.0129725
0.0129581
0.0129433
0.0129283
0.0129131
0.0128975
0.0128817
0.0128655
0.0128491
0.0128323
0.0128152
0.0127977
0.0127799
0.0127616
0.0127431
0.0127241
0.0127048
0.012685
0.0126649
0.0126444
0.0126235
0.0126022
0.0125806
0.0125586
0.0125364
0.0125138
0.0124911
0.0124681
0.012445
0.0124218
0.0123986
0.0123753
0.0123522
0.0123291
0.0123062
0.0122835
0.012261
0.0122388
0.012217
0.0121955
0.0121745
0.0121541
0.0121342
0.0121149
0.0120962
0.0130447
0.0130293
0.0130136
0.0129977
0.0129816
0.0129652
0.0129485
0.0129315
0.0129141
0.0128965
0.0128785
0.0128601
0.0128414
0.0128222
0.0128026
0.0127826
0.012762
0.012741
0.0127194
0.0126972
0.0126745
0.0126511
0.0126271
0.0126023
0.0125768
0.0125506
0.0125235
0.0124956
0.0124668
0.0124371
0.0124064
0.0123748
0.0123422
0.0123087
0.0122742
0.0122388
0.0122026
0.0121657
0.0121282
0.0120901
0.0120518
0.0120132
0.0119746
0.0119362
0.0118982
0.0118606
0.0118239
0.0117882
0.0117536
0.0117204
0.0116887
0.0116585
0.0116299
0.011603
0.0115779
0.0115548
0.0115342
0.0115171
0.0115029
0.0114908
0.0114805
0.0114718
0.0128788
0.0128579
0.0128367
0.012815
0.0127929
0.0127703
0.0127471
0.0127235
0.0126993
0.0126744
0.0126489
0.0126227
0.0125957
0.0125679
0.0125393
0.0125097
0.0124791
0.0124475
0.0124147
0.0123807
0.0123454
0.0123086
0.0122704
0.0122305
0.0121889
0.0121455
0.0121001
0.0120527
0.0120033
0.0119517
0.0118979
0.0118421
0.0117843
0.0117248
0.0116639
0.0116018
0.0115391
0.0114763
0.0114139
0.0113526
0.011293
0.0112358
0.0111814
0.0111306
0.0110838
0.0110422
0.0110082
0.0109801
0.0109572
0.0109393
0.0109261
0.0109176
0.0109136
0.0109143
0.0109197
0.0109297
0.0109441
0.0109625
0.0109842
0.0110081
0.0110322
0.0110591
0.0126865
0.0126584
0.0126298
0.0126004
0.0125703
0.0125394
0.0125076
0.0124748
0.0124411
0.0124062
0.0123702
0.0123328
0.012294
0.0122537
0.0122118
0.012168
0.0121223
0.0120744
0.0120242
0.0119715
0.011916
0.0118576
0.0117959
0.0117308
0.011662
0.0115893
0.0115124
0.0114314
0.0113462
0.0112571
0.0111643
0.0110687
0.0109713
0.0108732
0.010776
0.0106814
0.0105911
0.0105071
0.0104315
0.0103693
0.010319
0.0102801
0.0102532
0.0102384
0.0102358
0.0102458
0.0102688
0.0103046
0.0103528
0.010412
0.01048
0.010555
0.0106411
0.01074
0.0108539
0.0109774
0.0111111
0.0112525
0.011399
0.0115498
0.0117043
0.0118618
0.0124653
0.0124279
0.0123896
0.0123502
0.0123096
0.0122677
0.0122244
0.0121795
0.0121329
0.0120845
0.0120339
0.0119812
0.0119259
0.011868
0.011807
0.0117428
0.011675
0.0116032
0.0115271
0.0114463
0.0113602
0.0112685
0.0111706
0.0110661
0.0109546
0.0108359
0.0107099
0.0105771
0.0104383
0.0102954
0.0101507
0.0100079
0.00987099
0.00974476
0.00963639
0.0095507
0.00948713
0.00944845
0.00943657
0.00945284
0.00949978
0.00957762
0.00968492
0.00981782
0.00997095
0.0101567
0.0103717
0.0106106
0.0108716
0.0111516
0.0114468
0.0117556
0.0120735
0.0123976
0.0127271
0.0130609
0.0133974
0.0137353
0.0140747
0.0144155
0.014756
0.0150967
0.0122117
0.0121626
0.0121121
0.01206
0.012006
0.0119501
0.0118919
0.0118313
0.011768
0.0117017
0.0116322
0.011559
0.0114819
0.0114003
0.0113138
0.0112219
0.0111241
0.0110196
0.0109078
0.010788
0.0106593
0.0105211
0.0103725
0.0102129
0.0100421
0.00986041
0.00966922
0.00947141
0.00927208
0.00907814
0.00889938
0.00875158
0.00863849
0.00856873
0.0085503
0.00858814
0.00868767
0.00884821
0.00906467
0.00932913
0.00966347
0.0100515
0.0104848
0.0109472
0.0114377
0.0119496
0.0124813
0.013032
0.0135985
0.0141777
0.0147667
0.0153599
0.0159496
0.0165325
0.017113
0.0176875
0.0182515
0.0188032
0.0193415
0.0198654
0.020374
0.0208665
0.0119225
0.0118589
0.0117933
0.0117254
0.0116548
0.0115815
0.0115049
0.0114248
0.0113407
0.0112524
0.0111592
0.0110607
0.0109563
0.0108454
0.0107272
0.0106009
0.0104657
0.0103206
0.0101645
0.00999639
0.00981495
0.00961914
0.00940807
0.00918152
0.00894047
0.00868806
0.00843086
0.00817984
0.00795544
0.00777328
0.0076527
0.00761562
0.00767841
0.00785123
0.00813283
0.00850938
0.00900395
0.00958515
0.0102296
0.010937
0.0116973
0.0124963
0.0133205
0.0141551
0.0149916
0.0158232
0.0166446
0.017451
0.018239
0.0190056
0.0197484
0.0204657
0.021156
0.0218183
0.0224525
0.0230585
0.0236367
0.0241872
0.0247103
0.0252066
0.0256762
0.0261195
0.011595
0.0115124
0.0114286
0.0113418
0.0112516
0.0111576
0.0110592
0.0109562
0.0108479
0.0107338
0.0106133
0.0104856
0.0103501
0.0102058
0.0100518
0.00988703
0.0097103
0.00952029
0.00931555
0.00909454
0.00885573
0.00859789
0.00832067
0.00802576
0.0077186
0.00741088
0.0071247
0.00688197
0.00672166
0.00668772
0.00681512
0.00712202
0.00760521
0.00825627
0.00905616
0.00996119
0.010951
0.0119926
0.0130612
0.0141368
0.0152046
0.016253
0.0172733
0.018259
0.0192054
0.0201096
0.0209699
0.0217859
0.0225577
0.0232861
0.0239723
0.0246177
0.025224
0.0257928
0.0263261
0.0268254
0.0272924
0.0277285
0.0281351
0.0285137
0.0288638
0.0291834
0.0112298
0.011124
0.011016
0.0109067
0.0107941
0.0106766
0.0105539
0.0104253
0.0102903
0.0101482
0.0099983
0.00983977
0.00967173
0.00949316
0.00930292
0.00909972
0.00888211
0.00864846
0.00839697
0.00812576
0.00783312
0.00751821
0.00718273
0.00683433
0.00649017
0.00616836
0.00591499
0.00579796
0.00588699
0.00622895
0.00683013
0.00767012
0.00871852
0.00990217
0.0111685
0.0124697
0.0137707
0.0150464
0.0162791
0.0174573
0.018574
0.0196259
0.0206121
0.0215335
0.0223924
0.0231917
0.0239347
0.0246247
0.0252651
0.0258589
0.0264087
0.026917
0.0273861
0.0278192
0.0282189
0.0285871
0.0289245
0.0292315
0.029508
0.0297534
0.0299685
0.0301552
0.0108254
0.0106937
0.0105593
0.010422
0.0102829
0.01014
0.00999105
0.00983558
0.00967296
0.00950251
0.0093235
0.0091351
0.00893635
0.00872618
0.00850334
0.00826641
0.00801377
0.00774356
0.00745374
0.0071422
0.00680729
0.00644938
0.00607524
0.0057025
0.00535018
0.00508008
0.00499269
0.00518474
0.00570461
0.00654807
0.00768995
0.0090355
0.0105027
0.0120051
0.0134879
0.0149164
0.0162701
0.0175383
0.0187175
0.0198082
0.0208137
0.0217384
0.0225871
0.0233653
0.0240782
0.0247311
0.0253287
0.0258755
0.0263753
0.0268313
0.0272463
0.0276225
0.027962
0.0282666
0.0285376
0.0287772
0.0289878
0.0291721
0.029332
0.0294686
0.0295821
0.0296726
0.010381
0.0102207
0.0100575
0.00989121
0.00972203
0.0095511
0.00937559
0.00919348
0.00900425
0.00880732
0.008602
0.00838749
0.00816288
0.00792708
0.00767883
0.00741668
0.00713892
0.0068436
0.00652856
0.00619161
0.00583138
0.00545019
0.00506305
0.00468925
0.00438332
0.00427358
0.00449895
0.00509733
0.00604333
0.00733478
0.00885348
0.0104899
0.0121267
0.0137021
0.0151839
0.0165576
0.0178185
0.0189691
0.0200155
0.0209654
0.0218266
0.0226063
0.0233103
0.0239452
0.0245174
0.0250328
0.0254965
0.0259131
0.0262861
0.0266187
0.0269123
0.0271683
0.0273877
0.0275735
0.0277321
0.0278663
0.0279774
0.0280664
0.0281342
0.0281813
0.0282081
0.0282146
0.00989722
0.00970569
0.00951213
0.00931616
0.0091176
0.00891682
0.00871556
0.00850869
0.00829577
0.00807629
0.00784964
0.00761507
0.0073717
0.00711848
0.00685418
0.00657737
0.00628638
0.00597929
0.00565399
0.00530838
0.00494143
0.00455726
0.00417803
0.00383529
0.00364023
0.00379327
0.00438257
0.00529331
0.00651179
0.00806096
0.00976767
0.0114813
0.0131162
0.0146341
0.0160232
0.0172836
0.0184165
0.0194313
0.0203394
0.021152
0.0218791
0.0225307
0.0231058
0.0236136
0.0240622
0.0244577
0.0248051
0.0251084
0.0253708
0.0255945
0.0257809
0.0259307
0.0260486
0.0261415
0.0262104
0.0262564
0.0262804
0.0262831
0.0262652
0.0262272
0.0261694
0.0260925
0.00937554
0.00915109
0.00892654
0.00870135
0.00847516
0.00824792
0.00802044
0.00779293
0.00756125
0.00732501
0.00708367
0.0068365
0.00658266
0.00632112
0.00605067
0.00576997
0.00547746
0.00517139
0.00484987
0.00451109
0.00415437
0.00378495
0.0034308
0.00314695
0.0031128
0.00356823
0.00443861
0.00546834
0.00679075
0.00841889
0.010168
0.0118592
0.0134234
0.0148423
0.0161194
0.0172675
0.0182768
0.0191644
0.0199471
0.0206371
0.0212446
0.0217778
0.022243
0.0226469
0.0229957
0.0232947
0.0235482
0.0237598
0.0239322
0.0240674
0.0241667
0.0242321
0.024271
0.0242841
0.0242721
0.0242354
0.0241744
0.0240894
0.0239809
0.0238494
0.0236958
0.0235215
0.00881887
0.00856085
0.00830595
0.00805345
0.00780277
0.00755357
0.00730606
0.00706213
0.00681712
0.00657052
0.00632164
0.00606967
0.00581365
0.00555251
0.00528505
0.00500999
0.00472593
0.00443139
0.00412486
0.00380498
0.00347156
0.00313007
0.00281121
0.00260129
0.00274335
0.00346513
0.00448697
0.00547029
0.00671746
0.00834831
0.0100775
0.0117029
0.0131759
0.0144898
0.0156533
0.0166789
0.0175767
0.0183602
0.0190426
0.0196354
0.0201488
0.0205913
0.02097
0.0212913
0.0215608
0.0217834
0.0219629
0.0221027
0.022205
0.0222719
0.0223044
0.0223068
0.0222797
0.0222234
0.0221378
0.0220224
0.0218766
0.0216997
0.021491
0.0212505
0.0209792
0.0206805
0.00823146
0.00794052
0.00765743
0.00738108
0.00711054
0.00684504
0.0065843
0.00632976
0.00607804
0.00582819
0.00557919
0.00532997
0.0050794
0.00482628
0.0045694
0.00430752
0.00403942
0.00376391
0.00347997
0.00318686
0.00288499
0.00257964
0.00229903
0.00216252
0.00245798
0.00337417
0.00445817
0.00531582
0.00638895
0.00792416
0.00955659
0.0110996
0.0124886
0.0137145
0.0147869
0.0157199
0.0165278
0.0172249
0.0178243
0.0183378
0.0187757
0.0191464
0.0194574
0.0197148
0.019924
0.0200892
0.0202141
0.0203015
0.0203537
0.0203729
0.0203606
0.0203163
0.0202391
0.0201283
0.0199827
0.0198004
0.0195793
0.0193163
0.0190085
0.0186535
0.0182516
0.0178105
0.00761881
0.00729715
0.00698966
0.00669449
0.00640999
0.00613477
0.00586771
0.00560849
0.00535774
0.00511193
0.0048698
0.00463004
0.00439129
0.00415226
0.00391165
0.00366828
0.00342108
0.00316917
0.00291199
0.0026495
0.00238298
0.00211791
0.00187974
0.00179821
0.00220029
0.00324004
0.00429987
0.00499328
0.00584217
0.00723406
0.00876487
0.0102284
0.0115416
0.0126902
0.0136838
0.014538
0.015269
0.0158923
0.0164218
0.0168698
0.0172467
0.0175612
0.0178206
0.0180308
0.0181967
0.0183223
0.0184107
0.0184644
0.0184856
0.0184758
0.0184371
0.018367
0.0182608
0.0181174
0.017935
0.0177107
0.017441
0.0171213
0.0167467
0.0163128
0.0158193
0.0152799
0.00698758
0.0066391
0.00631262
0.00600494
0.00571338
0.0054356
0.00516965
0.00491425
0.0046702
0.00443427
0.00420461
0.0039795
0.00375734
0.00353667
0.00331613
0.00309455
0.00287098
0.00264477
0.0024158
0.00218475
0.00195393
0.00172979
0.00153623
0.00148617
0.00193726
0.00302518
0.0040335
0.00458941
0.00519834
0.00639675
0.00781472
0.0092015
0.0104457
0.0115245
0.0124471
0.0132308
0.0138935
0.0144522
0.0149219
0.0153154
0.0156432
0.0159143
0.0161355
0.0163127
0.0164502
0.0165517
0.0166197
0.0166564
0.0166632
0.0166414
0.0165918
0.0165151
0.0164027
0.0162516
0.0160599
0.0158247
0.0155425
0.015209
0.0148199
0.0143718
0.0138653
0.0133114
0.00634539
0.0059757
0.00563699
0.00532408
0.00503278
0.00475961
0.00450164
0.00425677
0.00402511
0.00380404
0.0035912
0.00338451
0.00318215
0.0029825
0.00278416
0.00258594
0.00238698
0.00218682
0.00198568
0.00178496
0.00158826
0.00140395
0.00125604
0.00124019
0.00166885
0.00273202
0.00371906
0.00417718
0.00463184
0.00549952
0.00678734
0.00809632
0.00927592
0.01029
0.0111467
0.0118651
0.0124654
0.0129662
0.0133836
0.013731
0.0140191
0.0142568
0.0144507
0.0146062
0.0147273
0.014817
0.0148776
0.0149105
0.0149168
0.0148969
0.0148509
0.0147781
0.0146771
0.0145406
0.0143635
0.0141447
0.0138808
0.0135694
0.0132077
0.012795
0.0123344
0.0118362
0.00570046
0.00531676
0.00497365
0.00466318
0.00437934
0.00411734
0.00387328
0.00364424
0.00342956
0.0032271
0.00303408
0.00284817
0.00266739
0.00249003
0.00231465
0.00214007
0.00196548
0.00179054
0.00161582
0.00144354
0.00127911
0.00113402
0.00103475
0.0010556
0.00140061
0.00239382
0.00337571
0.00376145
0.00404976
0.00460494
0.00574312
0.00696825
0.00808501
0.0090376
0.00983127
0.0104876
0.0110292
0.0114767
0.0118472
0.0121547
0.0124101
0.0126218
0.0127963
0.0129384
0.0130517
0.0131386
0.0132009
0.0132397
0.0132553
0.0132477
0.0132163
0.0131599
0.0130766
0.0129639
0.0128189
0.012636
0.0124115
0.012145
0.0118355
0.0114838
0.011094
0.0106747
0.00506137
0.00467217
0.00433293
0.0040324
0.00376257
0.00351732
0.00329183
0.00308249
0.00288803
0.00270657
0.00253505
0.00237101
0.00221239
0.00205746
0.00190478
0.00175319
0.0016019
0.00145073
0.00130064
0.00115513
0.00102261
0.000919536
0.000872117
0.00090852
0.00118642
0.00205771
0.00300899
0.0033688
0.00353896
0.00389994
0.0047292
0.00585732
0.0069101
0.00780292
0.00853501
0.00913077
0.00961597
0.0100131
0.0103405
0.0106125
0.0108399
0.0110308
0.0111911
0.0113252
0.0114361
0.0115258
0.0115956
0.0116459
0.0116767
0.0116877
0.0116779
0.0116457
0.0115894
0.0115068
0.0113957
0.011254
0.0110807
0.0108726
0.0106282
0.0103488
0.0100388
0.00970373
0.00443668
0.00405127
0.00372409
0.00344028
0.0031899
0.00296567
0.00276203
0.00257487
0.00240252
0.00224318
0.00209369
0.00195156
0.00181474
0.00168153
0.00155055
0.00142066
0.00129115
0.00116205
0.00103504
0.000916054
0.000818683
0.000762836
0.000743513
0.000794174
0.00104151
0.0017331
0.00262508
0.0029993
0.00308938
0.00328034
0.00377782
0.00479279
0.00577696
0.00661089
0.00728193
0.00781769
0.00824757
0.00859618
0.00888292
0.00912224
0.0093247
0.00949788
0.00964712
0.00977615
0.00988743
0.00998249
0.0100621
0.0101264
0.0101752
0.0102075
0.0102223
0.0102181
0.0101931
0.0101455
0.0100736
0.00997606
0.00985181
0.00969989
0.00952145
0.00931736
0.00908858
0.00883726
0.0038346
0.00346246
0.00315479
0.00289331
0.00266647
0.00246614
0.00228628
0.00212237
0.00197286
0.00183573
0.00170788
0.00158688