/*--------------------------------*- C++ -*----------------------------------*\
  =========                 |
  \\      /  F ield         | OpenFOAM: The Open Source CFD Toolbox
   \\    /   O peration     | Website:  https://openfoam.org
    \\  /    A nd           | Version:  9
     \\/     M anipulation  |
\*---------------------------------------------------------------------------*/
FoamFile
{
    format      ascii;
    class       surfaceScalarField;
    location    "0.008099";
    object      phi;
}
// * * * * * * * * * * * * * * * * * * * * * * * * * * * * * * * * * * * * * //

dimensions      [1 0 -1 0 0 0 0];

internalField   nonuniform List<scalar> 
12471
(
0.00243529
6.4738e-05
0.00232181
0.000113479
0.00220537
0.000116439
0.00209419
0.000111179
0.00199031
0.000103881
0.00190371
8.66024e-05
0.00184226
6.14438e-05
0.00179797
4.4297e-05
0.00175742
4.05484e-05
0.00171519
4.22296e-05
0.00167076
4.44267e-05
0.00162615
4.46023e-05
0.00158425
4.19005e-05
0.00154748
3.67658e-05
0.00151565
3.18366e-05
0.00148358
3.2075e-05
0.00143697
4.66114e-05
0.000100425
0.00249164
7.31056e-05
0.00247148
0.000133642
0.00244608
0.000141839
0.0024192
0.000138058
0.0023917
0.000131378
0.00236005
0.000118258
0.00232192
9.95726e-05
0.00228442
8.17944e-05
0.00225167
7.32945e-05
0.00222298
7.09196e-05
0.00219666
7.07447e-05
0.0021714
6.98612e-05
0.00214678
6.65177e-05
0.0021232
6.03502e-05
0.00210161
5.3426e-05
0.00208273
5.09528e-05
0.00206451
6.48325e-05
0.000113445
0.00250331
6.97954e-05
0.00250742
0.000129535
0.00250753
0.000141724
0.00250519
0.0001404
0.0025005
0.000136069
0.00249115
0.00012761
0.00247454
0.000116176
0.00245359
0.000102747
0.00243315
9.37392e-05
0.00241505
8.90197e-05
0.00239938
8.64139e-05
0.00238536
8.38737e-05
0.0023721
7.97818e-05
0.00235931
7.31387e-05
0.00234764
6.50985e-05
0.00233924
5.93512e-05
0.00233647
6.75989e-05
0.00234826
0.000101657
0.000220928
0.00250793
6.18664e-05
0.00252129
0.000116172
0.00253276
0.000130253
0.00254198
0.000131182
0.00254914
0.000128907
0.00255316
0.000123594
0.00255252
0.000116816
0.00254746
0.000107808
0.0025405
0.000100699
0.00253359
9.5922e-05
0.00252761
9.23906e-05
0.00252254
8.89485e-05
0.00251776
8.45545e-05
0.00251273
7.81738e-05
0.00250762
7.02037e-05
0.00250435
6.26249e-05
0.00250673
6.52193e-05
0.00252152
8.68753e-05
0.000167903
0.0025098
5.20599e-05
0.00252709
9.88878e-05
0.00254411
0.000113234
0.0025595
0.000115793
0.00257319
0.000115211
0.00258483
0.000111955
0.0025941
0.000107545
0.00260033
0.000101577
0.00260447
9.65603e-05
0.00260754
9.28576e-05
0.00260996
8.99612e-05
0.00261162
8.72898e-05
0.00261235
8.3825e-05
0.0026121
7.84257e-05
0.0026112
7.11022e-05
0.00261118
6.26449e-05
0.00261591
6.0495e-05
0.002631
7.17807e-05
0.00267509
0.000123817
0.000278912
0.00251035
4.17054e-05
0.00252923
8.00071e-05
0.00254905
9.34169e-05
0.00256783
9.7007e-05
0.00258532
9.77231e-05
0.00260132
9.59611e-05
0.00261612
9.27392e-05
0.00262904
8.86571e-05
0.00264027
8.5326e-05
0.00265016
8.29688e-05
0.00265871
8.14118e-05
0.00266568
8.03152e-05
0.00267108
7.84291e-05
0.00267511
7.43944e-05
0.00267818
6.80335e-05
0.00268143
5.93949e-05
0.00268816
5.37616e-05
0.00270346
5.64826e-05
0.00274142
8.58584e-05
0.000184824
0.00251024
3.14567e-05
0.00252952
6.07278e-05
0.00255061
7.2328e-05
0.00257117
7.64442e-05
0.0025908
7.80967e-05
0.00260925
7.75102e-05
0.00262692
7.50686e-05
0.00264338
7.22006e-05
0.00265856
7.01444e-05
0.0026725
6.90275e-05
0.00268516
6.87576e-05
0.0026964
6.90751e-05
0.00270608
6.87422e-05
0.00271416
6.63118e-05
0.00272082
6.13743e-05
0.00272683
5.33939e-05
0.00273491
4.56778e-05
0.0027492
4.21951e-05
0.00278012
5.49347e-05
0.000114566
0.00285038
0.00250983
2.16196e-05
0.00252882
4.17422e-05
0.00255022
5.09211e-05
0.00257153
5.51372e-05
0.00259217
5.74586e-05
0.00261186
5.78216e-05
0.00263092
5.60064e-05
0.00264912
5.4001e-05
0.00266638
5.28839e-05
0.00268264
5.27697e-05
0.00269788
5.35162e-05
0.00271205
5.49007e-05
0.00272491
5.58837e-05
0.00273616
5.50609e-05
0.00274571
5.18225e-05
0.00275396
4.51479e-05
0.00276302
3.66139e-05
0.00277615
2.90631e-05
0.00280109
3.00009e-05
6.07926e-05
0.00285486
0.00250928
1.23327e-05
0.00252756
2.34582e-05
0.00254875
2.9739e-05
0.00257033
3.35551e-05
0.00259145
3.63412e-05
0.00261166
3.76076e-05
0.00263119
3.64797e-05
0.00264994
3.52474e-05
0.00266797
3.48574e-05
0.00268531
3.54224e-05
0.00270197
3.68561e-05
0.00271785
3.90257e-05
0.00273268
4.10576e-05
0.00274607
4.1669e-05
0.00275778
4.01074e-05
0.00276791
3.50182e-05
0.00277786
2.66636e-05
0.00279012
1.68118e-05
0.00281
1.01155e-05
2.07791e-05
0.00285002
0.00250867
3.65085e-06
0.00252601
6.12351e-06
0.00254654
9.20502e-06
0.00256792
1.21772e-05
0.00258914
1.51256e-05
0.0026096
1.71451e-05
0.00262932
1.67536e-05
0.00264834
1.62369e-05
0.00266671
1.64861e-05
0.00268446
1.76716e-05
0.00270158
1.97321e-05
0.00271802
2.25872e-05
0.00273358
2.54986e-05
0.00274801
2.72353e-05
0.00276109
2.70295e-05
0.00277256
2.35514e-05
0.00278309
1.61293e-05
0.00279449
5.4177e-06
0.00281016
-5.56197e-06
-9.35715e-06
0.0028403
0.00250805
-4.40457e-06
0.00252431
-1.01367e-05
0.00254386
-1.03477e-05
0.00256457
-8.53098e-06
0.00258543
-5.73444e-06
0.0026058
-3.22867e-06
0.00262547
-2.91698e-06
0.00264451
-2.80255e-06
0.00266301
-2.01106e-06
0.00268097
-2.89723e-07
0.00269838
2.32067e-06
0.00271519
5.78206e-06
0.00273121
9.4799e-06
0.00274618
1.22595e-05
0.00275988
1.33329e-05
0.00277196
1.14754e-05
0.00278264
5.4512e-06
0.00279324
-5.18545e-06
0.00280624
-1.85639e-05
-3.13311e-05
0.00282822
0.00250743
-1.18404e-05
0.00252253
-2.52365e-05
0.0025408
-2.86177e-05
0.00256038
-2.81097e-05
0.00258035
-2.57071e-05
0.00260011
-2.29921e-05
0.00261926
-2.20681e-05
0.00263791
-2.14449e-05
0.00265614
-2.0246e-05
0.00267399
-1.81407e-05
0.00269145
-1.51334e-05
0.00270844
-1.12172e-05
0.00272482
-6.89559e-06
0.00274029
-3.20814e-06
0.00275453
-9.12177e-07
0.00276708
-1.06959e-06
0.00277775
-5.21667e-06
0.00278735
-1.4787e-05
0.00279781
-2.90226e-05
-4.73546e-05
0.00281383
0.00250682
-1.86672e-05
0.00252067
-3.90847e-05
0.00253737
-4.53216e-05
0.0025553
-4.60377e-05
0.0025737
-4.41028e-05
0.00259211
-4.1407e-05
0.00261002
-3.99754e-05
0.00262756
-3.89866e-05
0.00264485
-3.75391e-05
0.00266192
-3.52052e-05
0.00267876
-3.19731e-05
0.00269532
-2.77762e-05
0.00271143
-2.30132e-05
0.00272686
-1.86291e-05
0.00274126
-1.53192e-05
0.00275409
-1.38944e-05
0.00276476
-1.58874e-05
0.00277342
-2.34495e-05
0.00278104
-3.66363e-05
-5.72589e-05
0.00279094
0.0025062
-2.48728e-05
0.00251865
-5.15399e-05
0.00253351
-6.01722e-05
0.00254939
-6.19175e-05
0.00256578
-6.04984e-05
0.00258237
-5.79914e-05
0.00259864
-5.6248e-05
0.00261467
-5.50199e-05
0.00263059
-5.34598e-05
0.00264645
-5.10622e-05
0.00266228
-4.78017e-05
0.00267801
-4.35072e-05
0.00269346
-3.84634e-05
0.0027084
-3.35707e-05
0.00272251
-2.94291e-05
0.00273516
-2.65406e-05
0.00274553
-2.6261e-05
0.00275326
-3.11779e-05
0.00275884
-4.22201e-05
-6.31199e-05
0.00276471
0.00250551
-3.03899e-05
0.00251633
-6.23617e-05
0.0025289
-7.2738e-05
0.00254218
-7.51949e-05
0.00255598
-7.43018e-05
0.00257014
-7.21471e-05
0.00258421
-7.0325e-05
0.0025982
-6.90031e-05
0.00261219
-6.7448e-05
0.00262627
-6.51489e-05
0.00264058
-6.21073e-05
0.002655
-5.79322e-05
0.00266928
-5.27403e-05
0.00268321
-4.75031e-05
0.00269648
-4.27002e-05
0.00270842
-3.84737e-05
0.00271801
-3.58508e-05
0.00272442
-3.75909e-05
0.00272729
-4.50925e-05
-6.49234e-05
0.0027291
0.00250463
-3.50275e-05
0.00251336
-7.10838e-05
0.00252291
-8.22957e-05
0.00253273
-8.50052e-05
0.00254302
-8.45929e-05
0.00255378
-8.29064e-05
0.00256474
-8.12873e-05
0.00257581
-8.00797e-05
0.00258706
-7.86917e-05
0.0025986
-7.66921e-05
0.00261066
-7.41625e-05
0.00262305
-7.03253e-05
0.00263537
-6.50585e-05
0.00264734
-5.94703e-05
0.00265859
-5.39577e-05
0.00266858
-4.84583e-05
0.00267634
-4.36082e-05
0.00268078
-4.20338e-05
0.00268128
-4.55957e-05
-6.21986e-05
0.00267856
0.00250328
-3.83071e-05
0.00250891
-7.67196e-05
0.0025141
-8.7482e-05
0.00251903
-8.99313e-05
0.00252428
-8.9849e-05
0.00252995
-8.85727e-05
0.00253602
-8.73568e-05
0.00254235
-8.64104e-05
0.00254909
-8.54355e-05
0.00255657
-8.41637e-05
0.00256507
-8.26707e-05
0.00257437
-7.96185e-05
0.00258369
-7.43785e-05
0.00259219
-6.79733e-05
0.00259942
-6.11865e-05
0.00260523
-5.42648e-05
0.00260921
-4.75877e-05
0.00261042
-4.32427e-05
0.00260734
-4.252e-05
-5.39925e-05
0.00259914
0.00250064
-3.89461e-05
0.00250081
-7.6884e-05
0.0024989
-8.55744e-05
0.00249627
-8.73081e-05
0.00249354
-8.71136e-05
0.00249111
-8.61408e-05
0.00248866
-8.49124e-05
0.00248582
-8.35678e-05
0.00248326
-8.28773e-05
0.00248194
-8.28443e-05
0.00248249
-8.32137e-05
0.00248467
-8.18006e-05
0.00248716
-7.68693e-05
0.00248852
-6.93346e-05
0.00248884
-6.15067e-05
0.00248861
-5.40338e-05
0.00248812
-4.70989e-05
0.00248621
-4.13329e-05
0.00248114
-3.74448e-05
-4.08911e-05
0.00246804
0.00249406
-3.29946e-05
0.00248139
-6.42217e-05
0.00246539
-6.9569e-05
0.00244834
-7.02611e-05
0.00243078
-6.95509e-05
0.00241374
-6.90961e-05
0.0023955
-6.66799e-05
0.00237553
-6.35912e-05
0.00235528
-6.26286e-05
0.00233566
-6.32215e-05
0.00231704
-6.45936e-05
0.00229897
-6.37373e-05
0.00228123
-5.91223e-05
0.00226382
-5.19294e-05
0.00224781
-4.54991e-05
0.00223376
-3.99799e-05
0.00222162
-3.49541e-05
0.00220855
-2.82699e-05
0.00218941
-1.82955e-05
-1.47005e-05
0.00216322
0.00246703
0.00240281
0.00233324
0.00226298
0.00219343
0.00212433
0.00205765
0.00199406
0.00193143
0.00186821
0.00180362
0.00173988
0.00168076
0.00162883
0.00158333
0.00154335
0.0015084
0.00148013
0.00146183
0.00144713
-6.24989e-05
0.00288886
-9.64902e-05
-0.000365913
0.00287607
-0.000122541
0.00288524
-0.000375081
-0.000550656
0.00286131
-0.00014355
0.00286224
-0.000376011
-0.000537501
0.00284418
-0.000159511
0.00283939
-0.000371217
0.00281827
-0.000516387
-0.000613181
0.00282549
-0.000171164
0.00281509
-0.000360824
0.00278727
-0.00048856
-0.00057289
0.00279718
-0.000177404
0.00278091
-0.000344551
0.00274651
-0.00045416
0.00269911
-0.000525489
-0.000559878
0.00276519
-0.000177882
0.00274252
-0.000321883
0.00270125
-0.000412896
0.00264664
-0.000470872
0.00258359
-0.000496826
-0.000494511
0.00272412
-0.000172905
0.00269395
-0.000291706
0.00264484
-0.000363794
0.00258219
-0.000408214
0.00251092
-0.000425562
-0.000419587
0.00266638
-0.000160729
0.00262708
-0.000252405
0.00256896
-0.000305671
0.00249731
-0.000336567
0.00241743
-0.000345678
-0.000336797
0.00257842
-0.000140016
0.00252749
-0.000201472
0.00245828
-0.000236464
0.00237672
-0.000255
0.00228853
-0.000257489
0.00219914
-0.00024741
-0.000226244
0.00243121
-0.000103183
0.00236362
-0.000133884
0.00228023
-0.00015308
0.002188
-0.000162768
0.00209287
-0.000162357
0.00199959
-0.000154129
-0.000138125
0.00211804
-5.80063e-05
0.00204339
-5.92306e-05
0.00195686
-6.65567e-05
0.00186436
-7.02678e-05
0.00177172
-6.97148e-05
0.00168275
-6.51557e-05
0.00160078
-5.61553e-05
-4.49547e-05
0.00138912
0.00132989
0.00126334
0.00119307
0.00112335
0.0010582
0.00100204
4.7296
-0.00166434
-4.73034
4.72887
-0.00166794
4.72814
-0.00167153
4.72741
-0.00167511
4.7267
-0.0016787
4.72599
-0.00168227
4.72528
-0.00168584
4.72459
-0.0016894
4.7239
-0.00169295
4.72321
-0.00169649
4.72253
-0.00170002
4.72186
-0.00170355
4.7212
-0.00170707
4.72054
-0.00171057
4.71989
-0.00171408
4.71924
-0.00171757
4.7186
-0.00172106
4.71796
-0.00172454
4.71733
-0.00172801
4.71671
-0.00173147
4.71609
-0.00173493
4.71548
-0.00173838
4.71487
-0.00174182
4.71427
-0.00174526
4.71368
-0.00174869
4.71309
-0.00175211
4.7125
-0.00175552
4.71192
-0.00175893
4.71135
-0.00176234
4.71078
-0.00176574
4.71022
-0.00176914
4.70966
-0.00177254
4.7091
-0.00177593
4.70855
-0.00177932
4.70801
-0.0017827
4.70747
-0.00178607
4.70694
-0.00178944
4.70641
-0.0017928
4.70589
-0.00179615
4.70537
-0.0017995
4.70485
-0.00180284
4.70434
-0.00180617
4.70384
-0.0018095
4.70334
-0.00181282
4.70284
-0.00181614
4.70235
-0.00181945
4.70186
-0.00182275
4.70138
-0.00182605
4.7009
-0.00182934
4.70042
-0.00183262
4.69995
-0.0018359
4.69949
-0.00183917
4.69903
-0.00184244
4.69857
-0.0018457
4.69812
-0.00184895
4.69767
-0.0018522
4.69722
-0.00185544
4.69678
-0.00185868
4.69634
-0.00186191
4.69591
-0.00186513
-0.00186835
3.94012
-0.00141547
-3.94037
3.93987
-0.00142245
3.93963
-0.0014293
3.93939
-0.00143608
3.93915
-0.00144282
3.93892
-0.00144952
3.93869
-0.00145618
3.93846
-0.0014628
3.93824
-0.00146939
3.93802
-0.00147593
3.9378
-0.00148244
3.93759
-0.00148891
3.93738
-0.00149534
3.93717
-0.00150173
3.93696
-0.00150809
3.93676
-0.0015144
3.93656
-0.00152067
3.93636
-0.0015269
3.93617
-0.00153309
3.93597
-0.00153925
3.93578
-0.00154537
3.9356
-0.00155146
3.93541
-0.00155752
3.93523
-0.00156354
3.93505
-0.00156953
3.93488
-0.00157549
3.9347
-0.00158141
3.93453
-0.0015873
3.93436
-0.00159316
3.93419
-0.00159901
3.93403
-0.00160483
3.93387
-0.00161064
3.93371
-0.00161641
3.93355
-0.00162215
3.9334
-0.00162786
3.93324
-0.00163353
3.93309
-0.00163918
3.93295
-0.0016448
3.9328
-0.00165039
3.93266
-0.00165595
3.93251
-0.00166148
3.93238
-0.00166698
3.93224
-0.00167245
3.9321
-0.00167789
3.93197
-0.00168331
3.93184
-0.0016887
3.93171
-0.00169406
3.93158
-0.00169939
3.93146
-0.00170469
3.93134
-0.00170997
3.93122
-0.00171522
3.9311
-0.00172045
3.93098
-0.00172564
3.93087
-0.00173082
3.93075
-0.00173596
3.93064
-0.00174108
3.93053
-0.00174618
3.93043
-0.00175125
3.93032
-0.00175629
3.93022
-0.00176131
-0.00176631
3.4125
-0.00160483
-3.41231
3.41269
-0.00161047
3.41287
-0.00161512
3.41306
-0.00161967
3.41324
-0.0016242
3.41342
-0.00162873
3.41359
-0.00163325
3.41377
-0.00163777
3.41394
-0.00164229
3.41411
-0.0016468
3.41428
-0.0016513
3.41445
-0.00165581
3.41461
-0.0016603
3.41478
-0.00166479
3.41494
-0.00166928
3.4151
-0.00167375
3.41525
-0.00167821
3.41541
-0.00168265
3.41556
-0.00168709
3.41572
-0.00169152
3.41587
-0.00169594
3.41602
-0.00170035
3.41616
-0.00170475
3.41631
-0.00170914
3.41645
-0.00171352
3.41659
-0.00171788
3.41674
-0.00172223
3.41687
-0.00172656
3.41701
-0.00173088
3.41715
-0.00173525
3.41728
-0.00173966
3.41742
-0.00174406
3.41755
-0.00174847
3.41768
-0.00175287
3.41781
-0.00175726
3.41794
-0.00176164
3.41806
-0.00176602
3.41819
-0.00177039
3.41831
-0.00177475
3.41844
-0.0017791
3.41856
-0.00178345
3.41868
-0.00178779
3.4188
-0.00179212
3.41892
-0.00179645
3.41904
-0.00180076
3.41915
-0.00180507
3.41927
-0.00180937
3.41938
-0.00181366
3.41949
-0.00181795
3.41961
-0.00182223
3.41972
-0.00182657
3.41983
-0.00183091
3.41994
-0.00183524
3.42005
-0.00183955
3.42015
-0.00184385
3.42026
-0.00184813
3.42037
-0.00185239
3.42047
-0.00185664
3.42058
-0.00186087
3.42068
-0.00186509
-0.0018693
2.95556
-0.00157362
-2.95559
2.95552
-0.00157934
2.95549
-0.00158487
2.95547
-0.00159032
2.95544
-0.00159575
2.95541
-0.00160118
2.95538
-0.00160661
2.95536
-0.00161204
2.95533
-0.00161746
2.95531
-0.00162287
2.95528
-0.00162828
2.95526
-0.00163369
2.95524
-0.00163909
2.95522
-0.00164449
2.9552
-0.00164988
2.95518
-0.00165527
2.95517
-0.00166064
2.95515
-0.00166601
2.95513
-0.00167138
2.95512
-0.00167673
2.9551
-0.00168208
2.95509
-0.00168742
2.95508
-0.00169274
2.95507
-0.00169806
2.95506
-0.00170336
2.95505
-0.00170865
2.95504
-0.00171392
2.95503
-0.00171918
2.95503
-0.00172441
2.95502
-0.00172969
2.95502
-0.00173499
2.95501
-0.00174029
2.95501
-0.00174558
2.95501
-0.00175086
2.95501
-0.00175614
2.95501
-0.0017614
2.95501
-0.00176666
2.95501
-0.00177191
2.95501
-0.00177715
2.95501
-0.00178237
2.95502
-0.00178759
2.95502
-0.0017928
2.95503
-0.001798
2.95504
-0.00180319
2.95504
-0.00180837
2.95505
-0.00181354
2.95506
-0.0018187
2.95507
-0.00182385
2.95508
-0.00182898
2.9551
-0.00183412
2.95511
-0.00183929
2.95512
-0.00184447
2.95514
-0.00184963
2.95515
-0.00185477
2.95517
-0.00185989
2.95518
-0.001865
2.9552
-0.00187009
2.95522
-0.00187516
2.95524
-0.00188021
2.95526
-0.00188525
-0.00189027
2.54687
-0.00163875
-2.54681
2.54694
-0.00164604
2.54701
-0.00165256
2.54707
-0.00165895
2.54714
-0.00166529
2.54721
-0.00167162
2.54729
-0.00167794
2.54736
-0.00168425
2.54743
-0.00169055
2.54751
-0.00169684
2.54758
-0.00170311
2.54766
-0.00170938
2.54773
-0.00171563
2.54781
-0.00172188
2.54789
-0.00172811
2.54797
-0.00173433
2.54805
-0.00174054
2.54813
-0.00174674
2.54821
-0.00175292
2.54829
-0.0017591
2.54837
-0.00176526
2.54846
-0.00177141
2.54854
-0.00177754
2.54863
-0.00178367
2.54872
-0.00178978
2.5488
-0.00179587
2.54889
-0.00180196
2.54898
-0.00180803
2.54907
-0.00181408
2.54916
-0.00182013
2.54925
-0.00182615
2.54934
-0.00183216
2.54944
-0.00183816
2.54953
-0.00184415
2.54962
-0.00185011
2.54972
-0.00185607
2.54981
-0.001862
2.54991
-0.00186793
2.55001
-0.00187383
2.5501
-0.00187972
2.5502
-0.00188559
2.5503
-0.00189145
2.5504
-0.00189729
2.5505
-0.00190312
2.5506
-0.00190892
2.5507
-0.00191471
2.5508
-0.00192049
2.5509
-0.00192624
2.55101
-0.00193198
2.55111
-0.0019377
2.55122
-0.0019434
2.55132
-0.00194908
2.55142
-0.00195475
2.55153
-0.0019604
2.55164
-0.00196603
2.55174
-0.00197164
2.55185
-0.00197723
2.55196
-0.0019828
2.55207
-0.00198836
2.55217
-0.00199389
-0.00199941
2.20333
-0.00166871
-2.2033
2.20336
-0.00167681
2.20339
-0.00168461
2.20342
-0.00169229
2.20346
-0.00169993
2.20349
-0.00170755
2.20353
-0.00171516
2.20357
-0.00172276
2.20361
-0.00173033
2.20365
-0.0017379
2.20369
-0.00174545
2.20374
-0.00175298
2.20378
-0.0017605
2.20383
-0.00176801
2.20387
-0.00177549
2.20392
-0.00178296
2.20397
-0.00179042
2.20402
-0.00179785
2.20408
-0.00180527
2.20413
-0.00181267
2.20419
-0.00182005
2.20424
-0.00182741
2.2043
-0.00183476
2.20436
-0.00184208
2.20442
-0.00184938
2.20448
-0.00185667
2.20454
-0.00186393
2.2046
-0.00187117
2.20467
-0.00187839
2.20473
-0.00188559
2.2048
-0.00189277
2.20487
-0.00189992
2.20494
-0.00190705
2.20501
-0.00191416
2.20508
-0.00192124
2.20515
-0.0019283
2.20522
-0.00193534
2.2053
-0.00194235
2.20537
-0.00194934
2.20545
-0.0019563
2.20553
-0.00196324
2.2056
-0.00197015
2.20568
-0.00197704
2.20577
-0.0019839
2.20585
-0.00199074
2.20593
-0.00199755
2.20601
-0.00200433
2.2061
-0.00201108
2.20618
-0.00201781
2.20627
-0.00202451
2.20636
-0.00203118
2.20645
-0.00203783
2.20654
-0.00204444
2.20663
-0.00205103
2.20672
-0.00205759
2.20681
-0.00206413
2.20691
-0.00207063
2.207
-0.00207711
2.2071
-0.00208355
2.20719
-0.00208997
-0.00209636
1.9002
-0.00172469
-1.90014
1.90026
-0.00173443
1.90032
-0.001744
1.90038
-0.00175354
1.90044
-0.00176307
1.9005
-0.00177257
1.90057
-0.00178205
1.90064
-0.0017915
1.90071
-0.00180094
1.90078
-0.00181035
1.90086
-0.00181973
1.90093
-0.00182909
1.90101
-0.00183842
1.90109
-0.00184772
1.90117
-0.001857
1.90126
-0.00186624
1.90134
-0.00187546
1.90143
-0.00188465
1.90152
-0.0018938
1.90161
-0.00190292
1.9017
-0.00191201
1.90179
-0.00192107
1.90189
-0.00193009
1.90199
-0.00193908
1.90208
-0.00194804
1.90218
-0.00195696
1.90229
-0.00196584
1.90239
-0.00197468
1.90249
-0.00198349
1.9026
-0.00199226
1.90271
-0.00200099
1.90282
-0.00200968
1.90293
-0.00201833
1.90304
-0.00202694
1.90316
-0.00203552
1.90327
-0.00204405
1.90339
-0.00205253
1.90351
-0.00206098
1.90363
-0.00206938
1.90375
-0.00207775
1.90387
-0.00208606
1.904
-0.00209434
1.90412
-0.00210257
1.90425
-0.00211075
1.90438
-0.0021189
1.90451
-0.00212699
1.90464
-0.00213504
1.90477
-0.00214305
1.9049
-0.00215101
1.90504
-0.00215892
1.90517
-0.00216679
1.90531
-0.00217461
1.90545
-0.00218239
1.90559
-0.00219011
1.90573
-0.00219779
1.90587
-0.00220543
1.90601
-0.00221301
1.90615
-0.00222055
1.9063
-0.00222804
1.90644
-0.00223548
-0.00224288
1.64105
-0.00178595
-1.64099
1.64112
-0.00179798
1.64118
-0.00180999
1.64125
-0.00182197
1.64132
-0.00183391
1.6414
-0.00184582
1.64147
-0.00185769
1.64155
-0.00186952
1.64163
-0.00188131
1.64171
-0.00189306
1.6418
-0.00190476
1.64189
-0.00191642
1.64198
-0.00192804
1.64207
-0.00193961
1.64216
-0.00195112
1.64226
-0.00196259
1.64236
-0.00197401
1.64246
-0.00198537
1.64256
-0.00199668
1.64266
-0.00200794
1.64277
-0.00201914
1.64288
-0.00203028
1.64299
-0.00204136
1.64311
-0.00205238
1.64322
-0.00206334
1.64334
-0.00207424
1.64346
-0.00208508
1.64358
-0.00209585
1.6437
-0.00210656
1.64383
-0.0021172
1.64395
-0.00212777
1.64408
-0.00213827
1.64421
-0.00214871
1.64434
-0.00215908
1.64448
-0.00216937
1.64461
-0.0021796
1.64475
-0.00218975
1.64489
-0.00219983
1.64503
-0.00220984
1.64517
-0.00221978
1.64532
-0.00222964
1.64546
-0.00223942
1.64561
-0.00224913
1.64576
-0.00225877
1.64591
-0.00226833
1.64606
-0.00227781
1.64621
-0.00228721
1.64636
-0.00229654
1.64652
-0.00230579
1.64667
-0.00231496
1.64683
-0.00232406
1.64699
-0.00233307
1.64715
-0.00234201
1.64731
-0.00235087
1.64747
-0.00235965
1.64763
-0.00236835
1.6478
-0.00237698
1.64796
-0.00238552
1.64813
-0.00239399
1.64829
-0.00240238
-0.00241069
1.41462
-0.00186652
-1.41454
1.4147
-0.00188216
1.41479
-0.00189762
1.41488
-0.00191302
1.41497
-0.00192836
1.41507
-0.00194364
1.41517
-0.00195886
1.41528
-0.00197401
1.41539
-0.0019891
1.4155
-0.00200411
1.41561
-0.00201905
1.41573
-0.00203391
1.41585
-0.00204869
1.41597
-0.0020634
1.4161
-0.00207801
1.41623
-0.00209255
1.41636
-0.00210699
1.4165
-0.00212134
1.41664
-0.0021356
1.41678
-0.00214976
1.41692
-0.00216382
1.41707
-0.00217779
1.41722
-0.00219165
1.41738
-0.00220541
1.41753
-0.00221906
1.41769
-0.0022326
1.41785
-0.00224603
1.41801
-0.00225935
1.41818
-0.00227256
1.41835
-0.00228565
1.41852
-0.00229863
1.41869
-0.00231149
1.41887
-0.00232423
1.41905
-0.00233684
1.41923
-0.00234934
1.41941
-0.00236171
1.41959
-0.00237396
1.41978
-0.00238609
1.41997
-0.00239809
1.42016
-0.00240996
1.42035
-0.0024217
1.42054
-0.00243332
1.42074
-0.00244481
1.42094
-0.00245617
1.42113
-0.00246739
1.42134
-0.00247849
1.42154
-0.00248946
1.42174
-0.0025003
1.42195
-0.00251101
1.42215
-0.00252159
1.42236
-0.00253203
1.42257
-0.00254235
1.42278
-0.00255253
1.42299
-0.00256259
1.42321
-0.00257251
1.42342
-0.00258231
1.42363
-0.00259198
1.42385
-0.00260152
1.42407
-0.00261093
1.42429
-0.00262021
1.4245
-0.00262937
-0.0026384
1.21916
-0.00196578
-1.21906
1.21927
-0.00198605
1.21938
-0.00200617
1.21949
-0.0020262
1.21961
-0.00204613
1.21973
-0.00206597
1.21986
-0.0020857
1.21999
-0.00210533
1.22012
-0.00212484
1.22026
-0.00214424
1.22041
-0.00216351
1.22056
-0.00218266
1.22071
-0.00220167
1.22087
-0.00222055
1.22103
-0.00223928
1.22119
-0.00225787
1.22136
-0.0022763
1.22154
-0.00229458
1.22171
-0.0023127
1.22189
-0.00233065
1.22208
-0.00234843
1.22227
-0.00236605
1.22246
-0.00238348
1.22265
-0.00240074
1.22285
-0.00241781
1.22305
-0.0024347
1.22326
-0.00245139
1.22347
-0.00246789
1.22368
-0.0024842
1.22389
-0.00250031
1.22411
-0.00251621
1.22433
-0.00253191
1.22456
-0.00254741
1.22478
-0.00256269
1.22501
-0.00257777
1.22524
-0.00259263
1.22547
-0.00260728
1.22571
-0.00262172
1.22595
-0.00263594
1.22619
-0.00264994
1.22643
-0.00266372
1.22667
-0.00267729
1.22692
-0.00269064
1.22717
-0.00270376
1.22742
-0.00271667
1.22767
-0.00272936
1.22792
-0.00274182
1.22817
-0.00275407
1.22843
-0.0027661
1.22868
-0.00277791
1.22894
-0.00278951
1.2292
-0.00280088
1.22946
-0.00281205
1.22972
-0.002823
1.22998
-0.00283373
1.23024
-0.00284426
1.23051
-0.00285457
1.23077
-0.00286468
1.23103
-0.00287459
1.2313
-0.00288429
1.23156
-0.00289379
-0.00290309
1.04896
-0.00208896
-1.04884
1.04909
-0.0021159
1.04923
-0.00214254
1.04937
-0.00216905
1.04952
-0.00219541
1.04968
-0.00222163
1.04984
-0.00224768
1.05001
-0.00227356
1.05018
-0.00229927
1.05036
-0.00232478
1.05055
-0.0023501
1.05074
-0.00237521
1.05094
-0.0024001
1.05114
-0.00242476
1.05135
-0.00244919
1.05157
-0.00247337
1.05179
-0.0024973
1.05202
-0.00252097
1.05225
-0.00254437
1.05249
-0.00256749
1.05273
-0.00259032
1.05297
-0.00261286
1.05323
-0.0026351
1.05348
-0.00265704
1.05374
-0.00267866
1.05401
-0.00269996
1.05428
-0.00272093
1.05455
-0.00274157
1.05483
-0.00276188
1.05511
-0.00278184
1.0554
-0.00280145
1.05568
-0.00282072
1.05598
-0.00283963
1.05627
-0.00285818
1.05657
-0.00287637
1.05687
-0.0028942
1.05718
-0.00291166
1.05748
-0.00292875
1.05779
-0.00294547
1.05811
-0.00296182
1.05842
-0.0029778
1.05874
-0.00299341
1.05905
-0.00300864
1.05937
-0.0030235
1.05969
-0.00303799
1.06002
-0.00305211
1.06034
-0.00306586
1.06067
-0.00307924
1.06099
-0.00309226
1.06132
-0.00310492
1.06165
-0.00311721
1.06198
-0.00312915
1.0623
-0.00314074
1.06263
-0.00315198
1.06296
-0.00316287
1.06329
-0.00317342
1.06362
-0.00318363
1.06395
-0.00319352
1.06428
-0.00320307
1.06461
-0.0032123
1.06493
-0.00322121
-0.00322982
0.901408
-0.00223699
-0.90126
0.901565
-0.00227304
0.901731
-0.00230876
0.901906
-0.0023443
0.902091
-0.00237964
0.902284
-0.00241476
0.902486
-0.00244964
0.902696
-0.00248426
0.902916
-0.00251861
0.903144
-0.00255267
0.90338
-0.00258642
0.903625
-0.00261985
0.903877
-0.00265292
0.904138
-0.00268564
0.904407
-0.00271797
0.904684
-0.00274991
0.904968
-0.00278143
0.905259
-0.00281252
0.905558
-0.00284317
0.905864
-0.00287335
0.906177
-0.00290307
0.906496
-0.00293229
0.906822
-0.002961
0.907154
-0.0029892
0.907492
-0.00301687
0.907837
-0.003044
0.908186
-0.00307058
0.908541
-0.00309659
0.908901
-0.00312203
0.909266
-0.00314689
0.909636
-0.00317116
0.91001
-0.00319483
0.910388
-0.00321789
0.910771
-0.00324034
0.911156
-0.00326218
0.911546
-0.00328339
0.911938
-0.00330398
0.912333
-0.00332394
0.912731
-0.00334328
0.913131
-0.00336198
0.913533
-0.00338006
0.913937
-0.0033975
0.914343
-0.00341432
0.91475
-0.00343051
0.915158
-0.00344608
0.915567
-0.00346103
0.915977
-0.00347536
0.916387
-0.00348909
0.916796
-0.00350221
0.917206
-0.00351474
0.917616
-0.00352668
0.918025
-0.00353804
0.918433
-0.00354883
0.91884
-0.00355906
0.919246
-0.00356874
0.91965
-0.00357787
0.920053
-0.00358648
0.920454
-0.00359456
0.920853
-0.00360214
0.92125
-0.00360918
0.921645
-0.00361577
-0.00362197
0.772902
-0.00240771
-0.772732
0.773086
-0.00245656
0.773282
-0.00250498
0.773491
-0.00255318
0.773712
-0.00260113
0.773946
-0.00264878
0.774193
-0.00269611
0.774452
-0.00274308
0.774723
-0.00278966
0.775006
-0.00283581
0.775301
-0.00288151
0.775608
-0.00292671
0.775926
-0.0029714
0.776256
-0.00301552
0.776597
-0.00305905
0.776949
-0.00310196
0.777312
-0.00314422
0.777685
-0.00318579
0.778069
-0.00322666
0.778462
-0.00326677
0.778865
-0.00330612
0.779278
-0.00334466
0.779699
-0.00338239
0.780129
-0.00341926
0.780568
-0.00345525
0.781014
-0.00349035
0.781468
-0.00352452
0.781929
-0.00355776
0.782397
-0.00359004
0.782872
-0.00362134
0.783352
-0.00365165
0.783838
-0.00368095
0.784329
-0.00370924
0.784826
-0.00373649
0.785326
-0.00376271
0.785831
-0.00378787
0.786339
-0.00381199
0.78685
-0.00383505
0.787364
-0.00385705
0.78788
-0.003878
0.788397
-0.00389789
0.788917
-0.00391672
0.789437
-0.00393451
0.789958
-0.00395125
0.790478
-0.00396696
0.790999
-0.00398165
0.791519
-0.00399532
0.792038
-0.004008
0.792555
-0.0040197
0.793071
-0.00403043
0.793585
-0.00404021
0.794096
-0.00404905
0.794604
-0.00405699
0.795109
-0.00406405
0.79561
-0.00407023
0.796108
-0.00407557
0.796602
-0.00408009
0.797091
-0.00408381
0.797576
-0.0040868
0.798055
-0.00408905
0.79853
-0.00409057
-0.00409141
0.661164
-0.00259386
-0.660978
0.661368
-0.00266022
0.661589
-0.00272621
0.661828
-0.00279197
0.662084
-0.00285747
0.662358
-0.00292263
0.662649
-0.00298739
0.662958
-0.0030517
0.663284
-0.00311549
0.663627
-0.00317871
0.663987
-0.0032413
0.664363
-0.00330319
0.664756
-0.00336433
0.665165
-0.00342465
0.66559
-0.0034841
0.666031
-0.00354261
0.666487
-0.00360013
0.666958
-0.00365659
0.667443
-0.00371195
0.667942
-0.00376615
0.668455
-0.00381913
0.668981
-0.00387084
0.66952
-0.00392123
0.670071
-0.00397025
0.670634
-0.00401785
0.671208
-0.00406399
0.671792
-0.00410863
0.672386
-0.00415172
0.672989
-0.00419323
0.673601
-0.00423313
0.67422
-0.00427138
0.674847
-0.00430797
0.675481
-0.00434285
0.67612
-0.00437602
0.676765
-0.00440745
0.677414
-0.00443714
0.678068
-0.00446506
0.678724
-0.00449123
0.679382
-0.00451562
0.680043
-0.00453825
0.680704
-0.00455912
0.681365
-0.00457824
0.682026
-0.00459561
0.682686
-0.00461127
0.683345
-0.00462522
0.684
-0.00463749
0.684653
-0.0046481
0.685302
-0.00465709
0.685947
-0.00466449
0.686587
-0.00467034
0.687222
-0.00467467
0.68785
-0.00467752
0.688472
-0.00467894
0.689087
-0.00467897
0.689694
-0.00467767
0.690294
-0.00467513
0.690885
-0.00467146
0.691468
-0.00466664
0.692042
-0.00466054
0.692606
-0.0046532
0.69316
-0.00464481
-0.00463552
0.563734
-0.00277895
-0.563549
0.563943
-0.00286894
0.564175
-0.00295873
0.564432
-0.00304843
0.564712
-0.00313795
0.565017
-0.00322717
0.565346
-0.00331601
0.565698
-0.00340436
0.566075
-0.00349212
0.566475
-0.0035792
0.566899
-0.00366547
0.567347
-0.00375084
0.567818
-0.00383521
0.568312
-0.00391847
0.568828
-0.0040005
0.569367
-0.0040812
0.569927
-0.00416048
0.570509
-0.00423821
0.571111
-0.00431429
0.571734
-0.00438863
0.572376
-0.00446113
0.573036
-0.00453167
0.573715
-0.00460017
0.574412
-0.00466653
0.575124
-0.00473067
0.575853
-0.00479249
0.576596
-0.00485191
0.577353
-0.00490887
0.578123
-0.00496328
0.578905
-0.00501508
0.579698
-0.00506421
0.580501
-0.00511062
0.581312
-0.00515425
0.582131
-0.00519506
0.582957
-0.00523303
0.583788
-0.00526813
0.584623
-0.00530033
0.585462
-0.00532962
0.586302
-0.00535601
0.587143
-0.00537949
0.587984
-0.00540007
0.588824
-0.00541779
0.589661
-0.00543265
0.590494
-0.0054447
0.591323
-0.00545398
0.592146
-0.00546053
0.592962
-0.00546442
0.593771
-0.0054657
0.594571
-0.00546445
0.595361
-0.00546073
0.596141
-0.00545463
0.59691
-0.00544624
0.597667
-0.00543563
0.598411
-0.0054229
0.599141
-0.00540815
0.599857
-0.00539153
0.600559
-0.00537318
0.601246
-0.00535303
0.601916
-0.00533108
0.60257
-0.0053076
0.603208
-0.00528281
-0.00525679
0.478883
-0.00293918
-0.478722
0.479074
-0.00305999
0.479296
-0.00318115
0.47955
-0.0033026
0.479837
-0.00342417
0.480155
-0.00354569
0.480506
-0.00366703
0.48089
-0.00378801
0.481306
-0.00390848
0.481755
-0.00402827
0.482237
-0.00414721
0.482751
-0.00426512
0.483298
-0.00438182
0.483876
-0.00449714
0.484487
-0.00461089
0.485129
-0.00472289
0.485801
-0.00483295
0.486504
-0.00494088
0.487236
-0.0050465
0.487997
-0.00514963
0.488786
-0.00525007
0.489602
-0.00534765
0.490444
-0.00544219
0.491311
-0.00553351
0.492202
-0.00562145