/*--------------------------------*- C++ -*----------------------------------*\
  =========                 |
  \\      /  F ield         | OpenFOAM: The Open Source CFD Toolbox
   \\    /   O peration     | Website:  https://openfoam.org
    \\  /    A nd           | Version:  8
     \\/     M anipulation  |
\*---------------------------------------------------------------------------*/
FoamFile
{
    version     2.0;
    format      ascii;
    class       volScalarField;
    location    "0.05";
    object      nut;
}
// * * * * * * * * * * * * * * * * * * * * * * * * * * * * * * * * * * * * * //

dimensions      [0 2 -1 0 0 0 0];

internalField   nonuniform List<scalar> 
115664
(
2.78767e-08
2.7881e-08
2.78722e-08
2.78698e-08
2.78683e-08
2.78672e-08
2.78665e-08
2.7866e-08
2.78656e-08
2.78653e-08
2.7865e-08
2.78648e-08
2.78646e-08
2.78644e-08
2.78643e-08
2.78642e-08
2.78641e-08
2.7864e-08
2.78639e-08
2.78638e-08
2.78637e-08
2.78637e-08
2.78636e-08
2.78636e-08
2.78635e-08
2.78635e-08
2.78634e-08
2.78634e-08
2.78633e-08
2.78633e-08
2.78633e-08
2.78632e-08
2.78632e-08
2.78632e-08
2.78632e-08
2.78631e-08
2.78631e-08
2.78631e-08
2.78631e-08
2.7863e-08
2.7863e-08
2.7863e-08
2.7863e-08
2.7863e-08
2.7863e-08
2.78629e-08
2.78629e-08
2.78629e-08
2.78629e-08
2.78629e-08
2.78629e-08
2.78629e-08
2.78629e-08
2.78628e-08
2.78628e-08
2.78628e-08
2.78628e-08
2.78628e-08
2.78628e-08
2.78628e-08
2.78628e-08
2.78628e-08
2.78628e-08
2.78628e-08
2.78628e-08
2.78627e-08
2.78627e-08
2.78627e-08
2.78627e-08
2.78627e-08
2.78627e-08
2.78627e-08
2.78627e-08
2.78627e-08
2.78627e-08
2.78627e-08
2.78627e-08
2.78627e-08
2.78627e-08
2.78627e-08
2.78627e-08
2.78627e-08
2.78627e-08
2.78627e-08
2.78627e-08
2.78627e-08
2.78627e-08
2.78627e-08
2.78627e-08
2.78627e-08
2.78627e-08
2.78627e-08
2.78627e-08
2.78627e-08
2.78627e-08
2.78627e-08
2.78627e-08
2.78627e-08
2.78627e-08
2.78627e-08
2.78627e-08
2.78627e-08
2.78627e-08
2.78627e-08
2.78627e-08
2.78627e-08
2.78627e-08
2.78627e-08
2.78627e-08
2.78627e-08
2.78627e-08
2.78627e-08
2.78627e-08
2.78627e-08
2.78627e-08
2.78627e-08
2.78627e-08
2.78627e-08
2.78627e-08
2.78627e-08
2.78627e-08
2.78627e-08
2.78627e-08
2.78627e-08
2.78627e-08
2.78627e-08
2.78627e-08
2.78627e-08
2.78627e-08
2.78627e-08
2.78627e-08
2.78627e-08
2.78628e-08
2.78628e-08
2.78628e-08
2.78628e-08
2.78628e-08
2.78628e-08
2.78628e-08
2.78628e-08
2.78628e-08
2.78628e-08
2.78628e-08
2.78628e-08
2.78629e-08
2.78629e-08
2.78629e-08
2.78629e-08
2.78629e-08
2.78629e-08
2.78629e-08
2.78629e-08
2.7863e-08
2.7863e-08
2.7863e-08
2.7863e-08
2.7863e-08
2.7863e-08
2.78631e-08
2.78631e-08
2.78631e-08
2.78631e-08
2.78631e-08
2.78632e-08
2.78632e-08
2.78632e-08
2.78632e-08
2.78633e-08
2.78633e-08
2.78633e-08
2.78634e-08
2.78634e-08
2.78635e-08
2.78635e-08
2.78636e-08
2.78636e-08
2.78637e-08
2.78637e-08
2.78638e-08
2.78639e-08
2.78639e-08
2.7864e-08
2.78641e-08
2.78642e-08
2.78644e-08
2.78645e-08
2.78647e-08
2.78648e-08
2.7865e-08
2.78653e-08
2.78656e-08
2.7866e-08
2.78664e-08
2.7867e-08
2.78678e-08
2.7869e-08
2.78708e-08
2.78735e-08
2.78835e-08
2.78787e-08
2.78917e-08
2.79144e-08
2.78927e-08
2.78852e-08
2.78806e-08
2.78775e-08
2.78754e-08
2.78739e-08
2.78726e-08
2.78717e-08
2.78709e-08
2.78702e-08
2.78697e-08
2.78692e-08
2.78687e-08
2.78684e-08
2.78681e-08
2.78678e-08
2.78675e-08
2.78673e-08
2.78671e-08
2.78669e-08
2.78667e-08
2.78665e-08
2.78664e-08
2.78662e-08
2.78661e-08
2.7866e-08
2.78659e-08
2.78658e-08
2.78657e-08
2.78656e-08
2.78655e-08
2.78654e-08
2.78653e-08
2.78653e-08
2.78652e-08
2.78651e-08
2.78651e-08
2.7865e-08
2.7865e-08
2.78649e-08
2.78648e-08
2.78648e-08
2.78648e-08
2.78647e-08
2.78647e-08
2.78646e-08
2.78646e-08
2.78645e-08
2.78645e-08
2.78645e-08
2.78644e-08
2.78644e-08
2.78644e-08
2.78644e-08
2.78643e-08
2.78643e-08
2.78643e-08
2.78642e-08
2.78642e-08
2.78642e-08
2.78642e-08
2.78642e-08
2.78641e-08
2.78641e-08
2.78641e-08
2.78641e-08
2.78641e-08
2.78641e-08
2.7864e-08
2.7864e-08
2.7864e-08
2.7864e-08
2.7864e-08
2.7864e-08
2.7864e-08
2.7864e-08
2.78639e-08
2.78639e-08
2.78639e-08
2.78639e-08
2.78639e-08
2.78639e-08
2.78639e-08
2.78639e-08
2.78639e-08
2.78639e-08
2.78639e-08
2.78639e-08
2.78639e-08
2.78639e-08
2.78639e-08
2.78639e-08
2.78639e-08
2.78639e-08
2.78639e-08
2.78638e-08
2.78638e-08
2.78638e-08
2.78638e-08
2.78639e-08
2.78639e-08
2.78639e-08
2.78639e-08
2.78639e-08
2.78639e-08
2.78639e-08
2.78639e-08
2.78639e-08
2.78639e-08
2.78639e-08
2.78639e-08
2.78639e-08
2.78639e-08
2.78639e-08
2.78639e-08
2.78639e-08
2.78639e-08
2.7864e-08
2.7864e-08
2.7864e-08
2.7864e-08
2.7864e-08
2.7864e-08
2.7864e-08
2.7864e-08
2.78641e-08
2.78641e-08
2.78641e-08
2.78641e-08
2.78641e-08
2.78641e-08
2.78642e-08
2.78642e-08
2.78642e-08
2.78642e-08
2.78642e-08
2.78643e-08
2.78643e-08
2.78643e-08
2.78643e-08
2.78644e-08
2.78644e-08
2.78644e-08
2.78645e-08
2.78645e-08
2.78645e-08
2.78646e-08
2.78646e-08
2.78646e-08
2.78647e-08
2.78647e-08
2.78648e-08
2.78648e-08
2.78649e-08
2.78649e-08
2.7865e-08
2.7865e-08
2.78651e-08
2.78652e-08
2.78652e-08
2.78653e-08
2.78654e-08
2.78654e-08
2.78655e-08
2.78656e-08
2.78657e-08
2.78658e-08
2.78659e-08
2.7866e-08
2.78661e-08
2.78663e-08
2.78664e-08
2.78665e-08
2.78667e-08
2.78669e-08
2.78671e-08
2.78673e-08
2.78675e-08
2.78677e-08
2.7868e-08
2.78683e-08
2.78686e-08
2.78689e-08
2.78694e-08
2.78698e-08
2.78704e-08
2.7871e-08
2.78717e-08
2.78726e-08
2.78738e-08
2.78751e-08
2.78769e-08
2.78793e-08
2.78828e-08
2.78881e-08
2.78966e-08
2.79213e-08
2.78957e-08
2.79011e-08
2.79443e-08
2.79115e-08
2.78998e-08
2.78924e-08
2.78875e-08
2.78841e-08
2.78815e-08
2.78795e-08
2.78779e-08
2.78766e-08
2.78756e-08
2.78746e-08
2.78739e-08
2.78732e-08
2.78726e-08
2.7872e-08
2.78716e-08
2.78711e-08
2.78707e-08
2.78704e-08
2.78701e-08
2.78698e-08
2.78695e-08
2.78693e-08
2.7869e-08
2.78688e-08
2.78686e-08
2.78684e-08
2.78682e-08
2.78681e-08
2.78679e-08
2.78678e-08
2.78676e-08
2.78675e-08
2.78674e-08
2.78673e-08
2.78672e-08
2.78671e-08
2.7867e-08
2.78669e-08
2.78668e-08
2.78667e-08
2.78666e-08
2.78665e-08
2.78665e-08
2.78664e-08
2.78663e-08
2.78663e-08
2.78662e-08
2.78661e-08
2.78661e-08
2.7866e-08
2.7866e-08
2.78659e-08
2.78659e-08
2.78658e-08
2.78658e-08
2.78657e-08
2.78657e-08
2.78657e-08
2.78656e-08
2.78656e-08
2.78656e-08
2.78655e-08
2.78655e-08
2.78655e-08
2.78654e-08
2.78654e-08
2.78654e-08
2.78654e-08
2.78653e-08
2.78653e-08
2.78653e-08
2.78653e-08
2.78653e-08
2.78652e-08
2.78652e-08
2.78652e-08
2.78652e-08
2.78652e-08
2.78652e-08
2.78651e-08
2.78651e-08
2.78651e-08
2.78651e-08
2.78651e-08
2.78651e-08
2.78651e-08
2.78651e-08
2.78651e-08
2.78651e-08
2.78651e-08
2.78651e-08
2.7865e-08
2.7865e-08
2.7865e-08
2.7865e-08
2.7865e-08
2.7865e-08
2.7865e-08
2.7865e-08
2.7865e-08
2.78651e-08
2.78651e-08
2.78651e-08
2.78651e-08
2.78651e-08
2.78651e-08
2.78651e-08
2.78651e-08
2.78651e-08
2.78651e-08
2.78651e-08
2.78651e-08
2.78652e-08
2.78652e-08
2.78652e-08
2.78652e-08
2.78652e-08
2.78652e-08
2.78652e-08
2.78653e-08
2.78653e-08
2.78653e-08
2.78653e-08
2.78654e-08
2.78654e-08
2.78654e-08
2.78654e-08
2.78655e-08
2.78655e-08
2.78655e-08
2.78656e-08
2.78656e-08
2.78656e-08
2.78657e-08
2.78657e-08
2.78657e-08
2.78658e-08
2.78658e-08
2.78659e-08
2.78659e-08
2.7866e-08
2.7866e-08
2.78661e-08
2.78661e-08
2.78662e-08
2.78662e-08
2.78663e-08
2.78664e-08
2.78664e-08
2.78665e-08
2.78666e-08
2.78667e-08
2.78667e-08
2.78668e-08
2.78669e-08
2.7867e-08
2.78671e-08
2.78672e-08
2.78673e-08
2.78674e-08
2.78676e-08
2.78677e-08
2.78678e-08
2.7868e-08
2.78681e-08
2.78683e-08
2.78685e-08
2.78686e-08
2.78688e-08
2.78691e-08
2.78693e-08
2.78695e-08
2.78698e-08
2.78701e-08
2.78704e-08
2.78707e-08
2.7871e-08
2.78714e-08
2.78719e-08
2.78724e-08
2.78729e-08
2.78735e-08
2.78742e-08
2.78749e-08
2.78758e-08
2.78769e-08
2.78781e-08
2.78795e-08
2.78814e-08
2.78836e-08
2.78865e-08
2.78903e-08
2.7896e-08
2.79043e-08
2.79178e-08
2.79551e-08
2.79064e-08
2.79086e-08
2.79718e-08
2.79291e-08
2.79136e-08
2.79037e-08
2.78971e-08
2.78925e-08
2.7889e-08
2.78863e-08
2.78841e-08
2.78823e-08
2.78808e-08
2.78796e-08
2.78785e-08
2.78775e-08
2.78767e-08
2.7876e-08
2.78753e-08
2.78747e-08
2.78742e-08
2.78737e-08
2.78732e-08
2.78728e-08
2.78725e-08
2.78721e-08
2.78718e-08
2.78715e-08
2.78712e-08
2.78709e-08
2.78707e-08
2.78705e-08
2.78703e-08
2.78701e-08
2.78699e-08
2.78697e-08
2.78695e-08
2.78694e-08
2.78692e-08
2.78691e-08
2.78689e-08
2.78688e-08
2.78687e-08
2.78685e-08
2.78684e-08
2.78683e-08
2.78682e-08
2.78681e-08
2.7868e-08
2.78679e-08
2.78678e-08
2.78678e-08
2.78677e-08
2.78676e-08
2.78675e-08
2.78675e-08
2.78674e-08
2.78673e-08
2.78673e-08
2.78672e-08
2.78672e-08
2.78671e-08
2.78671e-08
2.7867e-08
2.7867e-08
2.78669e-08
2.78669e-08
2.78668e-08
2.78668e-08
2.78667e-08
2.78667e-08
2.78667e-08
2.78666e-08
2.78666e-08
2.78666e-08
2.78666e-08
2.78665e-08
2.78665e-08
2.78665e-08
2.78665e-08
2.78664e-08
2.78664e-08
2.78664e-08
2.78664e-08
2.78664e-08
2.78663e-08
2.78663e-08
2.78663e-08
2.78663e-08
2.78663e-08
2.78663e-08
2.78663e-08
2.78663e-08
2.78663e-08
2.78662e-08
2.78662e-08
2.78662e-08
2.78662e-08
2.78662e-08
2.78662e-08
2.78662e-08
2.78662e-08
2.78662e-08
2.78662e-08
2.78662e-08
2.78663e-08
2.78663e-08
2.78663e-08
2.78663e-08
2.78663e-08
2.78663e-08
2.78663e-08
2.78663e-08
2.78663e-08
2.78664e-08
2.78664e-08
2.78664e-08
2.78664e-08
2.78664e-08
2.78664e-08
2.78665e-08
2.78665e-08
2.78665e-08
2.78666e-08
2.78666e-08
2.78666e-08
2.78666e-08
2.78667e-08
2.78667e-08
2.78667e-08
2.78668e-08
2.78668e-08
2.78669e-08
2.78669e-08
2.7867e-08
2.7867e-08
2.7867e-08
2.78671e-08
2.78672e-08
2.78672e-08
2.78673e-08
2.78673e-08
2.78674e-08
2.78675e-08
2.78675e-08
2.78676e-08
2.78677e-08
2.78677e-08
2.78678e-08
2.78679e-08
2.7868e-08
2.78681e-08
2.78682e-08
2.78683e-08
2.78684e-08
2.78685e-08
2.78686e-08
2.78687e-08
2.78689e-08
2.7869e-08
2.78691e-08
2.78693e-08
2.78694e-08
2.78696e-08
2.78698e-08
2.78699e-08
2.78701e-08
2.78703e-08
2.78705e-08
2.78708e-08
2.7871e-08
2.78713e-08
2.78715e-08
2.78718e-08
2.78721e-08
2.78725e-08
2.78728e-08
2.78732e-08
2.78736e-08
2.78741e-08
2.78746e-08
2.78751e-08
2.78757e-08
2.78764e-08
2.78772e-08
2.7878e-08
2.78789e-08
2.788e-08
2.78812e-08
2.78826e-08
2.78843e-08
2.78863e-08
2.78888e-08
2.78919e-08
2.78958e-08
2.7901e-08
2.79086e-08
2.79198e-08
2.79376e-08
2.79862e-08
2.79149e-08
2.79181e-08
2.79969e-08
2.79458e-08
2.79268e-08
2.79146e-08
2.79064e-08
2.79007e-08
2.78964e-08
2.78929e-08
2.78902e-08
2.78879e-08
2.7886e-08
2.78844e-08
2.78831e-08
2.78818e-08
2.78808e-08
2.78799e-08
2.7879e-08
2.78783e-08
2.78776e-08
2.7877e-08
2.78764e-08
2.78759e-08
2.78754e-08
2.78749e-08
2.78745e-08
2.78742e-08
2.78738e-08
2.78735e-08
2.78732e-08
2.78729e-08
2.78726e-08
2.78723e-08
2.78721e-08
2.78719e-08
2.78716e-08
2.78714e-08
2.78712e-08
2.7871e-08
2.78709e-08
2.78707e-08
2.78705e-08
2.78704e-08
2.78702e-08
2.78701e-08
2.787e-08
2.78698e-08
2.78697e-08
2.78696e-08
2.78695e-08
2.78694e-08
2.78693e-08
2.78692e-08
2.78691e-08
2.7869e-08
2.78689e-08
2.78688e-08
2.78688e-08
2.78687e-08
2.78686e-08
2.78685e-08
2.78685e-08
2.78684e-08
2.78684e-08
2.78683e-08
2.78682e-08
2.78682e-08
2.78681e-08
2.78681e-08
2.7868e-08
2.7868e-08
2.7868e-08
2.78679e-08
2.78679e-08
2.78678e-08
2.78678e-08
2.78678e-08
2.78677e-08
2.78677e-08
2.78677e-08
2.78677e-08
2.78676e-08
2.78676e-08
2.78676e-08
2.78676e-08
2.78675e-08
2.78675e-08
2.78675e-08
2.78675e-08
2.78675e-08
2.78675e-08
2.78675e-08
2.78674e-08
2.78674e-08
2.78674e-08
2.78674e-08
2.78674e-08
2.78674e-08
2.78674e-08
2.78674e-08
2.78674e-08
2.78674e-08
2.78674e-08
2.78674e-08
2.78674e-08
2.78675e-08
2.78675e-08
2.78675e-08
2.78675e-08
2.78675e-08
2.78675e-08
2.78675e-08
2.78676e-08
2.78676e-08
2.78676e-08
2.78676e-08
2.78676e-08
2.78677e-08
2.78677e-08
2.78677e-08
2.78678e-08
2.78678e-08
2.78678e-08
2.78679e-08
2.78679e-08
2.78679e-08
2.7868e-08
2.7868e-08
2.78681e-08
2.78681e-08
2.78682e-08
2.78682e-08
2.78683e-08
2.78683e-08
2.78684e-08
2.78685e-08
2.78685e-08
2.78686e-08
2.78687e-08
2.78687e-08
2.78688e-08
2.78689e-08
2.7869e-08
2.78691e-08
2.78692e-08
2.78693e-08
2.78694e-08
2.78695e-08
2.78696e-08
2.78697e-08
2.78698e-08
2.78699e-08
2.78701e-08
2.78702e-08
2.78703e-08
2.78705e-08
2.78706e-08
2.78708e-08
2.7871e-08
2.78711e-08
2.78713e-08
2.78715e-08
2.78717e-08
2.78719e-08
2.78722e-08
2.78724e-08
2.78727e-08
2.78729e-08
2.78732e-08
2.78735e-08
2.78739e-08
2.78742e-08
2.78746e-08
2.7875e-08
2.78754e-08
2.78759e-08
2.78764e-08
2.78769e-08
2.78775e-08
2.78781e-08
2.78788e-08
2.78796e-08
2.78804e-08
2.78814e-08
2.78824e-08
2.78836e-08
2.7885e-08
2.78865e-08
2.78883e-08
2.78905e-08
2.7893e-08
2.78961e-08
2.79e-08
2.79049e-08
2.79114e-08
2.79207e-08
2.79346e-08
2.79563e-08
2.80145e-08
2.79256e-08
2.79289e-08
2.80207e-08
2.79616e-08
2.79395e-08
2.79252e-08
2.79155e-08
2.79087e-08
2.79035e-08
2.78994e-08
2.78961e-08
2.78934e-08
2.78912e-08
2.78893e-08
2.78876e-08
2.78861e-08
2.78849e-08
2.78837e-08
2.78827e-08
2.78818e-08
2.7881e-08
2.78802e-08
2.78795e-08
2.78789e-08
2.78783e-08
2.78778e-08
2.78773e-08
2.78768e-08
2.78764e-08
2.7876e-08
2.78756e-08
2.78752e-08
2.78749e-08
2.78746e-08
2.78743e-08
2.7874e-08
2.78737e-08
2.78735e-08
2.78733e-08
2.7873e-08
2.78728e-08
2.78726e-08
2.78724e-08
2.78722e-08
2.78721e-08
2.78719e-08
2.78717e-08
2.78716e-08
2.78714e-08
2.78713e-08
2.78711e-08
2.7871e-08
2.78709e-08
2.78708e-08
2.78707e-08
2.78705e-08
2.78704e-08
2.78703e-08
2.78702e-08
2.78702e-08
2.78701e-08
2.787e-08
2.78699e-08
2.78698e-08
2.78697e-08
2.78697e-08
2.78696e-08
2.78695e-08
2.78695e-08
2.78694e-08
2.78694e-08
2.78693e-08
2.78693e-08
2.78692e-08
2.78692e-08
2.78691e-08
2.78691e-08
2.7869e-08
2.7869e-08
2.7869e-08
2.78689e-08
2.78689e-08
2.78689e-08
2.78688e-08
2.78688e-08
2.78688e-08
2.78688e-08
2.78687e-08
2.78687e-08
2.78687e-08
2.78687e-08
2.78687e-08
2.78687e-08
2.78686e-08
2.78686e-08
2.78686e-08
2.78686e-08
2.78686e-08
2.78686e-08
2.78686e-08
2.78686e-08
2.78686e-08
2.78686e-08
2.78686e-08
2.78686e-08
2.78686e-08
2.78687e-08
2.78687e-08
2.78687e-08
2.78687e-08
2.78687e-08
2.78687e-08
2.78688e-08
2.78688e-08
2.78688e-08
2.78688e-08
2.78689e-08
2.78689e-08
2.78689e-08
2.7869e-08
2.7869e-08
2.7869e-08
2.78691e-08
2.78691e-08
2.78692e-08
2.78692e-08
2.78693e-08
2.78693e-08
2.78694e-08
2.78694e-08
2.78695e-08
2.78695e-08
2.78696e-08
2.78697e-08
2.78697e-08
2.78698e-08
2.78699e-08
2.787e-08
2.78701e-08
2.78701e-08
2.78702e-08
2.78703e-08
2.78704e-08
2.78705e-08
2.78706e-08
2.78707e-08
2.78709e-08
2.7871e-08
2.78711e-08
2.78712e-08
2.78714e-08
2.78715e-08
2.78717e-08
2.78718e-08
2.7872e-08
2.78722e-08
2.78723e-08
2.78725e-08
2.78727e-08
2.78729e-08
2.78731e-08
2.78734e-08
2.78736e-08
2.78739e-08
2.78741e-08
2.78744e-08
2.78747e-08
2.7875e-08
2.78753e-08
2.78757e-08
2.78761e-08
2.78765e-08
2.78769e-08
2.78773e-08
2.78778e-08
2.78783e-08
2.78789e-08
2.78795e-08
2.78801e-08
2.78808e-08
2.78816e-08
2.78825e-08
2.78834e-08
2.78844e-08
2.78856e-08
2.78868e-08
2.78883e-08
2.78899e-08
2.78918e-08
2.7894e-08
2.78965e-08
2.78995e-08
2.79033e-08
2.79079e-08
2.79138e-08
2.79215e-08
2.79325e-08
2.79488e-08
2.7974e-08
2.80413e-08
2.79378e-08
2.79376e-08
2.80432e-08
2.79768e-08
2.79517e-08
2.79354e-08
2.79244e-08
2.79166e-08
2.79106e-08
2.79058e-08
2.7902e-08
2.78989e-08
2.78963e-08
2.7894e-08
2.78921e-08
2.78904e-08
2.78889e-08
2.78876e-08
2.78864e-08
2.78853e-08
2.78843e-08
2.78834e-08
2.78826e-08
2.78819e-08
2.78812e-08
2.78806e-08
2.788e-08
2.78794e-08
2.78789e-08
2.78785e-08
2.7878e-08
2.78776e-08
2.78772e-08
2.78768e-08
2.78765e-08
2.78762e-08
2.78758e-08
2.78756e-08
2.78753e-08
2.7875e-08
2.78748e-08
2.78745e-08
2.78743e-08
2.78741e-08
2.78739e-08
2.78737e-08
2.78735e-08
2.78733e-08
2.78731e-08
2.78729e-08
2.78728e-08
2.78726e-08
2.78725e-08
2.78723e-08
2.78722e-08
2.78721e-08
2.7872e-08
2.78718e-08
2.78717e-08
2.78716e-08
2.78715e-08
2.78714e-08
2.78713e-08
2.78712e-08
2.78711e-08
2.78711e-08
2.7871e-08
2.78709e-08
2.78708e-08
2.78708e-08
2.78707e-08
2.78706e-08
2.78706e-08
2.78705e-08
2.78705e-08
2.78704e-08
2.78703e-08
2.78703e-08
2.78703e-08
2.78702e-08
2.78702e-08
2.78701e-08
2.78701e-08
2.78701e-08
2.787e-08
2.787e-08
2.787e-08
2.78699e-08
2.78699e-08
2.78699e-08
2.78699e-08
2.78699e-08
2.78699e-08
2.78698e-08
2.78698e-08
2.78698e-08
2.78698e-08
2.78698e-08
2.78698e-08
2.78698e-08
2.78698e-08
2.78698e-08
2.78698e-08
2.78698e-08
2.78698e-08
2.78698e-08
2.78699e-08
2.78699e-08
2.78699e-08
2.78699e-08
2.78699e-08
2.78699e-08
2.787e-08
2.787e-08
2.787e-08
2.78701e-08
2.78701e-08
2.78701e-08
2.78702e-08
2.78702e-08
2.78703e-08
2.78703e-08
2.78703e-08
2.78704e-08
2.78704e-08
2.78705e-08
2.78706e-08
2.78706e-08
2.78707e-08
2.78708e-08
2.78708e-08
2.78709e-08
2.7871e-08
2.7871e-08
2.78711e-08
2.78712e-08
2.78713e-08
2.78714e-08
2.78715e-08
2.78716e-08
2.78717e-08
2.78718e-08
2.78719e-08
2.78721e-08
2.78722e-08
2.78723e-08
2.78725e-08
2.78726e-08
2.78727e-08
2.78729e-08
2.78731e-08
2.78732e-08
2.78734e-08
2.78736e-08
2.78738e-08
2.7874e-08
2.78742e-08
2.78744e-08
2.78746e-08
2.78749e-08
2.78751e-08
2.78754e-08
2.78757e-08
2.7876e-08
2.78763e-08
2.78766e-08
2.7877e-08
2.78773e-08
2.78777e-08
2.78781e-08
2.78786e-08
2.7879e-08
2.78795e-08
2.78801e-08
2.78806e-08
2.78812e-08
2.78819e-08
2.78826e-08
2.78834e-08
2.78842e-08
2.78851e-08
2.78861e-08
2.78872e-08
2.78884e-08
2.78897e-08
2.78912e-08
2.78929e-08
2.78948e-08
2.7897e-08
2.78995e-08
2.79025e-08
2.7906e-08
2.79103e-08
2.79157e-08
2.79225e-08
2.79314e-08
2.79439e-08
2.79625e-08
2.7991e-08
2.80667e-08
2.79476e-08
2.79481e-08
2.80639e-08
2.79912e-08
2.79635e-08
2.79453e-08
2.7933e-08
2.79243e-08
2.79175e-08
2.79121e-08
2.79078e-08
2.79043e-08
2.79013e-08
2.78987e-08
2.78965e-08
2.78945e-08
2.78929e-08
2.78914e-08
2.789e-08
2.78888e-08
2.78877e-08
2.78866e-08
2.78857e-08
2.78849e-08
2.78841e-08
2.78834e-08
2.78827e-08
2.78821e-08
2.78815e-08
2.78809e-08
2.78804e-08
2.788e-08
2.78795e-08
2.78791e-08
2.78787e-08
2.78783e-08
2.78779e-08
2.78776e-08
2.78773e-08
2.7877e-08
2.78767e-08
2.78764e-08
2.78761e-08
2.78759e-08
2.78757e-08
2.78754e-08
2.78752e-08
2.7875e-08
2.78748e-08
2.78746e-08
2.78744e-08
2.78742e-08
2.78741e-08
2.78739e-08
2.78738e-08
2.78736e-08
2.78735e-08
2.78733e-08
2.78732e-08
2.78731e-08
2.7873e-08
2.78729e-08
2.78727e-08
2.78726e-08
2.78725e-08
2.78724e-08
2.78723e-08
2.78723e-08
2.78722e-08
2.78721e-08
2.7872e-08
2.78719e-08
2.78719e-08
2.78718e-08
2.78717e-08
2.78717e-08
2.78716e-08
2.78716e-08
2.78715e-08
2.78715e-08
2.78714e-08
2.78714e-08
2.78713e-08
2.78713e-08
2.78713e-08
2.78712e-08
2.78712e-08
2.78712e-08
2.78711e-08
2.78711e-08
2.78711e-08
2.78711e-08
2.78711e-08
2.7871e-08
2.7871e-08
2.7871e-08
2.7871e-08
2.7871e-08
2.7871e-08
2.7871e-08
2.7871e-08
2.7871e-08
2.7871e-08
2.7871e-08
2.7871e-08
2.7871e-08
2.78711e-08
2.78711e-08
2.78711e-08
2.78711e-08
2.78711e-08
2.78712e-08
2.78712e-08
2.78712e-08
2.78713e-08
2.78713e-08
2.78713e-08
2.78714e-08
2.78714e-08
2.78715e-08
2.78715e-08
2.78716e-08
2.78716e-08
2.78717e-08
2.78717e-08
2.78718e-08
2.78719e-08
2.78719e-08
2.7872e-08
2.78721e-08
2.78722e-08
2.78722e-08
2.78723e-08
2.78724e-08
2.78725e-08
2.78726e-08
2.78727e-08
2.78728e-08
2.78729e-08
2.78731e-08
2.78732e-08
2.78733e-08
2.78735e-08
2.78736e-08
2.78737e-08
2.78739e-08
2.7874e-08
2.78742e-08
2.78744e-08
2.78746e-08
2.78747e-08
2.78749e-08
2.78751e-08
2.78754e-08
2.78756e-08
2.78758e-08
2.7876e-08
2.78763e-08
2.78766e-08
2.78768e-08
2.78771e-08
2.78774e-08
2.78778e-08
2.78781e-08
2.78785e-08
2.78788e-08
2.78792e-08
2.78797e-08
2.78801e-08
2.78806e-08
2.78811e-08
2.78816e-08
2.78822e-08
2.78828e-08
2.78834e-08
2.78841e-08
2.78849e-08
2.78857e-08
2.78866e-08
2.78875e-08
2.78885e-08
2.78897e-08
2.78909e-08
2.78923e-08
2.78938e-08
2.78955e-08
2.78974e-08
2.78996e-08
2.79021e-08
2.7905e-08
2.79084e-08
2.79124e-08
2.79173e-08
2.79233e-08
2.7931e-08
2.7941e-08
2.79549e-08
2.79756e-08
2.80072e-08
2.809e-08
2.79595e-08
2.79589e-08
2.80841e-08
2.8005e-08
2.79749e-08
2.7955e-08
2.79415e-08
2.79318e-08
2.79243e-08
2.79183e-08
2.79135e-08
2.79096e-08
2.79062e-08
2.79034e-08
2.79009e-08
2.78987e-08
2.78968e-08
2.78951e-08
2.78936e-08
2.78922e-08
2.7891e-08
2.78898e-08
2.78888e-08
2.78878e-08
2.7887e-08
2.78861e-08
2.78854e-08
2.78847e-08
2.7884e-08
2.78834e-08
2.78828e-08
2.78823e-08
2.78818e-08
2.78813e-08
2.78809e-08
2.78804e-08
2.788e-08
2.78797e-08
2.78793e-08
2.78789e-08
2.78786e-08
2.78783e-08
2.7878e-08
2.78777e-08
2.78775e-08
2.78772e-08
2.78769e-08
2.78767e-08
2.78765e-08
2.78763e-08
2.78761e-08
2.78759e-08
2.78757e-08
2.78755e-08
2.78753e-08
2.78752e-08
2.7875e-08
2.78748e-08
2.78747e-08
2.78746e-08
2.78744e-08
2.78743e-08
2.78742e-08
2.7874e-08
2.78739e-08
2.78738e-08
2.78737e-08
2.78736e-08
2.78735e-08
2.78734e-08
2.78733e-08
2.78733e-08
2.78732e-08
2.78731e-08
2.7873e-08
2.7873e-08
2.78729e-08
2.78728e-08
2.78728e-08
2.78727e-08
2.78727e-08
2.78726e-08
2.78726e-08
2.78725e-08
2.78725e-08
2.78724e-08
2.78724e-08
2.78724e-08
2.78723e-08
2.78723e-08
2.78723e-08
2.78723e-08
2.78723e-08
2.78722e-08
2.78722e-08
2.78722e-08
2.78722e-08
2.78722e-08
2.78722e-08
2.78722e-08
2.78722e-08
2.78722e-08
2.78722e-08
2.78722e-08
2.78722e-08
2.78722e-08
2.78723e-08
2.78723e-08
2.78723e-08
2.78723e-08
2.78723e-08
2.78724e-08
2.78724e-08
2.78724e-08
2.78725e-08
2.78725e-08
2.78726e-08
2.78726e-08
2.78727e-08
2.78727e-08
2.78728e-08
2.78728e-08
2.78729e-08
2.7873e-08
2.7873e-08
2.78731e-08
2.78732e-08
2.78733e-08
2.78733e-08
2.78734e-08
2.78735e-08
2.78736e-08
2.78737e-08
2.78738e-08
2.78739e-08
2.7874e-08
2.78741e-08
2.78743e-08
2.78744e-08
2.78745e-08
2.78747e-08
2.78748e-08
2.7875e-08
2.78751e-08
2.78753e-08
2.78755e-08
2.78756e-08
2.78758e-08
2.7876e-08
2.78762e-08
2.78764e-08
2.78766e-08
2.78769e-08
2.78771e-08
2.78774e-08
2.78776e-08
2.78779e-08
2.78782e-08
2.78785e-08
2.78788e-08
2.78791e-08
2.78795e-08
2.78798e-08
2.78802e-08
2.78806e-08
2.7881e-08
2.78815e-08
2.7882e-08
2.78825e-08
2.7883e-08
2.78836e-08
2.78842e-08
2.78848e-08
2.78855e-08
2.78862e-08
2.7887e-08
2.78879e-08
2.78888e-08
2.78897e-08
2.78908e-08
2.7892e-08
2.78932e-08
2.78946e-08
2.78962e-08
2.78979e-08
2.78998e-08
2.79019e-08
2.79044e-08
2.79072e-08
2.79104e-08
2.79142e-08
2.79186e-08
2.79241e-08
2.79308e-08
2.79393e-08
2.79503e-08
2.79656e-08
2.79883e-08
2.80226e-08
2.81127e-08
2.79717e-08
2.79701e-08
2.81032e-08
2.80184e-08
2.79859e-08
2.79644e-08
2.79497e-08
2.79391e-08
2.79309e-08
2.79244e-08
2.79191e-08
2.79148e-08
2.79111e-08
2.7908e-08
2.79052e-08
2.79028e-08
2.79007e-08
2.78989e-08
2.78971e-08
2.78956e-08
2.78943e-08
2.7893e-08
2.78918e-08
2.78908e-08
2.78898e-08
2.78889e-08
2.78881e-08
2.78873e-08
2.78866e-08
2.78859e-08
2.78852e-08
2.78846e-08
2.78841e-08
2.78835e-08
2.7883e-08
2.78826e-08
2.78821e-08
2.78817e-08
2.78813e-08
2.78809e-08
2.78805e-08
2.78802e-08
2.78799e-08
2.78795e-08
2.78792e-08
2.7879e-08
2.78787e-08
2.78784e-08
2.78782e-08
2.78779e-08
2.78777e-08
2.78775e-08
2.78773e-08
2.78771e-08
2.78769e-08
2.78767e-08
2.78765e-08
2.78763e-08
2.78762e-08
2.7876e-08
2.78759e-08
2.78757e-08
2.78756e-08
2.78754e-08
2.78753e-08
2.78752e-08
2.78751e-08
2.7875e-08
2.78749e-08
2.78748e-08
2.78747e-08
2.78746e-08
2.78745e-08
2.78744e-08
2.78743e-08
2.78742e-08
2.78742e-08
2.78741e-08
2.7874e-08
2.7874e-08
2.78739e-08
2.78739e-08
2.78738e-08
2.78738e-08
2.78737e-08
2.78737e-08
2.78736e-08
2.78736e-08
2.78736e-08
2.78735e-08
2.78735e-08
2.78735e-08
2.78735e-08
2.78734e-08
2.78734e-08
2.78734e-08
2.78734e-08
2.78734e-08
2.78734e-08
2.78734e-08
2.78734e-08
2.78734e-08
2.78734e-08
2.78734e-08
2.78734e-08
2.78734e-08
2.78735e-08
2.78735e-08
2.78735e-08
2.78735e-08
2.78736e-08
2.78736e-08
2.78736e-08
2.78737e-08
2.78737e-08
2.78737e-08
2.78738e-08
2.78739e-08
2.78739e-08
2.7874e-08
2.7874e-08
2.78741e-08
2.78742e-08
2.78742e-08
2.78743e-08
2.78744e-08
2.78745e-08
2.78746e-08
2.78747e-08
2.78748e-08
2.78749e-08
2.7875e-08
2.78751e-08
2.78752e-08
2.78753e-08
2.78754e-08
2.78756e-08
2.78757e-08
2.78758e-08
2.7876e-08
2.78761e-08
2.78763e-08
2.78765e-08
2.78766e-08
2.78768e-08
2.7877e-08
2.78772e-08
2.78774e-08
2.78776e-08
2.78779e-08
2.78781e-08
2.78783e-08
2.78786e-08
2.78789e-08
2.78791e-08
2.78794e-08
2.78797e-08
2.78801e-08
2.78804e-08
2.78807e-08
2.78811e-08
2.78815e-08
2.78819e-08
2.78823e-08
2.78828e-08
2.78832e-08
2.78837e-08
2.78843e-08
2.78848e-08
2.78854e-08
2.78861e-08
2.78867e-08
2.78874e-08
2.78882e-08
2.7889e-08
2.78899e-08
2.78908e-08
2.78918e-08
2.78929e-08
2.78941e-08
2.78954e-08
2.78968e-08
2.78983e-08
2.79e-08
2.79019e-08
2.79041e-08
2.79064e-08
2.79091e-08
2.79122e-08
2.79157e-08
2.79199e-08
2.79248e-08
2.79307e-08
2.79381e-08
2.79474e-08
2.79594e-08
2.79761e-08
2.80006e-08
2.80375e-08
2.81343e-08
2.79844e-08
2.79788e-08
2.81217e-08
2.80312e-08
2.79966e-08
2.79735e-08
2.79578e-08
2.79463e-08
2.79375e-08
2.79304e-08
2.79247e-08
2.79199e-08
2.79159e-08
2.79125e-08
2.79095e-08
2.79069e-08
2.79046e-08
2.79026e-08
2.79007e-08
2.7899e-08
2.78975e-08
2.78962e-08
2.78949e-08
2.78937e-08
2.78927e-08
2.78917e-08
2.78907e-08
2.78899e-08
2.78891e-08
2.78883e-08
2.78876e-08
2.7887e-08
2.78864e-08
2.78858e-08
2.78852e-08
2.78847e-08
2.78842e-08
2.78837e-08
2.78833e-08
2.78829e-08
2.78825e-08
2.78821e-08
2.78817e-08
2.78814e-08
2.7881e-08
2.78807e-08
2.78804e-08
2.78801e-08
2.78799e-08
2.78796e-08
2.78793e-08
2.78791e-08
2.78789e-08
2.78786e-08
2.78784e-08
2.78782e-08
2.7878e-08
2.78778e-08
2.78777e-08
2.78775e-08
2.78773e-08
2.78772e-08
2.7877e-08
2.78769e-08
2.78767e-08
2.78766e-08
2.78765e-08
2.78763e-08
2.78762e-08
2.78761e-08
2.7876e-08
2.78759e-08
2.78758e-08
2.78757e-08
2.78756e-08
2.78755e-08
2.78754e-08
2.78754e-08
2.78753e-08
2.78752e-08
2.78752e-08
2.78751e-08
2.7875e-08
2.7875e-08
2.78749e-08
2.78749e-08
2.78748e-08
2.78748e-08
2.78748e-08
2.78747e-08
2.78747e-08
2.78747e-08
2.78747e-08
2.78746e-08
2.78746e-08
2.78746e-08
2.78746e-08
2.78746e-08
2.78746e-08
2.78746e-08
2.78746e-08
2.78746e-08
2.78746e-08
2.78746e-08
2.78746e-08
2.78746e-08
2.78747e-08
2.78747e-08
2.78747e-08
2.78747e-08
2.78748e-08
2.78748e-08
2.78748e-08
2.78749e-08
2.78749e-08
2.7875e-08
2.7875e-08
2.78751e-08
2.78752e-08
2.78752e-08
2.78753e-08
2.78754e-08
2.78754e-08
2.78755e-08
2.78756e-08
2.78757e-08
2.78758e-08
2.78759e-08
2.7876e-08
2.78761e-08
2.78762e-08
2.78763e-08
2.78764e-08
2.78766e-08
2.78767e-08
2.78768e-08
2.7877e-08
2.78771e-08
2.78773e-08
2.78775e-08
2.78776e-08
2.78778e-08
2.7878e-08
2.78782e-08
2.78784e-08
2.78786e-08
2.78788e-08
2.7879e-08
2.78793e-08
2.78795e-08
2.78798e-08
2.788e-08
2.78803e-08
2.78806e-08
2.78809e-08
2.78812e-08
2.78816e-08
2.78819e-08
2.78823e-08
2.78827e-08
2.78831e-08
2.78835e-08
2.7884e-08
2.78844e-08
2.78849e-08
2.78854e-08
2.7886e-08
2.78866e-08
2.78872e-08
2.78878e-08
2.78885e-08
2.78893e-08
2.789e-08
2.78909e-08
2.78918e-08
2.78927e-08
2.78937e-08
2.78949e-08
2.78961e-08
2.78974e-08
2.78988e-08
2.79003e-08
2.7902e-08
2.79039e-08
2.7906e-08
2.79083e-08
2.79108e-08
2.79138e-08
2.79171e-08
2.7921e-08
2.79255e-08
2.79309e-08
2.79373e-08
2.79453e-08
2.79554e-08
2.79683e-08
2.79862e-08
2.80125e-08
2.80519e-08
2.81551e-08
2.79942e-08
2.7989e-08
2.81389e-08
2.80436e-08
2.8007e-08
2.79824e-08
2.79656e-08
2.79534e-08
2.79439e-08
2.79363e-08
2.79301e-08
2.7925e-08
2.79207e-08
2.7917e-08
2.79138e-08
2.79109e-08
2.79085e-08
2.79062e-08
2.79042e-08
2.79024e-08
2.79008e-08
2.78993e-08
2.78979e-08
2.78966e-08
2.78955e-08
2.78944e-08
2.78934e-08
2.78925e-08
2.78916e-08
2.78908e-08
2.789e-08
2.78893e-08
2.78886e-08
2.7888e-08
2.78874e-08
2.78868e-08
2.78863e-08
2.78858e-08
2.78853e-08
2.78848e-08
2.78844e-08
2.7884e-08
2.78836e-08
2.78832e-08
2.78828e-08
2.78825e-08
2.78821e-08
2.78818e-08
2.78815e-08
2.78812e-08
2.7881e-08
2.78807e-08
2.78804e-08
2.78802e-08
2.788e-08
2.78797e-08
2.78795e-08
2.78793e-08
2.78791e-08
2.78789e-08
2.78788e-08
2.78786e-08
2.78784e-08
2.78783e-08
2.78781e-08
2.7878e-08
2.78778e-08
2.78777e-08
2.78776e-08
2.78774e-08
2.78773e-08
2.78772e-08
2.78771e-08
2.7877e-08
2.78769e-08
2.78768e-08
2.78767e-08
2.78766e-08
2.78765e-08
2.78765e-08
2.78764e-08
2.78763e-08
2.78763e-08
2.78762e-08
2.78762e-08
2.78761e-08
2.78761e-08
2.7876e-08
2.7876e-08
2.78759e-08
2.78759e-08
2.78759e-08
2.78758e-08
2.78758e-08
2.78758e-08
2.78758e-08
2.78758e-08
2.78758e-08
2.78758e-08
2.78758e-08
2.78758e-08
2.78758e-08
2.78758e-08
2.78758e-08
2.78758e-08
2.78758e-08
2.78759e-08
2.78759e-08
2.78759e-08
2.78759e-08
2.7876e-08
2.7876e-08
2.78761e-08
2.78761e-08
2.78762e-08
2.78762e-08
2.78763e-08
2.78763e-08
2.78764e-08
2.78765e-08
2.78765e-08
2.78766e-08
2.78767e-08
2.78768e-08
2.78769e-08
2.7877e-08
2.78771e-08
2.78772e-08
2.78773e-08
2.78774e-08
2.78775e-08
2.78777e-08
2.78778e-08
2.78779e-08
2.78781e-08
2.78782e-08
2.78784e-08
2.78786e-08
2.78787e-08
2.78789e-08
2.78791e-08
2.78793e-08
2.78795e-08
2.78797e-08
2.78799e-08
2.78801e-08
2.78804e-08
2.78806e-08
2.78809e-08
2.78812e-08
2.78814e-08
2.78817e-08
2.7882e-08
2.78824e-08
2.78827e-08
2.78831e-08
2.78834e-08
2.78838e-08
2.78842e-08
2.78846e-08
2.78851e-08
2.78855e-08
2.7886e-08
2.78865e-08
2.78871e-08
2.78876e-08
2.78882e-08
2.78889e-08
2.78895e-08
2.78902e-08
2.7891e-08
2.78918e-08
2.78926e-08
2.78936e-08
2.78945e-08
2.78956e-08
2.78967e-08
2.78979e-08
2.78992e-08
2.79006e-08
2.79021e-08
2.79038e-08
2.79056e-08
2.79077e-08
2.79099e-08
2.79124e-08
2.79152e-08
2.79184e-08
2.7922e-08
2.79262e-08
2.79311e-08
2.79368e-08
2.79438e-08
2.79524e-08
2.79632e-08
2.79771e-08
2.7996e-08
2.8024e-08
2.80657e-08
2.81743e-08
2.80056e-08
2.79997e-08
2.81557e-08
2.80556e-08
2.80171e-08
2.79911e-08
2.79734e-08
2.79603e-08
2.79502e-08
2.79421e-08
2.79355e-08
2.79301e-08
2.79254e-08
2.79215e-08
2.7918e-08
2.7915e-08
2.79123e-08
2.79099e-08
2.79077e-08
2.79058e-08
2.7904e-08
2.79024e-08
2.79009e-08
2.78995e-08
2.78983e-08
2.78971e-08
2.7896e-08
2.7895e-08
2.78941e-08
2.78932e-08
2.78924e-08
2.78916e-08
2.78909e-08
2.78902e-08
2.78895e-08
2.78889e-08
2.78883e-08
2.78878e-08
2.78873e-08
2.78868e-08
2.78863e-08
2.78858e-08
2.78854e-08
2.7885e-08
2.78846e-08
2.78842e-08
2.78839e-08
2.78835e-08
2.78832e-08
2.78829e-08
2.78826e-08
2.78823e-08
2.7882e-08
2.78818e-08
2.78815e-08
2.78813e-08
2.7881e-08
2.78808e-08
2.78806e-08
2.78804e-08
2.78802e-08
2.788e-08
2.78798e-08
2.78797e-08
2.78795e-08
2.78793e-08