/*--------------------------------*- C++ -*----------------------------------*\
  =========                 |
  \\      /  F ield         | OpenFOAM: The Open Source CFD Toolbox
   \\    /   O peration     | Website:  https://openfoam.org
    \\  /    A nd           | Version:  10
     \\/     M anipulation  |
\*---------------------------------------------------------------------------*/
FoamFile
{
    format      ascii;
    class       surfaceScalarField;
    location    "500";
    object      phi;
}
// * * * * * * * * * * * * * * * * * * * * * * * * * * * * * * * * * * * * * //

dimensions      [1 0 -1 0 0 0 0];

internalField   nonuniform List<scalar> 
26421
(
0.00075025
-0.000750161
-8.94786e-08
0.0013884
-0.000638154
0.00185833
-0.000469928
0.00215528
-0.000296952
0.00232892
-0.000173631
0.00242062
-9.17014e-05
0.00245886
-3.82398e-05
0.00246405
-5.19121e-06
0.00244902
1.50286e-05
0.00242497
2.40495e-05
0.00239973
2.52385e-05
0.00237599
2.37414e-05
0.00235449
2.15007e-05
0.00233412
2.03742e-05
0.00231344
2.06726e-05
0.00229148
2.196e-05
0.00226767
2.38177e-05
0.00224166
2.60073e-05
0.00221308
2.85797e-05
0.00218202
3.10547e-05
0.00214901
3.30085e-05
0.00211448
3.45307e-05
0.00207931
3.51704e-05
0.00204477
3.45441e-05
0.00201221
3.25581e-05
0.00198645
2.57664e-05
0.00196849
1.79548e-05
0.00195465
1.38371e-05
0.00194232
1.23352e-05
0.00193003
1.22835e-05
0.00191679
1.32444e-05
0.00190216
1.46342e-05
0.00188588
1.6279e-05
0.00186791
1.79644e-05
0.00184814
1.97685e-05
0.00182667
2.14716e-05
0.00180344
2.32341e-05
0.00177849
2.495e-05
0.00175184
2.66477e-05
0.00172346
2.83773e-05
0.0016933
3.01671e-05
0.00166124
3.20548e-05
0.0016272
3.4044e-05
0.00159094
3.62622e-05
0.00155195
3.89804e-05
0.00150989
4.20648e-05
0.00146294
4.69479e-05
0.00140867
5.4276e-05
0.00133522
7.34442e-05
0.000104369
0.00123085
0.000679258
-0.00142933
-9.0087e-08
0.00129482
-0.00125372
0.00176071
-0.000935819
0.0020788
-0.00061504
0.00228554
-0.000380364
0.00242164
-0.000227809
0.00251559
-0.000132182
0.00258563
-7.52357e-05
0.00263978
-3.91265e-05
0.00268006
-1.62291e-05
0.00270844
-3.14237e-06
0.00272598
6.20756e-06
0.00273452
1.29604e-05
0.00273576
1.91357e-05
0.00273108
2.53526e-05
0.00272165
3.13864e-05
0.00270828
3.71893e-05
0.00269125
4.304e-05
0.00267083
4.89968e-05
0.00264693
5.49502e-05
0.00261951
6.04356e-05
0.00258906
6.49731e-05
0.00255667
6.75607e-05
0.00252376
6.7461e-05
0.00249167
6.46403e-05
0.00246554
5.18984e-05
0.00244706
3.64404e-05
0.00243277
2.81276e-05
0.00241983
2.52695e-05
0.00240673
2.53868e-05
0.00239258
2.73926e-05
0.00237691
3.03014e-05
0.00235942
3.37771e-05
0.00234003
3.73539e-05
0.00231861
4.11803e-05
0.00229529
4.47974e-05
0.00227
4.85247e-05
0.0022428
5.21442e-05
0.00221374
5.57144e-05
0.00218278
5.93336e-05
0.00214989
6.3061e-05
0.00211497
6.6971e-05
0.00207794
7.10701e-05
0.00203862
7.55832e-05
0.00199655
8.1059e-05
0.00195139
8.72177e-05
0.00190188
9.64558e-05
0.00184593
0.000110233
0.00178271
0.000136666
0.000170912
0.00171616
0.000633663
-0.0020629
-9.25489e-08
0.00126527
-0.00188533
0.00182353
-0.00149407
0.00226112
-0.00105263
0.00257949
-0.000698742
0.00280486
-0.000453179
0.00296088
-0.000288195
0.0030688
-0.000183158
0.00314235
-0.000112674
0.00319114
-6.50237e-05
0.00322286
-3.48575e-05
0.00324281
-1.37457e-05
0.00325486
9.06491e-07
0.00326089
1.31072e-05
0.00326183
2.44096e-05
0.00325799
3.52279e-05
0.00324935
4.58334e-05
0.00323583
5.65539e-05
0.00321771
6.71221e-05
0.00319524
7.74242e-05
0.00316886
8.68092e-05
0.00313913
9.47036e-05
0.00310691
9.97783e-05
0.00307352
0.000100852
0.0030404
9.77624e-05
0.00301315
7.91524e-05
0.00299385
5.57382e-05
0.00297895
4.30282e-05
0.0029654
3.8822e-05
0.0029515
3.92833e-05
0.00293632
4.2572e-05
0.00291937
4.72489e-05
0.00290033
5.28177e-05
0.00287915
5.85369e-05
0.00285569
6.46419e-05
0.00283008
7.04046e-05
0.00280229
7.63176e-05
0.00277239
8.20395e-05
0.00274045
8.766e-05
0.00270646
9.33249e-05
0.00267039
9.91262e-05
0.00263219
0.000105174
0.0025918
0.000111462
0.00254909
0.000118285
0.00250369
0.000126465
0.00245547
0.000135435
0.00240378
0.000148151
0.00234785
0.000166163
0.00229093
0.000193584
0.000228496
0.00223334
0.000606573
-0.00266938
-9.59146e-08
0.00122966
-0.00250842
0.00181461
-0.00207903
0.00230158
-0.00153959
0.00267205
-0.00106922
0.00293764
-0.000718766
0.00312284
-0.000473401
0.0032543
-0.000314613
0.00335216
-0.000210534
0.00342876
-0.000141629
0.00349226
-9.83512e-05
0.00354663
-6.81186e-05
0.00359429
-4.67504e-05
0.00363595
-2.85585e-05
0.00367156
-1.12028e-05
0.00370081
5.98058e-06
0.00372324
2.34017e-05
0.00373815
4.16436e-05
0.00374495
6.03304e-05
0.00374299
7.93786e-05
0.00373207
9.77348e-05
0.00371275
0.00011402
0.00368693
0.000125593
0.00365757
0.000130213
0.00362757
0.000127767
0.00360309
0.00010363
0.00358621
7.26192e-05
0.00357321
5.60272e-05
0.00356099
5.1041e-05
0.00354791
5.23636e-05
0.00353306
5.74227e-05
0.003516
6.43088e-05
0.00349644
7.23768e-05
0.00347438
8.0596e-05
0.00344971
8.93121e-05
0.00342261
9.75073e-05
0.00339306
0.000105864
0.0033612
0.000113908
0.00332709
0.000121764
0.00329079
0.000129625
0.0032523
0.000137616
0.0032116
0.000145877
0.00316869
0.00015437
0.00312355
0.000163425
0.0030759
0.000174113
0.00302595
0.000185388
0.00297354
0.000200557
0.00291904
0.000220672
0.00286617
0.00024645
0.000277722
0.00281694
0.000593615
-0.00326289
-9.93585e-08
0.00121291
-0.00312771
0.00182416
-0.00269028
0.00237256
-0.00208799
0.00282667
-0.00152333
0.00317893
-0.00107102
0.00344009
-0.000734565
0.00363356
-0.000508082
0.00377742
-0.000354397
0.0038852
-0.000249403
0.00396646
-0.000179613
0.00402811
-0.000129772
0.0040753
-9.39367e-05
0.00411176
-6.50182e-05
0.00414021
-3.96527e-05
0.00416274
-1.65493e-05
0.00418096
5.18351e-06
0.00419592
2.66786e-05
0.0042085
4.77497e-05
0.00421898
6.88994e-05
0.00422734
8.93724e-05
0.00423332
0.000108043
0.00423643
0.000122484
0.00423605
0.000130595
0.00423173
0.000132085
0.00422646
0.000108895
0.00422267
7.64152e-05
0.00421875
5.99437e-05
0.0042131
5.66932e-05
0.00420502
6.04381e-05
0.00419388
6.85664e-05
0.00417949
7.86987e-05
0.00416175
9.01136e-05
0.00414082
0.000101528
0.00411668
0.000113449
0.00408962
0.000124569
0.0040597
0.000135786
0.00402711
0.000146499
0.003992
0.000156871
0.00395448
0.000167147
0.00391461
0.000177487
0.00387243
0.000188054
0.00382804
0.000198758
0.00378155
0.000209923
0.00373282
0.000222839
0.00368241
0.0002358
0.00363046
0.000252506
0.00357827
0.000272866
0.00352927
0.000295448
0.00032005
0.00348694
0.000592386
-0.00385518
-1.02865e-07
0.00121097
-0.00374629
0.00183678
-0.00331609
0.00242725
-0.00267846
0.00294623
-0.0020423
0.00336922
-0.00149402
0.00369258
-0.00105792
0.00393395
-0.00074945
0.00411201
-0.000532458
0.00424408
-0.000381476
0.00434367
-0.000279199
0.00442064
-0.000206745
0.0044822
-0.000155499
0.00453314
-0.000115952
0.00457633
-8.28436e-05
0.00461364
-5.38619e-05
0.00464631
-2.74855e-05
0.00467491
-1.92674e-06
0.00470004
2.26268e-05
0.00472207
4.68678e-05
0.00474163
6.98125e-05
0.00475951
9.01569e-05
0.00477707
0.000104931
0.00479605
0.000111613
0.00481722
0.000110912
0.00484015
8.59707e-05
0.00486192
5.46423e-05
0.00487951
4.23565e-05
0.00489161
4.4594e-05
0.00489789
5.41557e-05
0.00489821
6.82467e-05
0.00489291
8.39917e-05
0.00488238
0.000100644
0.00486716
0.000116752
0.00484754
0.000133067
0.00482405
0.000148063
0.00479693
0.000162903
0.00476653
0.000176895
0.00473313
0.00019027
0.00469695
0.000203335
0.00465814
0.000216292
0.00461687
0.000229327
0.00457335
0.000242278
0.00452784
0.000255429
0.00448043
0.000270249
0.00443194
0.000284288
0.00438273
0.000301722
0.00433477
0.000320825
0.00429024
0.000339974
0.000355648
0.00425465
0.000601557
-0.00445663
-1.06446e-07
0.00122585
-0.00437058
0.00186513
-0.00395538
0.00248978
-0.00330311
0.00306783
-0.00262035
0.00356781
-0.00199399
0.00397047
-0.00146058
0.00428405
-0.00106303
0.00452258
-0.000770988
0.00470363
-0.000562522
0.00484171
-0.000417288
0.00494826
-0.000313291
0.00503175
-0.000238988
0.00509824
-0.000182446
0.00515187
-0.000136466
0.00519548
-9.74798e-05
0.00523118
-6.31801e-05
0.00526031
-3.10559e-05
0.00528424
-1.30096e-06
0.00530408
2.70212e-05
0.00532115
5.2743e-05
0.00533707
7.42411e-05
0.00535385
8.81514e-05
0.00537388
9.15776e-05
0.00539962
8.51722e-05
0.00543131
5.42829e-05
0.00546552
2.04301e-05
0.0054985
9.38053e-06
0.00552724
1.58508e-05
0.00555051
3.08843e-05
0.00556769
5.10697e-05
0.00557862
7.30569e-05
0.00558336
9.59071e-05
0.00558225
0.000117861
0.00557554
0.000139784
0.00556373
0.000159867
0.00554718
0.000179456
0.00552632
0.000197751
0.00550158
0.000215017
0.0054733
0.000231612
0.00544182
0.000247766
0.00540747
0.000263676
0.00537066
0.000279095
0.00533184
0.000294249
0.00529138
0.000310704
0.00525028
0.000325394
0.00520929
0.000342704
0.00517027
0.000359853
0.00513419
0.000376049
0.000382755
0.00510708
0.000620151
-0.00507667
-1.10152e-07
0.00125782
-0.00500825
0.00191161
-0.00460917
0.00256353
-0.00395503
0.0031898
-0.00324662
0.00375819
-0.00256238
0.00423837
-0.00194076
0.00462642
-0.00145109
0.00492799
-0.00107256
0.00515862
-0.00079315
0.0053339
-0.00059257
0.00546769
-0.000447081
0.00557103
-0.000342331
0.00565236
-0.000263777
0.00571762
-0.00020172
0.00577094
-0.000150803
0.00581526
-0.000107495
0.00585254
-6.8337e-05
0.00588454
-3.32999e-05
0.00591251
-9.49805e-07
0.00593769
2.7564e-05
0.00596141
5.05141e-05
0.00598562
6.39417e-05
0.00601294
6.4262e-05
0.00604591
5.22036e-05
0.00608487
1.53198e-05
0.00612613
-2.08272e-05
0.00616582
-3.03139e-05
0.00620116
-1.94892e-05
0.0062308
1.24146e-06
0.00625426
2.76152e-05
0.00627149
5.5824e-05
0.00628264
8.4762e-05
0.00628812
0.000112375
0.00628824
0.000139672
0.0062835
0.000164599
0.00627428
0.000188681
0.00626101
0.00021102
0.00624411
0.000231913
0.00622398
0.000251747
0.00620099
0.000270758
0.00617553
0.000289134
0.00614811
0.000306514
0.00611931
0.000323054
0.00608969
0.000340323
0.00606024
0.000354841
0.00603202
0.000370925
0.00600621
0.000385665
0.0059839
0.000398359
0.000398761
0.00596789
0.000647892
-0.00572445
-1.1402e-07
0.00130744
-0.0056678
0.00198034
-0.00528207
0.00265752
-0.00463221
0.00332414
-0.00391324
0.00395303
-0.00319127
0.00450956
-0.00249729
0.00497931
-0.00192083
0.00535718
-0.00145043
0.00565341
-0.00108938
0.00588237
-0.000821533
0.00605905
-0.000623761
0.00619617
-0.000479457
0.00630402
-0.000371623
0.00639014
-0.000287842
0.0064599
-0.000220563
0.00651718
-0.000164774
0.00656462
-0.000115779
0.00660436
-7.30345e-05
0.00663794
-3.45335e-05
0.00666696
-1.45544e-06
0.00669324
2.42355e-05
0.00671931
3.78726e-05
0.00674823
3.53446e-05
0.00678314
1.72933e-05
0.00682446
-2.60064e-05
0.00686819
-6.45498e-05
0.00691035
-7.24806e-05
0.00694807
-5.7209e-05
0.00697979
-3.04806e-05
0.00700504
2.37459e-06
0.0070238
3.70629e-05
0.00703625
7.23117e-05
0.00704286
0.000105762
0.00704398
0.000138551
0.00704023
0.00016835
0.00703205
0.00019686
0.00702
0.00022307
0.00700461
0.000247307
0.00698638
0.000269975
0.00696582
0.000291312
0.00694348
0.000311482
0.00691999
0.000330004
0.00689607
0.000346966
0.00687245
0.000363949
0.00685013
0.000377158
0.00683012
0.000390933
0.00681326
0.000402528
0.00680072
0.0004109
0.000406621
0.00679286
0.000684757
-0.00640908
-1.18086e-07
0.00137505
-0.00635809
0.00207368
-0.00598069
0.00277714
-0.00533567
0.00347921
-0.00461531
0.00415986
-0.00387192
0.00478566
-0.0031231
0.00533676
-0.00247193
0.00579673
-0.00191039
0.00616725
-0.0014599
0.00645848
-0.00111277
0.00668494
-0.00085022
0.00686052
-0.000655038
0.00699757
-0.000508667
0.00710576
-0.000396036
0.00719233
-0.000307138
0.00726262
-0.000235063
0.00732035
-0.000173509
0.00736848
-0.000121157
0.00740929
-7.53456e-05
0.00744496
-3.71238e-05
0.0074777
-8.50927e-06
0.00751021
5.36064e-06
0.00754571
-1.53925e-07
0.00758761
-2.46097e-05
0.00763621
-7.46058e-05
0.0076872
-0.000115535
0.00773622
-0.000121498
0.00778017
-0.000101165
0.00781734
-6.76493e-05
0.00784711
-2.73958e-05
0.00786952
1.46509e-05
0.0078848
5.70371e-05
0.00789349
9.70718e-05
0.00789602
0.000136017
0.00789314
0.000171238
0.00788539
0.000204607
0.00787347
0.000234984
0.00785806
0.000262717
0.00783982
0.000288221
0.0078194
0.000311734
0.00779748
0.000333398
0.00777486
0.000352625
0.00775237
0.000369459
0.00773075
0.000385562
0.00771106
0.000396853
0.0076941
0.000407896
0.00768059
0.00041603
0.00767126
0.000420232
0.000411975
0.00766591
0.000730992
-0.00713995
-1.22373e-07
0.0014613
-0.0070884
0.00219368
-0.00671307
0.00292786
-0.00606986
0.00366377
-0.00535122
0.00438981
-0.00459795
0.00507751
-0.0038108
0.005706
-0.00310043
0.00625146
-0.00245585
0.00670564
-0.00191408
0.00707163
-0.00147875
0.00736112
-0.00113971
0.00758781
-0.000881733
0.0077655
-0.000686358
0.00790582
-0.000536353
0.00801787
-0.000419185
0.00810856
-0.000325758
0.00818285
-0.000247798
0.00824463
-0.000182938
0.00829685
-0.000127563
0.00834208
-8.23496e-05
0.00838281
-4.92468e-05
0.00842214
-3.39687e-05
0.00846371
-4.17189e-05
0.00851143
-7.23326e-05
0.00856572
-0.000128898
0.008622
-0.000171812
0.00867584
-0.00017534
0.00872408
-0.000149407
0.00876482
-0.000108383
0.00879751
-6.00891e-05
0.00882217
-1.00083e-05
0.00883907
4.01404e-05
0.00884885
8.72884e-05
0.00885204
0.000132827
0.00884947
0.000173803
0.00884181
0.00021227
0.00882985
0.00024695
0.00881435
0.00027821
0.00879609
0.00030648
0.00877584
0.000331993
0.00875436
0.000354874
0.00873254
0.000374446
0.00871126
0.000390739
0.00869125
0.000405572
0.00867344
0.000414658
0.00865838
0.000422963
0.00864663
0.000427779
0.00863838
0.000428477
0.000416766
0.00863359
0.00078703
-0.00792686
-1.269e-07
0.00156705
-0.00786842
0.0023422
-0.00748822
0.00311384
-0.0068415
0.00388574
-0.00612312
0.00465362
-0.00536584
0.00539605
-0.00455322
0.00609525
-0.00379963
0.00672437
-0.00308497
0.00726689
-0.0024566
0.007717
-0.00192886
0.00808072
-0.00150342
0.00836936
-0.00117037
0.00859698
-0.000913982
0.00877672
-0.000716089
0.0089196
-0.000562069
0.00903442
-0.000440576
0.00912773
-0.000341108
0.00920468
-0.000259892
0.00926919
-0.00019207
0.00932462
-0.000137784
0.00937414
-9.87665e-05
0.00942143
-8.12597e-05
0.00947057
-9.08554e-05
0.00952606
-0.000127821
0.00958822
-0.000191057
0.00965217
-0.000235757
0.00971321
-0.00023638
0.00976806
-0.000204266
0.00981469
-0.000155006
0.00985233
-9.77343e-05
0.00988113
-3.88072e-05
0.00990142
1.9855e-05
0.00991392
7.47834e-05
0.00991922
0.000127527
0.00991826
0.000174768
0.00991178
0.000218747
0.00990071
0.000258021
0.00988593
0.000292983
0.00986834
0.000324077
0.00984879
0.000351543
0.00982815
0.000375513
0.00980734
0.00039525
0.00978727
0.000410813
0.00976858
0.000424258
0.00975217
0.000431074
0.00973831
0.000436823
0.00972749
0.0004386
0.0097196
0.000436361
0.000421683
0.00971469
0.000853481
-0.00878021
-1.31679e-07
0.00169348
-0.00870842
0.00252126
-0.008316
0.00333881
-0.00765905
0.004152
-0.00693631
0.00496178
-0.00617562
0.00575442
-0.00534586
0.00651717
-0.00456238
0.00722448
-0.00379228
0.00785593
-0.00308806
0.00839696
-0.00246989
0.0088459
-0.00195237
0.00920914
-0.00153361
0.0094992
-0.00120404
0.00972974
-0.000946625
0.00991337
-0.000745703
0.0100608
-0.000587994
0.0101803
-0.000460658
0.0102787
-0.000358208
0.0103609
-0.000274263
0.0104312
-0.000208167
0.0104936
-0.000161182
0.0105523
-0.000139917
0.0106117
-0.000150292
0.010677
-0.000193095
0.0107485
-0.000262497
0.0108208
-0.00030815
0.0108895
-0.000305053
0.0109511
-0.00026589
0.0110036
-0.000207437
0.0110461
-0.000140275
0.0110789
-7.16279e-05
0.0111024
-3.60913e-06
0.0111173
5.98445e-05
0.0111245
0.000120412
0.0111248
0.000174383
0.0111194
0.000224201
0.0111092
0.000268257
0.0110952
0.000306982
0.0110784
0.000340857
0.0110598
0.000370156
0.0110402
0.000395044
0.0110207
0.000414774
0.011002
0.000429487
0.0109848
0.000441535
0.0109696
0.000446228
0.0109567
0.000449768
0.0109463
0.000448998
0.0109382
0.000444432
0.000427569
0.0109323
0.000931117
-0.00971119
-1.36722e-07
0.00184206
-0.00961936
0.00273314
-0.00920708
0.00360639
-0.00853229
0.00446855
-0.00779847
0.00532394
-0.007031
0.00616511
-0.00618704
0.00698591
-0.00538317
0.00776492
-0.0045713
0.00848135
-0.00380448
0.00911556
-0.0031041
0.00965765
-0.00249446
0.0101069
-0.00198284
0.0104718
-0.001569
0.010765
-0.00123981
0.0109997
-0.000980421
0.0111883
-0.00077654
0.0113409
-0.000613233
0.0114658
-0.000483175
0.0115697
-0.000378168
0.0116581
-0.000296545
0.0117357
-0.000238766
0.0118075
-0.000211759
0.0118788
-0.000221534
0.0119553
-0.000269578
0.0120372
-0.00034445
0.0121192
-0.00039014
0.0121966
-0.000382447
0.0122661
-0.000335347
0.0123255
-0.000266858
0.0123739
-0.000188705
0.0124117
-0.000109412
0.0124393
-3.12081e-05
0.0124577
4.14588e-05
0.0124677
0.000110438
0.0124704
0.0001716
0.012467
0.000227617
0.0124586
0.0002767
0.0124462
0.00031933
0.012431
0.000356043
0.012414
0.000387175
0.0123961
0.000412965
0.0123782
0.000432692
0.0123611
0.000446606
0.0123451
0.000457458
0.0123311
0.000460316
0.0123188
0.000462036
0.0123086
0.000459222
0.0123002
0.000452805
0.000434295
0.0122935
0.00102088
-0.0107319
-1.42035e-07
0.00201459
-0.0106131
0.00298048
-0.010173
0.00392035
-0.00947216
0.00484105
-0.00871918
0.00574875
-0.00793871
0.0066407
-0.00707899
0.00751667
-0.00625914
0.00836138
-0.00541601
0.00915693
-0.00460003
0.00988213
-0.0038293
0.0105213
-0.00313368
0.0110658
-0.00252729
0.0115179
-0.00202112
0.0118869
-0.00160877
0.0121852
-0.00127876
0.0124261
-0.0010174
0.0126213
-0.000808482
0.0127811
-0.000642959
0.0129137
-0.000510716
0.0130259
-0.000408823
0.0131238
-0.000336667
0.0132134
-0.000301273
0.0133004
-0.000308543
0.0133915
-0.000360702
0.0134869
-0.000439833
0.0135807
-0.000484003
0.0136688
-0.000470498
0.0137476
-0.00041419
0.0138154
-0.000334581
0.0138709
-0.000244251
0.0139148
-0.000153268
0.0139475
-6.39232e-05
0.0139701
1.88101e-05
0.0139836
9.69311e-05
0.0139894
0.000165855
0.0139885
0.000228499
0.0139823
0.000282895
0.013972
0.000329606
0.0139588
0.000369256
0.0139437
0.000402285
0.0139276
0.000429043
0.0139114
0.000448884
0.0138958
0.00046221
0.0138811
0.000472173
0.0138678
0.000473607
0.0138559
0.000473997
0.0138453
0.000469764
0.013836
0.000462104
0.000442598
0.0138277
0.00112387
-0.0118556
-1.47627e-07
0.00221318
-0.0117024
0.00326638
-0.0112262
0.00428486
-0.0104906
0.00527516
-0.00970948
0.0062443
-0.00890784
0.00719268
-0.00802738
0.0081246
-0.00719105
0.00903137
-0.00632279
0.00989992
-0.00546858
0.010711
-0.00464038
0.0114468
-0.00386943
0.0120917
-0.00317228
0.0126412
-0.00257053
0.0130986
-0.00206625
0.0134739
-0.00165402
0.0137796
-0.0013231
0.0140286
-0.00105746
0.0142326
-0.000846973
0.0144016
-0.000679717
0.0145442
-0.000551451
0.0146677
-0.000460156
0.0147792
-0.000412809
0.0148856
-0.000414904
0.0149944
-0.000469461
0.0151055
-0.000550965
0.0152129
-0.000591433
0.015313
-0.000570543
0.0154023
-0.00050351
0.0154793
-0.000411551
0.0155428
-0.000307814
0.0155935
-0.000203946
0.015632
-0.000102434
0.0156596
-8.7912e-06
0.0156774
7.91624e-05
0.0156869
0.000156382
0.0156893
0.000226073
0.0156861
0.000286095
0.0156786
0.000337124
0.0156679
0.000379908
0.0156552
0.000415025
0.0156412
0.000442969
0.0156269
0.000463213
0.0156128
0.000476301
0.0155992
0.00048579
0.0155865
0.000486282
0.0155747
0.000485828
0.0155638
0.000480703
0.0155536
0.000472257
0.00045217
0.015544
0.00124138
-0.0130969
-1.53505e-07
0.00244032
-0.0129013
0.00359443
-0.0123803
0.00470461
-0.0116008
0.0057769
-0.0107818
0.00681851
-0.00994945
0.00783188
-0.00904074
0.00882431
-0.00818349
0.00979272
-0.00729119
0.0107302
-0.00640602
0.0116213
-0.00553152
0.0124492
-0.00469738
0.0131957
-0.00391871
0.013849
-0.00322383
0.014406
-0.00262328
0.0148715
-0.00211955
0.0152558
-0.0017074
0.0155715
-0.00137316
0.0158314
-0.00110684
0.0160469
-0.000895276
0.0162286
-0.00073307
0.016385
-0.00061664
0.016525
-0.000552732
0.0166562
-0.000546155
0.0167875
-0.000600701
0.0169184
-0.000681868
0.0170426
-0.00071567
0.0171573
-0.000685244
0.0172595
-0.000605699
0.0173477
-0.000499815
0.0174213
-0.000381325
0.0174805
-0.000263227
0.0175265
-0.000148426
0.0175607
-4.29144e-05
0.0175841
5.57086e-05
0.0175986
0.000141905
0.0176055
0.000219199
0.0176063
0.000285295
0.0176024
0.000341018
0.017595
0.000387275
0.0175852
0.000424826
0.0175738
0.000454333
0.0175616
0.000475411
0.0175492
0.000488746
0.0175367
0.000498291
0.0175245
0.000498445
0.0175126
0.000497752
0.017501
0.000492346
0.0174895
0.000483688
0.000463527
0.0174782
0.0013749
-0.0144716
-1.59676e-07
0.00269888
-0.0142253
0.00396877
-0.0136502
0.00518496
-0.012817
0.00635291
-0.0119497
0.00747967
-0.0110762
0.00856888
-0.01013
0.0096297
-0.0092443
0.0106633
-0.00832476
0.0116682
-0.00741092
0.0126349
-0.00649824
0.0135497
-0.00561223
0.0143943
-0.00476328
0.0151537
-0.0039832
0.015818
-0.00328756
0.0163855
-0.00268711
0.0168622
-0.00218411
0.0172588
-0.00176971
0.0175878
-0.00143586
0.0178619
-0.00116933
0.0180929
-0.000964088
0.0182913
-0.000815053
0.0184672
-0.000728689
0.0186299
-0.00070883
0.0187893
-0.00076004
0.0189444
-0.00083697
0.0190888
-0.000860076
0.0192207
-0.000817141
0.0193379
-0.000722892
0.0194391
-0.000601056
0.0195241
-0.000466284
0.0195933
-0.000332427
0.0196479
-0.000203026
0.0196895
-8.4554e-05
0.0197195
2.5661e-05
0.0197399
0.000121582
0.0197519
0.000207116
0.0197574
0.000279834
0.0197577
0.00034075
0.019754
0.000390963
0.0197474
0.000431454
0.0197386
0.000463065
0.0197285
0.000485533
0.0197176
0.000499694
0.019706
0.00050989
0.0196941
0.000510297
0.0196819
0.000509919
0.0196696
0.000504713
0.019657
0.000496271
0.00047638
0.0196441
0.00152612
-0.0159976
-1.66147e-07
0.00299213
-0.0156913
0.00439413
-0.0150522
0.00573202
-0.0141549
0.00701063
-0.0132283
0.0082367
-0.0123023
0.00941458
-0.0113078
0.0105544
-0.0103841
0.0116603
-0.00943064
0.0127352
-0.00848587
0.0137755
-0.00753848
0.0147725
-0.00660924
0.0157105
-0.0057013
0.0165739
-0.0048466
0.0173488
-0.00406249
0.0180272
-0.00336544
0.0186088
-0.00276574
0.0191005
-0.00226147
0.0195133
-0.00184866
0.0198597
-0.00151571
0.0201527
-0.00125705
0.0204041
-0.0010665
0.0206258
-0.000950399
0.0208284
-0.000911405
0.0210233
-0.000954915
0.0212086
-0.00102231
0.0213779
-0.00102937
0.0215308
-0.000970021
0.0216662
-0.000858301
0.0217832
-0.00071809
0.0218821
-0.00056515
0.0219636
-0.000413949
0.022029
-0.000268428
0.0220802
-0.000135746
0.0221188
-1.28722e-05
0.0221467
9.36895e-05
0.0221655
0.000188274
0.022177
0.000268341
0.0221826
0.000335133
0.0221836
0.000389973
0.022181
0.00043408
0.0221756
0.000468476
0.0221681
0.00049303
0.022159
0.000508736
0.0221486
0.000520291
0.0221373
0.000521643
0.0221249
0.00052224
0.0221118
0.000517827
0.022098
0.000510139
0.000490962
0.0220834
0.00169698
-0.0176944
-1.72927e-07
0.00332382
-0.0173182
0.00487594
-0.0166043
0.00635275
-0.0156317
0.0077585
-0.0146341
0.00909954
-0.0136433
0.0103806
-0.0125889
0.0116124
-0.0116158
0.0128008
-0.0106191
0.0139523
-0.00963733
0.0150678
-0.00865403
0.0161446
-0.00768596
0.0171714
-0.0067281
0.0181346
-0.00580986
0.0190193
-0.00494716
0.0198129
-0.00415905
0.0205091
-0.00346193
0.0211093
-0.00286163
0.0216208
-0.00236014
0.0220546
-0.0019496
0.022424
-0.00162638
0.0227416
-0.00138417
0.0230209
-0.00122963
0.0232738
-0.00116432
0.0235134
-0.00119449
0.0237364
-0.00124538
0.0239363
-0.00122922
0.0241147
-0.0011484
0.0242719
-0.00101556
0.0244079
-0.000854025
0.0245232
-0.000680532
0.0246193
-0.00050999
0.0246976
-0.000346713
0.02476
-0.000198223
0.0248086
-6.13936e-05
0.0248453
5.69555e-05
0.024872
0.000161614
0.0248903
0.000249979
0.0249019
0.000323552
0.024908
0.000383914
0.0249096
0.000432491
0.0249075
0.000470514
0.0249026
0.000497983
0.0248953
0.000516038
0.0248859
0.000529699
0.0248748
0.00053266
0.0248622
0.000534833
0.0248484
0.000531705
0.0248333
0.0005252
0.000507081
0.0248172
0.00188966
-0.0195838
-1.80023e-07
0.0036982
-0.0191267
0.00542037
-0.0183265
0.0070551
-0.0172664
0.00860609
-0.0161851
0.0100793
-0.0151166
0.0114799
-0.0139895
0.0128184
-0.0129543
0.0141024
-0.0119031
0.0153402
-0.0108752
0.0165369
-0.00985071
0.0176944
-0.00884351
0.0188074
-0.00784104
0.0198661
-0.00686854
0.020857
-0.0059381
0.0217662
-0.00506829
0.0225826
-0.00427831
0.0233017
-0.00358073
0.0239258
-0.00298422
0.0244628
-0.00248654
0.0249243
-0.00208792
0.0253233
-0.00178323
0.0256742
-0.00158044
0.0259901
-0.00148025
0.0262858
-0.00149022
0.026556
-0.00151556
0.0267938
-0.001467
0.0270034
-0.00135805
0.0271874
-0.00119954
0.0273463
-0.00101288
0.0274818
-0.000816037
0.0275954
-0.00062362
0.0276894
-0.000440686
0.0277657
-0.000274613
0.0278266
-0.000122283
0.0278743
9.30915e-06
0.0279106
0.000125277
0.0279375
0.000223145
0.0279564
0.000304587
0.0279688
0.00037152
0.0279757
0.000425605
0.0279779
0.000468265
0.0279763
0.000499602
0.0279715
0.000520915
0.0279636
0.000537537
0.0279534
0.000542882
0.0279409
0.000547344
0.0279265
0.000546121
0.0279103
0.000541347
0.000524749
0.0278927
0.00210665
-0.0216903
-1.87445e-07
0.00412009
-0.0211402
0.00603442
-0.0202408
0.00784809
-0.0190801
0.00956429
-0.0179013
0.0111887
-0.016741
0.0127266
-0.0155274
0.0141887
-0.0144164
0.0155833
-0.0132977
0.0169205
-0.0122123
0.0182078
-0.0111381
0.0194514
-0.0100871
0.0206512
-0.00904078
0.0218026
-0.00802001
0.0228959
-0.00703135
0.023918
-0.00609043
0.024856
-0.00521625
0.0257007
-0.00442542
0.0264487
-0.0037323
0.0271034
-0.00314121
0.0276734
-0.00265793
0.0281705
-0.00228032
0.0286089
-0.00201888
0.029003
-0.00187428
0.0293686
-0.00185588
0.0296975
-0.00184448
0.0299823
-0.00175171
0.0302304
-0.00160619
0.030447
-0.00141609
0.0306337
-0.00119963
0.0307935
-0.000975865
0.0309284
-0.000758494
0.0310412
-0.000553433
0.0311341
-0.000367546
0.0312096
-0.000197842
0.0312702
-5.12453e-05
0.0313178
7.7636e-05
0.0313545
0.000186505
0.0313818
0.000277246
0.0314012
0.000352104
0.0314139
0.000412969
0.0314207
0.000461475
0.0314225
0.000497792
0.03142
0.000523379
0.0314137
0.000543874
0.0314042
0.000552395
0.0313917
0.00055984
0.0313767
0.000561101
0.0313595
0.000558553
0.000543887
0.0313403
0.00235075
-0.0240408
-1.95199e-07
0.00459495
-0.0233844
0.00672602
-0.0223719
0.00874195
-0.021096
0.0106455
-0.0198048
0.012442
-0.0185375
0.0141371
-0.0172225
0.0157414
-0.0160206
0.0172639
-0.0148202
0.0187157
-0.0136641
0.0201064
-0.0125288
0.0214454
-0.0114261
0.0227367
-0.0103321
0.0239813
-0.00926463
0.0251744
-0.00822439
0.026306
-0.00722204
0.0273637
-0.00627399
0.0283366
-0.0053983
0.0292164
-0.00461209
0.0300011
-0.00392592
0.0306951
-0.00335191
0.0313074
-0.00289262
0.0318511
-0.00256254
0.0323404
-0.00236359
0.0327922
-0.00230774
0.0331939
-0.00224618
0.0335366
-0.0020944
0.0338323
-0.00190184
0.0340887
-0.0016725
0.0343095
-0.00142048
0.0344989
-0.00116522
0.0346596
-0.000919202
0.0347951
-0.000688879
0.034908
-0.000480516
0.0350012
-0.00029106
0.0350773
-0.000127333
0.0351385
1.64185e-05
0.035187
0.000138095
0.0352244
0.00023981
0.0352523
0.000324169
0.035272
0.000393272
0.0352845
0.000448983
0.0352908
0.000491528
0.0352916
0.000522527
0.0352876
0.00054793
0.0352794
0.000560549
0.0352675
0.000571803
0.0352523
0.000576267
0.0352343
0.000576575
0.000564382
0.0352138
0.00262514
-0.0266658
-2.03293e-07
0.00512897
-0.0258882
0.00750419
-0.0247471
0.00974832
-0.0233402
0.0118637
-0.0219202
0.0138555
-0.0205294
0.0157296
-0.0190966
0.0174967
-0.0177877
0.0191664
-0.0164899
0.0207505
-0.0152483
0.0222603
-0.0140387
0.0237072
-0.012873
0.0250992
-0.0117241
0.0264415
-0.010607
0.0277346
-0.0095175
0.0289735
-0.00846091
0.0301484
-0.00744894
0.0312487
-0.00649863
0.0322639
-0.00562729
0.0331875
-0.00484947
0.0340187
-0.00418313
0.0347627
-0.00363659
0.0354297
-0.00322961
0.0360332
-0.00296704
0.0365897
-0.00286431
0.0370807
-0.00273717
0.0374946
-0.00250832
0.0378487
-0.0022559
0.0381539
-0.00197767
0.0384164
-0.001683
0.0386416
-0.00139042
0.0388336
-0.0011112
0.0389964
-0.000851657
0.0391334
-0.000617512
0.0392476
-0.00040531
0.0393421
-0.000221814
0.0394193
-6.07469e-05
0.0394814
7.59781e-05
0.0395305
0.000190739
0.0395681
0.00028652
0.0395958
0.000365622
0.0396146
0.000430151
0.0396257
0.000480373
0.0396302
0.000518082
0.0396286
0.000549538
0.0396219
0.000567254
0.0396105
0.000583186
0.0395952
0.000591595
0.0395763
0.000595399
0.000586227
0.0395545
0.00293342
-0.029599
-2.11733e-07
0.00572914
-0.0286839
0.00837912
-0.0273971
0.0108804
-0.0258414
0.0132348
-0.0242746
0.0154476
-0.0227422
0.017525
-0.021174
0.0194776
-0.0197403
0.0213159
-0.0183281
0.0230523
-0.0169847
0.0246993
-0.0156857
0.02627
-0.0144437
0.0277752
-0.0132292
0.029224
-0.0120557
0.0306216
-0.0109151
0.0319682
-0.0098075
0.0332586
-0.0087394
0.0344847
-0.00772471
0.0356356
-0.00677813
0.0367029
-0.00591676
0.0376813
-0.00516154
0.0385713
-0.00452667
0.0393794
-0.00403764
0.0401165
-0.00370418
0.040798
-0.00354579
0.0413971
-0.00333622
0.0418977
-0.00300894
0.0423231
-0.00268134
0.0426878
-0.00234231
0.043001
-0.00199623
0.0432697
-0.00165913
0.0434996
-0.00134105
0.0436953
-0.00104737
0.0438611
-0.000783334
0.0440005
-0.000544705
0.0441169
-0.0003382
0.044213
-0.000156874
0.0442914
-2.42749e-06
0.0443543
0.00012781
0.0444036
0.000237232
0.0444409
0.000328339
0.0444675
0.000403508
0.0444849
0.000463045
0.044494
0.000508938
0.0444958
0.000547759
0.0444913
0.000571739
0.0444811
0.000593377
0.0444661
0.000606633
0.0444468
0.000614716
0.000609247
0.0444237
0.00327964
-0.0328784
-2.20522e-07
0.00640338
-0.0318077
0.00936234
-0.030356
0.012153
-0.028632
0.014777
-0.0268986
0.0172394
-0.0252046
0.0195468
-0.0234814
0.0217103
-0.0219037
0.0237408
-0.0203587
0.0256516
-0.0188955
0.0274564
-0.0174904
0.0291695
-0.0161568
0.030804
-0.0148637
0.032372
-0.0136238
0.0338829
-0.012426
0.0353416
-0.0112663
0.0367484
-0.0101461
0.0380989
-0.00907528
0.039385
-0.00806419
0.0405979
-0.00712968
0.0417297
-0.00629336
0.0427772
-0.00557413
0.0437418
-0.0050023
0.0446317
-0.00459404
0.0454591
-0.0043732
0.0461866
-0.00406375
0.0467915
-0.0036138
0.0473032
-0.00319307
0.0477399
-0.00277901
0.0481146
-0.00237087
0.0484359
-0.00198042
0.0487113
-0.00161647
0.0489465
-0.00128262
0.0491468
-0.000983596
0.0493161
-0.000714023
0.0494584
-0.000480524
0.0495769
-0.000275347
0.0496744
-9.99393e-05
0.0497535
4.87122e-05
0.0498163
0.000174431