/*--------------------------------*- C++ -*----------------------------------*\
  =========                 |
  \\      /  F ield         | OpenFOAM: The Open Source CFD Toolbox
   \\    /   O peration     | Website:  https://openfoam.org
    \\  /    A nd           | Version:  10
     \\/     M anipulation  |
\*---------------------------------------------------------------------------*/
FoamFile
{
    format      ascii;
    class       volVectorField;
    location    "500";
    object      U;
}
// * * * * * * * * * * * * * * * * * * * * * * * * * * * * * * * * * * * * * //

dimensions      [0 1 -1 0 0 0 0];

internalField   nonuniform List<vector> 
13320
(
(2.36523 2.93525 0)
(3.7978 8.94582 2.62724e-15)
(6.83556 13.6497 2.08732e-15)
(10.2336 16.0971 -1.05506e-16)
(13.3603 16.9064 -2.99433e-15)
(15.962 16.7002 2.82837e-15)
(18.1364 15.8839 0)
(19.8852 14.7307 5.67458e-15)
(21.3611 13.3566 -3.36857e-16)
(22.5969 11.884 2.9853e-15)
(23.5998 10.424 -1.63885e-16)
(24.3777 9.04503 -1.02051e-14)
(24.9445 7.77744 -3.20248e-16)
(25.3168 6.62849 5.21673e-15)
(25.5164 5.58642 0)
(25.5648 4.63617 0)
(25.4822 3.76354 4.98713e-15)
(25.286 2.95618 -2.97095e-16)
(24.9892 2.20616 4.81457e-15)
(24.5983 1.50147 4.58114e-15)
(24.1197 0.852188 -1.40371e-16)
(23.5595 0.260564 -5.5004e-16)
(22.9256 -0.268524 -2.0188e-15)
(22.2318 -0.728418 -8.55326e-15)
(21.4947 -1.1145 1.2845e-16)
(20.7757 -1.41823 -8.48591e-15)
(20.1489 -1.64023 -8.68134e-15)
(19.619 -1.80312 1.44692e-16)
(19.1575 -1.93119 9.52701e-15)
(18.7408 -2.03624 -1.00859e-14)
(18.3545 -2.12395 0)
(17.9887 -2.19725 -8.49699e-17)
(17.6373 -2.25774 -6.36468e-21)
(17.296 -2.30656 9.10532e-17)
(16.9617 -2.34478 9.40678e-17)
(16.6322 -2.3732 -9.71174e-17)
(16.3056 -2.39263 -3.15539e-15)
(15.98 -2.40374 3.30469e-15)
(15.6542 -2.40703 3.35237e-15)
(15.3266 -2.40301 -3.8399e-21)
(14.9956 -2.392 1.80682e-15)
(14.6592 -2.37419 2.70796e-21)
(14.3157 -2.34962 0)
(13.9623 -2.31825 -3.08876e-17)
(13.5967 -2.27969 1.05122e-15)
(13.2096 -2.23247 2.12282e-15)
(12.8074 -2.17592 -1.10646e-15)
(12.3253 -2.10094 -8.83096e-18)
(11.8761 -2.00784 -5.76203e-16)
(10.9212 -1.76573 -4.88771e-18)
(4.59343 2.4454 6.4265e-16)
(6.27857 7.30315 -9.52135e-16)
(9.76999 10.7719 -1.64835e-15)
(14.0147 12.5056 3.08561e-15)
(18.0883 12.8278 5.91058e-15)
(21.4792 12.2767 -2.84612e-15)
(24.029 11.3364 -2.74924e-15)
(25.8545 10.284 -5.46392e-15)
(27.0598 9.2865 1.58496e-16)
(27.7956 8.38168 1.52437e-16)
(28.2044 7.55511 -1.46329e-16)
(28.3919 6.78472 -3.2362e-19)
(28.4329 6.04736 0)
(28.3746 5.33384 0)
(28.2464 4.63519 0)
(28.0647 3.94714 0)
(27.8349 3.26888 -3.85833e-15)
(27.555 2.60212 -1.16556e-16)
(27.2182 1.95027 -3.60152e-15)
(26.8169 1.3214 -3.47337e-15)
(26.3426 0.71902 1.04576e-16)
(25.791 0.152748 4.02649e-16)
(25.1632 -0.364925 -7.14866e-21)
(24.4689 -0.8227 -8.50849e-21)
(23.7224 -1.21414 0)
(22.9815 -1.52885 5.84076e-15)
(22.3261 -1.76582 -6.17363e-15)
(21.7683 -1.94607 -6.40081e-15)
(21.2809 -2.09045 -1.33235e-14)
(20.8381 -2.20928 1.39436e-14)
(20.4286 -2.3077 -7.33507e-15)
(20.0428 -2.38904 7.64627e-15)
(19.674 -2.45529 -6.21531e-17)
(19.3178 -2.50802 6.45928e-17)
(18.9707 -2.54857 4.28822e-15)
(18.6303 -2.57788 0)
(18.2946 -2.59691 -2.30049e-15)
(17.9618 -2.60634 -2.45366e-15)
(17.6303 -2.6067 2.53562e-15)
(17.2986 -2.59844 -5.07775e-15)
(16.9652 -2.58181 -1.30981e-15)
(16.6281 -2.55682 1.35061e-15)
(16.2857 -2.52332 1.39231e-15)
(15.9355 -2.48095 0)
(15.5755 -2.42858 0)
(15.1981 -2.36395 -1.50014e-15)
(14.8089 -2.28331 -2.45272e-17)
(14.3619 -2.17715 1.60572e-15)
(13.9431 -2.01247 4.28882e-16)
(13.2764 -1.75947 0)
(6.61893 1.94131 -4.47008e-16)
(7.69896 6.02118 0)
(9.98259 9.46956 -1.25334e-15)
(12.986 11.897 -2.64186e-15)
(16.0553 13.1889 -2.48562e-15)
(18.8271 13.5862 0)
(21.1316 13.3801 -4.31936e-19)
(22.9918 12.8022 4.63927e-15)
(24.4932 11.9997 -2.27562e-15)
(25.7222 11.0521 4.62708e-19)
(26.7202 10.0293 -4.39878e-15)
(27.5244 8.9726 8.91374e-15)
(28.1531 7.92211 -5.30187e-16)
(28.6273 6.89593 2.58909e-16)
(28.9589 5.90602 -2.52355e-16)
(29.1553 4.95955 7.6729e-21)
(29.2226 4.0587 4.76591e-16)
(29.1663 3.20321 -2.30686e-16)
(28.9919 2.39415 0)
(28.7055 1.63279 3.42784e-15)
(28.3122 0.922635 -2.05537e-16)
(27.8163 0.269856 1.96672e-16)
(27.2234 -0.317798 5.63417e-16)
(26.5444 -0.83318 3.04261e-15)
(25.7961 -1.27241 0)
(25.0395 -1.6255 5.40249e-15)
(24.3603 -1.89197 5.51786e-15)
(23.7768 -2.09428 -5.71994e-15)
(23.2645 -2.2554 6.01345e-15)
(22.7983 -2.38725 -6.21885e-15)
(22.3672 -2.49632 1.28475e-14)
(21.9619 -2.58656 -6.73667e-15)
(21.5757 -2.66028 3.52796e-15)
(21.2041 -2.71924 0)
(20.8435 -2.76489 -7.26575e-15)
(20.4914 -2.79827 0)
(20.1457 -2.82033 1.92367e-15)
(19.8044 -2.83178 -6.18063e-17)
(19.466 -2.83313 -1.96872e-15)
(19.1292 -2.82476 6.52224e-17)
(18.7921 -2.80684 -6.69322e-17)
(18.4532 -2.77927 -3.43301e-17)
(18.1108 -2.74166 -1.09132e-15)
(17.7629 -2.69338 -1.19107e-15)
(17.408 -2.63281 6.2852e-16)
(17.0398 -2.55707 6.06272e-16)
(16.6662 -2.46164 0)
(16.2505 -2.33301 -7.84529e-21)
(15.8871 -2.15456 -5.05267e-18)
(15.3382 -1.8538 -3.24059e-16)
(8.42706 1.54808 4.32566e-17)
(9.17087 4.96044 -5.56269e-16)
(10.8559 7.98162 2.02385e-15)
(13.3143 10.3095 -1.92562e-15)
(16.1454 11.6842 -2.32384e-15)
(18.9562 12.1421 2.1713e-15)
(21.4584 11.9168 2.15533e-15)
(23.5479 11.2654 -2.40307e-15)
(25.2323 10.4002 -2.11714e-15)
(26.5627 9.45864 -3.66805e-15)
(27.6039 8.51533 3.88607e-15)
(28.4106 7.6077 -4.09519e-15)
(29.0321 6.74521 -4.03983e-15)
(29.5007 5.93192 -4.21716e-15)
(29.8456 5.15712 1.48101e-20)
(30.0839 4.40988 4.77331e-16)
(30.2225 3.68347 -2.32855e-16)
(30.2624 2.9715 -3.62589e-15)
(30.1998 2.2718 0)
(30.0274 1.58519 -6.79416e-15)
(29.7372 0.917267 0)
(29.3235 0.278048 -1.95868e-16)
(28.7889 -0.317451 -2.4665e-20)
(28.1488 -0.853512 1.77651e-16)
(27.4269 -1.31851 0)
(26.6876 -1.69706 -1.645e-16)
(26.0159 -1.98511 5.52719e-15)
(25.4329 -2.20463 5.63861e-15)
(24.9159 -2.37951 -1.74397e-16)
(24.4436 -2.52286 -8.90958e-17)
(24.0057 -2.64156 -5.73591e-15)
(23.5936 -2.73972 -9.3117e-17)
(23.2012 -2.81989 -2.95154e-15)
(22.8244 -2.88398 -3.11674e-15)
(22.4596 -2.93357 6.3729e-15)
(22.1045 -2.96976 0)
(21.7569 -2.99354 -5.20454e-17)
(21.4151 -3.00561 5.31892e-17)
(21.0777 -3.00646 0)
(20.7431 -2.99644 1.72102e-15)
(20.41 -2.97562 1.02035e-15)
(20.0767 -2.94381 8.67847e-16)
(19.742 -2.90048 0)
(19.4044 -2.84476 9.93857e-16)
(19.063 -2.77484 -1.01305e-15)
(18.7129 -2.68765 -5.00802e-16)
(18.3645 -2.57894 0)
(17.9864 -2.43587 -8.84091e-21)
(17.6737 -2.2543 0)
(17.2152 -1.97022 2.66177e-16)
(10.0463 1.24327 7.08569e-17)
(10.5597 4.11048 4.35055e-16)
(11.7372 6.75405 -9.47596e-16)
(13.5823 9.02673 1.88908e-15)
(15.8863 10.6422 3.55311e-15)
(18.3476 11.506 -1.65513e-15)
(20.6538 11.7164 0)
(22.6549 11.4588 0)
(24.3058 10.9153 3.68666e-15)
(25.6391 10.2073 3.6482e-15)
(26.7055 9.41135 -2.2564e-16)
(27.557 8.56852 4.47428e-16)
(28.2326 7.707 -4.44416e-16)
(28.7649 6.84184 7.50816e-15)
(29.179 5.98139 -1.471e-20)
(29.492 5.13231 -3.71995e-15)
(29.7165 4.29709 -3.47033e-15)
(29.8597 3.47852 7.06035e-15)
(29.9244 2.6806 -2.10644e-16)
(29.9093 1.90871 3.30827e-15)
(29.8092 1.16926 0)
(29.6176 0.471474 0)
(29.3263 -0.173931 5.70116e-16)
(28.9293 -0.756522 -2.55147e-15)
(28.4226 -1.26874 5.37862e-15)
(27.8444 -1.69152 1.8236e-20)
(27.2743 -2.01537 -5.21894e-15)
(26.7527 -2.26052 -3.37425e-16)
(26.2723 -2.45477 1.69442e-16)
(25.8258 -2.6131 0)
(25.4063 -2.74405 0)
(25.008 -2.85223 2.78296e-15)
(24.6265 -2.94055 0)
(24.2589 -3.01118 2.94143e-15)
(23.9025 -3.0659 7.21692e-21)
(23.5553 -3.10595 -1.83232e-16)
(23.2157 -3.1324 -1.487e-15)
(22.8823 -3.14601 9.43135e-17)
(22.5539 -3.14729 0)
(22.2292 -3.13656 -1.55492e-15)
(21.9071 -3.11385 -7.89167e-16)
(21.5863 -3.07892 -1.55184e-15)
(21.2658 -3.03112 -1.01614e-16)
(20.9447 -2.96952 -7.73423e-16)
(20.6231 -2.89222 4.18319e-16)
(20.2971 -2.79646 8.48648e-16)
(19.9793 -2.67884 4.43211e-16)
(19.6405 -2.52829 -8.83279e-16)
(19.3742 -2.35222 0)
(18.9909 -2.08821 -2.2157e-16)
(11.4945 1.00425 0)
(11.8643 3.4264 1.06664e-16)
(12.6966 5.68994 7.1537e-16)
(14.0678 7.77902 0)
(15.9293 9.44465 -1.65352e-15)
(18.0817 10.4966 2.07804e-16)
(20.2607 10.9217 1.2498e-15)
(22.2693 10.8247 6.22109e-16)
(24.0054 10.3625 2.88517e-15)
(25.4471 9.67407 -3.27427e-15)
(26.619 8.86224 0)
(27.558 7.99498 4.03522e-16)
(28.3011 7.11546 2.40565e-15)
(28.8813 6.24918 -2.39217e-15)
(29.3271 5.40771 -3.57151e-15)
(29.6601 4.59394 3.16172e-15)
(29.895 3.80929 -1.19328e-19)
(30.041 3.052 -6.24919e-15)
(30.1033 2.32199 -3.861e-16)
(30.0845 1.61828 3.81602e-16)
(29.9867 0.942626 -1.50823e-15)
(29.8101 0.299584 7.44122e-16)
(29.5554 -0.302565 0)
(29.227 -0.852838 2.87155e-15)
(28.8314 -1.34144 -5.59598e-15)
(28.3941 -1.75183 2.30667e-20)
(27.9661 -2.0725 0)
(27.5618 -2.32291 5.55282e-15)
(27.1771 -2.52425 -1.66955e-16)
(26.8069 -2.69013 0)
(26.448 -2.82835 -1.65556e-16)
(26.0984 -2.94323 2.97751e-15)
(25.757 -3.03756 -1.65577e-16)
(25.4232 -3.11345 -8.30324e-17)
(25.0962 -3.17262 -2.58425e-15)
(24.7756 -3.21628 0)
(24.4607 -3.24546 1.34968e-15)
(24.1507 -3.2609 -1.4445e-15)
(23.845 -3.26306 8.56499e-17)
(23.5431 -3.25221 1.46853e-15)
(23.2441 -3.22834 -8.71511e-17)
(22.9472 -3.19116 7.03612e-16)
(22.652 -3.13999 0)
(22.3582 -3.07396 7.17042e-16)
(22.0664 -2.99125 3.39179e-16)
(21.7745 -2.88996 -3.42388e-16)
(21.4946 -2.76722 -7.23626e-21)
(21.203 -2.6161 -1.15845e-17)
(20.9802 -2.44877 1.16657e-17)
(20.6677 -2.21425 1.87899e-16)
(12.7966 0.815188 -1.03871e-16)
(13.0723 2.87658 -7.44933e-16)
(13.6558 4.79373 -7.14796e-16)
(14.6567 6.67816 0)
(16.0957 8.31233 -1.62855e-15)
(17.8933 9.51285 -1.2777e-15)
(19.8433 10.1831 -1.46852e-15)
(21.7478 10.3493 0)
(23.4652 10.1222 -5.8341e-15)
(24.9304 9.62756 0)
(26.1394 8.97162 0)
(27.1181 8.22688 0)
(27.8987 7.44068 -2.83497e-15)
(28.5129 6.64178 2.46613e-15)
(28.99 5.84358 2.80521e-15)
(29.3513 5.05341 3.49434e-16)
(29.6123 4.27406 2.78817e-15)
(29.7826 3.50707 2.78391e-15)
(29.8688 2.7527 0)
(29.874 2.01405 2.4003e-15)
(29.7993 1.29668 -1.01953e-15)
(29.645 0.609419 -6.74145e-16)
(29.4138 -0.0357149 0)
(29.111 -0.627121 -3.32433e-16)
(28.7467 -1.15556 3.29806e-16)
(28.3552 -1.59997 -5.25205e-15)
(27.9829 -1.95035 -5.5624e-15)
(27.6483 -2.22254 3.24927e-16)
(27.3414 -2.44295 -5.15279e-15)
(27.051 -2.62643 5.10725e-15)
(26.7726 -2.78022 0)
(26.5023 -2.90904 -2.35744e-15)
(26.2372 -3.01594 -1.5624e-16)
(25.9759 -3.10316 0)
(25.7173 -3.1725 0)
(25.4607 -3.22522 -2.32308e-15)
(25.206 -3.26234 -1.39334e-15)
(24.9529 -3.2846 7.74765e-17)
(24.7012 -3.29248 -7.7612e-17)
(24.451 -3.28626 0)
(24.2022 -3.26594 7.80758e-17)
(23.9547 -3.23128 -1.56738e-16)
(23.7089 -3.1817 3.93485e-17)
(23.4651 -3.11651 3.9532e-17)
(23.2249 -3.03422 -3.17675e-16)
(22.9881 -2.934 3.39169e-16)
(22.7635 -2.81329 -2.00394e-17)
(22.5397 -2.67167 3.21689e-16)
(22.3655 -2.5149 -5.04138e-18)
(22.142 -2.32115 5.06277e-18)
(13.9708 0.664175 1.25128e-20)
(14.1838 2.43044 2.05716e-15)
(14.5977 4.04539 0)
(15.3217 5.70558 0)
(16.4143 7.24124 1.274e-15)
(17.8686 8.4917 -1.2014e-19)
(19.5634 9.32682 -1.29714e-15)
(21.3269 9.70037 0)
(23.0059 9.66231 2.59002e-15)
(24.4986 9.30822 -2.25642e-15)
(25.7669 8.74079 -2.56366e-15)
(26.8144 8.04183 -3.18618e-16)
(27.6618 7.27139 2.53427e-15)
(28.3355 6.46918 -2.52206e-15)
(28.8621 5.65902 2.51247e-15)
(29.2639 4.85396 0)
(29.5569 4.06196 0)
(29.7529 3.28609 0)
(29.859 2.53014 -2.49229e-15)
(29.8794 1.79819 -4.64856e-15)
(29.8162 1.09548 -3.07e-16)
(29.6708 0.428313 0)
(29.4463 -0.194689 3.02218e-16)
(29.1489 -0.764006 -3.0055e-16)
(28.7892 -1.27075 0)
(28.4002 -1.69738 0)
(28.0312 -2.03072 5.07088e-15)
(27.6994 -2.28904 -2.96634e-16)
(27.3979 -2.49707 -2.95204e-16)
(27.1159 -2.6697 -4.70122e-15)
(26.849 -2.8143 2.91527e-16)
(26.5937 -2.93541 2.46019e-15)
(26.3476 -3.03596 -2.30049e-15)
(26.1091 -3.11794 -1.43003e-16)
(25.8771 -3.18293 -2.4202e-15)
(25.6508 -3.23208 4.68241e-15)
(25.4297 -3.26624 5.709e-22)
(25.2133 -3.28604 2.2611e-15)
(25.0013 -3.29183 -7.06063e-17)
(24.7936 -3.28382 -4.02318e-21)
(24.59 -3.26197 7.06198e-17)
(24.3906 -3.22605 -5.65428e-16)
(24.1959 -3.1756 0)
(24.0067 -3.11018 3.54359e-17)
(23.8243 -3.0288 -7.09686e-17)
(23.6501 -2.93149 -2.48828e-16)
(23.4894 -2.81669 -3.02494e-16)
(23.3401 -2.68774 1.78089e-17)
(23.2217 -2.54379 8.90901e-18)
(23.0987 -2.39208 -8.9274e-18)
(15.0331 0.542689 8.09084e-17)
(15.2034 2.06641 -1.1003e-15)
(15.5008 3.42507 -2.8116e-16)
(16.0232 4.86723 1.40065e-16)
(16.8385 6.26858 0)
(17.9787 7.50032 1.136e-15)
(19.3978 8.43855 1.43338e-15)
(20.9711 8.99287 -2.87417e-15)
(22.5557 9.15596 2.58545e-15)
(24.0302 8.98306 2.29033e-15)
(25.3251 8.56145 -3.50314e-19)
(26.4181 7.97408 5.66685e-16)
(27.315 7.28773 -5.63713e-16)
(28.0347 6.5496 0)
(28.6015 5.78886 -2.23401e-15)
(29.0372 5.02309 -2.22667e-15)
(29.3589 4.26195 0)
(29.5795 3.51077 -5.54187e-16)
(29.7072 2.77304 5.53408e-16)
(29.7469 2.05253 4.97752e-15)
(29.7018 1.35276 1.10078e-15)
(29.5733 0.680995 -3.41082e-20)
(29.3643 0.0473007 1.08484e-15)
(29.0808 -0.536461 -2.69942e-16)
(28.7325 -1.06072 -5.38267e-16)
(28.3522 -1.50387 2.68267e-16)
(27.9882 -1.85351 -2.66141e-16)
(27.659 -2.12626 -8.46249e-15)
(27.359 -2.34622 4.21897e-15)
(27.0786 -2.52835 2.63436e-16)
(26.8133 -2.6808 0)
(26.5605 -2.8084 2.08632e-15)
(26.3178 -2.91431 2.07349e-15)
(26.0838 -3.00078 0)
(25.8576 -3.06956 2.05396e-15)
(25.6385 -3.12187 -2.04721e-15)
(25.4262 -3.15872 1.02099e-15)
(25.2205 -3.18083 -1.674e-21)
(25.0213 -3.18867 0)
(24.8288 -3.18253 0)
(24.6431 -3.16251 -5.08732e-16)
(24.4646 -3.12859 5.08881e-16)
(24.2942 -3.08057 -6.36516e-17)
(24.1328 -3.01842 -2.92432e-21)
(23.9822 -2.94188 6.37537e-17)
(23.8441 -2.8516 0)
(23.722 -2.74769 0)
(23.6167 -2.6335 2.39585e-16)
(23.5354 -2.50924 2.39627e-17)
(23.4695 -2.38581 -7.99901e-18)
(15.9964 0.4444 7.22744e-17)
(16.137 1.76703 -6.57821e-17)
(16.355 2.91093 7.55691e-16)
(16.7345 4.15297 2.50057e-16)
(17.3357 5.3996 0)
(18.2131 6.56548 1.5111e-15)
(19.3609 7.53663 2.54085e-15)
(20.7184 8.21791 -2.57412e-19)
(22.1678 8.55408 -3.57058e-15)
(23.5874 8.55487 -1.85017e-19)
(24.8867 8.27907 1.52137e-15)
(26.0178 7.80011 0)
(26.9664 7.18708 0)
(27.7401 6.49366 0)
(28.3571 5.75694 -1.99401e-15)
(28.8371 5.00071 1.49085e-15)
(29.1969 4.24011 4.95803e-16)
(29.4496 3.48368 0)
(29.6044 2.73766 -8.64787e-20)
(29.6671 2.00736 -2.47e-15)
(29.6413 1.29925 2.468e-15)
(29.5295 0.621563 0)
(29.3348 -0.0154865 0)
(29.0634 -0.601348 4.86425e-16)
(28.7248 -1.12633 -4.35129e-15)
(28.3516 -1.56904 0)
(27.9918 -1.91612 -4.26557e-15)
(27.6657 -2.18377 4.23842e-15)
(27.3675 -2.39764 -3.75675e-15)
(27.0895 -2.57282 -2.34657e-16)
(26.8262 -2.71825 2.34803e-16)
(26.5753 -2.83845 -1.87072e-15)
(26.3345 -2.93656 -1.85809e-15)
(26.1026 -3.01499 0)
(25.8785 -3.0756 0)
(25.662 -3.11977 2.29011e-16)
(25.4527 -3.14851 -2.28341e-16)
(25.2506 -3.16261 -7.97606e-16)
(25.056 -3.16266 -1.02417e-15)
(24.8692 -3.1491 1.13722e-16)
(24.6905 -3.12227 -2.27387e-16)
(24.5208 -3.0824 1.70571e-16)
(24.3609 -3.0297 -5.68866e-17)
(24.2122 -2.96461 0)
(24.0761 -2.88753 2.27897e-16)
(23.9544 -2.7997 2.85184e-17)
(23.8494 -2.70226 -2.85383e-17)
(23.7622 -2.59821 -2.28458e-16)
(23.6957 -2.48942 0)
(23.6471 -2.38267 1.1448e-16)
(16.8718 0.364534 0)
(16.9913 1.51901 -1.185e-16)
(17.1548 2.48429 -1.70031e-15)
(17.4339 3.54922 0)
(17.8762 4.6403 0)
(18.5384 5.70695 -1.79326e-15)
(19.4457 6.6621 -3.6118e-15)
(20.5752 7.41363 -1.6703e-19)
(21.8569 7.88819 1.35951e-15)
(23.1805 8.05391 4.52837e-16)
(24.4495 7.93537 0)
(25.5953 7.58728 0)
(26.5827 7.0743 -1.79161e-15)
(27.4037 6.45387 -1.78408e-15)
(28.068 5.76938 1.33294e-15)
(28.5908 5.05103 4.92226e-20)
(28.9879 4.31853 8.83564e-16)
(29.2727 3.58396 -2.19789e-20)
(29.4551 2.85543 3.08195e-15)
(29.5419 2.13987 0)
(29.5375 1.44368 -1.75693e-15)
(29.4449 0.774575 0)
(29.2676 0.142139 -4.36684e-16)
(29.0115 -0.44276 -4.14025e-20)
(28.6859 -0.969854 3.87474e-15)
(28.3223 -1.41672 0)
(27.969 -1.76811 3.79015e-15)
(27.6465 -2.04023 3.94908e-20)
(27.3511 -2.25733 2.92275e-15)
(27.0751 -2.4352 -3.33945e-15)
(26.8139 -2.58235 -3.55297e-15)
(26.5652 -2.70378 2.09148e-16)
(26.3269 -2.80312 -4.2654e-21)
(26.0979 -2.88277 -1.85987e-15)
(25.8773 -2.94456 1.85038e-15)
(25.6648 -2.98983 -2.04789e-16)
(25.4604 -3.01962 8.16538e-16)
(25.2639 -3.03477 4.07346e-16)
(25.0757 -3.03597 1.42353e-15)
(24.8962 -3.02376 -1.01589e-16)
(24.726 -2.99864 5.07713e-16)
(24.5658 -2.96109 -1.01543e-16)
(24.4166 -2.91166 1.01574e-16)
(24.2797 -2.85118 4.06563e-16)
(24.1563 -2.78057 -2.03415e-16)
(24.0478 -2.70145 -5.09055e-17)
(23.9554 -2.6156 2.54717e-16)
(23.8797 -2.52592 1.7844e-16)
(23.8215 -2.43413 1.27563e-16)
(23.7794 -2.34568 -1.02242e-16)
(17.6685 0.299407 1.16885e-16)
(17.7727 1.31203 -1.07062e-16)
(17.8987 2.12896 1.43266e-15)
(18.1077 3.04055 2.01788e-16)
(18.4344 3.98535 -1.20344e-15)
(18.9294 4.93737 4.00471e-16)
(19.6319 5.83837 1.20684e-15)
(20.5457 6.60945 2.01302e-15)
(21.6409 7.17621 8.0643e-16)
(22.8356 7.48078 2.41764e-15)
(24.0389 7.51354 -1.6084e-15)
(25.1726 7.30303 0)
(26.1832 6.90081 3.19461e-15)
(27.0451 6.36222 1.59105e-15)
(27.7561 5.73455 7.92696e-16)
(28.3247 5.05352 -3.95171e-15)
(28.7635 4.34416 0)
(29.0851 3.6227 7.86683e-16)
(29.2997 2.90029 -3.14174e-15)
(29.4145 2.1859 2.35335e-15)
(29.4346 1.48711 1.56672e-15)
(29.3635 0.81299 -7.81746e-16)
(29.205 0.173755 -7.78846e-16)
(28.9654 -0.418764 0)
(28.653 -0.954341 0)
(28.2998 -1.40826 0)
(27.9527 -1.76563 -3.75031e-16)
(27.6345 -2.04086 -3.47904e-20)
(27.3416 -2.25951 3.71893e-16)
(27.0685 -2.43677 -1.47646e-20)
(26.8097 -2.58248 -1.2645e-20)
(26.5635 -2.70165 0)
(26.328 -2.79778 1.11703e-15)
(26.102 -2.87332 1.84974e-15)
(25.885 -2.93026 -1.47165e-15)
(25.6765 -2.97018 -1.46526e-15)
(25.4766 -2.99433 -7.30073e-16)
(25.2852 -3.00375 -1.82051e-16)
(25.1029 -2.99932 -5.45149e-16)
(24.9301 -2.98184 0)
(24.7674 -2.95209 9.06928e-17)
(24.6156 -2.9109 -9.06686e-17)
(24.4755 -2.85919 -2.7206e-16)
(24.3483 -2.7982 -4.53675e-16)
(24.2348 -2.72926 -2.26964e-16)
(24.136 -2.65425 -1.27118e-21)
(24.0524 -2.575 -1.36427e-16)
(23.9841 -2.49426 -1.82064e-16)
(23.9307 -2.41299 -9.11218e-17)
(23.8913 -2.33673 9.12972e-17)
(18.3944 0.246153 1.05527e-16)
(18.4871 1.13808 -9.69132e-17)
(18.5871 1.83175 -7.40682e-16)
(18.7472 2.61224 -3.64059e-16)
(18.991 3.4253 7.21415e-16)
(19.3603 4.2607 3.58797e-16)
(19.8959 5.08294 -7.18831e-16)
(20.6204 5.83562 -1.43585e-15)
(21.5252 6.44707 -7.18035e-16)
(22.5685 6.85552 -1.43532e-15)
(23.6739 7.02345 1.43288e-15)
(24.7642 6.95175 0)
(25.775 6.6721 -4.98561e-15)
(26.6645 6.23128 7.09759e-16)
(27.4161 5.67664 0)
(28.0288 5.04802 2.81985e-15)
(28.51 4.37555 0)
(28.8702 3.68003 0)
(29.1191 2.97609 3.50107e-15)
(29.2641 2.27497 -1.39811e-15)
(29.3109 1.58606 -2.09346e-15)
(29.2638 0.918988 1.39222e-15)
(29.1268 0.284544 -6.93301e-16)
(28.906 -0.30596 -5.84441e-20)
(28.6099 -0.841429 6.81988e-16)
(28.2688 -1.29683 6.73833e-16)
(27.9302 -1.65497 -1.33413e-15)
(27.6173 -1.93058 -1.9898e-15)
(27.3284 -2.14829 0)
(27.0586 -2.32406 -1.43845e-20)
(26.8031 -2.46757 2.6518e-15)
(26.5602 -2.58407 3.32365e-16)
(26.3283 -2.67739 -3.3289e-16)
(26.1063 -2.75036 1.32304e-15)
(25.8937 -2.8051 0)
(25.6902 -2.84321 2.61861e-15)
(25.4959 -2.86596 -4.89149e-16)
(25.3109 -2.87446 -3.25184e-16)
(25.1357 -2.8697 -8.16581e-21)
(24.9708 -2.85262 1.62033e-16)
(24.8168 -2.82421 0)
(24.6743 -2.7855 -3.23677e-16)
(24.5441 -2.73769 3.23698e-16)
(24.4269 -2.68222 0)
(24.3232 -2.62057 1.61994e-16)
(24.2336 -2.5548 1.62143e-16)
(24.1575 -2.48621 1.62278e-16)
(24.0954 -2.41806 1.42131e-16)
(24.0453 -2.34979 1.01632e-17)
(24.0074 -2.28739 -7.12885e-17)
(19.0562 0.202516 0)
(19.14 0.990887 -3.51299e-16)
(19.2217 1.5819 0)
(19.3475 2.251 0)
(19.5325 2.94854 6.49896e-16)
(19.8092 3.67326 -6.44521e-16)
(20.2149 4.40621 1.28751e-15)
(20.7782 5.11081 0)
(21.5097 5.72959 1.92249e-15)
(22.39 6.20085 -1.27994e-15)
(23.3732 6.47678 6.38955e-16)
(24.3901 6.53341 -1.91207e-15)
(25.3744 6.37948 1.90586e-15)
(26.273 6.0468 0)
(27.055 5.57717 0)
(27.7078 5.01142 2.51658e-15)
(28.2314 4.38339 0)
(28.6321 3.71836 6.25781e-16)
(28.9181 3.03449 -5.62022e-15)
(29.0964 2.3461 0)
(29.173 1.66418 0)
(29.1524 1 -1.24056e-15)
(29.0391 0.364481 -6.17548e-16)
(28.8393 -0.229754 6.13283e-16)
(28.5606 -0.771746 -1.21432e-15)
(28.2333 -1.23393 -1.7995e-15)
(27.9034 -1.59882 -1.78184e-15)
(27.5966 -1.87921 1.18134e-15)
(27.3115 -2.10042 -2.3579e-15)
(27.0454 -2.27779 2.94798e-15)
(26.7931 -2.4219 0)
(26.5534 -2.53823 8.88377e-16)
(26.325 -2.63072 5.94311e-16)
(26.1069 -2.70218 -1.47939e-15)
(25.8987 -2.75477 1.17632e-15)
(25.7001 -2.79026 -1.17056e-15)
(25.5114 -2.81014 -2.91477e-16)
(25.3326 -2.81575 2.9057e-16)
(25.1643 -2.80831 0)
(25.0069 -2.78904 -1.44733e-16)
(24.861 -2.75919 2.89164e-16)
(24.727 -2.72006 -1.44496e-16)
(24.6054 -2.6731 0)
(24.4967 -2.61995 0)
(24.401 -2.56214 -7.2297e-17)
(24.3185 -2.50172 7.23561e-17)
(24.248 -2.43964 -1.44842e-16)
(24.1903 -2.37925 -1.44987e-16)
(24.1426 -2.31923 0)
(24.1055 -2.26504 7.27178e-17)
(19.6597 0.166707 0)
(19.7364 0.865529 3.1862e-16)
(19.805 1.37078 -6.08228e-16)
(19.9066 1.94547 -1.7858e-15)
(20.0499 2.5433 5.8647e-16)
(20.2595 3.16759 -1.73982e-15)
(20.5668 3.8102 6.65937e-20)
(21 4.44991 5.74439e-16)
(21.5794 5.04547 -1.14563e-15)
(22.3035 5.54322 -1.14266e-15)
(23.1491 5.89335 2.28094e-15)
(24.068 6.05814 4.54957e-15)
(24.9982 6.02451 1.13425e-15)
(25.8828 5.80569 -1.13068e-15)
(26.6799 5.43245 -2.30987e-19)
(27.3647 4.94216 -4.49225e-15)
(27.9274 4.37025 -2.23921e-15)
(28.3685 3.74558 3.35008e-15)
(28.6932 3.09022 -1.72146e-19)
(28.9072 2.42149 0)
(29.0161 1.75294 -3.32601e-15)
(29.0248 1.09724 2.21027e-15)
(28.9379 0.466518 2.62633e-20)
(28.7615 -0.126258 3.91648e-20)
(28.5031 -0.669309 -5.40303e-16)
(28.1916 -1.13393 2.13509e-15)
(27.8728 -1.50078 2.11464e-15)
(27.5734 -1.78204 2.62917e-15)
(27.2939 -2.00268 1.57442e-15)
(27.0324 -2.17833 2.09988e-15)
(26.7846 -2.31974 0)
(26.5495 -2.43282 -1.05475e-15)
(26.3258 -2.52168 1.58758e-15)
(26.1129 -2.58942 2.64454e-16)
(25.9103 -2.63851 -7.88306e-16)
(25.7178 -2.6709 0)
(25.5357 -2.68823 5.20626e-16)
(25.3642 -2.69197 -2.59467e-16)
(25.2036 -2.68351 -1.19095e-20)
(25.0545 -2.66421 -2.58369e-16)
(24.9171 -2.6355 0)
(24.7918 -2.59881 3.7355e-21)
(24.6788 -2.55566 3.86738e-16)
(24.5784 -2.50777 -1.28935e-16)
(24.49 -2.4564 -1.93471e-16)
(24.4139 -2.4038 6.45402e-17)
(24.3482 -2.35022 0)
(24.294 -2.29903 0)
(24.2479 -2.24833 1.61838e-17)
(24.2109 -2.20318 -8.10767e-17)
(20.2101 0.137296 0)
(20.2808 0.758109 5.77933e-16)
(20.3399 1.19146 2.75832e-16)
(20.4241 1.68611 1.07776e-15)
(20.5379 2.19864 -1.05932e-15)
(20.6992 2.73428 1.04526e-15)
(20.9333 3.2914 0)
(21.2652 3.85954 0)
(21.7175 4.41114 1.0256e-15)
(22.3011 4.90572 -1.02186e-15)
(23.0075 5.29607 -4.07469e-15)
(23.8115 5.54152 -3.04655e-15)
(24.6638 5.61328 2.02525e-15)
(25.5096 5.5061 3.02787e-15)
(26.3021 5.2358 1.00586e-15)
(27.006 4.83151 2.00491e-15)
(27.6013 4.32656 -1.99876e-15)
(28.0807 3.75175 1.20929e-19)
(28.4444 3.13215 2.98103e-15)
(28.6958 2.48847 -1.98223e-15)
(28.8396 1.83659 3.95294e-15)
(28.8802 1.19139 1.96945e-15)
(28.8223 0.565833 -9.79645e-16)
(28.6719 -0.025853 -9.72291e-16)
(28.4359 -0.571584 1.44298e-15)
(28.1422 -1.0406 1.90085e-15)
(27.8358 -1.41226 1.26384e-20)
(27.5447 -1.69739 9.36637e-16)
(27.2715 -1.92059 0)
(27.0148 -2.09767 -4.67623e-16)
(26.7719 -2.23933 4.68556e-16)
(26.5413 -2.35211 -9.3964e-16)
(26.3224 -2.44025 -9.42825e-16)
(26.1145 -2.507 -1.89029e-15)
(25.9173 -2.5549 0)
(25.7309 -2.58601 4.67213e-16)
(25.5552 -2.60216 -4.65143e-16)
(25.3907 -2.605 -2.31758e-16)
(25.2376 -2.59612 -2.31148e-16)
(25.0961 -2.57707 4.61412e-16)
(24.9666 -2.54943 -2.30394e-16)
(24.8491 -2.51477 4.60407e-16)
(24.7435 -2.47464 -3.45191e-16)
(24.65 -2.43076 -1.15071e-16)
(24.5673 -2.38421 1.15103e-16)
(24.4963 -2.33726 -2.30377e-16)
(24.4344 -2.28979 0)
(24.3827 -2.24477 -1.15385e-16)
(24.338 -2.20042 0)
(24.3013 -2.1609 5.78637e-17)
(20.7118 0.113131 1.41483e-16)
(20.7773 0.66553 -2.62087e-16)
(20.8292 1.03834 5.00151e-16)
(20.9009 1.46503 0)
(20.9934 1.90491 9.57354e-16)
(21.12 2.36362 9.42621e-16)
(21.3006 2.84319 -9.34713e-16)
(21.5555 3.33993 -1.85092e-15)
(21.9061 3.83679 -1.83922e-15)
(22.3682 4.30544 0)
(22.9467 4.70802 1.82202e-15)
(23.628 5.00357 0)
(24.385 5.1586 9.0486e-16)
(25.1694 5.15246 -9.01381e-16)
(25.9351 4.98538 -8.98396e-16)
(26.6413 4.67439 1.67858e-19)
(27.2586 4.24669 1.40788e-19)
(27.7709 3.7321 8.89476e-16)
(28.172 3.1575 -8.86422e-16)
(28.4614 2.5464 3.53563e-15)
(28.6418 1.91731 -2.64295e-15)
(28.7167 1.28739 0)
(28.6903 0.670983 0)
(28.5686 0.0836118 -8.65786e-16)
(28.3578 -0.461952 2.14074e-16)
(28.0844 -0.933117 1.81283e-20)
(27.7927 -1.30744 -1.67693e-15)
(27.5116 -1.59444 1.15947e-20)
(27.2461 -1.8182 -8.3275e-16)
(26.9957 -1.99464 8.3309e-16)
(26.7589 -2.13455 -1.25192e-15)
(26.5341 -2.24494 4.18448e-16)
(26.3211 -2.33029 0)
(26.1196 -2.39403 4.21294e-16)
(25.9291 -2.43901 -8.39297e-16)
(25.7497 -2.46752 -1.10984e-20)
(25.5816 -2.48159 8.30748e-16)
(25.4249 -2.48305 4.13853e-16)
(25.2798 -2.47363 -2.06345e-16)
(25.1466 -2.45503 2.05901e-16)
(25.0252 -2.42888 2.05598e-16)
(24.9156 -2.39682 -2.05397e-16)
(24.8172 -2.36027 -2.05301e-16)
(24.7303 -2.32098 3.07937e-16)
(24.6533 -2.27973 2.22855e-21)
(24.5869 -2.23868 1.02732e-16)
(24.5284 -2.19749 -5.13979e-17)
(24.4789 -2.15865 5.1448e-17)
(24.4354 -2.12056 1.28755e-17)
(24.3989 -2.08671 -6.44895e-17)
(21.1688 0.093277 -1.28055e-16)
(21.2296 0.585312 4.75156e-16)
(21.276 0.906935 -9.06837e-16)
(21.3383 1.27576 0)
(21.4154 1.65384 8.65187e-16)
(21.517 2.04647 -1.70111e-15)
(21.6584 2.45752 8.41814e-16)
(21.8558 2.88725 2.49639e-15)
(22.1274 3.32582 8.25652e-16)
(22.4899 3.75486 3.27968e-15)
(22.9542 4.14644 -3.26268e-15)
(23.5199 4.46582 0)
(24.1704 4.67771 -8.72852e-20)
(24.8758 4.75486 -1.61169e-15)
(25.5939 4.68366 -1.60565e-15)
(26.2828 4.46782 0)
(26.9078 4.1248 0)
(27.4439 3.67999 1.58819e-15)
(27.8782 3.15975 -1.58243e-15)
(28.2044 2.58935 -1.57707e-15)
(28.4221 1.98956 0)
(28.5331 1.37988 -1.56409e-15)
(28.5407 0.776243 2.33215e-15)
(28.4501 0.195659 -7.71005e-16)
(28.2672 -0.348194 9.5315e-16)
(28.0166 -0.820933 -7.53341e-16)
(27.7416 -1.19806 -1.49359e-15)
(27.4722 -1.48771 -7.4317e-16)
(27.2155 -1.71311 -1.48379e-15)
(26.9724 -1.89026 0)
(26.7421 -2.03001 0)
(26.5237 -2.13961 0)
(26.3171 -2.22394 0)
(26.122 -2.28665 7.50321e-16)
(25.9382 -2.33069 0)
(25.7659 -2.35853 3.72789e-16)
(25.6051 -2.37233 7.87712e-21)
(25.456 -2.37407 -3.69561e-16)
(25.3185 -2.36559 -3.6847e-16)
(25.1928 -2.34868 -4.58698e-21)
(25.0787 -2.32498 3.67023e-16)
(24.9759 -2.29614 -3.66609e-16)
(24.8836 -2.26344 0)
(24.8023 -2.22864 1.8317e-16)
(24.7297 -2.19227 0)
(24.667 -2.15627 -9.16393e-17)
(24.6113 -2.12026 0)
(24.5637 -2.08627 -9.17707e-17)
(24.5214 -2.05297 -6.88964e-17)
(24.4853 -2.02321 -2.30025e-17)
(21.5846 0.0769716 -2.31659e-16)
(21.6411 0.515462 1.19468e-20)
(21.6831 0.793623 8.21585e-16)
(21.7381 1.11302 -7.99213e-16)
(21.804 1.4385 -7.81887e-16)
(21.8874 1.77466 -1.53511e-15)
(22.0001 2.12616 0)
(22.1548 2.49535 -1.49742e-15)
(22.3662 2.87696 1.48324e-15)
(22.6495 3.25995 -8.83091e-20)
(23.0179 3.62507 2.6845e-21)
(23.4779 3.94573 0)
(24.0243 4.18993 1.447e-15)
(24.6387 4.32809 -1.44111e-15)
(25.2919 4.33867 2.87005e-15)
(25.9442 4.21321 -1.42957e-15)
(26.5596 3.95781 0)
(27.1073 3.59019 1.41826e-15)
(27.5671 3.13329 -2.82538e-15)
(27.9265 2.61236 -2.1195e-20)
(28.1807 2.04945 7.48493e-20)
(28.3286 1.46633 3.13745e-20)
(28.372 0.880366 1.38525e-15)
(28.315 0.310562 1.3734e-15)
(28.1627 -0.228747 1.69739e-16)
(27.9376 -0.700811 0)
(27.6816 -1.07951 -6.65277e-16)
(27.426 -1.37064 6.62109e-16)
(27.1796 -1.5971 -9.56936e-21)
(26.9455 -1.77407 0)
(26.7227 -1.91313 -6.62401e-16)
(26.512 -2.02118 1.32802e-15)
(26.3128 -2.10376 -1.99795e-15)
(26.1252 -2.16464 6.68046e-16)
(25.9492 -2.20701 3.34753e-16)
(25.7848 -2.23351 -3.32947e-16)
(25.6321 -2.24648 0)
(25.491 -2.24804 7.6818e-21)
(25.3616 -2.24011 -6.57785e-16)
(25.2438 -2.22455 3.70562e-21)
(25.1369 -2.20296 -1.63751e-16)
(25.0411 -2.17697 -8.2763e-22)
(24.955 -2.14772 1.63418e-16)
(24.8791 -2.1169 0)
(24.8112 -2.08486 0)
(24.7522 -2.05327 1.72075e-21)
(24.6994 -2.02181 0)
(24.6537 -1.99208 8.18169e-17)
(24.6129 -1.963 1.02364e-16)
(24.5775 -1.93696 -2.05024e-17)
(21.9623 0.0635893 0)
(22.0149 0.454366 1.94912e-16)
(22.0532 0.695461 -7.43901e-16)
(22.1025 0.972479 1.44578e-15)
(22.1598 1.2531 7.06373e-16)
(22.2297 1.54113 8.23934e-20)
(22.3215 1.84141 4.64148e-20)
(22.4446 2.15718 2.69554e-15)
(22.6106 2.486 -1.33349e-15)
(22.8325 2.82168 -1.32114e-15)
(23.123 3.15179 -5.15874e-20)
(23.4918 3.45733 -1.30249e-15)
(23.9416 3.71258 1.29544e-15)
(24.4634 3.88925 -1.28931e-15)
(25.0391 3.9629 -1.2834e-15)
(25.6383 3.91671 1.27765e-15)
(26.2265 3.74607 -2.54462e-15)
(26.7706 3.45924 -2.53338e-15)
(27.2453 3.07288 3.78367e-15)
(27.6314 2.60975 -1.25573e-15)
(27.9192 2.09181 0)
(28.1034 1.54216 0)
(28.1835 0.979699 -2.46867e-15)
(28.1621 0.425052 -6.11695e-16)
(28.0427 -0.106149 7.5573e-16)
(27.8458 -0.575463 -1.19519e-15)
(27.6113 -0.954261 2.96358e-15)
(27.3714 -1.24652 -5.89946e-16)
(27.1373 -1.47379 -9.82042e-21)
(26.9131 -1.65103 -5.89211e-16)
(26.6993 -1.78972 1.77035e-15)
(26.4968 -1.8971 5.91515e-16)
(26.3058 -1.97875 -5.93108e-16)
(26.1263 -2.03882 5.94854e-16)
(25.9583 -2.08069 -2.98301e-16)
(25.8019 -2.10712 -5.94746e-16)
(25.6572 -2.12057 8.87516e-16)
(25.524 -2.12323 -8.83774e-16)
(25.4021 -2.11706 1.17443e-15)
(25.2916 -2.1039 -2.92842e-16)
(25.1913 -2.08528 2.92265e-16)
(25.1016 -2.06285 1.45928e-16)
(25.0208 -2.03753 0)
(24.9495 -2.01089 -1.45736e-16)
(24.8854 -1.98318 1.45712e-16)
(24.8294 -1.95584 1.25672e-21)
(24.7791 -1.92859 0)
(24.7353 -1.90272 0)
(24.6959 -1.87737 5.47564e-17)
(24.6615 -1.85454 1.82763e-17)
(22.305 0.052615 3.78459e-16)
(22.3538 0.400712 -5.29015e-16)
(22.3889 0.610064 -6.73072e-16)
(22.4335 0.850623 -6.53431e-16)
(22.4841 1.09289 -3.32045e-20)
(22.544 1.33991 5.45104e-20)
(22.6201 1.59635 0)
(22.7197 1.86573 -2.42656e-15)
(22.8518 2.14718 1.19919e-15)
(23.0267 2.43761 1.18683e-15)
(23.2556 2.72941 2.35325e-15)