/*--------------------------------*- C++ -*----------------------------------*\
  =========                 |
  \\      /  F ield         | OpenFOAM: The Open Source CFD Toolbox
   \\    /   O peration     | Website:  https://openfoam.org
    \\  /    A nd           | Version:  10
     \\/     M anipulation  |
\*---------------------------------------------------------------------------*/
FoamFile
{
    format      ascii;
    class       volScalarField;
    location    "291";
    object      alphat;
}
// * * * * * * * * * * * * * * * * * * * * * * * * * * * * * * * * * * * * * //

dimensions      [1 -1 -1 0 0 0 0];

internalField   nonuniform List<scalar> 
10560
(
3.82359e-06
1.21944e-05
4.6299e-05
0.000125573
0.000197075
0.000233906
0.000247885
0.000251082
0.000249621
0.000245957
0.00024117
0.000235835
0.000230386
0.000225106
0.000220149
0.000215588
0.000211433
0.000207618
0.000204064
0.000200713
0.000197535
0.000194521
0.000191691
0.000189184
0.000187183
0.000185967
0.000185761
0.000186272
0.000187039
0.000187762
0.000188308
0.000188625
0.000188698
0.00018853
0.000188129
0.000187507
0.000186675
0.000185638
0.000184396
0.000182945
0.000181266
0.000179333
0.000177112
0.000174542
0.000171554
0.000167963
0.000163732
0.000157831
0.000151007
0.000134608
2.18924e-06
2.41631e-06
3.30176e-06
6.66802e-06
1.86508e-05
5.00625e-05
9.30334e-05
0.000133463
0.000165491
0.000189744
0.000208363
0.000223566
0.000236938
0.000249496
0.000261663
0.000273575
0.000285202
0.000296449
0.000307276
0.00031776
0.000327942
0.000337754
0.000347084
0.000355804
0.000363812
0.000370549
0.000375985
0.000380541
0.000384348
0.000387538
0.000390201
0.000392406
0.000394224
0.000395705
0.000396892
0.000397823
0.000398526
0.000399025
0.000399344
0.000399495
0.00039949
0.000399335
0.00039903
0.000398568
0.000397918
0.000397076
0.000395827
0.000394267
0.000390521
0.000387169
2.93382e-06
2.87899e-06
2.79883e-06
2.76504e-06
3.03652e-06
3.85598e-06
6.48325e-06
1.39256e-05
2.95898e-05
5.59053e-05
9.09323e-05
0.000130229
0.000169907
0.000208213
0.000244652
0.000279274
0.000312271
0.000343948
0.000374654
0.000404718
0.000434248
0.000463163
0.00049133
0.000518476
0.000544292
0.000566861
0.000585195
0.000600116
0.000612303
0.000622332
0.000630628
0.000637513
0.00064324
0.000648011
0.000651986
0.000655288
0.000658011
0.000660227
0.000661993
0.000663349
0.000664322
0.000664928
0.000665163
0.000665004
0.000664388
0.000663249
0.000661262
0.000658191
0.000652075
0.000644422
3.20892e-06
3.16563e-06
3.10872e-06
3.04125e-06
3.03779e-06
3.06975e-06
3.1988e-06
3.63409e-06
4.67963e-06
7.00779e-06
1.20824e-05
2.28901e-05
4.37031e-05
7.75214e-05
0.000122575
0.000173787
0.000226956
0.0002801
0.000332452
0.000383854
0.000434317
0.000483896
0.000532596
0.000580143
0.00062624
0.000667155
0.000700681
0.000728354
0.000751367
0.000770658
0.000786965
0.000800838
0.000812695
0.000822867
0.000831636
0.000839208
0.000845748
0.000851385
0.000856218
0.000860323
0.000863757
0.000866558
0.000868738
0.000870282
0.000871137
0.000871224
0.000870235
0.000867858
0.000862547
0.000855414
3.31014e-06
3.2739e-06
3.23494e-06
3.18955e-06
3.13637e-06
3.08081e-06
3.0317e-06
3.02408e-06
3.06023e-06
3.16301e-06
3.44438e-06
4.0954e-06
5.64881e-06
9.3209e-06
1.80866e-05
3.80746e-05
7.63283e-05
0.000132797
0.000199676
0.000270558
0.000342612
0.000414656
0.000486166
0.000556659
0.000625902
0.000688018
0.000739291
0.000781987
0.000817869
0.00084827
0.000874252
0.000896609
0.000915973
0.000932808
0.000947532
0.00096044
0.000971789
0.000981772
0.000990544
0.000998232
0.00100493
0.00101072
0.00101564
0.00101971
0.00102291
0.00102518
0.00102632
0.00102605
0.00102338
0.00101895
3.34798e-06
3.3194e-06
3.29036e-06
3.25508e-06
3.21462e-06
3.17042e-06
3.12519e-06
3.08051e-06
3.03924e-06
3.02636e-06
3.03877e-06
3.08107e-06
3.1935e-06
3.46314e-06
4.08682e-06
5.55967e-06
9.26805e-06
1.92359e-05
4.49023e-05
9.6969e-05
0.000172141
0.000258522
0.000349774
0.000443129
0.000536956
0.000622172
0.000693086
0.000752584
0.000802987
0.000846025
0.000883094
0.000915223
0.000943279
0.00096788
0.000989589
0.0010088
0.00102586
0.00104104
0.00105457
0.00106663
0.00107738
0.00108693
0.00109539
0.0011028
0.00110923
0.00111465
0.00111899
0.00112209
0.00112348
0.00112323
3.36497e-06
3.34167e-06
3.31785e-06
3.29098e-06
3.26088e-06
3.22804e-06
3.19348e-06
3.15734e-06
3.12104e-06
3.08512e-06
3.0513e-06
3.02223e-06
3.00168e-06
2.99412e-06
3.01483e-06
3.1018e-06
3.34347e-06
3.96746e-06
5.69198e-06
1.07553e-05
2.6569e-05
6.96003e-05
0.000148234
0.000247878
0.000357153
0.00046153
0.000550941
0.000627287
0.000692783
0.00074928
0.000798382
0.000841277
0.000879008
0.000912336
0.000941965
0.00096837
0.000992015
0.00101324
0.00103234
0.00104957
0.00106515
0.00107927
0.00109206
0.00110366
0.00111419
0.00112368
0.00113223
0.00113978
0.00114626
0.00115118
3.37379e-06
3.35316e-06
3.333e-06
3.312e-06
3.28907e-06
3.26443e-06
3.23878e-06
3.21215e-06
3.18487e-06
3.15693e-06
3.12847e-06
3.09935e-06
3.071e-06
3.04447e-06
3.02145e-06
3.00296e-06
2.9956e-06
3.01925e-06
3.12652e-06
3.45245e-06
4.38097e-06
7.30895e-06
1.72672e-05
5.03679e-05
0.000126488
0.00022388
0.000316046
0.000400224
0.000476077
0.000543733
0.000603867
0.000657233
0.000704739
0.000747114
0.000785125
0.00081928
0.00085012
0.000878037
0.000903386
0.000926484
0.000947612
0.000967023
0.000984916
0.00100147
0.00101691
0.00103132
0.0010449
0.00105775
0.00106998
0.00108069
3.37871e-06
3.35866e-06
3.34095e-06
3.32382e-06
3.30584e-06
3.28662e-06
3.26687e-06
3.24675e-06
3.22661e-06
3.20619e-06
3.18533e-06
3.16382e-06
3.14145e-06
3.11869e-06
3.09615e-06
3.07446e-06
3.05441e-06
3.0351e-06
3.02035e-06
3.022e-06
3.07154e-06
3.25733e-06
3.81905e-06
5.51712e-06
1.14604e-05
2.9477e-05
6.69008e-05
0.000121268
0.000182357
0.000243369
0.000301986
0.000357342
0.000409141
0.000457157
0.00050152
0.000542277
0.000579722
0.000614099
0.000645693
0.000674808
0.000701747
0.000726795
0.000750191
0.000772162
0.000793007
0.000812829
0.000831934
0.000850505
0.000868685
0.000885485
3.3813e-06
3.36022e-06
3.34441e-06
3.33001e-06
3.31554e-06
3.30002e-06
3.28423e-06
3.26824e-06
3.25254e-06
3.23702e-06
3.22143e-06
3.20541e-06
3.18881e-06
3.17137e-06
3.15319e-06
3.1347e-06
3.1163e-06
3.09834e-06
3.0809e-06
3.06285e-06
3.04659e-06
3.03937e-06
3.05999e-06
3.15477e-06
3.44843e-06
4.11291e-06
5.35321e-06
7.623e-06
1.18009e-05
1.93269e-05
3.2041e-05
5.131e-05
7.688e-05
0.000106914
0.000139266
0.000172097
0.000204459
0.000235842
0.000266057
0.000295087
0.000322992
0.000349868
0.0003758
0.000400893
0.000425373
0.000449234
0.000472758
0.00049605
0.000519184
0.000541205
3.37812e-06
3.35889e-06
3.34518e-06
3.33295e-06
3.32077e-06
3.30796e-06
3.29471e-06
3.28131e-06
3.2682e-06
3.25576e-06
3.24373e-06
3.23172e-06
3.21952e-06
3.2069e-06
3.1937e-06
3.17983e-06
3.1656e-06
3.15123e-06
3.137e-06
3.12314e-06
3.10884e-06
3.0937e-06
3.07901e-06
3.06792e-06
3.06761e-06
3.08359e-06
3.11153e-06
3.15536e-06
3.2313e-06
3.35203e-06
3.53561e-06
3.80558e-06
4.246e-06
4.92028e-06
5.92588e-06
7.38458e-06
9.46844e-06
1.23811e-05
1.63583e-05
2.16526e-05
2.85062e-05
3.71126e-05
4.75691e-05
5.98675e-05
7.39679e-05
8.95873e-05
0.0001066
0.000124738
0.00014372
0.000162458
3.37323e-06
3.35641e-06
3.34463e-06
3.33386e-06
3.32331e-06
3.31261e-06
3.30165e-06
3.29051e-06
3.27938e-06
3.26861e-06
3.25844e-06
3.24886e-06
3.23947e-06
3.22995e-06
3.22013e-06
3.20987e-06
3.19904e-06
3.18781e-06
3.17635e-06
3.16488e-06
3.15359e-06
3.14257e-06
3.13063e-06
3.11795e-06
3.10488e-06
3.09302e-06
3.08347e-06
3.07577e-06
3.06981e-06
3.06558e-06
3.06318e-06
3.06278e-06
3.06491e-06
3.07015e-06
3.08364e-06
3.10924e-06
3.15197e-06
3.21746e-06
3.31247e-06
3.44545e-06
3.62702e-06
3.87071e-06
4.19603e-06
4.62368e-06
5.18506e-06
5.91318e-06
6.86108e-06
8.09093e-06
9.66903e-06
1.15737e-05
3.3678e-06
3.35346e-06
3.34324e-06
3.33332e-06
3.32395e-06
3.31476e-06
3.30621e-06
3.2973e-06
3.28806e-06
3.27882e-06
3.26989e-06
3.26147e-06
3.25357e-06
3.24608e-06
3.23856e-06
3.23087e-06
3.22292e-06
3.21455e-06
3.20587e-06
3.19698e-06
3.18806e-06
3.17929e-06
3.17088e-06
3.16225e-06
3.15308e-06
3.14469e-06
3.13751e-06
3.13125e-06
3.1257e-06
3.12073e-06
3.11624e-06
3.11215e-06
3.10827e-06
3.10464e-06
3.10128e-06
3.09824e-06
3.09573e-06
3.09414e-06
3.09388e-06
3.09556e-06
3.09992e-06
3.10804e-06
3.12114e-06
3.14086e-06
3.16917e-06
3.20806e-06
3.26029e-06
3.32894e-06
3.41641e-06
3.51999e-06
3.36216e-06
3.35037e-06
3.34122e-06
3.33149e-06
3.32307e-06
3.31525e-06
3.30904e-06
3.30305e-06
3.29504e-06
3.28696e-06
3.27904e-06
3.27146e-06
3.26441e-06
3.25782e-06
3.25165e-06
3.24564e-06
3.23957e-06
3.23333e-06
3.22685e-06
3.22012e-06
3.21324e-06
3.20633e-06
3.19956e-06
3.19313e-06
3.18702e-06
3.18133e-06
3.17652e-06
3.17228e-06
3.1685e-06
3.16491e-06
3.16156e-06
3.15844e-06
3.15555e-06
3.15287e-06
3.15038e-06
3.14806e-06
3.14585e-06
3.1437e-06
3.1417e-06
3.1398e-06
3.13807e-06
3.13651e-06
3.13522e-06
3.13427e-06
3.13382e-06
3.13404e-06
3.13516e-06
3.13745e-06
3.14114e-06
3.1462e-06
3.35647e-06
3.34543e-06
3.3374e-06
3.32852e-06
3.32119e-06
3.31462e-06
3.30947e-06
3.30496e-06
3.29943e-06
3.29234e-06
3.28531e-06
3.27853e-06
3.27214e-06
3.26623e-06
3.26076e-06
3.25566e-06
3.25086e-06
3.24609e-06
3.24126e-06
3.23633e-06
3.23127e-06
3.22614e-06
3.22105e-06
3.2162e-06
3.21169e-06
3.20784e-06
3.20455e-06
3.20152e-06
3.19874e-06
3.19619e-06
3.19386e-06
3.19174e-06
3.1898e-06
3.18802e-06
3.18637e-06
3.18485e-06
3.18344e-06
3.18207e-06
3.18075e-06
3.17947e-06
3.17824e-06
3.17704e-06
3.17587e-06
3.17472e-06
3.17359e-06
3.1725e-06
3.17144e-06
3.17045e-06
3.16953e-06
3.16873e-06
3.35085e-06
3.3404e-06
3.33308e-06
3.3252e-06
3.31892e-06
3.31342e-06
3.3091e-06
3.30518e-06
3.30106e-06
3.29606e-06
3.28987e-06
3.28377e-06
3.27794e-06
3.27253e-06
3.26756e-06
3.26301e-06
3.25881e-06
3.25494e-06
3.2512e-06
3.24749e-06
3.24379e-06
3.24009e-06
3.23642e-06
3.23286e-06
3.22947e-06
3.2266e-06
3.22426e-06
3.22217e-06
3.22029e-06
3.2186e-06
3.21709e-06
3.21574e-06
3.21452e-06
3.21341e-06
3.2124e-06
3.21147e-06
3.2106e-06
3.2098e-06
3.209e-06
3.20823e-06
3.20747e-06
3.20674e-06
3.206e-06
3.20528e-06
3.20455e-06
3.20384e-06
3.20312e-06
3.20241e-06
3.2017e-06
3.20103e-06
3.34537e-06
3.33547e-06
3.3288e-06
3.32188e-06
3.31652e-06
3.31193e-06
3.30808e-06
3.30486e-06
3.30141e-06
3.29766e-06
3.2933e-06
3.28787e-06
3.28255e-06
3.27752e-06
3.27291e-06
3.26873e-06
3.26494e-06
3.2615e-06
3.25838e-06
3.25548e-06
3.2527e-06
3.25001e-06
3.24739e-06
3.24488e-06
3.24251e-06
3.24051e-06
3.23896e-06
3.23762e-06
3.23645e-06
3.23541e-06
3.23451e-06
3.23371e-06
3.23299e-06
3.23236e-06
3.23177e-06
3.23125e-06
3.23075e-06
3.23029e-06
3.22985e-06
3.2294e-06
3.22896e-06
3.22852e-06
3.22808e-06
3.22764e-06
3.2272e-06
3.22675e-06
3.22631e-06
3.22587e-06
3.22544e-06
3.22504e-06
3.34011e-06
3.33075e-06
3.32473e-06
3.3187e-06
3.31414e-06
3.31033e-06
3.30687e-06
3.30426e-06
3.30144e-06
3.29835e-06
3.29492e-06
3.29097e-06
3.28622e-06
3.28161e-06
3.27726e-06
3.2733e-06
3.26978e-06
3.26664e-06
3.26384e-06
3.26137e-06
3.25919e-06
3.25718e-06
3.25531e-06
3.25359e-06
3.25201e-06
3.25074e-06
3.24984e-06
3.2491e-06
3.24846e-06
3.24793e-06
3.24747e-06
3.24708e-06
3.24674e-06
3.24644e-06
3.24618e-06
3.24593e-06
3.24571e-06
3.2455e-06
3.24529e-06
3.24509e-06
3.24486e-06
3.24463e-06
3.24439e-06
3.24415e-06
3.2439e-06
3.24366e-06
3.24341e-06
3.24316e-06
3.24291e-06
3.2427e-06
3.33511e-06
3.32631e-06
3.32095e-06
3.31573e-06
3.31188e-06
3.30871e-06
3.30581e-06
3.30363e-06
3.30129e-06
3.29873e-06
3.2959e-06
3.29275e-06
3.28922e-06
3.28504e-06
3.281e-06
3.27724e-06
3.27385e-06
3.27088e-06
3.2683e-06
3.26606e-06
3.26414e-06
3.26256e-06
3.26119e-06
3.26002e-06
3.25902e-06
3.2583e-06
3.25787e-06
3.25757e-06
3.25733e-06
3.25714e-06
3.25701e-06
3.25691e-06
3.25683e-06
3.25677e-06
3.25672e-06
3.25667e-06
3.25662e-06
3.25657e-06
3.25652e-06
3.25646e-06
3.25639e-06
3.2563e-06
3.25621e-06
3.25611e-06
3.256e-06
3.25589e-06
3.25578e-06
3.25567e-06
3.25556e-06
3.25565e-06
3.33043e-06
3.32221e-06
3.31749e-06
3.31301e-06
3.30977e-06
3.30715e-06
3.30478e-06
3.30291e-06
3.30095e-06
3.29884e-06
3.29649e-06
3.29391e-06
3.29104e-06
3.28785e-06
3.28418e-06
3.28068e-06
3.27742e-06
3.27453e-06
3.27205e-06
3.26994e-06
3.26818e-06
3.26676e-06
3.26565e-06
3.26483e-06
3.26422e-06
3.26388e-06
3.26379e-06
3.2638e-06
3.26384e-06
3.26391e-06
3.264e-06
3.2641e-06
3.26421e-06
3.26431e-06
3.2644e-06
3.26448e-06
3.26456e-06
3.26463e-06
3.26469e-06
3.26474e-06
3.26478e-06
3.26481e-06
3.26482e-06
3.26482e-06
3.26481e-06
3.2648e-06
3.26478e-06
3.26476e-06
3.26474e-06
3.26491e-06
3.32608e-06
3.31848e-06
3.3144e-06
3.31057e-06
3.30785e-06
3.3057e-06
3.30376e-06
3.30211e-06
3.30046e-06
3.29873e-06
3.29682e-06
3.29469e-06
3.29234e-06
3.28973e-06
3.28696e-06
3.28374e-06
3.28069e-06
3.27788e-06
3.27542e-06
3.27335e-06
3.27165e-06
3.27031e-06
3.26931e-06
3.26864e-06
3.26826e-06
3.26815e-06
3.26828e-06
3.26849e-06
3.26872e-06
3.26896e-06
3.26919e-06
3.26942e-06
3.26964e-06
3.26985e-06
3.27005e-06
3.27023e-06
3.2704e-06
3.27055e-06
3.27069e-06
3.27082e-06
3.27093e-06
3.27103e-06
3.27112e-06
3.27119e-06
3.27125e-06
3.27131e-06
3.27136e-06
3.2714e-06
3.27144e-06
3.27164e-06
3.3221e-06
3.31514e-06
3.31165e-06
3.3084e-06
3.30614e-06
3.30437e-06
3.3028e-06
3.30131e-06
3.29991e-06
3.29852e-06
3.29698e-06
3.29526e-06
3.29333e-06
3.29119e-06
3.28887e-06
3.28639e-06
3.28358e-06
3.28092e-06
3.27851e-06
3.27644e-06
3.27473e-06
3.2734e-06
3.27243e-06
3.2718e-06
3.2715e-06
3.27151e-06
3.27175e-06
3.27208e-06
3.27242e-06
3.27275e-06
3.27308e-06
3.27339e-06
3.27369e-06
3.27398e-06
3.27425e-06
3.2745e-06
3.27473e-06
3.27495e-06
3.27515e-06
3.27533e-06
3.27549e-06
3.27564e-06
3.27578e-06
3.2759e-06
3.27601e-06
3.27611e-06
3.2762e-06
3.27629e-06
3.27639e-06
3.2766e-06
3.31849e-06
3.31217e-06
3.30924e-06
3.3065e-06
3.30463e-06
3.30321e-06
3.30193e-06
3.3007e-06
3.29943e-06
3.29831e-06
3.29707e-06
3.29568e-06
3.2941e-06
3.29233e-06
3.29041e-06
3.2883e-06
3.28612e-06
3.28367e-06
3.28138e-06
3.27932e-06
3.27759e-06
3.27621e-06
3.27521e-06
3.27457e-06
3.27425e-06
3.27427e-06
3.27453e-06
3.2749e-06
3.27529e-06
3.27568e-06
3.27607e-06
3.27644e-06
3.27679e-06
3.27713e-06
3.27745e-06
3.27774e-06
3.27802e-06
3.27827e-06
3.27851e-06
3.27872e-06
3.27892e-06
3.2791e-06
3.27927e-06
3.27942e-06
3.27956e-06
3.27969e-06
3.27981e-06
3.27992e-06
3.28008e-06
3.28029e-06
3.31525e-06
3.30958e-06
3.30715e-06
3.30485e-06
3.30331e-06
3.30221e-06
3.30116e-06
3.30015e-06
3.2991e-06
3.29812e-06
3.29709e-06
3.29595e-06
3.29466e-06
3.29322e-06
3.29161e-06
3.28986e-06
3.288e-06
3.28607e-06
3.28394e-06
3.28198e-06
3.28025e-06
3.27883e-06
3.27775e-06
3.27704e-06
3.27668e-06
3.27664e-06
3.27689e-06
3.27725e-06
3.27766e-06
3.27807e-06
3.27849e-06
3.27889e-06
3.27927e-06
3.27963e-06
3.27998e-06
3.28029e-06
3.28059e-06
3.28087e-06
3.28112e-06
3.28136e-06
3.28158e-06
3.28178e-06
3.28197e-06
3.28214e-06
3.28229e-06
3.28244e-06
3.28257e-06
3.2827e-06
3.28286e-06
3.28307e-06
3.31237e-06
3.30733e-06
3.30534e-06
3.30343e-06
3.30219e-06
3.30137e-06
3.30048e-06
3.29963e-06
3.29876e-06
3.29789e-06
3.29702e-06
3.29609e-06
3.29505e-06
3.29387e-06
3.29255e-06
3.2911e-06
3.28954e-06
3.28786e-06
3.28621e-06
3.28439e-06
3.28272e-06
3.28129e-06
3.28015e-06
3.27935e-06
3.27889e-06
3.27878e-06
3.27896e-06
3.27929e-06
3.27968e-06
3.28009e-06
3.2805e-06
3.2809e-06
3.28129e-06
3.28166e-06
3.28201e-06
3.28233e-06
3.28264e-06
3.28292e-06
3.28319e-06
3.28343e-06
3.28366e-06
3.28387e-06
3.28407e-06
3.28425e-06
3.28441e-06
3.28456e-06
3.2847e-06
3.28483e-06
3.285e-06
3.28519e-06
3.30985e-06
3.3054e-06
3.30379e-06
3.30221e-06
3.30126e-06
3.30062e-06
3.29986e-06
3.29915e-06
3.29843e-06
3.29768e-06
3.29693e-06
3.29617e-06
3.29531e-06
3.29436e-06
3.29329e-06
3.29209e-06
3.29079e-06
3.28939e-06
3.28796e-06
3.2865e-06
3.28494e-06
3.28356e-06
3.28241e-06
3.28154e-06
3.28098e-06
3.28076e-06
3.28086e-06
3.28114e-06
3.28149e-06
3.28186e-06
3.28225e-06
3.28264e-06
3.28302e-06
3.28338e-06
3.28372e-06
3.28404e-06
3.28435e-06
3.28463e-06
3.28489e-06
3.28514e-06
3.28536e-06
3.28557e-06
3.28577e-06
3.28594e-06
3.28611e-06
3.28626e-06
3.2864e-06
3.28653e-06
3.28669e-06
3.28686e-06
3.30765e-06
3.30375e-06
3.30248e-06
3.30118e-06
3.30048e-06
3.29994e-06
3.2993e-06
3.29873e-06
3.29813e-06
3.2975e-06
3.29684e-06
3.29621e-06
3.29551e-06
3.29473e-06
3.29385e-06
3.29288e-06
3.29181e-06
3.29064e-06
3.28943e-06
3.28813e-06
3.28692e-06
3.28575e-06
3.2846e-06
3.28368e-06
3.28303e-06
3.2827e-06
3.28269e-06
3.28298e-06
3.28326e-06
3.28358e-06
3.28393e-06
3.28428e-06
3.28463e-06
3.28497e-06
3.28529e-06
3.28559e-06
3.28588e-06
3.28615e-06
3.2864e-06
3.28664e-06
3.28686e-06
3.28706e-06
3.28724e-06
3.28742e-06
3.28758e-06
3.28772e-06
3.28786e-06
3.28798e-06
3.28813e-06
3.28828e-06
3.30575e-06
3.30236e-06
3.30138e-06
3.30033e-06
3.29979e-06
3.29934e-06
3.29883e-06
3.29838e-06
3.29787e-06
3.29733e-06
3.29677e-06
3.29623e-06
3.29565e-06
3.29501e-06
3.2943e-06
3.2935e-06
3.29262e-06
3.29166e-06
3.29064e-06
3.28956e-06
3.28851e-06
3.28745e-06
3.28642e-06
3.28552e-06
3.28483e-06
3.28443e-06
3.28433e-06
3.28455e-06
3.28484e-06
3.28516e-06
3.28545e-06
3.28578e-06
3.28609e-06
3.28639e-06
3.28669e-06
3.28697e-06
3.28723e-06
3.28748e-06
3.28772e-06
3.28794e-06
3.28814e-06
3.28833e-06
3.2885e-06
3.28866e-06
3.28881e-06
3.28895e-06
3.28908e-06
3.2892e-06
3.28933e-06
3.28946e-06
3.30413e-06
3.3012e-06
3.30046e-06
3.29963e-06
3.2992e-06
3.29883e-06
3.29844e-06
3.29807e-06
3.29762e-06
3.29718e-06
3.2967e-06
3.29625e-06
3.29576e-06
3.29523e-06
3.29464e-06
3.29399e-06
3.29327e-06
3.29249e-06
3.29165e-06
3.29075e-06
3.28986e-06
3.28883e-06
3.28801e-06
3.28727e-06
3.28659e-06
3.28615e-06
3.28597e-06
3.28609e-06
3.2863e-06
3.28657e-06
3.28685e-06
3.28716e-06
3.28746e-06
3.28776e-06
3.28804e-06
3.28832e-06
3.28856e-06
3.2888e-06
3.28901e-06
3.28922e-06
3.2894e-06
3.28958e-06
3.28974e-06
3.28989e-06
3.29004e-06
3.29017e-06
3.2903e-06
3.29041e-06
3.29053e-06
3.29064e-06
3.30275e-06
3.30031e-06
3.29972e-06
3.29907e-06
3.29872e-06
3.29841e-06
3.29808e-06
3.29776e-06
3.29741e-06
3.29704e-06
3.29664e-06
3.29626e-06
3.29584e-06
3.2954e-06
3.29492e-06
3.29439e-06
3.2938e-06
3.29317e-06
3.29248e-06
3.29174e-06
3.29098e-06
3.29018e-06
3.28948e-06
3.28879e-06
3.28823e-06
3.28776e-06
3.28753e-06
3.28756e-06
3.28769e-06
3.28788e-06
3.2881e-06
3.28835e-06
3.2886e-06
3.28885e-06
3.28909e-06
3.28933e-06
3.28956e-06
3.28977e-06
3.28997e-06
3.29016e-06
3.29034e-06
3.2905e-06
3.29066e-06
3.2908e-06
3.29093e-06
3.29106e-06
3.29117e-06
3.29128e-06
3.29138e-06
3.29146e-06
3.3016e-06
3.29958e-06
3.2991e-06
3.29862e-06
3.29832e-06
3.29805e-06
3.29778e-06
3.29751e-06
3.29722e-06
3.29692e-06
3.29659e-06
3.29626e-06
3.29592e-06
3.29555e-06
3.29515e-06
3.29471e-06
3.29424e-06
3.29372e-06
3.29316e-06
3.29256e-06
3.29194e-06
3.29129e-06
3.29068e-06
3.29002e-06
3.28953e-06
3.28915e-06
3.28894e-06
3.2889e-06
3.28896e-06
3.28908e-06
3.28924e-06
3.28943e-06
3.28962e-06
3.28982e-06
3.29002e-06
3.29022e-06
3.2904e-06
3.29058e-06
3.29075e-06
3.29091e-06
3.29106e-06
3.2912e-06
3.29133e-06
3.29145e-06
3.29157e-06
3.29168e-06
3.29178e-06
3.29187e-06
3.29195e-06
3.29204e-06
3.30064e-06
3.29899e-06
3.29859e-06
3.29823e-06
3.29798e-06
3.29776e-06
3.29753e-06
3.2973e-06
3.29706e-06
3.29682e-06
3.29655e-06
3.29628e-06
3.29599e-06
3.29568e-06
3.29535e-06
3.29499e-06
3.2946e-06
3.29418e-06
3.29372e-06
3.29324e-06
3.29273e-06
3.29221e-06
3.29169e-06
3.29117e-06
3.29074e-06
3.29039e-06
3.29018e-06
3.29009e-06
3.2901e-06
3.29017e-06
3.29027e-06
3.2904e-06
3.29055e-06
3.2907e-06
3.29086e-06
3.29101e-06
3.29116e-06
3.29131e-06
3.29144e-06
3.29157e-06
3.2917e-06
3.29181e-06
3.29192e-06
3.29203e-06
3.29212e-06
3.29221e-06
3.2923e-06
3.29237e-06
3.29245e-06
3.29252e-06
3.29984e-06
3.29851e-06
3.29818e-06
3.2979e-06
3.29771e-06
3.29752e-06
3.29733e-06
3.29715e-06
3.29695e-06
3.29674e-06
3.29652e-06
3.2963e-06
3.29605e-06
3.2958e-06
3.29552e-06
3.29523e-06
3.29491e-06
3.29457e-06
3.2942e-06
3.29381e-06
3.2934e-06
3.29298e-06
3.29256e-06
3.29214e-06
3.29176e-06
3.29145e-06
3.29125e-06
3.29115e-06
3.29113e-06
3.29115e-06
3.29122e-06
3.29131e-06
3.29141e-06
3.29152e-06
3.29164e-06
3.29176e-06
3.29187e-06
3.29199e-06
3.2921e-06
3.2922e-06
3.2923e-06
3.2924e-06
3.29248e-06
3.29257e-06
3.29264e-06
3.29272e-06
3.29279e-06
3.29285e-06
3.29291e-06
3.29298e-06
3.29919e-06
3.29812e-06
3.29786e-06
3.29765e-06
3.29749e-06
3.29735e-06
3.29719e-06
3.29703e-06
3.29687e-06
3.29669e-06
3.29651e-06
3.29632e-06
3.29612e-06
3.29591e-06
3.29568e-06
3.29544e-06
3.29518e-06
3.2949e-06
3.29461e-06
3.29429e-06
3.29397e-06
3.29363e-06
3.29329e-06
3.29296e-06
3.29263e-06
3.29238e-06
3.2922e-06
3.29209e-06
3.29205e-06
3.29206e-06
3.29209e-06
3.29215e-06
3.29222e-06
3.2923e-06
3.29239e-06
3.29248e-06
3.29257e-06
3.29265e-06
3.29274e-06
3.29282e-06
3.2929e-06
3.29297e-06
3.29304e-06
3.29311e-06
3.29317e-06
3.29323e-06
3.29328e-06
3.29334e-06
3.29338e-06
3.29344e-06
3.29867e-06
3.29782e-06
3.2976e-06
3.29745e-06
3.29734e-06
3.29722e-06
3.29709e-06
3.29696e-06
3.29682e-06
3.29667e-06
3.29652e-06
3.29636e-06
3.29619e-06
3.29602e-06
3.29583e-06
3.29563e-06
3.29542e-06
3.2952e-06
3.29496e-06
3.29471e-06
3.29445e-06
3.29418e-06
3.29391e-06
3.29365e-06
3.29338e-06
3.29318e-06
3.29302e-06
3.29293e-06
3.29288e-06
3.29287e-06
3.29289e-06
3.29292e-06
3.29297e-06
3.29303e-06
3.29309e-06
3.29315e-06
3.29322e-06
3.29328e-06
3.29335e-06
3.29341e-06
3.29347e-06
3.29353e-06
3.29358e-06
3.29363e-06
3.29368e-06
3.29373e-06
3.29377e-06
3.29382e-06
3.29385e-06
3.2939e-06
3.29824e-06
3.29759e-06
3.29741e-06
3.29731e-06
3.29722e-06
3.29713e-06
3.29702e-06
3.29691e-06
3.29679e-06
3.29667e-06
3.29655e-06
3.29641e-06
3.29627e-06
3.29613e-06
3.29597e-06
3.29581e-06
3.29564e-06
3.29546e-06
3.29527e-06
3.29507e-06
3.29486e-06
3.29465e-06
3.29444e-06
3.29423e-06
3.29403e-06
3.29386e-06
3.29373e-06
3.29365e-06
3.29361e-06
3.29359e-06
3.29359e-06
3.29361e-06
3.29364e-06
3.29368e-06
3.29372e-06
3.29376e-06
3.29381e-06
3.29386e-06
3.29391e-06
3.29395e-06
3.294e-06
3.29404e-06
3.29408e-06
3.29412e-06
3.29416e-06
3.2942e-06
3.29423e-06
3.29426e-06
3.29429e-06
3.29433e-06
3.2979e-06
3.29742e-06
3.29726e-06
3.29721e-06
3.29714e-06
3.29707e-06
3.29698e-06
3.29689e-06
3.29679e-06
3.29669e-06
3.29658e-06
3.29647e-06
3.29635e-06
3.29623e-06
3.29611e-06
3.29597e-06
3.29583e-06
3.29569e-06
3.29553e-06
3.29537e-06
3.29521e-06
3.29504e-06
3.29488e-06
3.29471e-06
3.29455e-06
3.29442e-06
3.29431e-06
3.29424e-06
3.2942e-06
3.29418e-06
3.29417e-06
3.29418e-06
3.2942e-06
3.29422e-06
3.29425e-06
3.29428e-06
3.29431e-06
3.29434e-06
3.29438e-06
3.29441e-06
3.29444e-06
3.29448e-06
3.29451e-06
3.29454e-06
3.29457e-06
3.29459e-06
3.29462e-06
3.29465e-06
3.29467e-06
3.2947e-06
3.29763e-06
3.29729e-06
3.29717e-06
3.29714e-06
3.2971e-06
3.29703e-06
3.29696e-06
3.29688e-06
3.2968e-06
3.29671e-06
3.29663e-06
3.29653e-06
3.29644e-06
3.29633e-06
3.29623e-06
3.29612e-06
3.296e-06
3.29588e-06
3.29576e-06
3.29563e-06
3.29549e-06
3.29536e-06
3.29523e-06
3.29509e-06
3.29497e-06
3.29486e-06
3.29477e-06
3.29471e-06
3.29467e-06
3.29464e-06
3.29463e-06
3.29463e-06
3.29464e-06
3.29465e-06
3.29467e-06
3.29468e-06
3.29471e-06
3.29473e-06
3.29475e-06
3.29477e-06
3.2948e-06
3.29482e-06
3.29484e-06
3.29486e-06
3.29488e-06
3.2949e-06
3.29492e-06
3.29494e-06
3.29496e-06
3.29499e-06
3.29742e-06
3.2972e-06
3.29712e-06
3.29711e-06
3.29707e-06
3.29701e-06
3.29695e-06
3.29689e-06
3.29682e-06
3.29675e-06
3.29667e-06
3.29659e-06
3.29651e-06
3.29642e-06
3.29633e-06
3.29624e-06
3.29614e-06
3.29603e-06
3.29593e-06
3.29582e-06
3.29571e-06
3.2956e-06
3.29549e-06
3.29538e-06
3.29528e-06
3.29518e-06
3.29511e-06
3.29506e-06
3.29502e-06
3.29499e-06
3.29498e-06
3.29497e-06
3.29497e-06
3.29498e-06
3.29498e-06
3.29499e-06
3.29501e-06
3.29502e-06
3.29503e-06
3.29505e-06
3.29506e-06
3.29508e-06
3.29509e-06
3.29511e-06
3.29512e-06
3.29514e-06
3.29515e-06
3.29517e-06
3.29518e-06
3.2952e-06
3.29726e-06
3.29714e-06
3.2971e-06
3.29708e-06
3.29705e-06
3.297e-06
3.29696e-06
3.2969e-06
3.29684e-06
3.29678e-06
3.29671e-06
3.29664e-06
3.29657e-06
3.29649e-06
3.29641e-06
3.29632e-06
3.29623e-06
3.29614e-06
3.29605e-06
3.29596e-06
3.29586e-06
3.29577e-06
3.29568e-06
3.29559e-06
3.29551e-06
3.29542e-06
3.29537e-06
3.29532e-06
3.29529e-06
3.29527e-06
3.29525e-06
3.29525e-06
3.29524e-06
3.29524e-06
3.29525e-06
3.29525e-06
3.29526e-06
3.29527e-06
3.29527e-06
3.29528e-06
3.29529e-06
3.2953e-06
3.29531e-06
3.29532e-06
3.29533e-06
3.29534e-06
3.29535e-06
3.29536e-06
3.29537e-06
3.29538e-06
3.29713e-06
3.29708e-06
3.29707e-06
3.29706e-06
3.29704e-06
3.297e-06
3.29696e-06
3.29692e-06
3.29686e-06
3.29681e-06
3.29674e-06
3.29667e-06
3.2966e-06
3.29652e-06
3.29645e-06
3.29637e-06
3.29629e-06
3.29621e-06
3.29613e-06
3.29606e-06
3.29598e-06
3.2959e-06
3.29583e-06
3.29576e-06
3.2957e-06
3.29566e-06
3.29562e-06
3.2956e-06
3.29557e-06
3.29556e-06
3.29556e-06
3.29556e-06
3.29556e-06
3.29556e-06
3.29557e-06
3.29557e-06
3.29558e-06
3.29559e-06
3.29559e-06
3.2956e-06
3.29561e-06
3.29562e-06
3.29562e-06
3.29563e-06
3.29564e-06
3.29564e-06
3.29565e-06
3.29565e-06
3.29566e-06
3.29567e-06
3.29704e-06
3.29704e-06
3.29705e-06
3.29705e-06
3.29703e-06
3.297e-06
3.29697e-06
3.29693e-06
3.29687e-06
3.29681e-06
3.29675e-06
3.29668e-06
3.2966e-06
3.29653e-06
3.29647e-06
3.2964e-06
3.29633e-06
3.29627e-06
3.29622e-06
3.29617e-06
3.29612e-06
3.29608e-06
3.29604e-06
3.29601e-06
3.29597e-06
3.29595e-06
3.29593e-06
3.29592e-06
3.29591e-06
3.2959e-06
3.2959e-06
3.2959e-06
3.2959e-06
3.29591e-06
3.29591e-06
3.29592e-06
3.29592e-06
3.29593e-06
3.29594e-06
3.29595e-06
3.29595e-06
3.29596e-06
3.29597e-06
3.29597e-06
3.29598e-06
3.29599e-06
3.29599e-06
3.296e-06
3.296e-06
3.29601e-06
3.29697e-06
3.29701e-06
3.29703e-06
3.29703e-06
3.29703e-06
3.297e-06
3.29697e-06
3.29692e-06
3.29686e-06
3.29679e-06
3.29673e-06
3.29666e-06
3.2966e-06
3.29654e-06
3.2965e-06
3.29646e-06
3.29642e-06
3.29639e-06
3.29636e-06
3.29633e-06
3.2963e-06
3.29627e-06
3.29624e-06
3.29622e-06
3.2962e-06
3.29618e-06
3.29617e-06
3.29616e-06
3.29615e-06
3.29615e-06
3.29615e-06
3.29615e-06
3.29615e-06
3.29615e-06
3.29616e-06
3.29616e-06
3.29617e-06
3.29617e-06
3.29618e-06
3.29619e-06
3.29619e-06
3.2962e-06
3.2962e-06
3.29621e-06
3.29621e-06
3.29622e-06
3.29622e-06
3.29623e-06
3.29623e-06
3.29623e-06
3.29693e-06
3.29699e-06
3.29702e-06
3.29702e-06
3.29702e-06
3.297e-06
3.29695e-06
3.29689e-06
3.29682e-06
3.29676e-06
3.2967e-06
3.29666e-06
3.29663e-06
3.29661e-06
3.29658e-06
3.29656e-06
3.29653e-06
3.29651e-06
3.29648e-06
3.29646e-06
3.29644e-06
3.29641e-06
3.29639e-06
3.29637e-06
3.29636e-06
3.29634e-06
3.29633e-06
3.29633e-06
3.29632e-06
3.29632e-06
3.29632e-06
3.29632e-06
3.29632e-06
3.29632e-06
3.29632e-06
3.29633e-06
3.29633e-06
3.29633e-06
3.29634e-06
3.29634e-06
3.29635e-06
3.29635e-06
3.29636e-06
3.29636e-06
3.29637e-06
3.29637e-06
3.29637e-06
3.29638e-06
3.29638e-06
3.29639e-06
3.2969e-06
3.29697e-06
3.297e-06
3.29701e-06
3.29701e-06
3.29697e-06
3.29691e-06
3.29685e-06
3.29678e-06
3.29675e-06
3.29673e-06
3.29671e-06
3.29669e-06
3.29667e-06
3.29664e-06
3.29662e-06
3.2966e-06
3.29658e-06
3.29656e-06
3.29654e-06
3.29652e-06
3.2965e-06
3.29648e-06
3.29647e-06
3.29645e-06
3.29644e-06
3.29644e-06
3.29643e-06
3.29643e-06
3.29643e-06
3.29643e-06
3.29643e-06
3.29643e-06
3.29643e-06
3.29643e-06
3.29644e-06
3.29644e-06
3.29645e-06
3.29645e-06
3.29645e-06
3.29646e-06
3.29646e-06
3.29646e-06
3.29647e-06
3.29647e-06
3.29647e-06
3.29648e-06
3.29648e-06
3.29648e-06
3.29649e-06
3.29689e-06
3.29695e-06
3.29697e-06
3.29699e-06
3.29698e-06
3.29693e-06
3.29686e-06
3.29682e-06
3.29679e-06
3.29677e-06
3.29675e-06
3.29673e-06
3.29671e-06
3.29669e-06
3.29667e-06
3.29664e-06
3.29662e-06
3.2966e-06
3.29659e-06
3.29657e-06
3.29656e-06
3.29654e-06
3.29653e-06
3.29653e-06
3.29652e-06
3.29652e-06
3.29652e-06
3.29652e-06
3.29652e-06
3.29652e-06
3.29652e-06
3.29653e-06
3.29653e-06
3.29654e-06
3.29654e-06
3.29655e-06
3.29655e-06
3.29656e-06
3.29656e-06
3.29657e-06
3.29657e-06
3.29658e-06
3.29658e-06
3.29658e-06
3.29659e-06
3.29659e-06
3.2966e-06
3.2966e-06
3.2966e-06
3.29661e-06
3.29687e-06
3.29692e-06
3.29694e-06
3.29696e-06
3.29694e-06
3.29688e-06
3.29684e-06
3.29681e-06
3.29679e-06
3.29677e-06
3.29675e-06
3.29673e-06
3.29671e-06
3.29669e-06
3.29667e-06
3.29665e-06
3.29664e-06
3.29663e-06
3.29662e-06
3.29661e-06
3.2966e-06
3.2966e-06
3.2966e-06
3.2966e-06
3.2966e-06
3.29661e-06
3.29661e-06
3.29662e-06
3.29663e-06
3.29663e-06
3.29664e-06
3.29665e-06
3.29665e-06
3.29666e-06
3.29667e-06
3.29667e-06
3.29668e-06
3.29668e-06
3.29669e-06
3.29669e-06
3.29669e-06
3.2967e-06
3.2967e-06
3.2967e-06
3.29671e-06
3.29671e-06
3.29671e-06
3.29671e-06
3.29672e-06
3.29672e-06
3.29685e-06
3.29689e-06
3.29691e-06
3.29691e-06
3.29689e-06
3.29685e-06
3.29681e-06
3.29678e-06
3.29675e-06
3.29673e-06
3.29671e-06
3.2967e-06
3.29669e-06
3.29668e-06
3.29668e-06
3.29668e-06
3.29668e-06
3.29668e-06
3.29669e-06
3.2967e-06
3.29671e-06
3.29672e-06
3.29673e-06
3.29674e-06
3.29676e-06
3.29678e-06
3.29679e-06
3.29681e-06
3.29683e-06
3.29684e-06
3.29686e-06
3.29687e-06
3.29688e-06
3.2969e-06
3.29691e-06
3.29692e-06
3.29693e-06
3.29694e-06
3.29695e-06
3.29696e-06
3.29696e-06
3.29697e-06
3.29698e-06
3.29699e-06
3.29699e-06
3.297e-06
3.297e-06
3.29701e-06
3.29701e-06
3.29702e-06
3.29684e-06
3.29686e-06
3.29686e-06
3.29686e-06
3.29684e-06
3.2968e-06
3.29673e-06
3.2967e-06
3.29668e-06
3.29668e-06
3.29669e-06
3.2967e-06
3.29671e-06
3.29672e-06
3.29674e-06
3.29676e-06
3.29678e-06
3.2968e-06
3.29682e-06
3.29684e-06
3.29687e-06
3.2969e-06
3.29693e-06
3.29696e-06
3.29699e-06
3.29702e-06
3.29706e-06
3.29709e-06
3.29713e-06
3.29717e-06
3.29721e-06
3.29724e-06
3.29728e-06
3.29732e-06
3.29736e-06
3.2974e-06
3.29743e-06
3.29747e-06
3.29751e-06
3.29754e-06
3.29758e-06
3.29761e-06
3.29764e-06
3.29768e-06
3.29771e-06
3.29774e-06
3.29777e-06
3.2978e-06
3.29783e-06
3.29786e-06
3.29678e-06
3.29684e-06
3.29686e-06
3.29687e-06
3.29684e-06
3.29679e-06
3.29673e-06
3.29671e-06
3.29669e-06
3.29668e-06
3.29668e-06
3.29668e-06
3.29669e-06
3.2967e-06
3.2967e-06
3.29671e-06
3.29672e-06
3.29673e-06
3.29674e-06
3.29676e-06
3.29677e-06
3.29678e-06