/*--------------------------------*- C++ -*----------------------------------*\
  =========                 |
  \\      /  F ield         | OpenFOAM: The Open Source CFD Toolbox
   \\    /   O peration     | Website:  https://openfoam.org
    \\  /    A nd           | Version:  10
     \\/     M anipulation  |
\*---------------------------------------------------------------------------*/
FoamFile
{
    format      ascii;
    class       volScalarField;
    location    "291";
    object      nuTilda;
}
// * * * * * * * * * * * * * * * * * * * * * * * * * * * * * * * * * * * * * //

dimensions      [0 2 -1 0 0 0 0];

internalField   nonuniform List<scalar> 
10560
(
4.65308e-05
6.41545e-05
9.76616e-05
0.000150735
0.000198801
0.000225211
0.000235564
0.000237992
0.000236946
0.000234262
0.000230755
0.00022686
0.000222899
0.000219079
0.000215508
0.000212236
0.000209266
0.000206547
0.000204021
0.000201645
0.000199396
0.000197265
0.000195268
0.000193498
0.000192081
0.00019121
0.000191039
0.000191368
0.000191877
0.000192359
0.00019272
0.000192926
0.000192963
0.000192836
0.000192547
0.000192108
0.000191525
0.000190801
0.000189938
0.000188933
0.000187775
0.000186445
0.000184923
0.000183168
0.000181134
0.000178702
0.00017585
0.000171899
0.000167359
0.000156596
4.0329e-05
4.14232e-05
4.49898e-05
5.43113e-05
7.27465e-05
0.000100649
0.000129893
0.000156094
0.000177336
0.00019394
0.000207021
0.000217915
0.000227645
0.000236904
0.00024598
0.000254959
0.000263808
0.000272438
0.000280809
0.000288966
0.000296933
0.000304645
0.000312008
0.000318911
0.000325266
0.00033062
0.000334948
0.000338582
0.000341622
0.000344172
0.0003463
0.000348062
0.000349513
0.000350693
0.000351636
0.000352373
0.000352926
0.000353315
0.000353558
0.000353665
0.000353646
0.000353506
0.000353245
0.000352855
0.000352313
0.000351615
0.000350585
0.000349305
0.000346247
0.000343522
4.35185e-05
4.33447e-05
4.30742e-05
4.29837e-05
4.40866e-05
4.69726e-05
5.39925e-05
6.68452e-05
8.40814e-05
0.000105002
0.000128617
0.000154053
0.000180355
0.000206897
0.000233265
0.000259232
0.000284678
0.000309628
0.000334204
0.000358562
0.000382713
0.000406533
0.000429867
0.000452449
0.000473994
0.000492871
0.000508231
0.000520748
0.000530979
0.000539402
0.000546369
0.000552151
0.000556959
0.000560961
0.000564293
0.000567058
0.000569334
0.000571184
0.000572654
0.000573778
0.000574578
0.000575067
0.000575244
0.000575086
0.000574541
0.000573553
0.000571845
0.000569221
0.000564009
0.000557523
4.45512e-05
4.44278e-05
4.42606e-05
4.40515e-05
4.40768e-05
4.42272e-05
4.47281e-05
4.6268e-05
4.94826e-05
5.51713e-05
6.41974e-05
7.75449e-05
9.59378e-05
0.000119819
0.000149073
0.000182962
0.000220282
0.000259799
0.00030045
0.000341559
0.00038272
0.000423695
0.0004643
0.000504185
0.000543014
0.000577572
0.00060594
0.000629384
0.000648895
0.000665259
0.000679094
0.000690865
0.000700925
0.000709555
0.000716992
0.000723411
0.000728953
0.000733727
0.000737817
0.000741288
0.000744187
0.000746547
0.000748378
0.000749666
0.000750366
0.000750409
0.000749533
0.000747474
0.0007429
0.000736805
4.49171e-05
4.48172e-05
4.47148e-05
4.45911e-05
4.44339e-05
4.42584e-05
4.40966e-05
4.40848e-05
4.42341e-05
4.46265e-05
4.56411e-05
4.77766e-05
5.20562e-05
5.9687e-05
7.22011e-05
9.14435e-05
0.000119016
0.000155688
0.000200794
0.000252489
0.000308403
0.000366501
0.000425475
0.000484374
0.000542683
0.000595232
0.000638726
0.000675004
0.000705523
0.000731397
0.000753518
0.000772558
0.00078905
0.000803388
0.000815927
0.000826919
0.000836581
0.000845078
0.000852542
0.00085908
0.000864775
0.000869692
0.000873868
0.000877313
0.000880016
0.000881926
0.00088286
0.000882597
0.000880264
0.000876473
4.50542e-05
4.49778e-05
4.49069e-05
4.48176e-05
4.47084e-05
4.45794e-05
4.44377e-05
4.42895e-05
4.41471e-05
4.41075e-05
4.41613e-05
4.43258e-05
4.47467e-05
4.57105e-05
4.77514e-05
5.18329e-05
5.95885e-05
7.35369e-05
9.68463e-05
0.000132488
0.000181759
0.00024337
0.000313991
0.000389731
0.000467711
0.000539393
0.000599403
0.000649915
0.000692788
0.000729437
0.000761028
0.000788421
0.000812349
0.000833334
0.000851853
0.000868238
0.000882794
0.000895747
0.000907286
0.000917569
0.000926729
0.000934872
0.000942074
0.000948385
0.00095385
0.000958453
0.000962134
0.000964759
0.000965901
0.000965691
4.51181e-05
4.50568e-05
4.49997e-05
4.49366e-05
4.48635e-05
4.47775e-05
4.46788e-05
4.45669e-05
4.44479e-05
4.43246e-05
4.42048e-05
4.40997e-05
4.40246e-05
4.39979e-05
4.40783e-05
4.44078e-05
4.52891e-05
4.73751e-05
5.21552e-05
6.21099e-05
8.12198e-05
0.000114455
0.000165719
0.00023538
0.000319758
0.000404764
0.000479261
0.000543535
0.000598968
0.000646933
0.000688698
0.000725227
0.000757385
0.000785806
0.000811082
0.000833614
0.000853794
0.000871911
0.000888215
0.000902922
0.00091622
0.000928267
0.000939186
0.000949077
0.000958057
0.000966154
0.000973438
0.00097988
0.000985387
0.000989608
4.51542e-05
4.50991e-05
4.50504e-05
4.50037e-05
4.49534e-05
4.48965e-05
4.48319e-05
4.47579e-05
4.46756e-05
4.45855e-05
4.44891e-05
4.43868e-05
4.42846e-05
4.41871e-05
4.41011e-05
4.4031e-05
4.40025e-05
4.40919e-05
4.44947e-05
4.56645e-05
4.86249e-05
5.57957e-05
7.11719e-05
0.000100907
0.000151454
0.000217785
0.000287159
0.000354341
0.000416645
0.000473041
0.000523579
0.00056865
0.000608895
0.000644868
0.000677184
0.000706252
0.000732517
0.000756308
0.000777918
0.000797616
0.000815639
0.000832199
0.000847465
0.000861592
0.000874767
0.000887063
0.000898659
0.000909633
0.00092007
0.000929245
4.51772e-05
4.51214e-05
4.50774e-05
4.504e-05
4.50036e-05
4.49643e-05
4.49212e-05
4.48726e-05
4.48187e-05
4.4759e-05
4.46933e-05
4.46218e-05
4.45445e-05
4.44634e-05
4.43813e-05
4.43008e-05
4.42251e-05
4.41511e-05
4.40933e-05
4.40971e-05
4.42818e-05
4.4964e-05
4.68801e-05
5.1693e-05
6.31949e-05
8.39075e-05
0.000112541
0.000148016
0.000188519
0.000231871
0.00027612
0.00031965
0.000361444
0.000400825
0.000437595
0.000471619
0.000503033
0.000531975
0.000558644
0.000583269
0.000606088
0.000627331
0.000647193
0.00066586
0.000683582
0.000700445
0.000716707
0.000732528
0.00074802
0.000762366
4.51925e-05
4.51309e-05
4.50903e-05
4.50584e-05
4.50304e-05
4.50015e-05
4.49716e-05
4.49384e-05
4.49024e-05
4.48625e-05
4.48182e-05
4.47689e-05
4.47145e-05
4.46549e-05
4.45907e-05
4.45237e-05
4.44557e-05
4.43881e-05
4.43212e-05
4.4251e-05
4.41863e-05
4.4155e-05
4.42284e-05
4.45774e-05
4.56241e-05
4.77874e-05
5.12551e-05
5.63973e-05
6.36915e-05
7.35456e-05
8.61778e-05
0.000101514
0.000119187
0.000138701
0.000159632
0.000181447
0.000203776
0.000226254
0.000248612
0.000270671
0.000292328
0.000313539
0.000334277
0.000354557
0.000374509
0.000394093
0.000413512
0.000432833
0.0004521
0.000470514
4.5188e-05
4.5131e-05
4.50951e-05
4.50673e-05
4.50434e-05
4.50208e-05
4.49979e-05
4.49736e-05
4.49477e-05
4.49206e-05
4.4891e-05
4.48581e-05
4.48214e-05
4.47809e-05
4.47363e-05
4.46877e-05
4.46363e-05
4.45832e-05
4.45294e-05
4.44759e-05
4.44197e-05
4.43593e-05
4.42995e-05
4.42523e-05
4.42452e-05
4.42993e-05
4.43985e-05
4.45568e-05
4.48314e-05
4.52613e-05
4.58966e-05
4.67919e-05
4.81637e-05
5.00862e-05
5.26446e-05
5.58811e-05
5.98424e-05
6.45355e-05
6.99543e-05
7.6089e-05
8.29306e-05
9.04707e-05
9.86936e-05
0.000107589
0.000117199
0.000127459
0.000138441
0.00015013
0.000162486
0.000174899
4.51777e-05
4.51276e-05
4.50963e-05
4.50707e-05
4.50491e-05
4.50302e-05
4.50128e-05
4.49952e-05
4.49765e-05
4.49564e-05
4.49351e-05
4.49125e-05
4.48876e-05
4.48597e-05
4.48286e-05
4.47943e-05
4.47563e-05
4.47157e-05
4.46729e-05
4.46291e-05
4.45848e-05
4.45405e-05
4.44918e-05
4.44394e-05
4.43847e-05
4.43343e-05
4.4293e-05
4.42595e-05
4.42331e-05
4.42138e-05
4.42016e-05
4.41973e-05
4.42028e-05
4.42202e-05
4.42688e-05
4.43626e-05
4.45196e-05
4.47583e-05
4.50996e-05
4.55665e-05
4.61848e-05
4.69821e-05
4.79942e-05
4.92457e-05
5.07737e-05
5.25964e-05
5.47557e-05
5.72804e-05
6.01771e-05
6.32965e-05
4.51655e-05
4.51229e-05
4.50953e-05
4.50703e-05
4.50498e-05
4.5033e-05
4.5021e-05
4.50093e-05
4.49965e-05
4.49821e-05
4.49664e-05
4.49494e-05
4.49314e-05
4.49122e-05
4.48907e-05
4.48667e-05
4.48401e-05
4.48107e-05
4.47789e-05
4.47452e-05
4.47103e-05
4.46749e-05
4.46398e-05
4.4603e-05
4.45635e-05
4.45265e-05
4.44945e-05
4.44667e-05
4.44422e-05
4.44203e-05
4.44004e-05
4.43824e-05
4.43653e-05
4.43494e-05
4.43347e-05
4.43212e-05
4.43099e-05
4.43022e-05
4.42996e-05
4.43044e-05
4.43193e-05
4.43484e-05
4.43961e-05
4.44684e-05
4.45722e-05
4.47142e-05
4.49035e-05
4.51494e-05
4.54579e-05
4.58164e-05
4.51526e-05
4.51179e-05
4.50926e-05
4.50664e-05
4.50469e-05
4.50318e-05
4.50251e-05
4.50212e-05
4.50111e-05
4.50005e-05
4.49888e-05
4.49759e-05
4.49623e-05
4.49477e-05
4.49322e-05
4.49154e-05
4.48966e-05
4.48757e-05
4.48527e-05
4.48275e-05
4.48006e-05
4.47725e-05
4.4744e-05
4.47157e-05
4.46878e-05
4.46612e-05
4.46383e-05
4.46182e-05
4.46003e-05
4.45837e-05
4.45682e-05
4.45539e-05
4.45407e-05
4.45284e-05
4.4517e-05
4.45064e-05
4.44963e-05
4.44866e-05
4.44775e-05
4.4469e-05
4.44612e-05
4.44542e-05
4.44483e-05
4.44439e-05
4.44414e-05
4.44417e-05
4.44454e-05
4.44536e-05
4.44673e-05
4.44861e-05
4.51394e-05
4.51064e-05
4.5084e-05
4.50592e-05
4.50415e-05
4.50285e-05
4.50226e-05
4.50212e-05
4.50179e-05
4.50095e-05
4.50007e-05
4.49913e-05
4.49811e-05
4.49701e-05
4.49584e-05
4.4946e-05
4.49328e-05
4.4918e-05
4.49017e-05
4.48837e-05
4.4864e-05
4.4843e-05
4.4821e-05
4.4799e-05
4.47773e-05
4.47577e-05
4.47405e-05
4.4725e-05
4.4711e-05
4.46983e-05
4.46866e-05
4.46761e-05
4.46664e-05
4.46575e-05
4.46493e-05
4.46417e-05
4.46346e-05
4.46279e-05
4.46214e-05
4.46153e-05
4.46094e-05
4.46039e-05
4.45985e-05
4.45934e-05
4.45885e-05
4.45839e-05
4.45796e-05
4.45757e-05
4.45721e-05
4.45692e-05
4.51262e-05
4.50945e-05
4.50736e-05
4.50513e-05
4.50357e-05
4.50244e-05
4.50191e-05
4.50172e-05
4.50165e-05
4.50138e-05
4.50071e-05
4.49999e-05
4.49923e-05
4.49841e-05
4.49754e-05
4.4966e-05
4.4956e-05
4.49454e-05
4.49338e-05
4.49209e-05
4.49068e-05
4.48915e-05
4.48752e-05
4.48582e-05
4.4841e-05
4.48253e-05
4.48118e-05
4.47998e-05
4.47891e-05
4.47796e-05
4.4771e-05
4.47633e-05
4.47563e-05
4.47499e-05
4.47441e-05
4.47387e-05
4.47337e-05
4.4729e-05
4.47246e-05
4.47203e-05
4.47163e-05
4.47124e-05
4.47087e-05
4.47053e-05
4.47019e-05
4.46987e-05
4.46956e-05
4.46927e-05
4.46898e-05
4.46873e-05
4.51132e-05
4.50829e-05
4.50635e-05
4.50436e-05
4.50301e-05
4.50205e-05
4.50148e-05
4.50131e-05
4.50123e-05
4.50119e-05
4.50103e-05
4.50049e-05
4.49991e-05
4.49929e-05
4.49864e-05
4.49794e-05
4.49718e-05
4.49638e-05
4.49553e-05
4.49461e-05
4.49359e-05
4.49248e-05
4.49129e-05
4.49002e-05
4.48871e-05
4.48748e-05
4.48643e-05
4.48552e-05
4.48472e-05
4.48401e-05
4.48338e-05
4.48281e-05
4.4823e-05
4.48184e-05
4.48141e-05
4.48102e-05
4.48066e-05
4.48033e-05
4.48001e-05
4.47971e-05
4.47943e-05
4.47915e-05
4.4789e-05
4.47865e-05
4.47842e-05
4.47819e-05
4.47798e-05
4.47778e-05
4.47759e-05
4.47741e-05
4.51006e-05
4.50717e-05
4.5054e-05
4.50366e-05
4.5025e-05
4.50168e-05
4.5011e-05
4.50095e-05
4.50088e-05
4.50087e-05
4.50085e-05
4.50072e-05
4.50028e-05
4.49982e-05
4.49931e-05
4.49878e-05
4.49823e-05
4.49763e-05
4.49698e-05
4.4963e-05
4.49557e-05
4.49477e-05
4.4939e-05
4.49297e-05
4.49199e-05
4.49106e-05
4.49027e-05
4.48959e-05
4.489e-05
4.48847e-05
4.48801e-05
4.4876e-05
4.48722e-05
4.48689e-05
4.48658e-05
4.4863e-05
4.48603e-05
4.48579e-05
4.48557e-05
4.48536e-05
4.48515e-05
4.48496e-05
4.48477e-05
4.4846e-05
4.48443e-05
4.48428e-05
4.48413e-05
4.48399e-05
4.48386e-05
4.48374e-05
4.50887e-05
4.50612e-05
4.50454e-05
4.50302e-05
4.50204e-05
4.50136e-05
4.50085e-05
4.5007e-05
4.50062e-05
4.5006e-05
4.5006e-05
4.50059e-05
4.50049e-05
4.50014e-05
4.49976e-05
4.49935e-05
4.49892e-05
4.49848e-05
4.498e-05
4.49748e-05
4.49693e-05
4.49636e-05
4.49573e-05
4.49506e-05
4.49434e-05
4.49365e-05
4.49305e-05
4.49255e-05
4.4921e-05
4.49172e-05
4.49138e-05
4.49107e-05
4.4908e-05
4.49055e-05
4.49032e-05
4.49011e-05
4.48992e-05
4.48974e-05
4.48957e-05
4.48942e-05
4.48927e-05
4.48913e-05
4.48899e-05
4.48887e-05
4.48875e-05
4.48864e-05
4.48854e-05
4.48844e-05
4.48835e-05
4.48833e-05
4.50775e-05
4.50516e-05
4.50377e-05
4.50247e-05
4.50164e-05
4.50108e-05
4.50067e-05
4.50051e-05
4.50041e-05
4.50038e-05
4.50038e-05
4.5004e-05
4.50039e-05
4.50031e-05
4.50002e-05
4.49972e-05
4.49939e-05
4.49905e-05
4.49869e-05
4.49831e-05
4.4979e-05
4.49746e-05
4.497e-05
4.49651e-05
4.49599e-05
4.49548e-05
4.49504e-05
4.49467e-05
4.49434e-05
4.49405e-05
4.4938e-05
4.49358e-05
4.49337e-05
4.49319e-05
4.49302e-05
4.49286e-05
4.49271e-05
4.49258e-05
4.49245e-05
4.49234e-05
4.49223e-05
4.49213e-05
4.49203e-05
4.49194e-05
4.49186e-05
4.49178e-05
4.4917e-05
4.49163e-05
4.49157e-05
4.49157e-05
4.50671e-05
4.5043e-05
4.5031e-05
4.502e-05
4.50131e-05
4.50085e-05
4.50052e-05
4.50034e-05
4.50024e-05
4.5002e-05
4.5002e-05
4.50022e-05
4.50025e-05
4.50025e-05
4.50021e-05
4.49998e-05
4.49974e-05
4.49947e-05
4.49919e-05
4.4989e-05
4.4986e-05
4.49827e-05
4.49792e-05
4.49756e-05
4.49718e-05
4.49681e-05
4.49648e-05
4.4962e-05
4.49596e-05
4.49575e-05
4.49556e-05
4.49539e-05
4.49523e-05
4.49509e-05
4.49496e-05
4.49484e-05
4.49473e-05
4.49463e-05
4.49454e-05
4.49445e-05
4.49437e-05
4.4943e-05
4.49423e-05
4.49416e-05
4.4941e-05
4.49404e-05
4.49399e-05
4.49394e-05
4.49389e-05
4.4939e-05
4.50575e-05
4.50354e-05
4.50253e-05
4.5016e-05
4.50103e-05
4.50067e-05
4.50041e-05
4.50021e-05
4.50011e-05
4.50008e-05
4.50008e-05
4.5001e-05
4.50013e-05
4.50017e-05
4.50018e-05
4.50015e-05
4.49997e-05
4.49977e-05
4.49955e-05
4.49933e-05
4.49909e-05
4.49885e-05
4.49859e-05
4.49832e-05
4.49803e-05
4.49776e-05
4.49752e-05
4.49731e-05
4.49713e-05
4.49697e-05
4.49682e-05
4.49669e-05
4.49657e-05
4.49646e-05
4.49637e-05
4.49628e-05
4.4962e-05
4.49612e-05
4.49605e-05
4.49599e-05
4.49593e-05
4.49587e-05
4.49582e-05
4.49577e-05
4.49572e-05
4.49568e-05
4.49564e-05
4.4956e-05
4.49557e-05
4.49559e-05
4.50489e-05
4.50288e-05
4.50204e-05
4.50126e-05
4.50081e-05
4.50053e-05
4.50033e-05
4.50017e-05
4.50005e-05
4.50002e-05
4.50002e-05
4.50004e-05
4.50007e-05
4.5001e-05
4.50014e-05
4.50014e-05
4.50013e-05
4.49998e-05
4.49982e-05
4.49964e-05
4.49946e-05
4.49927e-05
4.49908e-05
4.49888e-05
4.49866e-05
4.49845e-05
4.49827e-05
4.49811e-05
4.49797e-05
4.49785e-05
4.49774e-05
4.49764e-05
4.49755e-05
4.49747e-05
4.4974e-05
4.49733e-05
4.49727e-05
4.49721e-05
4.49716e-05
4.49711e-05
4.49706e-05
4.49702e-05
4.49698e-05
4.49694e-05
4.49691e-05
4.49688e-05
4.49685e-05
4.49682e-05
4.49681e-05
4.49683e-05
4.50412e-05
4.50232e-05
4.50163e-05
4.50099e-05
4.50063e-05
4.50044e-05
4.50028e-05
4.50016e-05
4.50005e-05
4.50002e-05
4.5e-05
4.50001e-05
4.50003e-05
4.50006e-05
4.50009e-05
4.50012e-05
4.50014e-05
4.50012e-05
4.5e-05
4.49987e-05
4.49973e-05
4.49958e-05
4.49943e-05
4.49928e-05
4.49912e-05
4.49896e-05
4.49882e-05
4.4987e-05
4.4986e-05
4.4985e-05
4.49842e-05
4.49835e-05
4.49828e-05
4.49822e-05
4.49817e-05
4.49811e-05
4.49807e-05
4.49802e-05
4.49798e-05
4.49795e-05
4.49791e-05
4.49788e-05
4.49785e-05
4.49782e-05
4.4978e-05
4.49777e-05
4.49775e-05
4.49773e-05
4.49773e-05
4.49774e-05
4.50344e-05
4.50184e-05
4.50129e-05
4.50077e-05
4.5005e-05
4.50038e-05
4.50025e-05
4.50015e-05
4.50007e-05
4.50001e-05
4.5e-05
4.5e-05
4.50001e-05
4.50004e-05
4.50006e-05
4.50009e-05
4.50012e-05
4.50013e-05
4.50013e-05
4.50004e-05
4.49993e-05
4.49982e-05
4.4997e-05
4.49958e-05
4.49946e-05
4.49933e-05
4.49923e-05
4.49914e-05
4.49906e-05
4.49899e-05
4.49893e-05
4.49887e-05
4.49882e-05
4.49878e-05
4.49874e-05
4.4987e-05
4.49866e-05
4.49863e-05
4.4986e-05
4.49857e-05
4.49855e-05
4.49852e-05
4.4985e-05
4.49848e-05
4.49846e-05
4.49844e-05
4.49842e-05
4.49841e-05
4.49841e-05
4.49842e-05
4.50285e-05
4.50144e-05
4.50101e-05
4.50059e-05
4.5004e-05
4.50033e-05
4.50022e-05
4.50014e-05
4.50008e-05
4.50003e-05
4.5e-05
4.5e-05
4.50002e-05
4.50003e-05
4.50005e-05
4.50008e-05
4.50011e-05
4.50013e-05
4.50015e-05
4.50014e-05
4.50006e-05
4.49998e-05
4.49989e-05
4.4998e-05
4.4997e-05
4.49961e-05
4.49953e-05
4.49947e-05
4.49941e-05
4.49936e-05
4.49931e-05
4.49927e-05
4.49924e-05
4.4992e-05
4.49917e-05
4.49914e-05
4.49912e-05
4.49909e-05
4.49907e-05
4.49905e-05
4.49903e-05
4.49901e-05
4.499e-05
4.49898e-05
4.49897e-05
4.49895e-05
4.49894e-05
4.49893e-05
4.49893e-05
4.49894e-05
4.50234e-05
4.50111e-05
4.50079e-05
4.50045e-05
4.50034e-05
4.50028e-05
4.5002e-05
4.50014e-05
4.5001e-05
4.50005e-05
4.50002e-05
4.50002e-05
4.50003e-05
4.50004e-05
4.50006e-05
4.50008e-05
4.5001e-05
4.50012e-05
4.50015e-05
4.50014e-05
4.50016e-05
4.50014e-05
4.50006e-05
4.49998e-05
4.49991e-05
4.49983e-05
4.49977e-05
4.49975e-05
4.49971e-05
4.49967e-05
4.49964e-05
4.49961e-05
4.49958e-05
4.49956e-05
4.49953e-05
4.49951e-05
4.49949e-05
4.49948e-05
4.49946e-05
4.49944e-05
4.49943e-05
4.49941e-05
4.4994e-05
4.49939e-05
4.49938e-05
4.49937e-05
4.49936e-05
4.49935e-05
4.49935e-05
4.49936e-05
4.50191e-05
4.50083e-05
4.50061e-05
4.50035e-05
4.50027e-05
4.50024e-05
4.50018e-05
4.50016e-05
4.50011e-05
4.50008e-05
4.50005e-05
4.50005e-05
4.50005e-05
4.50006e-05
4.50007e-05
4.50009e-05
4.50011e-05
4.50012e-05
4.50014e-05
4.50015e-05
4.50017e-05
4.50017e-05
4.50013e-05
4.50007e-05
4.50001e-05
4.49995e-05
4.49991e-05
4.49991e-05
4.49991e-05
4.49991e-05
4.49988e-05
4.49987e-05
4.49985e-05
4.49983e-05
4.49981e-05
4.4998e-05
4.49978e-05
4.49977e-05
4.49976e-05
4.49975e-05
4.49974e-05
4.49973e-05
4.49972e-05
4.49971e-05
4.4997e-05
4.49969e-05
4.49969e-05
4.49968e-05
4.49968e-05
4.49969e-05
4.50154e-05
4.50062e-05
4.50047e-05
4.50027e-05
4.50023e-05
4.50021e-05
4.50018e-05
4.50016e-05
4.50013e-05
4.5001e-05
4.50008e-05
4.50007e-05
4.50007e-05
4.50008e-05
4.50009e-05
4.5001e-05
4.50011e-05
4.50013e-05
4.50015e-05
4.50016e-05
4.50018e-05
4.50014e-05
4.50016e-05
4.50015e-05
4.50011e-05
4.50007e-05
4.50003e-05
4.50004e-05
4.50005e-05
4.50005e-05
4.50005e-05
4.50006e-05
4.50006e-05
4.50006e-05
4.50005e-05
4.50005e-05
4.50005e-05
4.50004e-05
4.50003e-05
4.50003e-05
4.50002e-05
4.50002e-05
4.50001e-05
4.50001e-05
4.5e-05
4.5e-05
4.5e-05
4.5e-05
4.5e-05
4.5e-05
4.50123e-05
4.50047e-05
4.50036e-05
4.50022e-05
4.50019e-05
4.50018e-05
4.50016e-05
4.50015e-05
4.50013e-05
4.50012e-05
4.5001e-05
4.5001e-05
4.5001e-05
4.5001e-05
4.50011e-05
4.50012e-05
4.50013e-05
4.50014e-05
4.50015e-05
4.50016e-05
4.50018e-05
4.50018e-05
4.50019e-05
4.50019e-05
4.50019e-05
4.50015e-05
4.50013e-05
4.50014e-05
4.50014e-05
4.50015e-05
4.50016e-05
4.50016e-05
4.50016e-05
4.50017e-05
4.50017e-05
4.50017e-05
4.50017e-05
4.50018e-05
4.50018e-05
4.50018e-05
4.50018e-05
4.50018e-05
4.50018e-05
4.50018e-05
4.50018e-05
4.50018e-05
4.50018e-05
4.50018e-05
4.50018e-05
4.50018e-05
4.50098e-05
4.50036e-05
4.50028e-05
4.50019e-05
4.50017e-05
4.50016e-05
4.50015e-05
4.50015e-05
4.50014e-05
4.50013e-05
4.50012e-05
4.50012e-05
4.50012e-05
4.50012e-05
4.50013e-05
4.50013e-05
4.50014e-05
4.50015e-05
4.50016e-05
4.50017e-05
4.50018e-05
4.50019e-05
4.5002e-05
4.50018e-05
4.50019e-05
4.50019e-05
4.50019e-05
4.50019e-05
4.5002e-05
4.50021e-05
4.50021e-05
4.50022e-05
4.50022e-05
4.50023e-05
4.50023e-05
4.50023e-05
4.50023e-05
4.50024e-05
4.50024e-05
4.50024e-05
4.50024e-05
4.50024e-05
4.50024e-05
4.50024e-05
4.50025e-05
4.50025e-05
4.50025e-05
4.50025e-05
4.50025e-05
4.50025e-05
4.50077e-05
4.50027e-05
4.50021e-05
4.50016e-05
4.50015e-05
4.50014e-05
4.50014e-05
4.50014e-05
4.50014e-05
4.50014e-05
4.50014e-05
4.50014e-05
4.50014e-05
4.50014e-05
4.50014e-05
4.50015e-05
4.50015e-05
4.50016e-05
4.50017e-05
4.50018e-05
4.50019e-05
4.50019e-05
4.5002e-05
4.5002e-05
4.50021e-05
4.50021e-05
4.50021e-05
4.50022e-05
4.50022e-05
4.50023e-05
4.50023e-05
4.50024e-05
4.50024e-05
4.50025e-05
4.50025e-05
4.50026e-05
4.50026e-05
4.50026e-05
4.50026e-05
4.50027e-05
4.50027e-05
4.50027e-05
4.50027e-05
4.50027e-05
4.50027e-05
4.50027e-05
4.50027e-05
4.50028e-05
4.50028e-05
4.50028e-05
4.5006e-05
4.5002e-05
4.50016e-05
4.50013e-05
4.50013e-05
4.50013e-05
4.50014e-05
4.50014e-05
4.50014e-05
4.50015e-05
4.50015e-05
4.50015e-05
4.50015e-05
4.50015e-05
4.50016e-05
4.50016e-05
4.50017e-05
4.50017e-05
4.50018e-05
4.50019e-05
4.50019e-05
4.5002e-05
4.50021e-05
4.50021e-05
4.50022e-05
4.50022e-05
4.50022e-05
4.50023e-05
4.50023e-05
4.50024e-05
4.50024e-05
4.50025e-05
4.50025e-05
4.50026e-05
4.50026e-05
4.50026e-05
4.50027e-05
4.50027e-05
4.50027e-05
4.50027e-05
4.50028e-05
4.50028e-05
4.50028e-05
4.50028e-05
4.50028e-05
4.50028e-05
4.50028e-05
4.50029e-05
4.50029e-05
4.50029e-05
4.50047e-05
4.50016e-05
4.50012e-05
4.50011e-05
4.50012e-05
4.50013e-05
4.50014e-05
4.50014e-05
4.50015e-05
4.50015e-05
4.50016e-05
4.50016e-05
4.50016e-05
4.50017e-05
4.50017e-05
4.50018e-05
4.50018e-05
4.50019e-05
4.50019e-05
4.5002e-05
4.5002e-05
4.50021e-05
4.50022e-05
4.50022e-05
4.50022e-05
4.50023e-05
4.50023e-05
4.50023e-05
4.50024e-05
4.50024e-05
4.50025e-05
4.50025e-05
4.50026e-05
4.50026e-05
4.50027e-05
4.50027e-05
4.50027e-05
4.50028e-05
4.50028e-05
4.50028e-05
4.50028e-05
4.50028e-05
4.50029e-05
4.50029e-05
4.50029e-05
4.50029e-05
4.50029e-05
4.50029e-05
4.50029e-05
4.5003e-05
4.50036e-05
4.50012e-05
4.5001e-05
4.5001e-05
4.50012e-05
4.50013e-05
4.50014e-05
4.50015e-05
4.50016e-05
4.50016e-05
4.50017e-05
4.50017e-05
4.50018e-05
4.50018e-05
4.50018e-05
4.50019e-05
4.50019e-05
4.5002e-05
4.5002e-05
4.50021e-05
4.50021e-05
4.50022e-05
4.50022e-05
4.50023e-05
4.50023e-05
4.50024e-05
4.50024e-05
4.50024e-05
4.50025e-05
4.50025e-05
4.50026e-05
4.50026e-05
4.50027e-05
4.50027e-05
4.50027e-05
4.50028e-05
4.50028e-05
4.50028e-05
4.50029e-05
4.50029e-05
4.50029e-05
4.50029e-05
4.50029e-05
4.50029e-05
4.5003e-05
4.5003e-05
4.5003e-05
4.5003e-05
4.5003e-05
4.50031e-05
4.50027e-05
4.5001e-05
4.50008e-05
4.5001e-05
4.50012e-05
4.50013e-05
4.50015e-05
4.50015e-05
4.50016e-05
4.50017e-05
4.50018e-05
4.50018e-05
4.50019e-05
4.50019e-05
4.5002e-05
4.5002e-05
4.50021e-05
4.50021e-05
4.50021e-05
4.50022e-05
4.50022e-05
4.50023e-05
4.50023e-05
4.50024e-05
4.50024e-05
4.50025e-05
4.50025e-05
4.50025e-05
4.50026e-05
4.50026e-05
4.50026e-05
4.50027e-05
4.50027e-05
4.50027e-05
4.50028e-05
4.50028e-05
4.50028e-05
4.50029e-05
4.50029e-05
4.50029e-05
4.50029e-05
4.50029e-05
4.50029e-05
4.5003e-05
4.5003e-05
4.5003e-05
4.5003e-05
4.5003e-05
4.5003e-05
4.50031e-05
4.50021e-05
4.50008e-05
4.50008e-05
4.5001e-05
4.50012e-05
4.50014e-05
4.50015e-05
4.50016e-05
4.50017e-05
4.50018e-05
4.50018e-05
4.50019e-05
4.5002e-05
4.5002e-05
4.50021e-05
4.50021e-05
4.50021e-05
4.50022e-05
4.50022e-05
4.50023e-05
4.50023e-05
4.50023e-05
4.50024e-05
4.50024e-05
4.50024e-05
4.50025e-05
4.50025e-05
4.50025e-05
4.50025e-05
4.50026e-05
4.50026e-05
4.50026e-05
4.50026e-05
4.50027e-05
4.50027e-05
4.50027e-05
4.50027e-05
4.50028e-05
4.50028e-05
4.50028e-05
4.50028e-05
4.50028e-05
4.50028e-05
4.50028e-05
4.50029e-05
4.50029e-05
4.50029e-05
4.50029e-05
4.50029e-05
4.5003e-05
4.50015e-05
4.50008e-05
4.50008e-05
4.50011e-05
4.50013e-05
4.50015e-05
4.50016e-05
4.50017e-05
4.50018e-05
4.50019e-05
4.50019e-05
4.5002e-05
4.5002e-05
4.50021e-05
4.50021e-05
4.50022e-05
4.50022e-05
4.50022e-05
4.50023e-05
4.50023e-05
4.50023e-05
4.50023e-05
4.50023e-05
4.50024e-05
4.50024e-05
4.50024e-05
4.50024e-05
4.50024e-05
4.50024e-05
4.50024e-05
4.50024e-05
4.50024e-05
4.50024e-05
4.50024e-05
4.50025e-05
4.50025e-05
4.50025e-05
4.50025e-05
4.50025e-05
4.50025e-05
4.50025e-05
4.50025e-05
4.50025e-05
4.50026e-05
4.50026e-05
4.50026e-05
4.50026e-05
4.50026e-05
4.50026e-05
4.50026e-05
4.50012e-05
4.50008e-05
4.50009e-05
4.50012e-05
4.50014e-05
4.50015e-05
4.50017e-05
4.50018e-05
4.50018e-05
4.50019e-05
4.5002e-05
4.5002e-05
4.50021e-05
4.50021e-05
4.50021e-05
4.50022e-05
4.50022e-05
4.50022e-05
4.50022e-05
4.50022e-05
4.50022e-05
4.50022e-05
4.50022e-05
4.50022e-05
4.50022e-05
4.50021e-05
4.50021e-05
4.50021e-05
4.50021e-05
4.50021e-05
4.50021e-05
4.50021e-05
4.50021e-05
4.50021e-05
4.50021e-05
4.50021e-05
4.50021e-05
4.50021e-05
4.50021e-05
4.50021e-05
4.50021e-05
4.50021e-05
4.50021e-05
4.50021e-05
4.50021e-05
4.50021e-05
4.50021e-05
4.50022e-05
4.50022e-05
4.50022e-05
4.50009e-05
4.50008e-05
4.5001e-05
4.50012e-05
4.50014e-05
4.50016e-05
4.50017e-05
4.50018e-05
4.50019e-05
4.50019e-05
4.5002e-05
4.5002e-05
4.50021e-05
4.50021e-05
4.50021e-05
4.50021e-05
4.5002e-05
4.5002e-05
4.5002e-05
4.5002e-05
4.5002e-05
4.50019e-05
4.50019e-05
4.50019e-05
4.50019e-05
4.50018e-05
4.50018e-05
4.50018e-05
4.50018e-05
4.50017e-05
4.50017e-05
4.50017e-05
4.50017e-05
4.50017e-05
4.50017e-05
4.50017e-05
4.50017e-05
4.50017e-05
4.50017e-05
4.50017e-05
4.50017e-05
4.50017e-05
4.50017e-05
4.50017e-05
4.50017e-05
4.50017e-05
4.50017e-05
4.50017e-05
4.50017e-05
4.50017e-05
4.50007e-05
4.50008e-05
4.5001e-05
4.50013e-05
4.50015e-05
4.50016e-05
4.50017e-05
4.50018e-05
4.50019e-05
4.50019e-05
4.50019e-05
4.50019e-05
4.50019e-05
4.50019e-05
4.50019e-05
4.50019e-05
4.50018e-05
4.50018e-05
4.50018e-05
4.50017e-05
4.50017e-05
4.50017e-05
4.50016e-05
4.50016e-05
4.50016e-05
4.50016e-05
4.50016e-05
4.50017e-05
4.50017e-05
4.50017e-05
4.50017e-05
4.50017e-05
4.50017e-05
4.50018e-05
4.50018e-05
4.50018e-05
4.50018e-05
4.50018e-05
4.50018e-05
4.50018e-05
4.50018e-05
4.50018e-05
4.50018e-05
4.50018e-05
4.50018e-05
4.50018e-05
4.50018e-05
4.50018e-05
4.50018e-05
4.50018e-05
4.50005e-05
4.50008e-05
4.50011e-05
4.50013e-05
4.50015e-05
4.50016e-05
4.50017e-05
4.50018e-05
4.50018e-05
4.50018e-05
4.50018e-05
4.50018e-05
4.50017e-05
4.50017e-05
4.50016e-05
4.50016e-05
4.50016e-05
4.50015e-05
4.50016e-05
4.50016e-05
4.50016e-05
4.50017e-05
4.50017e-05
4.50017e-05
4.50018e-05
4.50018e-05
4.50019e-05
4.50019e-05
4.50019e-05
4.5002e-05
4.5002e-05
4.5002e-05
4.5002e-05
4.5002e-05
4.50021e-05
4.50021e-05
4.50021e-05
4.50021e-05
4.50021e-05
4.50021e-05
4.50021e-05
4.50021e-05
4.50021e-05
4.50022e-05
4.50022e-05
4.50022e-05
4.50022e-05
4.50022e-05
4.50022e-05
4.50022e-05
4.50004e-05
4.50008e-05
4.50011e-05
4.50013e-05
4.50015e-05
4.50016e-05
4.50017e-05
4.50017e-05
4.50017e-05
4.50016e-05
4.50016e-05
4.50015e-05
4.50015e-05
4.50014e-05
4.50015e-05
4.50015e-05
4.50015e-05
4.50016e-05
4.50016e-05
4.50017e-05
4.50017e-05
4.50018e-05
4.50018e-05
4.50019e-05
4.50019e-05
4.50019e-05
4.5002e-05
4.5002e-05
4.5002e-05
4.5002e-05
4.50021e-05
4.50021e-05
4.50021e-05
4.50021e-05
4.50021e-05
4.50021e-05
4.50022e-05
4.50022e-05
4.50022e-05
4.50022e-05
4.50022e-05
4.50022e-05
4.50022e-05
4.50022e-05
4.50022e-05
4.50022e-05
4.50022e-05
4.50022e-05
4.50022e-05
4.50023e-05
4.50004e-05
4.50008e-05
4.50011e-05
4.50013e-05
4.50015e-05
4.50016e-05
4.50016e-05
4.50015e-05
4.50015e-05
4.50014e-05
4.50013e-05
4.50013e-05
4.50014e-05
4.50014e-05
4.50015e-05
4.50015e-05
4.50016e-05
4.50016e-05
4.50017e-05
4.50017e-05
4.50017e-05
4.50018e-05
4.50018e-05
4.50018e-05
4.50019e-05
4.50019e-05
4.50019e-05
4.50019e-05
4.50019e-05
4.5002e-05
4.5002e-05
4.5002e-05
4.5002e-05
4.5002e-05
4.5002e-05
4.5002e-05
4.5002e-05
4.5002e-05
4.50021e-05
4.50021e-05
4.50021e-05
4.50021e-05
4.50021e-05
4.50021e-05
4.50021e-05
4.50021e-05
4.50021e-05
4.50021e-05
4.50021e-05
4.50021e-05
4.50004e-05
4.50008e-05
4.50011e-05
4.50013e-05
4.50014e-05
4.50015e-05
4.50014e-05
4.50013e-05
4.50012e-05
4.50012e-05
4.50013e-05
4.50013e-05
4.50014e-05
4.50014e-05
4.50015e-05
4.50015e-05
4.50015e-05
4.50015e-05
4.50016e-05
4.50016e-05
4.50016e-05
4.50016e-05
4.50016e-05
4.50017e-05
4.50017e-05
4.50017e-05
4.50017e-05
4.50017e-05
4.50017e-05
4.50017e-05
4.50018e-05
4.50018e-05
4.50018e-05
4.50018e-05
4.50018e-05
4.50018e-05
4.50018e-05
4.50018e-05
4.50018e-05
4.50019e-05
4.50019e-05
4.50019e-05
4.50019e-05
4.50019e-05
4.50019e-05
4.50019e-05
4.50019e-05
4.50019e-05
4.50019e-05
4.50019e-05
4.50004e-05
4.50008e-05
4.5001e-05
4.50012e-05
4.50013e-05
4.50013e-05
4.50011e-05
4.50011e-05
4.50011e-05
4.50012e-05
4.50012e-05
4.50012e-05
4.50013e-05
4.50013e-05
4.50013e-05
4.50013e-05
4.50013e-05
4.50013e-05
4.50013e-05
4.50014e-05
4.50014e-05
4.50014e-05
4.50014e-05
4.50014e-05
4.50015e-05
4.50015e-05
4.50015e-05
4.50015e-05
4.50015e-05
4.50016e-05
4.50016e-05
4.50016e-05
4.50016e-05
4.50016e-05
4.50016e-05
4.50017e-05
4.50017e-05
4.50017e-05
4.50017e-05
4.50017e-05
4.50017e-05
4.50017e-05
4.50017e-05
4.50018e-05
4.50018e-05
4.50018e-05
4.50018e-05
4.50018e-05
4.50018e-05
4.50018e-05
4.50004e-05
4.50007e-05
4.50009e-05
4.50011e-05
4.50011e-05
4.5001e-05
4.5001e-05
4.5001e-05
4.5001e-05
4.5001e-05
4.5001e-05
4.5001e-05
4.5001e-05
4.50011e-05
4.50011e-05
4.50011e-05
4.50011e-05
4.50011e-05
4.50011e-05
4.50012e-05
4.50012e-05
4.50012e-05
4.50013e-05
4.50013e-05
4.50013e-05
4.50014e-05
4.50014e-05
4.50014e-05
4.50015e-05
4.50015e-05
4.50015e-05
4.50016e-05
4.50016e-05
4.50016e-05
4.50016e-05
4.50017e-05
4.50017e-05
4.50017e-05
4.50017e-05
4.50017e-05
4.50017e-05
4.50017e-05
4.50017e-05
4.50017e-05
4.50017e-05
4.50017e-05
4.50017e-05
4.50017e-05
4.50017e-05
4.50017e-05
4.50004e-05
4.50006e-05
4.50008e-05
4.50009e-05
4.50009e-05
4.50008e-05
4.50008e-05
4.50008e-05
4.50008e-05
4.50008e-05
4.50008e-05
4.50008e-05
4.50008e-05
4.50008e-05
4.50009e-05
4.50009e-05
4.5001e-05
4.5001e-05
4.50011e-05
4.50011e-05
4.50012e-05
4.50013e-05
4.50013e-05
4.50014e-05
4.50015e-05
4.50015e-05
4.50016e-05
4.50017e-05
4.50017e-05
4.50018e-05
4.50018e-05
4.50019e-05
4.50019e-05
4.5002e-05
4.5002e-05
4.50021e-05
4.50021e-05
4.50021e-05
4.50021e-05
4.50022e-05
4.50022e-05
4.50022e-05
4.50022e-05
4.50023e-05
4.50023e-05
4.50023e-05
4.50023e-05
4.50023e-05
4.50023e-05
4.50023e-05
4.50003e-05
4.50005e-05
4.50006e-05
4.50007e-05
4.50007e-05
4.50007e-05
4.50005e-05
4.50005e-05
4.50005e-05
4.50006e-05
4.50007e-05
4.50008e-05
4.50009e-05
4.5001e-05
4.5001e-05
4.50011e-05
4.50012e-05
4.50013e-05
4.50015e-05
4.50016e-05
4.50017e-05
4.50018e-05
4.50019e-05
4.5002e-05
4.50021e-05
4.50022e-05
4.50023e-05
4.50025e-05
4.50026e-05
4.50027e-05
4.50028e-05
4.5003e-05
4.50031e-05
4.50032e-05
4.50033e-05
4.50034e-05
4.50036e-05
4.50037e-05
4.50038e-05
4.50039e-05
4.5004e-05
4.50042e-05
4.50043e-05
4.50044e-05
4.50045e-05
4.50046e-05
4.50047e-05
4.50048e-05
4.50049e-05
4.5005e-05
4.50002e-05
4.50005e-05
4.50006e-05
4.50007e-05
4.50007e-05
4.50005e-05
4.50004e-05
4.50003e-05
4.50003e-05
4.50003e-05
4.50003e-05
4.50003e-05
4.50004e-05
4.50004e-05
4.50005e-05
4.50005e-05