/*--------------------------------*- C++ -*----------------------------------*\
  =========                 |
  \\      /  F ield         | OpenFOAM: The Open Source CFD Toolbox
   \\    /   O peration     | Website:  https://openfoam.org
    \\  /    A nd           | Version:  10
     \\/     M anipulation  |
\*---------------------------------------------------------------------------*/
FoamFile
{
    format      ascii;
    class       surfaceScalarField;
    location    "291";
    object      phi;
}
// * * * * * * * * * * * * * * * * * * * * * * * * * * * * * * * * * * * * * //

dimensions      [1 0 -1 0 0 0 0];

internalField   nonuniform List<scalar> 
20822
(
0.00119059
-0.000490489
-0.000700104
0.00157667
-0.000386074
0.00179983
-0.000223165
0.00188966
-8.98322e-05
0.00189258
-2.9135e-06
0.00184325
4.93256e-05
0.00177141
7.18442e-05
0.00169722
7.41912e-05
0.00163097
6.6248e-05
0.00157322
5.77472e-05
0.00152199
5.12276e-05
0.00147432
4.76681e-05
0.00142933
4.49987e-05
0.00138708
4.22465e-05
0.00134803
3.90514e-05
0.00131223
3.57923e-05
0.00127948
3.27521e-05
0.00124925
3.02308e-05
0.00122109
2.8157e-05
0.00119455
2.65384e-05
0.00116949
2.50605e-05
0.00114596
2.35311e-05
0.00112446
2.15062e-05
0.00110597
1.84891e-05
0.00109122
1.47503e-05
0.0010825
8.71813e-06
0.00107917
3.32149e-06
0.00107856
6.09511e-07
0.00107886
-2.97869e-07
0.00107905
-1.9309e-07
0.00107867
3.87998e-07
0.00107751
1.16008e-06
0.00107552
1.98736e-06
0.00107272
2.79567e-06
0.00106909
3.6311e-06
0.00106471
4.3808e-06
0.00105955
5.15953e-06
0.00105362
5.92613e-06
0.00104691
6.71671e-06
0.00103932
7.58218e-06
0.00103077
8.55603e-06
0.00102109
9.67852e-06
0.0010101
1.099e-05
0.000997473
1.26259e-05
0.000982727
1.47456e-05
0.000965291
1.74363e-05
0.000943614
2.16766e-05
0.000915515
2.80991e-05
0.000871108
4.4407e-05
6.67465e-05
0.000804361
0.00128241
-0.00101174
-0.00076116
0.00169804
-0.000801703
0.00196606
-0.000491192
0.0021077
-0.000231472
0.00217535
-7.05613e-05
0.00220201
2.26704e-05
0.00220483
6.90255e-05
0.00218923
8.97851e-05
0.00215941
9.60699e-05
0.00211889
9.82623e-05
0.00207317
9.69526e-05
0.00202577
9.50703e-05
0.00197943
9.13323e-05
0.00193454
8.71351e-05
0.0018909
8.26943e-05
0.00184866
7.80321e-05
0.00180798
7.34304e-05
0.00176872
6.94897e-05
0.00173082
6.60564e-05
0.00169416
6.31959e-05
0.00165889
6.03369e-05
0.00162526
5.71606e-05
0.00159399
5.27685e-05
0.00156638
4.61065e-05
0.00154345
3.76783e-05
0.0015285
2.36653e-05
0.0015212
1.06152e-05
0.00151811
3.70125e-06
0.00151676
1.05846e-06
0.00151575
8.14669e-07
0.00151439
1.74414e-06
0.00151235
3.19895e-06
0.00150947
4.86523e-06
0.00150573
6.53709e-06
0.00150107
8.29273e-06
0.00149556
9.88831e-06
0.00148917
1.15464e-05
0.00148192
1.31805e-05
0.00147377
1.48639e-05
0.00146466
1.66979e-05
0.00145446
1.87544e-05
0.00144302
2.11136e-05
0.00143015
2.38622e-05
0.00141553
2.72425e-05
0.00139865
3.16311e-05
0.001379
3.70819e-05
0.00135499
4.56905e-05
0.00132501
5.80768e-05
0.00128256
8.68562e-05
0.000114306
0.001235
0.00137412
-0.00156294
-0.000822923
0.00185448
-0.00128206
0.00221169
-0.000848395
0.00244586
-0.000465645
0.00258827
-0.000212972
0.0026687
-5.77609e-05
0.00270721
3.05153e-05
0.00271808
7.89141e-05
0.00271298
0.000101176
0.00269672
0.00011452
0.00267131
0.000122359
0.00263666
0.00012972
0.00259415
0.000133841
0.0025456
0.000135686
0.00249362
0.000134678
0.00244055
0.000131103
0.00238748
0.000126495
0.00233456
0.000122418
0.00228216
0.000118452
0.0022307
0.000114653
0.00218072
0.00011032
0.00213274
0.000105143
0.00208776
9.77487e-05
0.00204742
8.64393e-05
0.00201314
7.19653e-05
0.00198953
4.72725e-05
0.00197659
2.35528e-05
0.00196986
1.04321e-05
0.0019661
4.82353e-06
0.00196337
3.544e-06
0.00196062
4.49048e-06
0.00195737
6.44664e-06
0.00195336
8.87823e-06
0.00194849
1.14083e-05
0.00194265
1.41336e-05
0.00193589
1.66427e-05
0.00192817
1.92651e-05
0.0019195
2.18564e-05
0.00190984
2.45257e-05
0.00189911
2.74246e-05
0.0018872
3.06643e-05
0.00187395
3.43662e-05
0.00185915
3.86566e-05
0.00184252
4.38727e-05
0.00182353
5.06175e-05
0.00180176
5.8853e-05
0.00177584
7.16092e-05
0.00174462
8.9303e-05
0.00170576
0.000125711
0.000154772
0.0016653
0.00146443
-0.00213241
-0.000894957
0.0019841
-0.00180173
0.00239728
-0.00126157
0.00267893
-0.000747303
0.00285217
-0.000386212
0.00295581
-0.000161399
0.00301998
-3.36474e-05
0.00306276
3.61349e-05
0.0030942
6.97296e-05
0.00311831
9.04057e-05
0.00313649
0.000104185
0.00314737
0.000118843
0.00314926
0.000131944
0.00313942
0.000145525
0.00311541
0.000158695
0.00307671
0.000169796
0.00302566
0.000177546
0.00296657
0.000181508
0.00290389
0.000181133
0.00284
0.000178535
0.00277616
0.000174159
0.00271346
0.000167844
0.00265356
0.000157655
0.00259873
0.000141266
0.00255096
0.000119735
0.00251669
8.15427e-05
0.00249646
4.37845e-05
0.00248474
2.21504e-05
0.00247747
1.20902e-05
0.00247218
8.83323e-06
0.00246742
9.25336e-06
0.00246244
1.14198e-05
0.00245686
1.44601e-05
0.00245052
1.77522e-05
0.00244322
2.14265e-05
0.00243501
2.48569e-05
0.00242579
2.84838e-05
0.00241556
3.20828e-05
0.00240429
3.57952e-05
0.0023919
3.98214e-05
0.00237825
4.43101e-05
0.0023632
4.94208e-05
0.00234655
5.53072e-05
0.00232803
6.2388e-05
0.00230718
7.14725e-05
0.00228366
8.23671e-05
0.00225653
9.87454e-05
0.00222514
0.000120688
0.00219001
0.000160843
0.000189972
0.00215481
0.00155973
-0.00271955
-0.000972598
0.00211947
-0.00236147
0.00259979
-0.00174189
0.00296077
-0.00110829
0.00320888
-0.000634315
0.00337305
-0.000325573
0.00347864
-0.000139236
0.00354595
-3.11729e-05
0.00358875
2.69331e-05
0.00361618
6.29708e-05
0.00363494
8.54231e-05
0.00364828
0.000105507
0.00365838
0.000121844
0.00366582
0.000138084
0.00366978
0.000154732
0.00366799
0.000171582
0.00365663
0.00018891
0.00363119
0.000206945
0.00358933
0.000222996
0.00353256
0.000235302
0.00346588
0.000240843
0.00339461
0.000239115
0.00332291
0.000229355
0.00325457
0.000209602
0.00319289
0.000181412
0.00314689
0.000127546
0.00311816
7.25158e-05
0.00310029
4.00192e-05
0.00308848
2.38988e-05
0.00307971
1.7601e-05
0.00307218
1.67919e-05
0.00306485
1.875e-05
0.00305712
2.21864e-05
0.00304879
2.60776e-05
0.0030396
3.06224e-05
0.00302952
3.49298e-05
0.00301845
3.95591e-05
0.00300635
4.41803e-05
0.00299319
4.89615e-05
0.00297886
5.41484e-05
0.00296325
5.99221e-05
0.00294619
6.6475e-05
0.00292753
7.39688e-05
0.00290703
8.28854e-05
0.00288431
9.4199e-05
0.00285919
0.000107486
0.00283122
0.000126711
0.00280023
0.000151683
0.00276863
0.000192437
0.000220023
0.00273858
0.00166121
-0.00332558
-0.00105518
0.00225742
-0.00295768
0.00279948
-0.00228394
0.00323742
-0.00154624
0.00355742
-0.000954306
0.00377487
-0.000543024
0.00391627
-0.00028064
0.00400743
-0.000122337
0.00406802
-3.36475e-05
0.00411059
2.03947e-05
0.00414316
5.28568e-05
0.00416941
7.92493e-05
0.00419168
9.95835e-05
0.00421091
0.000118852
0.00422742
0.000138216
0.00424127
0.000157735
0.0042521
0.000178078
0.00425851
0.000200536
0.00425767
0.00022383
0.00424425
0.000248726
0.00421276
0.000272333
0.00416238
0.000289498
0.00409738
0.000294355
0.0040261
0.000280882
0.00395675
0.000250755
0.00390209
0.000182208
0.00386603
0.000108569
0.00384231
6.37468e-05
0.00382585
4.03566e-05
0.00381332
3.01303e-05
0.00380262
2.74881e-05
0.00379258
2.87926e-05
0.00378238
3.23833e-05
0.00377173
3.67291e-05
0.0037603
4.20527e-05
0.00374806
4.71697e-05
0.00373484
5.27791e-05
0.0037206
5.8416e-05
0.00370529
6.42702e-05
0.00368882
7.06271e-05
0.00367104
7.76943e-05
0.00365183
8.56862e-05
0.00363105
9.4748e-05
0.00360854
0.000105398
0.00358402
0.000118719
0.00355754
0.000133967
0.00352921
0.000155043
0.00349918
0.00018171
0.0034711
0.000220518
0.000244747
0.00344638
0.0017718
-0.00395508
-0.0011423
0.00240354
-0.00358943
0.00300382
-0.00288422
0.00352148
-0.00206389
0.00392752
-0.00136034
0.00422231
-0.00083782
0.00442589
-0.000484215
0.00456458
-0.000261028
0.00465924
-0.000128307
0.00472497
-4.53403e-05
0.00477229
5.53448e-06
0.00480731
4.42278e-05
0.00483431
7.25845e-05
0.00485577
9.73923e-05
0.00487325
0.000120735
0.00488789
0.000143097
0.00490048
0.000165489
0.00491142
0.000189593
0.00492091
0.000214347
0.0049288
0.000240834
0.00493347
0.000267665
0.00493091
0.000292053
0.00491476
0.000310504
0.00488135
0.000314298
0.00483323
0.000298868
0.00478608
0.000229365
0.00475156
0.000143085
0.00472718
8.81292e-05
0.00470923
5.82992e-05
0.00469491
4.44514e-05
0.00468231
4.00884e-05
0.00467037
4.07351e-05
0.00465828
4.4476e-05
0.00464572
4.92828e-05
0.00463235
5.5422e-05
0.00461815
6.13749e-05
0.00460292
6.80081e-05
0.00458664
7.46984e-05
0.00456925
8.16562e-05
0.00455068
8.92029e-05
0.0045308
9.75652e-05
0.00450952
0.000106967
0.00448677
0.000117506
0.00446246
0.000129701
0.00443649
0.000144694
0.00440916
0.000161291
0.00438105
0.00018316
0.00435272
0.00021004
0.00432834
0.000244889
0.000263925
0.00430917
0.00189313
-0.00461398
-0.00123423
0.00256138
-0.00425768
0.00321582
-0.00353866
0.00381048
-0.00265855
0.00430763
-0.00185749
0.00469037
-0.00122056
0.00496594
-0.000759788
0.0051583
-0.000453383
0.00529046
-0.000260469
0.00538184
-0.000136717
0.00544703
-5.96549e-05
0.00549535
-4.09581e-06
0.00553296
3.4978e-05
0.0055634
6.69502e-05
0.00558876
9.53681e-05
0.00561047
0.000121394
0.0056295
0.000146457
0.0056463
0.000172794
0.00566146
0.000199181
0.0056757
0.000226596
0.0056895
0.000253861
0.00570372
0.000277832
0.00571923
0.000294996
0.0057347
0.000298826
0.00574484
0.000288728
0.00574737
0.000226835
0.00574541
0.000145048
0.00574071
9.28291e-05
0.00573446
6.45453e-05
0.00572723
5.16882e-05
0.00571902
4.82909e-05
0.00570985
4.99075e-05
0.0056995
5.48295e-05
0.00568794
6.08397e-05
0.00567495
6.84097e-05
0.00566066
7.56699e-05
0.00564496
8.37076e-05
0.00562791
9.17433e-05
0.00560954
0.000100023
0.00558984
0.000108911
0.00556875
0.000118653
0.00554625
0.00012947
0.00552236
0.000141389
0.00549718
0.000154883
0.00547075
0.000171126
0.0054437
0.000188335
0.00541685
0.000210016
0.00539136
0.000235524
0.0053712
0.000265055
0.000277052
0.00535807
0.00202675
-0.00530964
-0.00133109
0.0027348
-0.00496573
0.00344193
-0.00424579
0.00410962
-0.00332624
0.00469903
-0.0024469
0.00518067
-0.0017022
0.00554591
-0.00112503
0.0058121
-0.000719572
0.00600113
-0.000449499
0.00613501
-0.000270592
0.00623128
-0.000155932
0.00630211
-7.4926e-05
0.00635593
-1.88333e-05
0.00639796
2.49182e-05
0.00643158
6.17458e-05
0.00645913
9.38442e-05
0.00648228
0.00012331
0.00650209
0.000152985
0.00651964
0.000181629
0.00653588
0.000210358
0.00655193
0.000237809
0.0065694
0.000260361
0.00659043
0.000273965
0.00661789
0.000271369
0.00665468
0.00025194
0.00669962
0.000181887
0.00674579
9.88795e-05
0.00678736
5.12617e-05
0.00682127
3.06394e-05
0.00684709
2.58632e-05
0.00686507
3.03096e-05
0.0068761
3.88769e-05
0.00688113
4.98062e-05
0.00688122
6.07496e-05
0.00687704
7.25825e-05
0.00686943
8.32821e-05
0.00685881
9.4327e-05
0.00684565
0.000104908
0.00683027
0.0001154
0.00681291
0.000126271
0.00679374
0.000137827
0.00677291
0.000150296
0.00675066
0.000163638
0.00672729
0.000178253
0.00670308
0.000195337
0.00667896
0.000212455
0.00665576
0.000233219
0.00663541
0.00025587
0.00662085
0.000279615
0.000283271
0.00661463
0.00217449
-0.00605101
-0.00143313
0.00292819
-0.00571943
0.00368797
-0.00500558
0.00442486
-0.00406312
0.00510473
-0.00312677
0.00569041
-0.00228788
0.0061591
-0.00159372
0.00651617
-0.00107664
0.00677747
-0.000710803
0.00696564
-0.000458767
0.00710119
-0.000291475
0.00720012
-0.000173855
0.00727411
-9.28256e-05
0.00733104
-3.20132e-05
0.0073761
1.66833e-05
0.00741282
5.71263e-05
0.00744365
9.24786e-05
0.00747018
0.000126459
0.00749369
0.000158119
0.00751543
0.000188614
0.00753662
0.000216624
0.0075591
0.000237878
0.00758545
0.000247616
0.00761927
0.000237542
0.00766446
0.000206754
0.00772128
0.000125062
0.00778371
3.64533e-05
0.00784654
-1.15693e-05
0.00790601
-2.88327e-05
0.00795989
-2.80114e-05
0.00800687
-1.66782e-05
0.00804676
-1.00873e-06
0.00807953
1.70309e-05
0.00810557
3.47122e-05
0.00812517
5.29805e-05
0.008139
6.94554e-05
0.00814754
8.57825e-05
0.00815142
0.000101032
0.00815119
0.000115633
0.00814735
0.000130105
0.00814038
0.000144799
0.00813076
0.000159918
0.00811903
0.000175369
0.00810582
0.000191458
0.00809179
0.000209369
0.00807804
0.000226208
0.00806577
0.000245489
0.0080566
0.000265033
0.00805262
0.000283598
0.000282415
0.00805348
0.00233828
-0.00684868
-0.00154061
0.00314582
-0.00652697
0.00396137
-0.00582113
0.00476519
-0.00486695
0.00553096
-0.00389254
0.00622215
-0.00297907
0.00680407
-0.00217564
0.00726916
-0.00154173
0.00762282
-0.00106446
0.00788468
-0.000720626
0.00807655
-0.000483347
0.00821775
-0.000315055
0.00832327
-0.000198341
0.00840377
-0.000112513
0.00846664
-4.61911e-05
0.008517
6.76892e-06
0.00855846
5.10221e-05
0.00859336
9.15548e-05
0.00862368
0.000127802
0.00865111
0.000161179
0.00867732
0.000190413
0.0087045
0.000210707
0.00873564
0.000216469
0.00877485
0.000198332
0.00882658
0.000155023
0.00889139
6.02555e-05
0.00896253
-3.46896e-05
0.00903437
-8.3408e-05
0.00910282
-9.72832e-05
0.00916591
-9.1095e-05
0.00922252
-7.32905e-05
0.00927241
-5.08954e-05
0.00931552
-2.60883e-05
0.00935236
-2.12036e-06
0.00938318
2.21586e-05
0.00940858
4.40584e-05
0.00942896
6.53971e-05
0.00944487
8.51203e-05
0.00945682
0.00010369
0.00946529
0.000121633
0.00947078
0.000139311
0.00947387
0.000156822
0.0094752
0.000174039
0.00947555
0.000191111
0.00947573
0.000209188
0.00947675
0.000225183
0.00947999
0.000242257
0.00948626
0.000258761
0.00949742
0.000272439
0.000269284
0.00951055
0.00252016
-0.00771499
-0.00165384
0.00339188
-0.00739868
0.00426956
-0.00669881
0.00514089
-0.00573829
0.00598917
-0.00474081
0.00678304
-0.00377294
0.00748181
-0.00287442
0.00806817
-0.00212808
0.00853354
-0.00152984
0.00888964
-0.00107673
0.00915612
-0.000749827
0.00935428
-0.000513213
0.00950236
-0.000346422
0.0096145
-0.00022466
0.00970104
-0.000132724
0.00976941
-6.16036e-05
0.00982494
-4.50665e-06
0.00987124
4.52546e-05
0.00991109
8.79483e-05
0.00994684
0.000125431
0.00998061
0.000156647
0.010015
0.000176327
0.0100534
0.000178039
0.0101005
0.00015129
0.0101612
9.42605e-05
0.0102364
-1.48895e-05
0.0103183
-0.000116615
0.0104008
-0.000165949
0.0104795
-0.000175931
0.010552
-0.000163622
0.010617
-0.000138333
0.0106744
-0.000108276
0.0107241
-7.58069e-05
0.0107667
-4.47194e-05
0.0108026
-1.37213e-05
0.0108325
1.41614e-05
0.010857
4.0961e-05
0.0108767
6.54085e-05
0.0108922
8.81872e-05
0.0109043
0.00010952
0.0109136
0.000130036
0.0109208
0.000149595
0.0109268
0.000168046
0.0109325
0.00018539
0.0109389
0.000202795
0.010947
0.000217087
0.0109578
0.000231481
0.0109718
0.000244759
0.0109905
0.000253685
0.000247914
0.0110119
0.00272221
-0.00866413
-0.00177307
0.00367069
-0.00834716
0.00462016
-0.00764828
0.00556369
-0.00668182
0.00649285
-0.00566996
0.00738477
-0.00466486
0.00820026
-0.0036899
0.00891497
-0.00284279
0.00950833
-0.0021232
0.00998017
-0.00154857
0.0103435
-0.00111318
0.0106189
-0.000788548
0.0108266
-0.000554162
0.0109843
-0.000382356
0.0111056
-0.000254022
0.0112007
-0.000156707
0.0112771
-8.09125e-05
0.0113401
-1.76965e-05
0.0113935
3.44702e-05
0.0114407
7.8223e-05
0.0114845
0.000112867
0.0115281
0.000132795
0.0115753
0.000130745
0.0116316
9.50409e-05
0.0117027
2.31443e-05
0.0117893
-0.000101527
0.011883
-0.000210289
0.0119772
-0.00026009
0.0120668
-0.000265579
0.0121494
-0.000246245
0.0122236
-0.000212459
0.012289
-0.000173723
0.0123458
-0.000132575
0.0123945
-9.3405e-05
0.0124355
-5.48091e-05
0.0124699
-2.01854e-05
0.0124982
1.26831e-05
0.0125212
4.24295e-05
0.0125397
6.96178e-05
0.0125546
9.46252e-05
0.0125666
0.00011802
0.0125768
0.000139477
0.0125858
0.000159044
0.0125948
0.000176314
0.0126047
0.000192906
0.0126166
0.000205202
0.0126311
0.000216934
0.0126486
0.000227349
0.0126696
0.000232639
0.000223961
0.0126936
0.00294666
-0.00971229
-0.0018985
0.00398691
-0.00938741
0.00502107
-0.00868244
0.00604545
-0.00770619
0.00705787
-0.00668238
0.00804482
-0.00565182
0.0089729
-0.00461799
0.00981752
-0.00368741
0.0105492
-0.00285489
0.0111556
-0.002155
0.011639
-0.00159656
0.0120147
-0.00116425
0.0123026
-0.000842062
0.0125228
-0.000602517
0.0126922
-0.000423396
0.0128242
-0.000288801
0.0129294
-0.000186026
0.013015
-0.000103334
0.0130869
-3.74102e-05
0.0131495
1.56128e-05
0.0132067
5.56911e-05
0.0132623
7.71073e-05
0.0133213
7.18425e-05
0.0133893
2.70055e-05
0.0134732
-6.07441e-05
0.0135736
-0.000201948
0.0136813
-0.000317987
0.0137892
-0.000368003
0.0138919
-0.000368261
0.0139865
-0.000340886
0.0140715
-0.00029744
0.0141466
-0.000248823
0.0142118
-0.00019781
0.0142679
-0.000149502
0.0143154
-0.000102227
0.0143552
-6.0078e-05
0.0143881
-2.02157e-05
0.0144155
1.51241e-05
0.0144375
4.75662e-05
0.014456
7.61558e-05
0.014471
0.000102951
0.0144844
0.000126104
0.0144965
0.000146996
0.0145086
0.000164156
0.0145214
0.000180121
0.0145358
0.000190786
0.0145524
0.000200325
0.0145714
0.000208332
0.0145929
0.000211148
0.000200483
0.0146164
0.00319612
-0.0108781
-0.00203028
0.00434567
-0.010537
0.00548027
-0.00981704
0.006598
-0.00882392
0.0077009
-0.00778528
0.00878324
-0.00673416
0.00982039
-0.00565514
0.010792
-0.004659
0.0116652
-0.00372809
0.0124192
-0.002909
0.0130436
-0.00222102
0.0135445
-0.00166514
0.0139371
-0.00123468
0.0142417
-0.000907096
0.0144777
-0.000659402
0.014662
-0.000473033
0.014808
-0.000332035
0.0149261
-0.000221432
0.0150242
-0.000135554
0.0151086
-6.87914e-05
0.0151845
-2.01681e-05
0.0152568
4.79513e-06
0.0153312
-2.53137e-06
0.0154144
-5.62147e-05
0.0155141
-0.000160439
0.015631
-0.000318891
0.015755
-0.000441955
0.0158786
-0.000491605
0.015996
-0.000485635
0.0161041
-0.000449017
0.0162012
-0.000394519
0.016287
-0.000334679
0.0163617
-0.000272433
0.0164259
-0.000213795
0.0164804
-0.000156691
0.0165264
-0.000106062
0.0165646
-5.84399e-05
0.0165964
-1.66786e-05
0.0166228
2.12206e-05
0.0166447
5.41994e-05
0.0166635
8.41653e-05
0.0166798
0.000109826
0.016695
0.00013178
0.0167097
0.000149457
0.0167248
0.000165045
0.0167408
0.000174754
0.0167579
0.000183189
0.0167767
0.000189574
0.0167963
0.000191559
0.000180074
0.0168167
0.00347344
-0.012183
-0.00216853
0.00475254
-0.0118161
0.0060063
-0.0110708
0.00723358
-0.0100512
0.00843888
-0.00899058
0.00962222
-0.0079175
0.0107675
-0.0068004
0.0118618
-0.00575335
0.0128752
-0.00474151
0.0137821
-0.00381587
0.014563
-0.00300185
0.015212
-0.00231421
0.0157356
-0.00175828
0.0161504
-0.00132188
0.0164761
-0.000985072
0.0167319
-0.000728846
0.0169346
-0.000534778
0.0170979
-0.000384686
0.0172324
-0.000270107
0.0173468
-0.000183165
0.017448
-0.000121401
0.0175426
-8.97619e-05
0.0176373
-9.71952e-05
0.0177399
-0.000158828
0.0178592
-0.000279735
0.0179959
-0.000455646
0.018139
-0.000584996
0.0182807
-0.000633378
0.0184151
-0.000619983
0.0185388
-0.000572682
0.0186498
-0.00050559
0.0187481
-0.000432955
0.0188337
-0.000357997
0.0189075
-0.000287606
0.0189702
-0.000219454
0.0190233
-0.000159143
0.0190679
-0.000102971
0.0191049
-5.37379e-05
0.0191361
-9.97577e-06
0.0191621
2.81794e-05
0.0191846
6.16749e-05
0.0192041
9.03283e-05
0.019222
0.000113907
0.0192387
0.000132718
0.0192551
0.000148702
0.0192713
0.000158489
0.0192877
0.000166825
0.019304
0.000173303
0.0193201
0.000175438
0.000164259
0.0193359
0.00378173
-0.0136515
-0.00231328
0.00521369
-0.013248
0.00660845
-0.0124655
0.00796506
-0.0114078
0.00928921
-0.0103147
0.0105847
-0.00921299
0.0118424
-0.00805812
0.0130577
-0.00696862
0.0142071
-0.00589095
0.0152667
-0.00487543
0.0162113
-0.00394644
0.0170258
-0.00312871
0.017705
-0.00243751
0.0182577
-0.00187459
0.0187003
-0.00142764
0.0190523
-0.00108082
0.0193328
-0.000815345
0.0195588
-0.000610671
0.0197443
-0.00045554
0.0199005
-0.000339416
0.020037
-0.000257902
0.0201621
-0.000214888
0.0202842
-0.000219276
0.0204124
-0.000287036
0.0205568
-0.00042411
0.020718
-0.00061682
0.0208839
-0.000750872
0.021047
-0.000796481
0.021201
-0.000774047
0.0213426
-0.000714248
0.0214698
-0.000632757
0.0215822
-0.000545453
0.0216804
-0.000456104
0.021765
-0.000372284
0.0218373
-0.000291702
0.0218984
-0.000220303
0.02195
-0.000154497
0.0219931
-9.68258e-05
0.0220293
-4.6225e-05
0.0220597
-2.25612e-06
0.0220857
3.5732e-05
0.022108
6.80173e-05
0.0221277
9.42294e-05
0.0221454
0.000115032
0.0221614
0.000132623
0.0221763
0.000143632
0.0221899
0.000153228
0.0222023
0.000160917
0.0222133
0.000164391
0.00015468
0.0222229
0.0041245
-0.0153115
-0.00246445
0.00573601
-0.0148595
0.00729699
-0.0140265
0.00880633
-0.0129172
0.0102701
-0.0117785
0.0116942
-0.0106372
0.0130749
-0.00943882
0.0144143
-0.00830803
0.0156976
-0.00717418
0.0169061
-0.00608397
0.0180152
-0.00505553
0.0190042
-0.00411775
0.019858
-0.00329125
0.0205747
-0.00259133
0.0211634
-0.00201629
0.0216403
-0.00155771
0.0220248
-0.0011999
0.0223362
-0.000922087
0.0225916
-0.000710957
0.0228057
-0.000553452
0.0229906
-0.000442869
0.0231574
-0.000381657
0.0233163
-0.00037814
0.0234782
-0.000448908
0.0236546
-0.000600557
0.0238459
-0.000808166
0.0240392
-0.000944096
0.0242273
-0.000984628
0.0244042
-0.000950973
0.0245664
-0.00087645
0.0247121
-0.000778396
0.0248409
-0.00067426
0.0249533
-0.000568552
0.0250505
-0.000469401
0.0251335
-0.000374706
0.0252039
-0.000290706
0.0252632
-0.000213839
0.0253129
-0.000146547
0.0253546
-8.78836e-05
0.0253894
-3.70892e-05
0.0254186
6.54251e-06
0.0254431
4.35158e-05
0.0254638
7.35633e-05
0.0254813
9.75401e-05
0.0254959
0.000118027
0.025508
0.000131452
0.0255178
0.000143513
0.0255252
0.000153435
0.0255304
0.000159235
0.000151752
0.0255333
0.0045056
-0.0171953
-0.00262187
0.00632725
-0.0166812
0.00808345
-0.0157827
0.00977273
-0.0146064
0.011401
-0.0134067
0.0129754
-0.0122116
0.0144957
-0.0109591
0.0159692
-0.0097815
0.0173887
-0.00859376
0.0187438
-0.00743904
0.0200144
-0.00632606
0.0211796
-0.00528298
0.0222184
-0.00433008
0.0231194
-0.00349234
0.0238816
-0.00277841
0.024514
-0.00219013
0.0250329
-0.00171887
0.0254578
-0.001347
0.025808
-0.0010611
0.026101
-0.000846499
0.0263525
-0.000694339
0.0265762
-0.000605354
0.0267849
-0.000586873
0.0269917
-0.000655689
0.0272101
-0.000818892
0.0274395
-0.00103765
0.0276663
-0.0011709
0.0278845
-0.00120283
0.0280886
-0.00115499
0.028275
-0.00106287
0.0284422
-0.000945621
0.02859
-0.000822075
0.0287191
-0.000697666
0.0288307
-0.000580972
0.0289261
-0.000470152
0.0290072
-0.000371716
0.0290754
-0.000282087
0.0291325
-0.000203624
0.02918
-0.000135425
0.0292193
-7.63767e-05
0.0292516
-2.57044e-05
0.0292777
1.73873e-05
0.0292986
5.26573e-05
0.0293149
8.12071e-05
0.029327
0.000105928
0.0293355
0.000123021
0.0293403
0.000138685
0.0293419
0.000151815
0.0293404
0.000160762
0.000156143
0.029336
0.00492938
-0.0193394
-0.0027852
0.00699617
-0.018748
0.00898085
-0.0177674
0.0108815
-0.016507
0.0127035
-0.0152287
0.0144546
-0.0139626
0.0161369
-0.0126415
0.0177612
-0.0114058
0.0193267
-0.0101592
0.0208305
-0.00894286
0.0222602
-0.00775576
0.0235993
-0.00662206
0.0248257
-0.00555656
0.0259227
-0.0045893
0.0268796
-0.00373538
0.0276962
-0.00300666
0.0283816
-0.00240429
0.0289522
-0.00191763
0.0294272
-0.0015361
0.0298263
-0.00124556
0.0301678
-0.00103583
0.0304687
-0.000906295
0.0307448
-0.000862897
0.0310115
-0.000922478
0.0312848
-0.00109213
0.031563
-0.00131582
0.0318313
-0.00143925
0.0320859
-0.00145745
0.0323221
-0.00139117
0.0325371
-0.00127787
0.0327295
-0.00113798
0.0328994
-0.000992024
0.0330477
-0.00084597
0.0331759
-0.000709207
0.0332855
-0.000579741
0.0333786
-0.000464734
0.0334567
-0.000360198
0.0335217
-0.000268692
0.0335754
-0.000189078
0.0336191
-0.000120065
0.033654
-6.06351e-05
0.0336812
-9.83478e-06
0.0337017
3.22055e-05
0.0337162
6.67104e-05
0.0337251
9.69807e-05
0.0337293
0.000118807
0.033729
0.000139033
0.0337247
0.00015611
0.0337167
0.000168762
0.000167413
0.0337054
0.0054007
-0.0217862
-0.00295392
0.00775276
-0.0211
0.010004
-0.0200187
0.012152
-0.018655
0.0142016
-0.0172784
0.0161607
-0.0159217
0.0180331
-0.0145139
0.0198314
-0.0132041
0.0215598
-0.0118877
0.0232219
-0.0106049
0.024813
-0.00934687
0.0263239
-0.00813297
0.0277365
-0.00696913
0.0290327
-0.00588555
0.0301971
-0.00489977
0.03122
-0.00402958
0.0321016
-0.00328583
0.0328515
-0.00266752
0.0334855
-0.00217012
0.034023
-0.00178312
0.0344842
-0.00149696
0.0348886
-0.00131077
0.0352551
-0.00122931
0.035602
-0.00126943
0.0359478
-0.00143792
0.0362889
-0.00165695
0.0366096
-0.00175996
0.0369092
-0.001757
0.0371844
-0.0016664
0.0374337
-0.00152711
0.037656
-0.00136028
0.0378521
-0.00118815
0.0380231
-0.00101694
0.0381708
-0.000856985
0.038297
-0.000705934
0.038404
-0.000571699
0.0384936
-0.000449761
0.0385678
-0.000342897
0.0386284
-0.000249707
0.038677
-0.000168689
0.038715
-9.85972e-05
0.0387434
-3.83011e-05
0.0387635
1.21319e-05
0.0387762
5.40449e-05
0.038782
9.11494e-05
0.038782
0.000118782
0.0387766
0.000144484
0.0387665
0.000166193
0.0387522
0.00018306
0.000185378
0.0387342
0.0059251
-0.024584
-0.00312735
0.00860844
-0.0237834
0.01117
-0.0225802
0.0136067
-0.0210917
0.015923
-0.0195946
0.0181264
-0.0181251
0.0202221
-0.0166096
0.022224
-0.015206
0.0241397
-0.0138033
0.0259774
-0.0124427
0.0277397
-0.0111091
0.029425
-0.00981829
0.0310222
-0.00856635
0.0325172
-0.00738047
0.0338931
-0.00627568
0.0351356
-0.00527211
0.0362362
-0.00438646
0.037196
-0.00362731
0.0380241
-0.00299816
0.0387364
-0.00249544
0.0393522
-0.0021128
0.0398928
-0.00185134
0.040379
-0.0017155
0.0408324
-0.00172281
0.0412739
-0.00187944
0.0416969
-0.00207999
0.0420843
-0.00214734
0.04244
-0.00211269
0.0427632
-0.00198957
0.043054
-0.00181792
0.0433122
-0.00161852
0.0435395
-0.00141549
0.0437374
-0.00121477
0.0439082
-0.00102778
0.0440538
-0.000851563
0.044177
-0.000694879
0.0442797
-0.000552534
0.0443644
-0.000427557
0.0444329
-0.000318248
0.0444872
-0.000222893
0.0445286
-0.000140018
0.0445586
-6.8323e-05
0.0445786
-7.83747e-06
0.0445897
4.29041e-05
0.0445928
8.80626e-05
0.0445891
0.000122454
0.0445792
0.000154421
0.044564
0.000181335
0.0445442
0.000202857
0.000209163
0.0445205
0.00650885
-0.0277883
-0.00330457
0.00957632
-0.0268508
0.0124983
-0.0255023
0.0152713
-0.0238647
0.0178989
-0.0222222
0.0203887
-0.020615
0.0227468
-0.0189677
0.0249878
-0.017447
0.0271217
-0.0159372
0.0291606
-0.0144816
0.0311123
-0.0130608
0.0329824
-0.0116883
0.0347676
-0.0103515
0.0364604
-0.00907332
0.038048
-0.0078633
0.039515
-0.00673909
0.0408486
-0.00572004
0.0420419
-0.0048206
0.0430955
-0.00405182
0.0440191
-0.00341904
0.0448281
-0.00292178
0.0455427
-0.00256594
0.0461845
-0.00235731
0.0467774
-0.00231563
0.0473445
-0.00244656
0.0478742
-0.00260973
0.0483472
-0.00262036
0.048774
-0.00253943
0.0491569
-0.00237251
0.049499
-0.00216001
0.0498012
-0.00192067
0.0500664
-0.00168076
0.0502967
-0.00144501
0.0504953
-0.00122636
0.0506643
-0.00102057
0.050807
-0.000837643
0.0509258
-0.000671295
0.0510233
-0.00052507
0.0511018
-0.000396712
0.0511633
-0.000284466
0.0512098
-0.000186461
0.0512428
-0.000101345
0.051264
-2.90013e-05
0.0512748
3.20856e-05
0.0512762
8.66253e-05
0.0512698
0.000128822
0.0512563
0.000167963
0.0512369
0.000200761
0.0512122
0.000227493
0.00023823
0.0511832
0.00715912
-0.031463
-0.00348437
0.0106715
-0.0303633
0.0140117
-0.0288424
0.0171754
-0.0270284
0.0201658
-0.0252126
0.0229903
-0.0234395
0.0256558
-0.0216332
0.0281776
-0.0199688
0.0305676
-0.0183272
0.0328405
-0.0167544
0.0350084
-0.0152287
0.0370824
-0.0137624
0.0390669
-0.012336
0.0409621
-0.0109685
0.0427617
-0.00966289
0.0444544
-0.00843178
0.0460266
-0.00729231
0.0474677
-0.00626166
0.0487711
-0.00535519
0.0499384
-0.0045864
0.0509786
-0.003962
0.0519081
-0.0034954
0.0527465
-0.00319576
0.0535184
-0.00308747
0.0542481
-0.00317629
0.0549161
-0.00327769
0.0554993
-0.00320355
0.0560165
-0.00305663
0.0564747
-0.00283078
0.0568808
-0.00256607
0.0572373
-0.00227718
0.0575492
-0.00199267
0.0578191
-0.00171497
0.0580516
-0.00145883
0.0582491
-0.00121809
0.0584158
-0.00100432
0.0585542
-0.000809684
0.0586676
-0.000638504
0.0587586
-0.000487695
0.0588298
-0.000355624
0.0588832
-0.000239845
0.0589209
-0.000139063
0.0589448
-5.28929e-05
0.0589567
2.01615e-05
0.0589578
8.551e-05
0.05895
0.000136645
0.058934
0.000183951
0.0589113
0.000223425
0.0588828
0.000256027
0.000271745
0.0588493
0.00788425
-0.0356818
-0.00366547
0.0119117
-0.0343907
0.0157365
-0.0326672
0.0193537
-0.0306456
0.022766
-0.0286249
0.0259807
-0.0266541
0.0290055
-0.0246581
0.0318564
-0.0228196
0.0345469
-0.0210177
0.0370938
-0.0193014
0.0395127
-0.0176476
0.0418192
-0.0160689
0.0440237
-0.0145405
0.0461338
-0.0130786
0.0481512
-0.0116803
0.0500712
-0.0103518
0.0518845
-0.00910557
0.0535799
-0.00795706
0.055148
-0.00692332
0.0565838
-0.00602218
0.0578886
-0.00526684
0.0590726
-0.00467942
0.060151
-0.00427415
0.0611463
-0.00408275
0.0620823
-0.00411228
0.0629269
-0.00412226
0.0636511
-0.00392781
0.0642836
-0.00368908
0.0648373
-0.00338456
0.0653239
-0.00305258
0.0657485
-0.00270181
0.0661185
-0.00236267
0.0664379
-0.00203437
0.0667125
-0.00173341
0.0669456
-0.00145122
0.0671422
-0.00120097
0.0673056
-0.000973008
0.0674395
-0.00077248
0.0675472
-0.000595306
0.0676315
-0.000440004
0.0676951
-0.000303431
0.0677404
-0.000184368
0.0677696
-8.20803e-05
0.0677849
4.90598e-06
0.0677876
8.2782e-05
0.0677799
0.000144308
0.0677628
0.000201042
0.067738
0.000248258
0.0677064
0.000287642
0.000309126
0.067669
0.00869397
-0.0405295
-0.00384624
0.0133173
-0.039014
0.0177033
-0.0370532
0.0218464
-0.0347887
0.0257486
-0.0325272
0.0294173
-0.0303229
0.0328613
-0.028102
0.0360969
-0.0260553
0.0391396
-0.0240604
0.042008
-0.0221698
0.0447205
-0.0203601
0.0472964
-0.0186447
0.0497511
-0.0169953
0.0520988
-0.0154263
0.0543485
-0.0139299
0.0565034
-0.0125067
0.0585609
-0.0111631
0.0605146
-0.00991076
0.0623553
-0.00876398
0.0640749
-0.00774181
0.0656697
-0.00686161
0.0671426
-0.00615233
0.0685024
-0.00563398
0.0697671
-0.00534747
0.0709575
-0.0053027
0.0720232
-0.00518791
0.0729257
-0.00483032
0.073704
-0.00446735
0.0743787
-0.00405924
0.0749666
-0.00364054
0.075477
-0.00321221
0.0759199
-0.00280557
0.0763014
-0.00241582
0.0766288
-0.00206082
0.0769067
-0.00172918
0.0771413
-0.0014355
0.0773364
-0.00116811
0.0774968
-0.000932898
0.0776262
-0.000724674
0.0777282
-0.000542037
0.0778058
-0.00038108
0.0778621
-0.0002406
0.0778995
-0.000119464
0.0779205
-1.61755e-05
0.077927