/*--------------------------------*- C++ -*----------------------------------*\
  =========                 |
  \\      /  F ield         | OpenFOAM: The Open Source CFD Toolbox
   \\    /   O peration     | Website:  https://openfoam.org
    \\  /    A nd           | Version:  10
     \\/     M anipulation  |
\*---------------------------------------------------------------------------*/
FoamFile
{
    format      ascii;
    class       volVectorField;
    location    "291";
    object      U;
}
// * * * * * * * * * * * * * * * * * * * * * * * * * * * * * * * * * * * * * //

dimensions      [0 1 -1 0 0 0 0];

internalField   nonuniform List<vector> 
10560
(
(1.7677 14.0028 -7.51168e-16)
(5.60741 20.8344 1.1313e-15)
(10.4882 24.4714 -3.05325e-17)
(15.1636 25.2451 1.84065e-15)
(18.799 24.1586 -5.46375e-17)
(21.7877 21.9257 5.2916e-17)
(24.0936 19.1474 0)
(25.6851 16.3594 3.41816e-15)
(26.6618 13.8459 -5.28397e-17)
(27.1349 11.6981 -1.026e-14)
(27.2193 9.88879 -6.75189e-15)
(27.0178 8.35094 -6.59656e-15)
(26.6177 7.02253 0)
(26.0892 5.86129 6.54164e-15)
(25.4934 4.84705 -6.42163e-15)
(24.8709 3.9503 0)
(24.2444 3.14724 -9.53876e-17)
(23.6202 2.41992 9.23441e-17)
(22.9954 1.75614 5.7014e-15)
(22.3636 1.14853 0)
(21.7195 0.59395 0)
(21.0611 0.0931187 -3.92274e-17)
(20.3901 -0.350278 2.43253e-15)
(19.7196 -0.732241 -9.09008e-15)
(19.0666 -1.05209 8.64381e-15)
(18.4796 -1.30587 -3.43633e-17)
(18.0086 -1.49652 -9.44499e-15)
(17.639 -1.64344 -1.02123e-14)
(17.3325 -1.76469 4.24207e-17)
(17.0634 -1.86825 0)
(16.8177 -1.95788 0)
(16.5883 -2.03572 -5.07066e-17)
(16.3707 -2.10307 6.90355e-15)
(16.1627 -2.16098 -2.81875e-17)
(15.962 -2.21044 2.95949e-17)
(15.7672 -2.25216 0)
(15.5772 -2.28691 -4.15279e-15)
(15.3902 -2.31523 4.33471e-15)
(15.2048 -2.33755 4.55178e-15)
(15.0192 -2.35419 -4.71595e-15)
(14.8309 -2.36532 -2.45805e-15)
(14.6371 -2.37091 5.03834e-15)
(14.4348 -2.37077 2.64077e-15)
(14.219 -2.36448 0)
(13.9858 -2.35138 1.4147e-15)
(13.7205 -2.32908 2.90901e-15)
(13.4307 -2.29759 -3.02626e-15)
(13.0249 -2.24384 6.12909e-18)
(12.6603 -2.17965 -6.40677e-18)
(11.5668 -1.94064 8.75305e-16)
(4.51564 13.359 5.17264e-16)
(9.58744 18.9783 -8.78368e-16)
(16.3023 21.8853 0)
(22.7823 22.2017 8.05332e-19)
(28.0191 20.8966 -3.16441e-15)
(31.443 19.0088 9.37149e-17)
(33.3023 17.1111 -1.77378e-16)
(34.1442 15.3294 2.67837e-20)
(34.3584 13.6491 2.73142e-15)
(34.1695 12.0538 -4.67079e-19)
(33.7374 10.5605 4.95674e-15)
(33.1752 9.17789 -4.8179e-15)
(32.5508 7.90977 0)
(31.8945 6.75014 0)
(31.2143 5.68006 4.39966e-15)
(30.5133 4.69024 0)
(29.7954 3.7751 0)
(29.0607 2.92891 0)
(28.3068 2.14699 -3.58622e-15)
(27.5307 1.42609 3.37337e-15)
(26.7313 0.765505 0)
(25.9094 0.167371 0)
(25.0686 -0.363839 -1.3818e-15)
(24.2247 -0.824121 2.53879e-15)
(23.3979 -1.21301 -9.58609e-15)
(22.6473 -1.5254 0)
(22.0376 -1.76369 0)
(21.5558 -1.94898 0)
(21.1568 -2.10118 -5.99806e-15)
(20.8097 -2.23013 -6.47666e-15)
(20.498 -2.3408 0)
(20.2118 -2.43637 7.35313e-15)
(19.9446 -2.51885 3.05581e-17)
(19.6928 -2.58971 4.12206e-15)
(19.453 -2.65024 0)
(19.2231 -2.70134 -4.64933e-15)
(19.0015 -2.74396 -1.91437e-17)
(18.7861 -2.7787 -2.55782e-15)
(18.575 -2.806 0)
(18.3663 -2.8262 2.8578e-15)
(18.1575 -2.83935 1.45905e-15)
(17.9454 -2.84527 -1.54632e-15)
(17.7274 -2.84352 -3.22168e-15)
(17.4987 -2.83335 1.67593e-15)
(17.2557 -2.81321 0)
(16.9852 -2.77995 -9.03199e-16)
(16.6943 -2.72978 9.28293e-16)
(16.3082 -2.65107 9.77581e-16)
(15.9563 -2.51265 -4.99223e-16)
(15.1052 -2.26833 -5.23558e-16)
(6.24206 12.4256 2.41221e-17)
(10.1407 17.6701 -2.18243e-17)
(15.214 21.0422 1.35872e-15)
(20.3793 22.465 1.36766e-15)
(24.7874 22.4178 8.45816e-17)
(28.269 21.443 2.61929e-15)
(30.9887 19.9144 -2.5214e-15)
(33.0686 18.0902 -7.83493e-17)
(34.5909 16.1932 -2.36519e-15)
(35.6289 14.3385 4.61022e-15)
(36.2395 12.5824 7.10127e-21)
(36.4778 10.9347 4.48271e-15)
(36.3964 9.40026 6.76108e-17)
(36.0549 7.98119 0)
(35.5183 6.67784 0)
(34.8487 5.49023 -3.75377e-15)
(34.0907 4.40949 3.4837e-15)
(33.266 3.42048 3.42091e-15)
(32.3879 2.51163 -4.83583e-17)
(31.4674 1.67704 -2.91921e-15)
(30.5121 0.915154 8.30942e-17)
(29.5274 0.227834 -3.83138e-17)
(28.5201 -0.380321 -1.12854e-15)
(27.5088 -0.905552 0)
(26.5172 -1.34765 -3.2601e-21)
(25.6153 -1.70169 -2.95554e-17)
(24.8806 -1.97095 -5.13495e-21)
(24.3003 -2.17919 6.74764e-17)
(23.8229 -2.34936 2.66723e-21)
(23.4128 -2.49298 9.76164e-15)
(23.0487 -2.61629 -5.15685e-15)
(22.718 -2.72284 -5.6178e-15)
(22.4131 -2.81483 -2.95905e-15)
(22.1286 -2.89399 -3.13777e-15)
(21.8604 -2.96174 3.31704e-15)
(21.6055 -3.01909 3.50247e-15)
(21.3617 -3.06705 2.88134e-17)
(21.1266 -3.10627 -1.96856e-15)
(20.8981 -3.1372 -2.04917e-15)
(20.6741 -3.16018 -4.22348e-15)
(20.4519 -3.17521 -1.12886e-15)
(20.2286 -3.18203 1.81002e-17)
(20.0015 -3.18004 2.41054e-15)
(19.7662 -3.16825 -1.27173e-15)
(19.5194 -3.14458 -6.58753e-16)
(19.2499 -3.10552 2.09991e-17)
(18.965 -3.04484 -1.626e-17)
(18.603 -2.95064 5.59314e-18)
(18.2879 -2.78356 3.67228e-16)
(17.6067 -2.51599 3.79278e-16)
(7.93745 11.5403 0)
(11.1368 16.1594 5.29687e-16)
(15.5355 19.4248 -1.02812e-15)
(20.3785 20.9808 -2.40882e-15)
(24.9269 21.0014 2.39001e-15)
(28.7521 19.9806 -2.42478e-15)
(31.7283 18.4568 2.41404e-15)
(33.9266 16.7952 0)
(35.5168 15.1681 0)
(36.6586 13.6378 0)
(37.47 12.2123 -4.36858e-15)
(38.0223 10.8741 -4.25482e-15)
(38.3485 9.60474 -4.1268e-15)
(38.4531 8.3868 0)
(38.327 7.20239 1.18857e-16)
(37.9635 6.04365 3.50203e-15)
(37.3761 4.91854 9.21523e-20)
(36.6067 3.84529 -3.29233e-15)
(35.7129 2.8426 -8.61266e-21)
(34.736 1.91747 2.82718e-15)
(33.6948 1.07112 -1.26002e-15)
(32.6007 0.305906 2.1629e-16)
(31.4682 -0.371624 5.26563e-16)
(30.3206 -0.956155 6.00015e-17)
(29.1869 -1.44706 3.49878e-15)
(28.1496 -1.83868 2.67625e-17)
(27.2997 -2.13494 4.58737e-21)
(26.6268 -2.36264 3.78935e-15)
(26.0747 -2.54771 4.03992e-15)
(25.6044 -2.70342 4.02284e-21)
(25.1911 -2.83677 3.53135e-17)
(24.8195 -2.95193 -3.73364e-17)
(24.4798 -3.05134 0)
(24.1658 -3.13688 0)
(23.8725 -3.21011 -5.59423e-15)
(23.5962 -3.27215 2.93939e-15)
(23.3338 -3.32399 1.54061e-15)
(23.0829 -3.36636 1.61244e-15)
(22.8409 -3.39968 1.68453e-15)
(22.6056 -3.42422 -2.74436e-17)
(22.3742 -3.43995 9.422e-16)
(22.144 -3.44648 0)
(21.9122 -3.44301 -9.83234e-16)
(21.6751 -3.42829 1.01755e-15)
(21.4299 -3.39976 5.25026e-16)
(21.1671 -3.3536 -5.33174e-16)
(20.8952 -3.28169 -8.69772e-18)
(20.5639 -3.17363 0)
(20.2921 -2.98764 -2.91457e-16)
(19.7432 -2.72846 -5.99254e-16)
(9.60506 10.6768 0)
(12.1829 14.7348 -2.94506e-17)
(15.7899 17.9016 2.98875e-17)
(19.9778 19.7659 0)
(24.1252 20.3095 2.04444e-15)
(27.7513 19.8462 0)
(30.6338 18.7877 0)
(32.8599 17.4139 0)
(34.5561 15.9084 1.26154e-16)
(35.8425 14.3748 -4.0855e-15)
(36.8148 12.8772 3.90841e-15)
(37.55 11.4406 3.859e-15)
(38.099 10.0747 3.80651e-15)
(38.4949 8.7812 3.7398e-15)
(38.7541 7.55379 -3.53843e-15)
(38.8706 6.38768 3.42835e-15)
(38.8207 5.27462 1.16052e-19)
(38.5683 4.20342 0)
(38.0798 3.16669 3.00844e-15)
(37.3511 2.17355 -2.79034e-15)
(36.4189 1.24667 2.64577e-15)
(35.3425 0.40527 -2.93041e-16)
(34.1726 -0.339869 -6.66568e-17)
(32.9482 -0.982224 0)
(31.7118 -1.52228 3.50607e-15)
(30.564 -1.95249 3.39144e-15)
(29.6127 -2.27692 3.4649e-15)
(28.8538 -2.52495 -3.67131e-15)
(28.23 -2.72536 5.99391e-17)
(27.7002 -2.89318 -4.01526e-15)
(27.2374 -3.03648 -6.66169e-21)
(26.8249 -3.15992 4.40079e-15)
(26.4501 -3.26641 -3.59707e-17)
(26.1064 -3.35796 -2.76267e-21)
(25.7878 -3.4363 2.55212e-15)
(25.4899 -3.50264 -2.62115e-15)
(25.2092 -3.55804 -4.26315e-17)
(24.9427 -3.60324 -1.37391e-15)
(24.6876 -3.63864 0)
(24.4415 -3.66449 2.38316e-17)
(24.2017 -3.68066 7.8869e-16)
(23.9653 -3.68667 -2.54397e-17)
(23.7299 -3.68154 0)
(23.492 -3.66381 -1.72685e-15)
(23.2496 -3.63056 1.38462e-17)
(22.995 -3.57785 4.26092e-16)
(22.7379 -3.4968 1.45153e-17)
(22.4384 -3.3787 -3.70339e-18)
(22.2062 -3.18645 2.44205e-16)
(21.7617 -2.93974 2.45952e-16)
(11.2072 9.85653 0)
(13.287 13.3906 0)
(16.2257 16.3615 0)
(19.8067 18.3695 0)
(23.5985 19.245 -3.51396e-15)
(27.1342 19.0923 0)
(30.1201 18.2137 0)
(32.5079 16.9148 0)
(34.3543 15.4374 3.37473e-15)
(35.7522 13.9301 4.41986e-16)
(36.798 12.472 3.26492e-15)
(37.5775 11.0903 0)
(38.1538 9.79035 0)
(38.5715 8.56671 -3.36027e-15)
(38.8619 7.40874 -1.91051e-19)
(39.0451 6.30406 -6.55341e-15)
(39.1306 5.24461 -3.21464e-15)
(39.1172 4.22265 3.12817e-15)
(38.9861 3.23698 -6.02089e-15)
(38.6993 2.28995 0)
(38.2002 1.37607 -1.33232e-15)
(37.4511 0.508927 -5.38001e-16)
(36.4714 -0.285706 4.21177e-16)
(35.3155 -0.985258 6.37054e-17)
(34.0764 -1.57582 -7.37178e-15)
(32.8826 -2.04604 -3.52227e-15)
(31.8676 -2.40077 -3.58671e-15)
(31.0443 -2.67136 3.67927e-15)
(30.3614 -2.88894 0)
(29.7797 -3.07019 3.97291e-15)
(29.2719 -3.22432 3.98096e-15)
(28.8209 -3.35671 -4.25218e-15)
(28.4135 -3.47064 -2.03148e-15)
(28.0415 -3.56854 -2.27878e-15)
(27.6985 -3.65224 -7.25001e-17)
(27.3798 -3.72308 3.74754e-17)
(27.0814 -3.78218 -1.27659e-15)
(26.8 -3.8303 1.31654e-15)
(26.5325 -3.86786 4.10948e-17)
(26.2764 -3.89505 2.66287e-15)
(26.0288 -3.9117 -6.72827e-16)
(25.7871 -3.91723 -7.34382e-16)
(25.5488 -3.91054 0)
(25.3112 -3.89 1.49141e-15)
(25.0729 -3.85257 3.92266e-16)
(24.8279 -3.79437 -1.21197e-17)
(24.587 -3.70709 -3.94123e-16)
(24.3189 -3.58357 4.06105e-16)
(24.1227 -3.39523 -6.30783e-18)
(23.762 -3.16479 0)
(12.7425 9.09065 0)
(14.426 12.1522 0)
(16.7886 14.875 0)
(19.7736 16.9327 0)
(23.1225 18.0953 1.41658e-15)
(26.4448 18.3168 1.64264e-15)
(29.385 17.788 0)
(31.8115 16.7738 0)
(33.7247 15.5088 -3.12701e-15)
(35.1953 14.1445 3.10288e-15)
(36.3123 12.7693 -6.13254e-15)
(37.1573 11.4245 -3.20605e-15)
(37.7925 10.1284 1.86315e-16)
(38.2625 8.88768 1.844e-16)
(38.6 7.69836 2.74065e-15)
(38.8267 6.55774 2.89841e-15)
(38.9565 5.46132 1.79598e-16)
(38.9969 4.40623 1.22393e-19)
(38.9512 3.39141 2.62997e-15)
(38.8188 2.41427 -1.71546e-16)
(38.5893 1.48364 1.65952e-16)
(38.2347 0.607538 4.74154e-16)
(37.7123 -0.203998 7.388e-16)
(36.9675 -0.940938 0)
(36.0066 -1.58378 4.09753e-15)
(34.9387 -2.10635 2.2768e-20)
(33.9601 -2.49871 -1.1713e-16)
(33.1326 -2.79581 -7.54542e-15)
(32.4289 -3.03348 0)
(31.8206 -3.23065 -3.94204e-15)
(31.285 -3.3977 6.18073e-17)
(30.8076 -3.54064 4.04152e-15)
(30.3763 -3.66335 2.13102e-15)
(29.983 -3.76859 -6.61116e-17)
(29.6213 -3.85848 0)
(29.2864 -3.93452 6.92405e-17)
(28.9741 -3.99788 -1.20381e-15)
(28.6809 -4.04943 3.61973e-17)
(28.4038 -4.08959 -3.69757e-17)
(28.1401 -4.11853 -1.20761e-15)
(27.8871 -4.13603 0)
(27.6422 -4.14149 6.26784e-16)
(27.4033 -4.13371 0)
(27.1683 -4.11103 -6.68119e-16)
(26.9362 -4.07049 -2.87463e-16)
(26.703 -4.00857 -2.08125e-17)
(26.4806 -3.91867 3.47136e-16)
(26.2424 -3.79431 -1.06234e-17)
(26.08 -3.61852 2.66874e-18)
(25.7875 -3.41028 1.70436e-16)
(14.2028 8.37953 0)
(15.5739 11.0207 0)
(17.4633 13.4664 0)
(19.9033 15.4779 1.57359e-16)
(22.7857 16.8301 -1.63017e-16)
(25.8262 17.3731 -1.50097e-15)
(28.6738 17.164 1.52118e-15)
(31.1378 16.3927 1.69701e-16)
(33.1519 15.2777 2.71385e-15)
(34.7387 13.9901 -1.69221e-16)
(35.9615 12.6469 2.69474e-15)
(36.8934 11.3127 -3.96189e-19)
(37.5959 10.021 0)
(38.1171 8.78427 2.60216e-15)
(38.4925 7.60346 1.60978e-16)
(38.747 6.47456 -2.71201e-15)
(38.8971 5.39439 0)
(38.9538 4.3575 -5.02001e-15)
(38.923 3.35986 -2.48945e-15)
(38.8074 2.40185 0)
(38.6083 1.48677 1.22e-15)
(38.3242 0.617843 0)
(37.9552 -0.191051 -5.8331e-16)
(37.4953 -0.924773 -2.23851e-15)
(36.9243 -1.57512 -4.34094e-15)
(36.2398 -2.12295 1.25283e-16)
(35.5271 -2.55065 -3.93719e-15)
(34.852 -2.87974 3.77204e-15)
(34.2293 -3.14249 1.21017e-16)
(33.6617 -3.35953 0)
(33.146 -3.54287 0)
(32.677 -3.69953 0)
(32.2486 -3.83384 0)
(31.8554 -3.9489 -6.24495e-17)
(31.4922 -4.0471 1.26355e-16)
(31.155 -4.13011 1.91984e-15)
(30.8403 -4.19925 1.10197e-15)
(30.545 -4.25548 1.11647e-15)
(30.2666 -4.29932 3.64207e-21)
(30.0025 -4.33096 9.76881e-16)
(29.7504 -4.35023 -1.7181e-21)
(29.5082 -4.35653 5.86168e-16)
(29.2742 -4.34869 0)
(29.0469 -4.32515 -1.76018e-17)
(28.8262 -4.28329 1.77531e-17)
(28.6093 -4.22027 0)
(28.4089 -4.13164 2.88152e-16)
(28.201 -4.01192 -2.80485e-16)
(28.0709 -3.85568 -4.53372e-18)
(27.8367 -3.67701 -1.51092e-16)
(15.5854 7.72098 0)
(16.71 9.99267 0)
(18.2182 12.1546 0)
(20.1901 14.0576 0)
(22.5974 15.4996 1.40943e-16)
(25.298 16.303 -1.28645e-19)
(27.9768 16.4101 -1.45879e-16)
(30.4148 15.9264 -2.647e-15)
(32.4862 15.0346 -1.76352e-15)
(34.1601 13.9069 -2.63984e-15)
(35.4718 12.673 -2.92139e-16)
(36.4816 11.4119 2.62132e-15)
(37.2494 10.1665 0)
(37.8238 8.95751 -2.28519e-15)
(38.2429 7.79032 2.25944e-15)
(38.5335 6.66562 2.23746e-15)
(38.7139 5.5819 -2.77314e-16)
(38.7963 4.53618 2.20063e-15)
(38.7879 3.52685 2.1841e-15)
(38.6925 2.55576 -1.89716e-15)
(38.5116 1.62465 -3.22876e-15)
(38.2477 0.742306 -1.06867e-15)
(37.9035 -0.0818459 -2.65139e-16)
(37.4879 -0.835776 3.93401e-15)
(37.0134 -1.51142 4.3698e-15)
(36.521 -2.07967 4.03648e-15)
(36.0566 -2.52923 7.9666e-15)
(35.6322 -2.88223 -1.2253e-16)
(35.2283 -3.1716 1.20728e-16)
(34.8396 -3.41353 -3.70033e-15)
(34.4634 -3.61881 -1.18383e-16)
(34.1 -3.79444 1.8846e-15)
(33.7505 -3.94515 0)
(33.4163 -4.0744 1.87877e-15)
(33.0978 -4.18486 0)
(32.7951 -4.27842 -1.88599e-15)
(32.5078 -4.35662 0)
(32.2351 -4.42058 -1.90133e-15)
(31.9761 -4.47094 1.01515e-15)
(31.7296 -4.508 -9.60435e-16)
(31.4943 -4.53165 -6.03421e-17)
(31.269 -4.54143 -4.85219e-16)
(31.0529 -4.53628 -4.87622e-16)
(30.8453 -4.51494 -3.06184e-17)
(30.647 -4.47528 -2.15137e-16)
(30.4564 -4.41559 -1.54227e-17)
(30.2859 -4.33309 -2.47302e-16)
(30.1147 -4.22487 7.73719e-18)
(30.0171 -4.09291 -1.16014e-16)
(29.8406 -3.95302 -1.24518e-16)
(16.888 7.11193 3.09832e-17)
(17.8189 9.06425 4.40519e-16)
(19.0277 10.9519 1.16791e-16)
(20.6013 12.6956 -7.8994e-20)
(22.579 14.1501 -1.10286e-15)
(24.8967 15.1288 1.00036e-15)
(27.3434 15.5146 3.69155e-19)
(29.6924 15.3212 -7.50757e-19)
(31.7829 14.6708 -1.78565e-15)
(33.5342 13.7147 2.0357e-15)
(34.9418 12.5889 -2.28284e-15)
(36.0454 11.3881 -2.02294e-15)
(36.8947 10.1727 0)
(37.5369 8.97543 2.50645e-16)
(38.0108 7.8111 -2.48439e-15)
(38.3455 6.68504 8.92231e-21)
(38.5612 5.5994 2.43517e-16)
(38.6722 4.55228 0)
(38.6873 3.5437 2.15662e-15)
(38.6113 2.57309 -2.37956e-16)
(38.4473 1.64526 1.89002e-15)
(38.1968 0.764711 9.39221e-16)
(37.8649 -0.0560963 2.33585e-16)
(37.46 -0.808367 -3.7231e-15)
(36.9982 -1.48061 0)
(36.5226 -2.05153 -3.71365e-15)
(36.091 -2.50527 -3.71373e-15)
(35.7196 -2.86412 0)
(35.3944 -3.1585 -3.41433e-15)
(35.1023 -3.40768 3.37928e-15)
(34.8328 -3.6229 3.46078e-15)
(34.5805 -3.80988 -3.4342e-15)
(34.3414 -3.97242 -1.75744e-15)
(34.1131 -4.11355 0)
(33.8936 -4.23564 -1.08405e-16)
(33.6819 -4.34038 1.07924e-16)
(33.4775 -4.42913 -7.53025e-16)
(33.28 -4.50291 1.66382e-15)
(33.0893 -4.56231 -5.35954e-17)
(32.9053 -4.60763 -5.35643e-17)
(32.7278 -4.63881 4.8192e-16)
(32.5568 -4.65555 4.2835e-16)
(32.3928 -4.65699 4.28398e-16)
(32.2363 -4.64228 -2.67788e-17)
(32.089 -4.60993 2.40948e-16)
(31.9515 -4.55958 0)
(31.8324 -4.48925 0)
(31.7224 -4.40219 2.00221e-16)
(31.6634 -4.29611 1.19845e-16)
(31.5682 -4.1964 3.55232e-21)
(18.1106 6.54916 0)
(18.8892 8.22852 -8.36983e-16)
(19.864 9.8609 0)
(21.1146 11.4206 8.39607e-16)
(22.7118 12.8208 8.55421e-16)
(24.6478 13.892 -1.08676e-15)
(26.8121 14.498 -6.60042e-16)
(29.0062 14.5787 1.99096e-15)
(31.0608 14.1883 1.54942e-15)
(32.856 13.4399 1.7681e-15)
(34.3451 12.4626 1.76128e-15)
(35.5379 11.3617 -3.99668e-19)
(36.4698 10.2113 4.37378e-16)
(37.1826 9.05576 -6.46473e-20)
(37.7151 7.9176 1.30339e-15)
(38.0977 6.80792 4.31356e-16)
(38.3528 5.73153 -1.70778e-15)
(38.4964 4.6895 -4.23072e-16)
(38.5388 3.68166 -2.09851e-15)
(38.4864 2.71016 2.0833e-15)
(38.3427 1.77828 4.13944e-16)
(38.1106 0.892804 -4.11545e-16)
(37.7946 0.063961 0)
(37.4038 -0.696977 2.4516e-15)
(36.9527 -1.38032 0)
(36.485 -1.96155 2.04772e-16)
(36.0579 -2.4241 -3.47984e-15)
(35.6895 -2.78913 -2.02983e-16)
(35.3677 -3.08905 3.21878e-15)
(35.0805 -3.34315 1.99858e-16)
(34.8203 -3.56185 -1.9886e-16)
(34.5819 -3.7518 1.98058e-16)
(34.3614 -3.91775 3.15335e-15)
(34.1563 -4.06262 -9.8104e-17)
(33.9647 -4.18871 1.65753e-15)
(33.7851 -4.29773 0)
(33.6163 -4.39097 7.72247e-16)
(33.4574 -4.46943 -8.65411e-16)
(33.3079 -4.53372 -7.66741e-16)
(33.1671 -4.58406 -6.69017e-16)
(33.0348 -4.62064 -3.81349e-16)
(32.9111 -4.64319 -3.80498e-16)
(32.7963 -4.65125 -4.74654e-17)
(32.6914 -4.64443 4.7369e-17)
(32.598 -4.62196 0)
(32.5176 -4.58444 -2.12248e-16)
(32.4547 -4.53118 2.35217e-17)
(32.4081 -4.46773 -4.38961e-21)
(32.3929 -4.39062 -9.93447e-17)
(32.3799 -4.32185 9.92809e-17)
(19.254 6.02948 -4.95059e-17)
(19.9122 7.47719 5.14352e-16)
(20.7046 8.87812 -9.19048e-17)
(21.7001 10.249 -5.5569e-16)
(22.9743 11.5455 5.62369e-16)
(24.5651 12.6408 0)
(26.4111 13.3903 1.14949e-15)
(28.3958 13.7052 2.59814e-19)
(30.3536 13.5724 3.84947e-16)
(32.1479 13.053 5.1604e-19)
(33.6951 12.2518 0)
(34.9715 11.2728 3.43133e-15)
(35.9898 10.2007 -9.48638e-20)
(36.7817 9.09158 -3.78721e-16)
(37.3823 7.97917 3.77965e-16)
(37.8219 6.88179 -3.76793e-16)
(38.1241 5.81033 1.49806e-15)
(38.3068 4.76837 3.70977e-16)
(38.382 3.7591 -1.83913e-15)
(38.3573 2.78451 0)
(38.2375 1.84964 -1.45051e-15)
(38.0263 0.960144 3.60629e-16)
(37.7287 0.127107 -6.28427e-16)
(37.3534 -0.639398 -1.07493e-15)
(36.9149 -1.3289 0)
(36.4558 -1.91611 2.87081e-15)
(36.0339 -2.38286 6.0371e-15)
(35.6682 -2.75044 4.65791e-20)
(35.3477 -3.05145 -3.48085e-16)
(35.0616 -3.30512 -2.76905e-15)
(34.8023 -3.5227 -2.75811e-15)
(34.5644 -3.71148 1.54704e-15)
(34.3448 -3.87568 -1.544e-15)
(34.1408 -4.0187 -1.71321e-16)
(33.9508 -4.1429 -1.19578e-15)
(33.7735 -4.25017 0)
(33.6078 -4.34182 -8.4706e-17)
(33.4531 -4.41912 8.43731e-17)
(33.3092 -4.48241 0)
(33.1746 -4.53272 6.70751e-16)
(33.0517 -4.5695 0)
(32.9374 -4.59369 3.33692e-16)
(32.8363 -4.60458 3.32958e-16)
(32.7457 -4.60252 0)
(32.6707 -4.58788 0)
(32.6099 -4.56097 3.30855e-16)
(32.5684 -4.52423 0)
(32.5445 -4.48019 -3.06431e-21)
(32.544 -4.43039 8.21007e-17)
(32.5601 -4.38395 -8.19882e-17)
(20.3194 5.54979 0)
(20.8815 6.80085 0)
(21.532 7.99698 0)
(22.3298 9.18655 -6.56115e-16)
(23.3434 10.3538 -9.89633e-16)
(24.626 11.4121 3.32048e-16)
(26.1653 12.2359 -2.33969e-15)
(27.896 12.7253 -3.35061e-16)
(29.7012 12.825 -3.34767e-16)
(31.44 12.5416 -2.33834e-15)
(33.0084 11.9417 0)
(34.3498 11.1149 -1.32555e-15)
(35.4496 10.1486 1.32045e-15)
(36.3225 9.10966 1.31568e-15)
(36.9962 8.04198 -6.55571e-16)
(37.4988 6.97277 6.54288e-16)
(37.854 5.91834 -3.26491e-15)
(38.081 4.88678 6.49445e-16)
(38.1935 3.88312 -3.22262e-16)
(38.2005 2.91128 6.39095e-16)
(38.1083 1.97656 2.22131e-15)
(37.9213 1.08538 -3.15567e-16)
(37.6449 0.248404 -7.86121e-17)
(37.2882 -0.523961 6.27289e-16)
(36.8647 -1.22108 1.5682e-15)
(36.4165 -1.81599 4.4839e-20)
(36.001 -2.28955 -2.45445e-15)
(35.6386 -2.66257 3.03389e-16)
(35.3201 -2.96727 -3.0104e-16)
(35.0352 -3.22352 5.09104e-15)
(34.7766 -3.44293 -5.96809e-16)
(34.5395 -3.63279 2.97642e-16)
(34.3208 -3.79757 -1.48586e-16)
(34.1177 -3.94093 1.48405e-16)
(33.9287 -4.06526 1.1866e-15)
(33.7526 -4.17253 1.48115e-16)
(33.5885 -4.26423 8.55112e-21)
(33.4361 -4.34138 5.88246e-16)
(33.2938 -4.40521 -2.93094e-16)
(33.1641 -4.45558 1.461e-16)
(33.0436 -4.49409 -2.91424e-16)
(32.9365 -4.5201 -6.54136e-16)
(32.8397 -4.53488 -1.45049e-16)
(32.7579 -4.53871 -3.61879e-17)
(32.689 -4.53244 8.57546e-22)
(32.6373 -4.51816 -1.80246e-16)
(32.6015 -4.4961 0)
(32.5844 -4.4721 -1.61541e-16)
(32.5843 -4.44606 8.95593e-18)
(32.6003 -4.42167 1.52082e-16)
(21.3087 5.10704 0)
(21.7932 6.19045 0)
(22.3337 7.20929 0)
(22.9799 8.23227 5.25881e-20)
(23.7881 9.26124 0)
(24.8121 10.2413 8.74654e-16)
(26.0703 11.0782 8.77447e-16)
(27.5335 11.6758 -1.1691e-15)
(29.1403 11.9627 5.83898e-16)
(30.7692 11.9015 1.16358e-15)
(32.3107 11.5153 0)
(33.6864 10.8659 0)
(34.8537 10.032 -2.29636e-15)
(35.8053 9.08452 1.7155e-15)
(36.5557 8.07689 -2.2788e-15)
(37.1276 7.04499 5.68084e-16)
(37.5428 6.01275 2.26634e-15)
(37.821 4.99314 2.26225e-15)
(37.977 3.99528 5.63026e-16)
(38.0213 3.02494 5.59647e-16)
(37.9613 2.08912 -5.55418e-16)
(37.8024 1.19457 5.6357e-20)
(37.5509 0.352311 -2.74903e-16)
(37.2155 -0.427421 -5.48896e-16)
(36.8095 -1.13352 2.96705e-20)
(36.374 -1.73768 -4.30938e-15)
(35.9662 -2.21895 1.85706e-15)
(35.6081 -2.59741 2.09955e-15)
(35.2921 -2.90551 -1.82388e-15)
(35.0089 -3.16363 -2.33338e-15)
(34.7516 -3.38372 -2.37676e-20)
(34.5157 -3.57342 -2.16451e-20)
(34.2981 -3.73761 5.1492e-16)
(34.0964 -3.87996 -5.14424e-16)
(33.909 -4.00312 -7.7131e-16)
(33.7344 -4.10924 0)
(33.5727 -4.19969 -5.1373e-16)
(33.4216 -4.27621 -5.12284e-16)
(33.284 -4.33894 0)
(33.155 -4.39023 6.3603e-16)
(33.0417 -4.42886 1.26853e-16)
(32.9352 -4.458 2.53085e-16)
(32.8476 -4.47618 -2.52532e-16)
(32.7663 -4.48638 0)
(32.7064 -4.48895 1.88665e-16)
(32.6541 -4.48539 -6.27817e-17)
(32.6235 -4.47947 3.13357e-17)
(32.6024 -4.4693 1.09473e-16)
(32.6007 -4.46424 -8.58712e-17)
(32.609 -4.46041 -5.46021e-17)
(22.2239 4.69824 7.18501e-17)
(22.6456 5.63882 6.75148e-17)
(23.1004 6.50533 -3.92827e-16)
(23.6307 7.37965 5.18583e-16)
(24.2801 8.27304 -2.57763e-16)
(25.0959 9.1534 -1.54046e-15)
(26.1078 9.95455 -5.13014e-16)
(27.3205 10.6015 1.02298e-15)
(28.6982 11.0168 2.63446e-19)
(30.1715 11.1438 -1.01493e-15)
(31.6354 10.9654 1.51516e-15)
(33.0037 10.509 0)
(34.2128 9.83252 4.99652e-16)
(35.2318 9.00208 -1.49168e-15)
(36.0574 8.07612 0)
(36.7019 7.09884 -4.9347e-16)
(37.1827 6.10182 -1.47602e-15)
(37.5183 5.10436 -1.96272e-15)
(37.7236 4.11984 0)
(37.8106 3.15707 -1.95208e-15)
(37.7876 2.22462 -4.85528e-16)
(37.6614 1.33035 -4.329e-20)
(37.4385 0.485407 2.40337e-16)
(37.128 -0.299591 9.56384e-16)
(36.7427 -1.01337 -1.41973e-15)
(36.3224 -1.62582 3.72538e-15)
(35.9243 -2.11425 -1.83573e-15)
(35.5716 -2.49808 -3.63372e-15)
(35.259 -2.80968 1.80439e-15)
(34.9779 -3.06991 1.79609e-15)
(34.7225 -3.291 -8.95355e-16)
(34.4879 -3.48111 0)
(34.2718 -3.6451 -2.23118e-16)
(34.0714 -3.78714 1.11466e-15)
(33.8858 -3.9097 8.9149e-16)
(33.7129 -4.01542 -2.22857e-16)
(33.5535 -4.10538 2.22888e-16)
(33.4047 -4.18201 -2.22774e-16)
(33.27 -4.24518 2.22148e-16)
(33.1445 -4.29772 -3.32156e-16)
(33.0341 -4.33871 -1.10403e-16)
(32.9327 -4.37129 3.30411e-16)
(32.8469 -4.39484 -3.0079e-22)
(32.7713 -4.41216 1.64534e-16)
(32.7115 -4.42372 -1.64239e-16)
(32.6625 -4.43226 0)
(32.6286 -4.43877 2.72905e-17)
(32.6049 -4.4466 -2.72489e-17)
(32.5945 -4.45519 1.36067e-17)
(32.5919 -4.46676 -1.36008e-17)
(23.0678 4.32065 -1.29238e-16)
(23.4381 5.13918 1.21317e-16)
(23.8258 5.87559 0)
(24.2673 6.61983 0)
(24.7951 7.38738 4.57122e-16)
(25.4474 8.16062 4.53268e-16)
(26.2562 8.89597 0)
(27.2406 9.54108 4.48504e-16)
(28.3952 10.0288 1.33798e-15)
(29.6773 10.295 8.86612e-16)
(31.0186 10.2992 -1.76244e-15)
(32.333 10.0354 3.82713e-19)
(33.5475 9.53321 2.61311e-15)
(34.6122 8.84363 1.73242e-15)
(35.5037 8.02264 8.61772e-16)
(36.22 7.11903 -8.58242e-16)
(36.77 6.17159 1.7096e-15)
(37.1684 5.2061 2.55647e-15)
(37.4293 4.24151 -2.54896e-15)
(37.5648 3.29011 1.69429e-15)
(37.5844 2.36326 0)
(37.4956 1.47001 8.40971e-16)
(37.3058 0.622493 0)
(37.0241 -0.168586 0)
(36.6629 -0.89112 -8.18706e-16)
(36.2605 -1.51349 4.92806e-20)
(35.8739 -2.01066 3.97257e-16)
(35.5279 -2.40145 7.866e-16)
(35.2196 -2.71769 3.90725e-16)
(34.9412 -2.98101 3.04324e-20)
(34.6881 -3.20371 1.55191e-15)
(34.4552 -3.3947 7.74543e-16)
(34.241 -3.55874 0)
(34.0422 -3.70063 1.28317e-20)
(33.8586 -3.82262 -7.73083e-16)
(33.6876 -3.92797 0)
(33.5305 -4.01756 3.86638e-16)
(33.3846 -4.09419 -1.9339e-16)
(33.2519 -4.15811 1.93249e-16)
(33.1304 -4.21167 0)
(33.0216 -4.25534 0)
(32.9244 -4.2911 -4.7925e-16)
(32.8397 -4.31987 2.86941e-16)
(32.7668 -4.34352 9.54736e-17)
(32.7061 -4.36335 9.53147e-17)
(32.6565 -4.38116 0)
(32.6179 -4.39829 0)
(32.5886 -4.41625 -9.49526e-17)
(32.5677 -4.43573 3.55726e-17)
(32.5534 -4.45802 1.18555e-17)
(23.8431 3.97172 -1.16167e-16)
(24.1711 4.68552 1.08909e-16)
(24.5056 5.31114 0)
(24.8786 5.94303 4.1161e-16)
(25.3135 6.59774 -3.11899e-20)
(25.8398 7.26618 4.00719e-16)
(26.4862 7.92091 -7.95096e-16)
(27.2769 8.5287 -7.87702e-16)
(28.2236 9.03914 -1.56324e-15)
(29.3086 9.39227 7.7608e-16)
(30.4917 9.53879 0)
(31.7091 9.44891 -7.64746e-16)
(32.8868 9.12407 7.51502e-19)
(33.9651 8.59261 -7.54533e-16)
(34.9037 7.89911 -7.50501e-16)
(35.6839 7.09101 1.49351e-15)
(36.3025 6.21134 7.4339e-16)
(36.767 5.29218 -2.96137e-15)
(37.0886 4.3581 7.37375e-16)
(37.2785 3.42613 7.35066e-16)
(37.3463 2.51057 0)
(37.3003 1.62282 -7.28768e-16)
(37.1484 0.77577 -1.44839e-15)
(36.9 -0.0188336 1.435e-15)
(36.5669 -0.748648 3.58263e-20)
(36.1859 -1.37978 -1.39452e-15)
(35.8134 -1.88523 -6.87953e-16)
(35.476 -2.28228 2.04413e-15)
(35.1731 -2.60293 3.38594e-16)
(34.8987 -2.86873 -1.34871e-15)
(34.6484 -3.09283 -1.00896e-15)
(34.4181 -3.2841 3.358e-16)
(34.206 -3.44806 -1.00639e-15)
(34.0096 -3.58931 -3.3529e-16)
(33.8281 -3.71076 3.35254e-16)
(33.6598 -3.81539 -3.35288e-16)
(33.5047 -3.90486 0)
(33.3618 -3.98138 0)
(33.2313 -4.0462 0)
(33.1127 -4.10112 0)
(33.0058 -4.14743 -3.34429e-16)
(32.9107 -4.18671 3.33608e-16)
(32.8267 -4.22038 1.66465e-16)
(32.7538 -4.24983 -1.6618e-16)
(32.6911 -4.27656 0)
(32.6382 -4.30173 -4.14346e-17)
(32.5937 -4.32654 -8.27814e-17)
(32.5568 -4.35177 4.13524e-17)
(32.5262 -4.37803 3.09938e-17)
(32.5007 -4.40626 5.16595e-17)
(24.5531 3.64905 2.08641e-16)
(24.8459 4.27252 -1.95374e-16)
(25.1377 4.80394 -3.75273e-16)
(25.4572 5.33956 -3.66793e-16)
(25.8208 5.89532 -1.30984e-20)
(26.2506 6.4668 -7.09252e-16)
(26.7704 7.03718 -7.01366e-16)
(27.4035 7.58745 -6.93018e-16)
(28.1686 8.08284 1.37263e-15)
(29.0669 8.47605 0)
(30.0774 8.71764 0)
(31.1631 8.76829 1.33705e-15)
(32.2636 8.60708 -2.6541e-15)
(33.3173 8.23869 1.31721e-15)
(34.2746 7.68957 -1.30892e-15)
(35.1021 6.99806 -1.30097e-15)
(35.7821 6.20639 2.96406e-19)
(36.3125 5.35033 2.57464e-15)
(36.6979 4.45993 -1.28192e-15)
(36.947 3.55684 -1.27596e-15)
(37.0684 2.65952 -6.35214e-16)
(37.0707 1.78168 -6.31749e-16)
(36.962 0.938298 -6.27456e-16)
(36.7516 0.141675 3.10625e-16)
(36.4511 -0.594407 0)
(36.0952 -1.23468 -6.03781e-16)
(35.7397 -1.74876 5.9597e-16)
(35.4127 -2.15328 -1.18104e-15)
(35.1169 -2.47904 2.28521e-20)
(34.8473 -2.74848 3.63703e-20)
(34.6007 -2.97459 1.16675e-15)
(34.3734 -3.16712 -1.74745e-15)
(34.1641 -3.33146 5.81993e-16)
(33.9702 -3.47287 -5.8178e-16)
(33.7912 -3.59419 0)
(33.6253 -3.6988 2.90926e-16)
(33.4727 -3.7884 -2.91026e-16)
(33.3321 -3.86548 0)
(33.2038 -3.93137 -2.91253e-16)
(33.087 -3.98805 0)
(32.9817 -4.03681 -1.45503e-16)
(32.887 -4.07936 -1.26583e-21)
(32.8029 -4.11689 3.15723e-21)
(32.7283 -4.15083 3.64267e-21)
(32.6628 -4.18223 -1.44432e-16)
(32.6052 -4.21217 7.21438e-17)
(32.5549 -4.24128 0)
(32.5107 -4.27035 -7.20325e-17)
(32.4716 -4.29943 -1.79989e-17)
(32.4366 -4.32975 -5.40117e-17)
(25.2007 3.35048 -1.87132e-16)
(25.4639 3.89551 -1.75005e-16)
(25.7209 4.34686 3.3544e-16)
(25.9981 4.80038 0)
(26.3066 5.27062 6.99392e-20)
(26.6626 5.75547 0)
(27.0847 6.24478 -6.19344e-16)
(27.5934 6.72899 4.9287e-21)
(28.2082 7.18584 5.76174e-20)
(28.939 7.58133 -1.19318e-15)
(29.783 7.87435 2.36292e-15)
(30.7178 8.02378 -2.34087e-15)
(31.7083 7.99821 2.32055e-15)
(32.7002 7.78266 -1.15098e-15)
(33.6415 7.3838 0)
(34.4907 6.82497 -2.62647e-20)
(35.2172 6.14089 2.88236e-19)
(35.8068 5.36686 0)
(36.2555 4.536 1.11414e-15)
(36.5667 3.67458 -1.10842e-15)
(36.7464 2.80495 1.10247e-15)
(36.8022 1.94437 2.1917e-15)
(36.7419 1.10969 -5.43783e-16)
(36.5749 0.315106 1.34579e-15)
(36.3118 -0.424909 -2.12469e-15)
(35.9855 -1.07242 2.61518e-15)
(35.6503 -1.59464 -1.03296e-15)
(35.3366 -2.00587 5.1203e-16)
(35.0495 -2.33683 5.09131e-16)
(34.7865 -2.60936 -1.01439e-15)
(34.5446 -2.83752 -5.0607e-16)
(34.3215 -3.03072 0)
(34.1155 -3.19543 -2.52031e-20)
(33.925 -3.33642 5.04849e-16)
(33.7488 -3.45751 -5.04901e-16)
(33.5861 -3.56159 2.52494e-16)
(33.4359 -3.65117 2.52579e-16)
(33.2981 -3.72832 -3.441e-21)
(33.1718 -3.79497 2.52777e-16)
(33.0568 -3.85271 2.52895e-16)
(32.9523 -3.90324 1.26474e-16)
(32.8579 -3.94787 0)
(32.7727 -3.98796 0)
(32.6962 -4.02451 0)
(32.6274 -4.05855 6.28512e-17)
(32.5656 -4.09072 6.27963e-17)
(32.5098 -4.12164 -1.25503e-16)
(32.4592 -4.15178 1.88154e-16)
(32.4131 -4.181 3.13516e-17)
(32.3706 -4.21084 6.2723e-17)
(25.7893 3.07397 0)
(26.0272 3.55044 0)
(26.2555 3.93368 0)
(26.4985 4.31737 0)
(26.7637 4.71435 5.67955e-16)
(27.0628 5.12351 0)
(27.4101 5.53877 1.09429e-15)
(27.8221 5.95634 2.93882e-20)
(28.3166 6.36278 -1.06157e-15)
(28.9064 6.73539 -1.04811e-15)
(29.5976 7.04345 9.35015e-20)
(30.3845 7.2514 1.02551e-15)
(31.2435 7.32493 -2.03092e-15)
(32.1428 7.23853 1.00638e-15)
(33.0339 6.98202 0)
(33.8734 6.56201 -2.44853e-19)
(34.6232 6.00054 -9.82548e-16)
(35.2582 5.32666 9.75857e-16)
(35.764 4.573 1.54778e-19)
(36.1365 3.76817 9.10619e-20)
(36.377 2.93844 4.55699e-20)
(36.4905 2.10415 9.50983e-16)
(36.4836 1.28522 0)
(36.3651 0.497366 4.6661e-16)
(36.1448 -0.242899 0)
(35.8528 -0.895989 0)
(35.5419 -1.4252 -1.34373e-15)
(35.2443 -1.84327 4.44056e-16)
(34.9683 -2.17937 -8.83414e-16)
(34.7133 -2.45561 1.32035e-15)
(34.4776 -2.68603 4.39207e-16)
(34.2596 -2.88059 4.38659e-16)
(34.0578 -3.0459 -4.38366e-16)
(33.8711 -3.18714 4.38245e-16)
(33.6984 -3.30824 4.38302e-16)
(33.5387 -3.41237 5.72527e-21)
(33.3914 -3.5021 0)
(33.2559 -3.57968 2.19401e-16)
(33.1315 -3.64701 -4.38974e-16)
(33.0177 -3.70577 0)
(32.9137 -3.75752 2.19711e-16)
(32.819 -3.80355 -5.49255e-16)
(32.7327 -3.84502 3.2904e-16)
(32.6542 -3.88279 -1.09524e-16)
(32.5825 -3.9177 1.09395e-16)
(32.5171 -3.9503 -5.46543e-17)
(32.4572 -3.98101 5.46214e-17)
(32.402 -4.01026 -5.45996e-17)
(32.3511 -4.0378 -2.72946e-17)
(32.3034 -4.06552 -5.46137e-17)
(26.3221 2.81772 0)
(26.5382 3.23382 6.99517e-16)
(26.7422 3.55906 -5.34022e-16)
(26.9571 3.88342 0)
(27.1878 4.21796 0)
(27.4426 4.56191 -1.4559e-20)
(27.7323 4.91165 -8.55002e-20)
(28.0699 5.26662 9.49082e-16)
(28.47 5.61913 0)
(28.9455 5.95484 -1.8426e-15)
(29.5061 6.25243 2.72949e-15)
(30.1544 6.48466 -8.9908e-16)
(30.8824 6.62047 8.89447e-16)
(31.6669 6.63136 0)
(32.4796 6.49677 0)
(33.278 6.20921 2.59321e-15)