/*--------------------------------*- C++ -*----------------------------------*\
  =========                 |
  \\      /  F ield         | OpenFOAM: The Open Source CFD Toolbox
   \\    /   O peration     | Website:  https://openfoam.org
    \\  /    A nd           | Version:  8
     \\/     M anipulation  |
\*---------------------------------------------------------------------------*/
FoamFile
{
    version     2.0;
    format      ascii;
    class       volScalarField;
    location    "1.6";
    object      nuTilda;
}
// * * * * * * * * * * * * * * * * * * * * * * * * * * * * * * * * * * * * * //

dimensions      [0 2 -1 0 0 0 0];

internalField   nonuniform List<scalar> 
248760
(
0.139974
0.139922
0.139869
0.139817
0.139764
0.139711
0.139658
0.139605
0.139552
0.139499
0.139446
0.139393
0.139341
0.139288
0.139236
0.139183
0.139131
0.139079
0.139028
0.138976
0.138925
0.138874
0.138823
0.138773
0.138723
0.138673
0.138624
0.138575
0.138526
0.138478
0.13843
0.138383
0.138336
0.138289
0.138243
0.138197
0.138152
0.138107
0.138063
0.138019
0.137975
0.137932
0.13789
0.137848
0.137806
0.137765
0.137724
0.137684
0.137645
0.137606
0.137567
0.137529
0.137492
0.137455
0.137418
0.137382
0.137347
0.137312
0.137277
0.137243
0.13721
0.137177
0.137145
0.137113
0.137082
0.137051
0.137021
0.136991
0.136962
0.136934
0.136906
0.136879
0.136852
0.136826
0.1368
0.136775
0.136751
0.136728
0.136705
0.136682
0.136661
0.13664
0.136621
0.136602
0.136583
0.136566
0.13655
0.136534
0.13652
0.136507
0.136495
0.136484
0.136474
0.136465
0.136458
0.136453
0.136448
0.136446
0.136445
0.136445
0.136448
0.136452
0.136459
0.136467
0.136478
0.136492
0.136509
0.136529
0.136553
0.136582
0.136616
0.136657
0.136705
0.136764
0.136834
0.13692
0.137025
0.137153
0.137311
0.137506
0.139974
0.139922
0.139869
0.139816
0.139763
0.139711
0.139658
0.139604
0.139551
0.139498
0.139446
0.139393
0.13934
0.139287
0.139235
0.139182
0.13913
0.139078
0.139026
0.138975
0.138924
0.138873
0.138822
0.138771
0.138721
0.138672
0.138622
0.138573
0.138524
0.138476
0.138428
0.13838
0.138333
0.138287
0.13824
0.138194
0.138149
0.138104
0.13806
0.138016
0.137972
0.137929
0.137886
0.137844
0.137802
0.137761
0.137721
0.137681
0.137641
0.137602
0.137563
0.137525
0.137487
0.13745
0.137414
0.137378
0.137342
0.137307
0.137273
0.137239
0.137205
0.137172
0.13714
0.137108
0.137077
0.137046
0.137016
0.136986
0.136957
0.136928
0.1369
0.136873
0.136846
0.13682
0.136795
0.13677
0.136745
0.136722
0.136699
0.136677
0.136655
0.136635
0.136615
0.136596
0.136578
0.136561
0.136544
0.136529
0.136515
0.136502
0.136489
0.136479
0.136469
0.136461
0.136454
0.136448
0.136444
0.136441
0.13644
0.136441
0.136444
0.136448
0.136455
0.136464
0.136475
0.136489
0.136506
0.136526
0.136551
0.136579
0.136614
0.136654
0.136703
0.136762
0.136832
0.136918
0.137023
0.137152
0.13731
0.137506
0.139974
0.139921
0.139869
0.139816
0.139763
0.13971
0.139657
0.139604
0.13955
0.139497
0.139444
0.139391
0.139338
0.139286
0.139233
0.13918
0.139128
0.139076
0.139024
0.138972
0.138921
0.13887
0.138819
0.138768
0.138718
0.138668
0.138619
0.138569
0.13852
0.138472
0.138424
0.138376
0.138329
0.138282
0.138235
0.138189
0.138144
0.138099
0.138054
0.13801
0.137966
0.137923
0.13788
0.137838
0.137796
0.137754
0.137714
0.137673
0.137634
0.137594
0.137555
0.137517
0.137479
0.137442
0.137405
0.137369
0.137333
0.137298
0.137264
0.137229
0.137196
0.137163
0.13713
0.137098
0.137067
0.137036
0.137006
0.136976
0.136947
0.136918
0.13689
0.136863
0.136836
0.136809
0.136784
0.136759
0.136735
0.136711
0.136688
0.136666
0.136645
0.136624
0.136604
0.136585
0.136567
0.13655
0.136534
0.136518
0.136504
0.136491
0.136479
0.136468
0.136459
0.13645
0.136444
0.136438
0.136434
0.136432
0.136431
0.136432
0.136435
0.136439
0.136446
0.136455
0.136467
0.136481
0.136498
0.136519
0.136543
0.136572
0.136606
0.136647
0.136696
0.136755
0.136826
0.136912
0.137017
0.137146
0.137305
0.137501
0.139974
0.139921
0.139868
0.139815
0.139762
0.139709
0.139656
0.139602
0.139549
0.139496
0.139442
0.139389
0.139336
0.139283
0.13923
0.139178
0.139125
0.139073
0.139021
0.138969
0.138917
0.138866
0.138815
0.138764
0.138714
0.138663
0.138614
0.138564
0.138515
0.138466
0.138418
0.13837
0.138322
0.138275
0.138228
0.138182
0.138136
0.138091
0.138046
0.138002
0.137958
0.137914
0.137871
0.137829
0.137786
0.137745
0.137704
0.137663
0.137623
0.137584
0.137545
0.137506
0.137468
0.137431
0.137394
0.137357
0.137321
0.137286
0.137251
0.137217
0.137183
0.13715
0.137117
0.137085
0.137053
0.137022
0.136992
0.136962
0.136932
0.136904
0.136875
0.136848
0.136821
0.136795
0.136769
0.136744
0.136719
0.136696
0.136673
0.136651
0.136629
0.136608
0.136589
0.13657
0.136552
0.136534
0.136518
0.136503
0.136489
0.136476
0.136464
0.136453
0.136444
0.136436
0.136429
0.136424
0.13642
0.136418
0.136417
0.136418
0.136421
0.136426
0.136433
0.136443
0.136454
0.136469
0.136486
0.136507
0.136531
0.136561
0.136595
0.136636
0.136686
0.136745
0.136816
0.136902
0.137008
0.137137
0.137296
0.137493
0.139974
0.139921
0.139868
0.139814
0.139761
0.139708
0.139654
0.139601
0.139547
0.139494
0.13944
0.139387
0.139334
0.13928
0.139227
0.139174
0.139122
0.139069
0.139017
0.138965
0.138913
0.138861
0.13881
0.138759
0.138708
0.138657
0.138607
0.138558
0.138508
0.138459
0.13841
0.138362
0.138314
0.138267
0.13822
0.138173
0.138127
0.138081
0.138036
0.137991
0.137947
0.137903
0.13786
0.137817
0.137775
0.137733
0.137692
0.137651
0.13761
0.13757
0.137531
0.137492
0.137454
0.137416
0.137379
0.137342
0.137306
0.13727
0.137235
0.137201
0.137167
0.137133
0.1371
0.137068
0.137036
0.137005
0.136974
0.136944
0.136914
0.136885
0.136857
0.136829
0.136802
0.136776
0.13675
0.136725
0.1367
0.136677
0.136654
0.136631
0.13661
0.136589
0.136569
0.13655
0.136532
0.136515
0.136499
0.136484
0.13647
0.136457
0.136445
0.136435
0.136425
0.136417
0.136411
0.136406
0.136402
0.1364
0.1364
0.136401
0.136404
0.136409
0.136417
0.136426
0.136438
0.136453
0.13647
0.136491
0.136516
0.136546
0.13658
0.136622
0.136671
0.136731
0.136802
0.136889
0.136995
0.137125
0.137285
0.137482
0.139974
0.13992
0.139867
0.139813
0.13976
0.139706
0.139653
0.139599
0.139545
0.139491
0.139438
0.139384
0.13933
0.139277
0.139224
0.13917
0.139117
0.139065
0.139012
0.13896
0.138907
0.138855
0.138804
0.138752
0.138701
0.138651
0.1386
0.13855
0.1385
0.138451
0.138402
0.138353
0.138305
0.138257
0.13821
0.138163
0.138116
0.13807
0.138025
0.13798
0.137935
0.137891
0.137847
0.137804
0.137761
0.137719
0.137677
0.137636
0.137595
0.137555
0.137515
0.137476
0.137437
0.137399
0.137362
0.137325
0.137288
0.137252
0.137217
0.137182
0.137148
0.137114
0.137081
0.137048
0.137016
0.136984
0.136953
0.136923
0.136893
0.136864
0.136835
0.136808
0.13678
0.136754
0.136728
0.136702
0.136678
0.136654
0.136631
0.136609
0.136587
0.136566
0.136547
0.136528
0.13651
0.136492
0.136476
0.136461
0.136447
0.136435
0.136423
0.136412
0.136403
0.136396
0.136389
0.136384
0.136381
0.136379
0.136379
0.13638
0.136384
0.136389
0.136397
0.136406
0.136419
0.136433
0.136451
0.136473
0.136498
0.136528
0.136563
0.136604
0.136654
0.136714
0.136786
0.136873
0.13698
0.13711
0.137271
0.137469
0.139973
0.13992
0.139866
0.139813
0.139759
0.139705
0.139651
0.139597
0.139543
0.139489
0.139435
0.139381
0.139327
0.139273
0.13922
0.139166
0.139113
0.13906
0.139007
0.138954
0.138901
0.138849
0.138797
0.138745
0.138694
0.138643
0.138592
0.138541
0.138491
0.138442
0.138392
0.138343
0.138295
0.138246
0.138199
0.138151
0.138104
0.138058
0.138012
0.137966
0.137921
0.137876
0.137832
0.137789
0.137746
0.137703
0.137661
0.137619
0.137578
0.137537
0.137497
0.137458
0.137419
0.13738
0.137342
0.137305
0.137268
0.137232
0.137196
0.137161
0.137126
0.137092
0.137058
0.137025
0.136993
0.136961
0.13693
0.136899
0.136869
0.13684
0.136811
0.136783
0.136756
0.136729
0.136703
0.136677
0.136653
0.136629
0.136606
0.136583
0.136562
0.136541
0.136521
0.136502
0.136484
0.136467
0.136451
0.136436
0.136422
0.136409
0.136398
0.136388
0.136379
0.136371
0.136365
0.13636
0.136357
0.136355
0.136355
0.136357
0.136361
0.136366
0.136374
0.136384
0.136397
0.136412
0.13643
0.136451
0.136477
0.136507
0.136542
0.136585
0.136635
0.136695
0.136767
0.136855
0.136962
0.137094
0.137255
0.137455
0.139973
0.139919
0.139866
0.139812
0.139757
0.139703
0.139649
0.139595
0.13954
0.139486
0.139432
0.139378
0.139323
0.139269
0.139215
0.139162
0.139108
0.139054
0.139001
0.138948
0.138895
0.138842
0.13879
0.138738
0.138686
0.138634
0.138583
0.138532
0.138482
0.138431
0.138381
0.138332
0.138283
0.138234
0.138186
0.138138
0.138091
0.138044
0.137997
0.137951
0.137906
0.137861
0.137816
0.137772
0.137729
0.137685
0.137643
0.137601
0.137559
0.137518
0.137478
0.137438
0.137398
0.137359
0.137321
0.137283
0.137246
0.137209
0.137173
0.137137
0.137102
0.137068
0.137034
0.137001
0.136968
0.136936
0.136904
0.136873
0.136843
0.136814
0.136785
0.136756
0.136729
0.136702
0.136675
0.13665
0.136625
0.136601
0.136578
0.136555
0.136533
0.136513
0.136493
0.136474
0.136456
0.136439
0.136423
0.136408
0.136394
0.136382
0.13637
0.13636
0.136351
0.136344
0.136338
0.136333
0.13633
0.136329
0.136329
0.136331
0.136335
0.136341
0.136349
0.13636
0.136372
0.136388
0.136406
0.136428
0.136454
0.136484
0.13652
0.136562
0.136613
0.136674
0.136747
0.136835
0.136943
0.137076
0.137239
0.13744
0.139973
0.139919
0.139865
0.139811
0.139756
0.139702
0.139647
0.139592
0.139538
0.139483
0.139429
0.139374
0.13932
0.139265
0.139211
0.139157
0.139102
0.139049
0.138995
0.138941
0.138888
0.138835
0.138782
0.138729
0.138677
0.138625
0.138573
0.138522
0.138471
0.13842
0.13837
0.13832
0.138271
0.138221
0.138173
0.138124
0.138077
0.138029
0.137982
0.137936
0.13789
0.137844
0.137799
0.137754
0.13771
0.137667
0.137624
0.137581
0.137539
0.137497
0.137456
0.137416
0.137376
0.137337
0.137298
0.13726
0.137222
0.137185
0.137148
0.137112
0.137077
0.137042
0.137008
0.136974
0.136941
0.136909
0.136877
0.136846
0.136815
0.136785
0.136756
0.136727
0.136699
0.136672
0.136646
0.13662
0.136595
0.136571
0.136548
0.136525
0.136503
0.136483
0.136463
0.136444
0.136426
0.136409
0.136393
0.136378
0.136364
0.136352
0.136341
0.136331
0.136322
0.136315
0.136309
0.136305
0.136302
0.136301
0.136302
0.136304
0.136308
0.136314
0.136323
0.136333
0.136346
0.136362
0.13638
0.136403
0.136429
0.136459
0.136496
0.136538
0.136589
0.136651
0.136724
0.136813
0.136922
0.137056
0.13722
0.137423
0.139973
0.139919
0.139864
0.139809
0.139755
0.1397
0.139645
0.13959
0.139535
0.13948
0.139425
0.13937
0.139315
0.139261
0.139206
0.139151
0.139097
0.139042
0.138988
0.138934
0.138881
0.138827
0.138774
0.138721
0.138668
0.138615
0.138563
0.138511
0.13846
0.138409
0.138358
0.138308
0.138257
0.138208
0.138159
0.13811
0.138061
0.138013
0.137966
0.137919
0.137872
0.137826
0.137781
0.137735
0.137691
0.137647
0.137603
0.13756
0.137517
0.137475
0.137434
0.137393
0.137353
0.137313
0.137273
0.137235
0.137197
0.137159
0.137122
0.137085
0.13705
0.137014
0.13698
0.136946
0.136912
0.13688
0.136847
0.136816
0.136785
0.136755
0.136725
0.136697
0.136669
0.136641
0.136615
0.136589
0.136564
0.136539
0.136516
0.136493
0.136471
0.136451
0.136431
0.136412
0.136394
0.136377
0.136361
0.136347
0.136333
0.136321
0.13631
0.1363
0.136291
0.136284
0.136279
0.136275
0.136272
0.136271
0.136272
0.136275
0.136279
0.136286
0.136294
0.136305
0.136318
0.136334
0.136353
0.136376
0.136402
0.136433
0.13647
0.136513
0.136564
0.136626
0.1367
0.13679
0.1369
0.137035
0.137201
0.137406
0.139973
0.139918
0.139863
0.139808
0.139753
0.139698
0.139643
0.139588
0.139532
0.139477
0.139422
0.139366
0.139311
0.139256
0.139201
0.139146
0.139091
0.139036
0.138982
0.138927
0.138873
0.138819
0.138765
0.138712
0.138658
0.138605
0.138553
0.1385
0.138448
0.138397
0.138345
0.138294
0.138244
0.138193
0.138144
0.138094
0.138045
0.137997
0.137949
0.137901
0.137854
0.137807
0.137761
0.137716
0.13767
0.137626
0.137582
0.137538
0.137495
0.137452
0.13741
0.137369
0.137328
0.137287
0.137248
0.137208
0.13717
0.137132
0.137094
0.137057
0.137021
0.136986
0.136951
0.136916
0.136882
0.136849
0.136817
0.136785
0.136754
0.136723
0.136694
0.136665
0.136636
0.136609
0.136582
0.136556
0.136531
0.136506
0.136483
0.13646
0.136438
0.136417
0.136397
0.136378
0.136361
0.136344
0.136328
0.136313
0.1363
0.136288
0.136277
0.136267
0.136259
0.136252
0.136247
0.136243
0.136241
0.13624
0.136241
0.136244
0.136249
0.136255
0.136264
0.136275
0.136289
0.136305
0.136324
0.136347
0.136374
0.136405
0.136442
0.136486
0.136538
0.1366
0.136675
0.136766
0.136876
0.137012
0.13718
0.137387
0.139973
0.139918
0.139863
0.139807
0.139752
0.139696
0.139641
0.139585
0.13953
0.139474
0.139418
0.139362
0.139307
0.139251
0.139196
0.13914
0.139085
0.13903
0.138975
0.13892
0.138865
0.13881
0.138756
0.138702
0.138648
0.138595
0.138542
0.138489
0.138436
0.138384
0.138332
0.13828
0.138229
0.138179
0.138128
0.138078
0.138029
0.13798
0.137931
0.137883
0.137835
0.137788
0.137741
0.137695
0.137649
0.137604
0.137559
0.137515
0.137471
0.137428
0.137386
0.137344
0.137302
0.137261
0.137221
0.137181
0.137142
0.137104
0.137066
0.137028
0.136992
0.136955
0.13692
0.136885
0.136851
0.136818
0.136785
0.136753
0.136721
0.13669
0.13666
0.136631
0.136603
0.136575
0.136548
0.136522
0.136496
0.136472
0.136448
0.136425
0.136404
0.136383
0.136363
0.136344
0.136326
0.136309
0.136294
0.136279
0.136266
0.136254
0.136243
0.136234
0.136226
0.136219
0.136214
0.13621
0.136208
0.136208
0.136209
0.136212
0.136217
0.136224
0.136233
0.136245
0.136258
0.136275
0.136294
0.136317
0.136344
0.136376
0.136413
0.136457
0.13651
0.136572
0.136648
0.13674
0.136852
0.136989
0.137158
0.137366
0.139972
0.139917
0.139862
0.139806
0.139751
0.139695
0.139639
0.139583
0.139527
0.139471
0.139415
0.139358
0.139302
0.139246
0.13919
0.139134
0.139079
0.139023
0.138967
0.138912
0.138857
0.138802
0.138747
0.138692
0.138638
0.138584
0.13853
0.138477
0.138424
0.138371
0.138318
0.138266
0.138214
0.138163
0.138112
0.138062
0.138011
0.137962
0.137913
0.137864
0.137815
0.137768
0.13772
0.137673
0.137627
0.137581
0.137536
0.137491
0.137447
0.137403
0.13736
0.137317
0.137275
0.137234
0.137193
0.137153
0.137113
0.137074
0.137036
0.136998
0.136961
0.136924
0.136889
0.136853
0.136819
0.136785
0.136752
0.136719
0.136688
0.136657
0.136626
0.136597
0.136568
0.13654
0.136513
0.136486
0.136461
0.136436
0.136413
0.13639
0.136368
0.136347
0.136327
0.136308
0.136291
0.136274
0.136258
0.136244
0.136231
0.136219
0.136208
0.136199
0.136191
0.136185
0.13618
0.136176
0.136175
0.136174
0.136176
0.136179
0.136185
0.136192
0.136201
0.136213
0.136227
0.136244
0.136263
0.136287
0.136314
0.136346
0.136384
0.136428
0.136481
0.136544
0.13662
0.136713
0.136825
0.136964
0.137135
0.137345
0.139972
0.139917
0.139861
0.139805
0.139749
0.139693
0.139637
0.13958
0.139524
0.139467
0.139411
0.139354
0.139298
0.139241
0.139185
0.139129
0.139072
0.139016
0.13896
0.138904
0.138848
0.138793
0.138738
0.138682
0.138628
0.138573
0.138519
0.138465
0.138411
0.138357
0.138304
0.138252
0.138199
0.138147
0.138096
0.138044
0.137994
0.137943
0.137894
0.137844
0.137795
0.137747
0.137699
0.137651
0.137604
0.137558
0.137512
0.137466
0.137422
0.137377
0.137334
0.137291
0.137248
0.137206
0.137165
0.137124
0.137084
0.137044
0.137005
0.136967
0.136929
0.136893
0.136856
0.136821
0.136786
0.136752
0.136718
0.136685
0.136653
0.136622
0.136591
0.136561
0.136533
0.136504
0.136477
0.136451
0.136425
0.1364
0.136376
0.136353
0.136332
0.136311
0.136291
0.136272
0.136254
0.136238
0.136222
0.136208
0.136195
0.136183
0.136173
0.136164
0.136156
0.13615
0.136145
0.136142
0.13614
0.13614
0.136142
0.136146
0.136151
0.136159
0.136168
0.13618
0.136194
0.136211
0.136231
0.136255
0.136282
0.136315
0.136353
0.136397
0.136451
0.136514
0.136591
0.136685
0.136798
0.136938
0.13711
0.137323
0.139972
0.139916
0.13986
0.139804
0.139748
0.139691
0.139634
0.139578
0.139521
0.139464
0.139407
0.13935
0.139293
0.139236
0.139179
0.139123
0.139066
0.139009
0.138953
0.138896
0.13884
0.138784
0.138728
0.138672
0.138617
0.138562
0.138507
0.138452
0.138398
0.138344
0.13829
0.138237
0.138184
0.138131
0.138079
0.138027
0.137976
0.137925
0.137874
0.137824
0.137774
0.137725
0.137677
0.137629
0.137581
0.137534
0.137487
0.137441
0.137396
0.137351
0.137307
0.137263
0.13722
0.137177
0.137135
0.137094
0.137054
0.137013
0.136974
0.136935
0.136897
0.13686
0.136823
0.136787
0.136752
0.136717
0.136683
0.13665
0.136618
0.136586
0.136556
0.136526
0.136496
0.136468
0.13644
0.136414
0.136388
0.136363
0.136339
0.136316
0.136295
0.136274
0.136254
0.136235
0.136217
0.136201
0.136185
0.136171
0.136158
0.136147
0.136136
0.136128
0.13612
0.136114
0.136109
0.136106
0.136105
0.136105
0.136107
0.136111
0.136117
0.136125
0.136134
0.136146
0.136161
0.136178
0.136198
0.136222
0.13625
0.136283
0.136321
0.136366
0.13642
0.136484
0.136562
0.136656
0.13677
0.136911
0.137085
0.1373
0.139972
0.139916
0.139859
0.139803
0.139746
0.139689
0.139632
0.139575
0.139518
0.139461
0.139403
0.139346
0.139289
0.139231
0.139174
0.139116
0.139059
0.139002
0.138945
0.138888
0.138831
0.138775
0.138718
0.138662
0.138606
0.13855
0.138495
0.138439
0.138384
0.13833
0.138275
0.138221
0.138168
0.138114
0.138062
0.138009
0.137957
0.137905
0.137854
0.137804
0.137753
0.137703
0.137654
0.137605
0.137557
0.137509
0.137462
0.137416
0.13737
0.137324
0.137279
0.137235
0.137191
0.137148
0.137106
0.137064
0.137023
0.136982
0.136942
0.136903
0.136865
0.136827
0.13679
0.136753
0.136718
0.136683
0.136648
0.136615
0.136582
0.13655
0.136519
0.136489
0.13646
0.136431
0.136403
0.136377
0.136351
0.136326
0.136302
0.136279
0.136257
0.136236
0.136216
0.136198
0.13618
0.136163
0.136148
0.136134
0.136121
0.13611
0.1361
0.136091
0.136084
0.136078
0.136073
0.136071
0.136069
0.13607
0.136072
0.136076
0.136082
0.13609
0.1361
0.136112
0.136127
0.136144
0.136165
0.136189
0.136217
0.13625
0.136288
0.136334
0.136388
0.136453
0.136531
0.136626
0.136741
0.136884
0.137059
0.137276
0.139972
0.139915
0.139859
0.139802
0.139745
0.139687
0.13963
0.139573
0.139515
0.139457
0.139399
0.139342
0.139284
0.139226
0.139168
0.13911
0.139052
0.138995
0.138937
0.13888
0.138822
0.138765
0.138708
0.138651
0.138595
0.138538
0.138482
0.138426
0.138371
0.138315
0.13826
0.138206
0.138151
0.138098
0.138044
0.137991
0.137938
0.137886
0.137834
0.137783
0.137732
0.137681
0.137631
0.137582
0.137533
0.137485
0.137437
0.13739
0.137343
0.137297
0.137251
0.137206
0.137162
0.137119
0.137075
0.137033
0.136991
0.13695
0.13691
0.13687
0.136831
0.136793
0.136756
0.136719
0.136683
0.136647
0.136613
0.136579
0.136546
0.136514
0.136483
0.136452
0.136423
0.136394
0.136366
0.136339
0.136313
0.136288
0.136264
0.136241
0.136219
0.136198
0.136178
0.13616
0.136142
0.136126
0.13611
0.136097
0.136084
0.136073
0.136063
0.136054
0.136047
0.136041
0.136037
0.136034
0.136033
0.136034
0.136036
0.13604
0.136046
0.136055
0.136065
0.136077
0.136092
0.13611
0.13613
0.136155
0.136183
0.136216
0.136255
0.136301
0.136355
0.136421
0.136499
0.136595
0.136712
0.136855
0.137032
0.137251
0.139972
0.139915
0.139858
0.139801
0.139743
0.139686
0.139628
0.13957
0.139512
0.139454
0.139396
0.139337
0.139279
0.139221
0.139162
0.139104
0.139046
0.138988
0.138929
0.138871
0.138813
0.138756
0.138698
0.138641
0.138583
0.138526
0.13847
0.138413
0.138357
0.138301
0.138245
0.13819
0.138135
0.13808
0.138026
0.137972
0.137919
0.137866
0.137813
0.137761
0.13771
0.137659
0.137608
0.137558
0.137508
0.137459
0.137411
0.137363
0.137316
0.137269
0.137223
0.137178
0.137133
0.137088
0.137045
0.137002
0.13696
0.136918
0.136877
0.136837
0.136798
0.136759
0.136721
0.136684
0.136647
0.136612
0.136577
0.136543
0.13651
0.136477
0.136446
0.136415
0.136385
0.136356
0.136328
0.136301
0.136275
0.13625
0.136226
0.136203
0.136181
0.13616
0.13614
0.136121
0.136104
0.136088
0.136073
0.136059
0.136046
0.136035
0.136025
0.136017
0.13601
0.136004
0.136
0.135997
0.135997
0.135997
0.136
0.136004
0.13601
0.136019
0.136029
0.136042
0.136057
0.136074
0.136095
0.13612
0.136148
0.136182
0.136221
0.136267
0.136322
0.136388
0.136467
0.136563
0.136681
0.136826
0.137005
0.137226
0.139972
0.139915
0.139857
0.1398
0.139742
0.139684
0.139626
0.139567
0.139509
0.13945
0.139392
0.139333
0.139274
0.139215
0.139157
0.139098
0.139039
0.13898
0.138922
0.138863
0.138804
0.138746
0.138688
0.13863
0.138572
0.138514
0.138457
0.1384
0.138343
0.138286
0.13823
0.138174
0.138118
0.138063
0.138008
0.137954
0.1379
0.137846
0.137793
0.13774
0.137688
0.137636
0.137585
0.137534
0.137484
0.137434
0.137385
0.137336
0.137288
0.137241
0.137194
0.137148
0.137103
0.137058
0.137014
0.136971
0.136928
0.136886
0.136844
0.136804
0.136764
0.136725
0.136686
0.136649
0.136612
0.136576
0.136541
0.136506
0.136473
0.13644
0.136408
0.136378
0.136348
0.136318
0.13629
0.136263
0.136237
0.136212
0.136188
0.136165
0.136143
0.136122
0.136102
0.136083
0.136066
0.136049
0.136034
0.136021
0.136008
0.135997
0.135987
0.135979
0.135972
0.135967
0.135963
0.13596
0.13596
0.13596
0.135963
0.135968
0.135974
0.135982
0.135993
0.136005
0.136021
0.136039
0.13606
0.136084
0.136113
0.136146
0.136186
0.136232
0.136288
0.136354
0.136434
0.136531
0.13665
0.136796
0.136977
0.137199
0.139971
0.139914
0.139856
0.139798
0.13974
0.139682
0.139623
0.139565
0.139506
0.139447
0.139388
0.139329
0.139269
0.13921
0.139151
0.139091
0.139032
0.138973
0.138914
0.138854
0.138795
0.138736
0.138678
0.138619
0.13856
0.138502
0.138444
0.138386
0.138329
0.138272
0.138215
0.138158
0.138102
0.138046
0.13799
0.137935
0.13788
0.137826
0.137772
0.137718
0.137665
0.137613
0.137561
0.137509
0.137459
0.137408
0.137358
0.137309
0.137261
0.137213
0.137165
0.137119
0.137073
0.137027
0.136983
0.136939
0.136896
0.136853
0.136811
0.13677
0.13673
0.13669
0.136651
0.136614
0.136576
0.13654
0.136504
0.13647
0.136436
0.136403
0.136371
0.13634
0.13631
0.136281
0.136252
0.136225
0.136199
0.136173
0.136149
0.136126
0.136104
0.136083
0.136063
0.136045
0.136027
0.136011
0.135996
0.135982
0.13597
0.135959
0.135949
0.135941
0.135934
0.135929
0.135925
0.135923
0.135922
0.135923
0.135926
0.13593
0.135937
0.135945
0.135956
0.135969
0.135984
0.136002
0.136023
0.136048
0.136077
0.136111
0.13615
0.136197
0.136253
0.136319
0.1364
0.136498
0.136618
0.136766
0.136948
0.137173
0.139971
0.139914
0.139856
0.139797
0.139739
0.13968
0.139621
0.139562
0.139503
0.139443
0.139384
0.139324
0.139265
0.139205
0.139145
0.139085
0.139025
0.138965
0.138906
0.138846
0.138786
0.138727
0.138667
0.138608
0.138549
0.13849
0.138431
0.138373
0.138315
0.138257
0.138199
0.138142
0.138085
0.138028
0.137972
0.137916
0.13786
0.137805
0.13775
0.137696
0.137643
0.137589
0.137537
0.137485
0.137433
0.137382
0.137332
0.137282
0.137233
0.137184
0.137136
0.137089
0.137043
0.136997
0.136951
0.136907
0.136863
0.13682
0.136778
0.136736
0.136696
0.136656
0.136616
0.136578
0.136541
0.136504
0.136468
0.136433
0.136399
0.136366
0.136334
0.136302
0.136272
0.136243
0.136214
0.136187
0.13616
0.136135
0.136111
0.136088
0.136065
0.136045
0.136025
0.136006
0.135989
0.135972
0.135958
0.135944
0.135932
0.135921
0.135911
0.135903
0.135896
0.135891
0.135887
0.135885
0.135884
0.135885
0.135888
0.135893
0.135899
0.135908
0.135919
0.135932
0.135947
0.135965
0.135986
0.136011
0.13604
0.136074
0.136114
0.136161
0.136217
0.136284
0.136366
0.136465
0.136586
0.136734
0.136918
0.137145
0.139971
0.139913
0.139855
0.139796
0.139737
0.139678
0.139619
0.13956
0.1395
0.13944
0.13938
0.13932
0.13926
0.139199
0.139139
0.139079
0.139018
0.138958
0.138898
0.138837
0.138777
0.138717
0.138657
0.138597
0.138537
0.138478
0.138418
0.138359
0.1383
0.138241
0.138183
0.138125
0.138067
0.13801
0.137953
0.137896
0.13784
0.137784
0.137729
0.137674
0.13762
0.137566
0.137513
0.13746
0.137408
0.137356
0.137305
0.137255
0.137205
0.137156
0.137107
0.137059
0.137012
0.136966
0.13692
0.136875
0.136831
0.136787
0.136744
0.136702
0.136661
0.136621
0.136581
0.136543
0.136505
0.136468
0.136432
0.136396
0.136362
0.136329
0.136296
0.136265
0.136234
0.136205
0.136176
0.136149
0.136122
0.136097
0.136072
0.136049
0.136027
0.136006
0.135986
0.135967
0.13595
0.135934
0.135919
0.135905
0.135893
0.135882
0.135873
0.135864
0.135858
0.135853
0.135849
0.135847
0.135846
0.135847
0.13585
0.135855
0.135862
0.13587
0.135881
0.135894
0.135909
0.135927
0.135949
0.135974
0.136003
0.136037
0.136077
0.136124
0.136181
0.136249
0.13633
0.13643
0.136552
0.136703
0.136888
0.137117
0.139971
0.139913
0.139854
0.139795
0.139736
0.139676
0.139617
0.139557
0.139497
0.139437
0.139376
0.139316
0.139255
0.139194
0.139133
0.139072
0.139011
0.13895
0.138889
0.138829
0.138768
0.138707
0.138646
0.138586
0.138525
0.138465
0.138405
0.138345
0.138286
0.138226
0.138167
0.138108
0.13805
0.137992
0.137934
0.137877
0.13782
0.137764
0.137708
0.137652
0.137597
0.137542
0.137488
0.137435
0.137382
0.13733
0.137278
0.137227
0.137177
0.137127
0.137078
0.137029
0.136982
0.136935
0.136888
0.136843
0.136798
0.136754
0.136711
0.136669
0.136627
0.136586
0.136546
0.136507
0.136469
0.136432
0.136395
0.13636
0.136325
0.136292
0.136259
0.136227
0.136197
0.136167
0.136138
0.13611
0.136084
0.136058
0.136034
0.136011
0.135988
0.135967
0.135947
0.135929
0.135911
0.135895
0.13588
0.135867
0.135854
0.135844
0.135834
0.135826
0.135819
0.135814
0.13581
0.135808
0.135808
0.135809
0.135812
0.135817
0.135823
0.135832
0.135842
0.135855
0.135871
0.135889
0.135911
0.135936
0.135965
0.135999
0.136039
0.136087
0.136144
0.136212
0.136295
0.136395
0.136518
0.13667
0.136857
0.137089
0.139971
0.139912
0.139853
0.139794
0.139734
0.139675
0.139615
0.139554
0.139494
0.139433
0.139372
0.139311
0.13925
0.139189
0.139127
0.139066
0.139004
0.138943
0.138881
0.13882
0.138758
0.138697
0.138636
0.138575
0.138514
0.138453
0.138392
0.138331
0.138271
0.138211
0.138151
0.138092
0.138033
0.137974
0.137915
0.137857
0.1378
0.137743
0.137686
0.13763
0.137574
0.137519
0.137464
0.13741
0.137356
0.137303
0.137251
0.137199
0.137148
0.137098
0.137048
0.136999
0.136951
0.136904
0.136857
0.136811
0.136766
0.136721
0.136678
0.136635
0.136593
0.136552
0.136511
0.136472
0.136433
0.136396
0.136359
0.136323
0.136289
0.136255
0.136222
0.13619
0.136159
0.136129
0.1361
0.136072
0.136046
0.13602
0.135996
0.135972
0.13595
0.135929
0.135909
0.13589
0.135873
0.135857
0.135842
0.135828
0.135816
0.135805
0.135795
0.135787
0.13578
0.135775
0.135772
0.135769
0.135769
0.13577
0.135773
0.135778
0.135784
0.135793
0.135804
0.135817
0.135832
0.13585
0.135872
0.135897
0.135926
0.135961
0.136001
0.136049
0.136106
0.136175
0.136258
0.136359
0.136484
0.136637
0.136826
0.13706
0.139971
0.139912
0.139853
0.139793
0.139733
0.139673
0.139612
0.139552
0.139491
0.13943
0.139368
0.139307
0.139245
0.139183
0.139121
0.139059
0.138997
0.138935
0.138873
0.138811
0.138749
0.138687
0.138625
0.138563
0.138502
0.13844
0.138379
0.138317
0.138256
0.138196
0.138135
0.138075
0.138015
0.137956
0.137897
0.137838
0.137779
0.137722
0.137664
0.137607
0.137551
0.137495
0.13744
0.137385
0.137331
0.137277
0.137224
0.137172
0.13712
0.137069
0.137019
0.136969
0.136921
0.136873
0.136825
0.136779
0.136733
0.136688
0.136644
0.136601
0.136559
0.136517
0.136476
0.136437
0.136398
0.13636
0.136323
0.136287
0.136252
0.136218
0.136185
0.136153
0.136122
0.136091
0.136062
0.136035
0.136008
0.135982
0.135957
0.135934
0.135912
0.13589
0.13587
0.135852
0.135834
0.135818
0.135803
0.135789
0.135777
0.135766
0.135756
0.135748
0.135741
0.135736
0.135733
0.13573
0.13573
0.135731
0.135734
0.135739
0.135745
0.135754
0.135764
0.135777
0.135793
0.135811
0.135832
0.135858
0.135887
0.135921
0.135962
0.13601
0.136068
0.136137
0.136221
0.136323
0.136448
0.136603
0.136794
0.13703
0.139971
0.139911
0.139852
0.139792
0.139732
0.139671
0.13961
0.139549
0.139488
0.139426
0.139364
0.139302
0.13924
0.139178
0.139115
0.139053
0.13899
0.138928
0.138865
0.138802
0.13874
0.138677
0.138614
0.138552
0.13849
0.138427
0.138365
0.138303
0.138242
0.13818
0.138119
0.138058
0.137998
0.137937
0.137878
0.137818
0.137759
0.1377
0.137642
0.137585
0.137528
0.137471
0.137415
0.13736
0.137305
0.137251
0.137197
0.137144
0.137092
0.13704
0.13699
0.13694
0.13689
0.136842
0.136794
0.136747
0.136701
0.136655
0.136611
0.136567
0.136525
0.136483
0.136442
0.136402
0.136363
0.136324
0.136287
0.136251
0.136215
0.136181
0.136148
0.136116
0.136084
0.136054
0.136025
0.135997
0.13597
0.135944
0.135919
0.135896
0.135873
0.135852
0.135832
0.135813
0.135795
0.135779
0.135764
0.13575
0.135738
0.135727
0.135717
0.135709
0.135702
0.135697
0.135693
0.135691
0.13569
0.135691
0.135694
0.135699
0.135705
0.135714
0.135724
0.135737
0.135753
0.135771
0.135792
0.135818
0.135847
0.135882
0.135922
0.135971
0.136029
0.136098
0.136183
0.136286
0.136413
0.136569
0.136761
0.137
0.13997
0.139911
0.139851
0.139791
0.13973
0.139669
0.139608
0.139546
0.139485
0.139423
0.13936
0.139298
0.139235
0.139172
0.13911
0.139046
0.138983
0.13892
0.138857
0.138794
0.13873
0.138667
0.138604
0.138541
0.138478
0.138415
0.138352
0.138289
0.138227
0.138165
0.138103
0.138041
0.13798
0.137919
0.137859
0.137798
0.137739
0.137679
0.13762
0.137562
0.137504
0.137447
0.13739
0.137334
0.137279
0.137224
0.13717
0.137116
0.137064
0.137012
0.13696
0.13691
0.13686
0.136811
0.136763
0.136715
0.136669
0.136623
0.136578
0.136534
0.136491
0.136449
0.136407
0.136367
0.136327
0.136289
0.136251
0.136215
0.136179
0.136145
0.136111
0.136079
0.136047
0.136017
0.135988
0.135959
0.135932
0.135906
0.135881
0.135858
0.135835
0.135814
0.135793
0.135775
0.135757
0.13574
0.135725
0.135711
0.135699
0.135688
0.135678
0.13567
0.135663
0.135657
0.135654
0.135651
0.13565
0.135651
0.135654
0.135659
0.135665
0.135673
0.135684
0.135697
0.135712
0.13573
0.135752
0.135777
0.135806
0.135841
0.135882
0.135931
0.135989
0.136059
0.136144
0.136248
0.136376
0.136533
0.136728
0.136969
0.13997
0.13991
0.13985
0.13979
0.139729
0.139667
0.139606
0.139544
0.139482
0.139419
0.139356
0.139293
0.13923
0.139167
0.139104
0.13904
0.138976
0.138912
0.138849
0.138785
0.138721
0.138657
0.138593
0.138529
0.138465
0.138402
0.138338
0.138275
0.138212
0.138149
0.138087
0.138024
0.137962
0.137901
0.137839
0.137779
0.137718
0.137658
0.137599
0.13754
0.137481
0.137423
0.137366
0.137309
0.137253
0.137198
0.137143
0.137089
0.137036
0.136983
0.136931
0.13688
0.13683
0.13678
0.136732
0.136684
0.136637