/*--------------------------------*- C++ -*----------------------------------*\
  =========                 |
  \\      /  F ield         | OpenFOAM: The Open Source CFD Toolbox
   \\    /   O peration     | Website:  https://openfoam.org
    \\  /    A nd           | Version:  8
     \\/     M anipulation  |
\*---------------------------------------------------------------------------*/
FoamFile
{
    version     2.0;
    format      ascii;
    class       volVectorField;
    location    "0.1384";
    object      U;
}
// * * * * * * * * * * * * * * * * * * * * * * * * * * * * * * * * * * * * * //

dimensions      [0 1 -1 0 0 0 0];

internalField   nonuniform List<vector> 
119000
(
(12.8539 -0.161441 0)
(12.5789 0.00728862 0)
(12.0942 0.0647701 0)
(11.5545 0.0694403 0)
(11.0125 0.0721076 0)
(10.4659 0.0746574 0)
(9.91171 0.0772043 -4.21633e-18)
(9.35008 0.079573 4.57715e-18)
(8.78415 0.0813351 0)
(8.22075 0.0818685 0)
(7.67241 0.080759 5.70847e-18)
(7.15867 0.0738617 -6.10114e-18)
(6.75204 0.0535958 0)
(6.59923 0.0227354 -1.28741e-17)
(6.62303 -0.00268811 2.52819e-17)
(6.69368 -0.00919762 -1.23864e-17)
(6.74493 0.000635213 0)
(6.75551 0.0133429 0)
(6.73183 0.0209493 -1.21823e-17)
(6.69291 0.0223886 1.2187e-17)
(6.65436 0.022265 0)
(6.6209 0.0220271 1.21673e-17)
(6.5925 0.0223454 -1.21415e-17)
(6.5655 0.0233047 0)
(6.53867 0.024673 -1.21079e-17)
(6.50993 0.0259736 1.20978e-17)
(6.4784 0.0272668 0)
(6.44421 0.0284263 -2.42077e-17)
(6.40827 0.0292128 2.42335e-17)
(6.3723 0.0299317 2.42596e-17)
(6.33774 0.0304054 -1.34767e-22)
(6.3053 0.0304887 -2.42905e-17)
(6.27539 0.0305522 -2.42927e-17)
(6.24763 0.0309787 2.42884e-17)
(6.22163 0.0313592 0)
(6.19741 0.0317256 0)
(6.17482 0.0320913 2.42447e-17)
(6.15371 0.0325199 -4.84455e-17)
(6.13389 0.0331403 2.41994e-17)
(6.11476 0.0336735 0)
(6.09624 0.0342194 0)
(6.07828 0.0350765 0)
(6.06065 0.0359056 0)
(6.04316 0.0367629 2.41015e-17)
(6.02496 0.0378694 -2.40987e-17)
(6.00452 0.0390411 0)
(5.9813 0.0403416 2.41508e-17)
(5.95546 0.041934 -2.42039e-17)
(5.92779 0.0436406 0)
(5.89857 0.0449246 -2.43465e-17)
(5.8681 0.0456662 2.44325e-17)
(5.83693 0.046584 0)
(5.80537 0.0475802 0)
(5.77333 0.0486277 0)
(5.7409 0.0496292 0)
(5.7081 0.0506646 -4.98853e-17)
(5.67514 0.0516441 5.01147e-17)
(5.64218 0.0526113 0)
(5.60949 0.0534696 0)
(5.57726 0.0542865 5.08107e-17)
(5.54566 0.0550286 -5.104e-17)
(5.51462 0.0558116 5.12672e-17)
(5.48399 0.0566208 -5.14972e-17)
(5.4536 0.0575011 0)
(5.4235 0.0583802 0)
(5.39373 0.0592668 -5.21906e-17)
(5.36443 0.0601269 5.24207e-17)
(5.33562 0.0609985 0)
(5.30726 0.0618698 -5.28745e-17)
(5.27923 0.0627569 5.31008e-17)
(5.25133 0.063618 -5.33289e-17)
(5.22331 0.0644074 5.35609e-17)
(5.19485 0.0650236 5.38004e-17)
(5.16552 0.0653837 -2.31029e-22)
(5.13473 0.0654752 -5.43222e-17)
(5.10091 0.0653201 -5.46368e-17)
(5.06301 0.0647345 5.50004e-17)
(5.02063 0.0634396 0)
(4.97384 0.0611252 -5.58615e-17)
(4.92266 0.0574064 5.63507e-17)
(4.86704 0.0519065 -5.68841e-17)
(4.80322 0.0446422 5.75604e-17)
(4.73251 0.0347801 5.82536e-17)
(4.65026 0.0210804 -5.9096e-17)
(4.55568 0.00774074 6.0137e-17)
(4.44441 -0.0103421 -6.14026e-17)
(4.31239 -0.0394589 0)
(4.1585 -0.0754118 6.48918e-17)
(3.97183 -0.117945 -6.73692e-17)
(3.74033 -0.170239 0)
(3.45348 -0.23311 0)
(3.10085 -0.306441 0)
(2.67982 -0.389718 0)
(2.18638 -0.494096 1.04784e-16)
(1.6571 -0.604358 -1.08935e-16)
(1.19269 -0.691084 0)
(0.90961 -0.789696 9.01078e-17)
(0.919064 -0.888634 -8.8311e-17)
(1.20796 -0.931884 0)
(1.60991 -0.924022 -1.01684e-16)
(13.0223 0.0207177 0)
(12.9724 0.0669471 0)
(12.9033 0.0826235 -2.6587e-19)
(12.7928 0.0848491 3.6059e-19)
(12.6677 0.0869462 0)
(12.5324 0.0880019 -1.02063e-18)
(12.3901 0.0890068 -1.14664e-18)
(12.2436 0.0898076 2.52412e-18)
(12.0947 0.0898713 2.73668e-18)
(11.9435 0.0886921 -2.93424e-18)
(11.7909 0.0853868 0)
(11.6394 0.0774367 -3.29114e-18)
(11.4746 0.0571861 1.02767e-17)
(11.2657 0.0305129 -1.3786e-17)
(11.0523 0.0108084 6.83523e-18)
(10.865 0.00419059 0)
(10.7071 0.00750347 0)
(10.5724 0.0110976 6.83482e-18)
(10.4553 0.0121868 -6.85063e-18)
(10.3477 0.012258 0)
(10.2455 0.0115495 0)
(10.1477 0.0107079 0)
(10.0541 0.0103677 6.84383e-18)
(9.9647 0.0105908 -1.36693e-17)
(9.87859 0.0110444 1.36522e-17)
(9.79503 0.0115098 6.82175e-18)
(9.71352 0.0120105 -8.00526e-23)
(9.63384 0.0122881 -2.73155e-17)
(9.5558 0.0122783 1.36743e-17)
(9.47962 0.0122114 0)
(9.40556 0.0119472 0)
(9.33377 0.0113894 0)
(9.26454 0.0108165 0)
(9.19813 0.0105261 0)
(9.1345 0.0101623 0)
(9.07371 0.00981591 1.36466e-17)
(9.0157 0.00947274 -1.3624e-17)
(8.96043 0.00913565 0)
(8.90791 0.00892333 0)
(8.8578 0.00868017 0)
(8.80993 0.00847107 1.35223e-17)
(8.76432 0.00848386 -1.34976e-17)
(8.72079 0.00845521 0)
(8.67922 0.00846414 0)
(8.63973 0.00866364 1.3437e-17)
(8.60171 0.00899111 -6.52788e-23)
(8.56481 0.00940114 -1.34534e-17)
(8.52886 0.0100272 -1.348e-17)
(8.4939 0.0106014 2.70287e-17)
(8.45972 0.0109353 -6.64807e-23)
(8.42606 0.0109555 -1.36e-17)
(8.39298 0.0111459 2.72974e-17)
(8.36058 0.0113004 -2.74027e-17)
(8.32881 0.0115209 2.75149e-17)
(8.29764 0.011664 -2.76345e-17)
(8.267 0.011873 -2.7759e-17)
(8.23691 0.0120248 2.78875e-17)
(8.20735 0.0121884 0)
(8.1784 0.0122383 -2.81465e-17)
(8.15009 0.0122913 2.8274e-17)
(8.12249 0.0122846 -2.83993e-17)
(8.09561 0.0123237 2.85247e-17)
(8.06942 0.0123493 0)
(8.04387 0.0124226 0)
(8.01894 0.0124583 2.89155e-17)
(7.99464 0.0124802 -2.90472e-17)
(7.97103 0.012449 0)
(7.94814 0.0124236 0)
(7.92598 0.0123947 -2.94399e-17)
(7.90451 0.0124106 2.95716e-17)
(7.88367 0.0124578 0)
(7.86333 0.0125529 2.98401e-17)
(7.84328 0.0126972 -2.99787e-17)
(7.82327 0.0129279 0)
(7.80294 0.0132746 3.02735e-17)
(7.78182 0.0137923 -3.04521e-17)
(7.75915 0.014427 0)
(7.73414 0.0151077 0)
(7.70591 0.0158008 -3.11038e-17)
(7.6736 0.016481 3.1332e-17)
(7.6361 0.0171883 -3.15536e-17)
(7.59318 0.0179121 6.36201e-17)
(7.54197 0.018693 -3.20332e-17)
(7.48065 0.020129 0)
(7.4072 0.0233724 3.24963e-17)
(7.31734 0.025332 -3.27273e-17)
(7.20677 0.0259894 0)
(7.06975 0.0285468 0)
(6.89789 0.031947 -3.34914e-17)
(6.67959 0.034676 6.76954e-17)
(6.40066 0.0366165 -3.43256e-17)
(6.04343 0.0367414 3.49896e-17)
(5.58797 0.0316452 5.16287e-22)
(5.01742 0.0188942 -3.71639e-17)
(4.33987 0.00351451 3.91119e-17)
(3.60594 -0.0186047 -8.44163e-17)
(2.90694 -0.0764688 4.72674e-17)
(2.44674 -0.198293 5.59842e-17)
(2.4841 -0.417712 -1.4197e-16)
(2.92114 -0.647918 1.28508e-16)
(13.0603 0.0195116 -1.50239e-20)
(13.0625 0.0639224 -4.40904e-20)
(13.0857 0.0828215 3.01393e-19)
(13.0745 0.0902687 -6.27479e-19)
(13.0467 0.0958471 5.22617e-19)
(13.0066 0.0992633 6.16108e-19)
(12.9572 0.101471 7.01014e-19)
(12.9011 0.103182 -3.11658e-18)
(12.8411 0.10408 1.70324e-18)
(12.7782 0.103513 0)
(12.7136 0.100458 0)
(12.6482 0.0921439 2.08977e-18)
(12.5752 0.0731207 2.19948e-18)
(12.4679 0.048718 -3.51411e-23)
(12.3254 0.0314826 -9.22482e-18)
(12.1716 0.0255792 2.64421e-23)
(12.0255 0.026619 4.73659e-18)
(11.8935 0.0286875 0)
(11.774 0.0296529 0)
(11.6627 0.0291897 0)
(11.556 0.0277446 0)
(11.4524 0.0262834 0)
(11.3516 0.0252737 -4.83786e-18)
(11.2541 0.0247673 9.69102e-18)
(11.1595 0.0246605 -4.85503e-18)
(11.0676 0.0246318 9.73782e-18)
(10.9784 0.0247966 -5.72191e-23)
(10.8916 0.0247654 -5.66627e-23)
(10.8071 0.0245875 -9.85094e-18)
(10.7245 0.0243241 -9.88421e-18)
(10.6441 0.0238443 5.46708e-23)
(10.5655 0.0230158 5.36975e-23)
(10.489 0.0221525 9.93764e-18)
(10.4149 0.0214699 0)
(10.3433 0.020746 0)
(10.2743 0.0200405 0)
(10.2081 0.0193305 0)
(10.1445 0.0186262 0)
(10.0836 0.0180587 0)
(10.0254 0.0174865 0)
(9.96957 0.0169631 0)
(9.91632 0.016612 0)
(9.86554 0.0162738 0)
(9.81713 0.0159879 0)
(9.77133 0.015861 0)
(9.72806 0.0158788 -9.89485e-18)
(9.68732 0.0160041 9.91079e-18)
(9.64886 0.0163715 9.93361e-18)
(9.61257 0.0167629 -9.96146e-18)
(9.57813 0.0170276 0)
(9.54506 0.0169803 0)
(9.51321 0.0170378 2.01284e-17)
(9.48254 0.0170691 -2.02068e-17)
(9.45295 0.0171905 2.02899e-17)
(9.42435 0.0172437 -2.03775e-17)
(9.39666 0.0173792 2.04679e-17)
(9.36983 0.017458 -2.056e-17)
(9.34381 0.0175482 0)
(9.31858 0.0175327 0)
(9.29413 0.0175271 -2.08275e-17)
(9.27045 0.0174585 2.0911e-17)
(9.24753 0.0174212 -2.0993e-17)
(9.22533 0.0173578 2.10767e-17)
(9.20385 0.0173358 -2.11607e-17)
(9.1831 0.0172752 2.12442e-17)
(9.16311 0.0172111 0)
(9.14392 0.0170982 -2.14038e-17)
(9.12554 0.016993 2.14802e-17)
(9.10802 0.0168854 -2.15546e-17)
(9.09135 0.0168284 2.16277e-17)
(9.07551 0.0168162 2.16995e-17)
(9.06045 0.0168907 -2.17709e-17)
(9.04607 0.0170628 2.1842e-17)
(9.03218 0.0173674 -2.19139e-17)
(9.01855 0.0178411 2.19893e-17)
(9.0049 0.0185483 -2.20812e-17)
(8.99073 0.0195099 0)
(8.97538 0.0207355 0)
(8.95803 0.0221717 -2.24279e-17)
(8.93772 0.023825 2.25497e-17)
(8.91319 0.0257471 -2.2665e-17)
(8.88372 0.0279866 2.27811e-17)
(8.84737 0.0307103 -2.28853e-17)
(8.80221 0.0342633 2.29792e-17)
(8.74592 0.038541 2.30634e-17)
(8.675 0.0440018 -2.31309e-17)
(8.58581 0.0517571 2.31818e-17)
(8.4737 0.0619829 -2.32164e-17)
(8.33192 0.0745907 2.32364e-17)
(8.15159 0.0911847 -2.32456e-17)
(7.92104 0.1137 0)
(7.62535 0.142659 -2.3255e-17)
(7.24465 0.178799 2.32768e-17)
(6.75624 0.217798 0)
(6.14428 0.242843 0)
(5.41449 0.239957 2.4372e-17)
(4.60827 0.207156 -2.56702e-17)
(3.86676 0.120906 0)
(3.50547 -0.102007 0)
(3.59637 -0.567618 0)
(13.0776 0.0126445 1.15428e-20)
(13.0963 0.0579089 3.01335e-20)
(13.1483 0.0793241 -1.0228e-19)
(13.1744 0.0890557 2.86408e-19)
(13.1851 0.0968171 -3.61252e-19)
(13.1825 0.101589 0)
(13.1687 0.104602 9.82576e-19)
(13.1462 0.107011 -1.69359e-23)
(13.118 0.108383 -1.20388e-18)
(13.0858 0.108157 0)
(13.0512 0.105451 -1.39969e-18)
(13.0149 0.0985202 1.49131e-18)
(12.9745 0.0843735 0)
(12.9171 0.0648375 3.3216e-18)
(12.8351 0.0501584 -6.91237e-18)
(12.7379 0.0445282 7.15524e-18)
(12.6377 0.0437329 -3.68589e-18)
(12.5388 0.0443407 0)
(12.4428 0.0446131 0)
(12.3497 0.0436101 0)
(12.2586 0.0418406 0)
(12.1685 0.0400416 -3.91826e-18)
(12.0795 0.0385928 2.47874e-23)
(11.992 0.0376127 3.97246e-18)
(11.9063 0.0370549 0)
(11.8223 0.0366163 0)
(11.7402 0.0364213 0)
(11.66 0.0360827 8.20645e-18)
(11.5816 0.035679 -8.27035e-18)
(11.5048 0.0351773 -8.32674e-18)
(11.4295 0.0345133 8.37377e-18)
(11.3555 0.0334617 8.4105e-18)
(11.283 0.0323525 -8.44076e-18)
(11.2124 0.0313447 0)
(11.1438 0.0302951 0)
(11.0773 0.0292562 0)
(11.0129 0.0282034 -8.51134e-18)
(10.9507 0.0271587 8.51909e-18)
(10.8907 0.0262562 0)
(10.833 0.025349 0)
(10.7774 0.0245048 -8.53379e-18)
(10.7242 0.0237871 8.53673e-18)
(10.6734 0.0230849 0)
(10.6248 0.022425 -8.53926e-18)
(10.5787 0.0218813 8.53975e-18)
(10.5351 0.0214579 -8.54385e-18)
(10.4942 0.0211453 8.55297e-18)
(10.4558 0.0210732 0)
(10.42 0.0211114 8.58058e-18)
(10.3865 0.0211095 -8.59735e-18)
(10.3547 0.0208564 0)
(10.3245 0.0206895 0)
(10.2956 0.0205005 1.73092e-17)
(10.2679 0.0204011 -1.73528e-17)
(10.2414 0.0202749 -1.73985e-17)
(10.2158 0.0202398 3.48904e-17)
(10.1912 0.0201543 -1.74917e-17)
(10.1673 0.0200891 0)
(10.1443 0.0199522 0)
(10.122 0.0198295 -1.76145e-17)
(10.1003 0.0196447 1.76477e-17)
(10.0792 0.0194757 0)
(10.0586 0.0192715 -1.77126e-17)
(10.0386 0.019091 3.54909e-17)
(10.0191 0.0188735 -1.7776e-17)
(10.0002 0.0186566 0)
(9.98186 0.0183973 1.78252e-17)
(9.96418 0.0181395 -1.78437e-17)
(9.94715 0.0178682 1.7858e-17)
(9.93079 0.0176279 -1.78684e-17)
(9.9151 0.0174286 -1.78746e-17)
(9.90007 0.0173216 1.7877e-17)
(9.88564 0.017322 0)
(9.8717 0.0174565 -1.78704e-17)
(9.8581 0.0178262 3.57296e-17)
(9.84458 0.0184636 -1.78714e-17)
(9.8308 0.0194096 0)
(9.81633 0.0207279 0)
(9.80056 0.0224233 -1.7941e-17)
(9.78269 0.0245394 1.79695e-17)
(9.76166 0.027147 0)
(9.73644 0.0303429 -1.80186e-17)
(9.70565 0.0343316 1.80384e-17)
(9.66751 0.0394881 0)
(9.61994 0.0459244 0)
(9.56003 0.0544392 0)
(9.48463 0.0649264 -1.80543e-17)
(9.39004 0.0779913 -3.70012e-23)
(9.2709 0.0942445 1.80237e-17)
(9.1201 0.115354 0)
(8.92825 0.142446 1.79589e-17)
(8.68339 0.175927 -3.58262e-17)
(8.3698 0.21693 1.78613e-17)
(7.96732 0.264474 0)
(7.45398 0.309234 0)
(6.81359 0.34159 0)
(6.04726 0.354594 0)
(5.21469 0.326166 1.92689e-17)
(4.56519 0.178077 -2.13135e-17)
(4.29164 -0.323937 0)
(13.0844 0.0104125 0)
(13.1078 0.0516954 0)
(13.168 0.0733262 0)
(13.2095 0.0847124 0)
(13.238 0.094095 0)
(13.2535 0.100454 0)
(13.2577 0.105021 7.47923e-19)
(13.2526 0.10844 -8.40031e-19)
(13.2412 0.110565 -9.26639e-19)
(13.2253 0.11093 1.00881e-18)
(13.2067 0.108783 0)
(13.1859 0.102837 0)
(13.1615 0.0907077 0)
(13.1265 0.0738736 2.61444e-18)
(13.0761 0.0606491 -5.49811e-18)
(13.0147 0.0549274 2.87665e-18)
(12.9495 0.0540414 2.99595e-18)
(12.883 0.0549611 -6.19803e-18)
(12.8158 0.055499 3.19293e-18)
(12.7477 0.0547106 0)
(12.6782 0.0530747 0)
(12.6074 0.0512458 0)
(12.5361 0.049636 0)
(12.4649 0.0484144 0)
(12.394 0.0476027 0)
(12.3238 0.0469092 0)
(12.2546 0.0464631 7.22574e-18)
(12.1865 0.045918 -4.19866e-23)
(12.1195 0.0453243 -7.39326e-18)
(12.0533 0.0446136 -7.46335e-18)
(11.9879 0.0438166 7.5223e-18)
(11.9233 0.0426141 0)
(11.8595 0.0413131 0)
(11.7968 0.040053 7.63631e-18)
(11.7354 0.0387413 -3.94117e-23)
(11.6754 0.037433 -1.53433e-17)
(11.6168 0.0361033 7.6815e-18)
(11.5596 0.0347745 0)
(11.5041 0.0335901 0)
(11.4502 0.0323875 0)
(11.3981 0.0312262 7.69595e-18)
(11.3478 0.030155 -7.69444e-18)
(11.2994 0.0290936 0)
(11.2531 0.0280802 0)
(11.2088 0.0271692 0)
(11.1665 0.0263557 0)
(11.1265 0.0256223 7.66201e-18)
(11.0887 0.0251031 -7.6569e-18)
(11.0532 0.0247474 0)
(11.0199 0.0244297 0)
(10.9883 0.0239318 -1.52908e-17)
(10.9583 0.0235149 1.52848e-17)
(10.9296 0.0230849 0)
(10.9021 0.0227685 1.52823e-17)
(10.8756 0.0224682 -3.05704e-17)
(10.8501 0.0222611 3.05788e-17)
(10.8254 0.022019 -1.52941e-17)
(10.8015 0.0218172 0)
(10.7783 0.0215742 0)
(10.7558 0.0213505 -1.53002e-17)
(10.7338 0.0210724 1.52986e-17)
(10.7123 0.020808 0)
(10.6912 0.0205096 1.53052e-17)
(10.6706 0.0202232 -1.53138e-17)
(10.6504 0.0199023 -1.53221e-17)
(10.6307 0.0195793 1.53291e-17)
(10.6114 0.0192226 0)
(10.5926 0.0188657 1.53371e-17)
(10.5743 0.0184893 -1.53379e-17)
(10.5565 0.0181342 1.53357e-17)
(10.5392 0.0178184 -1.53305e-17)
(10.5224 0.0175908 -1.53216e-17)
(10.5061 0.0174798 1.53089e-17)
(10.4901 0.0175467 0)
(10.4745 0.0178334 1.52734e-17)
(10.459 0.0184083 -1.52649e-17)
(10.4435 0.0193595 0)
(10.4276 0.0207457 0)
(10.4109 0.0226197 -1.52761e-17)
(10.3926 0.02506 1.5283e-17)
(10.372 0.0281624 0)
(10.3481 0.0320379 1.52901e-17)
(10.3197 0.036905 -1.52894e-17)
(10.2854 0.0431638 0)
(10.2433 0.0510809 0)
(10.1911 0.061089 0)
(10.1259 0.0729973 1.52426e-17)
(10.045 0.0887334 -1.52255e-17)
(9.94389 0.108844 1.52014e-17)
(9.81691 0.134095 -1.51708e-17)
(9.65641 0.165615 0)
(9.45284 0.204566 0)
(9.19372 0.252567 -1.50299e-17)
(8.86288 0.310203 2.99345e-17)
(8.44018 0.372712 -1.49186e-17)
(7.90325 0.431032 0)
(7.2332 0.475304 0)
(6.43214 0.489733 0)
(5.64256 0.429814 0)
(5.09036 0.0690467 0)
(13.0847 0.00938779 0)
(13.1084 0.045374 0)
(13.1685 0.0662048 6.05378e-20)
(13.2155 0.078953 -8.46142e-20)
(13.2522 0.08986 0)
(13.2767 0.0976144 2.58321e-19)
(13.2908 0.103733 2.98877e-19)
(13.2952 0.108515 -6.74498e-19)
(13.2939 0.111511 0)
(13.288 0.112332 0)
(13.2794 0.110669 0)
(13.2686 0.105421 9.5056e-19)
(13.2544 0.0945333 -1.01457e-18)
(13.2321 0.079504 2.15445e-18)
(13.1988 0.0672574 -4.55252e-18)
(13.158 0.061609 2.39445e-18)
(13.1148 0.0608321 0)
(13.0713 0.0619866 0)
(13.0273 0.0627816 0)
(12.9818 0.0624235 0)
(12.9339 0.0612131 -2.90671e-18)
(12.8838 0.0596547 2.9873e-18)
(12.8317 0.0581696 0)
(12.7783 0.0569695 3.12339e-18)
(12.7242 0.0561229 -6.37018e-18)
(12.6697 0.0553531 3.24545e-18)
(12.6152 0.0547981 0)
(12.5609 0.0541654 6.70075e-18)
(12.5068 0.0534998 -6.78726e-18)
(12.4528 0.0527102 -6.86225e-18)
(12.399 0.0518565 6.92391e-18)
(12.3452 0.0506188 0)
(12.2915 0.0492454 0)
(12.2381 0.0478598 0)
(12.1851 0.046415 7.04736e-18)
(12.1328 0.0449636 -7.05461e-18)
(12.0811 0.0434779 -7.05761e-18)
(12.0302 0.0419857 7.05783e-18)
(11.9801 0.0406248 0)
(11.931 0.0392225 0)
(11.8831 0.0378289 7.04268e-18)
(11.8364 0.036488 -1.40648e-17)
(11.7911 0.0351524 3.38002e-23)
(11.7472 0.033868 7.00301e-18)
(11.705 0.0326805 0)
(11.6644 0.0315817 0)
(11.6255 0.0305285 6.94762e-18)
(11.5882 0.0296538 -3.31568e-23)
(11.5529 0.0289752 -6.91379e-18)
(11.5193 0.0283913 -6.89773e-18)
(11.4874 0.0276734 -6.88244e-18)
(11.457 0.0270263 1.37363e-17)
(11.4277 0.0263987 -1.37138e-17)
(11.3996 0.0259106 1.36971e-17)
(11.3725 0.0254623 0)
(11.3464 0.0251062 1.36746e-17)
(11.3211 0.024743 -1.36671e-17)
(11.2967 0.0244397 0)
(11.2729 0.0241165 0)
(11.2498 0.0238127 -1.36474e-17)
(11.2272 0.0234612 1.36409e-17)
(11.2052 0.0231168 0)
(11.1838 0.0227401 1.36427e-17)
(11.1628 0.0223753 -1.36506e-17)
(11.1424 0.0219862 -1.36595e-17)
(11.1225 0.0216003 1.36682e-17)
(11.103 0.0211886 -1.36764e-17)
(11.084 0.0207771 1.36842e-17)
(11.0654 0.0203493 -1.36908e-17)
(11.0473 0.0199375 2.73911e-17)
(11.0295 0.0195519 -1.36979e-17)
(11.0122 0.0192404 0)
(10.9953 0.0190396 0)
(10.9787 0.0190384 -1.36838e-17)
(10.9623 0.0192585 2.73441e-17)
(10.9461 0.0197508 -1.36647e-17)
(10.9299 0.0206295 1.36615e-17)
(10.9135 0.0219873 -1.36606e-17)
(10.8964 0.0238995 -1.36597e-17)
(10.8781 0.0264632 1.36576e-17)
(10.8579 0.0297941 0)
(10.8351 0.0340236 1.36444e-17)
(10.8086 0.0393735 -3.71497e-23)
(10.7771 0.0462346 -2.72314e-17)
(10.7392 0.0549693 1.35947e-17)
(10.6928 0.0655711 -1.35693e-17)
(10.6355 0.0791792 2.70789e-17)
(10.5651 0.0961143 -1.35133e-17)
(10.4781 0.118502 0)
(10.3695 0.146304 0)
(10.2335 0.18084 0)
(10.0621 0.22391 0)
(9.84552 0.277401 -1.32795e-17)
(9.57078 0.342651 2.64124e-17)
(9.22143 0.417433 -1.31307e-17)
(8.77653 0.494467 1.30751e-17)
(8.21223 0.564643 -1.30726e-17)
(7.50303 0.615008 0)
(6.7019 0.626092 0)
(5.99124 0.417364 -1.40296e-17)
(13.0806 0.00823179 0)
(13.1029 0.0393159 0)
(13.1595 0.0589786 0)
(13.207 0.072705 0)
(13.2467 0.0848897 0)
(13.2754 0.0941685 0)
(13.2945 0.10176 4.9448e-19)
(13.3049 0.107403 -5.59862e-19)
(13.3098 0.110998 0)
(13.3101 0.112558 0)
(13.3084 0.111582 -7.43036e-19)
(13.3045 0.107052 8.01134e-19)
(13.2976 0.0971755 0)
(13.284 0.083569 1.82961e-18)
(13.2616 0.0720559 -3.88161e-18)
(13.2337 0.0663759 2.05031e-18)
(13.2047 0.065396 2.15791e-18)
(13.1763 0.0664117 -2.26329e-18)
(13.1483 0.0673125 0)
(13.1197 0.0673491 0)
(13.0893 0.066566 0)
(13.0568 0.06534 -2.65613e-18)
(13.0221 0.0641064 2.74091e-18)
(12.9854 0.0630851 0)
(12.9474 0.0623542 0)
(12.9083 0.0616617 0)
(12.8682 0.0611522 -6.0588e-18)
(12.8275 0.0605753 1.23383e-17)
(12.786 0.0599602 -6.26586e-18)
(12.7439 0.0592059 -6.34767e-18)
(12.7014 0.0583732 1.28239e-17)
(12.6582 0.0572059 -6.46078e-18)
(12.6146 0.0558761 0)
(12.5705 0.0544969 6.51552e-18)
(12.5262 0.0530425 -6.52549e-18)
(12.4818 0.0515632 0)
(12.4374 0.0500391 0)
(12.3929 0.0484998 0)
(12.3487 0.0470643 -6.52038e-18)
(12.3049 0.0455589 6.51232e-18)
(12.2616 0.04403 0)
(12.219 0.0425221 0)
(12.1772 0.0410055 -6.47162e-18)
(12.1365 0.0395359 3.08339e-23)
(12.0969 0.0381464 6.42986e-18)
(12.0584 0.0368429 0)
(12.0212 0.0355563 0)
(11.9853 0.0344134 0)
(11.9508 0.0334738 0)
(11.9179 0.032653 0)
(11.8864 0.0317359 -1.26269e-17)
(11.8561 0.0308863 1.25954e-17)
(11.8271 0.0300842 0)
(11.7991 0.0294265 -1.25538e-17)
(11.7723 0.0288238 1.25411e-17)
(11.7464 0.0283194 1.2532e-17)
(11.7213 0.0278407 -2.50514e-17)
(11.6971 0.0274324 1.2521e-17)
(11.6736 0.0270184 0)
(11.6507 0.0266209 -1.25139e-17)
(11.6284 0.0261841 1.25114e-17)
(11.6067 0.025746 1.2511e-17)
(11.5855 0.0252772 -1.25148e-17)
(11.5649 0.0248201 0)
(11.5449 0.0243504 0)
(11.5253 0.0238899 0)
(11.5062 0.0234141 1.25392e-17)
(11.4874 0.0229397 -5.50476e-23)
(11.4691 0.022451 -1.25511e-17)
(11.4512 0.0219726 0)
(11.4336 0.0215163 1.2557e-17)
(11.4164 0.0211284 -1.2556e-17)
(11.3995 0.0208517 0)
(11.3828 0.020772 0)
(11.3664 0.0209097 1.2531e-17)
(11.3499 0.0213185 -1.25211e-17)
(11.3335 0.022108 1.25132e-17)
(11.3167 0.0233878 -2.50122e-17)
(11.2994 0.0252581 4.86427e-23)
(11.2811 0.0278306 1.24887e-17)
(11.2613 0.0312386 1.24764e-17)
(11.2392 0.035633 -1.24608e-17)
(11.2141 0.0412307 0)
(11.1847 0.0483948 0)
(11.15 0.0575484 -1.23926e-17)
(11.1081 0.0686439 1.55132e-23)
(11.0569 0.0834864 1.23285e-17)
(10.9947 0.100503 -1.22977e-17)
(10.9188 0.123524 1.2265e-17)
(10.8249 0.152787 0)
(10.7081 0.189045 0)
(10.5622 0.234058 0)
(10.379 0.289817 0)
(10.1482 0.358459 0)
(9.8567 0.439959 0)
(9.48703 0.529916 0)
(9.01749 0.621129 0)
(8.41539 0.700884 0)
(7.68005 0.764201 0)
(6.9179 0.665276 0)
(13.0737 0.007002 0)
(13.0941 0.0337271 0)
(13.1455 0.0520783 0)
(13.1909 0.0664376 0)
(13.2308 0.0796787 0)
(13.261 0.0902596 0)
(13.2824 0.0991209 4.19824e-19)
(13.2964 0.105832 -4.76524e-19)
(13.3052 0.110245 -5.31569e-19)
(13.3102 0.112259 5.85421e-19)
(13.313 0.111522 0)
(13.314 0.107448 0)
(13.3125 0.0987573 0)
(13.3057 0.0864684 1.58822e-18)
(13.2911 0.0755394 -3.3818e-18)
(13.2722 0.0697219 1.79277e-18)
(13.2529 0.0683737 1.89346e-18)
(13.2349 0.0691384 -3.98476e-18)
(13.2179 0.0700329 2.09017e-18)
(13.2011 0.0702659 0)
(13.1833 0.0697653 -2.27813e-18)
(13.1638 0.068831 2.36755e-18)
(13.1425 0.067863 0)
(13.1195 0.0670525 0)
(13.0948 0.0664899 -2.61235e-18)
(13.0689 0.0659576 2.6865e-18)
(13.0416 0.065594 5.51041e-18)
(13.0131 0.06518 -3.19877e-23)
(12.9834 0.0647249 -5.7478e-18)
(12.9526 0.0641249 -5.84475e-18)
(12.9207 0.0634234 5.92251e-18)
(12.8876 0.0624234 0)
(12.8535 0.0612268 0)
(12.8185 0.0599497 6.04808e-18)
(12.7827 0.0585776 -3.08967e-23)
(12.7462 0.0571663 -1.21333e-17)
(12.7091 0.0557067 6.07104e-18)
(12.6714 0.0542151 0)
(12.6335 0.0527888 0)
(12.5955 0.0512661 0)
(12.5575 0.0496924 6.06159e-18)
(12.5197 0.048107 -1.21026e-17)
(12.4823 0.0464916 2.88282e-23)
(12.4454 0.0449079 6.01964e-18)
(12.4092 0.0433809 0)
(12.3737 0.0419257 0)
(12.3392 0.0404646 5.96111e-18)
(12.3056 0.0391145 -5.94301e-18)
(12.2731 0.0379546 0)
(12.2418 0.036922 -5.90859e-18)
(12.2117 0.035832 -5.8928e-18)
(12.1827 0.0348076 1.17565e-17)
(12.1548 0.0338374 0)
(12.1279 0.0330026 1.17131e-17)
(12.102 0.0322397 -2.33968e-17)
(12.077 0.0315888 2.33746e-17)
(12.0528 0.0309909 -1.1679e-17)
(12.0295 0.0304688 0)
(12.0068 0.0299525 0)
(11.9847 0.0294543 -1.16628e-17)
(11.9632 0.0289283 1.16602e-17)
(11.9422 0.0283988 0)
(11.9217 0.027844 1.16589e-17)
(11.9017 0.0273017 -1.16602e-17)
(11.8822 0.0267559 -1.16616e-17)
(11.8631 0.0262255 1.16629e-17)
(11.8445 0.025691 0)
(11.8262 0.02516 1.16688e-17)
(11.8083 0.0246172 -2.33447e-17)
(11.7907 0.0240825 2.33499e-17)
(11.7735 0.0235699 -1.1676e-17)
(11.7565 0.0231225 -1.16746e-17)
(11.7398 0.0227802 1.16703e-17)
(11.7234 0.0226182 0)
(11.7071 0.0226697 1.16515e-17)
(11.6908 0.0229974 -1.16422e-17)
(11.6744 0.0236962 0)
(11.6578 0.0248835 0)
(11.6407 0.0266774 -1.16172e-17)
(11.6227 0.0292018 1.16062e-17)
(11.6034 0.0326041 0)
(11.5822 0.0370473 1.15753e-17)
(11.5583 0.0427439 -1.15553e-17)
(11.531 0.0500351 -1.15326e-17)
(11.499 0.0593558 1.15068e-17)
(11.4611 0.0708711 -1.14775e-17)
(11.415 0.0857247 2.28879e-17)
(11.3595 0.103424 -1.14088e-17)
(11.2927 0.125977 1.13741e-17)
(11.2108 0.15576 -1.13322e-17)
(11.1097 0.193013 0)
(10.9841 0.238882 0)
(10.8276 0.295437 -1.11599e-17)
(10.6318 0.365323 2.21746e-17)
(10.3859 0.450095 -1.10052e-17)
(10.076 0.547825 0)
(9.68456 0.65372 0)
(9.18136 0.755795 0)
(8.5425 0.85755 0)
(7.80686 0.839423 -1.05262e-17)
(13.0652 0.00585645 6.48969e-21)
(13.0834 0.0287335 1.20656e-20)
(13.1292 0.045681 -1.07035e-24)
(13.1712 0.0603977 5.11518e-20)
(13.2095 0.0744803 -1.29708e-19)
(13.2395 0.086263 1.56237e-19)
(13.2619 0.0961938 1.81895e-19)
(13.2779 0.10379 -6.19216e-24)
(13.2894 0.108845 -4.62555e-19)
(13.2977 0.111327 0)
(13.3041 0.111004 -5.58445e-19)
(13.309 0.107498 1.21195e-18)
(13.3117 0.099655 -6.53572e-19)
(13.3098 0.0882872 1.40237e-18)
(13.3016 0.0779369 -2.99504e-18)
(13.2893 0.0720217 3.18364e-18)
(13.2771 0.0702661 -1.68483e-18)
(13.2664 0.0707075 0)
(13.2573 0.0714962 0)
(13.2487 0.071785 0)
(13.2398 0.071493 -2.03843e-18)
(13.2297 0.0707914 1.36209e-23)
(13.2182 0.0700325 2.20133e-18)
(13.2052 0.0694009 2.27845e-18)
(13.1907 0.0690003 -2.35271e-18)
(13.1749 0.0686447 0)
(13.1578 0.0684579 0)
(13.1395 0.0682395 5.11287e-18)
(13.1199 0.0679786 -5.23333e-18)
(13.099 0.067588 -5.34291e-18)
(13.0769 0.0670849 5.43888e-18)
(13.0532 0.066325 5.51865e-18)
(13.0282 0.0653439 -5.57856e-18)
(13.0018 0.0642467 0)
(12.9742 0.0630287 0)
(12.9455 0.0617608 0)
(12.9158 0.0604395 -5.679e-18)
(12.8852 0.0590611 5.69282e-18)
(12.8539 0.0577083 0)
(12.8221 0.0562375 0)
(12.7899 0.0546877 0)
(12.7575 0.0530944 -5.70212e-18)
(12.7251 0.0514496 2.70704e-23)
(12.6928 0.0498205 2.6902e-23)
(12.6607 0.0482189 5.66285e-18)
(12.629 0.0466603 0)
(12.5978 0.0450769 5.6282e-18)
(12.5673 0.0435699 -2.65153e-23)
(12.5375 0.0422325 -5.59362e-18)
(12.5087 0.0410265 0)
(12.4808 0.0397975 0)
(12.4537 0.0386249 0)
(12.4275 0.0375018 -1.10666e-17)
(12.4021 0.0365042 1.10438e-17)
(12.3777 0.0355958 0)
(12.354 0.0348091 1.10105e-17)
(12.3311 0.0340942 -1.09987e-17)
(12.3089 0.0334562 0)
(12.2873 0.0328357 0)
(12.2663 0.0322392 -1.09748e-17)
(12.2459 0.0316325 1.09716e-17)
(12.2259 0.0310298 0)
(12.2063 0.0304104 1.09694e-17)
(12.1872 0.0298018 -4.88846e-23)
(12.1685 0.0291954 -2.19402e-17)
(12.1501 0.028606 1.09705e-17)
(12.1322 0.0280182 -1.09724e-17)
(12.1146 0.0274346 1.09762e-17)
(12.0973 0.0268444 0)
(12.0804 0.0262626 0)
(12.0637 0.0257033 0)
(12.0473 0.0252035 0)
(12.0312 0.0247984 0)
(12.0152 0.0245581 -1.09805e-17)
(11.9994 0.0245324 2.19447e-17)
(11.9836 0.0247784 -1.09643e-17)
(11.9677 0.0253837 0)
(11.9516 0.0264694 0)
(11.935 0.0281631 -1.09368e-17)
(11.9176 0.0305977 1.09239e-17)
(11.8991 0.0339294 0)
(11.8789 0.0383281 0)
(11.8565 0.0440068 0)
(11.831 0.0512912 -1.08444e-17)
(11.8016 0.0605857 1.08186e-17)
(11.7671 0.0722755 -1.07896e-17)
(11.7257 0.0866567 2.15133e-17)
(11.6758 0.105354 -2.14374e-17)
(11.6164 0.127186 1.06809e-17)
(11.5446 0.15612 0)
(11.4564 0.193561 -1.0588e-17)
(11.3474 0.239734 1.05293e-17)
(11.2125 0.296328 0)
(11.0447 0.366111 1.03927e-17)
(10.8354 0.451647 -1.03119e-17)
(10.5732 0.552949 1.02231e-17)
(10.2442 0.668015 -1.01317e-17)
(9.82396 0.785431 0)
(9.28392 0.919348 0)
(8.61853 0.965284 0)
(13.0558 0.0048458 0)
(13.0717 0.024342 0)
(13.1119 0.03986 0)
(13.15 0.0547118 0)
(13.1858 0.0694674 0)
(13.2148 0.0822865 0)
(13.2373 0.0931335 3.2047e-19)
(13.2544 0.101469 -3.64965e-19)
(13.2677 0.107107 -4.08825e-19)
(13.2785 0.110058 4.5241e-19)
(13.2877 0.110049 0)
(13.2957 0.106891 0)
(13.302 0.099841 0)
(13.3041 0.0894373 1.25486e-18)
(13.3007 0.0795651 -2.68507e-18)
(13.294 0.0735249 1.42919e-18)
(13.2871 0.071387 1.51438e-18)
(13.2819 0.0714413 -3.19569e-18)
(13.2784 0.0720557 1.67953e-18)
(13.2759 0.0723667 0)
(13.2734 0.0721825 -1.83731e-18)
(13.2701 0.0716524 1.91323e-18)
(13.2657 0.0710575 0)
(13.26 0.0705803 0)
(13.2531 0.0703283 -2.12758e-18)
(13.245 0.0701341 2.19455e-18)
(13.2356 0.0700922 0)
(13.2252 0.0700395 4.64249e-18)
(13.2135 0.0699629 -4.76155e-18)
(13.2008 0.0697865 -4.87441e-18)
(13.1868 0.0694934 4.98e-18)
(13.1715 0.0689806 0)
(13.1547 0.0682534 0)
(13.1364 0.0673929 5.22122e-18)
(13.1165 0.0663919 -2.66942e-23)
(13.0953 0.0653213 -1.06118e-17)
(13.0729 0.06418 2.64934e-23)
(13.0494 0.0629589 5.36973e-18)
(13.0249 0.0617317 0)
(12.9995 0.0603708 0)
(12.9734 0.0589036 5.41319e-18)
(12.9467 0.0573638 -1.0827e-17)
(12.9196 0.0557543 2.56079e-23)
(12.8922 0.0541425 5.39732e-18)
(12.8646 0.0525247 0)
(12.8371 0.0509169 0)
(12.8097 0.0492647 5.35149e-18)
(12.7826 0.0476553 -5.3343e-18)
(12.7559 0.0461908 0)
(12.7299 0.044854 -5.29972e-18)
(12.7045 0.0435182 -5.2836e-18)
(12.6798 0.0422306 1.05371e-17)
(12.6557 0.040988 0)
(12.6324 0.0398601 0)
(12.6097 0.0388311 -1.04651e-17)
(12.5876 0.037925 2.08987e-17)
(12.5663 0.0370998 -1.04368e-17)
(12.5456 0.0363507 0)
(12.5254 0.0356292 0)
(12.5058 0.0349385 -1.04131e-17)
(12.4867 0.0342554 2.08224e-17)
(12.468 0.0335885 -1.04111e-17)
(12.4497 0.0329172 1.0412e-17)
(12.4318 0.0322579 -1.04137e-17)
(12.4142 0.0316044 -1.04158e-17)
(12.3969 0.0309662 1.04177e-17)
(12.3799 0.03033 0)
(12.3633 0.0296978 1.04237e-17)
(12.3469 0.029064 -2.08549e-17)
(12.3308 0.0284404 2.08622e-17)
(12.315 0.0278386 -1.0434e-17)
(12.2994 0.0272894 -1.04353e-17)
(12.284 0.0268245 2.08688e-17)
(12.2688 0.0265101 -2.08615e-17)
(12.2537 0.0264043 2.08482e-17)
(12.2386 0.0265637 -1.04167e-17)
(12.2234 0.0270734 0)
(12.208 0.0280506 0)
(12.1921 0.0296271 -1.03876e-17)
(12.1755 0.0319418 1.03737e-17)
(12.1579 0.0351547 0)
(12.1389 0.0394412 1.03371e-17)
(12.1179 0.0450136 -1.03146e-17)
(12.0943 0.0521842 -1.02911e-17)
(12.0673 0.0613175 1.02657e-17)
(12.0359 0.0729411 -1.02371e-17)
(11.9988 0.0870412 1.02051e-17)
(11.954 0.1058 0)
(11.9007 0.127519 1.01282e-17)
(11.8374 0.155005 -1.00872e-17)
(11.7602 0.191342 0)
(11.6652 0.237265 0)
(11.5481 0.293445 -9.91683e-18)
(11.4034 0.362243 1.9691e-17)
(11.2238 0.446762 -9.7656e-18)
(11.0001 0.548479 0)
(10.7211 0.668138 0)
(10.3677 0.794587 0)
(9.91548 0.950397 0)
(9.33578 1.04357 -8.96797e-18)
(13.046 0.00396979 0)
(13.0597 0.0204923 0)
(13.0946 0.0346274 0)
(13.1286 0.0494508 0)
(13.1615 0.0647397 0)
(13.1889 0.0783983 0)
(13.211 0.0900122 0)
(13.2287 0.0989706 0)
(13.2434 0.105086 -3.66039e-19)
(13.2562 0.108388 4.05863e-19)
(13.2677 0.108692 0)
(13.2783 0.105938 0)
(13.2875 0.0995238 0)
(13.293 0.0899204 0)
(13.2937 0.080497 -1.21493e-18)
(13.2913 0.0743995 1.29436e-18)
(13.2888 0.0718672 0)
(13.2879 0.071581 -1.4488e-18)
(13.2887 0.0719866 1.52353e-18)
(13.2907 0.0722251 0)
(13.2929 0.072092 1.66799e-18)
(13.2946 0.0717002 -1.73771e-18)
(13.2955 0.0712391 0)
(13.2953 0.0708918 0)
(13.294 0.0707712 0)
(13.2916 0.070721 0)
(13.2882 0.0708159 -4.11954e-18)
(13.2837 0.0709108 4.23799e-18)
(13.2783 0.0709857 0)
(13.2719 0.0709755 -4.46395e-18)
(13.2645 0.0708498 9.14243e-18)
(13.2559 0.0705513 -4.67266e-18)
(13.2461 0.0700686 0)
(13.2349 0.0694507 0)
(13.2222 0.0686918 0)
(13.2081 0.067852 -4.98055e-18)
(13.1926 0.066922 1.00677e-17)
(13.1758 0.0658942 -5.07832e-18)
(13.1578 0.064835 0)
(13.1387 0.0636324 0)
(13.1186 0.0622996 0)
(13.0975 0.0608709 5.15892e-18)