/*--------------------------------*- C++ -*---------------------------------*\ 
| ========                 |                                                 | 
| \      /  F ield         | OpenFOAM: The Open Source CFD Toolbox           | 
|  \    /   O peration     | Version:  v1812                                 | 
|   \  /    A nd           | Web:      www.OpenFOAM.com                      | 
|    \/     M anipulation  |                                                 | 
\*--------------------------------------------------------------------------*/ 
FoamFile
{
    version     2.0;
    format      ascii;
    class       volVectorField;
    location    "/home/james/dafoam/myRuns/bezier_foil/0.00000000001/";
    object      sens_CD_shapey;
}
// * * * * * * * * * * * * * * * * * * * * * * * * * * * * * * * * * * * * * //

dimensions      [0 0 0 0 0 0 0];
internalField   uniform (0 0 0);
boundaryField
{
    allWalls
    {
        type  wall;
        value nonuniform List<vector>
80
(
(0.019908 -0.007366 -0.000003)
(0.002316 0.000918 -0.000003)
(-0.012679 0.018152 -0.000003)
(-0.009526 0.018362 -0.000003)
(-0.004324 0.009954 -0.000003)
(0.002360 -0.002935 -0.000003)
(0.001258 0.000096 -0.000002)
(0.000185 0.000578 -0.000002)
(0.000460 -0.001329 -0.000002)
(0.000048 0.000082 -0.000002)
(0.000153 -0.000688 -0.000003)
(0.000118 -0.000785 -0.000003)
(0.000068 -0.000455 -0.000002)
(0.000025 -0.000223 -0.000002)
(0.000030 0.000183 -0.000002)
(0.000034 0.000482 0.000001)
(0.000057 0.000420 0.000004)
(0.000076 0.000616 0.000005)
(0.000072 0.000477 0.000005)
(0.000027 0.000057 0.000007)
(-0.000008 -0.000222 0.000016)
(0.000010 0.000115 0.000024)
(0.000018 0.000261 0.000024)
(0.000014 0.000189 0.000024)
(0.000031 0.000418 0.000024)
(0.000043 0.000592 0.000019)
(0.000032 0.000442 0.000015)
(0.000028 0.000401 0.000015)
(0.000027 0.000394 0.000015)
(0.000023 0.000356 0.000015)
(0.000032 0.000496 0.000010)
(0.000034 0.000525 0.000004)
(0.000028 0.000423 0.000004)
(0.000043 0.000681 0.000004)
(0.000074 0.001181 0.000004)
(0.000042 0.000515 0.000005)
(-0.000051 -0.001297 0.000006)
(0.000204 0.004406 0.000006)
(0.000680 0.012129 0.000006)
(0.000120 0.006565 0.000006)
(0.018186 0.009446 -0.000003)
(-0.001664 -0.005893 -0.000003)
(-0.014172 -0.020168 -0.000003)
(-0.007398 -0.015392 -0.000003)
(-0.002697 -0.007230 -0.000003)
(0.001552 0.001430 -0.000002)
(0.000685 -0.000739 -0.000002)
(0.000928 0.002068 -0.000002)
(0.000504 0.001454 -0.000002)
(-0.000121 -0.000870 -0.000003)
(0.000160 0.000763 -0.000003)
(0.000090 0.000544 -0.000003)
(0.000055 0.000279 -0.000002)
(0.000018 -0.000025 -0.000002)
(0.000031 -0.000189 0.000001)
(0.000039 -0.000418 0.000004)
(0.000048 -0.000224 0.000004)
(0.000068 -0.000502 0.000005)
(0.000073 -0.000642 0.000005)
(0.000041 -0.000263 0.000015)
(0.000003 0.000130 0.000024)
(-0.000001 0.000059 0.000024)
(0.000009 -0.000125 0.000024)
(0.000027 -0.000368 0.000024)
(0.000048 -0.000632 0.000020)
(0.000041 -0.000533 0.000015)
(0.000031 -0.000412 0.000015)
(0.000031 -0.000423 0.000015)
(0.000028 -0.000397 0.000015)
(0.000026 -0.000371 0.000010)
(0.000035 -0.000491 0.000004)
(0.000035 -0.000509 0.000004)
(0.000030 -0.000421 0.000004)
(0.000045 -0.000672 0.000004)
(0.000077 -0.001173 0.000005)
(0.000041 -0.000472 0.000006)
(-0.000055 0.001309 0.000006)
(0.000214 -0.004429 0.000006)
(0.000696 -0.012037 0.000006)
(0.000124 -0.006629 0.000006)
)
;
    }
}
