/*--------------------------------*- C++ -*---------------------------------*\ 
| ========                 |                                                 | 
| \      /  F ield         | OpenFOAM: The Open Source CFD Toolbox           | 
|  \    /   O peration     | Version:  v1812                                 | 
|   \  /    A nd           | Web:      www.OpenFOAM.com                      | 
|    \/     M anipulation  |                                                 | 
\*--------------------------------------------------------------------------*/ 
FoamFile
{
    version     2.0;
    format      ascii;
    class       volVectorField;
    location    "/home/james/dafoam/myRuns/bezier_foil/0.00000000001/";
    object      sens_CD_shapey;
}
// * * * * * * * * * * * * * * * * * * * * * * * * * * * * * * * * * * * * * //

dimensions      [0 0 0 0 0 0 0];
internalField   uniform (0 0 0);
boundaryField
{
    allWalls
    {
        type  wall;
        value nonuniform List<vector>
80
(
(0.019097 -0.007157 -0.000003)
(0.002831 0.000274 -0.000003)
(-0.012020 0.017150 -0.000003)
(-0.009699 0.018252 -0.000003)
(-0.004460 0.010006 -0.000003)
(0.002292 -0.002719 -0.000003)
(0.001209 0.000242 -0.000002)
(0.000185 0.000566 -0.000002)
(0.000442 -0.001221 -0.000002)
(0.000034 0.000151 -0.000002)
(0.000167 -0.000763 -0.000003)
(0.000125 -0.000801 -0.000003)
(0.000072 -0.000460 -0.000003)
(0.000027 -0.000229 -0.000002)
(0.000029 0.000138 -0.000002)
(0.000031 0.000468 0.000001)
(0.000051 0.000399 0.000003)
(0.000073 0.000648 0.000004)
(0.000071 0.000553 0.000005)
(0.000032 0.000133 0.000006)
(-0.000001 -0.000166 0.000016)
(0.000003 -0.000006 0.000025)
(0.000009 0.000120 0.000025)
(0.000026 0.000331 0.000025)
(0.000048 0.000616 0.000025)
(0.000042 0.000542 0.000020)
(0.000031 0.000397 0.000015)
(0.000032 0.000413 0.000015)
(0.000030 0.000395 0.000015)
(0.000028 0.000378 0.000015)
(0.000037 0.000488 0.000010)
(0.000040 0.000516 0.000005)
(0.000033 0.000403 0.000005)
(0.000053 0.000687 0.000005)
(0.000098 0.001276 0.000005)
(0.000053 0.000508 0.000005)
(-0.000078 -0.001591 0.000006)
(0.000283 0.004706 0.000006)
(0.000986 0.013768 0.000006)
(-0.000416 0.008525 0.000006)
(0.017770 0.009418 -0.000003)
(-0.000898 -0.004893 -0.000003)
(-0.013820 -0.019341 -0.000003)
(-0.007821 -0.015702 -0.000003)
(-0.002913 -0.007533 -0.000003)
(0.001509 0.001186 -0.000002)
(0.000655 -0.000883 -0.000002)
(0.000929 0.001984 -0.000002)
(0.000536 0.001532 -0.000002)
(-0.000097 -0.000764 -0.000003)
(0.000164 0.000754 -0.000004)
(0.000096 0.000564 -0.000003)
(0.000061 0.000307 -0.000003)
(0.000021 0.000006 -0.000002)
(0.000031 -0.000163 0.000000)
(0.000036 -0.000392 0.000003)
(0.000044 -0.000218 0.000003)
(0.000063 -0.000515 0.000004)
(0.000071 -0.000690 0.000005)
(0.000045 -0.000355 0.000015)
(0.000006 0.000109 0.000024)
(-0.000010 0.000214 0.000025)
(0.000010 -0.000105 0.000025)
(0.000049 -0.000632 0.000025)
(0.000053 -0.000668 0.000020)
(0.000038 -0.000468 0.000015)
(0.000038 -0.000472 0.000015)
(0.000035 -0.000440 0.000015)
(0.000035 -0.000435 0.000015)
(0.000034 -0.000418 0.000010)
(0.000042 -0.000515 0.000005)
(0.000044 -0.000535 0.000005)
(0.000038 -0.000433 0.000005)
(0.000059 -0.000721 0.000005)
(0.000110 -0.001344 0.000005)
(0.000058 -0.000540 0.000006)
(-0.000089 0.001614 0.000006)
(0.000316 -0.004882 0.000006)
(0.001087 -0.014275 0.000006)
(-0.000356 -0.007291 0.000006)
)
;
    }
}
