/*--------------------------------*- C++ -*----------------------------------*\
  =========                 |
  \\      /  F ield         | OpenFOAM: The Open Source CFD Toolbox
   \\    /   O peration     | Website:  https://openfoam.org
    \\  /    A nd           | Version:  8
     \\/     M anipulation  |
\*---------------------------------------------------------------------------*/
FoamFile
{
    version     2.0;
    format      ascii;
    class       volScalarField;
    location    "0.9";
    object      nut;
}
// * * * * * * * * * * * * * * * * * * * * * * * * * * * * * * * * * * * * * //

dimensions      [0 2 -1 0 0 0 0];

internalField   nonuniform List<scalar> 
277560
(
0.0100001
0.0100001
0.00999975
0.00999927
0.00999867
0.009998
0.0099973
0.00999659
0.00999589
0.00999522
0.00999461
0.00999407
0.00999359
0.00999321
0.0099929
0.00999269
0.00999256
0.00999252
0.00999258
0.00999271
0.00999294
0.00999325
0.00999364
0.00999412
0.00999468
0.00999532
0.00999604
0.00999684
0.00999773
0.0099987
0.00999976
0.0100009
0.0100021
0.0100034
0.0100048
0.0100063
0.0100079
0.0100096
0.0100113
0.0100131
0.010015
0.0100171
0.0100191
0.0100213
0.0100236
0.010026
0.0100284
0.0100309
0.0100336
0.0100363
0.0100391
0.010042
0.010045
0.0100481
0.0100512
0.0100544
0.0100577
0.010061
0.0100643
0.0100676
0.0100709
0.0100742
0.0100774
0.0100805
0.0100836
0.0100866
0.0100895
0.0100922
0.0100947
0.0100971
0.0100992
0.0101011
0.0101028
0.0101041
0.0101052
0.010106
0.0101064
0.0101065
0.0101063
0.0101056
0.0101047
0.0101033
0.0101016
0.0100995
0.0100971
0.0100943
0.0100913
0.0100879
0.0100843
0.0100804
0.0100763
0.0100719
0.0100674
0.0100628
0.0100581
0.0100532
0.0100484
0.0100435
0.0100386
0.0100337
0.0100289
0.0100242
0.0100195
0.010015
0.0100106
0.0100064
0.0100023
0.0099983
0.00999452
0.00999093
0.00998753
0.00998436
0.0099814
0.00997869
0.00997623
0.00997404
0.00997213
0.00997051
0.00996921
0.00996823
0.0100002
0.0100001
0.00999975
0.00999922
0.00999861
0.00999795
0.00999727
0.00999658
0.0099959
0.00999526
0.00999468
0.00999415
0.0099937
0.00999333
0.00999305
0.00999286
0.00999275
0.00999273
0.00999279
0.00999295
0.00999319
0.00999351
0.00999391
0.0099944
0.00999497
0.00999563
0.00999636
0.00999718
0.00999808
0.00999907
0.0100001
0.0100013
0.0100026
0.0100039
0.0100053
0.0100069
0.0100085
0.0100102
0.010012
0.010014
0.010016
0.0100181
0.0100203
0.0100226
0.0100249
0.0100274
0.0100299
0.0100325
0.0100352
0.010038
0.0100408
0.0100437
0.0100467
0.0100497
0.0100527
0.0100558
0.010059
0.0100622
0.0100654
0.0100687
0.010072
0.0100753
0.0100785
0.0100817
0.0100848
0.0100878
0.0100907
0.0100934
0.010096
0.0100984
0.0101006
0.0101025
0.0101042
0.0101056
0.0101067
0.0101076
0.0101081
0.0101082
0.0101081
0.0101075
0.0101066
0.0101054
0.0101037
0.0101017
0.0100993
0.0100965
0.0100935
0.0100901
0.0100864
0.0100825
0.0100784
0.0100741
0.0100695
0.0100649
0.0100601
0.0100553
0.0100504
0.0100455
0.0100406
0.0100357
0.0100308
0.0100261
0.0100214
0.0100169
0.0100124
0.0100082
0.0100041
0.0100001
0.00999639
0.00999285
0.00998951
0.00998639
0.0099835
0.00998084
0.00997844
0.0099763
0.00997444
0.00997288
0.00997163
0.00997071
0.00999974
0.00999912
0.00999852
0.00999792
0.0099973
0.00999665
0.00999597
0.0099953
0.00999463
0.009994
0.00999343
0.00999291
0.00999247
0.0099921
0.00999182
0.00999163
0.00999152
0.0099915
0.00999156
0.00999171
0.00999194
0.00999226
0.00999266
0.00999314
0.00999371
0.00999435
0.00999507
0.00999587
0.00999676
0.00999772
0.00999876
0.00999989
0.0100011
0.0100024
0.0100038
0.0100053
0.0100068
0.0100086
0.0100104
0.0100124
0.0100145
0.0100167
0.010019
0.0100213
0.0100238
0.0100264
0.010029
0.0100317
0.0100346
0.0100375
0.0100404
0.0100435
0.0100466
0.0100498
0.010053
0.0100563
0.0100596
0.010063
0.0100664
0.0100697
0.0100731
0.0100765
0.0100798
0.0100831
0.0100863
0.0100894
0.0100923
0.0100951
0.0100977
0.0101
0.0101022
0.010104
0.0101056
0.0101069
0.0101079
0.0101086
0.010109
0.010109
0.0101086
0.0101079
0.0101068
0.0101053
0.0101035
0.0101013
0.0100988
0.0100959
0.0100928
0.0100893
0.0100856
0.0100816
0.0100774
0.010073
0.0100685
0.0100638
0.0100591
0.0100542
0.0100494
0.0100445
0.0100396
0.0100348
0.01003
0.0100253
0.0100207
0.0100163
0.010012
0.0100078
0.0100039
0.01
0.00999642
0.009993
0.00998978
0.00998677
0.00998399
0.00998144
0.00997912
0.00997707
0.00997528
0.00997379
0.00997261
0.00997176
0.00999907
0.00999793
0.00999716
0.00999648
0.00999582
0.00999513
0.00999442
0.00999371
0.00999302
0.00999237
0.00999177
0.00999123
0.00999078
0.0099904
0.0099901
0.00998989
0.00998977
0.00998974
0.0099898
0.00998995
0.00999018
0.0099905
0.00999091
0.00999141
0.00999199
0.00999266
0.00999342
0.00999427
0.00999521
0.00999625
0.00999737
0.0099986
0.00999992
0.0100013
0.0100029
0.0100045
0.0100062
0.0100081
0.01001
0.0100121
0.0100142
0.0100164
0.0100188
0.0100212
0.0100237
0.0100263
0.010029
0.0100318
0.0100346
0.0100376
0.0100406
0.0100437
0.0100468
0.01005
0.0100533
0.0100566
0.01006
0.0100634
0.0100667
0.01007
0.0100733
0.0100766
0.0100797
0.0100828
0.0100858
0.0100887
0.0100914
0.0100939
0.0100963
0.0100985
0.0101004
0.0101022
0.0101036
0.0101047
0.0101056
0.0101061
0.0101063
0.0101062
0.0101057
0.0101048
0.0101036
0.010102
0.0101
0.0100977
0.0100951
0.0100922
0.0100889
0.0100854
0.0100816
0.0100776
0.0100734
0.010069
0.0100644
0.0100598
0.010055
0.0100502
0.0100454
0.0100406
0.0100358
0.0100311
0.0100265
0.0100219
0.0100175
0.0100132
0.010009
0.0100051
0.0100012
0.00999759
0.00999414
0.00999088
0.00998782
0.00998497
0.00998233
0.00997991
0.00997772
0.00997578
0.00997409
0.00997269
0.00997158
0.00997081
0.00999961
0.00999893
0.00999829
0.00999765
0.00999695
0.00999617
0.00999536
0.00999457
0.00999383
0.00999315
0.00999253
0.00999198
0.0099915
0.00999111
0.00999079
0.00999057
0.00999042
0.00999037
0.00999041
0.00999053
0.00999074
0.00999104
0.00999142
0.0099919
0.00999246
0.00999311
0.00999385
0.00999468
0.00999561
0.00999662
0.00999773
0.00999894
0.0100002
0.0100016
0.0100031
0.0100047
0.0100064
0.0100082
0.0100101
0.010012
0.0100141
0.0100163
0.0100185
0.0100209
0.0100233
0.0100259
0.0100285
0.0100312
0.0100339
0.0100368
0.0100396
0.0100426
0.0100456
0.0100486
0.0100517
0.0100548
0.0100579
0.0100611
0.0100642
0.0100673
0.0100704
0.0100734
0.0100764
0.0100793
0.0100822
0.0100849
0.0100874
0.0100899
0.0100921
0.0100941
0.010096
0.0100976
0.0100989
0.0100999
0.0101006
0.0101011
0.0101011
0.0101009
0.0101003
0.0100993
0.010098
0.0100963
0.0100942
0.0100918
0.0100891
0.0100861
0.0100828
0.0100792
0.0100754
0.0100713
0.0100671
0.0100627
0.0100582
0.0100535
0.0100489
0.0100441
0.0100394
0.0100347
0.01003
0.0100254
0.0100209
0.0100165
0.0100123
0.0100081
0.0100042
0.0100004
0.00999676
0.00999332
0.00999007
0.00998701
0.00998414
0.00998146
0.009979
0.00997674
0.0099747
0.00997289
0.00997132
0.00997002
0.009969
0.00996829
0.00999997
0.00999978
0.00999946
0.00999905
0.00999855
0.00999797
0.00999734
0.00999669
0.00999604
0.00999542
0.00999483
0.0099943
0.00999383
0.00999342
0.00999308
0.00999281
0.00999262
0.00999252
0.00999249
0.00999254
0.00999268
0.00999289
0.00999318
0.00999356
0.00999402
0.00999456
0.00999519
0.00999589
0.00999669
0.00999756
0.00999853
0.00999958
0.0100007
0.0100019
0.0100033
0.0100047
0.0100062
0.0100078
0.0100094
0.0100112
0.0100131
0.010015
0.0100171
0.0100192
0.0100214
0.0100237
0.0100261
0.0100285
0.0100311
0.0100337
0.0100363
0.0100391
0.0100418
0.0100447
0.0100475
0.0100505
0.0100534
0.0100563
0.0100593
0.0100623
0.0100652
0.0100682
0.010071
0.0100738
0.0100766
0.0100792
0.0100817
0.010084
0.0100862
0.0100882
0.0100899
0.0100914
0.0100927
0.0100937
0.0100944
0.0100947
0.0100947
0.0100944
0.0100937
0.0100927
0.0100913
0.0100895
0.0100873
0.0100848
0.010082
0.0100789
0.0100755
0.0100718
0.0100679
0.0100638
0.0100596
0.0100552
0.0100508
0.0100462
0.0100416
0.010037
0.0100323
0.0100277
0.0100231
0.0100186
0.0100143
0.0100101
0.010006
0.010002
0.00999828
0.00999469
0.00999128
0.00998805
0.00998501
0.00998216
0.00997949
0.00997702
0.00997474
0.00997265
0.00997077
0.00996911
0.00996766
0.00996647
0.00996553
0.00996488
0.0100001
0.0100002
0.0100001
0.00999979
0.00999938
0.00999888
0.00999831
0.00999772
0.00999711
0.00999652
0.00999595
0.00999542
0.00999494
0.0099945
0.00999413
0.00999382
0.00999358
0.00999341
0.00999331
0.00999328
0.00999332
0.00999343
0.0099936
0.00999386
0.00999418
0.00999459
0.00999506
0.0099956
0.00999622
0.00999692
0.00999769
0.00999855
0.00999948
0.0100005
0.0100016
0.0100028
0.0100041
0.0100055
0.0100069
0.0100085
0.0100102
0.010012
0.0100139
0.0100159
0.010018
0.0100202
0.0100224
0.0100248
0.0100273
0.0100298
0.0100324
0.0100351
0.0100379
0.0100407
0.0100435
0.0100465
0.0100494
0.0100524
0.0100554
0.0100584
0.0100614
0.0100644
0.0100674
0.0100703
0.0100731
0.0100758
0.0100784
0.0100808
0.0100831
0.0100852
0.0100871
0.0100887
0.0100901
0.0100912
0.010092
0.0100925
0.0100926
0.0100923
0.0100916
0.0100906
0.0100891
0.0100873
0.0100851
0.0100825
0.0100795
0.0100762
0.0100726
0.0100686
0.0100644
0.01006
0.0100554
0.0100506
0.0100457
0.0100408
0.0100358
0.0100308
0.0100259
0.0100211
0.0100165
0.0100121
0.0100078
0.0100037
0.00999979
0.00999601
0.00999241
0.00998899
0.00998576
0.00998272
0.00997986
0.0099772
0.00997472
0.00997243
0.00997032
0.0099684
0.00996666
0.00996513
0.0099638
0.0099627
0.00996183
0.00996124
0.0100001
0.0100003
0.0100001
0.00999981
0.00999935
0.0099988
0.0099982
0.00999757
0.00999693
0.00999631
0.00999571
0.00999514
0.0099946
0.00999411
0.00999366
0.00999328
0.00999295
0.0099927
0.0099925
0.00999237
0.00999229
0.00999227
0.00999231
0.00999242
0.00999261
0.00999286
0.00999318
0.00999356
0.00999401
0.00999455
0.00999518
0.0099959
0.0099967
0.00999761
0.00999863
0.00999979
0.0100011
0.0100025
0.0100041
0.0100057
0.0100075
0.0100094
0.0100114
0.0100135
0.0100157
0.0100179
0.0100203
0.0100228
0.0100254
0.010028
0.0100308
0.0100336
0.0100365
0.0100395
0.0100425
0.0100456
0.0100488
0.0100519
0.0100552
0.0100585
0.0100617
0.010065
0.0100682
0.0100714
0.0100744
0.0100774
0.0100802
0.0100829
0.0100854
0.0100878
0.01009
0.010092
0.0100937
0.0100951
0.0100962
0.0100969
0.0100971
0.010097
0.0100964
0.0100954
0.010094
0.0100922
0.0100899
0.0100872
0.0100841
0.0100805
0.0100767
0.0100725
0.0100679
0.0100631
0.0100581
0.0100528
0.0100474
0.0100419
0.0100363
0.0100306
0.010025
0.0100195
0.0100141
0.010009
0.0100042
0.00999962
0.0099954
0.00999151
0.00998789
0.00998449
0.00998131
0.00997833
0.00997557
0.009973
0.00997063
0.00996845
0.00996646
0.00996465
0.00996302
0.00996158
0.00996033
0.00995928
0.00995846
0.00995788
0.0100001
0.00999998
0.00999965
0.00999913
0.0099985
0.00999781
0.00999707
0.00999634
0.00999562
0.00999492
0.00999426
0.00999362
0.00999301
0.00999243
0.00999189
0.00999141
0.009991
0.00999066
0.00999038
0.00999014
0.00998995
0.00998981
0.00998974
0.00998976
0.00998986
0.00999004
0.00999027
0.00999059
0.00999103
0.00999164
0.00999241
0.00999331
0.00999435
0.0099955
0.00999677
0.00999817
0.00999969
0.0100013
0.0100031
0.010005
0.010007
0.0100091
0.0100113
0.0100137
0.0100161
0.0100187
0.0100213
0.0100241
0.010027
0.01003
0.0100331
0.0100362
0.0100395
0.0100428
0.0100462
0.0100496
0.0100531
0.0100566
0.0100603
0.010064
0.0100678
0.0100715
0.0100751
0.0100787
0.0100821
0.0100854
0.0100885
0.0100914
0.0100942
0.0100967
0.010099
0.010101
0.0101027
0.0101041
0.0101051
0.0101058
0.010106
0.0101059
0.0101052
0.0101042
0.0101027
0.0101007
0.0100983
0.0100954
0.0100921
0.0100883
0.0100842
0.0100797
0.0100748
0.0100697
0.0100643
0.0100586
0.0100528
0.0100468
0.0100407
0.0100346
0.0100285
0.0100225
0.0100166
0.0100108
0.0100052
0.00999987
0.00999485
0.00999023
0.00998604
0.00998225
0.00997886
0.00997575
0.0099729
0.00997029
0.00996789
0.00996571
0.00996373
0.00996194
0.00996034
0.00995892
0.00995768
0.00995664
0.00995581
0.00995521
0.00999987
0.00999937
0.00999866
0.00999782
0.00999692
0.00999599
0.00999508
0.0099942
0.00999338
0.0099926
0.00999186
0.00999116
0.00999047
0.00998981
0.00998919
0.00998863
0.00998816
0.00998779
0.00998749
0.00998723
0.00998701
0.00998684
0.0099868
0.00998694
0.00998725
0.0099877
0.00998827
0.00998895
0.00998976
0.0099907
0.00999178
0.009993
0.00999435
0.00999584
0.00999746
0.00999921
0.0100011
0.0100031
0.0100052
0.0100075
0.0100099
0.0100124
0.010015
0.0100178
0.0100207
0.0100237
0.0100267
0.0100299
0.0100332
0.0100366
0.0100403
0.010044
0.0100478
0.0100515
0.0100553
0.0100591
0.0100629
0.0100668
0.0100706
0.0100745
0.0100783
0.0100821
0.0100859
0.0100896
0.0100931
0.0100966
0.0100998
0.0101029
0.0101058
0.0101085
0.0101108
0.0101129
0.0101147
0.0101161
0.0101172
0.0101178
0.0101181
0.0101178
0.0101172
0.010116
0.0101144
0.0101123
0.0101097
0.0101066
0.010103
0.0100991
0.0100946
0.0100898
0.0100846
0.0100791
0.0100733
0.0100672
0.0100609
0.0100545
0.0100479
0.0100413
0.0100347
0.0100282
0.0100217
0.0100154
0.0100092
0.0100033
0.00999771
0.00999238
0.00998741
0.00998291
0.00997889
0.00997533
0.0099722
0.00996937
0.00996682
0.00996451
0.00996243
0.00996055
0.00995888
0.0099574
0.0099561
0.00995498
0.00995407
0.00995336
0.00999953
0.0099984
0.00999717
0.00999592
0.0099947
0.00999353
0.00999243
0.00999143
0.00999052
0.0099897
0.00998894
0.00998822
0.00998752
0.00998684
0.00998619
0.00998564
0.00998527
0.00998508
0.00998504
0.00998511
0.00998527
0.00998553
0.0099859
0.00998643
0.0099871
0.00998792
0.00998888
0.00998999
0.00999123
0.0099926
0.00999412
0.00999577
0.00999756
0.0099995
0.0100016
0.0100039
0.0100062
0.0100087
0.0100113
0.010014
0.0100168
0.0100199
0.0100231
0.0100265
0.0100299
0.0100334
0.0100369
0.0100405
0.0100441
0.0100478
0.0100516
0.0100554
0.0100593
0.0100632
0.0100672
0.0100712
0.0100752
0.0100792
0.0100832
0.0100873
0.0100912
0.0100952
0.0100991
0.0101029
0.0101066
0.0101102
0.0101136
0.0101169
0.0101199
0.0101226
0.0101251
0.0101273
0.0101292
0.0101306
0.0101317
0.0101324
0.0101326
0.0101323
0.0101316
0.0101303
0.0101286
0.0101263
0.0101235
0.0101202
0.0101164
0.0101121
0.0101074
0.0101023
0.0100967
0.0100908
0.0100845
0.010078
0.0100713
0.0100643
0.0100573
0.0100501
0.010043
0.0100359
0.0100289
0.010022
0.0100153
0.0100088
0.0100026
0.00999674
0.00999121
0.00998605
0.00998132
0.00997711
0.00997342
0.00997021
0.00996737
0.00996483
0.00996255
0.0099605
0.00995866
0.00995702
0.00995556
0.00995426
0.00995314
0.00995219
0.00999894
0.009997
0.00999524
0.00999362
0.00999213
0.00999077
0.00998955
0.0099885
0.00998764
0.00998693
0.00998634
0.00998583
0.0099854
0.00998505
0.00998478
0.00998464
0.00998465
0.00998483
0.00998517
0.00998565
0.00998624
0.00998696
0.00998781
0.0099888
0.00998993
0.00999122
0.00999268
0.0099943
0.00999609
0.00999801
0.01
0.0100022
0.0100045
0.0100069
0.0100096
0.0100124
0.0100154
0.0100185
0.0100216
0.0100248
0.010028
0.0100313
0.0100348
0.0100383
0.0100419
0.0100455
0.0100492
0.0100529
0.0100568
0.0100606
0.0100646
0.0100686
0.0100726
0.0100767
0.0100809
0.010085
0.0100892
0.0100935
0.0100977
0.0101019
0.0101061
0.0101102
0.0101143
0.0101183
0.0101221
0.0101259
0.0101295
0.0101328
0.010136
0.0101389
0.0101415
0.0101437
0.0101457
0.0101472
0.0101483
0.0101489
0.0101491
0.0101488
0.010148
0.0101466
0.0101447
0.0101423
0.0101393
0.0101358
0.0101317
0.0101271
0.0101221
0.0101165
0.0101106
0.0101042
0.0100976
0.0100906
0.0100833
0.0100759
0.0100683
0.0100606
0.0100529
0.0100452
0.0100376
0.0100301
0.0100229
0.0100158
0.0100091
0.0100026
0.00999653
0.00999083
0.00998555
0.00998069
0.00997638
0.00997261
0.00996935
0.00996649
0.00996394
0.00996164
0.00995957
0.0099577
0.00995601
0.00995449
0.00995313
0.00995193
0.00999839
0.00999579
0.00999372
0.00999201
0.00999056
0.00998933
0.00998831
0.00998749
0.00998687
0.00998641
0.00998609
0.00998589
0.00998581
0.00998584
0.00998599
0.00998629
0.00998674
0.00998737
0.00998817
0.00998915
0.00999028
0.00999155
0.00999293
0.00999444
0.00999607
0.00999785
0.00999982
0.010002
0.0100045
0.010007
0.0100096
0.0100123
0.0100151
0.0100179
0.0100209
0.010024
0.0100272
0.0100304
0.0100337
0.0100371
0.0100405
0.0100441
0.0100477
0.0100513
0.0100551
0.0100589
0.0100628
0.0100667
0.0100707
0.0100748
0.0100789
0.0100831
0.0100874
0.0100917
0.010096
0.0101004
0.0101048
0.0101092
0.0101136
0.010118
0.0101224
0.0101268
0.010131
0.0101352
0.0101393
0.0101432
0.0101469
0.0101505
0.0101538
0.0101568
0.0101595
0.0101619
0.0101638
0.0101654
0.0101665
0.0101672
0.0101673
0.010167
0.010166
0.0101645
0.0101625
0.0101599
0.0101566
0.0101528
0.0101485
0.0101436
0.0101382
0.0101323
0.0101259
0.0101191
0.0101119
0.0101044
0.0100966
0.0100887
0.0100805
0.0100723
0.010064
0.0100557
0.0100475
0.0100394
0.0100316
0.010024
0.0100166
0.0100096
0.010003
0.00999676
0.00999095
0.00998559
0.00998069
0.00997635
0.00997256
0.00996928
0.00996641
0.00996384
0.00996151
0.00995939
0.00995747
0.00995572
0.00995414
0.00995276
0.00999829
0.00999561
0.00999359
0.00999203
0.0099908
0.00998984
0.00998913
0.00998864
0.00998836
0.00998827
0.00998835
0.00998857
0.00998893
0.00998941
0.00999003
0.00999079
0.0099917
0.0099928
0.00999409
0.0099956
0.00999734
0.00999924
0.0100012
0.0100033
0.0100054
0.0100077
0.0100101
0.0100126
0.0100153
0.010018
0.0100209
0.0100238
0.0100268
0.0100299
0.0100331
0.0100363
0.0100397
0.0100431
0.0100466
0.0100502
0.0100539
0.0100576
0.0100614
0.0100653
0.0100692
0.0100732
0.0100773
0.0100815
0.0100857
0.01009
0.0100943
0.0100987
0.0101032
0.0101077
0.0101123
0.0101169
0.0101215
0.0101262
0.0101309
0.0101355
0.0101401
0.0101447
0.0101492
0.0101535
0.0101578
0.0101619
0.0101658
0.0101695
0.0101729
0.0101761
0.0101789
0.0101813
0.0101834
0.010185
0.0101861
0.0101868
0.0101869
0.0101864
0.0101854
0.0101837
0.0101815
0.0101786
0.0101752
0.0101711
0.0101664
0.0101612
0.0101553
0.010149
0.0101422
0.0101349
0.0101273
0.0101192
0.0101109
0.0101024
0.0100936
0.0100848
0.0100759
0.0100671
0.0100583
0.0100496
0.0100411
0.0100329
0.010025
0.0100174
0.0100103
0.0100035
0.00999719
0.00999133
0.00998595
0.00998107
0.00997677
0.00997303
0.00996978
0.00996691
0.00996431
0.00996195
0.0099598
0.00995783
0.00995606
0.00995455
0.00999858
0.00999643
0.00999485
0.00999368
0.00999284
0.00999228
0.00999196
0.00999189
0.00999205
0.00999242
0.00999299
0.00999372
0.0099946
0.00999559
0.00999672
0.00999797
0.00999937
0.0100009
0.0100026
0.0100045
0.0100065
0.0100087
0.0100109
0.0100133
0.0100157
0.0100183
0.0100209
0.0100237
0.0100266
0.0100295
0.0100326
0.0100358
0.010039
0.0100423
0.0100457
0.0100492
0.0100528
0.0100564
0.0100601
0.0100639
0.0100678
0.0100718
0.0100758
0.0100799
0.0100841
0.0100883
0.0100926
0.010097
0.0101015
0.010106
0.0101106
0.0101153
0.01012
0.0101248
0.0101296
0.0101345
0.0101394
0.0101443
0.0101492
0.010154
0.0101589
0.0101637
0.0101684
0.010173
0.0101775
0.0101817
0.0101858
0.0101897
0.0101933
0.0101965
0.0101994
0.010202
0.0102041
0.0102057
0.0102068
0.0102074
0.0102074
0.0102069
0.0102057
0.0102039
0.0102014
0.0101983
0.0101946
0.0101902
0.0101852
0.0101795
0.0101733
0.0101665
0.0101592
0.0101515
0.0101433
0.0101347
0.0101258
0.0101167
0.0101074
0.010098
0.0100885
0.010079
0.0100696
0.0100603
0.0100513
0.0100425
0.010034
0.0100258
0.0100181
0.0100108
0.010004
0.00999767
0.00999183
0.00998649
0.0099817
0.0099775
0.00997385
0.00997066
0.0099678
0.00996521
0.00996283
0.00996067
0.00995877
0.00995718
0.0099994
0.00999829
0.00999742
0.00999683
0.0099965
0.00999641
0.00999655
0.00999689
0.00999744
0.00999817
0.00999907
0.0100001
0.0100013
0.0100027
0.0100041
0.0100057
0.0100075
0.0100094
0.0100114
0.0100136
0.0100159
0.0100183
0.0100208
0.0100234
0.0100261
0.010029
0.0100319
0.0100349
0.0100381
0.0100413
0.0100446
0.010048
0.0100515
0.010055
0.0100587
0.0100624
0.0100662
0.0100701
0.0100741
0.0100781
0.0100823
0.0100865
0.0100908
0.0100951
0.0100995
0.010104
0.0101086
0.0101133
0.010118
0.0101228
0.0101277
0.0101326
0.0101376
0.0101427
0.0101477
0.0101529
0.010158
0.0101632
0.0101684
0.0101735
0.0101786
0.0101836
0.0101886
0.0101934
0.0101981
0.0102025
0.0102068
0.0102108
0.0102145
0.0102179
0.0102209
0.0102235
0.0102256
0.0102272
0.0102283
0.0102289
0.0102288
0.0102281
0.0102267
0.0102247
0.0102221
0.0102187
0.0102146
0.0102099
0.0102045
0.0101985
0.0101918
0.0101846
0.0101768
0.0101685
0.0101598
0.0101506
0.0101412
0.0101315
0.0101215
0.0101115
0.0101014
0.0100913
0.0100813
0.0100714
0.0100617
0.0100523
0.0100433
0.0100346
0.0100263
0.0100185
0.0100112
0.0100044
0.00999809
0.00999234
0.0099871
0.00998249
0.00997845
0.00997492
0.00997181
0.00996899
0.00996643
0.00996412
0.00996214
0.00996053
0.00999992
0.00999973
0.00999962
0.00999967
0.0099999
0.0100003
0.0100009
0.0100017
0.0100026
0.0100037
0.010005
0.0100064
0.010008
0.0100097
0.0100115
0.0100134
0.0100155
0.0100178
0.0100201
0.0100226
0.0100252
0.0100279
0.0100307
0.0100336
0.0100366
0.0100397
0.0100429
0.0100462
0.0100496
0.0100531
0.0100567
0.0100604
0.0100642
0.010068
0.0100719
0.0100759
0.01008
0.0100842
0.0100884
0.0100927
0.0100971
0.0101016
0.0101062
0.0101108
0.0101155
0.0101203
0.0101252
0.0101301
0.0101351
0.0101402
0.0101454
0.0101506
0.0101559
0.0101612
0.0101666
0.010172
0.0101774
0.0101829
0.0101883
0.0101937
0.0101991
0.0102044
0.0102095
0.0102146
0.0102194
0.0102241
0.0102285
0.0102327
0.0102365
0.01024
0.0102431
0.0102457
0.0102478
0.0102495
0.0102505
0.0102509
0.0102508
0.0102499
0.0102484
0.0102461
0.0102432
0.0102395
0.0102351
0.01023
0.0102242
0.0102177
0.0102106
0.0102029
0.0101946
0.0101857
0.0101764
0.0101667
0.0101567
0.0101464
0.0101358
0.0101252
0.0101144
0.0101037
0.0100931
0.0100826
0.0100723
0.0100623
0.0100527
0.0100435
0.0100347
0.0100264
0.0100186
0.0100113
0.0100046
0.00999842
0.00999282
0.0099878
0.00998341
0.00997957
0.00997618
0.00997316
0.00997042
0.009968
0.00996595
0.0099643
0.0100003
0.0100008
0.0100014
0.0100021
0.0100029
0.0100038
0.0100049
0.0100061
0.0100075
0.010009
0.0100107
0.0100125
0.0100144
0.0100164
0.0100186
0.010021
0.0100234
0.010026
0.0100287
0.0100315
0.0100344
0.0100374
0.0100405
0.0100437
0.0100471
0.0100505
0.010054
0.0100576
0.0100613
0.0100651
0.010069
0.0100729
0.010077
0.0100811
0.0100854
0.0100897
0.010094
0.0100985
0.010103
0.0101077
0.0101124
0.0101171
0.010122
0.0101269
0.0101319
0.010137
0.0101422
0.0101475
0.0101528
0.0101582
0.0101636
0.0101692
0.0101748
0.0101804
0.0101861
0.0101918
0.0101975
0.0102032
0.0102089
0.0102146
0.0102202
0.0102257
0.0102311
0.0102364
0.0102415
0.0102463
0.0102509
0.0102552
0.0102592
0.0102627
0.0102658
0.0102685
0.0102706
0.0102722
0.0102732
0.0102735
0.0102732
0.0102721
0.0102704
0.0102679
0.0102646
0.0102606
0.0102559
0.0102504
0.0102441
0.0102372
0.0102296
0.0102213
0.0102125
0.0102031
0.0101932
0.0101829
0.0101722
0.0101613
0.0101501
0.0101388
0.0101274
0.0101161
0.0101048
0.0100937
0.0100829
0.0100723
0.0100621
0.0100524
0.010043
0.0100342
0.010026
0.0100183
0.0100112
0.0100046
0.00999865
0.00999328
0.00998856
0.00998443
0.0099808
0.00997757
0.00997467
0.00997215
0.00997002
0.00996833
0.0100006
0.0100017
0.0100029
0.0100042
0.0100055
0.0100069
0.0100085
0.0100102
0.010012
0.010014
0.010016
0.0100182
0.0100206
0.010023
0.0100256
0.0100283
0.0100311
0.010034
0.010037
0.0100402
0.0100434
0.0100468
0.0100502
0.0100538
0.0100575
0.0100612
0.0100651
0.010069
0.010073
0.0100771
0.0100813
0.0100856
0.01009
0.0100944
0.010099
0.0101036
0.0101083
0.0101131
0.0101179
0.0101229
0.0101279
0.010133
0.0101382
0.0101434
0.0101488
0.0101542
0.0101597
0.0101653
0.0101709
0.0101766
0.0101824
0.0101882
0.0101941
0.0102001
0.0102061
0.0102121
0.0102181
0.0102241
0.0102301
0.0102361
0.0102419
0.0102477
0.0102533
0.0102588
0.0102641
0.0102691
0.0102738
0.0102783
0.0102823
0.0102859
0.0102891
0.0102917
0.0102938
0.0102953
0.0102962
0.0102964
0.0102958
0.0102946
0.0102926
0.0102898
0.0102862
0.0102819
0.0102767
0.0102708
0.0102641
0.0102566
0.0102485
0.0102397
0.0102303
0.0102203
0.0102098
0.0101989
0.0101876
0.010176
0.0101642
0.0101523
0.0101403
0.0101283
0.0101164
0.0101047
0.0100933
0.0100822
0.0100714
0.0100611
0.0100513
0.010042
0.0100333
0.0100252
0.0100177
0.0100108
0.0100045
0.00999878
0.00999377
0.00998938
0.00998552
0.0099821
0.00997906
0.00997642
0.00997421
0.00997249
0.0100008
0.0100025
0.0100043
0.010006
0.0100079
0.0100098
0.0100119
0.010014
0.0100163
0.0100187
0.0100212
0.0100238
0.0100265
0.0100293
0.0100323
0.0100354
0.0100386
0.0100419
0.0100453
0.0100488
0.0100524
0.0100561
0.0100599
0.0100638
0.0100678
0.0100719
0.0100761
0.0100804
0.0100848
0.0100892
0.0100938
0.0100984
0.0101031
0.0101079
0.0101128
0.0101177
0.0101228
0.0101279
0.0101331
0.0101384
0.0101437
0.0101492
0.0101547
0.0101603
0.010166
0.0101717
0.0101775
0.0101835
0.0101894
0.0101955
0.0102016
0.0102078
0.010214
0.0102203
0.0102266
0.0102329
0.0102392
0.0102455
0.0102518
0.010258
0.0102641
0.0102702
0.010276
0.0102817
0.0102871
0.0102923
0.0102972
0.0103017
0.0103058
0.0103095
0.0103126
0.0103153
0.0103173
0.0103187
0.0103194
0.0103194
0.0103187
0.0103172
0.0103149
0.0103118
0.0103079
0.0103031
0.0102975
0.0102911
0.0102839
0.010276
0.0102673
0.0102579
0.0102479
0.0102374
0.0102262
0.0102147
0.0102028
0.0101905
0.0101781
0.0101655
0.0101529
0.0101403
0.0101278
0.0101155
0.0101035
0.0100918
0.0100805
0.0100697
0.0100594
0.0100496
0.0100405
0.0100319
0.010024
0.0100168
0.0100102
0.0100042
0.00999893
0.00999431
0.00999025
0.00998666
0.00998347
0.00998071
0.00997842
0.00997664
0.0100011
0.0100033
0.0100055
0.0100077
0.0100101
0.0100125
0.010015
0.0100176
0.0100203
0.0100232
0.0100261
0.0100291
0.0100323
0.0100355
0.0100389
0.0100424
0.0100459
0.0100496
0.0100534
0.0100573
0.0100613
0.0100654
0.0100696
0.0100738
0.0100782
0.0100827
0.0100872
0.0100919
0.0100966
0.0101014
0.0101063
0.0101113
0.0101164
0.0101215
0.0101268
0.0101321
0.0101375
0.010143
0.0101485
0.0101541
0.0101599
0.0101656
0.0101715
0.0101775
0.0101835
0.0101896
0.0101958
0.0102021
0.0102084
0.0102148
0.0102212
0.0102277
0.0102343
0.0102409
0.0102475
0.0102542
0.0102608
0.0102674
0.010274
0.0102804
0.0102868
0.0102931
0.0102991
0.010305
0.0103106
0.0103159
0.0103209
0.0103255
0.0103297
0.0103333
0.0103365
0.0103391
0.010341
0.0103423
0.0103428
0.0103426
0.0103417
0.0103399
0.0103373
0.0103338
0.0103295
0.0103243
0.0103182
0.0103113
0.0103036
0.0102951
0.0102859
0.0102759
0.0102653
0.0102541
0.0102423
0.0102302
0.0102176
0.0102047
0.0101916
0.0101784
0.0101651
0.0101519
0.0101388
0.0101259
0.0101133
0.010101
0.0100892
0.0100779
0.0100671
0.0100569
0.0100473
0.0100384
0.0100302
0.0100226
0.0100157
0.0100094
0.0100039
0.00999913
0.00999489
0.00999113
0.00998781
0.00998493
0.00998254
0.00998069
0.0100013
0.0100039
0.0100066
0.0100094
0.0100122
0.0100151
0.010018
0.0100211
0.0100243
0.0100275
0.0100309
0.0100343
0.0100379
0.0100416
0.0100453
0.0100492
0.0100532
0.0100573
0.0100615
0.0100658
0.0100702
0.0100746
0.0100792
0.0100839
0.0100886
0.0100935
0.0100984
0.0101034
0.0101085
0.0101137
0.010119
0.0101244
0.0101298
0.0101353
0.010141
0.0101466
0.0101524
0.0101583
0.0101642
0.0101702
0.0101763
0.0101824
0.0101887
0.010195
0.0102014
0.0102079
0.0102144
0.010221
0.0102277
0.0102345
0.0102413
0.0102481
0.010255
0.010262
0.0102689
0.0102759
0.0102828
0.0102897
0.0102965
0.0103033
0.0103099
0.0103163
0.0103226
0.0103287
0.0103344
0.0103399
0.0103449
0.0103496
0.0103538
0.0103574
0.0103605
0.010363
0.0103648
0.0103659
0.0103663
0.0103659
0.0103646
0.0103625
0.0103595
0.0103557
0.0103509
0.0103452
0.0103387
0.0103313
0.010323
0.010314
0.0103041
0.0102935
0.0102823
0.0102704
0.010258
0.0102452
0.0102319
0.0102184
0.0102047
0.0101908
0.0101769
0.010163
0.0101493
0.0101358
0.0101226
0.0101098
0.0100975
0.0100857
0.0100745
0.0100638
0.0100539
0.0100446
0.010036
0.0100281
0.0100209
0.0100145
0.0100088
0.0100038
0.00999935
0.00999546
0.00999199
0.00998899
0.00998651
0.00998459
0.0100015
0.0100046
0.0100077
0.0100109
0.0100142
0.0100175
0.010021
0.0100245
0.0100281
0.0100318
0.0100356
0.0100394
0.0100434
0.0100475
0.0100517
0.010056
0.0100604
0.0100649
0.0100695
0.0100742
0.010079
0.0100839
0.0100889
0.0100939
0.0100991
0.0101043
0.0101097
0.0101151
0.0101206
0.0101262
0.0101318
0.0101376
0.0101434
0.0101494
0.0101553
0.0101614
0.0101676
0.0101738
0.0101801
0.0101865
0.010193
0.0101995
0.0102062
0.0102129
0.0102196
0.0102265
0.0102334
0.0102404
0.0102475
0.0102546
0.0102617
0.010269
0.0102762
0.0102835
0.0102907
0.010298
0.0103052
0.0103124
0.0103195
0.0103265
0.0103333
0.01034
0.0103465
0.0103527
0.0103585
0.0103641
0.0103692
0.0103739
0.0103781
0.0103817
0.0103847
0.0103871
0.0103887
0.0103896
0.0103898
0.010389
0.0103875
0.010385
0.0103816
0.0103773
0.0103721
0.010366
0.0103589
0.0103509
0.0103421
0.0103324
0.0103219
0.0103107
0.0102988
0.0102863
0.0102733
0.0102597
0.0102458
0.0102316
0.0102172
0.0102027
0.0101881
0.0101736
0.0101593
0.0101452
0.0101315
0.0101182
0.0101054
0.0100931
0.0100814
0.0100704
0.01006
0.0100504
0.0100415
0.0100333
0.0100259
0.0100192
0.0100133
0.0100081
0.0100036
0.00999956
0.00999596
0.00999284
0.00999026
0.00998826
0.0100017
0.0100053
0.0100088
0.0100125
0.0100162
0.01002
0.0100238
0.0100278
0.0100318
0.010036
0.0100402
0.0100445
0.0100489
0.0100535
0.0100581
0.0100628
0.0100676
0.0100726
0.0100776
0.0100827
0.0100879
0.0100932
0.0100986
0.0101041
0.0101096
0.0101153
0.010121
0.0101269
0.0101328
0.0101388
0.0101448
0.010151
0.0101573
0.0101636
0.01017
0.0101765
0.010183
0.0101897
0.0101964
0.0102032
0.01021
0.010217
0.010224
0.0102311
0.0102383
0.0102455
0.0102528
0.0102602
0.0102676
0.0102751
0.0102826
0.0102902
0.0102978
0.0103054
0.010313
0.0103205
0.0103281
0.0103355
0.0103429
0.0103501
0.0103572
0.010364
0.0103706
0.010377
0.010383
0.0103886
0.0103937
0.0103984
0.0104025
0.0104061
0.010409
0.0104112
0.0104127
0.0104133
0.0104132
0.0104121
0.0104102
0.0104073
0.0104035
0.0103988
0.0103931
0.0103864
0.0103787
0.0103702
0.0103607
0.0103504
0.0103393
0.0103274
0.0103149
0.0103017
0.0102879
0.0102737
0.0102591
0.0102442
0.0102292
0.010214
0.0101988
0.0101837
0.0101688
0.0101541
0.0101399
0.010126
0.0101127
0.0100999
0.0100878
0.0100764
0.0100657
0.0100557
0.0100465
0.0100381
0.0100304
0.0100236
0.0100175
0.0100122
0.0100076
0.0100034
0.00999967
0.00999642
0.00999373
0.00999166
0.0100019
0.0100059
0.0100099
0.010014
0.0100181
0.0100224
0.0100267