/*--------------------------------*- C++ -*----------------------------------*\
  =========                 |
  \\      /  F ield         | OpenFOAM: The Open Source CFD Toolbox
   \\    /   O peration     | Website:  https://openfoam.org
    \\  /    A nd           | Version:  8
     \\/     M anipulation  |
\*---------------------------------------------------------------------------*/
FoamFile
{
    version     2.0;
    format      ascii;
    class       volScalarField;
    location    "0.9";
    object      nuTilda;
}
// * * * * * * * * * * * * * * * * * * * * * * * * * * * * * * * * * * * * * //

dimensions      [0 2 -1 0 0 0 0];

internalField   nonuniform List<scalar> 
277560
(
0.139681
0.139105
0.138594
0.138142
0.137744
0.137397
0.137095
0.136834
0.136611
0.136421
0.136261
0.136128
0.13602
0.135933
0.135865
0.135814
0.135778
0.135756
0.135745
0.135745
0.135754
0.135772
0.135796
0.135827
0.135863
0.135905
0.13595
0.136
0.136052
0.136108
0.136166
0.136226
0.136288
0.136351
0.136416
0.136481
0.136548
0.136615
0.136682
0.13675
0.136818
0.136886
0.136954
0.137022
0.13709
0.137157
0.137224
0.13729
0.137356
0.137421
0.137485
0.137548
0.137611
0.137673
0.137733
0.137793
0.137852
0.13791
0.137967
0.138023
0.138078
0.138132
0.138185
0.138236
0.138287
0.138336
0.138385
0.138432
0.138478
0.138523
0.138567
0.13861
0.138652
0.138693
0.138732
0.138771
0.138808
0.138845
0.13888
0.138914
0.138948
0.13898
0.139011
0.139042
0.139071
0.139099
0.139126
0.139152
0.139178
0.139202
0.139225
0.139247
0.139268
0.139288
0.139307
0.139324
0.139341
0.139357
0.139371
0.139384
0.139396
0.139407
0.139416
0.139425
0.139432
0.139437
0.139441
0.139444
0.139445
0.139445
0.139443
0.139439
0.139434
0.139427
0.139418
0.139408
0.139395
0.139381
0.139364
0.139346
0.13968
0.139105
0.138593
0.138141
0.137744
0.137397
0.137095
0.136835
0.136611
0.136422
0.136262
0.13613
0.136021
0.135935
0.135867
0.135816
0.13578
0.135758
0.135747
0.135747
0.135756
0.135774
0.135798
0.135829
0.135865
0.135906
0.135952
0.136001
0.136053
0.136109
0.136166
0.136226
0.136288
0.136351
0.136415
0.136481
0.136547
0.136614
0.136681
0.136749
0.136817
0.136885
0.136953
0.13702
0.137088
0.137155
0.137221
0.137287
0.137353
0.137417
0.137482
0.137545
0.137607
0.137669
0.13773
0.13779
0.137848
0.137906
0.137963
0.138019
0.138074
0.138128
0.13818
0.138232
0.138282
0.138332
0.13838
0.138427
0.138474
0.138519
0.138563
0.138606
0.138647
0.138688
0.138728
0.138766
0.138804
0.13884
0.138876
0.13891
0.138943
0.138976
0.139007
0.139037
0.139066
0.139095
0.139122
0.139148
0.139173
0.139197
0.139221
0.139243
0.139264
0.139284
0.139303
0.13932
0.139337
0.139353
0.139367
0.13938
0.139392
0.139403
0.139413
0.139421
0.139428
0.139433
0.139438
0.13944
0.139441
0.139441
0.139439
0.139436
0.13943
0.139423
0.139414
0.139404
0.139391
0.139377
0.13936
0.139342
0.139679
0.139103
0.138591
0.138138
0.137741
0.137394
0.137092
0.136832
0.136609
0.136419
0.13626
0.136127
0.136019
0.135932
0.135864
0.135813
0.135777
0.135755
0.135744
0.135744
0.135753
0.13577
0.135794
0.135825
0.135861
0.135902
0.135947
0.135996
0.136048
0.136103
0.13616
0.13622
0.136281
0.136344
0.136408
0.136473
0.136539
0.136606
0.136673
0.13674
0.136808
0.136875
0.136943
0.13701
0.137078
0.137145
0.137211
0.137277
0.137342
0.137407
0.137471
0.137534
0.137596
0.137658
0.137719
0.137779
0.137837
0.137895
0.137952
0.138008
0.138063
0.138117
0.138169
0.138221
0.138271
0.138321
0.138369
0.138417
0.138463
0.138508
0.138552
0.138595
0.138637
0.138678
0.138717
0.138756
0.138794
0.13883
0.138866
0.1389
0.138934
0.138966
0.138997
0.139028
0.139057
0.139086
0.139113
0.139139
0.139164
0.139189
0.139212
0.139234
0.139255
0.139275
0.139294
0.139312
0.139329
0.139345
0.139359
0.139373
0.139385
0.139396
0.139405
0.139414
0.139421
0.139426
0.13943
0.139433
0.139434
0.139434
0.139432
0.139428
0.139423
0.139416
0.139407
0.139396
0.139384
0.139369
0.139352
0.139334
0.139678
0.1391
0.138587
0.138134
0.137736
0.137388
0.137086
0.136826
0.136603
0.136413
0.136253
0.136121
0.136013
0.135925
0.135858
0.135806
0.13577
0.135748
0.135737
0.135736
0.135745
0.135761
0.135785
0.135815
0.135851
0.135892
0.135936
0.135985
0.136036
0.136091
0.136148
0.136207
0.136268
0.13633
0.136394
0.136459
0.136525
0.136591
0.136658
0.136725
0.136792
0.13686
0.136927
0.136994
0.137061
0.137128
0.137194
0.13726
0.137325
0.13739
0.137454
0.137517
0.137579
0.137641
0.137702
0.137761
0.13782
0.137878
0.137935
0.137991
0.138046
0.1381
0.138152
0.138204
0.138255
0.138304
0.138353
0.1384
0.138447
0.138492
0.138536
0.138579
0.138621
0.138662
0.138702
0.138741
0.138779
0.138816
0.138852
0.138886
0.13892
0.138952
0.138984
0.139015
0.139044
0.139073
0.1391
0.139127
0.139152
0.139177
0.1392
0.139223
0.139244
0.139264
0.139283
0.139302
0.139318
0.139334
0.139349
0.139362
0.139375
0.139386
0.139395
0.139404
0.139411
0.139417
0.139421
0.139424
0.139425
0.139424
0.139422
0.139419
0.139413
0.139406
0.139397
0.139386
0.139374
0.139359
0.139342
0.139323
0.139677
0.139096
0.138582
0.138127
0.137729
0.13738
0.137078
0.136817
0.136594
0.136404
0.136244
0.136112
0.136003
0.135916
0.135847
0.135796
0.13576
0.135737
0.135725
0.135724
0.135732
0.135749
0.135772
0.135802
0.135837
0.135877
0.135921
0.135969
0.13602
0.136074
0.136131
0.13619
0.13625
0.136312
0.136375
0.13644
0.136505
0.136571
0.136637
0.136704
0.136771
0.136839
0.136906
0.136973
0.13704
0.137106
0.137172
0.137238
0.137303
0.137368
0.137432
0.137495
0.137557
0.137619
0.137679
0.137739
0.137798
0.137856
0.137913
0.137969
0.138024
0.138078
0.138131
0.138183
0.138234
0.138284
0.138333
0.13838
0.138427
0.138472
0.138517
0.13856
0.138602
0.138644
0.138684
0.138723
0.138761
0.138798
0.138834
0.138869
0.138903
0.138936
0.138968
0.138999
0.139029
0.139057
0.139085
0.139112
0.139138
0.139163
0.139186
0.139209
0.13923
0.139251
0.13927
0.139289
0.139306
0.139322
0.139337
0.13935
0.139363
0.139374
0.139384
0.139392
0.1394
0.139405
0.13941
0.139412
0.139414
0.139413
0.139411
0.139407
0.139402
0.139395
0.139386
0.139375
0.139362
0.139346
0.139329
0.13931
0.139675
0.139092
0.138576
0.13812
0.13772
0.137371
0.137068
0.136807
0.136583
0.136392
0.136232
0.136099
0.13599
0.135903
0.135834
0.135783
0.135746
0.135722
0.13571
0.135709
0.135717
0.135732
0.135755
0.135784
0.135819
0.135858
0.135902
0.135949
0.136
0.136054
0.13611
0.136168
0.136228
0.136289
0.136352
0.136416
0.136481
0.136546
0.136613
0.136679
0.136746
0.136813
0.13688
0.136947
0.137013
0.13708
0.137146
0.137211
0.137277
0.137341
0.137405
0.137468
0.137531
0.137592
0.137653
0.137713
0.137772
0.13783
0.137887
0.137944
0.137999
0.138053
0.138106
0.138159
0.13821
0.13826
0.138309
0.138357
0.138404
0.13845
0.138494
0.138538
0.138581
0.138622
0.138663
0.138702
0.138741
0.138778
0.138815
0.13885
0.138884
0.138917
0.13895
0.138981
0.139011
0.13904
0.139068
0.139096
0.139122
0.139147
0.139171
0.139194
0.139215
0.139236
0.139256
0.139275
0.139292
0.139308
0.139323
0.139337
0.13935
0.139361
0.139371
0.13938
0.139387
0.139393
0.139397
0.1394
0.139401
0.139401
0.139399
0.139395
0.139389
0.139382
0.139373
0.139362
0.139348
0.139333
0.139316
0.139296
0.139673
0.139088
0.138569
0.138111
0.13771
0.13736
0.137056
0.136794
0.13657
0.136379
0.136218
0.136085
0.135976
0.135888
0.135819
0.135766
0.135729
0.135705
0.135693
0.135691
0.135698
0.135713
0.135735
0.135763
0.135797
0.135836
0.135879
0.135926
0.135976
0.136029
0.136084
0.136142
0.136201
0.136262
0.136325
0.136388
0.136453
0.136518
0.136584
0.13665
0.136717
0.136783
0.13685
0.136917
0.136983
0.13705
0.137116
0.137181
0.137246
0.137311
0.137375
0.137438
0.1375
0.137562
0.137623
0.137683
0.137743
0.137801
0.137858
0.137915
0.137971
0.138025
0.138079
0.138131
0.138183
0.138233
0.138282
0.138331
0.138378
0.138424
0.138469
0.138514
0.138557
0.138599
0.13864
0.138679
0.138718
0.138756
0.138793
0.138829
0.138863
0.138897
0.13893
0.138961
0.138992
0.139022
0.13905
0.139078
0.139104
0.13913
0.139154
0.139177
0.139199
0.13922
0.13924
0.139259
0.139277
0.139294
0.139309
0.139323
0.139336
0.139347
0.139357
0.139366
0.139374
0.13938
0.139384
0.139387
0.139388
0.139388
0.139386
0.139382
0.139376
0.139369
0.139359
0.139348
0.139334
0.139319
0.139301
0.139281
0.139671
0.139082
0.138561
0.138102
0.137699
0.137348
0.137043
0.13678
0.136555
0.136364
0.136203
0.136069
0.135959
0.13587
0.135801
0.135748
0.13571
0.135685
0.135672
0.13567
0.135676
0.135691
0.135712
0.13574
0.135773
0.135811
0.135854
0.1359
0.135949
0.136001
0.136056
0.136113
0.136172
0.136233
0.136294
0.136358
0.136422
0.136486
0.136552
0.136618
0.136684
0.13675
0.136817
0.136884
0.13695
0.137016
0.137082
0.137148
0.137213
0.137277
0.137341
0.137405
0.137467
0.137529
0.137591
0.137651
0.13771
0.137769
0.137827
0.137884
0.13794
0.137994
0.138048
0.138101
0.138153
0.138204
0.138254
0.138303
0.13835
0.138397
0.138443
0.138487
0.138531
0.138573
0.138615
0.138655
0.138694
0.138733
0.13877
0.138806
0.138841
0.138876
0.138909
0.138941
0.138972
0.139002
0.139031
0.139059
0.139086
0.139111
0.139136
0.13916
0.139182
0.139204
0.139224
0.139243
0.139261
0.139278
0.139294
0.139308
0.139321
0.139333
0.139343
0.139352
0.13936
0.139366
0.13937
0.139373
0.139374
0.139374
0.139372
0.139368
0.139362
0.139354
0.139345
0.139333
0.139319
0.139303
0.139285
0.139265
0.139669
0.139077
0.138553
0.138092
0.137687
0.137335
0.137029
0.136765
0.136539
0.136347
0.136185
0.136051
0.13594
0.135851
0.135781
0.135728
0.135689
0.135664
0.13565
0.135647
0.135652
0.135666
0.135687
0.135714
0.135746
0.135784
0.135825
0.135871
0.135919
0.135971
0.136025
0.136082
0.13614
0.1362
0.136261
0.136324
0.136387
0.136452
0.136517
0.136583
0.136649
0.136715
0.136781
0.136848
0.136914
0.13698
0.137046
0.137112
0.137177
0.137241
0.137305
0.137369
0.137432
0.137494
0.137556
0.137616
0.137676
0.137735
0.137793
0.13785
0.137907
0.137962
0.138016
0.138069
0.138122
0.138173
0.138223
0.138273
0.138321
0.138368
0.138414
0.138459
0.138503
0.138546
0.138588
0.138629
0.138669
0.138708
0.138746
0.138782
0.138818
0.138853
0.138886
0.138919
0.138951
0.138981
0.139011
0.139039
0.139066
0.139093
0.139118
0.139142
0.139165
0.139187
0.139207
0.139227
0.139245
0.139262
0.139278
0.139293
0.139306
0.139318
0.139329
0.139338
0.139345
0.139352
0.139356
0.139359
0.13936
0.13936
0.139358
0.139354
0.139348
0.13934
0.13933
0.139318
0.139304
0.139288
0.139269
0.139248
0.139667
0.139072
0.138545
0.138081
0.137675
0.13732
0.137013
0.136748
0.136522
0.136329
0.136167
0.136031
0.13592
0.13583
0.13576
0.135706
0.135667
0.13564
0.135626
0.135622
0.135627
0.13564
0.13566
0.135686
0.135718
0.135754
0.135795
0.13584
0.135888
0.135939
0.135992
0.136048
0.136105
0.136165
0.136226
0.136288
0.136351
0.136415
0.13648
0.136545
0.136611
0.136677
0.136743
0.136809
0.136876
0.136942
0.137008
0.137073
0.137138
0.137203
0.137267
0.137331
0.137394
0.137457
0.137518
0.137579
0.13764
0.137699
0.137757
0.137815
0.137872
0.137927
0.137982
0.138036
0.138089
0.138141
0.138192
0.138241
0.13829
0.138338
0.138385
0.13843
0.138475
0.138518
0.138561
0.138602
0.138643
0.138682
0.138721
0.138758
0.138794
0.138829
0.138863
0.138897
0.138929
0.13896
0.13899
0.139018
0.139046
0.139073
0.139099
0.139123
0.139147
0.139169
0.13919
0.13921
0.139228
0.139246
0.139262
0.139277
0.13929
0.139303
0.139313
0.139323
0.139331
0.139337
0.139341
0.139345
0.139346
0.139345
0.139343
0.139339
0.139333
0.139325
0.139315
0.139302
0.139288
0.139271
0.139252
0.139231
0.139665
0.139066
0.138536
0.13807
0.137662
0.137306
0.136997
0.136731
0.136504
0.13631
0.136147
0.136011
0.135899
0.135809
0.135737
0.135682
0.135643
0.135616
0.135601
0.135596
0.1356
0.135612
0.135631
0.135656
0.135687
0.135723
0.135763
0.135807
0.135854
0.135904
0.135957
0.136012
0.136069
0.136128
0.136188
0.13625
0.136312
0.136376
0.136441
0.136506
0.136571
0.136637
0.136703
0.136769
0.136835
0.136901
0.136967
0.137033
0.137098
0.137163
0.137228
0.137292
0.137355
0.137418
0.13748
0.137541
0.137602
0.137661
0.13772
0.137778
0.137835
0.137892
0.137947
0.138001
0.138055
0.138107
0.138158
0.138209
0.138258
0.138306
0.138354
0.1384
0.138445
0.138489
0.138532
0.138575
0.138616
0.138656
0.138694
0.138732
0.138769
0.138805
0.13884
0.138873
0.138906
0.138937
0.138968
0.138997
0.139026
0.139053
0.139079
0.139104
0.139128
0.13915
0.139172
0.139192
0.139211
0.139229
0.139245
0.139261
0.139274
0.139287
0.139298
0.139307
0.139315
0.139322
0.139326
0.13933
0.139331
0.13933
0.139328
0.139324
0.139318
0.139309
0.139299
0.139286
0.139272
0.139255
0.139235
0.139214
0.139663
0.13906
0.138527
0.138058
0.137648
0.137291
0.136981
0.136714
0.136485
0.13629
0.136127
0.13599
0.135877
0.135786
0.135714
0.135658
0.135618
0.13559
0.135574
0.135568
0.135571
0.135582
0.135601
0.135625
0.135655
0.13569
0.135729
0.135772
0.135819
0.135868
0.13592
0.135975
0.136031
0.136089
0.136149
0.13621
0.136272
0.136336
0.1364
0.136464
0.13653
0.136595
0.136661
0.136727
0.136793
0.136859
0.136925
0.136991
0.137056
0.137122
0.137186
0.13725
0.137314
0.137377
0.13744
0.137501
0.137562
0.137622
0.137682
0.13774
0.137798
0.137855
0.13791
0.137965
0.138019
0.138072
0.138124
0.138175
0.138225
0.138274
0.138322
0.138369
0.138415
0.138459
0.138503
0.138546
0.138587
0.138628
0.138668
0.138706
0.138744
0.13878
0.138815
0.138849
0.138883
0.138915
0.138946
0.138976
0.139004
0.139032
0.139059
0.139084
0.139108
0.139132
0.139153
0.139174
0.139193
0.139212
0.139228
0.139244
0.139258
0.139271
0.139282
0.139292
0.1393
0.139306
0.139311
0.139314
0.139316
0.139315
0.139313
0.139308
0.139302
0.139294
0.139283
0.13927
0.139255
0.139238
0.139218
0.139195
0.139661
0.139054
0.138518
0.138046
0.137634
0.137275
0.136964
0.136695
0.136466
0.13627
0.136105
0.135968
0.135855
0.135763
0.13569
0.135633
0.135592
0.135563
0.135546
0.13554
0.135542
0.135552
0.13557
0.135593
0.135622
0.135656
0.135694
0.135737
0.135782
0.135831
0.135882
0.135936
0.135992
0.136049
0.136108
0.136169
0.136231
0.136294
0.136357
0.136422
0.136487
0.136552
0.136618
0.136684
0.13675
0.136816
0.136882
0.136948
0.137013
0.137079
0.137144
0.137208
0.137272
0.137335
0.137398
0.13746
0.137521
0.137582
0.137642
0.137701
0.137759
0.137816
0.137873
0.137928
0.137983
0.138036
0.138089
0.138141
0.138191
0.138241
0.138289
0.138337
0.138383
0.138429
0.138473
0.138516
0.138559
0.1386
0.13864
0.138679
0.138717
0.138754
0.13879
0.138825
0.138859
0.138891
0.138923
0.138953
0.138983
0.139011
0.139038
0.139064
0.139089
0.139112
0.139134
0.139156
0.139175
0.139194
0.139211
0.139227
0.139241
0.139254
0.139266
0.139275
0.139284
0.13929
0.139295
0.139298
0.1393
0.139299
0.139297
0.139292
0.139286
0.139277
0.139266
0.139253
0.139238
0.13922
0.1392
0.139177
0.139658
0.139047
0.138508
0.138034
0.13762
0.137259
0.136946
0.136677
0.136446
0.136249
0.136084
0.135945
0.135831
0.135739
0.135665
0.135608
0.135565
0.135536
0.135518
0.13551
0.135512
0.135521
0.135537
0.13556
0.135588
0.135621
0.135659
0.1357
0.135745
0.135793
0.135843
0.135896
0.135951
0.136008
0.136067
0.136127
0.136188
0.13625
0.136314
0.136378
0.136443
0.136508
0.136573
0.136639
0.136705
0.136771
0.136837
0.136903
0.136969
0.137035
0.1371
0.137164
0.137229
0.137292
0.137355
0.137418
0.13748
0.137541
0.137601
0.137661
0.137719
0.137777
0.137834
0.13789
0.137945
0.138
0.138053
0.138105
0.138156
0.138206
0.138256
0.138304
0.138351
0.138397
0.138442
0.138486
0.138529
0.138571
0.138612
0.138651
0.13869
0.138728
0.138764
0.1388
0.138834
0.138867
0.138899
0.13893
0.13896
0.138989
0.139017
0.139043
0.139068
0.139092
0.139115
0.139137
0.139157
0.139176
0.139193
0.139209
0.139224
0.139237
0.139249
0.139259
0.139267
0.139274
0.139279
0.139282
0.139284
0.139283
0.139281
0.139276
0.139269
0.139261
0.139249
0.139236
0.13922
0.139202
0.139181
0.139158
0.139656
0.139041
0.138499
0.138022
0.137605
0.137243
0.136928
0.136658
0.136426
0.136228
0.136062
0.135923
0.135808
0.135714
0.135639
0.135581
0.135538
0.135508
0.135489
0.135481
0.135481
0.135489
0.135505
0.135526
0.135554
0.135586
0.135622
0.135663
0.135706
0.135753
0.135803
0.135855
0.13591
0.135966
0.136024
0.136084
0.136144
0.136206
0.136269
0.136333
0.136397
0.136462
0.136528
0.136594
0.13666
0.136726
0.136792
0.136858
0.136924
0.136989
0.137055
0.13712
0.137184
0.137248
0.137312
0.137375
0.137437
0.137499
0.137559
0.13762
0.137679
0.137737
0.137795
0.137851
0.137907
0.137962
0.138016
0.138069
0.138121
0.138171
0.138221
0.13827
0.138318
0.138365
0.13841
0.138455
0.138499
0.138541
0.138583
0.138623
0.138663
0.138701
0.138738
0.138774
0.138809
0.138843
0.138875
0.138907
0.138937
0.138967
0.138995
0.139022
0.139047
0.139072
0.139095
0.139117
0.139138
0.139157
0.139175
0.139191
0.139206
0.13922
0.139231
0.139242
0.13925
0.139257
0.139262
0.139266
0.139267
0.139267
0.139264
0.139259
0.139252
0.139243
0.139232
0.139218
0.139202
0.139183
0.139162
0.139138
0.139653
0.139035
0.138489
0.13801
0.137591
0.137226
0.136911
0.136638
0.136405
0.136207
0.13604
0.1359
0.135784
0.135689
0.135614
0.135555
0.135511
0.13548
0.13546
0.135451
0.13545
0.135457
0.135472
0.135492
0.135518
0.13555
0.135585
0.135625
0.135667
0.135714
0.135762
0.135814
0.135868
0.135923
0.135981
0.136039
0.1361
0.136161
0.136224
0.136287
0.136351
0.136416
0.136481
0.136547
0.136613
0.136679
0.136745
0.136811
0.136877
0.136943
0.137009
0.137074
0.137139
0.137203
0.137267
0.137331
0.137393
0.137455
0.137517
0.137577
0.137637
0.137696
0.137754
0.137812
0.137868
0.137924
0.137978
0.138032
0.138084
0.138136
0.138186
0.138236
0.138284
0.138332
0.138378
0.138423
0.138468
0.138511
0.138553
0.138594
0.138634
0.138673
0.138711
0.138748
0.138783
0.138818
0.138851
0.138883
0.138914
0.138944
0.138973
0.139
0.139026
0.139051
0.139075
0.139097
0.139118
0.139138
0.139156
0.139173
0.139188
0.139202
0.139214
0.139224
0.139233
0.13924
0.139245
0.139249
0.13925
0.13925
0.139247
0.139242
0.139235
0.139226
0.139214
0.1392
0.139184
0.139164
0.139143
0.139118
0.139651
0.139028
0.138479
0.137997
0.137576
0.13721
0.136893
0.136619
0.136385
0.136186
0.136018
0.135877
0.13576
0.135665
0.135588
0.135529
0.135484
0.135451
0.135431
0.13542
0.135419
0.135425
0.135438
0.135458
0.135483
0.135513
0.135548
0.135586
0.135628
0.135673
0.135721
0.135772
0.135825
0.13588
0.135936
0.135995
0.136055
0.136116
0.136178
0.136241
0.136305
0.136369
0.136434
0.1365
0.136566
0.136632
0.136698
0.136764
0.13683
0.136896
0.136962
0.137028
0.137093
0.137158
0.137222
0.137286
0.137349
0.137412
0.137473
0.137535
0.137595
0.137654
0.137713
0.137771
0.137828
0.137884
0.137939
0.137994
0.138047
0.138099
0.13815
0.138201
0.13825
0.138298
0.138345
0.138391
0.138436
0.13848
0.138523
0.138565
0.138605
0.138645
0.138683
0.138721
0.138757
0.138792
0.138826
0.138859
0.13889
0.138921
0.13895
0.138978
0.139004
0.13903
0.139054
0.139077
0.139098
0.139118
0.139137
0.139154
0.139169
0.139183
0.139196
0.139206
0.139215
0.139223
0.139228
0.139231
0.139233
0.139232
0.139229
0.139224
0.139217
0.139208
0.139196
0.139181
0.139165
0.139145
0.139123
0.139098
0.139649
0.139022
0.13847
0.137985
0.137562
0.137193
0.136875
0.1366
0.136365
0.136165
0.135995
0.135854
0.135736
0.13564
0.135563
0.135502
0.135456
0.135423
0.135401
0.13539
0.135387
0.135392
0.135405
0.135423
0.135447
0.135476
0.13551
0.135547
0.135588
0.135632
0.13568
0.135729
0.135782
0.135836
0.135892
0.135949
0.136009
0.136069
0.136131
0.136194
0.136257
0.136321
0.136386
0.136452
0.136517
0.136584
0.13665
0.136716
0.136782
0.136849
0.136915
0.136981
0.137046
0.137111
0.137176
0.13724
0.137304
0.137367
0.137429
0.137491
0.137552
0.137612
0.137671
0.13773
0.137788
0.137844
0.1379
0.137955
0.138009
0.138062
0.138114
0.138165
0.138215
0.138264
0.138311
0.138358
0.138404
0.138448
0.138492
0.138534
0.138576
0.138616
0.138655
0.138693
0.13873
0.138766
0.1388
0.138833
0.138866
0.138897
0.138926
0.138955
0.138982
0.139008
0.139032
0.139056
0.139078
0.139098
0.139117
0.139134
0.13915
0.139165
0.139177
0.139188
0.139197
0.139205
0.13921
0.139213
0.139215
0.139214
0.139211
0.139206
0.139199
0.139189
0.139177
0.139162
0.139145
0.139125
0.139102
0.139077
0.139646
0.139015
0.13846
0.137973
0.137547
0.137177
0.136857
0.136581
0.136345
0.136143
0.135973
0.135831
0.135712
0.135615
0.135537
0.135476
0.135429
0.135395
0.135372
0.135359
0.135356
0.13536
0.135371
0.135388
0.135411
0.135439
0.135472
0.135508
0.135548
0.135591
0.135638
0.135687
0.135738
0.135791
0.135847
0.135904
0.135962
0.136022
0.136084
0.136146
0.136209
0.136273
0.136338
0.136403
0.136469
0.136535
0.136601
0.136667
0.136734
0.1368
0.136867
0.136933
0.136998
0.137064
0.137129
0.137194
0.137258
0.137321
0.137384
0.137446
0.137508
0.137569
0.137629
0.137688
0.137746
0.137803
0.13786
0.137916
0.13797
0.138024
0.138076
0.138128
0.138179
0.138228
0.138277
0.138324
0.138371
0.138416
0.13846
0.138503
0.138545
0.138586
0.138626
0.138665
0.138702
0.138739
0.138774
0.138808
0.138841
0.138872
0.138902
0.138931
0.138959
0.138986
0.139011
0.139034
0.139057
0.139077
0.139097
0.139114
0.139131
0.139145
0.139158
0.139169
0.139179
0.139186
0.139192
0.139195
0.139197
0.139196
0.139193
0.139188
0.13918
0.13917
0.139158
0.139143
0.139125
0.139104
0.139081
0.139055
0.139644
0.139009
0.13845
0.13796
0.137532
0.137161
0.136839
0.136562
0.136325
0.136122
0.135951
0.135808
0.135689
0.135591
0.135512
0.135449
0.135401
0.135366
0.135343
0.135329
0.135324
0.135327
0.135337
0.135353
0.135375
0.135402
0.135434
0.135469
0.135508
0.13555
0.135596
0.135644
0.135694
0.135747
0.135801
0.135858
0.135916
0.135975
0.136036
0.136098
0.136161
0.136224
0.136289
0.136354
0.136419
0.136485
0.136552
0.136618
0.136685
0.136751
0.136818
0.136884
0.13695
0.137016
0.137081
0.137146
0.137211
0.137275
0.137338
0.137401
0.137463
0.137525
0.137585
0.137645
0.137704
0.137762
0.137819
0.137875
0.137931
0.137985
0.138038
0.138091
0.138142
0.138192
0.138242
0.13829
0.138337
0.138383
0.138428
0.138472
0.138515
0.138556
0.138597
0.138636
0.138674
0.138711
0.138747
0.138782
0.138815
0.138847
0.138878
0.138907
0.138936
0.138963
0.138988
0.139012
0.139035
0.139056
0.139076
0.139094
0.139111
0.139125
0.139139
0.13915
0.13916
0.139167
0.139173
0.139176
0.139178
0.139177
0.139174
0.139169
0.139161
0.139151
0.139138
0.139123
0.139104
0.139083
0.13906
0.139033
0.139641
0.139002
0.13844
0.137948
0.137518
0.137144
0.136821
0.136543
0.136305
0.136102
0.13593
0.135786
0.135666
0.135567
0.135487
0.135423
0.135375
0.135339
0.135314
0.135299
0.135293
0.135295
0.135304
0.135319
0.13534
0.135365
0.135395
0.13543
0.135468
0.135509
0.135553
0.1356
0.13565
0.135702
0.135756
0.135811
0.135869
0.135928
0.135988
0.136049
0.136112
0.136175
0.136239
0.136304
0.13637
0.136436
0.136502
0.136568
0.136635
0.136702
0.136768
0.136835
0.136901
0.136967
0.137033
0.137099
0.137164
0.137228
0.137292
0.137355
0.137418
0.13748
0.137541
0.137601
0.137661
0.13772
0.137778
0.137835
0.137891
0.137946
0.138
0.138053
0.138105
0.138156
0.138206
0.138255
0.138303
0.138349
0.138395
0.13844
0.138483
0.138525
0.138567
0.138607
0.138645
0.138683
0.138719
0.138755
0.138789
0.138821
0.138853
0.138883
0.138912
0.138939
0.138965
0.13899
0.139013
0.139035
0.139055
0.139073
0.13909
0.139105
0.139119
0.13913
0.13914
0.139148
0.139153
0.139157
0.139159
0.139158
0.139155
0.139149
0.139141
0.139131
0.139118
0.139102
0.139083
0.139062
0.139037
0.13901
0.139639
0.138996
0.138431
0.137935
0.137503
0.137128
0.136804
0.136524
0.136285
0.136081
0.135908
0.135763
0.135643
0.135543
0.135462
0.135398
0.135348
0.135311
0.135285
0.135269
0.135262
0.135263
0.13527
0.135284
0.135304
0.135328
0.135358
0.135391
0.135428
0.135468
0.135511
0.135557
0.135606
0.135657
0.13571
0.135765
0.135822
0.13588
0.135939
0.136
0.136062
0.136126
0.136189
0.136254
0.136319
0.136385
0.136451
0.136518
0.136585
0.136651
0.136718
0.136785
0.136852
0.136918
0.136984
0.13705
0.137115
0.13718
0.137245
0.137309
0.137372
0.137434
0.137496
0.137557
0.137617
0.137677
0.137735
0.137793
0.13785
0.137905
0.13796
0.138014
0.138067
0.138119
0.138169
0.138219
0.138268
0.138315
0.138361
0.138407
0.138451
0.138494
0.138536
0.138576
0.138616
0.138654
0.138691
0.138727
0.138762
0.138795
0.138827
0.138858
0.138887
0.138915
0.138942
0.138967
0.13899
0.139013
0.139033
0.139052
0.139069
0.139085
0.139098
0.13911
0.13912
0.139128
0.139134
0.139137
0.139139
0.139138
0.139135
0.139129
0.139121
0.139111
0.139097
0.139081
0.139062
0.13904
0.139015
0.138987
0.139636
0.13899
0.138421
0.137923
0.137489
0.137112
0.136786
0.136506
0.136266
0.136061
0.135887
0.135742
0.13562
0.13552
0.135438
0.135373
0.135322
0.135284
0.135257
0.13524
0.135231
0.135231
0.135238
0.13525
0.135269
0.135292
0.13532
0.135352
0.135387
0.135427
0.135469
0.135514
0.135562
0.135612
0.135664
0.135718
0.135774
0.135832
0.135891
0.135951
0.136013
0.136076
0.136139
0.136204
0.136269
0.136334
0.1364
0.136467
0.136534
0.136601
0.136668
0.136735
0.136801
0.136868
0.136935
0.137001
0.137067
0.137132
0.137197
0.137261
0.137325
0.137388
0.13745
0.137512
0.137573
0.137633
0.137692
0.137751
0.137808
0.137864
0.13792
0.137975
0.138028
0.138081
0.138132
0.138182
0.138232
0.13828
0.138327
0.138373
0.138418
0.138462
0.138504
0.138546
0.138586
0.138625
0.138663
0.138699
0.138734
0.138768
0.138801
0.138832
0.138862
0.138891
0.138918
0.138943
0.138967
0.13899
0.139011
0.13903
0.139048
0.139063
0.139077
0.139089
0.139099
0.139107
0.139113
0.139117
0.139119
0.139118
0.139115
0.139109
0.139101
0.13909
0.139076
0.139059
0.13904
0.139017
0.138991
0.138963
0.139634
0.138983
0.138411
0.137911
0.137475
0.137096
0.136769
0.136488
0.136247
0.136041
0.135867
0.13572
0.135598
0.135497
0.135414
0.135348
0.135296
0.135257
0.135229
0.135211
0.135201
0.1352
0.135205
0.135216
0.135233
0.135256
0.135282
0.135313
0.135348
0.135386
0.135427
0.135471
0.135517
0.135567
0.135618
0.135671
0.135727
0.135784
0.135842
0.135902
0.135963
0.136025
0.136089
0.136153
0.136217
0.136283
0.136349
0.136415
0.136482
0.136549
0.136616
0.136683
0.136751
0.136818
0.136884
0.136951
0.137017
0.137083
0.137148
0.137213
0.137278
0.137341
0.137404
0.137466
0.137528
0.137589
0.137648
0.137707
0.137766
0.137823
0.137879
0.137934
0.137989
0.138042
0.138094
0.138145
0.138195
0.138244
0.138292
0.138339
0.138384
0.138429
0.138472
0.138514
0.138555
0.138595
0.138633
0.13867
0.138706
0.138741
0.138774
0.138806
0.138836
0.138865
0.138893
0.138919
0.138944
0.138967
0.138988
0.139008
0.139026
0.139042
0.139056
0.139068
0.139078
0.139087
0.139093
0.139097
0.139098
0.139097
0.139094
0.139088
0.139079
0.139068
0.139054
0.139037
0.139017
0.138994
0.138968
0.138938
0.139632
0.138977
0.138402
0.137899
0.137461
0.137081
0.136752
0.13647
0.136228
0.136022
0.135847
0.135699
0.135576
0.135474
0.135391
0.135324
0.135271
0.135231
0.135202
0.135182
0.135172
0.135169
0.135173
0.135183
0.135199
0.13522
0.135245
0.135274
0.135308
0.135345
0.135385
0.135428
0.135473
0.135522
0.135572
0.135624
0.135679
0.135735
0.135793
0.135852
0.135913
0.135975
0.136038
0.136101
0.136166
0.136231
0.136297
0.136364
0.13643
0.136497
0.136565
0.136632
0.136699
0.136766
0.136834
0.136901
0.136967
0.137033
0.137099
0.137165
0.137229
0.137294
0.137357
0.13742
0.137482
0.137543
0.137604
0.137664
0.137722
0.13778
0.137837
0.137893
0.137948
0.138002
0.138055
0.138107
0.138158
0.138208
0.138256
0.138304
0.13835
0.138395
0.138439
0.138482
0.138524
0.138564
0.138603
0.138641
0.138678
0.138713
0.138747
0.138779
0.13881
0.13884
0.138868
0.138894
0.13892
0.138943
0.138965
0.138985
0.139003
0.139019
0.139034
0.139046
0.139057
0.139065
0.139071
0.139075
0.139077
0.139076
0.139073
0.139066
0.139058
0.139046
0.139032
0.139014
0.138994
0.13897
0.138943
0.138913
0.139629
0.138971
0.138392
0.137887
0.137447
0.137065
0.136736
0.136452
0.136209
0.136002
0.135827
0.135679
0.135555
0.135452
0.135368
0.1353
0.135247
0.135205
0.135175
0.135154
0.135143
0.135138
0.135141
0.13515
0.135164
0.135184
0.135208
0.135236
0.135268
0.135304
0.135343
0.135385
0.135429
0.135477
0.135526
0.135578
0.135631
0.135687
0.135744
0.135803
0.135863
0.135924
0.135986
0.13605
0.136114
0.136179
0.136245
0.136311
0.136378
0.136445
0.136512
0.13658
0.136647
0.136715
0.136782
0.136849
0.136916
0.136983
0.137049
0.137115
0.13718
0.137245
0.137309
0.137373
0.137435
0.137497
0.137559
0.137619
0.137679
0.137737
0.137795
0.137852
0.137907
0.137962
0.138016
0.138068
0.13812
0.13817
0.13822
0.138268
0.138315
0.138361
0.138406
0.138449
0.138492
0.138533
0.138573
0.138611
0.138648
0.138684
0.138719
0.138752
0.138783
0.138813
0.138842
0.138869
0.138895
0.138919
0.138941
0.138961
0.13898
0.138997
0.139011
0.139024
0.139035
0.139043
0.13905
0.139054
0.139055
0.139054
0.139051
0.139044
0.139035
0.139024
0.139009
0.138991
0.13897
0.138946
0.138918
0.138887
0.139627
0.138964
0.138383
0.137875
0.137433
0.13705
0.136719
0.136435
0.136191
0.135984
0.135808
0.135659
0.135535
0.135431
0.135346
0.135277
0.135223
0.13518
0.135149
0.135127
0.135114
0.135109
0.13511
0.135118
0.135131
0.135149
0.135172
0.135198
0.135229
0.135264
0.135301
0.135342
0.135386
0.135432
0.13548
0.135531
0.135584
0.135638
0.135695
0.135753
0.135812
0.135873
0.135935
0.135998
0.136062
0.136127
0.136192
0.136259
0.136325
0.136392
0.13646
0.136527
0.136595
0.136662
0.13673
0.136798
0.136865
0.136932
0.136999
0.137065
0.137131
0.137196
0.137261
0.137325
0.137388
0.137451
0.137513
0.137574
0.137634
0.137693
0.137752
0.137809
0.137866
0.137921
0.137975
0.138029
0.138081
0.138132
0.138183
0.138232
0.138279
0.138326
0.138372
0.138416
0.138459
0.138501
0.138541
0.13858
0.138618
0.138655
0.13869
0.138724
0.138756
0.138787
0.138816
0.138843
0.138869
0.138894
0.138916
0.138937
0.138956
0.138973
0.138988
0.139001
0.139012
0.139021
0.139027
0.139031
0.139033
0.139032
0.139028
0.139022
0.139013
0.139
0.138985
0.138967
0.138945
0.138921
0.138892
0.138861
0.139624
0.138958
0.138373
0.137863
0.137419
0.137035
0.136703
0.136418
0.136174
0.135966
0.135789
0.13564
0.135515
0.135411
0.135325
0.135255
0.135199
0.135156
0.135124
0.135101
0.135086
0.135079
0.135079
0.135086
0.135097
0.135114
0.135135
0.135161
0.135191
0.135224
0.13526
0.1353
0.135342
0.135387
0.135434
0.135484
0.135536
0.13559
0.135645
0.135703
0.135762
0.135822
0.135883
0.135946
0.13601
0.136074
0.136139
0.136205
0.136272
0.136339
0.136406
0.136474
0.136542
0.13661
0.136678
0.136745
0.136813
0.13688