/*--------------------------------*- C++ -*----------------------------------*\
  =========                 |
  \\      /  F ield         | OpenFOAM: The Open Source CFD Toolbox
   \\    /   O peration     | Website:  https://openfoam.org
    \\  /    A nd           | Version:  8
     \\/     M anipulation  |
\*---------------------------------------------------------------------------*/
FoamFile
{
    version     2.0;
    format      ascii;
    class       surfaceScalarField;
    location    "0.2";
    object      phi;
}
// * * * * * * * * * * * * * * * * * * * * * * * * * * * * * * * * * * * * * //

dimensions      [0 3 -1 0 0 0 0];

internalField   nonuniform List<scalar> 
123852
(
0.263319
-0.0021355
0.265419
-0.0021004
0.267485
-0.00206646
0.269518
-0.00203212
0.271515
-0.00199781
0.27348
-0.00196412
0.275411
-0.00193111
0.27731
-0.00189874
0.279177
-0.00186693
0.281012
-0.0018357
0.282817
-0.00180499
0.284592
-0.00177487
0.286338
-0.00174528
0.288054
-0.00171631
0.289742
-0.00168792
0.291402
-0.00166019
0.293035
-0.00163304
0.294642
-0.00160656
0.296223
-0.00158063
0.297778
-0.00155529
0.299308
-0.00153046
0.300815
-0.00150612
0.302297
-0.00148217
0.303755
-0.00145865
0.305191
-0.0014355
0.306604
-0.00141246
0.307995
-0.00139011
0.309364
-0.00136749
0.31071
-0.00134567
0.312035
-0.00132346
0.313337
-0.00130207
0.314618
-0.00128026
0.315877
-0.00125929
0.317116
-0.00123787
0.318332
-0.00121729
0.31953
-0.00119628
0.320705
-0.00117616
0.321861
-0.00115563
0.322996
-0.00113599
0.324113
-0.00111598
0.325209
-0.0010969
0.326287
-0.00107747
0.327345
-0.00105896
0.328386
-0.00104012
0.329407
-0.00102221
0.330412
-0.001004
0.331397
-0.000986682
0.332368
-0.00096907
0.333318
-0.00095235
0.334255
-0.000935353
0.335172
-0.0009192
0.336077
-0.000902784
0.336962
-0.000887192
0.337835
-0.000871354
0.338689
-0.00085629
0.339532
-0.000840998
0.340356
-0.000826457
0.341169
-0.000811704
0.341965
-0.000797669
0.34275
-0.000783418
0.343518
-0.000769871
0.344276
-0.000756134
0.345017
-0.000743056
0.345748
-0.000729793
0.346464
-0.000717169
0.34717
-0.000704382
0.34786
-0.000692198
0.348542
-0.000679852
0.349208
-0.000668097
0.349866
-0.000656189
0.350509
-0.000644845
0.351144
-0.000633348
0.351765
-0.000622398
0.352377
-0.000611316
0.352977
-0.000600743
0.353568
-0.000590046
0.354146
-0.000579841
0.354717
-0.000569524
0.355275
-0.000559677
0.355827
-0.000549715
0.356365
-0.00054021
0.356897
-0.000530601
0.357417
-0.000521428
0.35793
-0.000512162
0.358432
-0.000503311
0.358928
-0.000494385
0.359412
-0.000485852
0.359891
-0.000477256
0.360358
-0.00046903
0.36082
-0.00046075
0.361271
-0.000452819
0.361718
-0.000444832
0.362153
-0.000437172
0.362584
-0.000429455
0.363005
-0.000422056
0.363421
-0.000414598
0.363827
-0.000407441
0.364228
-0.000400234
0.36462
-0.000393313
0.365008
-0.000386348
0.365386
-0.000379661
0.36576
-0.000372933
0.366125
-0.000366472
0.366486
-0.000359978
0.366838
-0.000353739
0.367187
-0.000347465
0.367527
-0.000341445
0.367863
-0.000335387
0.368191
-0.000329569
0.368516
-0.000323728
0.368832
-0.000318104
0.369146
-0.000312471
0.369451
-0.000307039
0.369754
-0.000301599
0.370048
-0.000296347
0.37034
-0.000291085
0.370625
-0.000285994
0.370906
-0.00028088
0.371181
-0.000275921
-0.000270951
0.371453
0.261471
-0.00425544
0.263556
-0.00418529
0.265608
-0.00411821
0.267626
-0.00405037
0.269611
-0.00398227
0.271562
-0.00391507
0.27348
-0.00384921
0.275366
-0.00378463
0.27722
-0.00372123
0.279043
-0.00365894
0.280836
-0.00359775
0.282599
-0.00353762
0.284332
-0.00347858
0.286037
-0.00342064
0.287713
-0.00336385
0.289361
-0.00330821
0.290982
-0.0032538
0.292576
-0.00320057
0.294144
-0.00314856
0.295686
-0.00309768
0.297203
-0.00304793
0.298697
-0.00299918
0.300166
-0.00295141
0.301612
-0.00290446
0.303035
-0.00285832
0.304435
-0.00281286
0.305814
-0.00276804
0.307172
-0.00272391
0.308507
-0.00268008
0.309821
-0.00263689
0.311114
-0.00259386
0.312385
-0.00255149
0.313636
-0.00250925
0.314866
-0.00246763
0.316075
-0.00242621
0.317264
-0.0023854
0.318432
-0.00234484
0.319582
-0.00230492
0.320711
-0.00226533
0.321821
-0.00222639
0.322912
-0.00218784
0.323984
-0.00214995
0.325038
-0.00211252
0.326073
-0.00207576
0.32709
-0.00203947
0.32809
-0.00200384
0.329072
-0.00196873
0.330037
-0.00193426
0.330985
-0.00190031
0.331916
-0.00186698
0.332831
-0.00183418
0.33373
-0.00180198
0.334613
-0.0017703
0.33548
-0.0017392
0.336333
-0.00170861
0.33717
-0.00167858
0.337992
-0.00164906
0.3388
-0.00162005
0.339594
-0.00159156
0.340374
-0.00156358
0.34114
-0.00153608
0.341892
-0.00150907
0.342632
-0.00148253
0.343358
-0.00145647
0.344072
-0.00143086
0.344773
-0.0014057
0.345462
-0.001381
0.346138
-0.00135672
0.346803
-0.00133288
0.347456
-0.00130944
0.348098
-0.00128643
0.348727
-0.00126383
0.349347
-0.00124162
0.349955
-0.0012198
0.350553
-0.00119837
0.35114
-0.00117732
0.351717
-0.00115664
0.352283
-0.00113631
0.35284
-0.00111636
0.353386
-0.00109675
0.353924
-0.00107749
0.354451
-0.00105857
0.35497
-0.00103998
0.355479
-0.00102173
0.35598
-0.00100381
0.356471
-0.000986204
0.356954
-0.000968931
0.357428
-0.000951974
0.357895
-0.000935316
0.358352
-0.000918951
0.358803
-0.000902882
0.359244
-0.000887087
0.35968
-0.000871566
0.360106
-0.000856301
0.360526
-0.000841296
0.360937
-0.000826537
0.361343
-0.000812036
0.361739
-0.000797769
0.362131
-0.000783763
0.362513
-0.00076999
0.362891
-0.000756456
0.36326
-0.000743161
0.363625
-0.000730099
0.363981
-0.00071726
0.364333
-0.000704654
0.364677
-0.000692261
0.365017
-0.00068009
0.365348
-0.000668118
0.365676
-0.000656362
0.365996
-0.000644798
0.366312
-0.000633437
0.36662
-0.000622264
0.366926
-0.000611286
0.367223
-0.000600501
0.367518
-0.00058991
0.367805
-0.000579507
0.368089
-0.000569294
0.368366
-0.000559279
0.368641
-0.000549455
-0.000539809
0.368909
0.259638
-0.00636034
0.261708
-0.00625554
0.263746
-0.00615568
0.26575
-0.00605465
0.267721
-0.00595297
0.269658
-0.0058525
0.271563
-0.00575396
0.273436
-0.00565736
0.275277
-0.00556255
0.277088
-0.00546943
0.278868
-0.00537792
0.280618
-0.00528799
0.28234
-0.00519963
0.284032
-0.00511285
0.285696
-0.0050277
0.287332
-0.00494424
0.288941
-0.00486253
0.290523
-0.00478259
0.292079
-0.00470445
0.293609
-0.00462808
0.295114
-0.00455341
0.296596
-0.00448037
0.298053
-0.00440883
0.299487
-0.00433869
0.300899
-0.00426978
0.302288
-0.00420196
0.303656
-0.00413542
0.305003
-0.00406945
0.306328
-0.00400473
0.307633
-0.00394009
0.308916
-0.00387668
0.310179
-0.00381325
0.31142
-0.00375102
0.312642
-0.00368874
0.313843
-0.00362765
0.315025
-0.00356658
0.316186
-0.00350672
0.317328
-0.00344695
0.318451
-0.00338844
0.319555
-0.0033301
0.32064
-0.00327305
0.321706
-0.00321625
0.322754
-0.00316076
0.323784
-0.00310559
0.324796
-0.00305173
0.32579
-0.00299825
0.326767
-0.00294605
0.327727
-0.00289428
0.32867
-0.00284375
0.329597
-0.00279368
0.330507
-0.00274482
0.331402
-0.00269643
0.33228
-0.00264919
0.333143
-0.00260247
0.333991
-0.00255683
0.334824
-0.00251171
0.335643
-0.00246764
0.336446
-0.00242409
0.337236
-0.00238153
0.338011
-0.0023395
0.338774
-0.00229842
0.339522
-0.00225787
0.340258
-0.0022182
0.34098
-0.00217907
0.34169
-0.00214078
0.342387
-0.00210303
0.343072
-0.00206607
0.343744
-0.00202963
0.344406
-0.00199396
0.345054
-0.00195881
0.345693
-0.00192438
0.346319
-0.00189045
0.346935
-0.00185722
0.347539
-0.00182448
0.348133
-0.00179241
0.348716
-0.00176082
0.34929
-0.00172986
0.349852
-0.00169939
0.350405
-0.00166951
0.350948
-0.00164011
0.351482
-0.00161127
0.352005
-0.00158291
0.352521
-0.00155509
0.353026
-0.00152772
0.353523
-0.00150088
0.35401
-0.00147448
0.35449
-0.00144857
0.35496
-0.0014231
0.355424
-0.0013981
0.355877
-0.00137351
0.356325
-0.00134938
0.356763
-0.00132564
0.357195
-0.00130234
0.357617
-0.00127942
0.358035
-0.00125692
0.358442
-0.0012348
0.358845
-0.00121307
0.359238
-0.00119171
0.359626
-0.00117074
0.360006
-0.00115012
0.360381
-0.00112989
0.360746
-0.00110999
0.361108
-0.00109045
0.361461
-0.00107125
0.36181
-0.0010524
0.36215
-0.00103387
0.362487
-0.00101568
0.362816
-0.000997796
0.363141
-0.000980238
0.363458
-0.00096298
0.363772
-0.000946043
0.364077
-0.000929395
0.36438
-0.000913052
0.364674
-0.000896996
0.364966
-0.000881225
0.365251
-0.000865741
0.365533
-0.000850523
0.365807
-0.000835584
0.366079
-0.000820911
-0.000806511
0.366344
0.257817
-0.00845058
0.259873
-0.0083115
0.261896
-0.00817908
0.263887
-0.008045
0.265843
-0.00790993
0.267767
-0.00777637
0.269659
-0.0076454
0.271518
-0.00751699
0.273347
-0.00739098
0.275145
-0.00726721
0.276913
-0.00714559
0.278651
-0.00702604
0.28036
-0.00690853
0.28204
-0.00679306
0.283692
-0.00667971
0.285316
-0.00656856
0.286913
-0.00645969
0.288484
-0.00635317
0.290029
-0.00624905
0.291548
-0.0061473
0.293042
-0.00604789
0.294513
-0.0059507
0.295959
-0.00585561
0.297383
-0.00576242
0.298784
-0.00567097
0.300164
-0.00558118
0.301522
-0.00549268
0.302859
-0.00540575
0.304175
-0.00531958
0.30547
-0.00523467
0.306745
-0.00515023
0.307998
-0.00506694
0.309232
-0.00498402
0.310445
-0.00490225
0.311639
-0.00482083
0.312813
-0.00474061
0.313967
-0.00466078
0.315102
-0.00458223
0.316218
-0.00450414
0.317315
-0.0044274
0.318394
-0.00435119
0.319453
-0.00427643
0.320495
-0.00420225
0.321518
-0.00412957
0.322525
-0.00405752
0.323512
-0.003987
0.324484
-0.00391714
0.325437
-0.00384883
0.326376
-0.00378117
0.327296
-0.00371506
0.328202
-0.00364962
0.329089
-0.0035857
0.329964
-0.00352242
0.33082
-0.00346066
0.331664
-0.00339953
0.332491
-0.00333988
0.333305
-0.00328084
0.334103
-0.00322324
0.334888
-0.00316624
0.335658
-0.00311063
0.336416
-0.00305561
0.337159
-0.00300194
0.337891
-0.00294883
0.338607
-0.00289702
0.339313
-0.00284576
0.340004
-0.00279576
0.340686
-0.00274629
0.341353
-0.00269804
0.34201
-0.00265029
0.342654
-0.00260372
0.343288
-0.00255764
0.343909
-0.0025127
0.344521
-0.00246822
0.34512
-0.00242485
0.345711
-0.00238194
0.346289
-0.00234008
0.346859
-0.00229867
0.347416
-0.00225828
0.347966
-0.00221833
0.348504
-0.00217936
0.349035
-0.00214082
0.349553
-0.00210321
0.350065
-0.00206603
0.350566
-0.00202973
0.35106
-0.00199386
0.351543
-0.00195882
0.352019
-0.00192419
0.352485
-0.00189037
0.352945
-0.00185695
0.353395
-0.00182432
0.353839
-0.00179206
0.354273
-0.00176057
0.354702
-0.00172945
0.355121
-0.00169907
0.355535
-0.00166904
0.355939
-0.00163973
0.356339
-0.00161075
0.356728
-0.00158247
0.357114
-0.0015545
0.35749
-0.00152721
0.357862
-0.00150023
0.358225
-0.00147389
0.358584
-0.00144785
0.358934
-0.00142244
0.35928
-0.00139733
0.359618
-0.0013728
0.359952
-0.00134858
0.360278
-0.00132492
0.360601
-0.00130155
0.360915
-0.00127874
0.361227
-0.0012562
0.361529
-0.00123419
0.36183
-0.00121246
0.362122
-0.00119123
0.362412
-0.00117026
0.362694
-0.00114977
0.362974
-0.00112954
0.363246
-0.00110976
0.363516
-0.00109026
-0.00107123
0.363779
0.256009
-0.010526
0.258051
-0.0103531
0.26006
-0.0101883
0.262036
-0.0100213
0.263979
-0.00985304
0.26589
-0.00968665
0.267768
-0.00952347
0.269615
-0.00936351
0.27143
-0.00920652
0.273215
-0.00905233
0.274971
-0.00890079
0.276696
-0.00875181
0.278393
-0.00860534
0.280062
-0.00846138
0.281702
-0.00832001
0.283315
-0.00818136
0.284901
-0.00804552
0.28646
-0.00791261
0.287994
-0.00778271
0.289502
-0.00765581
0.290986
-0.00753186
0.292446
-0.00741075
0.293883
-0.0072923
0.295297
-0.00717633
0.296688
-0.00706254
0.298058
-0.00695078
0.299407
-0.00684093
0.300735
-0.0067326
0.302042
-0.00662589
0.303329
-0.00652008
0.304595
-0.0064156
0.30584
-0.00631176
0.307065
-0.00620919
0.308271
-0.0061072
0.309456
-0.00600644
0.310622
-0.00590635
0.311769
-0.00580753
0.312896
-0.00570949
0.314005
-0.00561275
0.315094
-0.00551693
0.316165
-0.00542248
0.317218
-0.00532909
0.318253
-0.00523709
0.319269
-0.00514625
0.320268
-0.00505685
0.32125
-0.00496869
0.322215
-0.00488196
0.323162
-0.00479651
0.324093
-0.0047125
0.325008
-0.00462979
0.325907
-0.0045485
0.32679
-0.0044685
0.327656
-0.0043899
0.328509
-0.00431259
0.329345
-0.00423663
0.330167
-0.00416195
0.330974
-0.00408859
0.331768
-0.00401648
0.332547
-0.00394564
0.333312
-0.00387602
0.334064
-0.00380764
0.334802
-0.00374044
0.335527
-0.00367443
0.33624
-0.00360956
0.33694
-0.00354585
0.337628
-0.00348326
0.338302
-0.00342176
0.338966
-0.00336135
0.339617
-0.00330201
0.340257
-0.00324371
0.340885
-0.00318643
0.341503
-0.00313017
0.342109
-0.0030749
0.342706
-0.00302062
0.34329
-0.00296728
0.343866
-0.00291489
0.344429
-0.00286343
0.344985
-0.00281288
0.345528
-0.00276322
0.346064
-0.00271445
0.346589
-0.00266654
0.347106
-0.00261948
0.347612
-0.00257326
0.348111
-0.00252785
0.348599
-0.00248323
0.34908
-0.00243942
0.349551
-0.00239638
0.350016
-0.00235411
0.35047
-0.00231259
0.350919
-0.00227181
0.351357
-0.00223176
0.35179
-0.00219242
0.352214
-0.00215377
0.352632
-0.00211581
0.353041
-0.00207851
0.353444
-0.00204188
0.353838
-0.00200589
0.354228
-0.00197053
0.354608
-0.00193579
0.354984
-0.00190168
0.355351
-0.00186817
0.355714
-0.00183527
0.356068
-0.00180294
0.356418
-0.0017712
0.356759
-0.00174003
0.357097
-0.00170941
0.357426
-0.00167934
0.357753
-0.00164982
0.35807
-0.0016208
0.358385
-0.00159232
0.358692
-0.00156433
0.358995
-0.00153683
0.359291
-0.00150983
0.359584
-0.0014833
0.359869
-0.00145726
0.360152
-0.00143167
0.360427
-0.00140656
0.3607
-0.00138189
0.360966
-0.00135768
-0.00133399
0.361229
0.254214
-0.012587
0.256241
-0.0123805
0.258236
-0.0121836
0.260199
-0.0119839
0.262128
-0.0117826
0.264025
-0.0115835
0.26589
-0.0113884
0.267724
-0.0111971
0.269527
-0.0110094
0.271299
-0.0108249
0.273042
-0.0106437
0.274756
-0.0104655
0.276441
-0.0102902
0.278098
-0.0101179
0.279726
-0.00994876
0.281328
-0.00978279
0.282902
-0.00962019
0.284451
-0.00946112
0.285974
-0.00930567
0.287472
-0.00915385
0.288946
-0.0090056
0.290396
-0.0088608
0.291823
-0.00871924
0.293227
-0.00858064
0.294609
-0.00844476
0.29597
-0.00831133
0.297309
-0.00817997
0.298628
-0.00805089
0.299927
-0.00792312
0.301205
-0.00779724
0.302462
-0.00767206
0.303699
-0.00754859
0.304916
-0.00742563
0.306113
-0.00730433
0.307291
-0.00718353
0.308448
-0.00706445
0.309587
-0.00694595
0.310707
-0.00682923
0.311808
-0.00671324
0.312889
-0.00659912
0.313953
-0.00648586
0.314998
-0.00637455
0.316026
-0.00626423
0.317035
-0.00615593
0.318027
-0.00604872
0.319002
-0.00594353
0.319959
-0.00583953
0.3209
-0.00573757
0.321824
-0.00563682
0.322732
-0.00553807
0.323624
-0.00544059
0.324501
-0.00534506
0.325362
-0.00525081
0.326207
-0.00515846
0.327038
-0.00506739
0.327854
-0.00497817
0.328655
-0.00489022
0.329443
-0.00480404
0.330216
-0.00471913
0.330976
-0.00463592
0.331722
-0.00455396
0.332455
-0.00447362
0.333175
-0.00439451
0.333883
-0.00431697
0.334577
-0.00424063
0.33526
-0.00416578
0.33593
-0.00409211
0.336588
-0.00401987
0.337235
-0.00394878
0.33787
-0.00387906
0.338494
-0.00381047
0.339107
-0.00374319
0.339709
-0.003677
0.340301
-0.00361207
0.340881
-0.00354821
0.341452
-0.00348556
0.342012
-0.00342394
0.342563
-0.00336349
0.343103
-0.00330404
0.343635
-0.00324571
0.344156
-0.00318836
0.344669
-0.00313208
0.345172
-0.00307674
0.345667
-0.00302244
0.346152
-0.00296906
0.34663
-0.00291666
0.347097
-0.00286516
0.347559
-0.00281461
0.34801
-0.00276493
0.348455
-0.00271616
0.348891
-0.00266823
0.349321
-0.00262118
0.349741
-0.00257494
0.350156
-0.00252954
0.350562
-0.00248493
0.350963
-0.00244113
0.351354
-0.00239809
0.351741
-0.00235583
0.352119
-0.0023143
0.352492
-0.00227354
0.352857
-0.00223349
0.353217
-0.00219416
0.353568
-0.00215554
0.353916
-0.0021176
0.354255
-0.00208034
0.354591
-0.00204377
0.354918
-0.00200783
0.355242
-0.00197254
0.355557
-0.00193788
0.35587
-0.00190385
0.356175
-0.00187042
0.356476
-0.00183759
0.35677
-0.00180534
0.357061
-0.00177367
0.357344
-0.00174256
0.357625
-0.001712
0.357898
-0.00168198
0.358169
-0.00165248
0.358433
-0.0016235
-0.00159516
0.358694
0.252431
-0.0146334
0.254444
-0.0143938
0.256426
-0.014165
0.258375
-0.0139326
0.26029
-0.0136984
0.262174
-0.013467
0.264026
-0.0132402
0.265846
-0.0130178
0.267637
-0.0127995
0.269397
-0.0125851
0.271128
-0.0123743
0.272829
-0.012167
0.274502
-0.0119632
0.276147
-0.0117628
0.277764
-0.011566
0.279355
-0.0113729
0.280918
-0.0111838
0.282456
-0.0109988
0.283968
-0.010818
0.285456
-0.0106415
0.28692
-0.0104693
0.28836
-0.010301
0.289777
-0.0101365
0.291172
-0.00997561
0.292545
-0.00981778
0.293897
-0.00966274
0.295227
-0.0095104
0.296538
-0.00936008
0.297827
-0.00921208
0.299097
-0.00906539
0.300345
-0.00892048
0.301574
-0.00877652
0.302783
-0.00863421
0.303972
-0.00849274
0.305141
-0.00835291
0.306291
-0.00821396
0.307421
-0.00807677
0.308533
-0.00794058
0.309626
-0.00780627
0.3107
-0.00767308
0.311756
-0.00754192
0.312794
-0.007412
0.313813
-0.00728423
0.314816
-0.00715781
0.3158
-0.00703362
0.316768
-0.00691084
0.317717
-0.00679036
0.318652
-0.00667131
0.319569
-0.00655459
0.320471
-0.00643931
0.321356
-0.00632635
0.322226
-0.00621483
0.32308
-0.00610559
0.32392
-0.0059978
0.324744
-0.00589224
0.325555
-0.00578809
0.326349
-0.00568613
0.327132
-0.00558554
0.327899
-0.0054871
0.328654
-0.00538998
0.329394
-0.00529494
0.330122
-0.0052012
0.330836
-0.00510946
0.331539
-0.00501898
0.332228
-0.00493044
0.332906
-0.00484311
0.333571
-0.00475767
0.334225
-0.0046734
0.334866
-0.00459094
0.335498
-0.00450962
0.336117
-0.00443005
0.336726
-0.00435158
0.337323
-0.00427481
0.337911
-0.00419909
0.338487
-0.00412501
0.339054
-0.00405195
0.33961
-0.00398048
0.340158
-0.00390999
0.340693
-0.00384103
0.341222
-0.00377302
0.341739
-0.00370648
0.342249
-0.00364087
0.342747
-0.00357668
0.34324
-0.00351339
0.343721
-0.00345144
0.344196
-0.00339039
0.34466
-0.00333062
0.345118
-0.00327171
0.345566
-0.00321405
0.346008
-0.00315722
0.346441
-0.0031016
0.346868
-0.00304678
0.347285
-0.00299314
0.347698
-0.00294027
0.3481
-0.00288853
0.348499
-0.00283754
0.348887
-0.00278764
0.349272
-0.00273845
0.349647
-0.00269031
0.350018
-0.00264286
0.350379
-0.00259641
0.350738
-0.00255064
0.351086
-0.00250583
0.351432
-0.00246167
0.351768
-0.00241845
0.352102
-0.00237585
0.352427
-0.00233416
0.352749
-0.00229307
0.353062
-0.00225286
0.353373
-0.00221323
0.353675
-0.00217445
0.353975
-0.00213623
0.354267
-0.00209882
0.354556
-0.00206196
0.354837
-0.00202585
0.355116
-0.00199028
0.355388
-0.00195543
0.355657
-0.00192109
0.355919
-0.00188742
-0.00185441
0.356179
0.250661
-0.0166657
0.25266
-0.0163931
0.254628
-0.0161326
0.256563
-0.0158677
0.258465
-0.0156009
0.260336
-0.0153373
0.262174
-0.015079
0.263982
-0.0148257
0.26576
-0.0145771
0.267508
-0.0143329
0.269226
-0.0140928
0.270916
-0.0138566
0.272577
-0.0136244
0.27421
-0.0133961
0.275816
-0.0131718
0.277395
-0.0129519
0.278948
-0.0127364
0.280475
-0.0125258
0.281977
-0.0123199
0.283454
-0.012119
0.284908
-0.011923
0.286338
-0.0117315
0.287746
-0.0115444
0.289132
-0.0113612
0.290496
-0.0111817
0.291838
-0.0110054
0.29316
-0.0108318
0.294461
-0.0106609
0.295743
-0.0104921
0.297003
-0.0103254
0.298244
-0.0101601
0.299464
-0.00999653
0.300665
-0.00983407
0.301845
-0.00967331
0.303006
-0.00951367
0.304148
-0.00935578
0.305271
-0.00919913
0.306374
-0.00904433
0.307459
-0.00889098
0.308526
-0.00873961
0.309574
-0.00858986
0.310604
-0.00844219
0.311616
-0.00829632
0.312611
-0.00815262
0.313588
-0.00801085
0.314548
-0.00787129
0.315492
-0.00773374
0.316418
-0.00759844
0.317329
-0.00746519
0.318224
-0.00733416
0.319103
-0.0072052
0.319966
-0.00707844
0.320814
-0.00695375
0.321647
-0.00683121
0.322466
-0.0067107
0.32327
-0.00659231
0.32406
-0.00647593
0.324835
-0.00636157
0.325598
-0.00624919
0.326346
-0.00613879
0.327082
-0.0060303
0.327804
-0.00592372
0.328514
-0.005819
0.32921
-0.00571613
0.329895
-0.00561507
0.330568
-0.00551579
0.331229
-0.00541826
0.331877
-0.00532245
0.332515
-0.00522834
0.333141
-0.00513589
0.333757
-0.00504508
0.33436
-0.00495587
0.334954
-0.00486825
0.335537
-0.00478218
0.33611
-0.00469763
0.336672
-0.00461459
0.337225
-0.00453302
0.337767
-0.00445289
0.338301
-0.00437419
0.338824
-0.00429689
0.339339
-0.00422096
0.339844
-0.00414638
0.340341
-0.00407312
0.340828
-0.00400116
0.341308
-0.0039305
0.341777
-0.00386107
0.34224
-0.00379289
0.342693
-0.00372592
0.34314
-0.00366015
0.343577
-0.00359556
0.344009
-0.00353213
0.344431
-0.00346984
0.344847
-0.00340867
0.345255
-0.00334859
0.345657
-0.00328959
0.34605
-0.00323163
0.346439
-0.00317471
0.346818
-0.00311879
0.347193
-0.00306385
0.347559
-0.00300989
0.347921
-0.00295688
0.348274
-0.00290482
0.348623
-0.00285368
0.348964
-0.00280344
0.349301
-0.00275412
0.34963
-0.00270567
0.349955
-0.00265809
0.350272
-0.00261135
0.350586
-0.00256546
0.350892
-0.00252038
0.351195
-0.0024761
0.35149
-0.00243261
0.351782
-0.0023899
0.352067
-0.00234795
0.352349
-0.00230675
0.352624
-0.00226629
0.352896
-0.00222657
0.353162
-0.00218755
0.353424
-0.00214925
-0.00211174
0.35368
0.248903
-0.0186834
0.250889
-0.0183784
0.252842
-0.0180864
0.254764
-0.0177892
0.256653
-0.0174899
0.25851
-0.0171944
0.260336
-0.0169048
0.262131
-0.0166208
0.263896
-0.0163421
0.265632
-0.0160683
0.267338
-0.0157991
0.269016
-0.0155343
0.270666
-0.0152739
0.272287
-0.0150178
0.273882
-0.0147663
0.27545
-0.0145197
0.276992
-0.0142782
0.278508
-0.0140421
0.279999
-0.0138115
0.281467
-0.0135864
0.282911
-0.0133668
0.284331
-0.0131524
0.28573
-0.0129428
0.287106
-0.0127377
0.288461
-0.0125366
0.289795
-0.012339
0.291107
-0.0121446
0.2924
-0.0119529
0.293673
-0.0117639
0.294925
-0.0115766
0.296157
-0.0113916
0.297369
-0.0112078
0.298561
-0.011026
0.299734
-0.0108453
0.300887
-0.0106667
0.302021
-0.0104891
0.303135
-0.0103138
0.304231
-0.0101398
0.305308
-0.00996815
0.306367
-0.00979798
0.307407
-0.00963039
0.308429
-0.00946444
0.309434
-0.0093012
0.310421
-0.00913974
0.311391
-0.00898106
0.312344
-0.0088243
0.313281
-0.00867035
0.314201
-0.00851839
0.315104
-0.00836921
0.315992
-0.00822209
0.316865
-0.00807773
0.317722
-0.00793541
0.318564
-0.00779579
0.319391
-0.00765823
0.320203
-0.00752331
0.321001
-0.00739041
0.321785
-0.00726007
0.322555
-0.00713173
0.323312
-0.00700587
0.324055
-0.00688197
0.324785
-0.00676045
0.325502
-0.00664085
0.326207
-0.00652355
0.326899
-0.00640813
0.327579
-0.0062949
0.328246
-0.00618351
0.328902
-0.00607424
0.329546
-0.00596676
0.33018
-0.00586131
0.330801
-0.0057576
0.331412
-0.00565586
0.332012
-0.00555579
0.332601
-0.00545761
0.33318
-0.00536107
0.333749
-0.00526634
0.334307
-0.0051732
0.334856
-0.0050818
0.335395
-0.00499194
0.335925
-0.00490375
0.336444
-0.00481705
0.336956
-0.00473196
0.337457
-0.00464831
0.337951
-0.00456622
0.338434
-0.00448553
0.338911
-0.00440632
0.339377
-0.00432848
0.339837
-0.00425207
0.340287
-0.00417698
0.340731
-0.00410328
0.341165
-0.00403086
0.341593
-0.00395976
0.342012
-0.00388991
0.342426
-0.00382133
0.342831
-0.00375395
0.34323
-0.00368779
0.343621
-0.00362278
0.344006
-0.00355895
0.344383
-0.00349622
0.344756
-0.00343462
0.345119
-0.00337411
0.345479
-0.00331468
0.34583
-0.0032563
0.346177
-0.00319897
0.346515
-0.00314265
0.34685
-0.00308736
0.347176
-0.00303305
0.347499
-0.00297973
0.347814
-0.00292734
0.348126
-0.00287592
0.34843
-0.0028254
0.348731
-0.00277581
0.349024
-0.00272709
0.349314
-0.00267926
0.349597
-0.00263229
0.349877
-0.00258615
0.35015
-0.00254084
0.35042
-0.00249633
0.350684
-0.00245261
0.350944
-0.00240967
-0.00236756
0.351199
0.247158
-0.0206873
0.249129
-0.02035
0.25107
-0.0200267
0.252978
-0.0196973
0.254853
-0.0193657
0.256697
-0.0190385
0.25851
-0.0187178
0.260293
-0.0184035
0.262046
-0.0180949
0.263769
-0.0177917
0.265464
-0.0174935
0.267129
-0.0172002
0.268767
-0.0169118
0.270378
-0.0166282
0.271961
-0.0163497
0.273518
-0.0160766
0.275049
-0.0158092
0.276555
-0.0155479
0.278036
-0.0152927
0.279493
-0.0150437
0.280927
-0.0148008
0.282339
-0.0145637
0.283728
-0.0143319
0.285095
-0.014105
0.286441
-0.0138825
0.287765
-0.013664
0.28907
-0.0134486
0.290353
-0.0132366
0.291618
-0.0130268
0.292861
-0.0128198
0.294085
-0.0126144
0.295289
-0.0124112
0.296473
-0.0122093
0.297637
-0.0120095
0.298782
-0.0118111
0.299908
-0.0116148
0.301015
-0.01142
0.302102
-0.0112277
0.303172
-0.011037
0.304222
-0.010849
0.305255
-0.0106629
0.306269
-0.0104795
0.307267
-0.0102982
0.308247
-0.0101199
0.30921
-0.00994369
0.310155
-0.00977053
0.311085
-0.00959961
0.311998
-0.00943177
0.312896
-0.0092662
0.313776
-0.0091037
0.314643
-0.00894346
0.315493
-0.00878628
0.316329
-0.00863133
0.317149
-0.0084794
0.317957
-0.00832965
0.318748
-0.00818287
0.319527
-0.00803823
0.320291
-0.00789648
0.321043
-0.0077568
0.32178
-0.00761993
0.322505
-0.00748509
0.323216
-0.00735297
0.323917
-0.0072228
0.324603
-0.00709529
0.325279
-0.00696966
0.325941
-0.00684659
0.326593
-0.00672535
0.327232
-0.00660659
0.327861
-0.0064896
0.328477
-0.006375
0.329085
-0.00626212
0.329679
-0.00615154
0.330266
-0.00604262
0.330839
-0.00593594
0.331405
-0.00583085
0.331959
-0.00572791
0.332505
-0.00562651
0.333039
-0.0055272
0.333566
-0.00542937
0.334081
-0.00533354
0.33459
-0.00523916
0.335087
-0.0051467
0.335578
-0.00505564
0.336057
-0.00496643
0.336531
-0.0048786
0.336994
-0.00479254
0.337451
-0.00470781
0.337897
-0.00462479
0.338339
-0.00454305
0.338769
-0.00446298
0.339195
-0.00438413
0.339611
-0.00430688
0.340022
-0.00423083
0.340423
-0.00415632
0.34082
-0.00408295
0.341208
-0.00401106
0.341592
-0.00394029
0.341966
-0.00387094
0.342336
-0.00380267
0.342697
-0.00373577
0.343054
-0.0036699
0.343402
-0.00360537
0.343747
-0.00354183
0.344083
-0.00347958
0.344416
-0.00341829
0.34474
-0.00335825
0.345061
-0.00329915
0.345373
-0.00324124
0.345683
-0.00318424
0.345985
-0.00312841
0.346284
-0.00307345
0.346575
-0.0030196
0.346863
-0.00296659
0.347144
-0.00291464
0.347422
-0.00286351
0.347693
-0.00281338
0.347962
-0.00276404
0.348223
-0.00271567
0.348483
-0.00266809
-0.00262147
0.348735
0.245425
-0.0226768
0.247383
-0.0223077
0.249309
-0.0219533
0.251204
-0.0215919
0.253066
-0.0212282
0.254897
-0.0208695
0.256698
-0.020518
0.258468
-0.0201735
0.260208
-0.0198352
0.261919
-0.0195028
0.263602
-0.0191759
0.265256
-0.0188544
0.266882
-0.0185381
0.268481
-0.0182271
0.270054
-0.0179218
0.2716
-0.0176224
0.27312
-0.0173295
0.274615
-0.0170432
0.276086
-0.0167637
0.277534
-0.0164911
0.278958
-0.0162251
0.28036
-0.0159655
0.28174
-0.0157117
0.283098
-0.0154633
0.284435
-0.0152196
0.285751
-0.01498
0.287046
-0.0147443
0.288322
-0.0145114
0.289577
-0.0142817
0.290812
-0.0140542
0.292028
-0.0138293
0.293224
-0.0136059
0.294399
-0.0133848
0.295556
-0.0131652
0.296692
-0.0129478
0.29781
-0.012732
0.298909
-0.0125187
0.299989
-0.0123073
0.30105
-0.0120985
0.302093
-0.0118919
0.303118
-0.0116881
0.304126
-0.0114867
0.305115
-0.0112882
0.306088
-0.0110923
0.307043
-0.0108995
0.307983
-0.0107093
0.308905
-0.0105223
0.309811
-0.010338
0.310702
-0.0101568
0.311577
-0.00997842
0.312436
-0.00980306
0.31328
-0.00963054
0.31411
-0.00946096
0.314925
-0.00929421
0.315725
-0.00913034
0.316512
-0.00896924
0.317284
-0.00881095
0.318043
-0.00865537
0.318789
-0.00850252
0.319521
-0.00835231
0.320241
-0.00820473
0.320948
-0.00805972
0.321642
-0.00791728
0.322324
-0.00777732
0.322994
-0.00763983
0.323653
-0.00750475
0.324299
-0.00737206
0.324934
-0.00724171
0.325558
-0.00711367
0.326171
-0.00698787
0.326773
-0.00686432
0.327365
-0.00674295
0.327945
-0.00662373
0.328517
-0.00650662
0.329077
-0.00639159
0.329628
-0.0062786
0.330169
-0.00616761
0.330701
-0.00605859
0.331222
-0.0059515
0.331736
-0.00584632
0.332239
-0.005743
0.332735
-0.00564153
0.33322
-0.00554185
0.333699
-0.00544395
0.334167
-0.00534779
0.334629
-0.00525335
0.335081
-0.00516058
0.335526
-0.00506948
0.335962
-0.00498
0.336392
-0.00489212
0.336813
-0.00480581
0.337228
-0.00472106
0.337634
-0.00463782
0.338035
-0.00455607
0.338427
-0.00447578
0.338814
-0.00439692
0.339192
-0.00431946
0.339566
-0.00424338
0.339932
-0.00416864
0.340293
-0.00409522
0.340645
-0.0040231
0.340993
-0.00395228
0.341333
-0.0038827
0.34167
-0.00381437
0.341998
-0.00374726
0.342322
-0.00368136
0.342638
-0.00361663
0.342951
-0.00355307
0.343256
-0.00349064
0.343559
-0.00342934
0.343853
-0.00336913
0.344144
-0.00331
0.344428
-0.00325191
0.34471
-0.00319488
0.344984
-0.00313886
0.345255
-0.00308385
0.345519
-0.00302984
0.345781
-0.00297679
0.346036
-0.0029247
-0.00287357
0.346289
0.243704
-0.0246526
0.245648
-0.0242521
0.247561
-0.0238666
0.249442
-0.0234734
0.251292
-0.0230777
0.25311
-0.0226877
0.254898
-0.0223057
0.256655
-0.0219312
0.258384
-0.0215634
0.260083
-0.021202
0.261753
-0.0208466
0.263396
-0.0204969
0.265011
-0.020153
0.266599
-0.0198148
0.26816
-0.0194829
0.269695
-0.0191575
0.271204
-0.0188392
0.272689
-0.0185282
0.27415
-0.0182246
0.275588
-0.0179286
0.277003
-0.0176398
0.278395
-0.0173579
0.279766
-0.0170824
0.281115
-0.0168126
0.282443
-0.0165478
0.28375
-0.0162876
0.285037
-0.0160311
0.286304
-0.0157781
0.287551
-0.0155279
0.288778
-0.0152807
0.289985
-0.0150355
0.291172
-0.0147928
0.29234
-0.0145517
0.293488
-0.0143131
0.294617
-0.014076
0.295727
-0.0138416
0.296818
-0.013609
0.297889
-0.0133794
0.298943
-0.0131518
0.299979
-0.0129274
0.300996
-0.0127054
0.301996
-0.0124867
0.302979
-0.0122705
0.303944
-0.0120578
0.304893
-0.0118478
0.305824
-0.0116414
0.30674
-0.0114378
0.30764
-0.0112377
0.308524
-0.0110405
0.309392
-0.0108468
0.310245
-0.010656
0.311083
-0.0104687
0.311906
-0.0102842
0.312715
-0.0101032
0.31351
-0.00992491
0.314291
-0.00974998
0.315058
-0.0095778
0.315811
-0.00940885
0.316551
-0.0092426
0.317278
-0.00907947
0.317993
-0.00891897
0.318695
-0.00876149
0.319384
-0.00860657
0.320061
-0.00845455
0.320726
-0.00830503
0.32138
-0.00815831
0.322022
-0.00801401
0.322653
-0.00787241
0.323272
-0.00773316
0.323881
-0.00759651
0.324478
-0.00746214
0.325066
-0.00733027
0.325642
-0.00720062
0.32621
-0.00707338
0.326766
-0.00694829
0.327313
-0.00682551
0.32785
-0.00670482
0.328379
-0.00658636
0.328896
-0.00646992
0.329406
-0.00635563
0.329906
-0.0062433
0.330398
-0.00613304
0.33088
-0.00602467
0.331356
-0.00591829
0.331821
-0.00581376
0.332279
-0.00571113
0.332728
-0.0056103
0.33317
-0.0055113
0.333603
-0.00541403
0.33403
-0.00531853
0.334448
-0.0052247
0.33486
-0.00513258
0.335264
-0.00504207
0.335662
-0.00495319
0.336051
-0.00486587
0.336436
-0.00478013
0.336811
-0.00469589