/*--------------------------------*- C++ -*----------------------------------*\
  =========                 |
  \\      /  F ield         | OpenFOAM: The Open Source CFD Toolbox
   \\    /   O peration     | Website:  https://openfoam.org
    \\  /    A nd           | Version:  8
     \\/     M anipulation  |
\*---------------------------------------------------------------------------*/
FoamFile
{
    version     2.0;
    format      ascii;
    class       volScalarField;
    location    "0.00533";
    object      p;
}
// * * * * * * * * * * * * * * * * * * * * * * * * * * * * * * * * * * * * * //

dimensions      [0 2 -2 0 0 0 0];

internalField   nonuniform List<scalar> 
461442
(
0.0363783
0.0350693
0.034089
0.0332412
0.0322761
0.0311966
0.0300608
0.0289067
0.0277525
0.0266002
0.0254505
0.0243022
0.023157
0.0220163
0.0208811
0.019754
0.0186352
0.0175278
0.0164316
0.0153488
0.0142806
0.0132293
0.012196
0.0111818
0.0101886
0.00921687
0.00826857
0.00734432
0.00644479
0.00557099
0.00472409
0.0039047
0.00311343
0.00235083
0.00161741
0.000913402
0.000239152
-0.000404933
-0.00101899
-0.00160283
-0.00215663
-0.00268036
-0.00317443
-0.00363895
-0.00407455
-0.00448151
-0.00486023
-0.00521148
-0.00553565
-0.00583363
-0.00610587
-0.00635337
-0.00657671
-0.00677691
-0.00695468
-0.00711084
-0.00724642
-0.00736213
-0.00745904
-0.00753785
-0.00759965
-0.0076452
-0.00767551
-0.00769139
-0.00769369
-0.00768334
-0.00766106
-0.00762777
-0.00758418
-0.00753112
-0.00746926
-0.0073994
-0.0073222
-0.0072383
-0.00714836
-0.00705297
-0.00695271
-0.00684813
-0.00673976
-0.00662808
-0.00651357
-0.00639667
-0.00627779
-0.00615731
-0.00603559
-0.00591297
-0.00578976
-0.00566625
-0.00554272
-0.00541941
-0.00529656
-0.00517438
-0.00505304
-0.00493275
-0.00481365
-0.00469588
-0.00457957
-0.00446485
-0.0043518
-0.00424053
-0.00413111
-0.00402359
-0.00391805
-0.0038145
-0.00371301
-0.00361359
-0.00351627
-0.00342108
-0.00332802
-0.00323712
-0.00314833
-0.0030617
-0.00297718
-0.00289478
-0.00281443
-0.00273616
-0.00265995
-0.00258575
-0.00251354
-0.00244328
-0.00237495
-0.00230852
-0.00224396
-0.00218122
-0.00212028
-0.00206109
-0.00200362
-0.00194783
-0.00189367
-0.0018411
-0.00179008
-0.00174058
-0.00169253
-0.00164593
-0.00160072
-0.00155688
-0.00151436
-0.00147312
-0.00143316
-0.00139441
-0.00135686
-0.00132047
-0.00128522
-0.00125107
-0.00121798
-0.00118595
-0.00115492
-0.00112486
-0.00109573
-0.00106751
-0.00104016
-0.00101365
-0.000987933
-0.000962965
-0.000938729
-0.000915198
-0.000892355
-0.000870179
-0.000848674
-0.000827821
-0.000807627
-0.000788079
-0.000769159
-0.000750849
-0.00073314
-0.000716003
-0.000699384
-0.000683264
-0.0006676
-0.00065237
-0.000637539
-0.000623075
-0.000608966
-0.000595219
-0.00058183
-0.000568791
-0.000556119
-0.000543807
-0.00053187
-0.000520304
-0.000509098
-0.000498242
-0.000487706
-0.000477494
-0.000467555
-0.000457887
-0.000448463
-0.000439258
-0.000430267
-0.000421459
-0.00041284
-0.000404396
-0.000396159
-0.000388093
-0.000380215
-0.000372522
-0.000365013
-0.000357711
-0.000350596
-0.000343678
-0.000336936
-0.00033037
-0.000323972
-0.000317736
-0.000311634
-0.000305641
-0.000299766
-0.000293987
-0.000288316
-0.000282735
-0.000277248
-0.000271859
-0.000266588
-0.000261414
-0.000256331
-0.000251367
-0.000246506
-0.000241758
-0.000237102
-0.000232553
-0.000228066
-0.000223681
-0.000219366
-0.000215087
-0.000210873
-0.000206701
-0.0002026
-0.000198561
-0.000194604
-0.000190695
-0.000186887
-0.000183154
-0.000179465
-0.000175843
-0.000172255
-0.000168722
-0.000165217
-0.000161763
-0.000158341
-0.00015497
-0.00015166
-0.000148379
-0.000145158
-0.000141972
-0.000138846
-0.000135753
-0.000132711
-0.00012969
-0.000126709
-0.000123773
-0.000120852
-0.000117971
-0.000115099
-0.000112277
-0.000109475
-0.000106722
-0.000103984
-0.0001013
-9.86438e-05
-9.60131e-05
-9.3426e-05
-9.08367e-05
-8.82868e-05
-8.57474e-05
-8.3238e-05
-8.07506e-05
-7.82674e-05
-7.58157e-05
-7.33911e-05
-7.10135e-05
-6.86339e-05
-6.62914e-05
-6.39502e-05
-6.16485e-05
-5.93743e-05
-5.70905e-05
-5.48362e-05
-5.25628e-05
-5.03455e-05
-4.81145e-05
-4.5911e-05
-4.3698e-05
-4.15014e-05
-3.93283e-05
-3.71406e-05
-3.49923e-05
-3.28127e-05
-3.06734e-05
-2.8507e-05
-2.63696e-05
-2.41992e-05
-2.20467e-05
-1.9886e-05
-1.76843e-05
-1.55074e-05
-1.32159e-05
-1.11662e-05
-8.1403e-06
-8.12112e-06
3.70192e-06
0.0386382
0.0373324
0.0360911
0.0349568
0.0339003
0.0328663
0.0318103
0.030731
0.0296218
0.0284947
0.0273486
0.0261953
0.0250389
0.0238798
0.0227272
0.0215779
0.0204397
0.019308
0.0181889
0.017079
0.0159835
0.0149027
0.013835
0.0127865
0.0117546
0.0107445
0.0097542
0.00878822
0.00784436
0.00692596
0.00603424
0.00516779
0.00432985
0.00351884
0.00273758
0.00198453
0.00126161
0.000569036
-9.40261e-05
-0.000725821
-0.00132791
-0.00189885
-0.00244003
-0.00295043
-0.00343147
-0.00388267
-0.00430451
-0.0046981
-0.0050631
-0.00540093
-0.00571152
-0.00599621
-0.00625519
-0.00648975
-0.00670034
-0.00688784
-0.0070534
-0.0071975
-0.00732143
-0.00742576
-0.00751167
-0.00757986
-0.00763144
-0.00766719
-0.00768802
-0.0076949
-0.0076886
-0.00767003
-0.00764001
-0.00759936
-0.00754884
-0.00748925
-0.00742131
-0.00734574
-0.00726321
-0.00717439
-0.00707987
-0.0069803
-0.00687619
-0.00676814
-0.00665659
-0.00654208
-0.00642505
-0.00630588
-0.00618504
-0.00606284
-0.00593969
-0.00581583
-0.00569166
-0.00556738
-0.00544328
-0.00531962
-0.00519656
-0.00507437
-0.00495317
-0.00483318
-0.00471448
-0.00459728
-0.00448164
-0.00436769
-0.00425553
-0.00414521
-0.00403683
-0.00393042
-0.00382605
-0.00372374
-0.00362353
-0.00352544
-0.00342951
-0.00333573
-0.0032441
-0.00315464
-0.00306735
-0.00298222
-0.00289921
-0.0028183
-0.0027395
-0.00266275
-0.00258807
-0.00251538
-0.00244469
-0.00237594
-0.00230912
-0.00224419
-0.00218112
-0.00211984
-0.00206034
-0.00200258
-0.00194651
-0.0018921
-0.00183929
-0.00178804
-0.00173832
-0.0016901
-0.00164329
-0.00159791
-0.00155391
-0.00151123
-0.00146988
-0.00142979
-0.00139093
-0.00135329
-0.00131683
-0.00128152
-0.00124729
-0.00121416
-0.00118209
-0.00115102
-0.00112093
-0.00109178
-0.00106355
-0.00103619
-0.00100967
-0.000983917
-0.000958954
-0.000934725
-0.000911209
-0.000888389
-0.000866257
-0.000844794
-0.000823995
-0.000803846
-0.000784346
-0.000765444
-0.00074717
-0.000729482
-0.000712343
-0.000695728
-0.000679603
-0.000663951
-0.00064873
-0.000633927
-0.000619486
-0.00060544
-0.000591761
-0.000578443
-0.000565491
-0.000552895
-0.000540658
-0.000528772
-0.000517243
-0.000506082
-0.000495229
-0.000484722
-0.000474514
-0.000464593
-0.000454937
-0.000445537
-0.000436382
-0.000427418
-0.000418665
-0.000410069
-0.000401699
-0.000393507
-0.000385491
-0.000377645
-0.000369985
-0.000362528
-0.000355261
-0.000348186
-0.000341306
-0.000334571
-0.000328038
-0.000321666
-0.000315438
-0.00030934
-0.000303363
-0.000297497
-0.000291744
-0.000286109
-0.00028053
-0.000275074
-0.00026973
-0.000264476
-0.000259312
-0.000254264
-0.000249322
-0.000244489
-0.000239744
-0.000235124
-0.000230547
-0.00022609
-0.000221708
-0.00021738
-0.000213123
-0.000208909
-0.000204758
-0.00020068
-0.000196693
-0.000192712
-0.000188838
-0.000185035
-0.000181288
-0.000177608
-0.000173978
-0.000170405
-0.000166861
-0.000163365
-0.000159938
-0.000156515
-0.000153163
-0.000149841
-0.000146578
-0.000143351
-0.00014018
-0.000137049
-0.00013397
-0.000130937
-0.000127895
-0.000124923
-0.00012198
-0.000119069
-0.000116172
-0.000113324
-0.000110496
-0.000107709
-0.000104946
-0.000102252
-9.95325e-05
-9.68727e-05
-9.4252e-05
-9.16374e-05
-8.90588e-05
-8.65184e-05
-8.39845e-05
-8.14613e-05
-7.89772e-05
-7.64822e-05
-7.40452e-05
-7.16425e-05
-6.92362e-05
-6.68651e-05
-6.45058e-05
-6.21781e-05
-5.98728e-05
-5.75713e-05
-5.53174e-05
-5.30006e-05
-5.07659e-05
-4.85292e-05
-4.63083e-05
-4.4077e-05
-4.18675e-05
-3.96628e-05
-3.74659e-05
-3.53166e-05
-3.31026e-05
-3.09441e-05
-2.877e-05
-2.66109e-05
-2.44401e-05
-2.22666e-05
-2.00853e-05
-1.78735e-05
-1.57e-05
-1.34175e-05
-1.13309e-05
-8.31621e-06
-8.23005e-06
3.60887e-06
0.0406574
0.0394324
0.0381891
0.0369505
0.0357639
0.0346373
0.0335506
0.0324801
0.031406
0.0303159
0.0292053
0.0280718
0.0269226
0.0257621
0.0245964
0.0234312
0.0222705
0.0211169
0.019973
0.0188406
0.0177178
0.0166084
0.0155125
0.0144313
0.0133661
0.0123186
0.0112907
0.0102835
0.00929824
0.00833716
0.00739983
0.00648853
0.00560378
0.00474626
0.00391688
0.00311615
0.00234466
0.00160304
0.000891859
0.00021052
-0.000439751
-0.00105915
-0.00164776
-0.00220552
-0.00273264
-0.00322939
-0.00369603
-0.00413302
-0.00454058
-0.00491977
-0.00527062
-0.00559399
-0.00589057
-0.00616112
-0.00640639
-0.00662719
-0.00682441
-0.00699883
-0.00715156
-0.00728327
-0.00739499
-0.00748763
-0.00756213
-0.00761943
-0.00766043
-0.00768608
-0.00769727
-0.00769488
-0.00767982
-0.00765292
-0.00761501
-0.0075669
-0.00750939
-0.00744323
-0.00736915
-0.00728785
-0.00720002
-0.00710627
-0.00700725
-0.00690352
-0.00679565
-0.00668416
-0.00656955
-0.00645228
-0.00633279
-0.00621149
-0.00608879
-0.00596499
-0.00584048
-0.00571555
-0.0055905
-0.00546559
-0.00534105
-0.00521713
-0.00509402
-0.00497193
-0.00485098
-0.00473139
-0.00461326
-0.0044967
-0.00438185
-0.00426878
-0.00415759
-0.00404834
-0.00394108
-0.00383588
-0.00373275
-0.00363176
-0.00353292
-0.00343626
-0.00334177
-0.00324946
-0.00315933
-0.00307143
-0.00298569
-0.00290209
-0.00282065
-0.00274132
-0.0026641
-0.00258894
-0.00251583
-0.00244471
-0.00237556
-0.00230837
-0.0022431
-0.00217968
-0.00211811
-0.00205832
-0.00200029
-0.00194396
-0.00188931
-0.00183627
-0.00178481
-0.00173489
-0.00168645
-0.00163951
-0.00159397
-0.00154982
-0.00150702
-0.00146554
-0.00142536
-0.00138642
-0.00134869
-0.00131218
-0.0012768
-0.00124254
-0.00120938
-0.00117729
-0.00114621
-0.0011161
-0.00108694
-0.00105871
-0.00103135
-0.00100481
-0.000979086
-0.000954144
-0.000929933
-0.000906429
-0.000883646
-0.000861546
-0.000840112
-0.000819342
-0.00079924
-0.000779746
-0.000760889
-0.000742644
-0.000724984
-0.000707873
-0.000691265
-0.000675178
-0.000659564
-0.000644383
-0.000629612
-0.00061526
-0.000601269
-0.000587649
-0.000574395
-0.000561503
-0.000548955
-0.000536759
-0.000524894
-0.00051341
-0.000502253
-0.000491458
-0.000480986
-0.000470813
-0.000460927
-0.000451306
-0.000442
-0.000432871
-0.000423967
-0.00041522
-0.000406721
-0.00039839
-0.000390238
-0.000382258
-0.000374446
-0.000366826
-0.000359401
-0.000352171
-0.000345133
-0.000338246
-0.000331581
-0.000325062
-0.000318724
-0.000312533
-0.000306457
-0.000300504
-0.000294664
-0.000288959
-0.000283321
-0.000277794
-0.000272375
-0.000267056
-0.000261812
-0.000256683
-0.000251664
-0.000246746
-0.000241914
-0.000237201
-0.000232562
-0.000228049
-0.000223607
-0.000219231
-0.000214941
-0.000210705
-0.000206494
-0.000202368
-0.000198325
-0.000194307
-0.000190375
-0.000186522
-0.00018273
-0.000178987
-0.000175318
-0.000171714
-0.000168156
-0.000164601
-0.000161133
-0.000157694
-0.000154321
-0.000150966
-0.000147669
-0.00014441
-0.000141193
-0.000138022
-0.000134909
-0.000131855
-0.00012878
-0.000125768
-0.000122818
-0.000119896
-0.000116976
-0.000114105
-0.000111267
-0.000108437
-0.000105639
-0.000102915
-0.000100184
-9.75112e-05
-9.48306e-05
-9.22186e-05
-8.95914e-05
-8.70666e-05
-8.45109e-05
-8.1966e-05
-7.947e-05
-7.69561e-05
-7.45147e-05
-7.20937e-05
-6.9666e-05
-6.72692e-05
-6.48798e-05
-6.25377e-05
-6.02133e-05
-5.78892e-05
-5.56192e-05
-5.33107e-05
-5.10497e-05
-4.88157e-05
-4.65785e-05
-4.43423e-05
-4.21158e-05
-3.98912e-05
-3.76924e-05
-3.55111e-05
-3.3298e-05
-3.11379e-05
-2.89684e-05
-2.67722e-05
-2.46049e-05
-2.243e-05
-2.02387e-05
-1.80325e-05
-1.58568e-05
-1.35671e-05
-1.15007e-05
-8.47963e-06
-8.521e-06
3.74401e-06
0.0424804
0.0413767
0.0402236
0.0390181
0.0377925
0.0365833
0.0354102
0.0342765
0.0331712
0.0320798
0.030988
0.029884
0.0287622
0.0276214
0.0264654
0.0252985
0.0241266
0.0229554
0.0217893
0.0206316
0.0194841
0.0183484
0.0172251
0.0161152
0.0150195
0.0139395
0.0128765
0.011832
0.0108076
0.00980511
0.00882552
0.00787001
0.00694016
0.00603667
0.00516046
0.00431228
0.00349282
0.00270275
0.0019423
0.00121275
0.000513524
-0.000154633
-0.000791642
-0.00139742
-0.00197199
-0.00251552
-0.00302815
-0.00351021
-0.00396204
-0.00438411
-0.0047769
-0.00514096
-0.00547693
-0.00578554
-0.00606746
-0.00632352
-0.00655452
-0.00676131
-0.0069448
-0.00710587
-0.00724544
-0.00736444
-0.00746383
-0.00754455
-0.00760753
-0.00765375
-0.00768413
-0.00769959
-0.00770106
-0.00768943
-0.00766557
-0.00763034
-0.00758457
-0.00752906
-0.00746461
-0.00739196
-0.00731182
-0.0072249
-0.00713186
-0.00703333
-0.0069299
-0.00682217
-0.00671065
-0.00659589
-0.00647833
-0.00635844
-0.00623665
-0.00611337
-0.00598891
-0.00586369
-0.00573798
-0.00561211
-0.00548633
-0.00536093
-0.0052361
-0.00511205
-0.00498902
-0.00486714
-0.00474663
-0.00462754
-0.00451007
-0.0043943
-0.00428032
-0.00416825
-0.00405814
-0.00395003
-0.003844
-0.00374008
-0.00363832
-0.00353873
-0.00344138
-0.00334617
-0.00325319
-0.00316247
-0.00307392
-0.0029876
-0.00290346
-0.00282147
-0.00274165
-0.00266394
-0.00258835
-0.00251484
-0.00244328
-0.00237379
-0.00230625
-0.00224065
-0.00217694
-0.00211507
-0.00205502
-0.00199673
-0.00194019
-0.00188531
-0.00183206
-0.00178046
-0.00173033
-0.00168178
-0.00163468
-0.001589
-0.00154474
-0.00150184
-0.00146028
-0.00142002
-0.001381
-0.00134325
-0.00130671
-0.00127127
-0.00123699
-0.00120384
-0.00117173
-0.00114063
-0.00111054
-0.00108138
-0.00105316
-0.00102582
-0.000999287
-0.000973594
-0.000948692
-0.000924483
-0.000901041
-0.000878287
-0.000856242
-0.000834847
-0.00081415
-0.000794095
-0.000774642
-0.000755843
-0.000737634
-0.000720064
-0.000702953
-0.000686403
-0.000670373
-0.000654777
-0.000639646
-0.000624945
-0.00061062
-0.000596703
-0.000583134
-0.000569955
-0.000557108
-0.000544678
-0.000532496
-0.000520702
-0.000509284
-0.000498172
-0.000487427
-0.00047701
-0.000466874
-0.000457034
-0.000447489
-0.000438185
-0.000429165
-0.00042022
-0.000411582
-0.000403107
-0.000394826
-0.000386719
-0.000378768
-0.000371026
-0.000363432
-0.000356064
-0.000348896
-0.00034186
-0.000335084
-0.000328369
-0.000321941
-0.000315656
-0.000309449
-0.00030341
-0.000297484
-0.000291702
-0.000286012
-0.00028039
-0.000274909
-0.000269541
-0.000264194
-0.000259001
-0.000253926
-0.000248933
-0.000244004
-0.000239237
-0.000234525
-0.000229938
-0.000225449
-0.000220998
-0.000216655
-0.000212404
-0.000208134
-0.000204004
-0.000199873
-0.000195837
-0.00019185
-0.000187948
-0.000184114
-0.000180313
-0.000176615
-0.000172937
-0.000169397
-0.000165788
-0.000162281
-0.000158844
-0.0001554
-0.000152033
-0.000148707
-0.000145396
-0.000142173
-0.000138955
-0.000135811
-0.000132719
-0.000129676
-0.000126595
-0.000123607
-0.000120671
-0.000117732
-0.000114836
-0.000111986
-0.000109132
-0.000106334
-0.000103542
-0.000100804
-9.81682e-05
-9.53893e-05
-9.27865e-05
-9.0133e-05
-8.76083e-05
-8.50287e-05
-8.24423e-05
-7.99546e-05
-7.74465e-05
-7.49613e-05
-7.25146e-05
-7.00643e-05
-6.77199e-05
-6.52263e-05
-6.28865e-05
-6.05797e-05
-5.82278e-05
-5.59257e-05
-5.36167e-05
-5.13626e-05
-4.91064e-05
-4.68267e-05
-4.4611e-05
-4.24256e-05
-4.01265e-05
-3.79164e-05
-3.5746e-05
-3.35583e-05
-3.13425e-05
-2.91621e-05
-2.6979e-05
-2.48008e-05
-2.26275e-05
-2.04298e-05
-1.82559e-05
-1.61027e-05
-1.37446e-05
-1.17939e-05
-8.75381e-06
-8.95686e-06
3.94298e-06
0.0442039
0.0431675
0.0420977
0.0409759
0.0398036
0.0385993
0.0373898
0.036193
0.0350242
0.0338832
0.0327634
0.031655
0.0305451
0.0294261
0.0282915
0.0271409
0.0259771
0.0248035
0.0236268
0.0224501
0.0212798
0.0201188
0.0189684
0.0178309
0.0167062
0.015596
0.0145016
0.0134234
0.0123634
0.011323
0.0103026
0.0093055
0.00833215
0.00738411
0.00646205
0.00556728
0.00470056
0.00386262
0.00305413
0.00227565
0.00152769
0.000810815
0.000124739
-0.000529644
-0.00115243
-0.00174365
-0.00230339
-0.00283175
-0.00332904
-0.00379557
-0.00423179
-0.00463818
-0.00501516
-0.00536369
-0.00568409
-0.00597727
-0.00624395
-0.00648497
-0.0067012
-0.00689351
-0.00706281
-0.00721005
-0.00733617
-0.00744212
-0.00752885
-0.00759738
-0.00764864
-0.00768358
-0.00770315
-0.00770831
-0.00769994
-0.00767897
-0.00764627
-0.00760266
-0.00754903
-0.00748612
-0.00741474
-0.00733562
-0.0072495
-0.00715704
-0.00705884
-0.00695563
-0.00684789
-0.00673627
-0.00662126
-0.00650328
-0.00638293
-0.00626057
-0.00613658
-0.00601145
-0.0058854
-0.00575891
-0.00563212
-0.00550545
-0.00537914
-0.00525331
-0.00512836
-0.00500432
-0.00488151
-0.00476001
-0.00463998
-0.0045216
-0.00440486
-0.00429
-0.00417707
-0.00406604
-0.00395715
-0.00385027
-0.0037456
-0.00364303
-0.00354275
-0.00344467
-0.00334878
-0.00325522
-0.00316383
-0.00307471
-0.00298786
-0.00290316
-0.00282071
-0.00274036
-0.00266223
-0.00258628
-0.00251226
-0.00244044
-0.00237057
-0.00230272
-0.00223686
-0.00217283
-0.00211076
-0.00205044
-0.00199196
-0.00193524
-0.00188012
-0.00182679
-0.00177493
-0.00172474
-0.00167608
-0.00162881
-0.00158309
-0.0015387
-0.00149575
-0.00145415
-0.00141378
-0.00137479
-0.00133698
-0.00130041
-0.00126495
-0.00123071
-0.00119759
-0.00116542
-0.00113441
-0.00110427
-0.00107518
-0.00104702
-0.00101964
-0.000993214
-0.000967525
-0.00094263
-0.000918561
-0.000895101
-0.000872483
-0.00085043
-0.000829133
-0.000808554
-0.000788489
-0.000769183
-0.000750389
-0.000732297
-0.000714732
-0.000697668
-0.000681276
-0.000665195
-0.000649672
-0.000634657
-0.000619928
-0.000605751
-0.000591845
-0.000578436
-0.000565244
-0.00055253
-0.000540145
-0.000528022
-0.000516372
-0.000504934
-0.000493909
-0.000483253
-0.000472801
-0.000462832
-0.000452962
-0.000443455
-0.00043431
-0.000425149
-0.000416435
-0.000407777
-0.00039936
-0.000391178
-0.000383044
-0.000375232
-0.000367456
-0.000359967
-0.000352707
-0.000345457
-0.000338603
-0.000331698
-0.000325145
-0.000318821
-0.000312433
-0.000306353
-0.000300268
-0.000294409
-0.000288717
-0.000282953
-0.000277456
-0.000271957
-0.00026661
-0.000261303
-0.000256179
-0.000251173
-0.000246092
-0.000241312
-0.000236475
-0.000231825
-0.000227354
-0.000222745
-0.000218405
-0.000214044
-0.000209745
-0.000205657
-0.000201411
-0.000197397
-0.00019331
-0.000189373
-0.00018555
-0.000181631
-0.000177961
-0.000174164
-0.000170594
-0.000167011
-0.000163371
-0.00016003
-0.000156489
-0.000153073
-0.000149792
-0.000146369
-0.000143192
-0.000139881
-0.000136716
-0.00013365
-0.000130478
-0.000127447
-0.000124382
-0.000121502
-0.000118461
-0.000115556
-0.000112749
-0.000109776
-0.000107043
-0.000104199
-0.000101423
-9.88134e-05
-9.59234e-05
-9.33772e-05
-9.06761e-05
-8.81088e-05
-8.5592e-05
-8.2894e-05
-8.04624e-05
-7.78684e-05
-7.5394e-05
-7.3014e-05
-7.04291e-05
-6.81324e-05
-6.55661e-05
-6.32431e-05
-6.10104e-05
-5.85159e-05
-5.62811e-05
-5.38983e-05
-5.16295e-05
-4.94573e-05
-4.70732e-05
-4.49037e-05
-4.26326e-05
-4.04103e-05
-3.81313e-05
-3.59585e-05
-3.3843e-05
-3.15208e-05
-2.94127e-05
-2.71545e-05
-2.49784e-05
-2.28863e-05
-2.06251e-05
-1.85053e-05
-1.62919e-05
-1.39625e-05
-1.21281e-05
-9.00134e-06
-9.50509e-06
4.14914e-06
0.0458855
0.0448741
0.0438485
0.0427899
0.0416894
0.0405458
0.0393661
0.0381673
0.0369659
0.035777
0.0346086
0.03346
0.0323282
0.0312021
0.0300751
0.0289402
0.0277916
0.0266307
0.0254576
0.0242775
0.0230957
0.0219152
0.0207421
0.0195775
0.018425
0.0172863
0.016161
0.0150519
0.0139583
0.0128827
0.0118264
0.0107897
0.0097758
0.00878456
0.00781845
0.00687862
0.00596525
0.00508045
0.00422398
0.00339749
0.00260069
0.00183486
0.00110027
0.000396747
-0.000274607
-0.000914386
-0.00152205
-0.00209764
-0.00264169
-0.00315391
-0.0036351
-0.00408527
-0.00450495
-0.00489496
-0.00525553
-0.00558767
-0.00589187
-0.00616891
-0.0064198
-0.00664519
-0.00684615
-0.00702348
-0.00717814
-0.00731117
-0.00742344
-0.00751603
-0.00758986
-0.00764592
-0.0076852
-0.00770867
-0.00771728
-0.00771199
-0.0076937
-0.00766328
-0.00762169
-0.00756968
-0.00750817
-0.00743786
-0.00735962
-0.00727412
-0.007182
-0.00708409
-0.00698082
-0.00687303
-0.00676116
-0.00664568
-0.00652727
-0.00640627
-0.00628325
-0.00615854
-0.0060325
-0.00590569
-0.00577819
-0.00565051
-0.00552292
-0.00539552
-0.00526879
-0.00514278
-0.00501778
-0.00489394
-0.00477146
-0.00465051
-0.00453107
-0.00441345
-0.00429771
-0.0041838
-0.004072
-0.00396221
-0.0038546
-0.00374907
-0.00364581
-0.00354484
-0.003446
-0.00334953
-0.00325529
-0.00316335
-0.00307365
-0.00298626
-0.0029011
-0.00281809
-0.00273738
-0.00265889
-0.00258242
-0.00250816
-0.00243595
-0.00236579
-0.00229769
-0.00223152
-0.00216732
-0.00210495
-0.00204451
-0.00198585
-0.00192887
-0.00187372
-0.00182012
-0.00176827
-0.00171796
-0.00166912
-0.00162187
-0.001576
-0.00153163
-0.00148865
-0.00144693
-0.00140664
-0.00136758
-0.00132982
-0.00129318
-0.00125783
-0.00122362
-0.00119042
-0.00115843
-0.0011273
-0.00109733
-0.00106828
-0.00104009
-0.00101285
-0.000986399
-0.000960841
-0.000936041
-0.000911909
-0.00088868
-0.000866018
-0.00084411
-0.000822971
-0.000802342
-0.000782477
-0.00076317
-0.000744556
-0.000726512
-0.000708896
-0.000692115
-0.000675599
-0.000659659
-0.000644275
-0.000629187
-0.000614667
-0.000600447
-0.000586776
-0.000573319
-0.000560289
-0.000547692
-0.000535279
-0.000523337
-0.000511677
-0.00050038
-0.000489443
-0.000478668
-0.000468547
-0.000458434
-0.000448687
-0.000439349
-0.000430046
-0.00042113
-0.000412376
-0.000403806
-0.000395473
-0.000387258
-0.000379307
-0.000371408
-0.00036379
-0.000356424
-0.000349037
-0.000342012
-0.000335077
-0.000328282
-0.00032188
-0.000315399
-0.000309194
-0.000303027
-0.000297068
-0.000291309
-0.000285466
-0.000279894
-0.000274346
-0.000268966
-0.000263546
-0.000258379
-0.000253304
-0.000248171
-0.000243303
-0.000238445
-0.000233644
-0.000229148
-0.000224513
-0.000220094
-0.000215636
-0.000211375
-0.000207203
-0.00020292
-0.000198855
-0.000194769
-0.000190775
-0.000186881
-0.000182972
-0.000179228
-0.000175385
-0.00017178
-0.000168194
-0.000164434
-0.000161157
-0.000157553
-0.000154093
-0.000150776
-0.000147379
-0.000144137
-0.000140783
-0.000137625
-0.000134506
-0.000131284
-0.000128305
-0.000125156
-0.000122232
-0.000119175
-0.0001163
-0.000113442
-0.000110446
-0.00010765
-0.00010487
-0.00010204
-9.93743e-05
-9.65477e-05
-9.39274e-05
-9.11847e-05
-8.86247e-05
-8.60751e-05
-8.337e-05
-8.09351e-05
-7.83173e-05
-7.58066e-05
-7.34295e-05
-7.08592e-05
-6.8477e-05
-6.60037e-05
-6.3556e-05
-6.13529e-05
-5.88502e-05
-5.66108e-05
-5.42e-05
-5.19086e-05
-4.97357e-05
-4.73541e-05
-4.51588e-05
-4.28601e-05
-4.06881e-05
-3.83687e-05
-3.61874e-05
-3.40692e-05
-3.17366e-05
-2.96215e-05
-2.73736e-05
-2.52344e-05
-2.30291e-05
-2.08876e-05
-1.87471e-05
-1.64918e-05
-1.42633e-05
-1.24653e-05
-9.29028e-06
-9.98826e-06
4.28998e-06
0.0475344
0.0465403
0.0455358
0.0445113
0.04346
0.0423743
0.0412512
0.0400939
0.0389103
0.0377145
0.0365186
0.0353328
0.0341615
0.0330058
0.0318604
0.030719
0.0295751
0.0284238
0.0272616
0.0260887
0.0249075
0.0237209
0.0225336
0.02135
0.0201736
0.0190074
0.0178536
0.0167136
0.0155889
0.0144801
0.0133893
0.0123168
0.0112642
0.0102334
0.00922542
0.00824168
0.00728385
0.00635282
0.00544953
0.00457521
0.00373045
0.00291594
0.00213235
0.00138006
0.000659551
-2.89279e-05
-0.000685177
-0.00130918
-0.00190056
-0.00245979
-0.00298697
-0.00348235
-0.00394624
-0.00437921
-0.00478171
-0.00515435
-0.0054978
-0.00581276
-0.00610003
-0.00636042
-0.00659479
-0.00680406
-0.00698914
-0.00715099
-0.00729065
-0.007409
-0.0075071
-0.00758593
-0.00764654
-0.00768988
-0.00771695
-0.00772878
-0.00772627
-0.00771037
-0.00768206
-0.00764216
-0.0075916
-0.00753116
-0.00746178
-0.00738415
-0.00729899
-0.00720717
-0.00710919
-0.00700583
-0.00689774
-0.00678539
-0.0066694
-0.00655027
-0.00642865
-0.00630475
-0.00617909
-0.00605226
-0.00592438
-0.00579587
-0.00566725
-0.00553854
-0.00541009
-0.00528234
-0.00515527
-0.00502919
-0.00490436
-0.00478089
-0.00465886
-0.00453847
-0.00441995
-0.00430321
-0.00418843
-0.00407577
-0.00396516
-0.00385672
-0.00375041
-0.00364649
-0.00354477
-0.00344525
-0.00334818
-0.00325338
-0.00316076
-0.00307066
-0.00298273
-0.00289705
-0.00281361
-0.00273259
-0.00265363
-0.00257682
-0.0025023
-0.00242977
-0.0023593
-0.00229102
-0.00222462
-0.00216013
-0.00209773
-0.00203706
-0.00197821
-0.00192115
-0.00186586
-0.00181225
-0.00176021
-0.00170987
-0.001661
-0.00161362
-0.00156783
-0.0015234
-0.0014804
-0.00143869
-0.00139844
-0.00135945
-0.00132159
-0.00128512
-0.00124981
-0.00121553
-0.00118254
-0.0011505
-0.00111955
-0.00108952
-0.00106062
-0.0010325
-0.00100524
-0.000979035
-0.000953492
-0.000928657
-0.000904819
-0.000881578
-0.000858982
-0.000837315
-0.000816169
-0.000795712
-0.000775878
-0.000756783
-0.000738199
-0.000720133
-0.000702891
-0.000685956
-0.000669564
-0.000653806
-0.000638379
-0.000623495
-0.000608924
-0.00059497
-0.000581302
-0.000567896
-0.000555073
-0.00054249
-0.000530154
-0.000518338
-0.000506785
-0.000495565
-0.000484533
-0.000474196
-0.000463879
-0.000453819
-0.000444331
-0.000434895
-0.000425662
-0.000416919
-0.000408169
-0.000399571
-0.000391425
-0.000383266
-0.000375278
-0.000367502
-0.000360046
-0.000352585
-0.000345323
-0.000338392
-0.000331441
-0.000324821
-0.00031837
-0.000311973
-0.000305773
-0.000299632
-0.000293817
-0.000287987
-0.000282198
-0.000276713
-0.000271236
-0.000265716
-0.000260538
-0.000255346
-0.000250249
-0.000245168
-0.000240404
-0.000235538
-0.000230819
-0.000226273
-0.000221752
-0.000217195
-0.000212949
-0.000208696
-0.000204435
-0.00020018
-0.000196248
-0.00019217
-0.000188078
-0.000184337
-0.000180467
-0.000176541
-0.000172998
-0.000169308
-0.00016549
-0.000162238
-0.000158616
-0.00015511
-0.000151674
-0.000148394
-0.000145032
-0.000141666
-0.000138542
-0.000135307
-0.000132074
-0.000129106
-0.000125942
-0.000122941
-0.000119867
-0.000117021
-0.0001141
-0.000111087
-0.000108274
-0.000105552
-0.000102583
-9.99222e-05
-9.7175e-05
-9.44312e-05
-9.16535e-05
-8.919e-05
-8.65173e-05
-8.3785e-05
-8.14012e-05
-7.87939e-05
-7.61515e-05
-7.38461e-05
-7.13075e-05
-6.87249e-05
-6.64497e-05
-6.39397e-05
-6.16348e-05
-5.91462e-05
-5.69355e-05
-5.45345e-05
-5.21469e-05
-5.00008e-05
-4.76461e-05
-4.53296e-05
-4.31775e-05
-4.08791e-05
-3.86611e-05
-3.63543e-05
-3.4261e-05
-3.20338e-05
-2.97273e-05
-2.76515e-05
-2.5488e-05
-2.31326e-05
-2.11863e-05
-1.89681e-05
-1.67764e-05
-1.44663e-05
-1.27589e-05
-9.64917e-06
-1.03156e-05
4.31018e-06
0.0491477
0.0481722
0.0471864
0.0461827
0.0451592
0.0441127
0.0430365
0.0419278
0.0407881
0.0396202
0.0384335
0.0372387
0.0360451
0.0348587
0.0336834
0.0325183
0.0313596
0.0302025
0.0290422
0.0278752
0.0266993
0.0255153
0.0243254
0.0231324
0.0219401
0.0207537
0.0195751
0.0184069
0.0172524
0.0161123
0.0149881
0.0138814
0.0127931
0.0117247
0.0106769
0.00965232
0.00865153
0.00767595
0.00672728
0.0058062
0.00491382
0.00405139
0.00321916
0.00241799
0.00164824
0.000910803
0.00020559
-0.000467146
-0.00110688
-0.00171394
-0.00228834
-0.00282998
-0.00333939
-0.00381686
-0.00426265
-0.00467747
-0.0050618
-0.00541637
-0.00574178
-0.00603888
-0.00630851
-0.00655151
-0.00676877
-0.00696126
-0.00712997
-0.00727584
-0.00739989
-0.00750321
-0.00758675
-0.00765149
-0.00769858
-0.00772897
-0.00774359
-0.00774356
-0.00772981
-0.00770316
-0.00766474
-0.00761525
-0.00755569
-0.0074869
-0.00740958
-0.00732463
-0.00723273
-0.00713451
-0.0070308
-0.00692219
-0.00680919
-0.00669238
-0.00657263
-0.00644998
-0.00632501
-0.00619854
-0.00607055
-0.00594147
-0.00581204
-0.0056822
-0.00555225
-0.00542286
-0.00529387
-0.00516564
-0.00503853
-0.00491264
-0.00478801
-0.004665
-0.0045437
-0.00442405
-0.00430642
-0.00419083
-0.00407717
-0.00396582
-0.0038565
-0.0037495
-0.00364487
-0.00354238
-0.00344229
-0.00334463
-0.00324918
-0.00315612
-0.00306547
-0.00297707
-0.00289088
-0.00280725
-0.00272573
-0.00264637
-0.00256945
-0.00249451
-0.00242166
-0.00235118
-0.00228256
-0.00221587
-0.00215149
-0.0020888
-0.00202793
-0.00196905
-0.00191198
-0.0018565
-0.00180284
-0.00175089
-0.00170036
-0.00165153
-0.00160425
-0.00155831
-0.00151401
-0.00147097
-0.00142938
-0.00138919
-0.00135016
-0.00131246
-0.00127607
-0.00124074
-0.00120665
-0.00117373
-0.00114178
-0.00111079
-0.00108111
-0.00105215
-0.00102401
-0.00099713
-0.000970896
-0.000945302
-0.000920859
-0.000896998
-0.00087375
-0.000851557
-0.000829834
-0.000808806
-0.000788525
-0.000768894
-0.000749747
-0.000731321
-0.000713539
-0.000696133
-0.000679431
-0.00066325
-0.000647372
-0.000632216
-0.000617325
-0.000602953
-0.000589096
-0.000575448
-0.000562241
-0.000549513
-0.000536938
-0.000524787
-0.000513073
-0.000501591
-0.000490331
-0.000479735
-0.000469201
-0.000458893
-0.000449251
-0.000439613
-0.000430138
-0.00042133
-0.000412417
-0.000403595
-0.000395415
-0.000387133
-0.000378952
-0.000371155
-0.000363609
-0.000355925
-0.000348635
-0.000341604
-0.000334482
-0.000327752
-0.000321212
-0.000314673
-0.000308465
-0.000302183
-0.000296203
-0.000290415
-0.000284503
-0.000278909
-0.000273451
-0.000267857
-0.000262626
-0.000257275
-0.000252239
-0.000247077
-0.000242179
-0.000237409
-0.000232506
-0.000227871
-0.000223419
-0.000218758
-0.000214367
-0.000210206
-0.000205875
-0.000201475
-0.00019763
-0.00019352
-0.000189294
-0.000185577
-0.000181702
-0.000177678
-0.000174141
-0.000170384
-0.000166534
-0.000163263
-0.000159626
-0.000156015
-0.00015266
-0.000149344
-0.000145824
-0.000142571
-0.000139403
-0.000136027
-0.000132932
-0.000129874
-0.000126612
-0.000123691
-0.000120555
-0.00011761
-0.000114758
-0.000111755
-0.000108868
-0.000106114
-0.000103168
-0.000100413
-9.77337e-05
-9.49419e-05
-9.21095e-05
-8.97224e-05
-8.69858e-05
-8.41391e-05
-8.18655e-05
-7.92481e-05
-7.64413e-05
-7.42726e-05
-7.17169e-05
-6.90059e-05
-6.68334e-05
-6.4316e-05
-6.18362e-05
-5.94895e-05
-5.72441e-05
-5.4767e-05
-5.24607e-05
-5.02553e-05
-4.78386e-05
-4.56003e-05
-4.34309e-05
-4.10497e-05
-3.89089e-05
-3.65884e-05
-3.43938e-05
-3.22918e-05
-2.99635e-05
-2.77632e-05
-2.57347e-05
-2.34162e-05
-2.12774e-05
-1.92132e-05
-1.70524e-05
-1.46556e-05
-1.30799e-05
-9.93402e-06
-1.0644e-05
4.2732e-06
0.050727
0.0497708
0.0488032
0.047819
0.0468165
0.0457941
0.0447503
0.0436807
0.042582
0.0414545
0.0402997
0.0391237
0.0379338
0.0367378
0.0355429
0.0343539
0.0331719