# Forces      
# CofR        : (0.000000e+00 0.000000e+00 0.000000e+00)
# Time        forces(pressure viscous porous)	moments(pressure viscous porous)
0.028         	((7.759884e+02 1.374673e+02 -4.498530e-20) (7.539449e+00 -2.062612e+00 7.397690e-22) (0.000000e+00 0.000000e+00 0.000000e+00)) ((-2.950686e-22 2.608886e-21 3.945120e+00) (5.582575e-24 -4.325876e-23 -1.795540e-01) (0.000000e+00 0.000000e+00 0.000000e+00))
0.03          	((7.796659e+02 1.374054e+02 -4.851076e-20) (7.477729e+00 -2.262489e+00 6.248199e-22) (0.000000e+00 0.000000e+00 0.000000e+00)) ((-3.140956e-22 2.818514e-21 4.044730e+00) (6.252284e-24 -3.852061e-23 -1.917214e-01) (0.000000e+00 0.000000e+00 0.000000e+00))
0.0325        	((7.876974e+02 1.408159e+02 -5.096729e-20) (7.386385e+00 -2.444137e+00 7.059256e-22) (0.000000e+00 0.000000e+00 0.000000e+00)) ((-3.266001e-22 2.965206e-21 3.943704e+00) (6.736899e-24 -4.283866e-23 -2.025641e-01) (0.000000e+00 0.000000e+00 0.000000e+00))
0.035         	((7.945571e+02 1.404994e+02 -5.191061e-20) (7.267197e+00 -2.599663e+00 8.060962e-22) (0.000000e+00 0.000000e+00 0.000000e+00)) ((-3.361600e-22 3.022912e-21 3.851598e+00) (7.074518e-24 -4.795272e-23 -2.118050e-01) (0.000000e+00 0.000000e+00 0.000000e+00))
0.0375        	((8.036087e+02 1.444617e+02 -5.217474e-20) (6.949170e+00 -2.794757e+00 1.012031e-21) (0.000000e+00 0.000000e+00 0.000000e+00)) ((-3.479868e-22 3.040659e-21 3.808452e+00) (7.271823e-24 -5.786266e-23 -2.217660e-01) (0.000000e+00 0.000000e+00 0.000000e+00))
0.04          	((8.141361e+02 1.334537e+02 -5.001053e-20) (6.654640e+00 -2.982086e+00 8.166263e-22) (0.000000e+00 0.000000e+00 0.000000e+00)) ((-3.683426e-22 2.916375e-21 3.075359e+00) (7.622778e-24 -4.819075e-23 -2.343069e-01) (0.000000e+00 0.000000e+00 0.000000e+00))
