# Forces      
# CofR        : (0.000000e+00 0.000000e+00 0.000000e+00)
# Time        forces(pressure viscous porous)	moments(pressure viscous porous)
0.003         	((1.296139e+03 -1.563128e+01 -1.663743e-19) (8.980212e-01 -2.115527e+00 -2.480025e-20) (0.000000e+00 0.000000e+00 0.000000e+00)) ((-1.399576e-21 6.636478e-21 -3.931804e+00) (-3.689030e-23 1.721426e-21 -2.239471e-01) (0.000000e+00 0.000000e+00 0.000000e+00))
