/*--------------------------------*- C++ -*----------------------------------*\
  =========                 |
  \\      /  F ield         | OpenFOAM: The Open Source CFD Toolbox
   \\    /   O peration     | Website:  https://openfoam.org
    \\  /    A nd           | Version:  8
     \\/     M anipulation  |
\*---------------------------------------------------------------------------*/
FoamFile
{
    version     2.0;
    format      ascii;
    class       volScalarField;
    location    "2.2";
    object      p;
}
// * * * * * * * * * * * * * * * * * * * * * * * * * * * * * * * * * * * * * //

dimensions      [0 2 -2 0 0 0 0];

internalField   nonuniform List<scalar> 
262620
(
-0.633658
-0.63379
-0.634205
-0.634831
-0.63565
-0.636659
-0.637848
-0.639204
-0.640717
-0.642378
-0.644175
-0.6461
-0.648144
-0.650298
-0.652553
-0.654902
-0.657336
-0.659849
-0.662433
-0.665082
-0.667789
-0.670549
-0.673355
-0.676202
-0.679086
-0.681999
-0.68494
-0.687902
-0.690882
-0.693877
-0.696881
-0.699892
-0.702907
-0.705922
-0.708934
-0.711942
-0.714942
-0.717932
-0.72091
-0.723874
-0.726823
-0.729753
-0.732665
-0.735556
-0.738425
-0.741271
-0.744093
-0.746889
-0.74966
-0.752403
-0.755119
-0.757806
-0.760465
-0.763094
-0.765694
-0.768263
-0.770802
-0.773311
-0.775789
-0.778235
-0.780651
-0.783035
-0.785389
-0.787712
-0.790004
-0.792265
-0.794495
-0.796695
-0.798865
-0.801004
-0.803115
-0.805195
-0.807246
-0.809268
-0.811262
-0.813228
-0.815166
-0.817076
-0.818959
-0.820816
-0.822646
-0.82445
-0.826229
-0.827983
-0.829712
-0.831417
-0.833099
-0.834756
-0.836392
-0.838004
-0.839595
-0.841164
-0.842713
-0.84424
-0.845748
-0.847236
-0.848704
-0.850154
-0.851586
-0.852999
-0.854396
-0.855775
-0.857138
-0.858484
-0.859816
-0.861131
-0.862433
-0.863719
-0.864992
-0.866252
-0.867498
-0.868732
-0.869954
-0.871164
-0.872363
-0.87355
-0.874728
-0.875896
-0.877061
-0.878179
-0.633577
-0.633709
-0.634121
-0.634746
-0.635565
-0.636573
-0.637761
-0.639117
-0.64063
-0.64229
-0.644087
-0.646012
-0.648056
-0.650209
-0.652465
-0.654813
-0.657248
-0.659761
-0.662346
-0.664995
-0.667703
-0.670463
-0.67327
-0.676118
-0.679002
-0.681916
-0.684858
-0.687821
-0.690802
-0.693797
-0.696803
-0.699815
-0.702831
-0.705847
-0.708861
-0.71187
-0.714871
-0.717863
-0.720842
-0.723808
-0.726758
-0.72969
-0.732603
-0.735495
-0.738366
-0.741214
-0.744037
-0.746835
-0.749607
-0.752352
-0.755069
-0.757758
-0.760419
-0.76305
-0.765651
-0.768222
-0.770763
-0.773273
-0.775752
-0.7782
-0.780618
-0.783004
-0.78536
-0.787684
-0.789977
-0.79224
-0.794472
-0.796674
-0.798845
-0.800987
-0.803098
-0.80518
-0.807233
-0.809257
-0.811253
-0.81322
-0.81516
-0.817072
-0.818956
-0.820815
-0.822646
-0.824452
-0.826233
-0.827988
-0.829719
-0.831426
-0.833109
-0.834768
-0.836405
-0.838019
-0.839612
-0.841183
-0.842732
-0.844262
-0.845771
-0.84726
-0.84873
-0.850182
-0.851614
-0.85303
-0.854427
-0.855808
-0.857172
-0.858521
-0.859853
-0.861171
-0.862473
-0.863761
-0.865036
-0.866297
-0.867544
-0.86878
-0.870003
-0.871214
-0.872414
-0.873603
-0.874781
-0.875952
-0.877118
-0.878237
-0.633433
-0.633564
-0.633973
-0.634598
-0.635414
-0.636421
-0.637608
-0.638963
-0.640475
-0.642135
-0.643931
-0.645856
-0.647899
-0.650053
-0.652308
-0.654657
-0.657092
-0.659606
-0.662192
-0.664842
-0.667551
-0.670312
-0.67312
-0.675969
-0.678854
-0.681771
-0.684714
-0.687678
-0.690662
-0.693659
-0.696666
-0.69968
-0.702698
-0.705717
-0.708733
-0.711744
-0.714748
-0.717742
-0.720724
-0.723692
-0.726645
-0.729579
-0.732495
-0.73539
-0.738264
-0.741114
-0.74394
-0.746741
-0.749516
-0.752263
-0.754984
-0.757676
-0.760339
-0.762973
-0.765577
-0.768151
-0.770694
-0.773207
-0.775689
-0.778141
-0.780561
-0.78295
-0.785308
-0.787636
-0.789932
-0.792198
-0.794432
-0.796637
-0.798811
-0.800955
-0.803069
-0.805154
-0.80721
-0.809237
-0.811235
-0.813205
-0.815147
-0.817061
-0.818948
-0.820809
-0.822643
-0.824452
-0.826235
-0.827993
-0.829726
-0.831435
-0.83312
-0.834782
-0.836421
-0.838038
-0.839632
-0.841205
-0.842757
-0.844289
-0.8458
-0.847292
-0.848764
-0.850217
-0.851652
-0.85307
-0.854469
-0.855852
-0.857219
-0.858569
-0.859903
-0.861223
-0.862527
-0.863818
-0.865094
-0.866357
-0.867607
-0.868844
-0.870069
-0.871282
-0.872484
-0.873675
-0.874856
-0.876028
-0.877196
-0.878317
-0.63322
-0.633348
-0.633754
-0.634375
-0.63519
-0.636195
-0.63738
-0.638733
-0.640244
-0.641902
-0.643698
-0.645622
-0.647665
-0.649818
-0.652074
-0.654423
-0.656859
-0.659373
-0.661959
-0.664611
-0.667321
-0.670084
-0.672894
-0.675745
-0.678632
-0.68155
-0.684495
-0.687463
-0.690448
-0.693448
-0.696458
-0.699476
-0.702497
-0.705518
-0.708538
-0.711553
-0.71456
-0.717557
-0.720543
-0.723515
-0.726471
-0.72941
-0.732329
-0.735229
-0.738106
-0.74096
-0.74379
-0.746596
-0.749374
-0.752127
-0.754851
-0.757547
-0.760215
-0.762853
-0.765461
-0.76804
-0.770587
-0.773105
-0.775591
-0.778047
-0.780472
-0.782865
-0.785228
-0.787559
-0.78986
-0.79213
-0.794369
-0.796578
-0.798756
-0.800905
-0.803023
-0.805112
-0.807172
-0.809203
-0.811205
-0.813179
-0.815125
-0.817044
-0.818935
-0.8208
-0.822638
-0.824451
-0.826238
-0.828
-0.829736
-0.83145
-0.833138
-0.834805
-0.836447
-0.838068
-0.839666
-0.841243
-0.842799
-0.844334
-0.845849
-0.847344
-0.84882
-0.850277
-0.851716
-0.853137
-0.85454
-0.855926
-0.857296
-0.85865
-0.859987
-0.86131
-0.862618
-0.863912
-0.865191
-0.866457
-0.86771
-0.868951
-0.870179
-0.871396
-0.8726
-0.873795
-0.874978
-0.876154
-0.877324
-0.878448
-0.632938
-0.633061
-0.633463
-0.634081
-0.634893
-0.635895
-0.637077
-0.638428
-0.639937
-0.641594
-0.643389
-0.645312
-0.647355
-0.649508
-0.651763
-0.654113
-0.656549
-0.659065
-0.661652
-0.664305
-0.667017
-0.669782
-0.672594
-0.675447
-0.678337
-0.681259
-0.684207
-0.687177
-0.690166
-0.69317
-0.696184
-0.699205
-0.70223
-0.705256
-0.70828
-0.711299
-0.714311
-0.717314
-0.720304
-0.723281
-0.726242
-0.729186
-0.732111
-0.735015
-0.737898
-0.740758
-0.743593
-0.746404
-0.749189
-0.751946
-0.754676
-0.757378
-0.760051
-0.762695
-0.765309
-0.767893
-0.770447
-0.77297
-0.775462
-0.777924
-0.780354
-0.782753
-0.785122
-0.787459
-0.789765
-0.792041
-0.794286
-0.7965
-0.798684
-0.800838
-0.802962
-0.805056
-0.807122
-0.809158
-0.811166
-0.813145
-0.815097
-0.81702
-0.818917
-0.820787
-0.822631
-0.824448
-0.82624
-0.828007
-0.829749
-0.831467
-0.833161
-0.834832
-0.83648
-0.838105
-0.839708
-0.84129
-0.84285
-0.84439
-0.845909
-0.847409
-0.84889
-0.850351
-0.851794
-0.853219
-0.854627
-0.856018
-0.857392
-0.85875
-0.860092
-0.861419
-0.862731
-0.864029
-0.865313
-0.866583
-0.86784
-0.869084
-0.870317
-0.871537
-0.872746
-0.873944
-0.875132
-0.876311
-0.877486
-0.878613
-0.632589
-0.632706
-0.633104
-0.633717
-0.634525
-0.635523
-0.636703
-0.638051
-0.639558
-0.641213
-0.643006
-0.644928
-0.64697
-0.649123
-0.651379
-0.653729
-0.656166
-0.658683
-0.661272
-0.663927
-0.666641
-0.669408
-0.672223
-0.675079
-0.677972
-0.680897
-0.683849
-0.686824
-0.689817
-0.692825
-0.695844
-0.69887
-0.7019
-0.704931
-0.707961
-0.710985
-0.714003
-0.717011
-0.720008
-0.722991
-0.725958
-0.728908
-0.73184
-0.734751
-0.73764
-0.740506
-0.743349
-0.746166
-0.748957
-0.751722
-0.754459
-0.757168
-0.759848
-0.762499
-0.76512
-0.767711
-0.770272
-0.772802
-0.775302
-0.77777
-0.780207
-0.782614
-0.784989
-0.787333
-0.789647
-0.791929
-0.794181
-0.796402
-0.798593
-0.800754
-0.802885
-0.804986
-0.807058
-0.809101
-0.811116
-0.813102
-0.81506
-0.81699
-0.818894
-0.82077
-0.82262
-0.824444
-0.826243
-0.828016
-0.829764
-0.831488
-0.833189
-0.834865
-0.83652
-0.838151
-0.83976
-0.841347
-0.842914
-0.84446
-0.845985
-0.847491
-0.848977
-0.850444
-0.851893
-0.853324
-0.854737
-0.856133
-0.857513
-0.858876
-0.860224
-0.861556
-0.862874
-0.864176
-0.865466
-0.866741
-0.868003
-0.869253
-0.87049
-0.871716
-0.87293
-0.874133
-0.875325
-0.876509
-0.877689
-0.87882
-0.632174
-0.632285
-0.632677
-0.633285
-0.634087
-0.635082
-0.636258
-0.637603
-0.639107
-0.64076
-0.642551
-0.644472
-0.646513
-0.648666
-0.650922
-0.653273
-0.655711
-0.658229
-0.660819
-0.663476
-0.666193
-0.668963
-0.671781
-0.674641
-0.677538
-0.680467
-0.683424
-0.686403
-0.689401
-0.692414
-0.695439
-0.698471
-0.701507
-0.704544
-0.70758
-0.710611
-0.713636
-0.716651
-0.719655
-0.722645
-0.72562
-0.728577
-0.731516
-0.734435
-0.737332
-0.740207
-0.743057
-0.745882
-0.748682
-0.751455
-0.7542
-0.756917
-0.759606
-0.762265
-0.764895
-0.767494
-0.770063
-0.772602
-0.77511
-0.777587
-0.780033
-0.782447
-0.784831
-0.787184
-0.789506
-0.791796
-0.794056
-0.796286
-0.798485
-0.800654
-0.802793
-0.804903
-0.806983
-0.809034
-0.811056
-0.81305
-0.815016
-0.816955
-0.818866
-0.82075
-0.822608
-0.824439
-0.826245
-0.828026
-0.829782
-0.831513
-0.833221
-0.834905
-0.836566
-0.838204
-0.839821
-0.841415
-0.842989
-0.844541
-0.846074
-0.847586
-0.849079
-0.850553
-0.852009
-0.853446
-0.854866
-0.856268
-0.857654
-0.859024
-0.860378
-0.861717
-0.86304
-0.864349
-0.865645
-0.866926
-0.868195
-0.86945
-0.870694
-0.871925
-0.873145
-0.874354
-0.875552
-0.876742
-0.877928
-0.879064
-0.631695
-0.631798
-0.632183
-0.632785
-0.633582
-0.634572
-0.635743
-0.637085
-0.638586
-0.640236
-0.642025
-0.643945
-0.645985
-0.648138
-0.650393
-0.652745
-0.655184
-0.657703
-0.660296
-0.662956
-0.665675
-0.668449
-0.67127
-0.674134
-0.677036
-0.67997
-0.682931
-0.685916
-0.68892
-0.69194
-0.69497
-0.698009
-0.701052
-0.704097
-0.70714
-0.710179
-0.713211
-0.716234
-0.719246
-0.722245
-0.725228
-0.728195
-0.731142
-0.73407
-0.736976
-0.73986
-0.742719
-0.745554
-0.748363
-0.751145
-0.7539
-0.756627
-0.759325
-0.761994
-0.764633
-0.767243
-0.769822
-0.77237
-0.774887
-0.777374
-0.77983
-0.782254
-0.784648
-0.78701
-0.789341
-0.791642
-0.793911
-0.796151
-0.798359
-0.800538
-0.802686
-0.804805
-0.806895
-0.808955
-0.810987
-0.81299
-0.814965
-0.816912
-0.818832
-0.820726
-0.822592
-0.824433
-0.826247
-0.828037
-0.829801
-0.831541
-0.833257
-0.83495
-0.836619
-0.838266
-0.839891
-0.841494
-0.843075
-0.844636
-0.846176
-0.847696
-0.849197
-0.850679
-0.852142
-0.853587
-0.855015
-0.856425
-0.857818
-0.859195
-0.860557
-0.861903
-0.863233
-0.86455
-0.865852
-0.867141
-0.868416
-0.869679
-0.870929
-0.872168
-0.873394
-0.87461
-0.875815
-0.877012
-0.878204
-0.879346
-0.631152
-0.631247
-0.631625
-0.63222
-0.63301
-0.633994
-0.635161
-0.636498
-0.637996
-0.639643
-0.64143
-0.643348
-0.645387
-0.647539
-0.649795
-0.652147
-0.654587
-0.657109
-0.659704
-0.662366
-0.665089
-0.667866
-0.670692
-0.67356
-0.676467
-0.679406
-0.682374
-0.685365
-0.688375
-0.691401
-0.694439
-0.697486
-0.700537
-0.703589
-0.706641
-0.709688
-0.71273
-0.715762
-0.718783
-0.721791
-0.724784
-0.72776
-0.730718
-0.733656
-0.736572
-0.739466
-0.742336
-0.745182
-0.748001
-0.750794
-0.75356
-0.756298
-0.759007
-0.761687
-0.764337
-0.766957
-0.769547
-0.772107
-0.774635
-0.777133
-0.779599
-0.782035
-0.784439
-0.786813
-0.789155
-0.791466
-0.793747
-0.795997
-0.798216
-0.800406
-0.802565
-0.804694
-0.806794
-0.808865
-0.810907
-0.812921
-0.814906
-0.816864
-0.818794
-0.820698
-0.822574
-0.824425
-0.826249
-0.828048
-0.829823
-0.831572
-0.833298
-0.835
-0.836679
-0.838335
-0.839969
-0.841581
-0.843171
-0.844741
-0.84629
-0.84782
-0.849329
-0.85082
-0.852292
-0.853746
-0.855182
-0.856601
-0.858002
-0.859388
-0.860758
-0.862112
-0.863451
-0.864776
-0.866086
-0.867383
-0.868666
-0.869937
-0.871195
-0.872441
-0.873676
-0.874899
-0.876112
-0.877317
-0.878516
-0.879665
-0.630547
-0.630632
-0.631002
-0.631589
-0.632373
-0.633351
-0.634512
-0.635845
-0.637338
-0.638982
-0.640766
-0.642682
-0.64472
-0.646872
-0.649128
-0.651481
-0.653922
-0.656445
-0.659043
-0.661708
-0.664434
-0.667216
-0.670046
-0.67292
-0.675832
-0.678778
-0.681752
-0.68475
-0.687767
-0.690801
-0.693847
-0.696902
-0.699961
-0.703023
-0.706084
-0.709141
-0.712192
-0.715235
-0.718266
-0.721285
-0.724289
-0.727276
-0.730245
-0.733194
-0.736122
-0.739027
-0.741909
-0.744766
-0.747597
-0.750403
-0.75318
-0.75593
-0.758651
-0.761343
-0.764006
-0.766638
-0.76924
-0.771812
-0.774353
-0.776863
-0.779342
-0.78179
-0.784206
-0.786592
-0.788946
-0.79127
-0.793563
-0.795825
-0.798056
-0.800258
-0.802429
-0.80457
-0.806682
-0.808765
-0.810818
-0.812843
-0.81484
-0.81681
-0.818751
-0.820666
-0.822553
-0.824415
-0.82625
-0.828061
-0.829846
-0.831607
-0.833343
-0.835056
-0.836745
-0.838412
-0.840056
-0.841678
-0.843279
-0.844859
-0.846418
-0.847957
-0.849477
-0.850978
-0.852459
-0.853923
-0.855368
-0.856797
-0.858208
-0.859603
-0.860982
-0.862345
-0.863693
-0.865027
-0.866347
-0.867652
-0.868945
-0.870224
-0.871491
-0.872746
-0.873989
-0.875222
-0.876443
-0.877656
-0.878864
-0.880021
-0.629882
-0.629956
-0.630317
-0.630895
-0.631671
-0.632642
-0.633797
-0.635125
-0.636614
-0.638254
-0.640036
-0.64195
-0.643986
-0.646137
-0.648393
-0.650747
-0.65319
-0.655715
-0.658315
-0.660984
-0.663714
-0.6665
-0.669335
-0.672215
-0.675133
-0.678085
-0.681066
-0.684072
-0.687098
-0.69014
-0.693195
-0.696258
-0.699328
-0.702399
-0.70547
-0.708538
-0.7116
-0.714654
-0.717696
-0.720727
-0.723742
-0.726742
-0.729723
-0.732684
-0.735625
-0.738543
-0.741437
-0.744307
-0.747152
-0.74997
-0.752761
-0.755524
-0.758259
-0.760964
-0.76364
-0.766286
-0.768902
-0.771487
-0.774042
-0.776565
-0.779058
-0.781519
-0.783949
-0.786348
-0.788716
-0.791053
-0.793359
-0.795634
-0.797879
-0.800094
-0.802278
-0.804432
-0.806557
-0.808653
-0.810719
-0.812757
-0.814767
-0.816748
-0.818703
-0.82063
-0.82253
-0.824403
-0.826251
-0.828074
-0.829871
-0.831643
-0.833392
-0.835116
-0.836817
-0.838495
-0.840151
-0.841784
-0.843397
-0.844988
-0.846558
-0.848108
-0.849639
-0.85115
-0.852643
-0.854117
-0.855573
-0.857012
-0.858434
-0.859839
-0.861228
-0.862601
-0.86396
-0.865304
-0.866633
-0.867948
-0.869251
-0.87054
-0.871817
-0.873081
-0.874334
-0.875576
-0.876806
-0.878029
-0.879247
-0.880411
-0.629157
-0.629219
-0.62957
-0.630139
-0.630907
-0.63187
-0.633019
-0.63434
-0.635824
-0.637461
-0.639239
-0.641151
-0.643186
-0.645336
-0.647592
-0.649946
-0.652391
-0.654918
-0.657522
-0.660194
-0.662928
-0.665719
-0.66856
-0.671446
-0.674371
-0.67733
-0.680319
-0.683332
-0.686367
-0.689418
-0.692482
-0.695556
-0.698636
-0.701718
-0.704801
-0.70788
-0.710954
-0.714019
-0.717075
-0.720118
-0.723146
-0.726158
-0.729153
-0.732128
-0.735082
-0.738014
-0.740922
-0.743807
-0.746666
-0.749498
-0.752303
-0.755081
-0.75783
-0.76055
-0.763241
-0.765902
-0.768532
-0.771132
-0.773702
-0.77624
-0.778747
-0.781223
-0.783668
-0.786082
-0.788464
-0.790816
-0.793136
-0.795426
-0.797685
-0.799914
-0.802113
-0.804281
-0.80642
-0.80853
-0.810611
-0.812662
-0.814686
-0.816681
-0.818649
-0.82059
-0.822503
-0.82439
-0.826252
-0.828087
-0.829897
-0.831683
-0.833444
-0.835181
-0.836895
-0.838585
-0.840254
-0.8419
-0.843524
-0.845127
-0.84671
-0.848272
-0.849815
-0.851338
-0.852842
-0.854328
-0.855795
-0.857246
-0.858679
-0.860095
-0.861496
-0.86288
-0.86425
-0.865605
-0.866945
-0.868271
-0.869584
-0.870884
-0.872171
-0.873446
-0.87471
-0.875962
-0.877203
-0.878436
-0.879664
-0.880837
-0.628373
-0.628423
-0.628762
-0.629322
-0.63008
-0.631035
-0.632177
-0.633492
-0.634971
-0.636603
-0.638378
-0.640287
-0.642321
-0.64447
-0.646726
-0.649081
-0.651527
-0.654057
-0.656663
-0.659339
-0.662079
-0.664875
-0.667721
-0.670614
-0.673546
-0.676513
-0.67951
-0.682532
-0.685576
-0.688637
-0.691712
-0.694797
-0.697888
-0.700982
-0.704076
-0.707168
-0.710254
-0.713333
-0.716401
-0.719458
-0.7225
-0.725527
-0.728536
-0.731525
-0.734494
-0.737441
-0.740365
-0.743264
-0.746139
-0.748986
-0.751808
-0.754601
-0.757366
-0.760102
-0.762808
-0.765485
-0.768132
-0.770747
-0.773333
-0.775887
-0.77841
-0.780902
-0.783363
-0.785792
-0.788191
-0.790558
-0.792895
-0.7952
-0.797475
-0.799719
-0.801933
-0.804117
-0.806272
-0.808396
-0.810492
-0.812559
-0.814598
-0.816608
-0.818591
-0.820546
-0.822474
-0.824375
-0.826251
-0.828101
-0.829925
-0.831725
-0.8335
-0.835251
-0.836978
-0.838682
-0.840364
-0.842024
-0.843662
-0.845278
-0.846874
-0.848449
-0.850004
-0.85154
-0.853057
-0.854555
-0.856036
-0.857498
-0.858944
-0.860372
-0.861785
-0.863182
-0.864563
-0.865929
-0.867282
-0.86862
-0.869944
-0.871255
-0.872554
-0.873841
-0.875116
-0.876379
-0.877631
-0.878875
-0.880114
-0.881297
-0.627531
-0.627568
-0.627896
-0.628444
-0.629193
-0.630139
-0.631273
-0.632582
-0.634055
-0.635682
-0.637453
-0.63936
-0.641391
-0.643539
-0.645795
-0.648151
-0.650599
-0.653132
-0.655742
-0.658422
-0.661166
-0.663967
-0.66682
-0.66972
-0.67266
-0.675635
-0.678641
-0.681673
-0.684727
-0.687798
-0.690884
-0.69398
-0.697083
-0.70019
-0.703297
-0.706402
-0.709502
-0.712594
-0.715677
-0.718749
-0.721806
-0.724848
-0.727872
-0.730877
-0.733862
-0.736825
-0.739765
-0.742681
-0.745571
-0.748436
-0.751274
-0.754084
-0.756866
-0.759619
-0.762342
-0.765036
-0.7677
-0.770333
-0.772935
-0.775507
-0.778047
-0.780556
-0.783034
-0.785481
-0.787896
-0.790281
-0.792634
-0.794956
-0.797248
-0.799509
-0.80174
-0.80394
-0.806111
-0.808252
-0.810364
-0.812447
-0.814502
-0.816528
-0.818527
-0.820498
-0.822442
-0.824359
-0.82625
-0.828115
-0.829954
-0.831769
-0.833559
-0.835325
-0.837067
-0.838786
-0.840482
-0.842156
-0.843808
-0.845439
-0.847049
-0.848638
-0.850207
-0.851757
-0.853287
-0.854799
-0.856293
-0.857769
-0.859227
-0.860669
-0.862095
-0.863505
-0.864899
-0.866278
-0.867643
-0.868993
-0.87033
-0.871654
-0.872965
-0.874264
-0.875551
-0.876826
-0.87809
-0.879347
-0.880597
-0.881791
-0.626633
-0.626656
-0.626971
-0.627508
-0.628245
-0.629182
-0.630308
-0.63161
-0.633076
-0.634699
-0.636466
-0.638369
-0.640399
-0.642546
-0.644802
-0.647159
-0.649609
-0.652144
-0.654757
-0.657441
-0.660191
-0.662998
-0.665858
-0.668765
-0.671713
-0.674697
-0.677712
-0.680754
-0.683819
-0.686902
-0.689999
-0.693107
-0.696223
-0.699343
-0.702464
-0.705583
-0.708698
-0.711805
-0.714904
-0.71799
-0.721064
-0.724121
-0.727162
-0.730184
-0.733186
-0.736166
-0.739123
-0.742057
-0.744965
-0.747847
-0.750703
-0.753531
-0.756331
-0.759102
-0.761844
-0.764556
-0.767238
-0.769889
-0.77251
-0.7751
-0.777658
-0.780186
-0.782682
-0.785147
-0.787581
-0.789983
-0.792354
-0.794695
-0.797004
-0.799283
-0.801532
-0.80375
-0.805938
-0.808097
-0.810227
-0.812327
-0.814399
-0.816442
-0.818458
-0.820446
-0.822406
-0.82434
-0.826247
-0.828129
-0.829985
-0.831815
-0.833621
-0.835403
-0.837161
-0.838896
-0.840608
-0.842297
-0.843964
-0.84561
-0.847235
-0.848839
-0.850423
-0.851987
-0.853532
-0.855059
-0.856567
-0.858057
-0.85953
-0.860986
-0.862425
-0.863849
-0.865257
-0.86665
-0.868028
-0.869392
-0.870742
-0.872079
-0.873404
-0.874716
-0.876015
-0.877304
-0.878581
-0.87985
-0.881113
-0.882318
-0.62568
-0.625687
-0.625989
-0.626513
-0.62724
-0.628167
-0.629283
-0.630577
-0.632038
-0.633654
-0.635418
-0.637318
-0.639345
-0.641491
-0.643747
-0.646105
-0.648556
-0.651094
-0.653711
-0.6564
-0.659154
-0.661968
-0.664835
-0.66775
-0.670706
-0.6737
-0.676725
-0.679778
-0.682854
-0.685949
-0.689058
-0.69218
-0.695309
-0.698443
-0.701578
-0.704713
-0.707843
-0.710966
-0.71408
-0.717184
-0.720274
-0.723349
-0.726407
-0.729447
-0.732466
-0.735465
-0.73844
-0.741392
-0.744319
-0.747221
-0.750095
-0.752943
-0.755761
-0.758552
-0.761313
-0.764045
-0.766746
-0.769417
-0.772057
-0.774666
-0.777244
-0.779791
-0.782307
-0.784791
-0.787244
-0.789666
-0.792056
-0.794416
-0.796744
-0.799042
-0.80131
-0.803547
-0.805754
-0.807931
-0.810079
-0.812198
-0.814288
-0.81635
-0.818383
-0.820389
-0.822367
-0.824319
-0.826244
-0.828143
-0.830016
-0.831864
-0.833687
-0.835486
-0.83726
-0.839012
-0.84074
-0.842446
-0.844129
-0.845792
-0.847432
-0.849052
-0.850652
-0.852232
-0.853793
-0.855334
-0.856858
-0.858363
-0.859851
-0.861322
-0.862776
-0.864214
-0.865637
-0.867044
-0.868437
-0.869815
-0.87118
-0.872531
-0.873869
-0.875195
-0.876509
-0.877811
-0.879102
-0.880384
-0.881661
-0.882878
-0.624671
-0.624663
-0.62495
-0.625461
-0.626176
-0.627093
-0.6282
-0.629486
-0.630939
-0.63255
-0.634309
-0.636205
-0.63823
-0.640375
-0.642631
-0.644989
-0.647443
-0.649983
-0.652604
-0.655298
-0.658058
-0.660878
-0.663753
-0.666676
-0.669641
-0.672644
-0.67568
-0.678744
-0.681832
-0.684939
-0.688062
-0.691197
-0.694341
-0.69749
-0.700641
-0.703791
-0.706937
-0.710077
-0.713209
-0.716329
-0.719437
-0.72253
-0.725607
-0.728665
-0.731704
-0.734722
-0.737717
-0.740688
-0.743635
-0.746556
-0.749451
-0.752318
-0.755158
-0.757969
-0.76075
-0.763502
-0.766224
-0.768915
-0.771576
-0.774206
-0.776805
-0.779372
-0.781908
-0.784413
-0.786887
-0.789329
-0.79174
-0.794119
-0.796468
-0.798786
-0.801074
-0.803331
-0.805558
-0.807755
-0.809922
-0.812061
-0.81417
-0.816251
-0.818304
-0.820328
-0.822326
-0.824296
-0.826239
-0.828157
-0.830048
-0.831914
-0.833756
-0.835572
-0.837365
-0.839134
-0.84088
-0.842603
-0.844304
-0.845983
-0.84764
-0.849277
-0.850894
-0.85249
-0.854067
-0.855625
-0.857165
-0.858686
-0.86019
-0.861677
-0.863147
-0.864601
-0.866039
-0.867461
-0.868869
-0.870263
-0.871642
-0.873008
-0.874362
-0.875702
-0.87703
-0.878347
-0.879652
-0.880949
-0.88224
-0.88347
-0.62361
-0.623584
-0.623857
-0.624354
-0.625056
-0.625961
-0.627059
-0.628336
-0.629782
-0.631387
-0.63314
-0.635033
-0.637056
-0.639199
-0.641454
-0.643814
-0.646269
-0.648813
-0.651438
-0.654136
-0.656902
-0.65973
-0.662612
-0.665543
-0.668518
-0.671532
-0.674579
-0.677655
-0.680755
-0.683875
-0.687012
-0.690161
-0.69332
-0.696484
-0.699651
-0.702818
-0.705981
-0.709139
-0.712289
-0.715428
-0.718554
-0.721667
-0.724763
-0.727841
-0.730899
-0.733937
-0.736953
-0.739945
-0.742912
-0.745855
-0.748771
-0.751659
-0.75452
-0.757352
-0.760155
-0.762929
-0.765672
-0.768386
-0.771068
-0.77372
-0.77634
-0.778929
-0.781487
-0.784013
-0.786508
-0.788972
-0.791404
-0.793806
-0.796176
-0.798515
-0.800824
-0.803102
-0.805349
-0.807567
-0.809756
-0.811914
-0.814044
-0.816145
-0.818218
-0.820263
-0.82228
-0.82427
-0.826234
-0.82817
-0.830081
-0.831966
-0.833827
-0.835662
-0.837474
-0.839261
-0.841026
-0.842767
-0.844486
-0.846183
-0.847859
-0.849513
-0.851147
-0.852761
-0.854356
-0.855931
-0.857488
-0.859026
-0.860547
-0.86205
-0.863537
-0.865007
-0.866461
-0.8679
-0.869324
-0.870734
-0.872129
-0.873511
-0.87488
-0.876236
-0.87758
-0.878912
-0.880233
-0.881545
-0.882851
-0.884094
-0.622495
-0.622452
-0.622709
-0.623191
-0.62388
-0.624774
-0.625861
-0.627128
-0.628567
-0.630165
-0.631914
-0.633802
-0.635822
-0.637964
-0.640219
-0.642579
-0.645037
-0.647583
-0.650212
-0.652916
-0.655688
-0.658523
-0.661413
-0.664353
-0.667338
-0.670363
-0.673421
-0.676509
-0.679622
-0.682757
-0.685908
-0.689072
-0.692247
-0.695427
-0.698611
-0.701795
-0.704977
-0.708153
-0.711321
-0.714479
-0.717626
-0.720758
-0.723874
-0.726973
-0.730053
-0.733112
-0.736149
-0.739162
-0.742152
-0.745116
-0.748054
-0.750965
-0.753849
-0.756703
-0.759529
-0.762325
-0.765092
-0.767828
-0.770533
-0.773207
-0.775851
-0.778462
-0.781043
-0.783592
-0.78611
-0.788596
-0.791051
-0.793475
-0.795867
-0.798229
-0.80056
-0.802859
-0.80513
-0.807369
-0.809579
-0.811759
-0.813911
-0.816033
-0.818128
-0.820193
-0.822232
-0.824242
-0.826226
-0.828183
-0.830115
-0.83202
-0.833901
-0.835756
-0.837587
-0.839394
-0.841178
-0.842938
-0.844677
-0.846393
-0.848087
-0.84976
-0.851413
-0.853045
-0.854658
-0.856252
-0.857826
-0.859382
-0.860921
-0.862442
-0.863946
-0.865433
-0.866905
-0.868361
-0.869802
-0.871228
-0.872641
-0.874039
-0.875424
-0.876797
-0.878157
-0.879505
-0.880842
-0.88217
-0.883492
-0.884749
-0.621329
-0.621267
-0.621507
-0.621975
-0.622649
-0.623531
-0.624606
-0.625865
-0.627295
-0.628886
-0.630629
-0.632514
-0.634531
-0.636671
-0.638926
-0.641287
-0.643746
-0.646296
-0.648929
-0.651638
-0.654417
-0.657259
-0.660157
-0.663107
-0.666102
-0.669138
-0.672208
-0.675309
-0.678436
-0.681584
-0.684751
-0.687931
-0.691121
-0.694319
-0.697521
-0.700723
-0.703923
-0.707118
-0.710306
-0.713485
-0.716652
-0.719805
-0.722943
-0.726063
-0.729164
-0.732246
-0.735305
-0.738342
-0.741354
-0.744341
-0.747303
-0.750237
-0.753144
-0.756022
-0.758872
-0.761692
-0.764482
-0.767242
-0.769971
-0.772669
-0.775336
-0.777972
-0.780576
-0.783149
-0.785691
-0.788201
-0.790679
-0.793126
-0.795542
-0.797927
-0.800281
-0.802605
-0.804897
-0.80716
-0.809393
-0.811596
-0.81377
-0.815915
-0.818031
-0.820119
-0.822179
-0.824212
-0.826217
-0.828196
-0.830148
-0.832075
-0.833976
-0.835853
-0.837704
-0.839532
-0.841336
-0.843117
-0.844875
-0.846612
-0.848326
-0.850019
-0.851691
-0.853343
-0.854974
-0.856587
-0.85818
-0.859755
-0.861312
-0.862852
-0.864374
-0.86588
-0.867369
-0.868843
-0.870302
-0.871746
-0.873175
-0.874591
-0.875994
-0.877384
-0.878761
-0.880126
-0.88148
-0.882825
-0.884163
-0.885435
-0.620112
-0.62003
-0.620253
-0.620705
-0.621365
-0.622233
-0.623298
-0.624546
-0.625967
-0.627551
-0.629289
-0.631169
-0.633183
-0.635321
-0.637575
-0.639937
-0.642398
-0.644951
-0.647589
-0.650303
-0.653089
-0.655938
-0.658845
-0.661805
-0.66481
-0.667857
-0.67094
-0.674055
-0.677196
-0.680359
-0.683541
-0.686738
-0.689945
-0.693161
-0.696381
-0.699602
-0.702821
-0.706037
-0.709245
-0.712445
-0.715633
-0.718808
-0.721968
-0.725111
-0.728235
-0.731339
-0.734422
-0.737482
-0.740519
-0.74353
-0.746516
-0.749475
-0.752406
-0.755309
-0.758183
-0.761028
-0.763843
-0.766628
-0.769382
-0.772105
-0.774797
-0.777458
-0.780087
-0.782685
-0.785251
-0.787786
-0.790289
-0.792761
-0.795201
-0.797611
-0.799989
-0.802337
-0.804654
-0.80694
-0.809197
-0.811424
-0.813621
-0.815789
-0.817929
-0.82004
-0.822123
-0.824178
-0.826206
-0.828208
-0.830182
-0.832131
-0.834055
-0.835953
-0.837826
-0.839675
-0.841501
-0.843303
-0.845082
-0.846839
-0.848574
-0.850287
-0.85198
-0.853652
-0.855303
-0.856936
-0.858549
-0.860143
-0.86172
-0.863279
-0.86482
-0.866345
-0.867853
-0.869346
-0.870823
-0.872286
-0.873734
-0.875168
-0.876589
-0.877996
-0.879392
-0.880775
-0.882146
-0.883509
-0.884864
-0.886152
-0.618845
-0.618743
-0.618948
-0.619383
-0.620028
-0.620882
-0.621934
-0.623172
-0.624584
-0.626161
-0.627892
-0.629768
-0.631778
-0.633915
-0.636168
-0.638531
-0.640994
-0.64355
-0.646192
-0.648912
-0.651704
-0.654561
-0.657478
-0.660447
-0.663464
-0.666523
-0.669619
-0.672747
-0.675902
-0.679081
-0.682279
-0.685493
-0.688718
-0.691952
-0.695191
-0.698432
-0.701672
-0.704908
-0.708138
-0.711359
-0.71457
-0.717768
-0.72095
-0.724117
-0.727265
-0.730393
-0.733501
-0.736585
-0.739647
-0.742683
-0.745694
-0.748678
-0.751635
-0.754564
-0.757464
-0.760334
-0.763175
-0.765986
-0.768766
-0.771515
-0.774233
-0.77692
-0.779575
-0.782199
-0.784791
-0.787352
-0.789881
-0.792378
-0.794844
-0.797279
-0.799683
-0.802056
-0.804398
-0.806709
-0.808991
-0.811242
-0.813464
-0.815657
-0.817821
-0.819956
-0.822063
-0.824142
-0.826194
-0.828219
-0.830217
-0.832189
-0.834135
-0.836056
-0.837952
-0.839824
-0.841671
-0.843495
-0.845296
-0.847075
-0.848831
-0.850566
-0.85228
-0.853973
-0.855646
-0.857299
-0.858932
-0.860548
-0.862144
-0.863723
-0.865285
-0.866829
-0.868357
-0.86987
-0.871366
-0.872848
-0.874315
-0.875769
-0.877208
-0.878635
-0.880048
-0.88145
-0.88284
-0.884221
-0.885594
-0.886898
-0.617529
-0.617405
-0.617592
-0.618009
-0.618638
-0.619478
-0.620518
-0.621745
-0.623148
-0.624716
-0.626441
-0.628311
-0.630318
-0.632453
-0.634706
-0.637069
-0.639534
-0.642094
-0.64474
-0.647466
-0.650265
-0.65313
-0.656056
-0.659035
-0.662063
-0.665135
-0.668244
-0.671386
-0.674557
-0.677752
-0.680967
-0.684198
-0.687442
-0.690695
-0.693953
-0.697214
-0.700475
-0.703733
-0.706985
-0.710229
-0.713463
-0.716684
-0.719891
-0.723082
-0.726254
-0.729408
-0.73254
-0.735651
-0.738738
-0.7418
-0.744837
-0.747848
-0.750831
-0.753787
-0.756713
-0.759611
-0.762479
-0.765317
-0.768124
-0.7709
-0.773645
-0.776359
-0.779041
-0.781692
-0.784311
-0.786899
-0.789454
-0.791979
-0.794471
-0.796933
-0.799363
-0.801762
-0.80413
-0.806467
-0.808775
-0.811052
-0.8133
-0.815518
-0.817707
-0.819867
-0.821999
-0.824103
-0.826179
-0.828228
-0.830251
-0.832247
-0.834217
-0.836162
-0.838081
-0.839976
-0.841847
-0.843694
-0.845518
-0.847319
-0.849098
-0.850855
-0.852591
-0.854306
-0.856001
-0.857675
-0.859331
-0.860967
-0.862585
-0.864185
-0.865767
-0.867332
-0.868881
-0.870413
-0.871931
-0.873432
-0.87492
-0.876393
-0.877852
-0.879298
-0.880731
-0.882152
-0.883561
-0.884962
-0.886354
-0.887674
-0.616165
-0.616019
-0.616186
-0.616585
-0.617197
-0.618023
-0.61905
-0.620265
-0.621658
-0.623218
-0.624936
-0.626801
-0.628804
-0.630936
-0.633188
-0.635552
-0.638019
-0.640582
-0.643233
-0.645965
-0.648771
-0.651645
-0.654579
-0.65757
-0.660609
-0.663693
-0.666816
-0.669973
-0.67316
-0.676371
-0.679604
-0.682853
-0.686116
-0.689388
-0.692667
-0.695949
-0.699232
-0.702512
-0.705787
-0.709054
-0.712312
-0.715558
-0.718789
-0.722005
-0.725204
-0.728383
-0.731542
-0.734678
-0.737792
-0.740882
-0.743946
-0.746984
-0.749995
-0.752978
-0.755933
-0.758858
-0.761754
-0.76462
-0.767455
-0.770259
-0.773033
-0.775774
-0.778485
-0.781164
-0.783811
-0.786426
-0.78901
-0.791561
-0.794082
-0.796571
-0.799028
-0.801454
-0.80385
-0.806214
-0.808549
-0.810853
-0.813127
-0.815371
-0.817587
-0.819773
-0.821931
-0.824061
-0.826163
-0.828237
-0.830285
-0.832306
-0.834301
-0.83627
-0.838214
-0.840133
-0.842028
-0.843899
-0.845747
-0.847572
-0.849374
-0.851154
-0.852913
-0.854651
-0.856368
-0.858065
-0.859743
-0.861401
-0.863041
-0.864663
-0.866267
-0.867853
-0.869424
-0.870977
-0.872516
-0.874038
-0.875546
-0.87704
-0.87852
-0.879986
-0.88144
-0.882881
-0.88431
-0.88573
-0.887142
-0.88848
-0.614753
-0.614584
-0.614731
-0.615111
-0.615706
-0.616516
-0.617529
-0.618733
-0.620115
-0.621667
-0.623378
-0.625237
-0.627237
-0.629366
-0.631617
-0.633982
-0.636451
-0.639017
-0.641672
-0.64441
-0.647223
-0.650105
-0.65305
-0.656051
-0.659103
-0.6622
-0.665337
-0.668509
-0.671712
-0.67494
-0.67819
-0.681458
-0.684741
-0.688033
-0.691333
-0.694637
-0.697942
-0.701246
-0.704544
-0.707836
-0.711118
-0.714389
-0.717646
-0.720888
-0.724113
-0.727319
-0.730505
-0.733669
-0.736811
-0.739928
-0.743021
-0.746087
-0.749126
-0.752138
-0.755122
-0.758076
-0.761001
-0.763896
-0.76676
-0.769593
-0.772396
-0.775167
-0.777906
-0.780614
-0.78329
-0.785934
-0.788547
-0.791127
-0.793676
-0.796194
-0.79868
-0.801134
-0.803558
-0.805951
-0.808313
-0.810644
-0.812946
-0.815218
-0.817461
-0.819674
-0.821859
-0.824015
-0.826144