/*--------------------------------*- C++ -*----------------------------------*\
  =========                 |
  \\      /  F ield         | OpenFOAM: The Open Source CFD Toolbox
   \\    /   O peration     | Website:  https://openfoam.org
    \\  /    A nd           | Version:  8
     \\/     M anipulation  |
\*---------------------------------------------------------------------------*/
FoamFile
{
    version     2.0;
    format      ascii;
    class       volScalarField;
    location    "0.015219";
    object      nuTilda;
}
// * * * * * * * * * * * * * * * * * * * * * * * * * * * * * * * * * * * * * //

dimensions      [0 2 -1 0 0 0 0];

internalField   nonuniform List<scalar> 
106000
(
0.00058717
7.27211e-05
3.51336e-05
2.37055e-05
1.88996e-05
2.10449e-05
1.46792e-05
1.35556e-05
1.26967e-05
1.20389e-05
1.15897e-05
1.17216e-05
1.1991e-05
1.22977e-05
1.25777e-05
1.285e-05
1.30644e-05
1.32062e-05
1.32798e-05
1.33064e-05
1.33147e-05
1.33169e-05
1.33312e-05
1.33563e-05
1.33804e-05
1.33939e-05
1.33918e-05
1.33747e-05
1.33421e-05
1.32654e-05
1.31453e-05
1.30019e-05
1.28311e-05
1.33794e-05
1.24981e-05
1.3232e-05
1.20512e-05
1.17726e-05
1.15535e-05
1.13716e-05
1.12892e-05
1.11139e-05
1.07802e-05
1.04532e-05
9.98594e-06
9.21859e-06
8.12786e-06
7.39649e-06
7.57394e-06
7.8979e-06
0.00167191
0.000349242
0.000181077
0.000121705
9.30841e-05
7.78893e-05
6.67256e-05
5.98909e-05
5.49548e-05
5.11757e-05
4.83768e-05
4.79685e-05
4.93853e-05
5.15711e-05
5.43226e-05
5.71701e-05
5.94212e-05
6.09783e-05
6.19621e-05
6.25579e-05
6.29787e-05
6.33079e-05
6.3673e-05
6.40547e-05
6.43697e-05
6.4555e-05
6.45854e-05
6.4478e-05
6.42496e-05
6.38008e-05
6.31741e-05
6.2452e-05
6.16562e-05
6.10059e-05
5.97659e-05
5.88659e-05
5.73186e-05
5.60391e-05
5.49403e-05
5.40221e-05
5.32777e-05
5.25695e-05
5.17373e-05
5.05636e-05
4.86151e-05
4.50807e-05
3.94177e-05
3.49421e-05
3.31067e-05
3.43569e-05
0.00265798
0.000698144
0.000372068
0.000250374
0.000190326
0.000156284
0.00013388
0.00011848
0.000106941
9.78967e-05
9.05961e-05
8.71249e-05
8.78541e-05
8.96733e-05
9.09791e-05
9.14646e-05
9.11177e-05
9.01837e-05
8.90097e-05
8.7854e-05
8.69248e-05
8.61806e-05
8.57262e-05
8.54574e-05
8.52129e-05
8.48841e-05
8.44226e-05
8.38479e-05
8.31869e-05
8.22785e-05
8.11828e-05
8.00114e-05
7.87922e-05
7.75405e-05
7.60261e-05
7.44616e-05
7.26875e-05
7.10392e-05
6.96173e-05
6.84723e-05
6.75946e-05
6.69208e-05
6.62731e-05
6.53689e-05
6.37156e-05
6.03637e-05
5.41175e-05
4.90873e-05
4.80732e-05
5.02511e-05
0.00355975
0.00109971
0.000592967
0.000399721
0.000303148
0.000247068
0.000210155
0.00018411
0.000164329
0.00014863
0.00013571
0.000125641
0.000120436
0.000119558
0.00011858
0.000116692
0.000113975
0.000110796
0.000107657
0.000104869
0.00010267
0.000100876
9.96237e-05
9.87055e-05
9.78823e-05
9.70111e-05
9.60275e-05
9.49596e-05
9.38484e-05
9.26196e-05
9.12869e-05
8.9917e-05
8.85292e-05
8.7076e-05
8.54252e-05
8.36246e-05
8.17414e-05
8.00175e-05
7.86479e-05
7.77271e-05
7.72607e-05
7.72492e-05
7.75257e-05
7.78344e-05
7.78128e-05
7.68588e-05
7.42544e-05
7.16356e-05
7.12635e-05
7.40608e-05
0.00438485
0.00152871
0.000835453
0.000564817
0.000427936
0.000347166
0.000293469
0.000255097
0.000225765
0.000202356
0.000182999
0.000166998
0.000154722
0.000148099
0.000143157
0.000138048
0.000132509
0.000126844
0.000121642
0.000117191
0.000113738
0.000111271
0.000109665
0.000108516
0.000107511
0.000106504
0.000105437
0.000104372
0.000103376
0.000102415
0.000101516
0.000100756
0.000100174
9.97084e-05
9.92168e-05
9.86628e-05
9.80385e-05
9.74042e-05
9.68334e-05
9.63399e-05
9.58898e-05
9.55892e-05
9.54218e-05
9.5278e-05
9.4973e-05
9.4168e-05
9.24094e-05
9.05392e-05
9.07409e-05
9.43977e-05
0.00513898
0.00196868
0.00109399
0.000742305
0.000562313
0.000454682
0.000382416
0.000330316
0.000290318
0.000258294
0.000231764
0.000209576
0.000191196
0.000177233
0.000166059
0.000156701
0.000148316
0.000140667
0.000133925
0.000128331
0.000124175
0.000121555
0.000120157
0.000119323
0.000118681
0.000118113
0.000117552
0.000117081
0.000116729
0.000116389
0.000116038
0.000115724
0.000115476
0.000115233
0.000114856
0.000114369
0.000113794
0.000113168
0.000112531
0.000111856
0.000111036
0.000110267
0.00010959
0.000108951
0.000108258
0.000107316
0.000105819
0.000104191
0.000104465
0.00010837
0.0058269
0.00240929
0.00136422
0.000929734
0.00070455
0.00056826
0.000475934
0.000408895
0.000357251
0.000315808
0.000281439
0.000252631
0.000228286
0.00020864
0.000192598
0.000179238
0.00016779
0.000157846
0.000149354
0.000142526
0.00013772
0.0001351
0.000134055
0.000133512
0.000133038
0.000132563
0.000132012
0.000131544
0.000131194
0.000130788
0.000130319
0.000129857
0.000129437
0.000128987
0.000128319
0.00012755
0.000126724
0.000125871
0.000125007
0.000124134
0.000123216
0.000122337
0.000121529
0.00012074
0.000119929
0.000118978
0.000117678
0.000116227
0.000116368
0.00011994
0.00645284
0.00284344
0.00164262
0.00112521
0.00085331
0.000686857
0.000573181
0.000490134
0.000425968
0.000374377
0.000331543
0.000296324
0.000267191
0.000243352
0.000223711
0.00020732
0.000193409
0.000181459
0.00017119
0.000162581
0.000156155
0.000152627
0.000151147
0.000150049
0.000148913
0.000147792
0.000146588
0.000145589
0.000144814
0.000143956
0.000143039
0.00014217
0.000141379
0.000140649
0.000139873
0.000139055
0.000138234
0.000137433
0.000136627
0.000135817
0.000134989
0.000134164
0.000133334
0.000132414
0.000131412
0.000130276
0.000128886
0.000127339
0.000127027
0.000129843
0.00702054
0.00326535
0.00192642
0.0013272
0.00100751
0.000809622
0.000673463
0.000573447
0.000495963
0.000433528
0.000383137
0.000342283
0.000308828
0.000281359
0.000258614
0.000239562
0.000223383
0.000209479
0.000197439
0.000187039
0.000178574
0.000173066
0.000170111
0.000167489
0.000164922
0.000162615
0.00016032
0.000158502
0.000157101
0.000155849
0.000154688
0.000153653
0.00015274
0.000151952
0.000151213
0.000150459
0.000149719
0.000149001
0.000148225
0.000147389
0.000146509
0.000145591
0.000144612
0.000143427
0.00014212
0.000140683
0.000139059
0.000137294
0.000136463
0.000138547
0.00753342
0.00367458
0.00221324
0.00153447
0.00116623
0.000935838
0.000776187
0.000658329
0.00056677
0.000494631
0.000437187
0.000390964
0.000353291
0.000322301
0.00029653
0.000274829
0.000256308
0.000240307
0.000226325
0.000214011
0.000203452
0.000195327
0.000189937
0.0001849
0.000180309
0.000176471
0.000173344
0.000171013
0.000169264
0.000167782
0.000166481
0.000165358
0.000164355
0.000163484
0.00016268
0.000161831
0.000160992
0.000160179
0.000159249
0.000158214
0.000157135
0.000156015
0.000154855
0.000153567
0.000152134
0.000150548
0.000148777
0.000146845
0.000145509
0.000146825
0.00799449
0.00407056
0.00250115
0.00174594
0.00132868
0.00106488
0.000880831
0.000744308
0.000639656
0.000558244
0.000493889
0.000442296
0.000400303
0.000365676
0.000336743
0.00031223
0.000291166
0.000272839
0.000256683
0.000242256
0.00022956
0.000218596
0.000209903
0.000202463
0.000196093
0.000190925
0.000187027
0.000184263
0.00018219
0.000180383
0.000178784
0.000177394
0.000176097
0.000174941
0.00017387
0.00017271
0.000171589
0.000170531
0.000169454
0.000168345
0.000167211
0.000166027
0.000164799
0.000163467
0.000161953
0.000160237
0.000158307
0.000156182
0.000154336
0.000154854
0.0084058
0.00445263
0.00278848
0.00196073
0.00149417
0.00119619
0.000986908
0.00083221
0.000714983
0.000624417
0.000553092
0.000495975
0.000449452
0.000410964
0.000378639
0.000351076
0.000327222
0.000306322
0.000287753
0.000270991
0.000256062
0.000242983
0.000231957
0.000222467
0.000214264
0.000207447
0.000202371
0.00019882
0.000196079
0.000193571
0.000191334
0.000189402
0.000187565
0.000185928
0.000184486
0.000183111
0.000181827
0.00018064
0.000179474
0.000178314
0.000177137
0.000175876
0.000174552
0.000173128
0.000171482
0.000169592
0.000167473
0.000165147
0.000162895
0.000162726
0.00877445
0.00482037
0.00307378
0.00217807
0.00166206
0.00132925
0.00109447
0.000922354
0.000792742
0.000692964
0.000614498
0.000551627
0.000500311
0.000457693
0.00042171
0.000390837
0.000363939
0.000340225
0.000319007
0.000300094
0.000283309
0.00026851
0.000255691
0.000244518
0.000234719
0.00022626
0.000219575
0.000214618
0.000210652
0.00020695
0.000203717
0.000201077
0.000198819
0.000196835
0.000195117
0.000193545
0.000192101
0.000190765
0.00018944
0.000188143
0.000186833
0.000185397
0.000183895
0.000182317
0.000180579
0.000178614
0.000176404
0.000173964
0.000171445
0.000170635
0.00910736
0.0051736
0.00335596
0.00239704
0.00183177
0.00146357
0.00120392
0.00101473
0.000872743
0.0007636
0.000677762
0.000608872
0.000552481
0.000505451
0.000465539
0.000431097
0.000400906
0.000374272
0.000350719
0.000329863
0.000311389
0.000295033
0.000280646
0.000267952
0.000256672
0.000246658
0.000238237
0.000231257
0.000225446
0.000220452
0.000216339
0.000213091
0.000210426
0.000208064
0.000206016
0.000204133
0.000202406
0.000200804
0.000199187
0.000197632
0.000196117
0.000194571
0.000192972
0.000191305
0.000189511
0.000187488
0.000185207
0.000182678
0.000179961
0.000178588
0.00940968
0.00551237
0.00363423
0.00261661
0.00200274
0.00159904
0.0013153
0.00110918
0.00095472
0.000836005
0.00074254
0.000667354
0.000605606
0.000553886
0.000509782
0.000471516
0.000438074
0.000408797
0.00038306
0.000360344
0.000340217
0.000322323
0.000306415
0.000292227
0.000279472
0.00026792
0.000257758
0.000249001
0.000241502
0.000235103
0.00022994
0.00022592
0.000222655
0.000219685
0.000217111
0.000214723
0.000212543
0.000210578
0.000208727
0.000206984
0.000205307
0.000203651
0.000201947
0.000200174
0.000198295
0.000196175
0.000193795
0.000191172
0.000188333
0.000186558
0.00968537
0.00583683
0.00390788
0.00283589
0.00217445
0.00173585
0.00142848
0.00120546
0.00103837
0.00090986
0.000808507
0.000726752
0.000659371
0.000602695
0.000554139
0.000512143
0.000475681
0.000443894
0.000416024
0.00039144
0.000369617
0.000350124
0.000332644
0.000316912
0.00030262
0.000289697
0.000278168
0.000268008
0.000259095
0.000251314
0.000244858
0.000239685
0.00023545
0.000231508
0.000228159
0.000225261
0.000222702
0.00022042
0.000218327
0.000216373
0.000214487
0.000212658
0.000210776
0.000208829
0.00020681
0.000204621
0.000202197
0.000199538
0.000196645
0.000194573
0.00993759
0.00614724
0.00417628
0.00305406
0.00234641
0.00187394
0.00154322
0.00130328
0.0011234
0.000984859
0.000875363
0.000786774
0.0007135
0.000651607
0.000598664
0.00055315
0.00051378
0.000479522
0.000449501
0.000422985
0.000399374
0.000378178
0.000359026
0.000341741
0.000326111
0.000311981
0.000299274
0.000287915
0.000277774
0.000268719
0.000260912
0.00025419
0.000248533
0.000243632
0.000239563
0.000236139
0.00023315
0.000230477
0.000228038
0.000225772
0.000223572
0.000221473
0.000219413
0.000217336
0.000215211
0.000212958
0.000210488
0.000207799
0.000204871
0.000202581
0.010169
0.0064439
0.00443891
0.00327037
0.00251814
0.00201309
0.00165927
0.00140234
0.00120951
0.00106071
0.000942831
0.000847157
0.000767739
0.000700602
0.000643489
0.000594565
0.000552319
0.00051557
0.000483331
0.000454787
0.000429271
0.00040624
0.000385496
0.000366815
0.000349947
0.00033468
0.000320866
0.000308389
0.000297098
0.000286827
0.00027768
0.000269622
0.000262641
0.000256644
0.000251701
0.000247565
0.000243947
0.000240699
0.000237746
0.000235074
0.000232599
0.000230266
0.000228027
0.000225799
0.000223543
0.000221189
0.00021863
0.000215883
0.000212941
0.000210547
0.0103817
0.00672715
0.00469529
0.00348409
0.00269
0.00215306
0.00177633
0.00150237
0.00129641
0.00113716
0.00101066
0.00090766
0.000821936
0.000749796
0.000688629
0.000636333
0.00059119
0.000551887
0.000517337
0.000486648
0.000459089
0.000434353
0.000412128
0.000392124
0.00037405
0.000357651
0.000342728
0.000329136
0.000316696
0.000305357
0.000295129
0.00028597
0.000277835
0.000270703
0.000264674
0.000259515
0.000254958
0.000251023
0.000247591
0.000244521
0.000241741
0.000239126
0.00023665
0.000234199
0.000231745
0.000229254
0.000226626
0.000223848
0.000220913
0.000218467
0.0105777
0.00699735
0.00494505
0.00369448
0.00286183
0.00229356
0.00189411
0.00160306
0.00138384
0.00121393
0.0010786
0.000968048
0.000876204
0.000799194
0.000734025
0.00067835
0.000630252
0.000588307
0.000551336
0.000518368
0.000488921
0.000462564
0.000438906
0.000417594
0.000398298
0.000380728
0.000364647
0.000349947
0.000336507
0.000324229
0.000313062
0.000302942
0.000293783
0.000285565
0.000278297
0.000271971
0.000266475
0.000261802
0.000257808
0.000254232
0.000251031
0.000248016
0.0002452
0.000242513
0.000239881
0.000237259
0.000234545
0.000231718
0.000228771
0.000226287
0.0107585
0.00725487
0.00518783
0.00390108
0.00303311
0.00243427
0.00201229
0.00170415
0.00147154
0.0012908
0.00114645
0.00102833
0.000930548
0.000848744
0.000779581
0.000720485
0.000669351
0.000624661
0.000585143
0.000550049
0.00051879
0.000490845
0.000465755
0.00044311
0.000422545
0.000403733
0.000386546
0.000370845
0.000356482
0.000343323
0.000331277
0.00032026
0.000310136
0.000300927
0.000292638
0.000285268
0.000278786
0.000273222
0.000268473
0.000264169
0.000260368
0.000256949
0.000253808
0.00025087
0.000248022
0.00024523
0.000242372
0.000239449
0.000236478
0.000233989
0.0109257
0.00750009
0.00542337
0.00410347
0.00320322
0.00257487
0.00213058
0.00180535
0.00155925
0.00136753
0.00121395
0.00108852
0.000984917
0.000898351
0.00082517
0.000762593
0.000708329
0.000660776
0.000618841
0.000581698
0.000548658
0.000519123
0.000492569
0.00046854
0.000446629
0.000426661
0.000408441
0.00039179
0.00037653
0.000362501
0.000349582
0.000337673
0.000326718
0.000316676
0.000307524
0.000299245
0.000291815
0.000285229
0.000279469
0.000274398
0.000269988
0.000266108
0.000262567
0.000259302
0.000256145
0.000253107
0.000250099
0.000247087
0.000244085
0.000241585
0.0110804
0.00773339
0.00565141
0.00430122
0.00337157
0.00271501
0.00224868
0.00190639
0.00164673
0.0014439
0.00128115
0.00114857
0.00103922
0.000947899
0.000870657
0.000804527
0.00074702
0.000696692
0.000652427
0.000613271
0.000578451
0.000547294
0.000519225
0.000493736
0.000470584
0.000449517
0.000430296
0.000412704
0.000396538
0.000381612
0.000367841
0.000355146
0.000343447
0.000332659
0.000322731
0.000313629
0.000305299
0.00029778
0.000291086
0.000285185
0.000280051
0.000275565
0.00027146
0.000267736
0.00026427
0.000260987
0.0002578
0.000254664
0.00025159
0.000249047
0.0112238
0.00795512
0.00587175
0.00449443
0.0035376
0.00285437
0.00236629
0.00200703
0.00173376
0.00151968
0.001348
0.0012084
0.00109335
0.000997254
0.000915895
0.000846131
0.000785401
0.000732399
0.000685854
0.000644694
0.000608068
0.000575243
0.000545584
0.000518745
0.000494403
0.000472258
0.000452036
0.000433485
0.000416373
0.000400596
0.000386045
0.000372617
0.000360217
0.000348717
0.000338045
0.000328192
0.000319114
0.000310809
0.000303284
0.000296542
0.000290541
0.000285239
0.000280541
0.000276342
0.000272509
0.000268921
0.000265481
0.000262148
0.000258969
0.000256383
0.0113567
0.00816561
0.00608417
0.00468279
0.00370075
0.00299265
0.00248312
0.00210699
0.00182009
0.0015948
0.00141441
0.00126789
0.00114716
0.00104628
0.000960737
0.000887242
0.000823458
0.00076785
0.00071905
0.00067587
0.000637398
0.000602837
0.000571691
0.000543549
0.000518038
0.000494813
0.000473566
0.00045401
0.000436018
0.000419442
0.000404147
0.000390004
0.000376911
0.000364692
0.000353354
0.000342851
0.000333118
0.000324121
0.000315852
0.00030829
0.000301456
0.000295361
0.000289995
0.000285214
0.000280887
0.000276874
0.000273129
0.000269589
0.000266276
0.000263614
0.0114802
0.00836518
0.0062885
0.00486599
0.00386041
0.00312956
0.00259889
0.00220602
0.00190549
0.00166921
0.00148028
0.00132692
0.00120053
0.00109482
0.00100503
0.000927914
0.000861147
0.000802974
0.00075192
0.000706689
0.000666314
0.000630102
0.000597521
0.000568101
0.000541417
0.00051709
0.000494771
0.000474288
0.000455457
0.000438106
0.000422071
0.000407203
0.000393398
0.000380548
0.000368603
0.000357506
0.000347164
0.000337523
0.000328585
0.00032034
0.000312789
0.000305943
0.000299849
0.00029432
0.000289395
0.000284937
0.000280846
0.000277037
0.00027352
0.000270726
0.0115948
0.00855411
0.00648456
0.0050437
0.00401621
0.00326457
0.00271328
0.00230388
0.00198972
0.00174278
0.00154547
0.00138534
0.00125331
0.00114273
0.00104871
0.000968098
0.000898399
0.000837678
0.00078436
0.000737032
0.000694812
0.00065701
0.000623023
0.000592326
0.000564452
0.000538979
0.000515668
0.000494294
0.000474643
0.000456516
0.000439724
0.000424146
0.00040969
0.000396241
0.000383715
0.000372048
0.000361107
0.000350895
0.000341386
0.000332552
0.000324373
0.000316829
0.000309973
0.00030375
0.000298195
0.000293203
0.000288664
0.000284472
0.000280692
0.000277751
0.0117012
0.00873266
0.00667216
0.00521555
0.00416779
0.00339706
0.00282601
0.00240029
0.0020727
0.00181537
0.00160984
0.00144301
0.00130533
0.00118985
0.00109174
0.00100772
0.000935124
0.000871858
0.000816255
0.000766851
0.000722861
0.000683506
0.000648124
0.000616137
0.000587037
0.000560493
0.000536227
0.000513979
0.000493506
0.000474582
0.00045706
0.000440819
0.000425743
0.000411705
0.0003986
0.000386357
0.000374894
0.00036417
0.000354144
0.000344774
0.000336018
0.000327882
0.000320386
0.000313513
0.000307308
0.000301659
0.000296568
0.000291966
0.000287876
0.000284725
0.0118
0.00890103
0.00685112
0.00538121
0.0043148
0.00352644
0.00293678
0.002495
0.00215429
0.00188684
0.00167323
0.00149976
0.00135645
0.00123613
0.00113404
0.00104669
0.000971221
0.000905403
0.000847475
0.000796113
0.000750405
0.000709519
0.000672737
0.000639432
0.000609171
0.000581597
0.000556396
0.000533273
0.000511958
0.00049227
0.000474059
0.00045718
0.000441493
0.000426858
0.000413193
0.000400427
0.000388473
0.000377266
0.000366744
0.000356874
0.000347627
0.000338988
0.000330943
0.000323477
0.000316616
0.000310346
0.000304688
0.000299595
0.000295095
0.000291635
0.0118917
0.00905941
0.00702124
0.00554029
0.00445686
0.00365209
0.00304529
0.00258773
0.00223433
0.00195701
0.00173547
0.00155543
0.00140649
0.00128148
0.00117553
0.0010849
0.00100658
0.000938189
0.000878024
0.000824761
0.000777371
0.000734962
0.000696761
0.00066219
0.000630817
0.000602237
0.000576104
0.000552091
0.000529968
0.000509555
0.000490677
0.000473165
0.000456858
0.000441654
0.000427468
0.000414207
0.000401776
0.000390088
0.000379108
0.000368796
0.000359111
0.000350021
0.000341481
0.000333503
0.000326095
0.000319256
0.000313027
0.000307344
0.00030236
0.000298543
0.0119767
0.0092079
0.00718229
0.00569242
0.00459358
0.00377338
0.00315128
0.00267819
0.00231261
0.00202569
0.00179637
0.00160986
0.00145536
0.00132581
0.00121609
0.00112223
0.00104107
0.000970153
0.00090784
0.000852722
0.000803673
0.000759735
0.000720151
0.000684371
0.000651918
0.000622342
0.000595268
0.000570395
0.000547506
0.00052639
0.000506851
0.000488696
0.000471805
0.000456063
0.000441379
0.000427634
0.000414718
0.00040259
0.000391193
0.000380472
0.000370373
0.000360856
0.000351899
0.00034349
0.000335614
0.000328263
0.000321471
0.000315251
0.000309757
0.000305496
0.0120552
0.0093466
0.00733403
0.00583721
0.00472456
0.00388995
0.00325413
0.00276629
0.00238894
0.00209268
0.00185576
0.00166284
0.00150295
0.00136901
0.00125561
0.00115857
0.00107457
0.00100123
0.000936847
0.000879911
0.000829212
0.000783759
0.000742863
0.000705915
0.000672402
0.000641827
0.000613837
0.000588151
0.00056452
0.000542711
0.000522503
0.000503743
0.000486299
0.000470039
0.000454862
0.000440624
0.000427271
0.000414733
0.000402939
0.000391819
0.000381331
0.000371441
0.000362114
0.000353324
0.000345028
0.000337244
0.000329987
0.000323277
0.00031726
0.00031245
0.0121275
0.0094755
0.00747616
0.00597428
0.00484938
0.00400144
0.00335315
0.00285178
0.00246308
0.00215779
0.00191344
0.0017142
0.00154915
0.00141095
0.00129396
0.00119377
0.001107
0.00103135
0.000964952
0.000906228
0.000853878
0.000806988
0.000764832
0.000726745
0.000692184
0.000660626
0.000631774
0.000605304
0.000580945
0.000558439
0.000537599
0.000518267
0.000500292
0.000483515
0.00046784
0.00045316
0.000439394
0.000426459
0.000414271
0.000402781
0.000391944
0.000381712
0.000372039
0.000362891
0.000354247
0.000346099
0.000338449
0.000331295
0.000324792
0.000319449
0.0121939
0.00959456
0.00760869
0.0061032
0.00496761
0.00410748
0.00344767
0.00293441
0.0025348
0.00222079
0.0019692
0.00176383
0.00159382
0.0014515
0.00133099
0.0012277
0.00113829
0.0010604
0.000992054
0.000931565
0.000877616
0.000829354
0.000785984
0.000746778
0.000711166
0.000678694
0.00064902
0.000621786
0.000596701
0.000573532
0.000552098
0.000532215
0.000513717
0.000496431
0.000480298
0.000465197
0.00045103
0.000437698
0.000425148
0.000413319
0.000402153
0.000391592
0.000381598
0.000372142
0.00036319
0.000354721
0.000346721
0.000339202
0.00033228
0.000326437
0.0122542
0.00970365
0.00773128
0.00622354
0.00507878
0.00420767
0.00353715
0.0030137
0.00260384
0.00228144
0.00202282
0.00181158
0.0016368
0.00149049
0.00136655
0.00126026
0.00116833
0.00108829
0.00101804
0.000955797
0.000900352
0.000850776
0.000806229
0.000765914
0.000729311
0.00069597
0.000665504
0.000637516
0.000611734
0.000587945
0.000565941
0.00054552
0.000526494
0.00050875
0.000492186
0.000476677
0.000462107
0.000448414
0.000435528
0.000423376
0.000411887
0.000401025
0.000390746
0.000381009
0.00037177
0.000363015
0.000354728
0.000346899
0.000339606
0.000333278
0.0123086
0.00980254
0.00784356
0.00633484
0.00518241
0.00430159
0.00362121
0.00308892
0.00266993
0.00233951
0.00207407
0.00185727
0.00167793
0.00152778
0.00140048
0.00129134
0.001197
0.00111488
0.00104278
0.00097887
0.000922
0.00087116
0.000825468
0.000784088
0.000746554
0.000712379
0.000681143
0.000652424
0.000625994
0.000601614
0.000579059
0.000558099
0.000538598
0.000520419
0.000503443
0.000487526
0.000472591
0.00045856
0.000445354
0.000432883
0.000421101
0.000409965
0.000399422
0.000389415
0.000379921
0.00037092
0.000362383
0.000354282
0.000346667
0.000339896
0.0123569
0.00989091
0.00794506
0.00643658
0.00527798
0.00438878
0.00369962
0.00315935
0.00273271
0.00239474
0.00212279
0.00190073
0.00171703
0.00156317
0.00143263
0.00132068
0.00122402
0.00113989
0.00106589
0.0010004
0.000942202
0.000890167
0.000843323
0.000800972
0.000762591
0.000727638
0.000695634
0.000666261
0.000639251
0.000614328
0.000591225
0.000569786
0.000549858
0.000531281
0.000513893
0.000497614
0.000482353
0.000468011
0.000454481
0.000441725
0.000429686
0.000418298
0.000407488
0.000397242
0.000387528
0.000378313
0.000369543
0.000361234
0.000353389
0.000346174
0.0123987
0.00996835
0.00803528
0.00652821
0.00536497
0.00446717
0.00376921
0.00322165
0.00278864
0.0024442
0.00216569
0.00193866
0.0017509
0.00159352
0.00145996
0.00134559
0.0012469
0.00116098
0.00108535
0.00101852
0.000959174
0.000906063
0.000858257
0.000815091
0.000775986
0.000740324
0.000707689
0.000677777
0.000650269
0.000624848
0.000601304
0.000579475
0.000559182
0.000540233
0.000522521
0.000505951
0.00049041
0.000475775
0.000461998
0.000449017
0.000436757
0.000425133
0.000414125
0.000403695
0.000393797
0.000384394
0.000375466
0.000367013
0.000359061
0.000351846
0.0124336
0.0100343
0.00811099
0.00660198
0.00543311
0.00452876
0.00382441
0.00327141
0.00283355
0.0024842
0.00220117
0.00197001
0.00177876
0.00161824
0.00148222
0.00136582
0.00126541
0.0011779
0.00110097
0.00103304
0.000972712
0.000918686
0.000870115
0.000826283
0.000786564
0.000750311
0.00071718
0.000686832
0.000658892
0.000633073
0.000609187
0.000587042
0.000566425
0.000547192
0.000529233
0.000512424
0.000496628
0.000481779
0.000467814
0.000454648
0.000442184
0.000430398
0.000419242
0.00040866
0.000398614
0.000389086
0.000380047
0.000371482
0.000363447
0.000356179
0.0124609
0.0100806
0.00816149
0.00665231
0.00548057
0.00457226
0.00386412
0.00330771
0.00286664
0.00251388
0.00222776
0.00199362
0.00179977
0.00163701
0.00149905
0.00138102
0.00127919
0.00119043
0.00111248
0.00104367
0.000982534
0.000927822
0.000878673
0.000834314
0.00079408
0.000757417
0.000723915
0.000693227
0.000664951
0.000638847
0.000614706
0.000592304
0.000571453
0.00055202
0.000533875
0.000516864
0.000500896
0.000485895
0.00047179
0.000458461
0.000445872
0.000433974
0.0004227
0.000412009
0.00040187
0.000392263
0.000383139
0.000374512
0.000366434
0.000359093
0.0124727
0.0101009
0.00818468
0.0066772
0.00550551
0.00459598
0.00388691
0.00332933
0.00288683
0.00253235
0.00224453
0.0020086
0.00181304
0.00164882
0.0015096
0.00139045
0.00128758
0.00119802
0.00111938
0.00104994
0.000988258
0.000933095
0.000883566
0.000838832
0.000798275
0.000761353
0.0007276
0.000696673
0.000668215
0.000641936
0.00061763
0.000595063
0.000574079
0.000554521
0.000536242
0.000519114
0.000503044
0.00048794
0.000473733
0.000460322
0.000447662
0.000435688
0.000424346
0.000413601
0.00040341
0.000393753
0.000384602
0.000375963
0.000367869
0.000360445
0.0124711
0.0100989
0.0081831
0.00667677
0.00550698
0.00459933
0.00389208
0.00333549
0.00289361
0.00253904
0.00225096
0.00201445
0.00181813
0.00165327
0.00151346
0.00139373
0.00129032
0.00120031
0.00112134
0.0010516
0.000989626
0.00093425
0.000884531
0.000839636
0.000798941
0.000761891
0.000728046
0.000697028
0.00066849
0.000642156
0.00061778
0.000595157
0.000574126
0.000554526
0.000536222
0.000519083
0.000503003
0.000487886
0.000473664
0.000460247
0.000447582
0.000435597
0.000424251
0.000413501
0.00040331
0.000393648
0.0003845
0.000375863
0.000367779
0.000360353
0.0124645
0.0100885
0.00817249
0.00666776
0.00549975
0.00459373
0.00388791
0.00333244
0.00289142
0.00253735
0.00224965
0.00201334
0.00181708
0.00165227
0.00151247
0.00139274
0.00128932
0.00119929
0.00112033
0.00105058
0.000988608
0.000933242
0.000883531
0.000838651
0.000797959
0.000760927
0.000727101
0.000696096
0.000667576
0.000641254
0.000616898
0.000594287
0.000573273
0.000553689
0.000535389
0.000518262
0.000502193
0.00048709
0.000472877
0.000459469
0.000446815
0.000434842
0.000423505
0.000412769
0.000402591
0.000392939
0.000383805
0.000375182
0.000367116
0.000359695
0.0124535
0.0100703
0.00815314
0.00665038
0.00548494
0.00458152
0.00387794
0.00332434
0.00288483
0.00253175
0.00224488
0.00200913
0.00181326
0.00164876
0.00150919
0.00138965
0.00128637
0.00119647
0.00111762
0.00104799
0.000986114
0.000930832
0.000881212
0.0008364
0.000795781
0.000758822
0.000725063
0.000694122
0.000665655
0.000639389
0.000615077
0.000592518
0.000571548
0.000552006
0.000533749
0.000516662
0.000500625
0.000485556
0.000471372
0.000457997
0.000445374
0.000433425
0.000422118
0.000411409
0.000401254
0.000391631
0.000382521
0.000373927
0.000365885
0.000358481
0.0124384
0.0100445
0.00812527
0.0066248
0.00546269
0.00456278
0.00386223
0.00331124
0.00287381
0.0025223
0.00223671
0.00200185
0.0018067
0.00164276
0.00150364
0.00138447
0.0012815
0.00119186
0.00111325
0.00104383
0.000982141
0.000927036
0.00087757
0.000832902
0.000792417
0.000755581
0.000721943
0.000691105
0.000662739
0.000636558
0.000612333
0.00058986
0.000568964
0.000549494
0.000531304
0.000514281
0.000498306
0.000483295
0.000469159
0.000455834
0.000443257
0.000431357
0.000420092
0.000409424
0.000399311
0.000389727
0.000380658
0.000372101
0.000364101
0.000356727
0.0124196
0.0100114
0.00808909
0.00659118
0.00543309
0.0045376
0.00384087
0.00329321
0.00285843
0.00250903
0.00222511
0.00199154
0.00179743
0.00163428
0.00149586
0.00137721
0.00127472
0.00118548
0.00110722
0.00103812
0.000976707
0.000921865
0.000872624
0.000828168
0.000787867
0.000751215
0.000717739
0.000687059
0.000658824
0.000632775
0.000608675
0.000586315
0.000565528
0.000546161
0.000528065
0.000511131
0.00049524
0.000480306
0.000466244
0.00045299
0.000440478
0.000428637
0.000417435
0.000406823
0.000396765
0.000387236
0.00037822
0.000369713
0.000361752
0.000354397
0.0123972
0.00997127
0.00804479
0.00654966
0.00539626
0.00450606
0.00381391
0.0032703
0.00283874
0.00249197
0.00221012
0.00197823
0.00178543
0.00162335
0.00148581
0.00136789
0.00126604
0.00117732
0.00109955
0.00103085
0.000969823
0.000915316
0.000866387
0.000822193
0.000782144
0.000745719
0.000712467
0.000681979
0.000653927
0.000628048
0.000604104
0.000581895
0.000561242
0.000542
0.000524026
0.000507204
0.000491421
0.00047659
0.000462619
0.000449453
0.000437025
0.000425267
0.000414143
0.000403601
0.000393615
0.000384154
0.000375198
0.000366752
0.000358835
0.000351508
0.0123716
0.00992428
0.00799251
0.00650037
0.00535227
0.00446825
0.00378142
0.00324256
0.00281479
0.00247118
0.0021918
0.00196194
0.00177074
0.00160999
0.00147353
0.00135654
0.00125547
0.00116741
0.00109024
0.00102205
0.000961478
0.000907405
0.000858846
0.000814993
0.000775255
0.000739105
0.000706106
0.000675855
0.000648031
0.00062236
0.000598613
0.000576584
0.000556103
0.000537015
0.000519191
0.000502507
0.000486853
0.000472143
0.000458293
0.000445239
0.000432915
0.000421251
0.000410219
0.000399768
0.000389868
0.000380483
0.000371606
0.000363229
0.000355365
0.00034807
0.0123427
0.00987059
0.00793238
0.00644326
0.00530123
0.0044241
0.00374346
0.00321005
0.00278664
0.00244668
0.00217018
0.00194271
0.00175338
0.00159423
0.00145904
0.00134316
0.00124302
0.00115577
0.00107929
0.00101174
0.000951693
0.000898104
0.00084998
0.000806538
0.000767169
0.000731359
0.000698664
0.000668704
0.000641146
0.000615727
0.000592209
0.000570399
0.000550116
0.000531218
0.000513573
0.000497055
0.000481552
0.000466987
0.000453276
0.000440351
0.000428146
0.000416602
0.000405682
0.000395331
0.000385528
0.000376239
0.000367451
0.000359148
0.000351351
0.000344095
0.0123102
0.00981027
0.0078645
0.00637843
0.00524322
0.00437372
0.0037001
0.00317274
0.00275432
0.00241847
0.0021453
0.00192053
0.00173339
0.00157605
0.00144238
0.00132774
0.00122871
0.00114237
0.00106668
0.000999827
0.000940426
0.000887402
0.00083981
0.000796833
0.000757909
0.000722485
0.000690159
0.000660529
0.000633288
0.000608155
0.00058491
0.000563346
0.000543299
0.000524614
0.00050717
0.000490843
0.000475524
0.00046113
0.000447581
0.000434807
0.000422738
0.000411327
0.000400531
0.000390303
0.000380614
0.000371429
0.000362736
0.000354526
0.000346804
0.000339601
0.0122736
0.00974342
0.00778894
0.006306
0.00517832
0.00431719
0.00365141
0.00313072
0.00271791
0.00238661
0.00211721
0.00189544
0.0017108
0.00155549
0.00142356
0.00131032
0.00121247
0.00112716
0.00105239
0.000986358
0.000927696
0.000875328