/*--------------------------------*- C++ -*----------------------------------*\
  =========                 |
  \\      /  F ield         | OpenFOAM: The Open Source CFD Toolbox
   \\    /   O peration     | Website:  https://openfoam.org
    \\  /    A nd           | Version:  8
     \\/     M anipulation  |
\*---------------------------------------------------------------------------*/
FoamFile
{
    version     2.0;
    format      ascii;
    class       volVectorField;
    location    "0.015219";
    object      U;
}
// * * * * * * * * * * * * * * * * * * * * * * * * * * * * * * * * * * * * * //

dimensions      [0 1 -1 0 0 0 0];

internalField   nonuniform List<vector> 
106000
(
(7.25362 -0.147808 0)
(6.44847 0.0375605 0)
(5.5893 0.092629 0)
(4.61342 0.0834509 4.91949e-18)
(3.70334 0.0771465 -1.23654e-17)
(2.95854 0.0457347 1.47313e-17)
(2.48375 0.0256004 8.35036e-18)
(2.20983 0.0122272 -2.83857e-23)
(2.03913 0.0106569 -3.81186e-17)
(1.9186 0.0111674 3.85125e-23)
(1.8277 0.0110292 2.01988e-17)
(1.781 0.0090974 2.03723e-17)
(1.76519 0.00866972 -2.03447e-17)
(1.76815 0.0093105 0)
(1.7801 0.00994774 0)
(1.79267 0.0115041 -3.94051e-17)
(1.79698 0.0138174 3.90283e-17)
(1.78826 0.0165491 0)
(1.7668 0.0190629 0)
(1.73651 0.0208318 0)
(1.70323 0.0218213 0)
(1.67018 0.0222797 0)
(1.64015 0.0222242 0)
(1.614 0.0220802 0)
(1.59043 0.0221676 -3.89398e-17)
(1.56764 0.0225555 3.89934e-17)
(1.54417 0.0231303 0)
(1.51936 0.0236555 -7.83629e-17)
(1.49302 0.0240076 1.18834e-22)
(1.46363 0.0241713 1.58094e-16)
(1.43101 0.0239383 -1.08313e-22)
(1.39598 0.02302 -8.01469e-17)
(1.35876 0.0212522 -8.08152e-17)
(1.319 0.0185242 7.23187e-23)
(1.27401 0.0146241 8.24851e-17)
(1.22437 0.00908697 0)
(1.16689 0.00276773 0)
(1.1047 -0.00753169 0)
(1.03649 -0.020854 0)
(0.959919 -0.0383281 0)
(0.872233 -0.0605933 -9.19957e-17)
(0.770241 -0.0882659 9.4849e-17)
(0.650699 -0.120979 0)
(0.50956 -0.155459 0)
(0.346011 -0.184875 0)
(0.165822 -0.200929 0)
(-0.0291948 -0.200997 9.58428e-17)
(-0.207029 -0.179909 -9.42538e-17)
(-0.416617 -0.171523 0)
(-0.679781 -0.240509 -8.23164e-17)
(7.43784 0.0719782 4.69106e-20)
(7.05765 0.105033 1.99194e-19)
(6.78164 0.129734 -8.05353e-24)
(6.43134 0.110405 -1.09005e-18)
(6.15108 0.113477 -2.9086e-18)
(5.85462 0.0862531 3.61851e-18)
(5.58971 0.0617489 0)
(5.36488 0.0392602 0)
(5.16979 0.0297243 0)
(4.99495 0.0243059 -1.18769e-17)
(4.83478 0.0191602 1.27373e-17)
(4.69936 0.0114716 0)
(4.60438 0.00592209 0)
(4.5405 0.00354023 0)
(4.48592 0.00393494 2.57485e-17)
(4.4257 0.00560357 -5.09458e-17)
(4.35382 0.00828372 2.53625e-17)
(4.27044 0.0111479 2.53999e-17)
(4.17961 0.0135154 -2.55693e-17)
(4.08619 0.0149078 0)
(3.99546 0.0153005 0)
(3.91006 0.0151393 0)
(3.8322 0.0144884 2.65219e-17)
(3.76268 0.0137136 -5.33333e-17)
(3.7004 0.0132711 5.35905e-17)
(3.64332 0.0132639 -2.69381e-17)
(3.5894 0.0135684 0)
(3.53721 0.0140129 0)
(3.486 0.0145628 0)
(3.43421 0.0152276 0)
(3.38088 0.0158033 5.66043e-17)
(3.32586 0.0161207 -5.74973e-17)
(3.26875 0.016234 0)
(3.20821 0.0161433 0)
(3.14209 0.0158234 0)
(3.06779 0.015097 6.21673e-17)
(2.98183 0.0149164 -6.38219e-17)
(2.88384 0.0127174 0)
(2.77195 0.00997833 0)
(2.64167 0.00592397 0)
(2.48697 0.000290828 7.1015e-17)
(2.30019 -0.00730772 -7.32859e-17)
(2.06947 -0.0180678 0)
(1.78168 -0.0334051 0)
(1.42434 -0.0530156 8.85922e-17)
(0.985084 -0.078176 -1.02349e-16)
(0.468398 -0.103873 -1.14953e-16)
(-0.123451 -0.102081 1.12978e-16)
(-0.691091 -0.0510494 1.02238e-16)
(-1.1848 -0.0168455 4.58505e-22)
(7.49885 0.0864535 0)
(7.22789 0.119899 0)
(7.1062 0.155319 0)
(6.90206 0.131878 0)
(6.76316 0.133509 -1.47845e-18)
(6.6213 0.102986 1.83704e-18)
(6.49069 0.0773007 0)
(6.37146 0.0531577 0)
(6.26806 0.0426413 5.81731e-18)
(6.17532 0.0360407 -1.30347e-17)
(6.08973 0.030771 1.44112e-17)
(5.99666 0.0228066 -1.54076e-17)
(5.89688 0.0157001 7.86947e-18)
(5.80365 0.0112974 0)
(5.71629 0.0104151 1.56198e-17)
(5.6296 0.0121665 -1.5697e-17)
(5.54 0.0151338 0)
(5.44646 0.0182507 -1.6236e-17)
(5.35018 0.020622 3.32407e-17)
(5.25318 0.0217756 -1.70143e-17)
(5.15821 0.0216942 0)
(5.06735 0.0208909 0)
(4.98244 0.0195111 0)
(4.90443 0.0179889 1.81024e-17)
(4.83314 0.0167544 -1.82695e-17)
(4.76774 0.0160421 3.68937e-17)
(4.70703 0.0158037 -6.00785e-23)
(4.64994 0.0158739 -5.92469e-23)
(4.59571 0.0162003 -3.82454e-17)
(4.54388 0.016778 -3.88506e-17)
(4.49364 0.0174774 5.48814e-23)
(4.44408 0.0182077 4.03089e-17)
(4.39422 0.0190293 0)
(4.34262 0.0200802 0)
(4.28765 0.0214761 -4.29486e-17)
(4.22635 0.0231113 4.40466e-17)
(4.15569 0.0253575 0)
(4.07294 0.0274372 0)
(3.9749 0.0300602 0)
(3.85616 0.0332754 0)
(3.70941 0.0375381 -4.91587e-17)
(3.52561 0.0432457 4.97879e-17)
(3.29204 0.0507854 5.0485e-17)
(2.99233 0.0589564 -5.16e-17)
(2.60754 0.0637972 0)
(2.11483 0.060713 0)
(1.49875 0.0396514 0)
(0.726453 0.00577763 0)
(-0.206851 0.0241523 0)
(-0.951622 0.0238972 0)
(7.53342 0.0919574 0)
(7.31556 0.132626 -1.40276e-19)
(7.25697 0.170727 2.50591e-19)
(7.1102 0.144665 0)
(7.02068 0.145234 -9.37579e-19)
(6.92756 0.113901 3.94217e-24)
(6.84271 0.0885955 1.35652e-18)
(6.76211 0.0632495 0)
(6.69409 0.0509348 0)
(6.6359 0.0428462 -4.01493e-18)
(6.58592 0.0378963 4.48123e-18)
(6.5321 0.0315011 0)
(6.46427 0.0254015 0)
(6.38704 0.0210344 0)
(6.30793 0.0198998 0)
(6.22946 0.0212717 1.11653e-17)
(6.15133 0.0241479 -2.31119e-17)
(6.07274 0.0272998 2.40535e-17)
(5.99342 0.0297653 -1.2524e-17)
(5.91357 0.0310003 0)
(5.83421 0.0307888 0)
(5.75739 0.029634 0)
(5.68444 0.0277601 0)
(5.61596 0.0256374 0)
(5.55209 0.0237508 0)
(5.49275 0.0223718 -2.92384e-17)
(5.43764 0.0215233 2.96603e-17)
(5.38635 0.0210958 0)
(5.33847 0.0209835 0)
(5.29399 0.0211545 -3.10617e-17)
(5.25251 0.0215554 3.1598e-17)
(5.21318 0.0221331 0)
(5.17507 0.0229403 0)
(5.13703 0.0241671 0)
(5.09758 0.0260079 0)
(5.05467 0.0285016 0)
(5.00531 0.0319354 0)
(4.94597 0.0361077 -3.58436e-17)
(4.87254 0.0414725 3.63773e-17)
(4.77866 0.0483879 0)
(4.65646 0.0574566 -3.69158e-17)
(4.49687 0.0692806 3.69207e-17)
(4.28839 0.0848204 0)
(4.01607 0.104206 3.67685e-17)
(3.66135 0.12641 -3.70317e-17)
(3.20097 0.148495 -3.81047e-17)
(2.61396 0.15709 4.09011e-17)
(1.85343 0.142327 0)
(0.828168 0.146496 4.91922e-17)
(-0.204877 0.152525 -4.78803e-17)
(7.55658 0.103067 -1.86244e-20)
(7.37005 0.143194 -5.17073e-20)
(7.34418 0.181165 1.83607e-19)
(7.23043 0.154634 5.29895e-19)
(7.169 0.15457 -1.36918e-18)
(7.10004 0.122766 8.33587e-19)
(7.03845 0.0974588 1.95835e-18)
(6.97705 0.0709075 -4.27032e-24)
(6.92547 0.0570428 -2.54648e-18)
(6.88231 0.0475835 -2.85474e-18)
(6.8474 0.0423596 3.18088e-18)
(6.81368 0.0370838 0)
(6.77212 0.032415 0)
(6.71865 0.028811 8.103e-18)
(6.6585 0.0275784 -8.48655e-18)
(6.59669 0.0285189 8.89817e-18)
(6.53547 0.0310383 -9.36706e-18)
(6.47519 0.0340341 -9.88869e-18)
(6.41533 0.0365333 1.0423e-17)
(6.35533 0.0378999 0)
(6.29522 0.0377335 -1.1362e-17)
(6.2365 0.0364429 2.33899e-17)
(6.18 0.0343199 -1.19239e-17)
(6.1259 0.0318402 0)
(6.07428 0.0294816 -1.22468e-17)
(6.02547 0.0275638 1.2397e-17)
(5.97965 0.0261701 0)
(5.93695 0.0252305 2.54174e-17)
(5.89722 0.0246337 -2.57062e-17)
(5.86029 0.0243507 -2.59929e-17)
(5.82578 0.0243902 2.62731e-17)
(5.79302 0.0247403 0)
(5.76113 0.0254584 0)
(5.72913 0.0267333 2.69125e-17)
(5.69585 0.0287857 -2.36512e-23)
(5.65997 0.0317471 -5.4665e-17)
(5.61925 0.03593 9.34497e-24)
(5.57062 0.0415666 2.77657e-17)
(5.51056 0.049054 -2.79228e-17)
(5.43337 0.0588741 2.80079e-17)
(5.33194 0.0717783 0)
(5.19791 0.0883925 -2.79769e-17)
(5.02087 0.109806 2.783e-17)
(4.78726 0.136726 0)
(4.47976 0.169145 0)
(4.07593 0.205844 0)
(3.55296 0.238904 2.8469e-17)
(2.86852 0.255311 -2.98608e-17)
(1.90765 0.271779 0)
(0.752812 0.280978 0)
(7.57205 0.113885 -1.6036e-20)
(7.4067 0.15157 4.08297e-20)
(7.4002 0.188729 0)
(7.30803 0.162295 4.14063e-19)
(7.26551 0.161498 -1.07189e-18)
(7.21224 0.129772 6.53562e-19)
(7.16644 0.104632 1.53706e-18)
(7.11812 0.0772898 -3.46995e-24)
(7.0774 0.0622908 -1.99879e-18)
(7.04336 0.0515984 -2.23921e-18)
(7.01686 0.0456478 4.98559e-18)
(6.99347 0.0405054 -2.76113e-18)
(6.96758 0.0367112 0)
(6.93368 0.0339669 6.57378e-18)
(6.89309 0.0329906 -7.04665e-18)
(6.84937 0.033785 -7.51891e-18)
(6.8053 0.0360073 8.01281e-18)
(6.76215 0.0388037 -8.53202e-18)
(6.71978 0.0412685 9.05379e-18)
(6.67754 0.0426998 0)
(6.63494 0.0426334 -9.94204e-18)
(6.59255 0.0413504 1.02144e-17)
(6.55074 0.0391912 0)
(6.50934 0.036617 0)
(6.46838 0.034049 0)
(6.42835 0.0318135 0)
(6.38971 0.0300365 0)
(6.35287 0.0287009 2.15973e-17)
(6.31796 0.0277389 -2.17134e-17)
(6.28481 0.0271344 -2.18238e-17)
(6.25312 0.026913 2.19301e-17)
(6.2224 0.0270954 0)
(6.19193 0.0277496 0)
(6.16092 0.0290558 0)
(6.12848 0.0312436 2.2194e-17)
(6.09369 0.0345106 -2.22782e-17)
(6.05502 0.0392425 -2.23678e-17)
(6.01026 0.0458242 2.24497e-17)
(5.95683 0.05439 0)
(5.89036 0.0662584 0)
(5.80521 0.081772 2.25969e-17)
(5.69414 0.101832 -4.51666e-17)
(5.54791 0.127706 -6.3949e-23)
(5.35444 0.160492 2.23883e-17)
(5.09798 0.200648 0)
(4.75748 0.248024 0)
(4.3092 0.298074 2.23641e-17)
(3.71712 0.339342 1.60532e-22)
(2.87679 0.380196 -2.29848e-17)
(1.74061 0.404124 -2.17879e-17)
(7.58303 0.123531 0)
(7.43301 0.158429 0)
(7.43837 0.194319 1.17084e-19)
(7.36128 0.168309 1.6878e-19)
(7.33222 0.166797 -4.37818e-19)
(7.29036 0.135326 -5.35509e-19)
(7.25657 0.110482 6.31863e-19)
(7.21842 0.0826536 0)
(7.18628 0.0667482 0)
(7.15921 0.0549911 -1.857e-18)
(7.13884 0.0482842 4.14291e-18)
(7.12208 0.0428556 -4.59432e-18)
(7.10566 0.0393332 2.53357e-18)
(7.08529 0.037106 0)
(7.06034 0.0364346 5.99835e-18)
(7.0323 0.0372178 -6.45884e-18)
(7.00324 0.0392373 0)
(6.97455 0.0418489 0)
(6.94647 0.0442745 0)
(6.91836 0.045794 0)
(6.88937 0.0459466 0)
(6.85942 0.0448656 8.89015e-18)
(6.82852 0.0428924 -1.67933e-23)
(6.79641 0.040457 -9.05287e-18)
(6.76325 0.0379126 0)
(6.72965 0.0355784 0)
(6.69621 0.0336133 0)
(6.66355 0.0320472 1.8549e-17)
(6.63197 0.0308665 -1.86178e-17)
(6.60147 0.0300732 0)
(6.57191 0.029699 1.87684e-17)
(6.54296 0.0297886 -1.88375e-17)
(6.51412 0.0304186 0)
(6.48476 0.0317498 1.89408e-17)
(6.45427 0.0340083 -1.90115e-17)
(6.42179 0.0374339 0)
(6.38607 0.0423884 1.91703e-17)
(6.34533 0.0495887 -1.92389e-17)
(6.29772 0.0582947 0)
(6.23998 0.0714601 0)
(6.16765 0.0883379 0)
(6.07483 0.110369 0)
(5.95382 0.138928 0)
(5.79434 0.175468 0)
(5.5828 0.22104 0)
(5.30053 0.276389 0)
(4.92459 0.339275 0)
(4.42354 0.400754 0)
(3.71521 0.468685 0)
(2.68521 0.516569 0)
(7.59103 0.13225 -1.29855e-20)
(7.45279 0.16426 -2.89686e-20)
(7.46547 0.19859 9.86622e-20)
(7.39923 0.173168 -2.83724e-19)
(7.38013 0.170956 1.85834e-24)
(7.34706 0.139803 4.52136e-19)
(7.32282 0.115301 1.07112e-18)
(7.29298 0.0871648 -2.57885e-24)
(7.26809 0.0705138 -1.41316e-18)
(7.24693 0.0578329 -1.59346e-18)
(7.23174 0.0504164 3.56479e-18)
(7.22004 0.0445747 -1.97818e-18)
(7.20989 0.0409717 0)
(7.19825 0.0388948 4.76503e-18)
(7.18395 0.0383884 -5.16855e-18)
(7.16734 0.0391915 -5.57043e-18)
(7.14962 0.0410946 5.97315e-18)
(7.13188 0.0435722 0)
(7.1145 0.0459668 0)
(7.09696 0.0476219 0)
(7.07826 0.0481038 -7.49291e-18)
(7.05768 0.047394 7.69788e-18)
(7.03507 0.0457819 0)
(7.0103 0.0436522 7.87029e-18)
(6.98372 0.041289 -7.9478e-18)
(6.95602 0.0390064 0)
(6.92786 0.0369875 0)
(6.89986 0.0352996 1.63331e-17)
(6.87235 0.0339716 -1.64287e-17)
(6.84547 0.0330243 -1.6525e-17)
(6.81918 0.0325052 1.66228e-17)
(6.79325 0.0324811 0)
(6.76726 0.033038 0)
(6.74072 0.0343197 1.68444e-17)
(6.71318 0.0365483 -1.72477e-23)
(6.68386 0.0399941 -3.39494e-17)
(6.6517 0.0449775 1.03048e-23)
(6.61512 0.0523115 1.70775e-17)
(6.57279 0.0611328 0)
(6.52232 0.0746031 0)
(6.45995 0.0923057 1.71329e-17)
(6.38114 0.115326 -1.71033e-17)
(6.27965 0.145268 -1.704e-17)
(6.14711 0.183872 1.695e-17)
(5.97226 0.232668 0)
(5.7393 0.293137 0)
(5.4277 0.365146 1.65511e-17)
(5.00943 0.441737 -1.64536e-17)
(4.42469 0.533598 0)
(3.53899 0.608477 -1.51833e-17)
(7.59697 0.140356 0)
(7.46813 0.169406 0)
(7.48529 0.20197 0)
(7.427 0.177162 2.44081e-19)
(7.41547 0.174243 -6.34591e-19)
(7.38941 0.143421 3.90354e-19)
(7.37295 0.119272 9.28274e-19)
(7.35005 0.0909487 -2.29512e-24)
(7.33146 0.0736833 -1.23555e-18)
(7.31554 0.0601908 -1.39839e-18)
(7.30489 0.052113 3.13274e-18)
(7.29731 0.0458236 -1.73749e-18)
(7.29161 0.0419917 0)
(7.28567 0.0398786 4.16635e-18)
(7.27836 0.0394011 -4.50879e-18)
(7.2695 0.0401965 4.84801e-18)
(7.25968 0.0420149 -5.18506e-18)
(7.24964 0.0443947 -5.52088e-18)
(7.23978 0.0467695 5.85537e-18)
(7.22979 0.0485707 0)
(7.2188 0.0493769 -6.48532e-18)
(7.20572 0.049144 6.70413e-18)
(7.19008 0.0479781 0)
(7.17192 0.0462249 0)
(7.1517 0.0441076 -7.07255e-18)
(7.13003 0.0419352 7.18241e-18)
(7.10762 0.0399151 0)
(7.08494 0.0381615 1.47425e-17)
(7.06223 0.0367347 -1.48675e-17)
(7.0397 0.0356678 -1.49793e-17)
(7.01735 0.0350249 1.5082e-17)
(6.99504 0.0348915 1.51698e-17)
(6.97246 0.0353617 -1.52424e-17)
(6.94919 0.0365673 0)
(6.92482 0.0387272 1.53468e-17)
(6.89872 0.0421307 -1.53922e-17)
(6.87003 0.0470794 -1.5429e-17)
(6.83735 0.0542324 1.54527e-17)
(6.79964 0.0634976 0)
(6.7553 0.0763834 0)
(6.7011 0.0945569 0)
(6.63339 0.117969 -1.54511e-17)
(6.54733 0.148415 -2.86291e-23)
(6.43626 0.187867 1.53293e-17)
(6.29105 0.238205 0)
(6.09866 0.301407 0)
(5.84183 0.37912 1.496e-17)
(5.49575 0.465486 9.52689e-23)
(5.01857 0.576085 -1.45322e-17)
(4.28142 0.672462 0)
(7.60142 0.14799 -1.13001e-20)
(7.48028 0.174074 -2.28473e-20)
(7.50005 0.204729 7.49961e-20)
(7.44777 0.180499 2.13859e-19)
(7.44214 0.176842 -5.56194e-19)
(7.42172 0.146321 3.42953e-19)
(7.41167 0.122512 8.18472e-19)
(7.39467 0.0940998 -2.07058e-24)
(7.38163 0.0763208 -1.0983e-18)
(7.37035 0.0621144 -1.24551e-18)
(7.36368 0.0534334 2.79013e-18)
(7.35953 0.0467097 -1.5455e-18)
(7.35723 0.0425987 0)
(7.35521 0.0403433 3.68908e-18)
(7.35261 0.03982 -3.98269e-18)
(7.34905 0.0405674 4.27226e-18)
(7.34473 0.0423113 -4.55871e-18)
(7.34014 0.044616 -4.84311e-18)
(7.33559 0.0469719 5.12685e-18)
(7.33095 0.0488763 0)
(7.32563 0.049986 -5.68345e-18)
(7.31855 0.0501639 5.91664e-18)
(7.30896 0.0494644 0)
(7.29698 0.048098 0)
(7.28296 0.0462568 0)
(7.26728 0.0442394 0)
(7.25058 0.0422674 1.33397e-17)
(7.23324 0.0405034 -2.11748e-23)
(7.21542 0.0390332 -1.36512e-17)
(7.19726 0.0378989 -1.37637e-17)
(7.17885 0.0371752 1.38612e-17)
(7.16016 0.0369599 0)
(7.14097 0.0373585 0)
(7.12096 0.0384993 1.40617e-17)
(7.09977 0.0405921 -1.5523e-23)
(7.07687 0.0439274 -2.8291e-17)
(7.0516 0.0488194 1.41791e-17)
(7.02273 0.0557733 0)
(6.98934 0.0654056 0)
(6.95051 0.0775388 0)
(6.90354 0.0953774 1.42376e-17)
(6.84527 0.118944 -2.84403e-17)
(6.77191 0.149276 -2.20771e-23)
(6.67825 0.188654 1.41224e-17)
(6.55698 0.239247 0)
(6.39754 0.303295 0)
(6.18599 0.38391 1.37866e-17)
(5.90094 0.475703 -1.36303e-17)
(5.51328 0.59776 0)
(4.9127 0.715906 -1.24883e-17)
(7.60476 0.155242 0)
(7.49004 0.178389 0)
(7.51117 0.207048 0)
(7.46367 0.183321 1.90179e-19)
(7.46265 0.178882 -4.94577e-19)
(7.44676 0.148637 7.58865e-25)
(7.44206 0.125125 3.65885e-19)
(7.43014 0.0966957 8.57626e-19)
(7.42198 0.0784805 -9.87891e-19)
(7.41479 0.0636516 -1.12085e-18)
(7.41159 0.0544322 2.50935e-18)
(7.4104 0.0473047 -2.77639e-18)
(7.41084 0.0429029 1.52053e-18)
(7.41171 0.0404565 0)
(7.41245 0.0398149 3.55902e-18)
(7.41263 0.0404888 -7.62433e-18)
(7.41227 0.042157 4.06257e-18)
(7.41163 0.0443975 0)
(7.411 0.0467372 0)
(7.41029 0.0487084 0)
(7.40916 0.0500266 0)
(7.40684 0.0505772 0)
(7.40249 0.0502853 5.49911e-18)
(7.39606 0.049273 -1.13815e-17)
(7.38768 0.0477265 5.8704e-18)
(7.37754 0.0459083 -1.20551e-17)
(7.36604 0.0440414 1.97732e-23)
(7.35352 0.0423255 2.49698e-17)
(7.34015 0.0408715 -1.26197e-17)
(7.32607 0.0397302 -1.27371e-17)
(7.3114 0.0389734 2.5678e-17)
(7.29619 0.0387073 -1.29237e-17)
(7.28033 0.03905 -1.29991e-17)
(7.26357 0.0401319 1.30606e-17)
(7.2456 0.0421511 0)
(7.226 0.0453885 -1.31603e-17)
(7.20423 0.0501812 1.32011e-17)
(7.17925 0.0568912 0)
(7.15008 0.0666145 0)
(7.11627 0.0783058 0)
(7.07584 0.0951913 0)
(7.02581 0.118419 0)
(6.96315 0.148367 0)
(6.8838 0.187045 -1.31728e-17)
(6.78196 0.236942 2.62002e-17)
(6.64915 0.300399 -1.30026e-17)
(6.47441 0.381731 0)
(6.23987 0.475646 0)
(5.92458 0.602462 1.24758e-17)
(5.44153 0.736811 -1.1675e-17)
(7.60725 0.162183 0)
(7.49797 0.182444 0)
(7.51962 0.209053 0)
(7.47605 0.185727 0)
(7.47859 0.180497 0)
(7.46641 0.150459 0)
(7.4662 0.127201 0)
(7.45867 0.0988009 0)
(7.4548 0.0802158 0)
(7.45122 0.0648474 0)
(7.45109 0.0551478 1.13759e-18)
(7.45247 0.0476504 -1.25736e-18)
(7.45524 0.0429653 0)
(7.45841 0.0403001 -2.98438e-18)
(7.46166 0.0395126 5.57827e-24)
(7.46459 0.040081 5.91122e-24)
(7.46716 0.0416633 3.66547e-18)
(7.46952 0.0438402 3.88985e-18)
(7.47189 0.0461624 -8.23142e-18)
(7.47422 0.0481781 4.34462e-18)
(7.47628 0.04964 0)
(7.47762 0.0504535 0)
(7.47754 0.0504857 -5.00448e-18)
(7.47572 0.0498178 9.13307e-24)
(7.47214 0.0485714 5.38666e-18)
(7.46679 0.0469909 0)
(7.45986 0.0452915 -1.1373e-17)
(7.4516 0.0436805 1.15673e-17)
(7.44222 0.0422908 1.17184e-17)
(7.4319 0.0411833 -1.18576e-17)
(7.42078 0.040426 0)
(7.40897 0.0401284 0)
(7.39642 0.0404207 0)
(7.38293 0.0414415 1.22482e-17)
(7.36822 0.0433786 -1.4393e-23)
(7.35195 0.0464954 -1.29125e-23)
(7.33367 0.0511515 -1.24086e-17)
(7.31253 0.0575913 1.24406e-17)
(7.28745 0.0670612 -1.2463e-17)
(7.25819 0.0787513 0)
(7.22354 0.0944958 0)
(7.1808 0.116705 0)
(7.12732 0.146028 -1.24469e-17)
(7.05992 0.183698 1.24025e-17)
(6.97412 0.232264 0)
(6.86307 0.294087 -1.22587e-17)
(6.71823 0.37447 1.21453e-17)
(6.5251 0.468199 -1.20097e-17)
(6.26786 0.595211 1.17928e-17)
(5.8803 0.737795 1.1056e-17)
(7.60907 0.168869 0)
(7.50443 0.186313 0)
(7.52608 0.210824 0)
(7.48576 0.187811 0)
(7.49108 0.181768 -2.02314e-19)
(7.48195 0.15186 5.60166e-25)
(7.48556 0.128814 3.02024e-19)
(7.48185 0.100471 7.10579e-19)
(7.48175 0.0815742 -8.19464e-19)
(7.48138 0.0657367 -9.29299e-19)
(7.48398 0.0556083 2.0777e-18)
(7.48765 0.0477751 -2.29485e-18)
(7.49245 0.0428224 -1.2546e-18)
(7.49754 0.0399363 2.72065e-18)
(7.50277 0.0389797 2.92946e-18)
(7.50783 0.0394231 -6.27316e-18)
(7.51266 0.0409074 3.34327e-18)
(7.51737 0.0430134 0)
(7.52213 0.0453111 0)
(7.52689 0.0473562 0)
(7.53146 0.0489217 0)
(7.53557 0.049917 0)
(7.53868 0.0502239 0)
(7.54046 0.0498357 0)
(7.54073 0.0488879 0)
(7.53938 0.0475617 0)
(7.53642 0.0460685 0)
(7.53194 0.0446064 0)
(7.52617 0.0433131 0)
(7.51937 0.0422596 -1.11086e-17)
(7.51168 0.0415201 2.25168e-17)
(7.50317 0.0412053 -1.13787e-17)
(7.49385 0.0414542 -1.14794e-17)
(7.48354 0.0424134 2.31289e-17)
(7.472 0.0442651 -1.16328e-17)
(7.45893 0.0472509 -1.16906e-17)
(7.44396 0.051745 2.34741e-17)
(7.42645 0.0579242 -1.1772e-17)
(7.40532 0.0669201 -1.17989e-17)
(7.38023 0.0787281 1.18149e-17)
(7.35068 0.0934888 0)
(7.31447 0.114336 0)
(7.26909 0.14249 0)
(7.21192 0.178982 0)
(7.13954 0.225903 0)
(7.04651 0.285398 1.16483e-17)
(6.92606 0.363596 -1.15483e-17)
(6.76679 0.455598 -1.14263e-17)
(6.55618 0.58007 2.24755e-17)
(6.24446 0.72475 -1.05636e-17)
(7.61034 0.175343 0)
(7.50973 0.190046 0)
(7.53099 0.212429 5.14169e-20)
(7.49343 0.189631 7.14561e-20)
(7.50091 0.182757 -3.71053e-19)
(7.49433 0.152906 4.60822e-19)
(7.50119 0.130023 -2.7777e-19)
(7.50082 0.101756 6.53799e-19)
(7.50407 0.0825932 -7.53889e-19)
(7.50655 0.0663482 -8.54592e-19)
(7.5116 0.055837 1.9098e-18)
(7.51732 0.0476997 -2.10863e-18)
(7.52395 0.0424981 1.15259e-18)
(7.53072 0.0393961 0)
(7.53759 0.0382631 0)
(7.54437 0.0385673 0)
(7.55103 0.039941 0)
(7.55763 0.0419664 0)
(7.56431 0.0442299 0)
(7.57101 0.0462926 0)
(7.57756 0.0479364 0)
(7.5838 0.0490833 0)
(7.58932 0.0495952 4.21822e-18)
(7.59381 0.0494688 -8.79094e-18)
(7.59706 0.0487776 4.56769e-18)
(7.59891 0.0476957 0)
(7.59928 0.0464164 -9.76677e-18)
(7.59818 0.0451223 2.00536e-17)
(7.59574 0.0439442 -1.02531e-17)
(7.59221 0.0429601 -1.04569e-17)
(7.58773 0.0422536 2.12567e-17)
(7.58233 0.0419367 -1.07627e-17)
(7.57601 0.0421557 0)
(7.56866 0.0430584 0)
(7.56009 0.0448278 1.10393e-17)
(7.55003 0.0476822 -1.11045e-17)
(7.53818 0.0519977 0)
(7.52407 0.0579508 0)
(7.50673 0.0664075 0)
(7.4856 0.0780858 0)
(7.46059 0.0923208 0)
(7.4302 0.111647 1.12758e-17)
(7.39203 0.1382 -1.12661e-17)
(7.34378 0.173097 -1.12394e-17)
(7.28278 0.218168 2.23895e-17)
(7.20478 0.275066 -1.11336e-17)
(7.1044 0.350243 0)
(6.97284 0.439397 0)
(6.79989 0.559397 0)
(6.54829 0.702218 0)
(7.61117 0.181637 0)
(7.51405 0.193684 0)
(7.5347 0.213921 0)
(7.49943 0.191237 0)
(7.50865 0.18352 0)
(7.50424 0.153651 0)
(7.51389 0.130879 0)
(7.51646 0.102695 0)
(7.52268 0.0833041 0)
(7.52774 0.0667062 0)
(7.53499 0.0558525 8.83026e-19)
(7.54257 0.0474405 -9.74886e-19)
(7.55085 0.0420093 0)
(7.55912 0.0387019 0)
(7.56743 0.03739 0)
(7.57566 0.0375472 -2.67421e-18)
(7.58382 0.0388008 2.85518e-18)
(7.59197 0.040737 3.03546e-18)
(7.6002 0.0429587 -5.58413e-24)
(7.60847 0.0450326 -3.39187e-18)
(7.6166 0.0467402 0)
(7.62449 0.0480042 0)
(7.63186 0.0486917 -3.90984e-18)
(7.63843 0.0487881 4.076e-18)
(7.64398 0.048328 4.23932e-18)
(7.64836 0.0474677 -1.31985e-17)
(7.65146 0.0463871 1.44304e-23)
(7.65325 0.0452563 9.37961e-18)
(7.65379 0.0441983 0)
(7.65322 0.0432964 0)
(7.65162 0.0426407 0)
(7.64905 0.0423431 0)
(7.64548 0.0425416 0)
(7.64084 0.043401 1.04262e-17)
(7.63502 0.0450896 -1.05155e-17)
(7.6278 0.0478106 1.05924e-17)
(7.6189 0.051934 -1.06565e-17)
(7.60797 0.0576611 1.07075e-17)
(7.5942 0.0655895 -1.07487e-17)
(7.57685 0.0768661 0)
(7.55591 0.0908746 0)
(7.53062 0.108799 0)
(7.49885 0.133528 -1.08001e-17)
(7.45845 0.166443 1.0781e-17)
(7.40725 0.209332 -1.07446e-17)
(7.34195 0.263496 -1.88239e-23)
(7.25825 0.335035 1.06179e-17)
(7.14948 0.420777 -1.05223e-17)
(7.00717 0.535032 1.03799e-17)
(6.80333 0.673438 0)
(7.61162 0.187783 0)
(7.51758 0.197253 0)
(7.53748 0.215334 0)
(7.50401 0.192673 1.23097e-19)
(7.51473 0.184075 -3.18879e-19)
(7.51219 0.154136 3.69391e-25)
(7.52425 0.131424 2.39268e-19)
(7.52942 0.103323 5.63037e-19)
(7.53831 0.0837338 -6.48858e-19)
(7.54569 0.0668302 -7.351e-19)
(7.55496 0.0556705 8.21109e-19)
(7.56424 0.0470104 -9.06681e-19)
(7.57403 0.0413683 -9.91827e-19)
(7.58366 0.037869 2.15375e-18)
(7.59325 0.0363801 0)
(7.60275 0.0363864 0)
(7.61218 0.0375144 0)
(7.6216 0.0393567 0)
(7.63111 0.0415311 0)
(7.64063 0.0436107 0)
(7.65004 0.0453726 -3.32682e-18)
(7.65926 0.0467351 6.97537e-18)
(7.66807 0.0475751 -3.64666e-18)
(7.67625 0.0478586 0)
(7.68361 0.0476045 0)
(7.68999 0.046942 0)
(7.6953 0.0460382 0)
(7.69946 0.0450553 8.79537e-18)
(7.7025 0.044115 -9.05511e-18)
(7.70449 0.0433036 -9.29454e-18)
(7.70545 0.0427109 9.50194e-18)
(7.70541 0.0424467 0)
(7.70434 0.0426468 -9.81576e-18)
(7.70223 0.043456 1.98895e-17)
(7.69897 0.045064 -1.00512e-17)
(7.69439 0.047652 -1.01396e-17)
(7.68825 0.0515727 2.04249e-17)
(7.68025 0.0570546 -1.02711e-17)
(7.66976 0.0645113 0)
(7.65598 0.0751476 0)
(7.63876 0.0889173 0)
(7.61789 0.105903 0)
(7.59178 0.128729 0)
(7.55832 0.15947 -1.03828e-17)
(7.51566 0.199873 2.07106e-17)
(7.46122 0.250978 -1.03129e-17)
(7.39155 0.318493 0)
(7.30164 0.400392 -1.01637e-17)
(7.18446 0.508151 1.00392e-17)
(7.01879 0.640479 0)
(7.61174 0.193805 0)
(7.52041 0.200771 0)
(7.53947 0.216709 0)
(7.50736 0.193976 0)
(7.51946 0.184453 0)
(7.51859 0.154385 0)
(7.53273 0.131692 0)
(7.54023 0.103668 0)
(7.55153 0.0839052 0)
(7.56103 0.0667367 0)
(7.57214 0.0553038 7.67455e-19)
(7.58298 0.0464199 -8.47763e-19)
(7.59415 0.0405843 0)
(7.60504 0.0369058 -2.01713e-18)
(7.61581 0.0352464 2.17856e-18)
(7.62641 0.0351026 -2.3395e-18)
(7.63693 0.0361042 2.4992e-18)
(7.64742 0.0378504 0)
(7.65797 0.0399732 2.81291e-18)
(7.66853 0.0420531 -2.96688e-18)
(7.67899 0.0438616 0)
(7.68927 0.0453096 0)
(7.69924 0.0462791 -3.42098e-18)
(7.7087 0.0467264 6.01402e-24)
(7.7175 0.0466555 7.43261e-18)
(7.72548 0.046171 -3.86068e-18)
(7.73253 0.0454265 -8.00214e-18)
(7.7386 0.0445779 1.2705e-23)
(7.74369 0.0437473 8.52897e-18)
(7.74782 0.0430242 0)
(7.75099 0.0424968 0)
(7.75319 0.0422694 0)
(7.75439 0.0424723 0)
(7.7546 0.0432462 0)
(7.7537 0.0447689 0)
(7.75155 0.0472255 9.72592e-18)
(7.74792 0.050941 -9.80775e-18)
(7.74259 0.0561684 0)
(7.73509 0.06322 0)
(7.72463 0.0731196 0)
(7.71088 0.0864985 0)
(7.69388 0.102894 0)
(7.6727 0.12396 -1.00346e-17)
(7.6454 0.152383 1.00319e-17)
(7.61022 0.190201 -1.00124e-17)
(7.56513 0.238041 -1.07883e-23)
(7.50736 0.301339 -1.47474e-23)
(7.43317 0.378772 -2.0034e-23)
(7.33678 0.479808 9.7403e-18)
(7.20196 0.605075 0)
(7.61157 0.19972 0)
(7.52266 0.20427 0)
(7.54078 0.218087 0)
(7.50968 0.195159 0)
(7.52313 0.18471 -1.4029e-19)
(7.5237 0.15446 2.93248e-25)
(7.53969 0.131707 2.10244e-19)
(7.5493 0.103755 4.94364e-19)
(7.56277 0.0838375 -5.69419e-19)
(7.57421 0.0664397 -6.45003e-19)
(7.58702 0.0547635 1.44144e-18)
(7.5993 0.0456779 -1.59316e-18)
(7.61177 0.0396648 8.72749e-19)
(7.62383 0.0358198 0)
(7.63566 0.0339988 0)
(7.64726 0.0337099 -2.20366e-18)
(7.65872 0.0345874 2.35422e-18)
(7.67011 0.0362373 0)
(7.68153 0.0383052 0)
(7.69295 0.0403801 0)
(7.70428 0.0422281 0)
(7.71545 0.0437504 3.08312e-18)
(7.72636 0.0448323 -5.44294e-24)
(7.73686 0.0454249 -3.36616e-18)
(7.7468 0.0455193 0)
(7.75604 0.0451984 0)
(7.76448 0.0446007 -7.54848e-18)
(7.77208 0.0438748 1.56148e-17)
(7.77882 0.0431433 -8.05813e-18)
(7.78472 0.0424992 -8.30006e-18)
(7.78976 0.0420316 1.70537e-17)
(7.79392 0.0418388 -8.73584e-18)
(7.79715 0.042043 0)
(7.79942 0.0427788 9.08878e-18)
(7.80064 0.0442254 -9.22597e-18)
(7.80068 0.0465559 -9.33898e-18)
(7.79933 0.0500694 9.43446e-18)
(7.79642 0.0550364 0)
(7.79162 0.0617269 0)
(7.78424 0.0709034 0)
(7.77375 0.0836141 0)
(7.7602 0.0995199 0)
(7.74325 0.119296 0)
(7.72135 0.145391 0)
(7.69275 0.180521 9.70589e-18)
(7.65577 0.225106 -9.67983e-18)
(7.60816 0.284131 -9.63476e-18)
(7.54719 0.356798 -1.54197e-23)
(7.4681 0.451169 1.89523e-17)
(7.35849 0.568884 -9.01037e-18)
(7.61115 0.205544 0)
(7.52437 0.207772 0)
(7.54149 0.219489 3.83711e-20)
(7.5112 0.196243 5.1463e-20)
(7.52587 0.184791 -2.65073e-19)
(7.52773 0.154377 1.64635e-19)
(7.54541 0.131501 0)
(7.55695 0.103603 4.6617e-19)
(7.57241 0.0835473 -5.36847e-19)
(7.58563 0.0659514 -6.08157e-19)
(7.6 0.0540587 1.35961e-18)
(7.61363 0.0447919 -1.50379e-18)
(7.6273 0.0386159 -8.24501e-19)
(7.64044 0.0346176 1.79472e-18)
(7.65326 0.0326458 1.93991e-18)
(7.66575 0.032219 -2.0839e-18)
(7.67804 0.0329767 0)
(7.69021 0.0345317 0)
(7.70237 0.0365424 0)
(7.71451 0.0386075 0)
(7.72657 0.0404879 0)
(7.73848 0.0420752 0)
(7.75017 0.0432572 0)
(7.76151 0.0439806 -3.18739e-18)
(7.77237 0.0442265 3.31848e-18)
(7.78262 0.0440582 0)
(7.79217 0.0435977 0)
(7.80099 0.0429853 7.39761e-18)
(7.80907 0.0423431 -7.64064e-18)
(7.81642 0.0417674 -7.87689e-18)
(7.82302 0.041349 1.62052e-17)
(7.82884 0.0411839 -8.31513e-18)
(7.83381 0.0413888 -8.51192e-18)
(7.83789 0.0420882 8.69021e-18)
(7.84099 0.0434598 0)
(7.84298 0.0456671 0)
(7.84371 0.0489819 9.08839e-18)
(7.843 0.0536827 -9.18211e-18)
(7.84062 0.0600214 0)
(7.83602 0.068543 0)
(7.82857 0.0803858 0)
(7.81818 0.0957554 0)
(7.80485 0.114657 -9.42104e-18)
(7.78761 0.138633 1.42114e-24)
(7.7648 0.170973 9.43033e-18)
(7.73489 0.21233 0)
(7.69602 0.267135 0)
(7.64622 0.335004 0)
(7.58164 0.42276 0)
(7.49274 0.53273 0)
(7.6105 0.211296 0)
(7.5256 0.211284 0)
(7.54169 0.220932 0)
(7.51208 0.197257 0)
(7.52776 0.184777 0)
(7.53093 0.154061 0)
(7.55011 0.131084 0)
(7.56345 0.103231 -4.41257e-19)
(7.58073 0.0830492 5.08098e-19)
(7.59559 0.065282 0)
(7.61142 0.0531976 6.43833e-19)
(7.6263 0.0437683 -7.12674e-19)
(7.64109 0.0374433 0)
(7.65524 0.0333051 0)
(7.66896 0.0311943 -1.84092e-18)
(7.68227 0.0306383 3.37726e-24)
(7.6953 0.031282 2.11328e-18)
(7.70815 0.0327448 2.24743e-18)
(7.72094 0.034697 -4.76107e-18)
(7.7337 0.0367473 2.51296e-18)
(7.74637 0.0386538 0)
(7.75891 0.040299 0)
(7.77125 0.0415715 -2.90282e-18)
(7.78327 0.0424143 3.02924e-18)
(7.79487 0.0428005 0)
(7.80594 0.0427756 -6.55402e-18)
(7.8164 0.0424449 1.05494e-23)
(7.82621 0.0419392 7.03585e-18)
(7.83537 0.0413789 7.26985e-18)
(7.84389 0.0408632 -7.49796e-18)
(7.85176 0.0404848 0)
(7.85895 0.0403385 -7.92851e-18)
(7.8654 0.0405374 8.12817e-18)
(7.87105 0.0412008 8.31418e-18)
(7.87579 0.0424966 -1.12155e-23)
(7.87952 0.0445811 -8.63106e-18)
(7.8821 0.0477003 0)
(7.88338 0.0521319 8.86809e-18)
(7.88315 0.0581225 -1.79099e-17)
(7.88101 0.0660952 9.027e-18)
(7.87636 0.0770293 0)
(7.86891 0.091647 0)
(7.85874 0.109783 -9.15566e-18)
(7.84546 0.13217 9.17404e-18)
(7.82769 0.161785 0)
(7.80398 0.199859 -9.17029e-18)
(7.77266 0.250515 -5.12062e-24)
(7.73235 0.313632 -8.08338e-24)
(7.67999 0.394916 9.0264e-18)
(7.60823 0.497191 8.60639e-18)
(7.60964 0.216993 0)
(7.52638 0.214815 0)
(7.54145 0.222426 0)
(7.51244 0.198242 9.35369e-20)
(7.52899 0.184648 -2.39377e-19)
(7.53335 0.15366 2.113e-25)
(7.55394 0.130455 -1.7847e-19)
(7.569 0.102644 9.76225e-25)
(7.58795 0.0823556 4.82623e-19)
(7.60433 0.0644407 -5.46973e-19)
(7.62153 0.0521868 1.22416e-18)
(7.63758 0.0426129 -1.35602e-18)
(7.65342 0.0361524 7.44313e-19)
(7.66852 0.0318875 0)
(7.68307 0.0296495 1.75279e-18)
(7.69713 0.028974 -1.88333e-18)
(7.71082 0.0295105 0)
(7.72427 0.0308848 0)
(7.73762 0.0327778 0)
(7.75092 0.0348092 0)
(7.76411 0.0367368 0)
(7.77717 0.038434 0)
(7.79004 0.0397894 2.76814e-18)
(7.80262 0.0407422 -2.88883e-18)
(7.81483 0.0412592 0)
(7.82657 0.0413698 0)
(7.83776 0.0411631 -6.48544e-18)
(7.84838 0.0407597 1.34289e-17)
(7.85842 0.0402771 -6.9389e-18)
(7.8679 0.0398161 -7.15828e-18)
(7.8768 0.0394709 1.47432e-17)
(7.88511 0.0393358 -7.57784e-18)
(7.89279 0.0395215 0)
(7.89976 0.0401432 7.96532e-18)
(7.90593 0.0413595 -8.14122e-18)
(7.91119 0.0433203 0)
(7.91541 0.046248 0)
(7.91844 0.0504133 0)
(7.92011 0.0560627 0)
(7.92014 0.0635488 0)
(7.91802 0.0736074 0)
(7.9133 0.0872577 0)
(7.906 0.104621 0)
(7.89606 0.125868 0)
(7.88259 0.15303 0)
(7.86428 0.187891 0)
(7.83953 0.234432 -8.9299e-18)
(7.80732 0.292863 1.77884e-17)
(7.76531 0.367892 -8.83302e-18)
(7.70782 0.462659 0)
(7.60859 0.222647 0)
(7.52677 0.218379 0)
(7.5408 0.223972 3.40676e-20)
(7.51238 0.199141 4.4847e-20)
(7.52974 0.184411 -2.28698e-19)
(7.53515 0.153077 1.89227e-25)
(7.55705 0.129667 1.70154e-19)
(7.57375 0.101849 0)
(7.59428 0.0814762 0)