/*--------------------------------*- C++ -*----------------------------------*\
  =========                 |
  \\      /  F ield         | OpenFOAM: The Open Source CFD Toolbox
   \\    /   O peration     | Website:  https://openfoam.org
    \\  /    A nd           | Version:  9
     \\/     M anipulation  |
\*---------------------------------------------------------------------------*/
FoamFile
{
    format      ascii;
    class       volScalarField;
    location    "0.0175";
    object      p;
}
// * * * * * * * * * * * * * * * * * * * * * * * * * * * * * * * * * * * * * //

dimensions      [1 -1 -2 0 0 0 0];

internalField   nonuniform List<scalar> 
8420
(
100000
100001
100001
100001
100001
100001
100002
100002
100002
100002
100003
100003
100003
100003
100004
100004
100004
100005
100005
100005
100006
100006
100007
100007
100007
100008
100008
100009
100009
100010
100011
100011
100012
100012
99995.6
99995.7
99995.8
99995.9
99995.9
99996
99996.1
99996.2
99996.4
99996.5
99996.6
99996.7
99996.9
99997
99997.1
99997.3
99997.5
99997.6
99997.8
99998
99998.2
99998.4
99998.6
99998.8
99999.1
99999.3
99999.6
99999.8
100000
100000
100001
100001
100001
100002
99986.7
99986.7
99986.7
99986.7
99986.7
99986.7
99986.7
99986.6
99986.6
99986.6
99986.6
99986.6
99986.6
99986.5
99986.5
99986.5
99986.5
99986.4
99986.4
99986.3
99986.3
99986.2
99986.2
99986.1
99986
99986
99985.9
99985.8
99985.7
99985.5
99985.4
99985.3
99985.1
99984.9
99985.4
99985.5
99985.5
99985.6
99985.7
99985.8
99985.9
99985.9
99986
99986.1
99986.2
99986.3
99986.4
99986.5
99986.6
99986.7
99986.8
99986.9
99987
99987.1
99987.2
99987.3
99987.4
99987.5
99987.6
99987.8
99987.9
99988
99988.1
99988.3
99988.4
99988.5
99988.7
99988.8
99976.3
99976.3
99976.3
99976.3
99976.3
99976.3
99976.4
99976.4
99976.4
99976.4
99976.4
99976.4
99976.5
99976.5
99976.5
99976.5
99976.5
99976.6
99976.6
99976.6
99976.6
99976.7
99976.7
99976.7
99976.7
99976.8
99976.8
99976.8
99976.8
99976.9
99976.9
99976.9
99976.9
99976.9
99974
99974.1
99974.1
99974.2
99974.2
99974.3
99974.4
99974.4
99974.5
99974.6
99974.6
99974.7
99974.8
99974.9
99974.9
99975
99975.1
99975.2
99975.3
99975.3
99975.4
99975.5
99975.6
99975.7
99975.8
99975.9
99976
99976.1
99976.2
99976.2
99976.3
99976.4
99976.6
99976.6
99966.4
99966.4
99966.5
99966.5
99966.6
99966.6
99966.7
99966.7
99966.8
99966.9
99966.9
99967
99967.1
99967.2
99967.2
99967.3
99967.4
99967.5
99967.6
99967.7
99967.8
99967.9
99968
99968.1
99968.2
99968.3
99968.4
99968.5
99968.6
99968.7
99968.9
99969
99969.1
99969.2
99962.6
99962.6
99962.7
99962.8
99962.9
99962.9
99963
99963.1
99963.2
99963.3
99963.4
99963.5
99963.6
99963.7
99963.8
99963.9
99964
99964.1
99964.2
99964.3
99964.5
99964.6
99964.7
99964.8
99965
99965.1
99965.3
99965.4
99965.5
99965.7
99965.8
99966
99966.1
99966.2
99955.8
99955.9
99956
99956.1
99956.2
99956.3
99956.4
99956.5
99956.6
99956.7
99956.8
99956.9
99957.1
99957.2
99957.3
99957.5
99957.6
99957.8
99957.9
99958.1
99958.2
99958.4
99958.5
99958.7
99958.9
99959.1
99959.2
99959.4
99959.6
99959.8
99960
99960.2
99960.4
99960.5
99950.8
99950.9
99951
99951.1
99951.2
99951.3
99951.4
99951.5
99951.7
99951.8
99951.9
99952.1
99952.2
99952.4
99952.5
99952.7
99952.9
99953
99953.2
99953.4
99953.6
99953.8
99954
99954.2
99954.4
99954.6
99954.8
99955
99955.2
99955.4
99955.6
99955.9
99956.1
99956.3
99956.5
99944.3
99944.4
99944.5
99944.6
99944.8
99944.9
99945.1
99945.2
99945.4
99945.5
99945.7
99945.9
99946.1
99946.3
99946.5
99946.7
99946.9
99947.1
99947.3
99947.5
99947.8
99948
99948.2
99948.5
99948.7
99949
99949.3
99949.5
99949.8
99950.1
99950.3
99950.6
99950.9
99951.2
99951.5
99938.4
99938.6
99938.7
99938.9
99939.1
99939.2
99939.4
99939.6
99939.8
99940
99940.2
99940.4
99940.6
99940.9
99941.1
99941.3
99941.6
99941.8
99942.1
99942.4
99942.6
99942.9
99943.2
99943.5
99943.8
99944.1
99944.4
99944.7
99945
99945.4
99945.7
99946
99946.4
99946.7
99947
99931.8
99932
99932.1
99932.3
99932.5
99932.7
99933
99933.2
99933.4
99933.7
99933.9
99934.2
99934.4
99934.7
99935
99935.3
99935.6
99935.9
99936.2
99936.6
99936.9
99937.2
99937.6
99937.9
99938.3
99938.6
99939
99939.4
99939.8
99940.2
99940.5
99940.9
99941.4
99941.8
99942.1
99925.3
99925.5
99925.7
99926
99926.2
99926.5
99926.7
99927
99927.3
99927.5
99927.8
99928.2
99928.5
99928.8
99929.1
99929.5
99929.8
99930.2
99930.6
99931
99931.3
99931.7
99932.1
99932.6
99933
99933.4
99933.8
99934.3
99934.7
99935.2
99935.6
99936.1
99936.6
99937.1
99937.5
99918.4
99918.6
99918.9
99919.1
99919.4
99919.7
99920
99920.3
99920.7
99921
99921.3
99921.7
99922.1
99922.5
99922.9
99923.3
99923.7
99924.1
99924.6
99925
99925.5
99925.9
99926.4
99926.9
99927.4
99927.9
99928.4
99928.9
99929.5
99930
99930.5
99931.1
99931.6
99932.2
99932.7
99911.4
99911.6
99911.9
99912.3
99912.6
99912.9
99913.3
99913.7
99914
99914.4
99914.8
99915.3
99915.7
99916.2
99916.6
99917.1
99917.6
99918.1
99918.6
99919.1
99919.6
99920.2
99920.7
99921.3
99921.9
99922.4
99923
99923.6
99924.2
99924.9
99925.5
99926.1
99926.8
99927.4
99928
99904
99904.4
99904.7
99905.1
99905.5
99905.9
99906.3
99906.7
99907.2
99907.6
99908.1
99908.6
99909.1
99909.6
99910.1
99910.7
99911.2
99911.8
99912.4
99913
99913.6
99914.2
99914.9
99915.5
99916.2
99916.9
99917.5
99918.2
99918.9
99919.6
99920.4
99921.1
99921.8
99922.6
99923.3
99896.6
99897
99897.4
99897.8
99898.3
99898.7
99899.2
99899.7
99900.2
99900.7
99901.3
99901.8
99902.4
99903
99903.6
99904.2
99904.8
99905.5
99906.2
99906.9
99907.6
99908.3
99909
99909.7
99910.5
99911.2
99912
99912.8
99913.6
99914.4
99915.2
99916.1
99916.9
99917.8
99918.6
99889
99889.5
99889.9
99890.4
99890.9
99891.4
99891.9
99892.5
99893.1
99893.7
99894.3
99894.9
99895.5
99896.2
99896.9
99897.6
99898.3
99899.1
99899.8
99900.6
99901.4
99902.2
99903
99903.8
99904.7
99905.6
99906.4
99907.3
99908.2
99909.2
99910.1
99911
99912
99913
99913.9
99881.4
99881.9
99882.4
99882.9
99883.4
99884
99884.6
99885.2
99885.9
99886.5
99887.2
99887.9
99888.6
99889.4
99890.1
99890.9
99891.7
99892.6
99893.4
99894.3
99895.1
99896
99897
99897.9
99898.9
99899.8
99900.8
99901.8
99902.9
99903.9
99904.9
99906
99907.1
99908.2
99909.2
99873.6
99874.2
99874.7
99875.3
99875.9
99876.6
99877.2
99877.9
99878.6
99879.3
99880.1
99880.8
99881.6
99882.5
99883.3
99884.2
99885.1
99886
99886.9
99887.9
99888.8
99889.8
99890.9
99891.9
99893
99894
99895.1
99896.3
99897.4
99898.6
99899.7
99900.9
99902.1
99903.4
99904.6
99865.9
99866.5
99867.1
99867.7
99868.4
99869.1
99869.8
99870.5
99871.3
99872.1
99872.9
99873.7
99874.6
99875.5
99876.4
99877.4
99878.3
99879.3
99880.3
99881.4
99882.5
99883.6
99884.7
99885.8
99887
99888.2
99889.4
99890.7
99891.9
99893.2
99894.5
99895.8
99897.2
99898.6
99899.9
99858.2
99858.8
99859.5
99860.2
99860.9
99861.6
99862.4
99863.2
99864
99864.8
99865.7
99866.6
99867.5
99868.5
99869.5
99870.5
99871.5
99872.6
99873.7
99874.9
99876
99877.2
99878.4
99879.7
99881
99882.3
99883.6
99885
99886.4
99887.8
99889.2
99890.7
99892.2
99893.7
99895.2
99850.6
99851.2
99852
99852.7
99853.4
99854.2
99855
99855.9
99856.7
99857.6
99858.6
99859.5
99860.5
99861.5
99862.5
99863.6
99864.7
99865.9
99867
99868.3
99869.5
99870.8
99872.1
99873.5
99874.8
99876.3
99877.7
99879.2
99880.8
99882.3
99883.9
99885.5
99887.2
99888.8
99890.5
99843.1
99843.8
99844.6
99845.3
99846.1
99846.9
99847.8
99848.7
99849.6
99850.5
99851.4
99852.4
99853.4
99854.5
99855.6
99856.7
99857.9
99859.1
99860.3
99861.6
99862.9
99864.3
99865.7
99867.1
99868.6
99870.2
99871.8
99873.4
99875
99876.7
99878.5
99880.3
99882.1
99883.9
99885.8
99835.8
99836.6
99837.4
99838.2
99839
99839.8
99840.7
99841.6
99842.5
99843.4
99844.4
99845.4
99846.5
99847.5
99848.7
99849.8
99851
99852.3
99853.6
99854.9
99856.3
99857.7
99859.2
99860.7
99862.3
99864
99865.7
99867.4
99869.2
99871
99872.9
99874.9
99876.9
99878.9
99880.9
99828.8
99829.6
99830.4
99831.2
99832
99832.9
99833.7
99834.6
99835.6
99836.5
99837.5
99838.5
99839.6
99840.6
99841.8
99842.9
99844.2
99845.4
99846.8
99848.1
99849.6
99851.1
99852.6
99854.2
99855.9
99857.6
99859.4
99861.3
99863.2
99865.2
99867.3
99869.4
99871.6
99873.8
99876
99822.1
99822.9
99823.7
99824.5
99825.3
99826.2
99827
99827.9
99828.8
99829.8
99830.7
99831.7
99832.8
99833.8
99834.9
99836.1
99837.3
99838.6
99839.9
99841.3
99842.8
99844.3
99845.9
99847.6
99849.3
99851.1
99853
99855
99857.1
99859.2
99861.4
99863.7
99866.1
99868.5
99871
99815.8
99816.5
99817.3
99818.1
99818.9
99819.7
99820.6
99821.4
99822.3
99823.2
99824.1
99825.1
99826.1
99827.1
99828.2
99829.3
99830.5
99831.8
99833.1
99834.5
99835.9
99837.5
99839.1
99840.8
99842.6
99844.5
99846.5
99848.6
99850.7
99853
99855.4
99857.9
99860.5
99863.1
99865.8
99809.8
99810.5
99811.3
99812.1
99812.8
99813.6
99814.4
99815.2
99816
99816.9
99817.7
99818.6
99819.6
99820.6
99821.6
99822.7
99823.8
99825
99826.3
99827.6
99829
99830.6
99832.2
99833.9
99835.7
99837.7
99839.7
99841.9
99844.2
99846.6
99849.2
99851.8
99854.6
99857.5
99860.5
99804.1
99804.9
99805.6
99806.4
99807.1
99807.8
99808.5
99809.3
99810
99810.8
99811.6
99812.4
99813.3
99814.2
99815.1
99816.1
99817.1
99818.2
99819.4
99820.7
99822.1
99823.6
99825.1
99826.8
99828.7
99830.6
99832.8
99835
99837.4
99840
99842.7
99845.5
99848.5
99851.7
99854.9
99798.9
99799.6
99800.3
99801
99801.7
99802.4
99803
99803.7
99804.4
99805
99805.7
99806.4
99807.2
99808
99808.8
99809.7
99810.6
99811.6
99812.7
99813.8
99815.1
99816.5
99818
99819.7
99821.5
99823.4
99825.6
99827.9
99830.4
99833
99835.9
99838.9
99842.2
99845.6
99849.1
99794.1
99794.8
99795.4
99796.1
99796.7
99797.3
99797.9
99798.4
99799
99799.6
99800.1
99800.7
99801.3
99802
99802.7
99803.4
99804.2
99805
99806
99807
99808.2
99809.4
99810.8
99812.4
99814.1
99816
99818.2
99820.5
99823
99825.8
99828.8
99832
99835.5
99839.2
99843.1
99789.7
99790.3
99790.9
99791.5
99792
99792.6
99793
99793.5
99794
99794.4
99794.9
99795.3
99795.8
99796.3
99796.8
99797.3
99798
99798.6
99799.4
99800.3
99801.2
99802.3
99803.6
99805
99806.6
99808.5
99810.5
99812.8
99815.4
99818.2
99821.4
99824.8
99828.5
99832.5
99836.7
99785.6
99786.2
99786.8
99787.3
99787.8
99788.2
99788.6
99789
99789.3
99789.6
99789.9
99790.2
99790.5
99790.8
99791.2
99791.5
99791.9
99792.4
99793
99793.6
99794.4
99795.3
99796.3
99797.6
99799
99800.7
99802.7
99804.9
99807.4
99810.3
99813.6
99817.1
99821.1
99825.4
99830
99782
99782.5
99783
99783.5
99783.9
99784.2
99784.5
99784.8
99785
99785.2
99785.3
99785.5
99785.6
99785.7
99785.8
99786
99786.2
99786.4
99786.7
99787.1
99787.6
99788.3
99789.1
99790.1
99791.3
99792.8
99794.6
99796.7
99799.2
99802.1
99805.4
99809.1
99813.3
99817.9
99823
99778.7
99779.2
99779.6
99780
99780.3
99780.6
99780.8
99780.9
99781
99781
99781
99781
99781
99780.9
99780.8
99780.7
99780.7
99780.6
99780.7
99780.8
99781
99781.3
99781.9
99782.6
99783.5
99784.8
99786.3
99788.3
99790.6
99793.5
99796.8
99800.6
99805
99810
99815.5
99775.8
99776.2
99776.6
99776.9
99777.1
99777.3
99777.4
99777.4
99777.4
99777.3
99777.1
99776.9
99776.7
99776.4
99776.1
99775.8
99775.4
99775.1
99774.9
99774.7
99774.6
99774.6
99774.8
99775.1
99775.7
99776.7
99777.9
99779.6
99781.8
99784.5
99787.8
99791.7
99796.3
99801.6
99807.6
99773.1
99773.5
99773.9
99774.1
99774.3
99774.3
99774.3
99774.2
99774.1
99773.8
99773.5
99773.1
99772.7
99772.2
99771.7
99771.1
99770.5
99769.9
99769.4
99768.8
99768.4
99768
99767.8
99767.8
99768
99768.5
99769.4
99770.8
99772.7
99775.2
99778.4
99782.3
99787.1
99792.7
99799.2
99770.8
99771.1
99771.4
99771.6
99771.7
99771.7
99771.6
99771.4
99771.1
99770.7
99770.2
99769.7
99769.1
99768.4
99767.6
99766.8
99765.9
99765.1
99764.2
99763.3
99762.4
99761.7
99761
99760.6
99760.3
99760.4
99760.8
99761.8
99763.3
99765.5
99768.5
99772.4
99777.3
99783.3
99790.3
99768.7
99769
99769.3
99769.4
99769.4
99769.3
99769.1
99768.8
99768.4
99767.9
99767.3
99766.6
99765.8
99764.9
99763.9
99762.8
99761.7
99760.5
99759.3
99758
99756.8
99755.6
99754.5
99753.5
99752.8
99752.3
99752.2
99752.7
99753.7
99755.5
99758.3
99762
99767
99773.2
99780.9
99766.9
99767.2
99767.3
99767.4
99767.3
99767.2
99766.9
99766.5
99766
99765.4
99764.6
99763.7
99762.8
99761.7
99760.5
99759.2
99757.8
99756.3
99754.7
99753.1
99751.5
99749.8
99748.2
99746.7
99745.4
99744.4
99743.7
99743.5
99744
99745.3
99747.6
99751.2
99756
99762.5
99770.8
99765.3
99765.5
99765.6
99765.6
99765.5
99765.3
99764.9
99764.4
99763.8
99763.1
99762.2
99761.2
99760.1
99758.8
99757.4
99755.8
99754.2
99752.4
99750.5
99748.5
99746.5
99744.4
99742.3
99740.2
99738.3
99736.6
99735.3
99734.4
99734.2
99734.8
99736.6
99739.8
99744.5
99751.2
99760.1
99763.8
99764.1
99764.1
99764.1
99763.9
99763.6
99763.2
99762.6
99761.9
99761.1
99760.1
99758.9
99757.6
99756.2
99754.6
99752.8
99750.9
99748.8
99746.6
99744.3
99741.8
99739.3
99736.7
99734
99731.5
99729.1
99727
99725.3
99724.3
99724.2
99725.3
99727.9
99732.3
99739.1
99748.7
99762.6
99762.8
99762.8
99762.7
99762.5
99762.2
99761.7
99761
99760.2
99759.3
99758.2
99756.9
99755.5
99753.9
99752.1
99750.1
99747.9
99745.6
99743.1
99740.4
99737.5
99734.5
99731.4
99728.2
99725
99721.9
99719
99716.4
99714.5
99713.5
99713.7
99715.6
99719.5
99726.3
99736.5
99761.5
99761.7
99761.7
99761.6
99761.3
99760.9
99760.3
99759.6
99758.7
99757.7
99756.5
99755.1
99753.5
99751.8
99749.8
99747.6
99745.3
99742.7
99739.9
99736.8
99733.6
99730.1
99726.5
99722.7
99718.8
99715
99711.2
99707.7
99704.8
99702.7
99702
99702.9
99706.1
99712.8
99723.6
99760.6
99760.7
99760.7
99760.5
99760.2
99759.8
99759.1
99758.4
99757.4
99756.3
99755
99753.5
99751.8
99749.9
99747.8
99745.5
99742.9
99740
99737
99733.6
99730
99726.1
99722
99717.6
99713.1
99708.4
99703.8
99699.3
99695.3
99692
99690.1
99689.9
99692.2
99698.4
99709.8
99759.7
99759.8
99759.8
99759.6
99759.3
99758.8
99758.1
99757.3
99756.3
99755.1
99753.7
99752.1
99750.3
99748.3
99746
99743.5
99740.7
99737.7
99734.3
99730.7
99726.7
99722.4
99717.8
99712.9
99707.7
99702.3
99696.8
99691.3
99686
99681.5
99678.2
99676.6
99677.6
99683.2
99695
99759
99759.1
99759
99758.8
99758.5
99757.9
99757.2
99756.3
99755.3
99754
99752.5
99750.9
99749
99746.8
99744.4
99741.8
99738.8
99735.6
99732
99728.1
99723.8
99719.1
99714.1
99708.6
99702.8
99696.6
99690.2
99683.6
99677.1
99671.1
99666.3
99663.2
99662.6
99667.1
99679.4
99758.4
99758.5
99758.4
99758.1
99757.7
99757.2
99756.4
99755.5
99754.4
99753.1
99751.5
99749.8
99747.8
99745.6
99743
99740.3
99737.2
99733.7
99729.9
99725.7
99721.2
99716.1
99710.7
99704.7
99698.2
99691.3
99684
99676.3
99668.6
99661.1
99654.5
99649.6
99647.2
99650.2
99662.7
99757.9
99757.9
99757.8
99757.5
99757.1
99756.5
99755.7
99754.8
99753.6
99752.2
99750.7
99748.8
99746.8
99744.4
99741.8
99738.9
99735.7
99732.1
99728.1
99723.7
99718.8
99713.5
99707.6
99701.1
99694.1
99686.5
99678.3
99669.6
99660.5
99651.4
99643
99636.1
99631.5
99632.6
99644.9
99757.4
99757.4
99757.3
99757
99756.6
99756
99755.1
99754.1
99752.9
99751.5
99749.9
99748
99745.9
99743.5
99740.8
99737.7
99734.4
99730.6
99726.4
99721.8
99716.7
99711.1
99704.8
99697.9
99690.4
99682.1
99673
99663.3
99652.9
99642.2
99631.8
99622.7
99615.5
99614.1
99625.9
99757
99757
99756.9
99756.6
99756.1
99755.5
99754.6
99753.6
99752.4
99750.9
99749.2
99747.3
99745.1
99742.6
99739.8
99736.7
99733.2
99729.3
99725
99720.2
99714.9
99708.9
99702.4
99695.1
99687
99678.1
99668.2
99657.4
99645.8
99633.4
99621
99609.5
99599.5
99595.1
99605.8
99756.7
99756.7
99756.5
99756.2
99755.7
99755
99754.2
99753.1
99751.9
99750.4
99748.6
99746.7
99744.4
99741.9
99739
99735.8
99732.2
99728.2
99723.8
99718.8
99713.2
99707.1
99700.2
99692.5
99684
99674.4
99663.8
99652.1
99639.2
99625.2
99610.7
99596.7
99583.5
99575.4
99584.4
99756.4
99756.4
99756.2
99755.9
99755.4
99754.7
99753.8
99752.7
99751.4
99749.9
99748.1
99746.1
99743.8
99741.2
99738.3
99735
99731.4
99727.2
99722.7
99717.5
99711.8
99705.4
99698.3
99690.3
99681.3
99671.2
99659.9
99647.3
99633.2
99617.6
99601
99584.2
99567.8
99555.3
99561.8
99756.1
99756.1
99755.9
99755.6
99755.1
99754.4
99753.5
99752.4
99751.1
99749.5
99747.7
99745.7
99743.3
99740.7
99737.7
99734.3
99730.6
99726.4
99721.7
99716.4
99710.6
99704
99696.6
99688.3
99678.9
99668.3
99656.4
99642.9
99627.7
99610.6
99591.8
99572.2
99552.3
99535
99537.8
99755.9
99755.9
99755.7
99755.4
99754.8
99754.1
99753.2
99752.1
99750.7
99749.2
99747.3
99745.3
99742.9
99740.2
99737.2
99733.8
99729.9
99725.7
99720.9
99715.5
99709.5
99702.7
99695.1
99686.5
99676.8
99665.8
99653.3
99639
99622.7
99604.1
99583.3
99560.8
99537.3
99514.5
99512.5
99755.7
99755.7
99755.5
99755.2
99754.6
99753.9
99753
99751.8
99750.5
99748.9
99747
99744.9
99742.5
99739.8
99736.7
99733.3
99729.4
99725
99720.2
99714.7
99708.5
99701.6
99693.8
99685
99675
99663.6
99650.5
99635.5
99618.2
99598.3
99575.4
99550
99522.8
99494.2
99485.9
99755.6
99755.5
99755.3
99755
99754.4
99753.7
99752.8
99751.6
99750.2
99748.6
99746.8
99744.6
99742.2
99739.4
99736.3
99732.8
99728.9
99724.5
99719.5
99714
99707.7
99700.7
99692.7
99683.7
99673.4
99661.6
99648.1
99632.4
99614.2
99593
99568.2
99539.9
99508.9
99474.3
99458.2
99755.4
99755.4
99755.2
99754.8
99754.3
99753.5
99752.6
99751.4
99750
99748.4
99746.5
99744.4
99741.9
99739.1
99736
99732.4
99728.5
99724
99719
99713.4
99707
99699.8
99691.7
99682.5
99672
99659.9
99645.9
99629.6
99610.6
99588.3
99561.6
99530.5
99495.8
99454.8
99429.3
99755.3
99755.3
99755.1
99754.7
99754.1
99753.4
99752.4
99751.3
99749.9
99748.2
99746.3
99744.1
99741.7
99738.9
99735.7
99732.1
99728.1
99723.6
99718.5
99712.8
99706.4
99699.1
99690.9
99681.5
99670.8
99658.4
99644.1
99627.3
99607.5
99584.1
99555.8
99521.8
99483.4
99436.1
99399.4
99755.2
99755.2
99755
99754.6
99754
99753.3
99752.3
99751.1
99749.7
99748.1
99746.2
99744
99741.5
99738.6
99735.4
99731.8
99727.8
99723.2
99718.1
99712.4
99705.9
99698.5
99690.2
99680.6
99669.7
99657.1
99642.4
99625.2
99604.7
99580.4
99550.5
99513.8
99471.7
99418.4
99368.8
99755.2
99755.1
99754.9
99754.5
99753.9
99753.2
99752.2
99751
99749.6
99747.9
99746
99743.8
99741.3
99738.4
99735.2
99731.6
99727.5
99722.9
99717.8
99712
99705.4
99698
99689.5
99679.9
99668.8
99656
99641
99623.4
99602.3
99577.1
99545.9
99506.6
99460.9
99401.7
99337.6
99755.1
99755.1
99754.8
99754.5
99753.9
99753.1
99752.1
99750.9
99749.5
99747.8
99745.9
99743.7
99741.1
99738.3
99735
99731.4
99727.3
99722.7
99717.5
99711.6
99705
99697.5
99689
99679.2
99668
99655
99639.8
99621.8
99600.2
99574.2
99541.8
99500
99451
99386.2
99306.1
99755.1
99755
99754.8
99754.4
99753.8
99753
99752
99750.8
99749.4
99747.7
99745.8
99743.6
99741
99738.1
99734.9
99731.2
99727.1
99722.5
99717.2
99711.3
99704.7
99697.1
99688.5
99678.7
99667.3
99654.2
99638.7
99620.4
99598.3
99571.8
99538.3
99494.2
99441.8
99372
99274.4
99755
99755
99754.8
99754.4
99753.8
99753
99752
99750.8
99749.3
99747.7
99745.7
99743.5
99740.9
99738
99734.8
99731.1
99726.9
99722.3
99717
99711.1
99704.4
99696.8
99688.1
99678.2
99666.7
99653.4
99637.8
99619.2
99596.8
99569.6
99535.2
99489
99433.4
99359.2
99242.9
99755
99755
99754.7
99754.3
99753.7
99752.9
99751.9
99750.7
99749.3
99747.6
99745.6
99743.4
99740.8
99737.9
99734.6
99731
99726.8
99722.1
99716.8
99710.9
99704.1
99696.5
99687.8
99677.8
99666.2
99652.8
99637.1
99618.2
99595.4
99567.7
99532.6
99484.4
99425.7
99347.9
99212.2
99755
99754.9
99754.7
99754.3
99753.7
99752.9
99751.9
99750.7
99749.2
99747.5
99745.6
99743.3
99740.8
99737.8
99734.6
99730.9
99726.7
99722
99716.7
99710.7
99703.9
99696.2
99687.5
99677.4
99665.8
99652.3
99636.4
99617.4
99594.2
99566.1
99530.3
99480.4
99418.7
99338
99182.3
99755
99754.9
99754.7
99754.3
99753.7
99752.9
99751.9
99750.7
99749.2
99747.5
99745.5
99743.3
99740.7
99737.8
99734.5
99730.8
99726.6
99721.9
99716.5
99710.5
99703.7
99696
99687.2
99677.1
99665.4
99651.8
99635.8
99616.6
99593.2
99564.7
99528.4
99476.9
99412.4
99329.5
99153.5
99755
99754.9
99754.7
99754.3
99753.7
99752.9
99751.9
99750.6
99749.2
99747.5
99745.5
99743.2
99740.7
99737.7
99734.4
99730.7
99726.5
99721.8
99716.4
99710.4
99703.6
99695.8
99687
99676.9
99665.1
99651.4
99635.3
99616
99592.3
99563.5
99526.8
99473.9
99406.8
99322.3
99125.9
99755
99754.9
99754.7
99754.3
99753.7
99752.9
99751.9
99750.6
99749.2
99747.5
99745.5
99743.2
99740.6
99737.7
99734.4
99730.7
99726.4
99721.7
99716.4
99710.3
99703.5
99695.7
99686.8
99676.6
99664.8
99651.1
99634.9
99615.4
99591.6
99562.5
99525.4
99471.3
99401.8
99316.3
99099.8
99755
99754.9
99754.7
99754.3
99753.7
99752.9
99751.9
99750.6
99749.2
99747.5
99745.5
99743.2
99740.6
99737.7
99734.4
99730.6
99726.4
99721.7
99716.3
99710.2
99703.4
99695.6
99686.7
99676.5
99664.6
99650.8
99634.5
99615
99591
99561.6
99524.2
99469.1
99397.5
99311.4
99075.4
99755
99754.9
99754.7
99754.3
99753.7
99752.9
99751.8
99750.6
99749.2
99747.4
99745.5
99743.2
99740.6
99737.7
99734.3
99730.6
99726.4
99721.6
99716.3
99710.2
99703.3
99695.5
99686.6
99676.3
99664.5
99650.6
99634.2
99614.6
99590.4
99560.8
99523.2
99467.2
99393.6
99307.7
99052.9
99755
99754.9
99754.7
99754.3
99753.7
99752.9
99751.9
99750.6
99749.2
99747.4
99745.5
99743.2
99740.6
99737.7
99734.3
99730.6
99726.4
99721.6
99716.2
99710.2
99703.3
99695.4
99686.5
99676.2
99664.3
99650.4
99634
99614.3
99590
99560.2
99522.3
99465.7
99390.3
99304.9
99032.3
99755
99754.9
99754.7
99754.3
99753.7
99752.9
99751.9
99750.6
99749.2
99747.4
99745.5
99743.2
99740.6
99737.7
99734.3
99730.6
99726.3
99721.6
99716.2
99710.1
99703.2
99695.4
99686.5
99676.2
99664.2
99650.3
99633.8
99614
99589.6
99559.7
99521.6
99464.3
99387.4
99302.9
99013.9
99755
99754.9
99754.7
99754.3
99753.7
99752.9
99751.9
99750.6
99749.2
99747.5
99745.5
99743.2
99740.6
99737.7
99734.3
99730.6
99726.3
99721.6
99716.2
99710.1
99703.2
99695.4
99686.4
99676.1
99664.2
99650.2
99633.7
99613.8
99589.4
99559.3
99521
99463.2
99385
99301.5
98997.6
99755
99754.9
99754.7
99754.3
99753.7
99752.9
99751.9
99750.6
99749.2
99747.5
99745.5
99743.2
99740.6
99737.7
99734.3
99730.6
99726.3
99721.6
99716.2
99710.1
99703.2
99695.4
99686.4
99676.1
99664.1
99650.1
99633.6
99613.7
99589.2
99559
99520.6
99462.3
99382.9
99300.7
98984.5
99755
99754.9
99754.7
99754.3
99753.7
99752.9
99751.9
99750.6
99749.2
99747.5
99745.5
99743.2
99740.6
99737.7
99734.3
99730.6
99726.3
99721.6
99716.2
99710.1
99703.2
99695.4
99686.4
99676.1
99664.1
99650.1
99633.6
99613.7
99589.1
99558.8
99520.3
99461.6
99381.2
99300
98973.6
99755
99755
99754.7
99754.3
99753.7
99752.9
99751.9
99750.6
99749.2
99747.5
99745.5
99743.2
99740.6
99737.7
99734.3
99730.6
99726.4
99721.6
99716.2
99710.1
99703.2
99695.4
99686.4
99676.1
99664.1
99650.1
99633.6
99613.6
99589
99558.8
99520.2
99461.2
99380
99298.4
98963.7
99755
99755
99754.7
99754.3
99753.7
99752.9
99751.9
99750.7
99749.2
99747.5
99745.5
99743.2
99740.6
99737.7
99734.3
99730.6
99726.4
99721.6
99716.2
99710.1
99703.2
99695.4
99686.4
99676.1
99664.1
99650.1
99633.6
99613.6
99589
99558.8
99520.1
99461.1
99379.4
99296.9
98952.2
100006
99998.6
99991
99984.8
99979.6
99975.1
99971.3
99968.3
99966.1
99964.3
99963.1
99962.1
99961.5
99961.1
99961
99961
99961.2
99961.5
99961.9
99962.5
99963.1
99963.8
99964.6
99965.4
99966.2
99967.1
99968.1
99969
99970
99970.9
99971.9
99972.9
99973.9
99974.8
99975.8
99976.8
99977.7
99978.7
99979.6
99980.5
99981.5
99982.4
99983.3
99984.2
99985
99985.9
99986.7
99987.5
99988.4
99989.1
99989.9
99990.6
99991.3
99992.1
99992.8
99993.4
99994.1
99994.7
99995.3
99995.9
99996.5
99997
99997.6
99998.1
99998.6
99999.1
99999.5
99999.9
100000
100001
100001
100001
100002
100002
100002
100003
100003
100003
100003
100004
100003
100004
100006
100007
100007
100008
100008
100007
100007
100007
100006
100005
100005
100004
100003
100003
100002
100001
100001
100000
99999.5
99998.9
99998.3
99997.8
99997.3
99996.8
99996.4
99995.9
99995.6
99995.2
99994.9
99994.6
99994.3
99994.1
99993.9
99993.7
99993.6
99993.5
99993.5
99993.4
99993.5
99993.5
99993.6
99993.7
99993.7
99993.9
99994
99994.1
99994.3
99994.5
99994.7
99994.9
99995.1
99995.3
99995.5
99995.8
99996.1
99996.4
99996.7
99997
99997.3
99997.6
99998
99998.3
99998.7
99999.1
99999.4
99999.9
100000
100001
100001
100002
100002
100002
100003
100003
100004
100004
100005
100005
99984.6
99984.2
99983.8
99983.5
99983.2
99983
99983
99983
99983.1
99983.2
99983.4
99983.6
99983.9
99984.2
99984.5
99984.8
99985.1
99985.4
99985.7
99986.1
99986.4
99986.8
99987.2
99987.5
99987.9
99988.2
99988.6
99988.9
99989.2
99989.5
99989.8
99990.1
99990.4
99990.7
99991.1
99991.4
99991.7
99992
99992.3
99992.6
99992.8
99993.1
99993.3
99993.5
99993.8
99994
99994.3
99994.5
99994.8
99995
99995.3
99995.5
99995.8
99996
99996.3
99996.5
99996.8
99997.1
99997.3
99997.6
99997.8
99998.1
99998.4
99998.7
99998.9
99999.2
99999.5
99999.8
100000
100000
100001
100001
100001
100002
100002
100003
100003
100003
100004
100004
99988.8
99988.8
99988.8
99988.7
99988.6
99988.4
99988.2
99988
99987.8
99987.6
99987.4
99987.2
99987
99986.9
99986.7
99986.6
99986.5
99986.4
99986.4
99986.3
99986.3
99986.3
99986.3
99986.4
99986.4
99986.5
99986.7
99986.8
99987
99987.2
99987.4
99987.6
99987.8
99988.1
99988.3
99988.6
99988.8
99989.1
99989.4
99989.7
99990
99990.3
99990.6
99990.9
99991.3
99991.6
99992
99992.3
99992.7
99993
99993.4
99993.7
99994.1
99994.5
99994.8
99995.2
99995.6
99995.9
99996.3
99996.7
99997.1
99997.4
99997.8
99998.2
99998.5
99998.9
99999.2
99999.6
99999.9
100000
100001
100001
100001
100002
100002
100002
100003
100003
100003
100004
99977.2
99977.7
99978.1
99978.6
99979
99979.4
99979.7
99980.1
99980.4
99980.8
99981.1
99981.4
99981.7
99982
99982.3
99982.5
99982.8
99983.1
99983.3
99983.5
99983.8
99984
99984.2
99984.5
99984.7
99984.9
99985.2
99985.4
99985.7
99985.9
99986.2
99986.4
99986.7
99987
99987.2
99987.5
99987.8
99988.1
99988.4
99988.7
99989
99989.3
99989.6
99990
99990.3
99990.7
99991
99991.4
99991.7
99992.1
99992.5
99992.8
99993.2
99993.6
99994
99994.4
99994.8
99995.2
99995.6
99996
99996.4
99996.9
99997.3
99997.7
99998.1
99998.5
99998.9
99999.3
99999.8
100000
100001
100001
100001
100002
100002
100003
100003
100003
100004
100004
99976.7
99976.8
99976.9
99977
99977.2
99977.3
99977.5
99977.6
99977.8
99978
99978.2
99978.4
99978.6
99978.8
99979
99979.3
99979.6
99979.8
99980.1
99980.4
99980.7
99981
99981.3
99981.6
99981.9
99982.3
99982.6
99982.9
99983.3
99983.6
99984
99984.3
99984.7
99985
99985.4
99985.8
99986.1
99986.5
99986.9
99987.3
99987.7
99988.1
99988.4
99988.8
99989.2
99989.6
99990
99990.5
99990.9
99991.3
99991.7
99992.1
99992.5
99993
99993.4
99993.8
99994.3
99994.7
99995.1
99995.6
99996
99996.5
99996.9
99997.3
99997.8
99998.2
99998.7
99999.1
99999.6
100000
100001
100001
100001
100002
100002
100003
100003
100004
100004
100005
99969.5
99970.1
99970.6
99971.1
99971.6
99972.1
99972.5
99972.9
99973.4
99973.8
99974.2
99974.6
99974.9
99975.3
99975.7
99976.1
99976.4
99976.8
99977.2
99977.5
99977.9
99978.3
99978.7
99979
99979.4
99979.8
99980.2
99980.6
99981
99981.4
99981.8
99982.2
99982.6
99983
99983.4
99983.9
99984.3
99984.7
99985.2
99985.6
99986.1
99986.5
99986.9
99987.4
99987.9
99988.3
99988.8
99989.2
99989.7
99990.2
99990.7
99991.1
99991.6
99992.1
99992.6
99993.1
99993.5
99994
99994.5
99995
99995.5
99996
99996.5
99996.9
99997.4
99997.9
99998.4
99998.9
99999.4
99999.9
100000
100001
100001
100002
100002
100003
100003
100004
100004
100005
99966.5
99966.9
99967.3
99967.7
99968
99968.5
99968.9
99969.3
99969.7
99970.1
99970.6
99971
99971.4
99971.9
99972.3
99972.7
99973.2
99973.6
99974.1
99974.5
99975
99975.4
99975.9
99976.3
99976.8
99977.3
99977.7
99978.2
99978.7
99979.1
99979.6
99980.1
99980.5
99981
99981.5
99982
99982.5
99983
99983.5
99984
99984.5
99985
99985.5
99986
99986.5
99987
99987.5
99988
99988.5
99989.1
99989.6
99990.1
99990.6
99991.2
99991.7
99992.2
99992.8
99993.3
99993.8
99994.4
99994.9
99995.4
99996
99996.5
99997
99997.6
99998.1
99998.7
99999.2
99999.7
100000
100001
100001
100002
100002
100003
100003
100004
100005
100005
99961
99961.6
99962.2
99962.8
99963.4
99963.9
99964.5
99965
99965.6
99966.1
99966.7
99967.2
99967.8
99968.3
99968.8
99969.3
99969.9
99970.4
99970.9
99971.4
99972
99972.5
99973
99973.6
99974.1
99974.6
99975.2
99975.7
99976.2
99976.8
99977.3
99977.9
99978.4
99978.9
99979.5
99980
99980.6
99981.1
99981.7
99982.3
99982.8
99983.4
99983.9
99984.5
99985.1
99985.6
99986.2
99986.8
99987.3
99987.9
99988.5
99989.1
99989.6
99990.2
99990.8
99991.4
99992
99992.5
99993.1
99993.7
99994.3
99994.9
99995.5
99996
99996.6
99997.2
99997.8
99998.4
99999
99999.5
100000
100001
100001
100002
100002
100003
100004
100004
100005
100005
99956.9
99957.5
99958.1
99958.7
99959.3
99959.9
99960.5
99961.1
99961.7
99962.3
99962.9
99963.5
99964.1
99964.7
99965.3
99966
99966.6
99967.2
99967.8
99968.4
99969
99969.6
99970.2
99970.8
99971.4
99972
99972.6
99973.2
99973.8
99974.4
99975
99975.6
99976.2
99976.8
99977.4
99978
99978.6
99979.3
99979.9
99980.5
99981.1
99981.7
99982.4
99983
99983.6
99984.2
99984.8
99985.5
99986.1
99986.7
99987.4
99988
99988.6
99989.3
99989.9
99990.5
99991.1
99991.8
99992.4
99993
99993.7
99994.3
99994.9
99995.6
99996.2
99996.8
99997.5
99998.1
99998.7
99999.4
100000
100001
100001
100002
100003
100003
100004
100004
100005
100006
99952
99952.7
99953.4
99954.2
99954.9
99955.6
99956.3
99957
99957.7
99958.4
99959.1
99959.8
99960.5
99961.1
99961.8
99962.5
99963.2
99963.9
99964.5
99965.2
99965.9
99966.6
99967.2
99967.9
99968.6
99969.2
99969.9
99970.6
99971.3
99971.9
99972.6
99973.3
99974
99974.6
99975.3
99976
99976.7
99977.3
99978
99978.7
99979.4
99980
99980.7
99981.4
99982.1
99982.8
99983.5
99984.1
99984.8
99985.5
99986.2
99986.9
99987.6
99988.2
99988.9
99989.6
99990.3
99991
99991.7
99992.4
99993
99993.7
99994.4
99995.1
99995.8
99996.5
99997.1
99997.8
99998.5
99999.2
99999.9
100001
100001
100002
100003
100003
100004
100005
100005
100006
99947.6
99948.4
99949.1
99949.9
99950.7
99951.4
99952.2
99953
99953.7
99954.5
99955.3
99956
99956.8
99957.5
99958.3
99959
99959.8
99960.5
99961.3
99962
99962.8
99963.5
99964.3
99965
99965.7
99966.5
99967.2
99968
99968.7
99969.5
99970.2
99970.9
99971.7
99972.4
99973.1
99973.9
99974.6
99975.4
99976.1
99976.8
99977.6
99978.3
99979.1
99979.8
99980.5
99981.3
99982
99982.8
99983.5
99984.3
99985
99985.7
99986.5
99987.2
99988
99988.7
99989.4
99990.2
99990.9
99991.6
99992.4
99993.1
99993.9
99994.6
99995.3
99996.1
99996.8
99997.5
99998.3
99999
99999.7
100000
100001
100002
100003
100003
100004
100005
100005
100006
99942.8
99943.7
99944.5
99945.4
99946.3
99947.1
99948
99948.9
99949.7
99950.5
99951.4
99952.2
99953.1
99953.9
99954.7
99955.5
99956.4
99957.2
99958
99958.8
99959.6
99960.5
99961.3
99962.1
99962.9
99963.7