/*--------------------------------*- C++ -*---------------------------------*\ 
| ========                 |                                                 | 
| \      /  F ield         | OpenFOAM: The Open Source CFD Toolbox           | 
|  \    /   O peration     | Version:  v1812                                 | 
|   \  /    A nd           | Web:      www.OpenFOAM.com                      | 
|    \/     M anipulation  |                                                 | 
\*--------------------------------------------------------------------------*/ 
FoamFile
{
    version     2.0;
    format      ascii;
    class       volVectorField;
    location    "/home/james/dafoam/myRuns/bezier_coanda_opt/0.00000000001/";
    object      sens_CL_shapey;
}
// * * * * * * * * * * * * * * * * * * * * * * * * * * * * * * * * * * * * * //

dimensions      [0 0 0 0 0 0 0];
internalField   uniform (0 0 0);
boundaryField
{
    allWalls
    {
        type  wall;
        value nonuniform List<vector>
164
(
(-0.372383 0.058299 0.000943)
(-0.363015 0.070431 0.001011)
(0.127398 -0.140800 0.001033)
(0.273428 -0.188424 0.001059)
(0.010300 -0.016008 0.001090)
(-0.080321 0.067644 0.001125)
(-0.110026 0.218907 0.001165)
(-0.109355 0.270011 0.001209)
(-0.070261 0.220664 0.001258)
(-0.053079 0.216446 0.001311)
(-0.040776 0.212719 0.002220)
(-0.031220 0.207504 0.003240)
(-0.024720 0.213271 0.003528)
(-0.019988 0.227266 0.003836)
(-0.015486 0.243016 0.004156)
(-0.011297 0.268056 0.004478)
(-0.006829 0.301379 0.005960)
(-0.001488 0.353591 0.007776)
(0.005830 0.433656 0.008742)
(0.014868 0.479284 0.009273)
(0.023356 0.492971 0.008717)
(0.032720 0.540255 0.006465)
(0.040436 0.556581 0.004026)
(0.045543 0.539203 0.002363)
(0.055165 0.577505 0.001081)
(0.063639 0.603191 0.000354)
(0.070500 0.607454 -0.000711)
(0.080473 0.637290 -0.001066)
(0.091921 0.672331 -0.000750)
(0.115305 0.788836 -0.000888)
(0.128530 0.827925 -0.000943)
(0.128430 0.766836 -0.000904)
(0.138763 0.773085 -0.000816)
(0.151132 0.788860 -0.000732)
(0.163751 0.799190 -0.000782)
(0.185797 0.843800 -0.000713)
(0.195150 0.813661 -0.000524)
(0.136890 0.509780 -0.000466)
(0.019957 -0.109003 -0.000281)
(0.267360 1.128029 -0.000109)
(-0.104052 0.143544 -0.000349)
(-0.091038 0.106127 -0.000371)
(0.030504 -0.069055 -0.000080)
(0.039151 -0.091288 -0.000038)
(-0.002165 -0.012927 -0.000038)
(-0.023070 0.071406 0.000031)
(-0.022420 0.091584 0.000046)
(-0.024142 0.121350 0.000241)
(-0.028403 0.162121 -0.000190)
(-0.030610 0.196376 -0.000049)
(-0.032228 0.228088 0.000489)
(-0.032393 0.251291 0.000487)
(-0.032205 0.272689 0.000590)
(-0.031169 0.287982 0.000707)
(-0.029623 0.300154 0.001148)
(-0.027521 0.308621 0.001681)
(-0.025228 0.318909 0.001986)
(-0.022012 0.318256 0.002273)
(-0.021438 0.380452 0.002514)
(-0.016991 0.362140 0.001967)
(-0.009207 0.295250 0.001090)
(-0.004886 0.299409 0.000625)
(0.000309 0.269063 0.000207)
(0.004553 0.230012 -0.000103)
(0.007617 0.190899 0.000457)
(0.011333 0.179219 0.001137)
(0.015413 0.171953 0.001129)
(0.019031 0.158692 0.001138)
(0.021412 0.141535 0.001161)
(0.022965 0.124906 0.000711)
(0.028362 0.129788 0.000292)
(0.027763 0.107034 0.000378)
(0.031223 0.075387 0.000460)
(0.040927 0.037424 0.000536)
(0.019541 -0.060407 0.000608)
(0.018919 -0.063283 0.000674)
(0.087234 0.115522 0.000734)
(0.048323 0.185086 0.000788)
(-0.046991 0.078170 0.000836)
(-0.134265 0.024778 0.000871)
(0.194586 1.374175 -0.000400)
(-0.162163 -0.072078 -0.000588)
(-0.056632 0.339157 -0.000470)
(0.059498 1.788336 -0.000470)
(0.088315 2.669687 -0.000470)
(0.080822 1.683419 -0.000470)
(0.138308 -0.034682 -0.000470)
(0.797699 10.728940 -0.000470)
(3.045064 49.611486 -0.000470)
(-80.296318 -0.731769 -0.000273)
(811.421740 -1354.493566 -0.000273)
(-96.212212 -11.505089 -0.000077)
(-760.625925 1056.853338 -0.000273)
(15.681916 509.736874 -0.000077)
(25.153244 254.994674 -0.000077)
(8.524698 88.675871 -0.000077)
(1.368783 10.750134 -0.000077)
(4.251360 13.244146 -0.000077)
(2.510859 6.707971 -0.000077)
(-0.104438 -0.530795 -0.000077)
(0.363746 0.599333 -0.000077)
(4.095749 7.580957 -0.000033)
(1.985160 4.169736 0.000010)
(-0.458765 0.020920 0.000010)
(2.771579 3.937642 0.000010)
(0.196722 1.279048 0.000010)
(0.871914 2.023431 0.000010)
(1.181794 1.646886 0.000010)
(0.158231 0.400979 0.000010)
(1.427216 1.415481 0.000010)
(1.244607 1.119722 0.000010)
(2.693737 1.954557 0.000010)
(6.135768 3.510727 0.000010)
(10.767467 5.906437 0.000010)
(3.070487 3.080520 0.000010)
(-12.338418 -3.412660 0.000010)
(1.406867 0.192414 0.000010)
(6.490211 2.310967 0.000010)
(-6.422079 -1.394236 0.000010)
(1.871372 -0.331134 0.000010)
(7.837595 -0.337970 0.000010)
(17.421033 -1.497091 0.000010)
(61.046621 -7.416650 0.000010)
(39.639667 -14.377580 0.000010)
(-99.193729 14.327290 0.000010)
(-97.841484 40.961191 0.000010)
(-19.098817 4.250871 0.000010)
(0.426938 -25.786778 0.000010)
(30.035846 -20.152311 0.000010)
(15.938510 -9.558815 0.000010)
(-1.363108 -0.999767 0.000010)
(0.012455 -1.728625 0.000010)
(0.116112 -1.612581 0.000010)
(0.795578 -1.339936 0.000010)
(3.240918 -2.746175 0.000010)
(3.879465 -3.211200 0.000010)
(2.836997 -2.221022 0.000010)
(1.684105 -1.160831 0.000010)
(1.387686 -1.021619 0.000010)
(0.994100 -0.782891 0.000010)
(0.641371 -0.578730 0.000010)
(0.368393 -0.402796 0.000010)
(0.179065 -0.253024 -0.000033)
(0.060951 -0.136335 -0.000077)
(-0.005913 -0.052481 -0.000077)
(-0.039204 0.003034 -0.000077)
(-0.052088 0.037642 -0.000077)
(-0.052842 0.055979 -0.000077)
(-0.045472 0.053350 -0.000077)
(-0.034406 0.036904 -0.000077)
(-0.025323 0.023241 -0.000077)
(-159.849711 0.011266 -0.000273)
(159.819353 0.028363 -0.000470)
(0.011623 -0.072707 -0.000273)
(-0.005027 -0.018306 -0.000273)
(-0.039652 0.150429 -0.000470)
(-0.016106 0.135961 -0.000470)
(-0.008024 0.119146 -0.000470)
(-0.004827 0.109138 -0.000470)
(-0.003227 0.105639 -0.000470)
(-0.001558 0.103390 -0.000470)
(-0.001946 0.099044 -0.000470)
(0.006951 0.135951 -0.000398)
(-0.004314 0.110241 -0.000319)
)
;
    }
}
