/*--------------------------------*- C++ -*---------------------------------*\ 
| ========                 |                                                 | 
| \      /  F ield         | OpenFOAM: The Open Source CFD Toolbox           | 
|  \    /   O peration     | Version:  v1812                                 | 
|   \  /    A nd           | Web:      www.OpenFOAM.com                      | 
|    \/     M anipulation  |                                                 | 
\*--------------------------------------------------------------------------*/ 
FoamFile
{
    version     2.0;
    format      ascii;
    class       volVectorField;
    location    "/home/james/dafoam/myRuns/bezier_coanda_opt/0.00000000001/";
    object      sens_CL_shapey;
}
// * * * * * * * * * * * * * * * * * * * * * * * * * * * * * * * * * * * * * //

dimensions      [0 0 0 0 0 0 0];
internalField   uniform (0 0 0);
boundaryField
{
    allWalls
    {
        type  wall;
        value nonuniform List<vector>
164
(
(-0.372964 0.058321 0.000945)
(-0.361883 0.070046 0.001014)
(0.128816 -0.141480 0.001036)
(0.273000 -0.188304 0.001063)
(0.009431 -0.015140 0.001095)
(-0.080645 0.068249 0.001131)
(-0.109909 0.218806 0.001172)
(-0.109180 0.269661 0.001218)
(-0.070219 0.220566 0.001268)
(-0.053082 0.216429 0.001322)
(-0.040768 0.212590 0.002226)
(-0.031223 0.207414 0.003240)
(-0.024741 0.213249 0.003527)
(-0.020011 0.227244 0.003834)
(-0.015514 0.243003 0.004154)
(-0.011326 0.268026 0.004476)
(-0.006862 0.301371 0.005967)
(-0.001524 0.353582 0.007794)
(0.005792 0.433693 0.008765)
(0.014834 0.479347 0.009300)
(0.023253 0.493004 0.008743)
(0.032618 0.540365 0.006803)
(0.040326 0.556724 0.004184)
(0.045364 0.539352 0.002233)
(0.054992 0.577596 0.001138)
(0.063481 0.603307 0.000375)
(0.070372 0.607668 -0.000704)
(0.080371 0.637503 -0.001427)
(0.091815 0.672374 -0.001155)
(0.115235 0.788943 -0.000976)
(0.128550 0.828495 -0.001066)
(0.128691 0.767590 -0.000836)
(0.139214 0.773629 -0.000576)
(0.151585 0.789214 -0.000576)
(0.164235 0.799520 -0.000669)
(0.186307 0.844018 -0.000669)
(0.195665 0.813743 -0.000576)
(0.137378 0.510045 -0.000576)
(0.020295 -0.108781 -0.000287)
(0.267719 1.126754 -0.000265)
(-0.103815 0.143373 -0.000418)
(-0.090919 0.106243 -0.000251)
(0.030542 -0.068416 0.000040)
(0.039316 -0.091071 0.000069)
(-0.001817 -0.013565 0.000067)
(-0.022792 0.070975 0.000117)
(-0.022229 0.091607 0.000130)
(-0.023950 0.121359 0.000361)
(-0.028390 0.162114 -0.000100)
(-0.030777 0.196348 -0.000123)
(-0.032404 0.227980 0.000437)
(-0.032592 0.251149 0.000589)
(-0.032402 0.272490 0.000685)
(-0.031352 0.287795 0.000796)
(-0.029800 0.300046 0.001167)
(-0.027707 0.308569 0.001642)
(-0.025407 0.318840 0.001960)
(-0.022180 0.318201 0.002254)
(-0.021589 0.380428 0.002492)
(-0.017058 0.362122 0.001963)
(-0.009203 0.295233 0.001107)
(-0.004881 0.299425 0.000641)
(0.000314 0.269063 0.000221)
(0.004560 0.230008 -0.000090)
(0.007622 0.190896 0.000463)
(0.011340 0.179222 0.001138)
(0.015419 0.171957 0.001129)
(0.019035 0.158674 0.001139)
(0.021417 0.141526 0.001162)
(0.022961 0.124873 0.000714)
(0.028365 0.129792 0.000295)
(0.027761 0.107028 0.000381)
(0.031223 0.075364 0.000463)
(0.040929 0.037402 0.000539)
(0.019544 -0.060449 0.000610)
(0.018939 -0.063265 0.000676)
(0.087237 0.115644 0.000736)
(0.048260 0.185143 0.000790)
(-0.047121 0.078138 0.000838)
(-0.134765 0.024801 0.000873)
(0.194854 1.372955 -0.000554)
(-0.162212 -0.071898 -0.000522)
(-0.056707 0.338995 -0.000469)
(0.059478 1.787636 -0.000469)
(0.088306 2.669045 -0.000469)
(0.080827 1.683563 -0.000469)
(0.138315 -0.033655 -0.000469)
(0.797590 10.726666 -0.000469)
(3.044258 49.599698 -0.000469)
(-80.291574 -0.601138 -0.000272)
(812.092778 -1355.160086 -0.000272)
(-96.216103 -11.219554 -0.000076)
(-761.274171 1057.265464 -0.000272)
(15.677186 509.962615 -0.000076)
(25.157916 255.183199 -0.000076)
(8.515303 88.702138 -0.000076)
(1.357719 10.707184 -0.000076)
(4.249892 13.243753 -0.000076)
(2.507760 6.700222 -0.000076)
(-0.106689 -0.535330 -0.000076)
(0.361170 0.593643 -0.000076)
(4.095838 7.580709 -0.000034)
(1.984580 4.168288 0.000009)
(-0.462003 0.015060 0.000009)
(2.771255 3.935052 0.000009)
(0.196081 1.278022 0.000009)
(0.868900 2.020489 0.000009)
(1.179650 1.644689 0.000009)
(0.157339 0.400559 0.000009)
(1.426360 1.415530 0.000009)
(1.242631 1.118684 0.000009)
(2.690375 1.952776 0.000009)
(6.129637 3.507468 0.000009)
(10.764518 5.903536 0.000009)
(3.095517 3.090078 0.000009)
(-12.322526 -3.404245 0.000009)
(1.385976 0.186397 0.000009)
(6.501783 2.313187 0.000009)
(-6.396020 -1.387508 0.000009)
(1.880766 -0.329026 0.000009)
(7.830424 -0.336250 0.000009)
(17.438189 -1.493699 0.000009)
(61.234314 -7.413452 0.000009)
(39.922508 -14.414897 0.000009)
(-99.595800 14.259218 0.000009)
(-98.363415 41.020126 0.000009)
(-19.086634 4.336353 0.000009)
(0.513089 -25.798684 0.000009)
(30.199392 -20.178185 0.000009)
(16.034064 -9.579436 0.000009)
(-1.353457 -0.995049 0.000009)
(0.010305 -1.722040 0.000009)
(0.115837 -1.614150 0.000009)
(0.793285 -1.341377 0.000009)
(3.238419 -2.746522 0.000009)
(3.879137 -3.212166 0.000009)
(2.839045 -2.223344 0.000009)
(1.685927 -1.162590 0.000009)
(1.389152 -1.022836 0.000009)
(0.995345 -0.783838 0.000009)
(0.642293 -0.579488 0.000009)
(0.368958 -0.403373 0.000009)
(0.179355 -0.253420 -0.000034)
(0.061065 -0.136563 -0.000076)
(-0.005896 -0.052575 -0.000076)
(-0.039239 0.003036 -0.000076)
(-0.052144 0.037707 -0.000076)
(-0.052900 0.056080 -0.000076)
(-0.045519 0.053453 -0.000076)
(-0.034433 0.036985 -0.000076)
(-0.025332 0.023304 -0.000076)
(-159.849731 0.011309 -0.000272)
(159.819381 0.028411 -0.000469)
(0.011671 -0.072539 -0.000272)
(-0.004879 -0.017932 -0.000272)
(-0.039476 0.150781 -0.000469)
(-0.015996 0.136133 -0.000469)
(-0.007958 0.119264 -0.000469)
(-0.004786 0.109219 -0.000469)
(-0.003198 0.105697 -0.000469)
(-0.001540 0.103427 -0.000469)
(-0.001930 0.099076 -0.000469)
(0.007057 0.135974 -0.000522)
(-0.004052 0.110135 -0.000576)
)
;
    }
}
