/*--------------------------------*- C++ -*---------------------------------*\ 
| ========                 |                                                 | 
| \      /  F ield         | OpenFOAM: The Open Source CFD Toolbox           | 
|  \    /   O peration     | Version:  v1812                                 | 
|   \  /    A nd           | Web:      www.OpenFOAM.com                      | 
|    \/     M anipulation  |                                                 | 
\*--------------------------------------------------------------------------*/ 
FoamFile
{
    version     2.0;
    format      ascii;
    class       volVectorField;
    location    "/home/james/dafoam/myRuns/bezier_coanda_opt/0.00000000001/";
    object      sens_CL_shapey;
}
// * * * * * * * * * * * * * * * * * * * * * * * * * * * * * * * * * * * * * //

dimensions      [0 0 0 0 0 0 0];
internalField   uniform (0 0 0);
boundaryField
{
    allWalls
    {
        type  wall;
        value nonuniform List<vector>
164
(
(-0.468359 0.072287 0.000906)
(-0.409799 0.064918 0.000976)
(0.311873 -0.261197 0.000997)
(0.379847 -0.258334 0.001022)
(-0.052141 0.039194 0.001051)
(-0.091036 0.069451 0.001084)
(-0.112480 0.226256 0.001122)
(-0.119738 0.289640 0.001164)
(-0.073995 0.229826 0.001211)
(-0.056303 0.221993 0.001262)
(-0.041609 0.211306 0.002213)
(-0.032806 0.208854 0.003266)
(-0.025547 0.211274 0.003534)
(-0.021218 0.227414 0.003820)
(-0.016555 0.241467 0.004118)
(-0.012521 0.266443 0.004418)
(-0.008099 0.298877 0.005891)
(-0.002972 0.348891 0.007721)
(0.004128 0.428225 0.008714)
(0.013092 0.475616 0.009276)
(0.022036 0.492381 0.008740)
(0.031703 0.540056 0.006258)
(0.038627 0.540480 0.003534)
(0.045341 0.537048 0.002201)
(0.055024 0.574175 0.001241)
(0.062585 0.584888 0.000461)
(0.070890 0.599060 -0.000048)
(0.079920 0.617515 -0.000398)
(0.098510 0.699031 -0.000625)
(0.119076 0.790792 -0.000914)
(0.126185 0.780607 -0.001055)
(0.132492 0.757882 -0.000939)
(0.144054 0.766313 -0.000830)
(0.156769 0.778293 -0.000729)
(0.171334 0.792168 -0.000761)
(0.197604 0.846460 -0.000818)
(0.204587 0.800042 -0.000619)
(0.130524 0.445307 -0.000398)
(-0.007242 -0.244987 -0.000303)
(0.299347 1.221061 -0.000238)
(-0.100633 0.137926 -0.000125)
(-0.093100 0.111320 -0.000302)
(0.022819 -0.042836 -0.000099)
(0.035972 -0.075760 -0.000053)
(0.001937 -0.025839 -0.000049)
(-0.021306 0.064515 0.000026)
(-0.023600 0.098903 0.000048)
(-0.025186 0.127745 -0.000103)
(-0.028932 0.165477 -0.000357)
(-0.031152 0.199745 0.000182)
(-0.032823 0.231974 0.000565)
(-0.032947 0.255059 0.000455)
(-0.032677 0.276042 0.000574)
(-0.031575 0.291011 0.000711)
(-0.029964 0.302815 0.001227)
(-0.027801 0.310974 0.001825)
(-0.025446 0.320971 0.002128)
(-0.022177 0.320183 0.002411)
(-0.021542 0.381986 0.002647)
(-0.017047 0.363571 0.002036)
(-0.009221 0.296754 0.001090)
(-0.004833 0.301000 0.000609)
(0.000407 0.269977 0.000176)
(0.004697 0.230567 -0.000145)
(0.007790 0.191898 0.000441)
(0.011508 0.179711 0.001162)
(0.015779 0.173951 0.001172)
(0.018977 0.157437 0.001199)
(0.020707 0.136459 0.001237)
(0.024190 0.130076 0.000735)
(0.029524 0.134937 0.000255)
(0.027247 0.104617 0.000340)
(0.031708 0.075503 0.000422)
(0.041693 0.037027 0.000499)
(0.019563 -0.062827 0.000570)
(0.020169 -0.062154 0.000636)
(0.090030 0.123911 0.000696)
(0.045180 0.196047 0.000749)
(-0.068295 0.086000 0.000797)
(-0.165762 0.034002 0.000832)
(0.227966 1.478554 -0.000270)
(-0.190340 -0.229229 -0.000393)
(-0.067915 0.225770 -0.000469)
(0.060712 1.760705 -0.000469)
(0.089511 2.624070 -0.000469)
(0.080341 1.543859 -0.000469)
(0.142183 -0.289737 -0.000469)
(0.819487 10.466172 -0.000469)
(3.128205 50.031286 -0.000469)
(-78.754721 -3.728806 -0.000271)
(754.222082 -1309.117933 -0.000469)
(-94.809869 -14.167997 -0.000271)
(-704.524076 1027.609715 -0.000271)
(13.837971 475.712123 -0.000072)
(23.318592 242.836459 -0.000072)
(7.573445 83.968769 -0.000072)
(1.123393 9.518872 -0.000072)
(4.174802 13.043894 -0.000072)
(2.520812 6.646538 -0.000072)
(0.194008 0.264174 -0.000072)
(0.519436 1.036969 -0.000072)
(4.098875 7.650733 -0.000029)
(2.152904 4.441379 0.000014)
(-0.281963 0.242875 0.000014)
(2.640261 3.776159 0.000014)
(0.111292 1.151525 0.000014)
(0.924566 2.019234 0.000014)
(1.419246 1.896789 0.000014)
(0.355118 0.618687 0.000014)
(1.497708 1.521524 0.000014)
(1.226903 1.156346 0.000014)
(2.410139 1.818893 0.000014)
(5.547392 3.234236 0.000014)
(9.821253 5.385092 0.000014)
(4.005038 3.302466 0.000014)
(-9.962510 -2.508565 0.000014)
(1.318710 0.253774 0.000014)
(7.222173 2.451348 0.000014)
(-3.710214 -0.767888 0.000014)
(3.803922 0.022796 0.000014)
(8.972270 -0.071758 0.000014)
(18.621298 -1.203815 0.000014)
(64.892898 -6.765647 0.000014)
(50.422755 -14.734892 0.000014)
(-100.739425 9.835273 0.000014)
(-108.212619 38.944275 0.000014)
(-21.687042 7.299059 0.000014)
(-5.211542 -23.813574 0.000014)
(26.721138 -20.128694 0.000014)
(17.072988 -10.328284 0.000014)
(-1.084730 -0.923260 0.000014)
(-0.196394 -1.416724 0.000014)
(0.219037 -1.669638 0.000014)
(0.841799 -1.356799 0.000014)
(3.176516 -2.614813 0.000014)
(3.900091 -3.095669 0.000014)
(3.023609 -2.252786 0.000014)
(1.891321 -1.235186 0.000014)
(1.490549 -1.034880 0.000014)
(1.062135 -0.802761 0.000014)
(0.689158 -0.605223 0.000014)
(0.396298 -0.423256 0.000014)
(0.196923 -0.272631 -0.000029)
(0.073412 -0.155869 -0.000072)
(0.002064 -0.068250 -0.000072)
(-0.034981 -0.008444 -0.000072)
(-0.050542 0.029793 -0.000072)
(-0.053087 0.051067 -0.000072)
(-0.046787 0.050426 -0.000072)
(-0.036093 0.034911 -0.000072)
(-0.027000 0.021707 -0.000072)
(-159.851702 0.010321 -0.000271)
(159.817833 0.027656 -0.000271)
(0.005805 -0.092020 -0.000072)
(-0.014745 -0.038112 -0.000271)
(-0.046904 0.148301 -0.000469)
(-0.018045 0.133874 -0.000469)
(-0.008538 0.118466 -0.000469)
(-0.004839 0.108816 -0.000469)
(-0.003040 0.104660 -0.000469)
(-0.001361 0.101523 -0.000469)
(-0.001520 0.096296 -0.000469)
(0.007511 0.130249 -0.000335)
(-0.001180 0.102474 -0.000066)
)
;
    }
}
