/*--------------------------------*- C++ -*---------------------------------*\ 
| ========                 |                                                 | 
| \      /  F ield         | OpenFOAM: The Open Source CFD Toolbox           | 
|  \    /   O peration     | Version:  v1812                                 | 
|   \  /    A nd           | Web:      www.OpenFOAM.com                      | 
|    \/     M anipulation  |                                                 | 
\*--------------------------------------------------------------------------*/ 
FoamFile
{
    version     2.0;
    format      ascii;
    class       volVectorField;
    location    "/home/james/dafoam/myRuns/bezier_coanda_opt/0.00000000001/";
    object      sens_CL_shapey;
}
// * * * * * * * * * * * * * * * * * * * * * * * * * * * * * * * * * * * * * //

dimensions      [0 0 0 0 0 0 0];
internalField   uniform (0 0 0);
boundaryField
{
    allWalls
    {
        type  wall;
        value nonuniform List<vector>
164
(
(-0.475031 0.073052 0.000907)
(-0.408894 0.063461 0.000975)
(0.321950 -0.267744 0.000996)
(0.385284 -0.263583 0.001022)
(-0.052055 0.038214 0.001052)
(-0.093764 0.073416 0.001086)
(-0.115279 0.231290 0.001125)
(-0.119831 0.289663 0.001168)
(-0.073861 0.229084 0.001216)
(-0.056423 0.222103 0.001269)
(-0.041720 0.211306 0.002222)
(-0.032884 0.208705 0.003274)
(-0.025647 0.211210 0.003537)
(-0.021319 0.227312 0.003818)
(-0.016666 0.241389 0.004111)
(-0.012639 0.266348 0.004406)
(-0.008226 0.298762 0.005894)
(-0.003108 0.348658 0.007745)
(0.003974 0.428015 0.008743)
(0.012944 0.475504 0.009311)
(0.021843 0.492315 0.008777)
(0.031459 0.540022 0.006430)
(0.038382 0.540231 0.003755)
(0.045196 0.536453 0.002940)
(0.054832 0.572805 0.001930)
(0.062318 0.583498 0.000480)
(0.070698 0.597840 -0.000612)
(0.080237 0.619236 -0.000986)
(0.102278 0.727058 -0.000682)
(0.119380 0.794363 -0.000834)
(0.122252 0.751721 -0.001011)
(0.132538 0.753585 -0.001062)
(0.145508 0.769172 -0.000927)
(0.157972 0.779172 -0.000800)
(0.172648 0.793000 -0.000750)
(0.199117 0.847192 -0.000736)
(0.206069 0.800145 -0.000579)
(0.131067 0.443024 -0.000359)
(-0.008266 -0.251738 -0.000227)
(0.301576 1.223066 -0.000166)
(-0.100507 0.137391 -0.000207)
(-0.093347 0.111781 -0.000263)
(0.022643 -0.041041 -0.000048)
(0.036288 -0.075348 -0.000013)
(0.002789 -0.028052 -0.000005)
(-0.020703 0.062644 0.000053)
(-0.023200 0.097820 0.000080)
(-0.024775 0.126517 -0.000089)
(-0.028698 0.164145 -0.000422)
(-0.031154 0.198548 -0.000016)
(-0.032892 0.230897 0.000458)
(-0.033067 0.254102 0.000565)
(-0.032823 0.275174 0.000693)
(-0.031733 0.290255 0.000839)
(-0.030138 0.302284 0.001270)
(-0.027984 0.310566 0.001783)
(-0.025624 0.320615 0.002097)
(-0.022347 0.319898 0.002389)
(-0.021702 0.381973 0.002630)
(-0.017120 0.363510 0.002041)
(-0.009211 0.296576 0.001115)
(-0.004829 0.301068 0.000632)
(0.000416 0.270047 0.000197)
(0.004711 0.230642 -0.000126)
(0.007806 0.191978 0.000443)
(0.011530 0.179800 0.001152)
(0.015804 0.174045 0.001168)
(0.019002 0.157477 0.001201)
(0.020732 0.136508 0.001245)
(0.024198 0.130084 0.000743)
(0.029548 0.135025 0.000260)
(0.027247 0.104647 0.000345)
(0.031748 0.075534 0.000426)
(0.041757 0.036947 0.000503)
(0.019511 -0.063335 0.000574)
(0.020211 -0.062393 0.000639)
(0.090315 0.124746 0.000699)
(0.044982 0.197224 0.000753)
(-0.069278 0.086651 0.000800)
(-0.169014 0.034551 0.000835)
(0.230102 1.481667 -0.000219)
(-0.192101 -0.236781 -0.000374)
(-0.068629 0.219886 -0.000461)
(0.060825 1.758556 -0.000461)
(0.089669 2.621164 -0.000461)
(0.080486 1.537224 -0.000461)
(0.142646 -0.301047 -0.000461)
(0.821009 10.452199 -0.000461)
(3.132526 50.046075 -0.000461)
(-78.693766 -3.715961 -0.000266)
(752.412115 -1308.098522 -0.000266)
(-94.773872 -13.932803 -0.000072)
(-702.724035 1026.986652 -0.000266)
(13.743896 474.426176 -0.000072)
(23.239672 242.541064 -0.000072)
(7.517218 83.795740 -0.000072)
(1.097877 9.407598 -0.000072)
(4.170841 13.041248 -0.000072)
(2.518622 6.639609 -0.000072)
(0.206243 0.300400 -0.000072)
(0.523694 1.053137 -0.000072)
(4.101433 7.659079 -0.000030)
(2.163386 4.457096 0.000012)
(-0.278030 0.243546 0.000012)
(2.635261 3.764192 0.000012)
(0.108696 1.145743 0.000012)
(0.923663 2.015316 0.000012)
(1.429186 1.906471 0.000012)
(0.365817 0.630246 0.000012)
(1.502796 1.529130 0.000012)
(1.225008 1.158255 0.000012)
(2.391282 1.810317 0.000012)
(5.508614 3.216225 0.000012)
(9.765637 5.353340 0.000012)
(4.094970 3.330230 0.000012)
(-9.802458 -2.442485 0.000012)
(1.280629 0.249793 0.000012)
(7.278153 2.463096 0.000012)
(-3.522192 -0.722945 0.000012)
(3.922546 0.044586 0.000012)
(9.034449 -0.054979 0.000012)
(18.732799 -1.184044 0.000012)
(65.414719 -6.728516 0.000012)
(51.490028 -14.812020 0.000012)
(-101.369263 9.488534 0.000012)
(-109.579170 38.929253 0.000012)
(-21.807632 7.606686 0.000012)
(-5.458532 -23.714517 0.000012)
(26.665326 -20.180107 0.000012)
(17.250703 -10.420013 0.000012)
(-1.074203 -0.917265 0.000012)
(-0.206518 -1.394145 0.000012)
(0.231446 -1.676700 0.000012)
(0.844825 -1.363281 0.000012)
(3.171645 -2.613550 0.000012)
(3.902193 -3.097524 0.000012)
(3.033142 -2.260558 0.000012)
(1.899504 -1.241082 0.000012)
(1.497587 -1.039311 0.000012)
(1.067671 -0.806108 0.000012)
(0.693351 -0.607489 0.000012)
(0.399519 -0.424759 0.000012)
(0.199768 -0.272293 -0.000030)
(0.075880 -0.154198 -0.000072)
(0.003902 -0.066901 -0.000072)
(-0.033628 -0.007248 -0.000072)
(-0.049520 0.030909 -0.000072)
(-0.052184 0.051796 -0.000072)
(-0.045912 0.050843 -0.000072)
(-0.035379 0.035280 -0.000072)
(-0.026437 0.021930 -0.000072)
(-159.851353 0.010340 -0.000266)
(159.818295 0.027453 -0.000461)
(0.008973 -0.089454 -0.000266)
(-0.009901 -0.032954 -0.000266)
(-0.044104 0.152332 -0.000461)
(-0.016774 0.136801 -0.000461)
(-0.007864 0.120358 -0.000461)
(-0.004433 0.109634 -0.000461)
(-0.002782 0.105309 -0.000461)
(-0.001195 0.102027 -0.000461)
(-0.001395 0.096784 -0.000461)
(0.007626 0.130764 -0.000309)
(-0.000789 0.102176 -0.000149)
)
;
    }
}
