/*--------------------------------*- C++ -*---------------------------------*\ 
| ========                 |                                                 | 
| \      /  F ield         | OpenFOAM: The Open Source CFD Toolbox           | 
|  \    /   O peration     | Version:  v1812                                 | 
|   \  /    A nd           | Web:      www.OpenFOAM.com                      | 
|    \/     M anipulation  |                                                 | 
\*--------------------------------------------------------------------------*/ 
FoamFile
{
    version     2.0;
    format      ascii;
    class       volVectorField;
    location    "/home/james/dafoam/myRuns/bezier_coanda_opt/0.00000000001/";
    object      sens_CL_shapey;
}
// * * * * * * * * * * * * * * * * * * * * * * * * * * * * * * * * * * * * * //

dimensions      [0 0 0 0 0 0 0];
internalField   uniform (0 0 0);
boundaryField
{
    allWalls
    {
        type  wall;
        value nonuniform List<vector>
164
(
(-0.422121 0.066438 0.000937)
(-0.405222 0.071415 0.001005)
(0.243451 -0.216873 0.001027)
(0.336317 -0.221862 0.001054)
(-0.038385 0.024658 0.001084)
(-0.075197 0.050441 0.001119)
(-0.111168 0.223936 0.001159)
(-0.118363 0.285793 0.001203)
(-0.072146 0.225669 0.001252)
(-0.055788 0.222536 0.001306)
(-0.040870 0.210421 0.002221)
(-0.032148 0.209067 0.003246)
(-0.025070 0.212032 0.003532)
(-0.020587 0.227748 0.003837)
(-0.015975 0.242165 0.004156)
(-0.011843 0.267234 0.004477)
(-0.007416 0.299938 0.005919)
(-0.002168 0.350839 0.007704)
(0.005012 0.430575 0.008692)
(0.013995 0.476699 0.009245)
(0.022615 0.492100 0.008698)
(0.032038 0.539621 0.006361)
(0.039457 0.549864 0.003690)
(0.044999 0.534494 0.002872)
(0.054777 0.573383 0.001882)
(0.063044 0.595990 0.000449)
(0.070222 0.601596 -0.000625)
(0.080351 0.630645 -0.000988)
(0.092059 0.665588 -0.000676)
(0.115825 0.781549 -0.000820)
(0.129529 0.821398 -0.001007)
(0.129921 0.760791 -0.001072)
(0.140557 0.765444 -0.000935)
(0.153227 0.780491 -0.000808)
(0.167168 0.794669 -0.000758)
(0.191578 0.845670 -0.000746)
(0.198700 0.802839 -0.000585)
(0.131381 0.468026 -0.000371)
(0.003990 -0.189022 -0.000246)
(0.286470 1.194362 -0.000185)
(-0.102883 0.141532 -0.000212)
(-0.092265 0.109001 -0.000269)
(0.027430 -0.057172 -0.000060)
(0.038343 -0.085550 -0.000027)
(0.000387 -0.021541 -0.000020)
(-0.021809 0.066568 0.000037)
(-0.022656 0.094364 0.000063)
(-0.024291 0.123633 -0.000109)
(-0.028475 0.162863 -0.000442)
(-0.030879 0.197115 -0.000039)
(-0.032569 0.229123 0.000434)
(-0.032767 0.252346 0.000541)
(-0.032559 0.273554 0.000669)
(-0.031500 0.288802 0.000815)
(-0.029935 0.301005 0.001242)
(-0.027812 0.309424 0.001744)
(-0.025487 0.319655 0.002046)
(-0.022236 0.318981 0.002324)
(-0.021628 0.381342 0.002551)
(-0.017080 0.362873 0.001981)
(-0.009202 0.295779 0.001084)
(-0.004860 0.300237 0.000605)
(0.000359 0.269652 0.000171)
(0.004632 0.230491 -0.000152)
(0.007707 0.191448 0.000439)
(0.011444 0.179718 0.001160)
(0.015555 0.172571 0.001152)
(0.019174 0.159105 0.001163)
(0.021565 0.141966 0.001186)
(0.023051 0.125139 0.000723)
(0.028521 0.130260 0.000290)
(0.027867 0.107316 0.000375)
(0.031539 0.075593 0.000457)
(0.041434 0.037243 0.000533)
(0.019451 -0.062286 0.000604)
(0.019365 -0.063426 0.000670)
(0.088997 0.120087 0.000730)
(0.046884 0.191579 0.000784)
(-0.062912 0.081998 0.000831)
(-0.146278 0.029770 0.000866)
(0.214247 1.444328 -0.000230)
(-0.178169 -0.168777 -0.000381)
(-0.062887 0.271634 -0.000472)
(0.060429 1.777120 -0.000472)
(0.089195 2.648145 -0.000472)
(0.080612 1.600939 -0.000472)
(0.140682 -0.191858 -0.000472)
(0.811784 10.593190 -0.000472)
(3.100989 49.956650 -0.000472)
(-79.443741 -3.045746 -0.000273)
(774.752320 -1325.174096 -0.000472)
(-95.419537 -14.198184 -0.000273)
(-724.661695 1038.127465 -0.000273)
(14.585291 488.452829 -0.000073)
(24.033394 247.036982 -0.000073)
(7.983151 85.758113 -0.000073)
(1.260538 10.162150 -0.000073)
(4.212617 13.127638 -0.000073)
(2.529507 6.698766 -0.000073)
(0.085234 -0.032835 -0.000073)
(0.467860 0.886084 -0.000073)
(4.097279 7.625352 -0.000031)
(2.087024 4.338735 0.000011)
(-0.334491 0.189606 0.000011)
(2.696467 3.861275 0.000011)
(0.145880 1.206495 0.000011)
(0.919724 2.037449 0.000011)
(1.338591 1.812351 0.000011)
(0.282151 0.536062 0.000011)
(1.475109 1.480403 0.000011)
(1.243901 1.147012 0.000011)
(2.539050 1.880762 0.000011)
(5.810114 3.358561 0.000011)
(10.216775 5.607522 0.000011)
(3.522296 3.171756 0.000011)
(-10.986262 -2.910267 0.000011)
(1.470650 0.261445 0.000011)
(6.903541 2.391498 0.000011)
(-4.898355 -1.046647 0.000011)
(2.910622 -0.134818 0.000011)
(8.456169 -0.190485 0.000011)
(18.244951 -1.310192 0.000011)
(62.982867 -6.990112 0.000011)
(45.134445 -14.412180 0.000011)
(-98.283105 11.935844 0.000011)
(-101.662524 39.488954 0.000011)
(-20.908708 5.633460 0.000011)
(-3.497007 -24.715910 0.000011)
(27.200446 -20.137080 0.000011)
(15.639161 -9.833015 0.000011)
(-1.644282 -0.892621 0.000011)
(-0.140521 -1.600961 0.000011)
(0.214935 -1.656030 0.000011)
(0.869796 -1.314624 0.000011)
(3.280627 -2.632051 0.000011)
(4.016707 -3.133209 0.000011)
(3.032776 -2.206057 0.000011)
(1.864530 -1.186147 0.000011)
(1.503852 -1.043582 0.000011)
(1.054192 -0.792072 0.000011)
(0.670974 -0.585204 0.000011)
(0.382568 -0.410243 0.000011)
(0.187061 -0.262588 -0.000031)
(0.066171 -0.146520 -0.000073)
(-0.002669 -0.061515 -0.000073)
(-0.037490 -0.004031 -0.000073)
(-0.051456 0.032609 -0.000073)
(-0.052942 0.052822 -0.000073)
(-0.046039 0.051703 -0.000073)
(-0.035143 0.036153 -0.000073)
(-0.026006 0.022831 -0.000073)
(-159.850502 0.010959 -0.000273)
(159.818552 0.028061 -0.000273)
(0.011270 -0.079876 -0.000073)
(-0.005407 -0.024068 -0.000273)
(-0.040716 0.152224 -0.000472)
(-0.016097 0.136966 -0.000472)
(-0.007863 0.120153 -0.000472)
(-0.004641 0.109850 -0.000472)
(-0.003034 0.106078 -0.000472)
(-0.001391 0.103427 -0.000472)
(-0.001690 0.098476 -0.000472)
(0.007343 0.134341 -0.000317)
(-0.002718 0.107422 -0.000152)
)
;
    }
}
