/*--------------------------------*- C++ -*---------------------------------*\ 
| ========                 |                                                 | 
| \      /  F ield         | OpenFOAM: The Open Source CFD Toolbox           | 
|  \    /   O peration     | Version:  v1812                                 | 
|   \  /    A nd           | Web:      www.OpenFOAM.com                      | 
|    \/     M anipulation  |                                                 | 
\*--------------------------------------------------------------------------*/ 
FoamFile
{
    version     2.0;
    format      ascii;
    class       volVectorField;
    location    "/home/james/dafoam/myRuns/bezier_coanda_opt/0.00000000001/";
    object      sens_CL_shapey;
}
// * * * * * * * * * * * * * * * * * * * * * * * * * * * * * * * * * * * * * //

dimensions      [0 0 0 0 0 0 0];
internalField   uniform (0 0 0);
boundaryField
{
    allWalls
    {
        type  wall;
        value nonuniform List<vector>
164
(
(-0.490195 0.074905 0.000908)
(-0.409216 0.060799 0.000979)
(0.343652 -0.282232 0.000999)
(0.398741 -0.275616 0.001023)
(-0.052434 0.037253 0.001052)
(-0.098624 0.079689 0.001084)
(-0.119736 0.239399 0.001121)
(-0.120598 0.290922 0.001162)
(-0.073932 0.228576 0.001208)
(-0.056807 0.222788 0.001258)
(-0.041959 0.211427 0.002207)
(-0.033060 0.208594 0.003257)
(-0.025831 0.211131 0.003524)
(-0.021501 0.227153 0.003810)
(-0.016859 0.241235 0.004108)
(-0.012841 0.266139 0.004408)
(-0.008440 0.298449 0.005897)
(-0.003342 0.348061 0.007745)
(0.003703 0.427341 0.008746)
(0.012675 0.475072 0.009318)
(0.021629 0.492119 0.008787)
(0.031294 0.539732 0.006444)
(0.038241 0.539425 0.003769)
(0.045080 0.535184 0.002954)
(0.054712 0.570842 0.001944)
(0.062281 0.581646 0.000491)
(0.070803 0.596472 -0.000617)
(0.081358 0.624585 -0.000992)
(0.104737 0.742950 -0.000673)
(0.119406 0.792099 -0.000825)
(0.120351 0.733388 -0.001002)
(0.132768 0.748326 -0.001055)
(0.146834 0.769917 -0.000922)
(0.159212 0.778558 -0.000798)
(0.174027 0.792087 -0.000748)
(0.201060 0.847210 -0.000734)
(0.207990 0.799217 -0.000581)
(0.130830 0.436005 -0.000354)
(-0.011878 -0.269446 -0.000211)
(0.305992 1.232293 -0.000149)
(-0.100271 0.136507 -0.000211)
(-0.093916 0.112746 -0.000262)
(0.021599 -0.037176 -0.000040)
(0.036037 -0.073375 -0.000004)
(0.003597 -0.030428 0.000002)
(-0.020271 0.060774 0.000061)
(-0.023130 0.097347 0.000086)
(-0.024685 0.125775 -0.000080)
(-0.028589 0.163163 -0.000411)
(-0.031089 0.197752 -0.000006)
(-0.032859 0.230310 0.000461)
(-0.033044 0.253655 0.000563)
(-0.032811 0.274885 0.000687)
(-0.031734 0.290085 0.000828)
(-0.030140 0.302138 0.001269)
(-0.027991 0.310477 0.001794)
(-0.025637 0.320590 0.002108)
(-0.022357 0.319867 0.002400)
(-0.021718 0.382113 0.002639)
(-0.017130 0.363608 0.002049)
(-0.009208 0.296592 0.001120)
(-0.004823 0.301285 0.000635)
(0.000429 0.270189 0.000199)
(0.004734 0.230769 -0.000125)
(0.007831 0.192120 0.000449)
(0.011563 0.179935 0.001161)
(0.015845 0.174207 0.001171)
(0.019042 0.157566 0.001198)
(0.020772 0.136597 0.001236)
(0.024207 0.130070 0.000736)
(0.029599 0.135179 0.000258)
(0.027266 0.104709 0.000344)
(0.031841 0.075606 0.000425)
(0.041908 0.036946 0.000501)
(0.019502 -0.063875 0.000572)
(0.020400 -0.062406 0.000638)
(0.090804 0.126170 0.000697)
(0.044581 0.199257 0.000751)
(-0.071134 0.088171 0.000798)
(-0.175850 0.035920 0.000833)
(0.234751 1.493269 -0.000215)
(-0.196110 -0.256466 -0.000377)
(-0.070275 0.205032 -0.000460)
(0.060953 1.754214 -0.000460)
(0.089822 2.614698 -0.000460)
(0.080454 1.519416 -0.000460)
(0.143203 -0.333110 -0.000460)
(0.823861 10.415547 -0.000460)
(3.143085 50.092443 -0.000460)
(-78.499300 -4.034398 -0.000265)
(745.884077 -1303.086402 -0.000265)
(-94.607659 -14.149744 -0.000071)
(-696.330525 1023.777200 -0.000265)
(13.526132 470.519903 -0.000071)
(23.025716 241.193029 -0.000071)
(7.402628 83.256626 -0.000071)
(1.064719 9.244507 -0.000071)
(4.161866 13.020209 -0.000071)
(2.519535 6.633799 -0.000071)
(0.242097 0.397968 -0.000071)
(0.541677 1.106010 -0.000071)
(4.102954 7.669848 -0.000029)
(2.186863 4.494442 0.000012)
(-0.255808 0.268971 0.000012)
(2.622928 3.744721 0.000012)
(0.091081 1.121262 0.000012)
(0.934765 2.018341 0.000012)
(1.547515 2.017673 0.000012)
(0.449620 0.713232 0.000012)
(1.207041 1.323022 0.000012)
(0.908267 0.930946 0.000012)
(2.941624 2.130673 0.000012)
(5.318118 3.166835 0.000012)
(9.633444 5.231717 0.000012)
(4.311641 3.439977 0.000012)
(-9.631505 -2.404510 0.000012)
(1.340648 0.305378 0.000012)
(7.258810 2.434783 0.000012)
(-3.102073 -0.612662 0.000012)
(4.078013 0.069601 0.000012)
(9.213887 -0.012468 0.000012)
(18.827924 -1.151399 0.000012)
(66.031416 -6.637737 0.000012)
(53.081593 -14.874909 0.000012)
(-101.835058 8.858647 0.000012)
(-111.327692 38.710591 0.000012)
(-21.968579 8.083443 0.000012)
(-5.889163 -23.434717 0.000012)
(26.408706 -20.177301 0.000012)
(17.424628 -10.530181 0.000012)
(-1.102770 -0.907459 0.000012)
(-0.266333 -1.357943 0.000012)
(0.222232 -1.691271 0.000012)
(0.830296 -1.376744 0.000012)
(3.141398 -2.607036 0.000012)
(3.885196 -3.094570 0.000012)
(3.031684 -2.267728 0.000012)
(1.903517 -1.250396 0.000012)
(1.504556 -1.049430 0.000012)
(1.071784 -0.812477 0.000012)
(0.696420 -0.611591 0.000012)
(0.402410 -0.427920 0.000012)
(0.202530 -0.274680 -0.000029)
(0.078248 -0.155733 -0.000071)
(0.005738 -0.067682 -0.000071)
(-0.032282 -0.007433 -0.000071)
(-0.048538 0.031154 -0.000071)
(-0.051439 0.052322 -0.000071)
(-0.045305 0.051466 -0.000071)
(-0.034823 0.035834 -0.000071)
(-0.025898 0.022394 -0.000071)
(-159.851095 0.010643 -0.000265)
(159.818793 0.027787 -0.000460)
(0.012378 -0.088327 -0.000265)
(-0.005602 -0.030726 -0.000265)
(-0.042482 0.154238 -0.000460)
(-0.016118 0.137625 -0.000460)
(-0.007538 0.120909 -0.000460)
(-0.004241 0.109980 -0.000460)
(-0.002663 0.105522 -0.000460)
(-0.001130 0.102106 -0.000460)
(-0.001327 0.096879 -0.000460)
(0.007676 0.130672 -0.000313)
(-0.000350 0.101230 -0.000158)
)
;
    }
}
