/*--------------------------------*- C++ -*---------------------------------*\ 
| ========                 |                                                 | 
| \      /  F ield         | OpenFOAM: The Open Source CFD Toolbox           | 
|  \    /   O peration     | Version:  v1812                                 | 
|   \  /    A nd           | Web:      www.OpenFOAM.com                      | 
|    \/     M anipulation  |                                                 | 
\*--------------------------------------------------------------------------*/ 
FoamFile
{
    version     2.0;
    format      ascii;
    class       volVectorField;
    location    "/home/james/dafoam/myRuns/bezier_coanda_opt/0.00000000001/";
    object      sens_CL_shapey;
}
// * * * * * * * * * * * * * * * * * * * * * * * * * * * * * * * * * * * * * //

dimensions      [0 0 0 0 0 0 0];
internalField   uniform (0 0 0);
boundaryField
{
    allWalls
    {
        type  wall;
        value nonuniform List<vector>
164
(
(-0.491388 0.075047 0.000908)
(-0.409107 0.060539 0.000979)
(0.345386 -0.283373 0.000999)
(0.399692 -0.276502 0.001023)
(-0.052555 0.037303 0.001052)
(-0.099005 0.080180 0.001084)
(-0.120020 0.239930 0.001121)
(-0.120653 0.291009 0.001162)
(-0.073928 0.228510 0.001208)
(-0.056843 0.222866 0.001258)
(-0.041982 0.211453 0.002206)
(-0.033071 0.208569 0.003257)
(-0.025846 0.211125 0.003524)
(-0.021516 0.227143 0.003809)
(-0.016875 0.241225 0.004107)
(-0.012857 0.266121 0.004408)
(-0.008458 0.298429 0.005897)
(-0.003361 0.348019 0.007745)
(0.003681 0.427293 0.008747)
(0.012654 0.475047 0.009318)
(0.021612 0.492113 0.008788)
(0.031282 0.539729 0.006445)
(0.038232 0.539391 0.003772)
(0.045075 0.535133 0.002957)
(0.054709 0.570759 0.001945)
(0.062285 0.581565 0.000492)
(0.070817 0.596417 -0.000617)
(0.081378 0.624516 -0.000993)
(0.104771 0.742888 -0.000675)
(0.119459 0.792087 -0.000828)
(0.120408 0.733353 -0.001004)
(0.132833 0.748260 -0.001056)
(0.146919 0.769871 -0.000924)
(0.159320 0.778556 -0.000800)
(0.174132 0.791995 -0.000749)
(0.201208 0.847171 -0.000734)
(0.208153 0.799172 -0.000581)
(0.130816 0.435462 -0.000355)
(-0.012148 -0.270775 -0.000211)
(0.306336 1.232957 -0.000149)
(-0.100255 0.136439 -0.000212)
(-0.093967 0.112833 -0.000262)
(0.021515 -0.036855 -0.000040)
(0.036020 -0.073214 -0.000004)
(0.003668 -0.030625 0.000002)
(-0.020233 0.060619 0.000062)
(-0.023115 0.097273 0.000086)
(-0.024673 0.125702 -0.000081)
(-0.028580 0.163096 -0.000413)
(-0.031075 0.197647 -0.000007)
(-0.032852 0.230242 0.000462)
(-0.033042 0.253618 0.000564)
(-0.032807 0.274831 0.000688)
(-0.031732 0.290053 0.000829)
(-0.030141 0.302120 0.001270)
(-0.027990 0.310448 0.001796)
(-0.025638 0.320583 0.002111)
(-0.022357 0.319860 0.002404)
(-0.021718 0.382115 0.002646)
(-0.017131 0.363615 0.002052)
(-0.009208 0.296589 0.001120)
(-0.004822 0.301301 0.000635)
(0.000431 0.270201 0.000199)
(0.004736 0.230779 -0.000125)
(0.007833 0.192134 0.000449)
(0.011565 0.179945 0.001161)
(0.015848 0.174217 0.001171)
(0.019047 0.157582 0.001198)
(0.020775 0.136602 0.001236)
(0.024209 0.130074 0.000736)
(0.029599 0.135176 0.000258)
(0.027265 0.104703 0.000344)
(0.031856 0.075639 0.000425)
(0.041922 0.036947 0.000501)
(0.019496 -0.063936 0.000572)
(0.020412 -0.062419 0.000638)
(0.090845 0.126288 0.000697)
(0.044552 0.199425 0.000751)
(-0.071288 0.088292 0.000798)
(-0.176420 0.036028 0.000833)
(0.235107 1.494103 -0.000215)
(-0.196417 -0.257949 -0.000378)
(-0.070401 0.203883 -0.000460)
(0.060964 1.753845 -0.000460)
(0.089836 2.614182 -0.000460)
(0.080456 1.518043 -0.000460)
(0.143255 -0.335552 -0.000460)
(0.824096 10.412751 -0.000460)
(3.143905 50.096034 -0.000460)
(-78.484795 -4.060102 -0.000265)
(745.371517 -1302.693709 -0.000265)
(-94.594799 -14.168422 -0.000071)
(-695.828053 1023.527569 -0.000265)
(13.508817 470.211963 -0.000071)
(23.008874 241.086514 -0.000071)
(7.393663 83.214180 -0.000071)
(1.062226 9.231964 -0.000071)
(4.161187 13.018405 -0.000071)
(2.519613 6.633109 -0.000071)
(0.244935 0.405551 -0.000071)
(0.543050 1.110024 -0.000071)
(4.103032 7.670604 -0.000029)
(2.188607 4.497246 0.000012)
(-0.254389 0.270538 0.000012)
(2.621654 3.742870 0.000012)
(0.090232 1.119976 0.000012)
(0.934979 2.018011 0.000012)
(1.549698 2.019925 0.000012)
(0.451455 0.715238 0.000012)
(1.207262 1.323725 0.000012)
(0.907521 0.930902 0.000012)
(2.939025 2.129456 0.000012)
(5.311432 3.163707 0.000012)
(9.622975 5.225857 0.000012)
(4.322713 3.442783 0.000012)
(-9.605696 -2.394560 0.000012)
(1.336589 0.305161 0.000012)
(7.265184 2.435762 0.000012)
(-3.073514 -0.605951 0.000012)
(4.095624 0.072933 0.000012)
(9.222991 -0.009883 0.000012)
(18.839590 -1.148342 0.000012)
(66.080295 -6.630503 0.000012)
(53.211720 -14.879970 0.000012)
(-101.871718 8.808318 0.000012)
(-111.469772 38.693491 0.000012)
(-21.983530 8.121947 0.000012)
(-5.924222 -23.412451 0.000012)
(26.388382 -20.177532 0.000012)
(17.439015 -10.539358 0.000012)
(-1.105241 -0.906735 0.000012)
(-0.271389 -1.355068 0.000012)
(0.221329 -1.692507 0.000012)
(0.829075 -1.377892 0.000012)
(3.138959 -2.606540 0.000012)
(3.883846 -3.094361 0.000012)
(3.031782 -2.268551 0.000012)
(1.903842 -1.251188 0.000012)
(1.504910 -1.050030 0.000012)
(1.072097 -0.812943 0.000012)
(0.696693 -0.611921 0.000012)
(0.402675 -0.428170 0.000012)
(0.202788 -0.274869 -0.000029)
(0.078471 -0.155849 -0.000071)
(0.005912 -0.067732 -0.000071)
(-0.032153 -0.007433 -0.000071)
(-0.048442 0.031188 -0.000071)
(-0.051365 0.052378 -0.000071)
(-0.045244 0.051528 -0.000071)
(-0.034768 0.035889 -0.000071)
(-0.025845 0.022441 -0.000071)
(-159.851067 0.010675 -0.000265)
(159.818839 0.027820 -0.000460)
(0.012687 -0.088191 -0.000265)
(-0.005196 -0.030469 -0.000265)
(-0.042305 0.154450 -0.000460)
(-0.016038 0.137727 -0.000460)
(-0.007497 0.120978 -0.000460)
(-0.004216 0.110028 -0.000460)
(-0.002647 0.105555 -0.000460)
(-0.001120 0.102126 -0.000460)
(-0.001318 0.096900 -0.000460)
(0.007683 0.130682 -0.000314)
(-0.000311 0.101163 -0.000159)
)
;
    }
}
