/*--------------------------------*- C++ -*---------------------------------*\ 
| ========                 |                                                 | 
| \      /  F ield         | OpenFOAM: The Open Source CFD Toolbox           | 
|  \    /   O peration     | Version:  v1812                                 | 
|   \  /    A nd           | Web:      www.OpenFOAM.com                      | 
|    \/     M anipulation  |                                                 | 
\*--------------------------------------------------------------------------*/ 
FoamFile
{
    version     2.0;
    format      ascii;
    class       volVectorField;
    location    "/home/james/dafoam/myRuns/bezier_coanda_opt/0.00000000001/";
    object      sens_CL_shapey;
}
// * * * * * * * * * * * * * * * * * * * * * * * * * * * * * * * * * * * * * //

dimensions      [0 0 0 0 0 0 0];
internalField   uniform (0 0 0);
boundaryField
{
    allWalls
    {
        type  wall;
        value nonuniform List<vector>
164
(
(-0.373807 0.058502 0.000945)
(-0.363427 0.070361 0.001013)
(0.129062 -0.141931 0.001036)
(0.274799 -0.189521 0.001063)
(0.010308 -0.016033 0.001095)
(-0.080581 0.067864 0.001131)
(-0.110113 0.219070 0.001172)
(-0.109480 0.270295 0.001217)
(-0.070358 0.220906 0.001267)
(-0.053114 0.216514 0.001322)
(-0.040789 0.212707 0.002226)
(-0.031229 0.207493 0.003239)
(-0.024732 0.213277 0.003526)
(-0.019998 0.227251 0.003833)
(-0.015497 0.243001 0.004153)
(-0.011309 0.268033 0.004475)
(-0.006843 0.301347 0.005965)
(-0.001504 0.353536 0.007792)
(0.005811 0.433594 0.008762)
(0.014849 0.479247 0.009297)
(0.023263 0.492901 0.008741)
(0.032621 0.540227 0.006801)
(0.040316 0.556497 0.004183)
(0.045344 0.539085 0.002233)
(0.054966 0.577376 0.001139)
(0.063442 0.603045 0.000376)
(0.070315 0.607331 -0.000692)
(0.080300 0.637144 -0.001408)
(0.091728 0.672001 -0.001147)
(0.115107 0.788422 -0.000975)
(0.128406 0.827967 -0.001065)
(0.128555 0.767195 -0.000835)
(0.139054 0.773212 -0.000576)
(0.151387 0.788709 -0.000576)
(0.164020 0.799034 -0.000669)
(0.186122 0.843785 -0.000669)
(0.195483 0.813606 -0.000576)
(0.137034 0.509089 -0.000576)
(0.019794 -0.110812 -0.000296)
(0.267954 1.129255 -0.000274)
(-0.103839 0.143505 -0.000417)
(-0.090892 0.106210 -0.000250)
(0.030606 -0.068720 0.000032)
(0.039322 -0.091140 0.000061)
(-0.001899 -0.013208 0.000061)
(-0.022841 0.071234 0.000110)
(-0.022235 0.091648 0.000126)
(-0.023961 0.121431 0.000353)
(-0.028407 0.162219 -0.000103)
(-0.030791 0.196452 -0.000122)
(-0.032419 0.228095 0.000439)
(-0.032598 0.251209 0.000595)
(-0.032406 0.272540 0.000696)
(-0.031360 0.287873 0.000811)
(-0.029804 0.300092 0.001177)
(-0.027708 0.308593 0.001642)
(-0.025410 0.318880 0.001960)
(-0.022182 0.318231 0.002254)
(-0.021590 0.380448 0.002492)
(-0.017059 0.362136 0.001962)
(-0.009203 0.295254 0.001106)
(-0.004882 0.299432 0.000640)
(0.000313 0.269071 0.000221)
(0.004559 0.230023 -0.000090)
(0.007622 0.190916 0.000462)
(0.011339 0.179226 0.001137)
(0.015420 0.171968 0.001129)
(0.019036 0.158695 0.001139)
(0.021421 0.141552 0.001161)
(0.022967 0.124908 0.000713)
(0.028366 0.129796 0.000295)
(0.027767 0.107047 0.000381)
(0.031228 0.075381 0.000462)
(0.040942 0.037422 0.000539)
(0.019541 -0.060456 0.000610)
(0.018934 -0.063292 0.000676)
(0.087281 0.115643 0.000736)
(0.048307 0.185258 0.000790)
(-0.047075 0.078315 0.000838)
(-0.134788 0.024906 0.000873)
(0.195211 1.375601 -0.000554)
(-0.162426 -0.074156 -0.000522)
(-0.056774 0.337684 -0.000469)
(0.059520 1.788027 -0.000469)
(0.088338 2.669154 -0.000469)
(0.080824 1.681674 -0.000469)
(0.138367 -0.037929 -0.000469)
(0.798002 10.725821 -0.000469)
(3.046187 49.617713 -0.000469)
(-80.277734 -0.761451 -0.000272)
(810.752472 -1353.976086 -0.000272)
(-96.196387 -11.518904 -0.000076)
(-759.968242 1056.520174 -0.000272)
(15.658235 509.323330 -0.000076)
(25.130381 254.856147 -0.000076)
(8.511836 88.618459 -0.000076)
(1.364799 10.731093 -0.000076)
(4.250353 13.241677 -0.000076)
(2.510823 6.706691 -0.000076)
(-0.100710 -0.520793 -0.000076)
(0.365592 0.604659 -0.000076)
(4.095751 7.581809 -0.000033)
(1.987153 4.172998 0.000009)
(-0.456635 0.023630 0.000009)
(2.769982 3.935736 0.000009)
(0.195592 1.277424 0.000009)
(0.872466 2.023288 0.000009)
(1.184726 1.649993 0.000009)
(0.160688 0.403758 0.000009)
(1.428049 1.416838 0.000009)
(1.244197 1.120087 0.000009)
(2.689790 1.952634 0.000009)
(6.127604 3.506837 0.000009)
(10.754814 5.899409 0.000009)
(3.083230 3.083606 0.000009)
(-12.307589 -3.400885 0.000009)
(1.404427 0.192765 0.000009)
(6.499386 2.312634 0.000009)
(-6.386846 -1.386094 0.000009)
(1.893234 -0.326908 0.000009)
(7.847485 -0.334844 0.000009)
(17.437934 -1.492796 0.000009)
(61.106268 -7.406894 0.000009)
(39.785006 -14.382687 0.000009)
(-99.232147 14.266930 0.000009)
(-97.987697 40.935972 0.000009)
(-19.124334 4.291727 0.000009)
(0.375153 -25.762098 0.000009)
(30.011965 -20.150645 0.000009)
(15.947186 -9.565482 0.000009)
(-1.366585 -0.997826 0.000009)
(0.008336 -1.725546 0.000009)
(0.116364 -1.614204 0.000009)
(0.794983 -1.341225 0.000009)
(3.238163 -2.745394 0.000009)
(3.877423 -3.210299 0.000009)
(2.836950 -2.221471 0.000009)
(1.684764 -1.161755 0.000009)
(1.388131 -1.022187 0.000009)
(0.994505 -0.783344 0.000009)
(0.641731 -0.579146 0.000009)
(0.368661 -0.403160 0.000009)
(0.179244 -0.253310 -0.000033)
(0.061064 -0.136537 -0.000076)
(-0.005848 -0.052608 -0.000076)
(-0.039170 0.002968 -0.000076)
(-0.052072 0.037624 -0.000076)
(-0.052836 0.055993 -0.000076)
(-0.045468 0.053379 -0.000076)
(-0.034399 0.036934 -0.000076)
(-0.025312 0.023268 -0.000076)
(-159.849710 0.011285 -0.000272)
(159.819370 0.028383 -0.000469)
(0.011736 -0.072675 -0.000272)
(-0.004841 -0.018160 -0.000272)
(-0.039529 0.150620 -0.000469)
(-0.016034 0.136060 -0.000469)
(-0.007981 0.119217 -0.000469)
(-0.004799 0.109186 -0.000469)
(-0.003208 0.105670 -0.000469)
(-0.001546 0.103408 -0.000469)
(-0.001934 0.099055 -0.000469)
(0.007056 0.135952 -0.000522)
(-0.004084 0.110201 -0.000576)
)
;
    }
}
