/*--------------------------------*- C++ -*---------------------------------*\ 
| ========                 |                                                 | 
| \      /  F ield         | OpenFOAM: The Open Source CFD Toolbox           | 
|  \    /   O peration     | Version:  v1812                                 | 
|   \  /    A nd           | Web:      www.OpenFOAM.com                      | 
|    \/     M anipulation  |                                                 | 
\*--------------------------------------------------------------------------*/ 
FoamFile
{
    version     2.0;
    format      ascii;
    class       volVectorField;
    location    "/home/james/dafoam/myRuns/bezier_coanda_opt/0.00000000001/";
    object      sens_CL_shapey;
}
// * * * * * * * * * * * * * * * * * * * * * * * * * * * * * * * * * * * * * //

dimensions      [0 0 0 0 0 0 0];
internalField   uniform (0 0 0);
boundaryField
{
    allWalls
    {
        type  wall;
        value nonuniform List<vector>
164
(
(-0.470001 0.072693 0.000905)
(-0.413587 0.065905 0.000975)
(0.311708 -0.261641 0.000995)
(0.381949 -0.259191 0.001020)
(-0.052070 0.039276 0.001050)
(-0.088752 0.065140 0.001083)
(-0.110878 0.223392 0.001121)
(-0.121310 0.293527 0.001163)
(-0.073971 0.228961 0.001210)
(-0.056468 0.223695 0.001261)
(-0.041882 0.211888 0.002217)
(-0.032515 0.208200 0.003275)
(-0.025715 0.212411 0.003542)
(-0.021020 0.226605 0.003827)
(-0.016567 0.242164 0.004125)
(-0.012405 0.265975 0.004424)
(-0.008041 0.299126 0.005887)
(-0.002881 0.348584 0.007706)
(0.004207 0.428103 0.008696)
(0.013162 0.475248 0.009257)
(0.022078 0.492108 0.008721)
(0.031713 0.539575 0.006249)
(0.038598 0.539893 0.003533)
(0.045283 0.536450 0.002202)
(0.054975 0.574009 0.001243)
(0.062497 0.584670 0.000464)
(0.070727 0.598537 -0.000045)
(0.079968 0.619007 -0.000395)
(0.095925 0.681630 -0.000622)
(0.118200 0.785158 -0.000911)
(0.128143 0.795903 -0.001051)
(0.131999 0.757412 -0.000936)
(0.143035 0.763081 -0.000827)
(0.155842 0.776082 -0.000726)
(0.170332 0.790054 -0.000759)
(0.196635 0.845072 -0.000816)
(0.203730 0.799456 -0.000617)
(0.129584 0.443701 -0.000396)
(-0.008191 -0.248170 -0.000302)
(0.299436 1.226968 -0.000238)
(-0.100181 0.137768 -0.000125)
(-0.092617 0.110601 -0.000301)
(0.022592 -0.043493 -0.000098)
(0.035404 -0.074885 -0.000052)
(0.001232 -0.023226 -0.000048)
(-0.021805 0.066881 0.000027)
(-0.024021 0.101035 0.000049)
(-0.025615 0.130076 -0.000101)
(-0.029327 0.167857 -0.000354)
(-0.031492 0.201973 0.000184)
(-0.033099 0.233911 0.000568)
(-0.033175 0.256764 0.000458)
(-0.032863 0.277496 0.000577)
(-0.031716 0.292186 0.000714)
(-0.030076 0.303832 0.001230)
(-0.027884 0.311810 0.001825)
(-0.025505 0.321617 0.002127)
(-0.022225 0.320759 0.002409)
(-0.021561 0.382128 0.002644)
(-0.017057 0.363802 0.002027)
(-0.009231 0.297180 0.001075)
(-0.004829 0.301064 0.000595)
(0.000410 0.269960 0.000164)
(0.004696 0.230514 -0.000156)
(0.007789 0.191867 0.000439)
(0.011504 0.179666 0.001170)
(0.015770 0.173898 0.001180)
(0.018965 0.157386 0.001207)
(0.020711 0.136496 0.001246)
(0.024198 0.130114 0.000738)
(0.029519 0.134854 0.000253)
(0.027282 0.104632 0.000339)
(0.031727 0.075522 0.000421)
(0.041716 0.037204 0.000497)
(0.019691 -0.062220 0.000568)
(0.020280 -0.061641 0.000634)
(0.089937 0.123479 0.000694)
(0.045462 0.195500 0.000748)
(-0.067545 0.086165 0.000796)
(-0.165431 0.034233 0.000831)
(0.228305 1.484344 -0.000269)
(-0.190581 -0.233229 -0.000392)
(-0.068082 0.223644 -0.000469)
(0.060565 1.761498 -0.000469)
(0.089271 2.624020 -0.000469)
(0.079943 1.539916 -0.000469)
(0.141725 -0.298496 -0.000469)
(0.819331 10.461493 -0.000469)
(3.129774 50.054048 -0.000469)
(-78.705754 -4.025554 -0.000270)
(752.128847 -1306.816242 -0.000469)
(-94.743269 -14.801723 -0.000270)
(-702.529459 1026.050081 -0.000270)
(13.838689 474.894143 -0.000072)
(23.290204 242.273574 -0.000072)
(7.585559 83.851868 -0.000072)
(1.144389 9.596652 -0.000072)
(4.175265 13.035648 -0.000072)
(2.526054 6.659322 -0.000072)
(0.200066 0.278075 -0.000072)
(0.524988 1.051383 -0.000072)
(4.094039 7.644016 -0.000029)
(2.150814 4.439630 0.000014)
(-0.275471 0.255934 0.000014)
(2.639678 3.781502 0.000014)
(0.113788 1.155623 0.000014)
(0.929184 2.024148 0.000014)
(1.419802 1.898177 0.000014)
(0.354558 0.618291 0.000014)
(1.495600 1.519013 0.000014)
(1.227010 1.156189 0.000014)
(2.411686 1.819575 0.000014)
(5.549448 3.235484 0.000014)
(9.813080 5.384049 0.000014)
(3.940778 3.276664 0.000014)
(-10.002531 -2.529604 0.000014)
(1.342001 0.259757 0.000014)
(7.167278 2.437733 0.000014)
(-3.788994 -0.787858 0.000014)
(3.736891 0.011029 0.000014)
(8.912844 -0.082468 0.000014)
(18.491956 -1.212909 0.000014)
(64.330284 -6.761449 0.000014)
(49.610754 -14.631023 0.000014)
(-99.929375 9.986657 0.000014)
(-106.963436 38.779870 0.000014)
(-21.532205 7.089229 0.000014)
(-5.052477 -23.768450 0.000014)
(26.637850 -20.013467 0.000014)
(16.907535 -10.231677 0.000014)
(-1.068807 -0.922896 0.000014)
(-0.170765 -1.422464 0.000014)
(0.225677 -1.657265 0.000014)
(0.844523 -1.347892 0.000014)
(3.167739 -2.606286 0.000014)
(3.880479 -3.084525 0.000014)
(3.001302 -2.243074 0.000014)
(1.872919 -1.231658 0.000014)
(1.473314 -1.033737 0.000014)
(1.046665 -0.803720 0.000014)
(0.675388 -0.607776 0.000014)
(0.383993 -0.426682 0.000014)
(0.185851 -0.276161 -0.000029)
(0.063666 -0.159180 -0.000072)
(-0.006257 -0.071292 -0.000072)
(-0.041937 -0.011193 -0.000072)
(-0.056301 0.027348 -0.000072)
(-0.057852 0.048914 -0.000072)
(-0.050760 0.048574 -0.000072)
(-0.039441 0.033337 -0.000072)
(-0.029831 0.020309 -0.000072)
(-159.853506 0.009344 -0.000270)
(159.816090 0.026722 -0.000270)
(-0.004471 -0.098115 -0.000072)
(-0.027665 -0.047332 -0.000270)
(-0.052466 0.142487 -0.000469)
(-0.020498 0.130632 -0.000469)
(-0.009849 0.116249 -0.000469)
(-0.005620 0.107131 -0.000469)
(-0.003558 0.103265 -0.000469)
(-0.001715 0.100292 -0.000469)
(-0.001771 0.095006 -0.000469)
(0.007344 0.128501 -0.000334)
(-0.001341 0.101725 -0.000065)
)
;
    }
}
