/*--------------------------------*- C++ -*---------------------------------*\ 
| ========                 |                                                 | 
| \      /  F ield         | OpenFOAM: The Open Source CFD Toolbox           | 
|  \    /   O peration     | Version:  v1812                                 | 
|   \  /    A nd           | Web:      www.OpenFOAM.com                      | 
|    \/     M anipulation  |                                                 | 
\*--------------------------------------------------------------------------*/ 
FoamFile
{
    version     2.0;
    format      ascii;
    class       volVectorField;
    location    "/home/james/dafoam/myRuns/bezier_coanda_opt/0.00000000001/";
    object      sens_CL_shapey;
}
// * * * * * * * * * * * * * * * * * * * * * * * * * * * * * * * * * * * * * //

dimensions      [0 0 0 0 0 0 0];
internalField   uniform (0 0 0);
boundaryField
{
    allWalls
    {
        type  wall;
        value nonuniform List<vector>
164
(
(-0.463350 0.071882 0.000905)
(-0.413663 0.067081 0.000975)
(0.301938 -0.255237 0.000996)
(0.376251 -0.254056 0.001021)
(-0.051183 0.038762 0.001051)
(-0.086624 0.062410 0.001084)
(-0.109393 0.220610 0.001122)
(-0.120982 0.292945 0.001164)
(-0.073942 0.229174 0.001211)
(-0.056297 0.223385 0.001262)
(-0.041773 0.211846 0.002215)
(-0.032435 0.208277 0.003270)
(-0.025622 0.212435 0.003540)
(-0.020929 0.226663 0.003828)
(-0.016468 0.242209 0.004129)
(-0.012302 0.266052 0.004431)
(-0.007931 0.299229 0.005894)
(-0.002761 0.348798 0.007710)
(0.004342 0.428294 0.008696)
(0.013292 0.475265 0.009251)
(0.022176 0.492003 0.008712)
(0.031776 0.539445 0.006241)
(0.038787 0.541874 0.003528)
(0.045118 0.534804 0.002198)
(0.054888 0.573118 0.001243)
(0.062647 0.587057 0.000469)
(0.070588 0.598412 -0.000037)
(0.080126 0.621576 -0.000384)
(0.094592 0.674112 -0.000609)
(0.117598 0.782910 -0.000905)
(0.128940 0.803993 -0.001055)
(0.131457 0.757181 -0.000940)
(0.142299 0.762244 -0.000831)
(0.155121 0.775918 -0.000730)
(0.169516 0.790030 -0.000761)
(0.195549 0.844749 -0.000816)
(0.202611 0.799610 -0.000619)
(0.129463 0.446830 -0.000399)
(-0.006525 -0.239234 -0.000302)
(0.297561 1.224531 -0.000238)
(-0.099994 0.137815 -0.000125)
(-0.092132 0.109826 -0.000301)
(0.022840 -0.045077 -0.000099)
(0.035187 -0.075051 -0.000052)
(0.000584 -0.020990 -0.000048)
(-0.022213 0.068767 0.000027)
(-0.024251 0.102204 0.000049)
(-0.025858 0.131439 -0.000104)
(-0.029575 0.169419 -0.000358)
(-0.031691 0.203362 0.000181)
(-0.033258 0.235106 0.000566)
(-0.033303 0.257806 0.000456)
(-0.032960 0.278364 0.000575)
(-0.031797 0.292946 0.000711)
(-0.030130 0.304413 0.001229)
(-0.027923 0.312294 0.001825)
(-0.025535 0.322006 0.002124)
(-0.022247 0.321084 0.002403)
(-0.021567 0.382150 0.002634)
(-0.017058 0.363883 0.002021)
(-0.009238 0.297400 0.001075)
(-0.004828 0.301031 0.000599)
(0.000406 0.269837 0.000170)
(0.004690 0.230458 -0.000147)
(0.007767 0.191612 0.000442)
(0.011508 0.179750 0.001165)
(0.015624 0.172687 0.001173)
(0.019207 0.158914 0.001198)
(0.021630 0.142031 0.001234)
(0.023044 0.124998 0.000732)
(0.028603 0.130268 0.000254)
(0.028073 0.107699 0.000340)
(0.031692 0.075479 0.000421)
(0.041682 0.037316 0.000498)
(0.019844 -0.061489 0.000569)
(0.020321 -0.061209 0.000635)
(0.089641 0.122713 0.000695)
(0.045564 0.194263 0.000749)
(-0.066660 0.085429 0.000796)
(-0.162371 0.033641 0.000831)
(0.226158 1.479142 -0.000271)
(-0.188799 -0.226674 -0.000394)
(-0.067423 0.228248 -0.000469)
(0.060305 1.762837 -0.000469)
(0.089010 2.626901 -0.000469)
(0.079746 1.547758 -0.000469)
(0.141196 -0.284670 -0.000469)
(0.817557 10.474856 -0.000469)
(3.124124 50.024312 -0.000469)
(-78.764578 -3.944635 -0.000270)
(754.439299 -1308.231697 -0.000469)
(-94.773316 -14.857152 -0.000270)
(-704.812552 1026.887522 -0.000270)
(13.935989 476.399554 -0.000072)
(23.377340 242.698921 -0.000072)
(7.640834 84.052136 -0.000072)
(1.165354 9.689321 -0.000072)
(4.177912 13.035007 -0.000072)
(2.525622 6.658972 -0.000072)
(0.184426 0.233691 -0.000072)
(0.516947 1.027750 -0.000072)
(4.090231 7.633675 -0.000029)
(2.139306 4.421578 0.000014)
(-0.282290 0.249964 0.000014)
(2.644344 3.791129 0.000014)
(0.115834 1.160257 0.000014)
(0.927674 2.025344 0.000014)
(1.408076 1.886164 0.000014)
(0.343196 0.605866 0.000014)
(1.490410 1.511427 0.000014)
(1.228356 1.153906 0.000014)
(2.429210 1.827331 0.000014)
(5.586373 3.252319 0.000014)
(9.869592 5.415583 0.000014)
(3.864910 3.254834 0.000014)
(-10.156514 -2.591407 0.000014)
(1.366047 0.259957 0.000014)
(7.114494 2.426002 0.000014)
(-3.967892 -0.830969 0.000014)
(3.621751 -0.010267 0.000014)
(8.853933 -0.097773 0.000014)
(18.394002 -1.231164 0.000014)
(63.912392 -6.799996 0.000014)
(48.704222 -14.575510 0.000014)
(-99.496706 10.306733 0.000014)
(-105.886190 38.837808 0.000014)
(-21.437501 6.827389 0.000014)
(-4.822845 -23.879887 0.000014)
(26.729036 -19.988544 0.000014)
(16.793561 -10.161746 0.000014)
(-1.053211 -0.927621 0.000014)
(-0.140089 -1.439473 0.000014)
(0.230271 -1.647473 0.000014)
(0.851442 -1.339383 0.000014)
(3.179484 -2.606368 0.000014)
(3.884660 -3.082942 0.000014)
(2.997093 -2.236207 0.000014)
(1.867883 -1.225617 0.000014)
(1.468765 -1.029296 0.000014)
(1.043017 -0.800360 0.000014)
(0.672660 -0.605328 0.000014)
(0.382080 -0.424922 0.000014)
(0.184546 -0.275098 -0.000029)
(0.062848 -0.158953 -0.000072)
(-0.006804 -0.071762 -0.000072)
(-0.042432 -0.012042 -0.000072)
(-0.056828 0.026333 -0.000072)
(-0.058410 0.047813 -0.000072)
(-0.051353 0.047496 -0.000072)
(-0.040084 0.032375 -0.000072)
(-0.030505 0.019445 -0.000072)
(-159.853951 0.008743 -0.000270)
(159.815525 0.026091 -0.000270)
(-0.008303 -0.101372 -0.000072)
(-0.033446 -0.052715 -0.000270)
(-0.055800 0.138599 -0.000469)
(-0.022016 0.128594 -0.000469)
(-0.010661 0.114896 -0.000469)
(-0.006106 0.106133 -0.000469)
(-0.003861 0.102446 -0.000469)
(-0.001906 0.099592 -0.000469)
(-0.001906 0.094276 -0.000469)
(0.007238 0.127607 -0.000336)
(-0.001577 0.101602 -0.000067)
)
;
    }
}
