/*--------------------------------*- C++ -*---------------------------------*\ 
| ========                 |                                                 | 
| \      /  F ield         | OpenFOAM: The Open Source CFD Toolbox           | 
|  \    /   O peration     | Version:  v1812                                 | 
|   \  /    A nd           | Web:      www.OpenFOAM.com                      | 
|    \/     M anipulation  |                                                 | 
\*--------------------------------------------------------------------------*/ 
FoamFile
{
    version     2.0;
    format      ascii;
    class       volVectorField;
    location    "/home/james/dafoam/myRuns/bezier_coanda_opt/0.00000000001/";
    object      sens_CL_shapey;
}
// * * * * * * * * * * * * * * * * * * * * * * * * * * * * * * * * * * * * * //

dimensions      [0 0 0 0 0 0 0];
internalField   uniform (0 0 0);
boundaryField
{
    allWalls
    {
        type  wall;
        value nonuniform List<vector>
164
(
(-0.469484 0.072425 0.000906)
(-0.409824 0.064730 0.000976)
(0.313512 -0.262282 0.000996)
(0.380853 -0.259240 0.001021)
(-0.052130 0.039052 0.001051)
(-0.091431 0.069996 0.001084)
(-0.112889 0.226990 0.001122)
(-0.119771 0.289679 0.001164)
(-0.073990 0.229757 0.001211)
(-0.056333 0.222047 0.001262)
(-0.041627 0.211308 0.002213)
(-0.032819 0.208838 0.003266)
(-0.025563 0.211272 0.003533)
(-0.021233 0.227398 0.003819)
(-0.016571 0.241454 0.004117)
(-0.012539 0.266439 0.004418)
(-0.008118 0.298853 0.005891)
(-0.002991 0.348852 0.007721)
(0.004105 0.428194 0.008714)
(0.013070 0.475598 0.009276)
(0.022020 0.492386 0.008741)
(0.031692 0.540069 0.006260)
(0.038620 0.540464 0.003534)
(0.045338 0.537011 0.002201)
(0.055026 0.574131 0.001243)
(0.062593 0.584841 0.000464)
(0.070905 0.599009 -0.000044)
(0.079947 0.617488 -0.000393)
(0.098550 0.699016 -0.000619)
(0.119136 0.790803 -0.000911)
(0.126258 0.780634 -0.001054)
(0.132571 0.757870 -0.000939)
(0.144152 0.766325 -0.000830)
(0.156880 0.778288 -0.000728)
(0.171456 0.792125 -0.000761)
(0.197778 0.846511 -0.000818)
(0.204754 0.799984 -0.000618)
(0.130535 0.444826 -0.000398)
(-0.007472 -0.246193 -0.000303)
(0.299683 1.221635 -0.000238)
(-0.100647 0.137897 -0.000125)
(-0.093169 0.111436 -0.000302)
(0.022766 -0.042562 -0.000099)
(0.035985 -0.075690 -0.000053)
(0.002026 -0.026125 -0.000049)
(-0.021251 0.064276 0.000026)
(-0.023570 0.098748 0.000048)
(-0.025158 0.127584 -0.000103)
(-0.028902 0.165289 -0.000357)
(-0.031129 0.199582 0.000182)
(-0.032805 0.231830 0.000566)
(-0.032930 0.254925 0.000455)
(-0.032669 0.275956 0.000574)
(-0.031565 0.290915 0.000711)
(-0.029958 0.302744 0.001228)
(-0.027797 0.310922 0.001825)
(-0.025444 0.320932 0.002125)
(-0.022175 0.320148 0.002405)
(-0.021541 0.381980 0.002637)
(-0.017048 0.363568 0.002030)
(-0.009220 0.296730 0.001090)
(-0.004833 0.301011 0.000610)
(0.000408 0.269988 0.000177)
(0.004698 0.230577 -0.000144)
(0.007792 0.191914 0.000441)
(0.011511 0.179729 0.001162)
(0.015781 0.173960 0.001172)
(0.018980 0.157444 0.001199)
(0.020711 0.136470 0.001237)
(0.024192 0.130082 0.000735)
(0.029528 0.134951 0.000255)
(0.027247 0.104621 0.000340)
(0.031714 0.075509 0.000422)
(0.041704 0.037017 0.000499)
(0.019558 -0.062898 0.000570)
(0.020174 -0.062194 0.000636)
(0.090075 0.124035 0.000696)
(0.045155 0.196238 0.000749)
(-0.068442 0.086118 0.000797)
(-0.166266 0.034100 0.000832)
(0.228304 1.479289 -0.000270)
(-0.190631 -0.230593 -0.000393)
(-0.068029 0.224721 -0.000469)
(0.060730 1.760382 -0.000469)
(0.089535 2.623632 -0.000469)
(0.080358 1.542658 -0.000469)
(0.142251 -0.291894 -0.000469)
(0.819737 10.463828 -0.000469)
(3.129028 50.035249 -0.000469)
(-78.743354 -3.744887 -0.000271)
(753.796070 -1308.821353 -0.000469)
(-94.801001 -14.166432 -0.000271)
(-704.104058 1027.426633 -0.000271)
(13.821050 475.440300 -0.000072)
(23.303150 242.752656 -0.000072)
(7.564238 83.931653 -0.000072)
(1.120235 9.504023 -0.000072)
(4.174179 13.042573 -0.000072)
(2.520767 6.645561 -0.000072)
(0.196639 0.271267 -0.000072)
(0.520648 1.040539 -0.000072)
(4.099163 7.651798 -0.000029)
(2.154698 4.444224 0.000014)
(-0.280754 0.244052 0.000014)
(2.639033 3.774214 0.000014)
(0.110383 1.150148 0.000014)
(0.924702 2.018847 0.000014)
(1.421339 1.898968 0.000014)
(0.356907 0.620680 0.000014)
(1.498333 1.522566 0.000014)
(1.226518 1.156577 0.000014)
(2.407019 1.817386 0.000014)
(5.541030 3.231216 0.000014)
(9.811582 5.379617 0.000014)
(4.017474 3.305872 0.000014)
(-9.936714 -2.498423 0.000014)
(1.314218 0.253364 0.000014)
(7.230105 2.452765 0.000014)
(-3.680651 -0.760931 0.000014)
(3.822684 0.026333 0.000014)
(8.982054 -0.069036 0.000014)
(18.636511 -1.200609 0.000014)
(64.956933 -6.758879 0.000014)
(50.568261 -14.742895 0.000014)
(-100.802369 9.782635 0.000014)
(-108.381928 38.932543 0.000014)
(-21.701357 7.341459 0.000014)
(-5.248452 -23.793843 0.000014)
(26.704367 -20.131696 0.000014)
(17.090767 -10.339297 0.000014)
(-1.087310 -0.922485 0.000014)
(-0.201527 -1.413833 0.000014)
(0.218204 -1.671115 0.000014)
(0.840608 -1.358104 0.000014)
(3.174421 -2.614619 0.000014)
(3.899218 -3.095747 0.000014)
(3.024164 -2.253800 0.000014)
(1.892040 -1.236100 0.000014)
(1.491219 -1.035555 0.000014)
(1.062692 -0.803271 0.000014)
(0.689610 -0.605583 0.000014)
(0.396670 -0.423511 0.000014)
(0.197239 -0.272798 -0.000029)
(0.073668 -0.155943 -0.000072)
(0.002266 -0.068242 -0.000072)
(-0.034821 -0.008375 -0.000072)
(-0.050410 0.029903 -0.000072)
(-0.052973 0.051201 -0.000072)
(-0.046682 0.050564 -0.000072)
(-0.035990 0.035036 -0.000072)
(-0.026898 0.021817 -0.000072)
(-159.851639 0.010397 -0.000271)
(159.817915 0.027737 -0.000271)
(0.006365 -0.091624 -0.000072)
(-0.013956 -0.037460 -0.000271)
(-0.046501 0.148773 -0.000469)
(-0.017865 0.134118 -0.000469)
(-0.008443 0.118629 -0.000469)
(-0.004783 0.108934 -0.000469)
(-0.003004 0.104754 -0.000469)
(-0.001338 0.101599 -0.000469)
(-0.001503 0.096375 -0.000469)
(0.007523 0.130340 -0.000335)
(-0.001141 0.102457 -0.000066)
)
;
    }
}
