/*--------------------------------*- C++ -*---------------------------------*\ 
| ========                 |                                                 | 
| \      /  F ield         | OpenFOAM: The Open Source CFD Toolbox           | 
|  \    /   O peration     | Version:  v1812                                 | 
|   \  /    A nd           | Web:      www.OpenFOAM.com                      | 
|    \/     M anipulation  |                                                 | 
\*--------------------------------------------------------------------------*/ 
FoamFile
{
    version     2.0;
    format      ascii;
    class       volVectorField;
    location    "/home/james/dafoam/myRuns/bezier_coanda_opt/0.00000000001/";
    object      sens_CL_shapey;
}
// * * * * * * * * * * * * * * * * * * * * * * * * * * * * * * * * * * * * * //

dimensions      [0 0 0 0 0 0 0];
internalField   uniform (0 0 0);
boundaryField
{
    allWalls
    {
        type  wall;
        value nonuniform List<vector>
164
(
(-0.454270 0.071020 0.000905)
(-0.418074 0.070006 0.000974)
(0.285724 -0.245496 0.000995)
(0.369594 -0.247061 0.001022)
(-0.044873 0.031484 0.001052)
(-0.080175 0.053249 0.001087)
(-0.111065 0.224477 0.001126)
(-0.120867 0.290909 0.001170)
(-0.073376 0.228922 0.001219)
(-0.057013 0.225770 0.001272)
(-0.041235 0.210764 0.002213)
(-0.032531 0.209675 0.003262)
(-0.025285 0.211762 0.003546)
(-0.020792 0.227355 0.003850)
(-0.016208 0.242057 0.004166)
(-0.012074 0.266352 0.004486)
(-0.007663 0.299268 0.005923)
(-0.002484 0.349169 0.007708)
(0.004655 0.428558 0.008699)
(0.013576 0.475094 0.009259)
(0.022266 0.490684 0.008719)
(0.031699 0.538055 0.006385)
(0.039037 0.546192 0.003710)
(0.044707 0.531740 0.002899)
(0.054462 0.569865 0.001907)
(0.062691 0.591394 0.000461)
(0.069947 0.597246 -0.000604)
(0.080125 0.626015 -0.000970)
(0.091882 0.660616 -0.000676)
(0.115814 0.776442 -0.000824)
(0.129674 0.816444 -0.000999)
(0.130051 0.755399 -0.001050)
(0.140763 0.759773 -0.000911)
(0.153532 0.774506 -0.000782)
(0.167626 0.788488 -0.000739)
(0.193075 0.842457 -0.000735)
(0.200193 0.798712 -0.000565)
(0.128437 0.448966 -0.000353)
(-0.005227 -0.231703 -0.000242)
(0.294741 1.225176 -0.000182)
(-0.099574 0.138119 -0.000192)
(-0.091002 0.108116 -0.000263)
(0.023709 -0.048939 -0.000055)
(0.035071 -0.075739 -0.000019)
(-0.000524 -0.016376 -0.000011)
(-0.022823 0.072572 0.000048)
(-0.024472 0.104409 0.000076)
(-0.026105 0.134087 -0.000092)
(-0.030023 0.172513 -0.000422)
(-0.032254 0.206258 -0.000019)
(-0.033753 0.237494 0.000458)
(-0.033758 0.259804 0.000569)
(-0.033369 0.280020 0.000701)
(-0.032144 0.294318 0.000851)
(-0.030435 0.305618 0.001267)
(-0.028202 0.313301 0.001758)
(-0.025781 0.322789 0.002061)
(-0.022468 0.321778 0.002340)
(-0.021735 0.382317 0.002564)
(-0.017130 0.364139 0.001989)
(-0.009245 0.297888 0.001087)
(-0.004822 0.301012 0.000606)
(0.000406 0.269779 0.000172)
(0.004681 0.230367 -0.000151)
(0.007756 0.191530 0.000449)
(0.011485 0.179640 0.001178)
(0.015596 0.172577 0.001173)
(0.019168 0.158819 0.001185)
(0.021606 0.142003 0.001210)
(0.023058 0.125112 0.000720)
(0.028570 0.130129 0.000258)
(0.028096 0.107694 0.000344)
(0.031633 0.075436 0.000425)
(0.041623 0.037563 0.000501)
(0.019975 -0.060470 0.000572)
(0.020286 -0.060695 0.000638)
(0.089237 0.121349 0.000698)
(0.045857 0.192505 0.000751)
(-0.065057 0.084697 0.000799)
(-0.157072 0.032893 0.000834)
(0.223620 1.478685 -0.000212)
(-0.186163 -0.217519 -0.000358)
(-0.066384 0.236506 -0.000460)
(0.060178 1.767858 -0.000460)
(0.088758 2.632378 -0.000460)
(0.079443 1.555913 -0.000460)
(0.140452 -0.273153 -0.000460)
(0.815872 10.496629 -0.000460)
(3.119818 50.028533 -0.000460)
(-78.841772 -4.161667 -0.000267)
(756.196817 -1308.645972 -0.000267)
(-94.807249 -15.645510 -0.000073)
(-706.613533 1027.050293 -0.000267)
(14.102078 478.115776 -0.000073)
(23.497104 242.883036 -0.000073)
(7.746337 84.288839 -0.000073)
(1.222439 9.928746 -0.000073)
(4.186655 13.042620 -0.000073)
(2.534080 6.687024 -0.000073)
(0.167948 0.186106 -0.000073)
(0.511800 1.012376 -0.000073)
(4.082818 7.618676 -0.000030)
(2.121968 4.396160 0.000012)
(-0.285662 0.254370 0.000012)
(2.655942 3.816108 0.000012)
(0.126867 1.177390 0.000012)
(0.932582 2.035272 0.000012)
(1.391213 1.869103 0.000012)
(0.326818 0.587231 0.000012)
(1.482872 1.499173 0.000012)
(1.231493 1.151107 0.000012)
(2.457140 1.840408 0.000012)
(5.640804 3.278270 0.000012)
(9.933105 5.456483 0.000012)
(3.671811 3.188955 0.000012)
(-10.416148 -2.701710 0.000012)
(1.431137 0.270724 0.000012)
(6.974841 2.394987 0.000012)
(-4.332578 -0.917659 0.000012)
(3.201213 -0.075078 0.000012)
(8.519034 -0.148423 0.000012)
(18.297616 -1.243432 0.000012)
(63.159256 -6.787390 0.000012)
(46.748316 -14.333007 0.000012)
(-97.757512 10.942110 0.000012)
(-102.742327 38.700377 0.000012)
(-21.102191 6.173054 0.000012)
(-4.249271 -24.050049 0.000012)
(26.544180 -19.831493 0.000012)
(15.845205 -9.826474 0.000012)
(-1.434887 -0.911444 0.000012)
(-0.128523 -1.565180 0.000012)
(0.257733 -1.672057 0.000012)
(0.869725 -1.333763 0.000012)
(3.194418 -2.604255 0.000012)
(3.908264 -3.098918 0.000012)
(2.966499 -2.203133 0.000012)
(1.827953 -1.187540 0.000012)
(1.471621 -1.037925 0.000012)
(1.038078 -0.798866 0.000012)
(0.663594 -0.597350 0.000012)
(0.376350 -0.420195 0.000012)
(0.181418 -0.271784 -0.000030)
(0.060956 -0.156078 -0.000073)
(-0.008078 -0.070759 -0.000073)
(-0.043254 -0.012514 -0.000073)
(-0.057425 0.024870 -0.000073)
(-0.058957 0.045767 -0.000073)
(-0.051980 0.045287 -0.000073)
(-0.040878 0.030276 -0.000073)
(-0.031428 0.017423 -0.000073)
(-159.854505 0.007190 -0.000267)
(159.814887 0.024183 -0.000460)
(-0.013822 -0.106029 -0.000267)
(-0.042298 -0.060918 -0.000267)
(-0.061388 0.131410 -0.000460)
(-0.024937 0.125541 -0.000460)
(-0.012307 0.112835 -0.000460)
(-0.007104 0.104113 -0.000460)
(-0.004507 0.100845 -0.000460)
(-0.002327 0.098276 -0.000460)
(-0.002212 0.092906 -0.000460)
(0.007062 0.125969 -0.000294)
(-0.001952 0.101524 -0.000119)
)
;
    }
}
