/*--------------------------------*- C++ -*---------------------------------*\ 
| ========                 |                                                 | 
| \      /  F ield         | OpenFOAM: The Open Source CFD Toolbox           | 
|  \    /   O peration     | Version:  v1812                                 | 
|   \  /    A nd           | Web:      www.OpenFOAM.com                      | 
|    \/     M anipulation  |                                                 | 
\*--------------------------------------------------------------------------*/ 
FoamFile
{
    version     2.0;
    format      ascii;
    class       volVectorField;
    location    "/home/james/dafoam/myRuns/bezier_coanda_opt/0.00000000001/";
    object      sens_CL_shapey;
}
// * * * * * * * * * * * * * * * * * * * * * * * * * * * * * * * * * * * * * //

dimensions      [0 0 0 0 0 0 0];
internalField   uniform (0 0 0);
boundaryField
{
    allWalls
    {
        type  wall;
        value nonuniform List<vector>
164
(
(-0.479400 0.073614 0.000910)
(-0.409512 0.062875 0.000981)
(0.327995 -0.271835 0.001001)
(0.389480 -0.267192 0.001025)
(-0.051834 0.037527 0.001054)
(-0.095064 0.075051 0.001086)
(-0.116699 0.233837 0.001123)
(-0.120079 0.290066 0.001164)
(-0.073894 0.228964 0.001210)
(-0.056547 0.222360 0.001260)
(-0.041789 0.211357 0.002217)
(-0.032928 0.208665 0.003273)
(-0.025695 0.211196 0.003535)
(-0.021366 0.227266 0.003816)
(-0.016715 0.241342 0.004108)
(-0.012690 0.266284 0.004403)
(-0.008280 0.298662 0.005893)
(-0.003168 0.348490 0.007744)
(0.003904 0.427810 0.008743)
(0.012874 0.475364 0.009312)
(0.021786 0.492245 0.008780)
(0.031415 0.539940 0.006435)
(0.038343 0.540014 0.003760)
(0.045169 0.536178 0.002945)
(0.054813 0.572455 0.001935)
(0.062310 0.583087 0.000485)
(0.070720 0.597522 -0.000608)
(0.080278 0.618894 -0.000983)
(0.102356 0.726708 -0.000678)
(0.119507 0.794080 -0.000830)
(0.122400 0.751400 -0.001009)
(0.132714 0.753226 -0.001063)
(0.145734 0.768858 -0.000927)
(0.158224 0.778773 -0.000801)
(0.172936 0.792526 -0.000750)
(0.199574 0.847074 -0.000736)
(0.206511 0.799746 -0.000579)
(0.130908 0.440869 -0.000359)
(-0.009337 -0.256864 -0.000227)
(0.302774 1.225958 -0.000166)
(-0.100352 0.137063 -0.000208)
(-0.093413 0.111924 -0.000263)
(0.022306 -0.039981 -0.000048)
(0.036126 -0.074625 -0.000012)
(0.002921 -0.028356 -0.000005)
(-0.020655 0.062494 0.000054)
(-0.023244 0.098039 0.000081)
(-0.024816 0.126708 -0.000089)
(-0.028736 0.164340 -0.000422)
(-0.031191 0.198752 -0.000015)
(-0.032926 0.231077 0.000460)
(-0.033100 0.254288 0.000567)
(-0.032856 0.275371 0.000696)
(-0.031761 0.290426 0.000842)
(-0.030160 0.302434 0.001274)
(-0.028002 0.310696 0.001787)
(-0.025641 0.320747 0.002101)
(-0.022360 0.320010 0.002393)
(-0.021710 0.382040 0.002633)
(-0.017126 0.363603 0.002044)
(-0.009213 0.296668 0.001117)
(-0.004826 0.301149 0.000633)
(0.000420 0.270090 0.000197)
(0.004717 0.230666 -0.000127)
(0.007813 0.192012 0.000442)
(0.011539 0.179833 0.001151)
(0.015813 0.174072 0.001167)
(0.019013 0.157506 0.001200)
(0.020742 0.136533 0.001244)
(0.024198 0.130067 0.000742)
(0.029562 0.135061 0.000259)
(0.027251 0.104648 0.000345)
(0.031779 0.075564 0.000426)
(0.041804 0.036991 0.000502)
(0.019527 -0.063372 0.000573)
(0.020293 -0.062267 0.000639)
(0.090421 0.125086 0.000698)
(0.044844 0.197668 0.000752)
(-0.069747 0.087062 0.000799)
(-0.170823 0.034944 0.000834)
(0.231379 1.485157 -0.000219)
(-0.193224 -0.242533 -0.000374)
(-0.069108 0.215528 -0.000461)
(0.060822 1.757188 -0.000461)
(0.089664 2.619141 -0.000461)
(0.080416 1.531871 -0.000461)
(0.142734 -0.310546 -0.000461)
(0.821712 10.440839 -0.000461)
(3.135220 50.056659 -0.000461)
(-78.630536 -3.823233 -0.000266)
(750.367697 -1306.421291 -0.000266)
(-94.714023 -14.033384 -0.000071)
(-700.727027 1025.890652 -0.000266)
(13.680878 473.231563 -0.000071)
(23.175428 242.103750 -0.000071)
(7.484966 83.628572 -0.000071)
(1.089922 9.365915 -0.000071)
(4.167968 13.032916 -0.000071)
(2.518909 6.637164 -0.000071)
(0.216677 0.328230 -0.000071)
(0.528853 1.068216 -0.000071)
(4.100912 7.660448 -0.000030)
(2.169110 4.466287 0.000012)
(-0.272667 0.249739 0.000012)
(2.630298 3.757399 0.000012)
(0.105860 1.141352 0.000012)
(0.924593 2.014257 0.000012)
(1.436413 1.914056 0.000012)
(0.372034 0.637185 0.000012)
(1.504386 1.532188 0.000012)
(1.223390 1.158873 0.000012)
(2.379812 1.804680 0.000012)
(5.485004 3.204989 0.000012)
(9.727650 5.332468 0.000012)
(4.129035 3.337891 0.000012)
(-9.713784 -2.408674 0.000012)
(1.267369 0.249095 0.000012)
(7.296584 2.465534 0.000012)
(-3.427556 -0.700909 0.000012)
(3.978627 0.055384 0.000012)
(9.059005 -0.046874 0.000012)
(18.763094 -1.173830 0.000012)
(65.544388 -6.702369 0.000012)
(51.881114 -14.821953 0.000012)
(-101.448295 9.320962 0.000012)
(-109.979766 38.854924 0.000012)
(-21.836046 7.726153 0.000012)
(-5.567146 -23.631949 0.000012)
(26.586741 -20.170115 0.000012)
(17.287348 -10.443523 0.000012)
(-1.080430 -0.914319 0.000012)
(-0.220749 -1.384182 0.000012)
(0.229877 -1.679706 0.000012)
(0.841049 -1.366087 0.000012)
(3.162642 -2.610924 0.000012)
(3.896356 -3.095871 0.000012)
(3.029794 -2.259856 0.000012)
(1.899713 -1.242912 0.000012)
(1.500677 -1.043764 0.000012)
(1.068466 -0.808077 0.000012)
(0.693623 -0.608448 0.000012)
(0.399857 -0.425545 0.000012)
(0.200137 -0.272935 -0.000030)
(0.076211 -0.154710 -0.000071)
(0.004154 -0.067297 -0.000071)
(-0.033467 -0.007529 -0.000071)
(-0.049434 0.030729 -0.000071)
(-0.052149 0.051692 -0.000071)
(-0.045907 0.050779 -0.000071)
(-0.035385 0.035218 -0.000071)
(-0.026443 0.021862 -0.000071)
(-159.851392 0.010285 -0.000266)
(159.818323 0.027405 -0.000461)
(0.009199 -0.089963 -0.000266)
(-0.009894 -0.033701 -0.000266)
(-0.044480 0.151837 -0.000461)
(-0.017026 0.136424 -0.000461)
(-0.008024 0.120109 -0.000461)
(-0.004534 0.109424 -0.000461)
(-0.002848 0.105102 -0.000461)
(-0.001243 0.101807 -0.000461)
(-0.001420 0.096566 -0.000461)
(0.007602 0.130427 -0.000310)
(-0.000698 0.101755 -0.000150)
)
;
    }
}
