/*--------------------------------*- C++ -*---------------------------------*\ 
| ========                 |                                                 | 
| \      /  F ield         | OpenFOAM: The Open Source CFD Toolbox           | 
|  \    /   O peration     | Version:  v1812                                 | 
|   \  /    A nd           | Web:      www.OpenFOAM.com                      | 
|    \/     M anipulation  |                                                 | 
\*--------------------------------------------------------------------------*/ 
FoamFile
{
    version     2.0;
    format      ascii;
    class       volVectorField;
    location    "/home/james/dafoam/myRuns/bezier_coanda_opt/0.00000000001/";
    object      sens_CL_shapey;
}
// * * * * * * * * * * * * * * * * * * * * * * * * * * * * * * * * * * * * * //

dimensions      [0 0 0 0 0 0 0];
internalField   uniform (0 0 0);
boundaryField
{
    allWalls
    {
        type  wall;
        value nonuniform List<vector>
164
(
(-0.472237 0.072940 0.000904)
(-0.413419 0.065346 0.000974)
(0.315779 -0.264239 0.000995)
(0.385179 -0.261963 0.001020)
(-0.051417 0.038342 0.001049)
(-0.091049 0.068613 0.001082)
(-0.112796 0.226784 0.001120)
(-0.120422 0.290970 0.001162)
(-0.074312 0.230591 0.001209)
(-0.056514 0.222634 0.001260)
(-0.041665 0.211514 0.002211)
(-0.032829 0.208979 0.003264)
(-0.025541 0.211294 0.003531)
(-0.021205 0.227423 0.003816)
(-0.016535 0.241431 0.004114)
(-0.012500 0.266394 0.004414)
(-0.008077 0.298759 0.005887)
(-0.002951 0.348668 0.007717)
(0.004142 0.427874 0.008708)
(0.013095 0.475263 0.009270)
(0.022030 0.492094 0.008735)
(0.031675 0.539565 0.006257)
(0.038570 0.539751 0.003536)
(0.045267 0.536283 0.002204)
(0.054938 0.573435 0.001245)
(0.062468 0.584023 0.000465)
(0.070732 0.598011 -0.000044)
(0.079732 0.616423 -0.000394)
(0.098260 0.697691 -0.000621)
(0.118777 0.789307 -0.000911)
(0.125862 0.779159 -0.001052)
(0.132134 0.756444 -0.000936)
(0.143652 0.764851 -0.000828)
(0.156317 0.776757 -0.000726)
(0.170856 0.790696 -0.000759)
(0.197238 0.845630 -0.000816)
(0.204236 0.799376 -0.000617)
(0.129565 0.442120 -0.000396)
(-0.008879 -0.251665 -0.000302)
(0.300271 1.227933 -0.000238)
(-0.100309 0.137724 -0.000125)
(-0.092882 0.110990 -0.000301)
(0.022483 -0.042726 -0.000098)
(0.035532 -0.074887 -0.000052)
(0.001563 -0.024423 -0.000047)
(-0.021598 0.065866 0.000027)
(-0.023892 0.100311 0.000050)
(-0.025483 0.129262 -0.000101)
(-0.029198 0.166981 -0.000354)
(-0.031378 0.201144 0.000185)
(-0.033016 0.233239 0.000569)
(-0.033107 0.256183 0.000458)
(-0.032804 0.276973 0.000578)
(-0.031676 0.291794 0.000716)
(-0.030045 0.303500 0.001231)
(-0.027860 0.311528 0.001827)
(-0.025491 0.321411 0.002130)
(-0.022213 0.320576 0.002412)
(-0.021559 0.382114 0.002647)
(-0.017056 0.363743 0.002035)
(-0.009228 0.297051 0.001088)
(-0.004831 0.301084 0.000607)
(0.000410 0.269992 0.000175)
(0.004699 0.230556 -0.000145)
(0.007793 0.191911 0.000440)
(0.011508 0.179699 0.001160)
(0.015780 0.173955 0.001170)
(0.018972 0.157418 0.001197)
(0.020714 0.136499 0.001236)
(0.024198 0.130123 0.000733)
(0.029524 0.134900 0.000253)
(0.027270 0.104639 0.000339)
(0.031726 0.075521 0.000421)
(0.041740 0.037167 0.000497)
(0.019629 -0.062522 0.000568)
(0.020255 -0.061833 0.000634)
(0.090064 0.123893 0.000694)
(0.045152 0.196102 0.000748)
(-0.068363 0.086446 0.000796)
(-0.166551 0.034408 0.000831)
(0.229185 1.485816 -0.000269)
(-0.191351 -0.236835 -0.000392)
(-0.068388 0.220840 -0.000469)
(0.060619 1.760561 -0.000469)
(0.089350 2.622910 -0.000469)
(0.080014 1.537015 -0.000469)
(0.141941 -0.303676 -0.000469)
(0.820040 10.455911 -0.000469)
(3.132001 50.064941 -0.000469)
(-78.680747 -4.048605 -0.000270)
(751.139297 -1306.208682 -0.000469)
(-94.726917 -14.753009 -0.000270)
(-701.547630 1025.692077 -0.000270)
(13.792714 474.222003 -0.000072)
(23.250645 242.091343 -0.000072)
(7.559703 83.761069 -0.000072)
(1.134285 9.550786 -0.000072)
(4.173659 13.033028 -0.000072)
(2.525641 6.655946 -0.000072)
(0.206845 0.296497 -0.000072)
(0.527944 1.060179 -0.000072)
(4.095311 7.647668 -0.000029)
(2.155950 4.447694 0.000014)
(-0.272563 0.258356 0.000014)
(2.636461 3.775991 0.000014)
(0.111136 1.151621 0.000014)
(0.929333 2.022889 0.000014)
(1.425586 1.904167 0.000014)
(0.359508 0.623801 0.000014)
(1.497511 1.522078 0.000014)
(1.225995 1.156858 0.000014)
(2.403144 1.815457 0.000014)
(5.532118 3.227240 0.000014)
(9.787568 5.369341 0.000014)
(3.979197 3.287800 0.000014)
(-9.929726 -2.500598 0.000014)
(1.328476 0.258308 0.000014)
(7.193098 2.442658 0.000014)
(-3.702850 -0.767507 0.000014)
(3.793052 0.021525 0.000014)
(8.944013 -0.074297 0.000014)
(18.543406 -1.203537 0.000014)
(64.546038 -6.743440 0.000014)
(50.064220 -14.660434 0.000014)
(-100.159778 9.832799 0.000014)
(-107.512195 38.759886 0.000014)
(-21.581691 7.219187 0.000014)
(-5.164199 -23.718434 0.000014)
(26.598575 -20.029871 0.000014)
(16.967020 -10.268364 0.000014)
(-1.077487 -0.920833 0.000014)
(-0.187088 -1.414301 0.000014)
(0.222352 -1.662296 0.000014)
(0.840477 -1.352218 0.000014)
(3.162078 -2.606515 0.000014)
(3.878955 -3.085618 0.000014)
(3.003915 -2.246544 0.000014)
(1.875829 -1.234426 0.000014)
(1.476076 -1.035687 0.000014)
(1.049046 -0.805117 0.000014)
(0.677367 -0.608702 0.000014)
(0.385616 -0.427251 0.000014)
(0.187232 -0.276456 -0.000029)
(0.064830 -0.159192 -0.000072)
(-0.005282 -0.071044 -0.000072)
(-0.041108 -0.010745 -0.000072)
(-0.055572 0.027927 -0.000072)
(-0.057190 0.049568 -0.000072)
(-0.050140 0.049230 -0.000072)
(-0.038841 0.033935 -0.000072)
(-0.029254 0.020846 -0.000072)
(-159.853127 0.009711 -0.000270)
(159.816479 0.027140 -0.000270)
(-0.001299 -0.095919 -0.000072)
(-0.023492 -0.044146 -0.000270)
(-0.050715 0.144434 -0.000469)
(-0.019777 0.131634 -0.000469)
(-0.009482 0.116928 -0.000469)
(-0.005409 0.107645 -0.000469)
(-0.003427 0.103688 -0.000469)
(-0.001634 0.100657 -0.000469)
(-0.001714 0.095397 -0.000469)
(0.007383 0.129008 -0.000334)
(-0.001240 0.101814 -0.000065)
)
;
    }
}
