/*--------------------------------*- C++ -*---------------------------------*\ 
| ========                 |                                                 | 
| \      /  F ield         | OpenFOAM: The Open Source CFD Toolbox           | 
|  \    /   O peration     | Version:  v1812                                 | 
|   \  /    A nd           | Web:      www.OpenFOAM.com                      | 
|    \/     M anipulation  |                                                 | 
\*--------------------------------------------------------------------------*/ 
FoamFile
{
    version     2.0;
    format      ascii;
    class       volVectorField;
    location    "/home/james/dafoam/myRuns/bezier_coanda_opt/0.00000000001/";
    object      sens_CL_shapey;
}
// * * * * * * * * * * * * * * * * * * * * * * * * * * * * * * * * * * * * * //

dimensions      [0 0 0 0 0 0 0];
internalField   uniform (0 0 0);
boundaryField
{
    allWalls
    {
        type  wall;
        value nonuniform List<vector>
164
(
(-0.365626 0.052809 0.000604)
(-0.314759 0.058091 0.000450)
(0.134347 -0.132398 0.000394)
(0.220148 -0.148706 0.000548)
(-0.006387 -0.003676 0.000604)
(-0.072259 0.059176 0.000604)
(-0.110897 0.219658 0.000604)
(-0.104923 0.259775 0.000972)
(-0.066942 0.214110 0.001956)
(-0.052794 0.216432 0.002847)
(-0.040261 0.210153 0.003158)
(-0.031401 0.206838 0.003506)
(-0.024804 0.212780 0.004557)
(-0.020184 0.227406 0.005274)
(-0.015877 0.242948 0.005648)
(-0.011692 0.267943 0.006451)
(-0.007074 0.301784 0.008168)
(-0.001737 0.354160 0.008905)
(0.006106 0.435179 0.009319)
(0.015186 0.480537 0.009333)
(0.023178 0.494372 0.006600)
(0.032691 0.543375 0.004123)
(0.040363 0.559204 0.002828)
(0.045619 0.542312 0.001805)
(0.055368 0.580954 0.001027)
(0.063984 0.606773 0.000456)
(0.071107 0.612280 0.000082)
(0.081280 0.642444 -0.000054)
(0.092947 0.677699 -0.000054)
(0.116826 0.795823 -0.000054)
(0.130389 0.835636 -0.000054)
(0.130517 0.773679 -0.000280)
(0.141297 0.780036 -0.000505)
(0.153996 0.795979 -0.000505)
(0.166812 0.805732 -0.000505)
(0.188579 0.847386 -0.000505)
(0.197723 0.815632 -0.000399)
(0.141654 0.522825 -0.000293)
(0.027206 -0.080224 -0.000293)
(0.264144 1.093224 -0.000293)
(-0.104366 0.141940 -0.000293)
(-0.091550 0.106530 -0.000293)
(0.030555 -0.066204 -0.000293)
(0.039938 -0.092261 -0.000399)
(-0.000477 -0.019639 -0.000505)
(-0.021925 0.066092 -0.000505)
(-0.021754 0.088738 -0.000505)
(-0.023461 0.118264 -0.000505)
(-0.027894 0.158704 -0.000505)
(-0.030341 0.193226 -0.000279)
(-0.032041 0.225315 -0.000054)
(-0.032311 0.248901 -0.000054)
(-0.032194 0.270638 -0.000054)
(-0.031196 0.286336 -0.000054)
(-0.029681 0.298855 0.000923)
(-0.027612 0.307516 0.002047)
(-0.025342 0.318065 0.002341)
(-0.022131 0.317568 0.002628)
(-0.021570 0.380186 0.002890)
(-0.016441 0.361809 0.003453)
(-0.008669 0.294756 0.002722)
(-0.005056 0.299321 0.001263)
(0.000138 0.268938 0.000760)
(0.005076 0.229925 0.000717)
(0.008829 0.190815 0.000676)
(0.012553 0.179132 0.000295)
(0.016617 0.171815 0.000004)
(0.019543 0.158526 -0.000217)
(0.021894 0.141308 -0.000384)
(0.024112 0.124615 -0.000512)
(0.029011 0.129614 -0.000361)
(0.028351 0.106738 -0.000435)
(0.032024 0.075390 -0.000554)
(0.040379 0.037038 0.000106)
(0.018260 -0.060955 0.000604)
(0.018414 -0.063386 0.000282)
(0.086270 0.115619 0.000282)
(0.047015 0.183999 0.000604)
(-0.050107 0.075908 0.000604)
(-0.144678 0.022249 0.000604)
(0.189782 1.337122 -0.000293)
(-0.158753 -0.040115 -0.000384)
(-0.055578 0.357862 -0.000474)
(0.058961 1.783132 -0.000474)
(0.087904 2.668329 -0.000474)
(0.080878 1.710028 -0.000474)
(0.137563 0.025982 -0.000474)
(0.791897 10.742632 -0.000474)
(3.018262 49.354900 -0.000474)
(-80.492143 1.284386 -0.000276)
(826.732709 -1368.465243 -0.000276)
(-96.461446 -7.648951 -0.000077)
(-775.432480 1065.686054 -0.000276)
(15.842931 516.692850 -0.000077)
(25.442675 258.785946 -0.000077)
(8.534423 89.600407 -0.000077)
(1.270077 10.412949 -0.000077)
(4.242545 13.271985 -0.000077)
(2.470339 6.621090 -0.000077)
(-0.175040 -0.701296 -0.000077)
(0.311756 0.465404 -0.000077)
(4.104350 7.580028 -0.000034)
(1.962673 4.124395 0.000009)
(-0.515855 -0.074377 0.000009)
(2.781700 3.921590 0.000009)
(0.192320 1.270931 0.000009)
(0.833712 1.989609 0.000009)
(1.138601 1.598866 0.000009)
(0.129966 0.372099 0.000009)
(1.418314 1.407887 0.000009)
(1.235072 1.109025 0.000009)
(2.705859 1.958468 0.000009)
(6.174573 3.525072 0.000009)
(10.902368 5.962510 0.000009)
(3.272492 3.178087 0.000009)
(-12.441458 -3.423747 0.000009)
(1.279354 0.146038 0.000009)
(6.654052 2.354720 0.000009)
(-6.384056 -1.377968 0.000009)
(1.915164 -0.325156 0.000009)
(7.870418 -0.327981 0.000009)
(17.772404 -1.488587 0.000009)
(63.298900 -7.504317 0.000009)
(42.281921 -14.859649 0.000009)
(-103.431942 14.078048 0.000009)
(-103.043564 42.016434 0.000009)
(-19.745761 4.913992 0.000009)
(0.125350 -26.312109 0.000009)
(30.978366 -20.761566 0.000009)
(16.817196 -9.948418 0.000009)
(-1.182953 -1.001741 0.000009)
(0.220756 -1.692060 0.000009)
(0.362885 -1.574855 0.000009)
(0.998671 -1.234805 0.000009)
(3.493712 -2.662761 0.000009)
(4.197408 -3.191056 0.000009)
(3.122745 -2.215193 0.000009)
(1.894141 -1.157135 0.000009)
(1.531470 -1.026874 0.000009)
(1.074046 -0.776293 0.000009)
(0.683840 -0.569626 0.000009)
(0.390923 -0.396590 0.000009)
(0.191563 -0.250016 -0.000034)
(0.068581 -0.135493 -0.000077)
(-0.000909 -0.052598 -0.000077)
(-0.035874 0.002804 -0.000077)
(-0.049877 0.037734 -0.000077)
(-0.051377 0.056560 -0.000077)
(-0.044485 0.054345 -0.000077)
(-0.033680 0.038059 -0.000077)
(-0.024709 0.024317 -0.000077)
(-159.849419 0.011932 -0.000276)
(159.819284 0.029134 -0.000474)
(0.013804 -0.071636 -0.000276)
(-0.001682 -0.015134 -0.000276)
(-0.038173 0.154533 -0.000474)
(-0.015325 0.138194 -0.000474)
(-0.007689 0.120704 -0.000474)
(-0.004702 0.110494 -0.000474)
(-0.003122 0.107062 -0.000474)
(-0.001464 0.104753 -0.000474)
(-0.001886 0.100604 -0.000474)
(0.007078 0.138397 -0.000384)
(-0.003851 0.110671 -0.000293)
)
;
    }
}
