/*--------------------------------*- C++ -*---------------------------------*\ 
| ========                 |                                                 | 
| \      /  F ield         | OpenFOAM: The Open Source CFD Toolbox           | 
|  \    /   O peration     | Version:  v1812                                 | 
|   \  /    A nd           | Web:      www.OpenFOAM.com                      | 
|    \/     M anipulation  |                                                 | 
\*--------------------------------------------------------------------------*/ 
FoamFile
{
    version     2.0;
    format      ascii;
    class       volVectorField;
    location    "/home/james/dafoam/myRuns/bezier_coanda_opt/0.00000000001/";
    object      sens_CL_shapey;
}
// * * * * * * * * * * * * * * * * * * * * * * * * * * * * * * * * * * * * * //

dimensions      [0 0 0 0 0 0 0];
internalField   uniform (0 0 0);
boundaryField
{
    allWalls
    {
        type  wall;
        value nonuniform List<vector>
164
(
(-0.462206 0.072062 0.000904)
(-0.419515 0.069093 0.000974)
(0.296819 -0.252860 0.000995)
(0.376969 -0.253099 0.001020)
(-0.046894 0.033606 0.001050)
(-0.081781 0.054611 0.001083)
(-0.111160 0.224795 0.001121)
(-0.121682 0.292705 0.001164)
(-0.073710 0.229676 0.001211)
(-0.057189 0.226048 0.001263)
(-0.041345 0.210824 0.002214)
(-0.032632 0.209701 0.003267)
(-0.025371 0.211715 0.003537)
(-0.020878 0.227292 0.003825)
(-0.016296 0.241959 0.004125)
(-0.012169 0.266241 0.004427)
(-0.007765 0.299066 0.005886)
(-0.002597 0.348858 0.007697)
(0.004522 0.428141 0.008682)
(0.013443 0.474829 0.009234)
(0.022240 0.490669 0.008692)
(0.031785 0.537993 0.006228)
(0.038862 0.542180 0.003525)
(0.045063 0.534333 0.002198)
(0.054706 0.571729 0.001244)
(0.062554 0.587200 0.000469)
(0.070244 0.597171 -0.000036)
(0.080372 0.625163 -0.000382)
(0.092185 0.659805 -0.000607)
(0.116169 0.775536 -0.000903)
(0.130067 0.815435 -0.001051)
(0.130286 0.754355 -0.000936)
(0.140885 0.758866 -0.000828)
(0.153719 0.773504 -0.000727)
(0.167875 0.787345 -0.000757)
(0.193636 0.842019 -0.000811)
(0.200784 0.797977 -0.000615)
(0.127861 0.444628 -0.000399)
(-0.007584 -0.242153 -0.000305)
(0.296933 1.231872 -0.000241)
(-0.099580 0.137931 -0.000124)
(-0.091431 0.108774 -0.000297)
(0.022946 -0.046974 -0.000098)
(0.034671 -0.074653 -0.000052)
(-0.000424 -0.017303 -0.000047)
(-0.022887 0.071970 0.000028)
(-0.024720 0.104611 0.000050)
(-0.026339 0.134114 -0.000103)
(-0.030038 0.172265 -0.000356)
(-0.032091 0.206050 0.000186)
(-0.033581 0.237446 0.000570)
(-0.033560 0.259821 0.000456)
(-0.033167 0.280093 0.000576)
(-0.031961 0.294415 0.000712)
(-0.030253 0.305631 0.001229)
(-0.028010 0.313277 0.001824)
(-0.025603 0.322810 0.002123)
(-0.022302 0.321776 0.002401)
(-0.021590 0.382320 0.002632)
(-0.017070 0.364167 0.002017)
(-0.009251 0.297903 0.001072)
(-0.004826 0.301078 0.000597)
(0.000406 0.269825 0.000168)
(0.004684 0.230399 -0.000150)
(0.007761 0.191574 0.000439)
(0.011494 0.179686 0.001161)
(0.015608 0.172634 0.001169)
(0.019181 0.158849 0.001194)
(0.021621 0.142038 0.001230)
(0.023060 0.125098 0.000730)
(0.028595 0.130199 0.000253)
(0.028113 0.107740 0.000339)
(0.031675 0.075462 0.000420)
(0.041697 0.037573 0.000497)
(0.019981 -0.060672 0.000568)
(0.020380 -0.060665 0.000634)
(0.089471 0.121980 0.000694)
(0.045712 0.193423 0.000748)
(-0.065867 0.085488 0.000795)
(-0.160288 0.033640 0.000830)
(0.226066 1.486505 -0.000272)
(-0.188336 -0.229440 -0.000393)
(-0.067214 0.227844 -0.000468)
(0.060296 1.765624 -0.000468)
(0.088873 2.628669 -0.000468)
(0.079444 1.545170 -0.000468)
(0.140788 -0.292389 -0.000468)
(0.817471 10.475894 -0.000468)
(3.126052 50.056764 -0.000468)
(-78.723043 -4.425485 -0.000270)
(751.510709 -1304.897615 -0.000468)
(-94.694579 -15.911354 -0.000270)
(-702.013894 1024.637265 -0.000270)
(13.954951 475.360968 -0.000072)
(23.350059 241.875049 -0.000072)
(7.672806 83.910730 -0.000072)
(1.205263 9.841973 -0.000072)
(4.180541 13.026816 -0.000072)
(2.535426 6.683779 -0.000072)
(0.192231 0.249979 -0.000072)
(0.525758 1.048646 -0.000072)
(4.084241 7.625121 -0.000029)
(2.135731 4.418197 0.000014)
(-0.270953 0.272667 0.000014)
(2.645026 3.802506 0.000014)
(0.119673 1.166348 0.000014)
(0.937588 2.035375 0.000014)
(1.411156 1.889740 0.000014)
(0.343027 0.604656 0.000014)
(1.489285 1.507808 0.000014)
(1.231544 1.154769 0.000014)
(2.437148 1.830983 0.000014)
(5.600149 3.259484 0.000014)
(9.866278 5.419892 0.000014)
(3.744004 3.207125 0.000014)
(-10.233024 -2.631860 0.000014)
(1.433012 0.278418 0.000014)
(7.030810 2.406857 0.000014)
(-4.099848 -0.864485 0.000014)
(3.543153 -0.024360 0.000014)
(8.814755 -0.110151 0.000014)
(18.235721 -1.244116 0.000014)
(62.944178 -6.796121 0.000014)
(47.263139 -14.382535 0.000014)
(-97.759662 10.616114 0.000014)
(-103.412666 38.538261 0.000014)
(-21.180643 6.395933 0.000014)
(-4.460834 -23.885903 0.000014)
(26.391379 -19.801693 0.000014)
(15.894479 -9.861116 0.000014)
(-1.448014 -0.903296 0.000014)
(-0.150397 -1.547002 0.000014)
(0.259546 -1.678386 0.000014)
(0.866171 -1.339264 0.000014)
(3.179530 -2.599089 0.000014)
(3.897829 -3.094148 0.000014)
(2.965660 -2.205426 0.000014)
(1.830288 -1.191882 0.000014)
(1.473248 -1.040882 0.000014)
(1.039491 -0.801437 0.000014)
(0.664833 -0.599638 0.000014)
(0.377361 -0.422253 0.000014)
(0.181926 -0.274769 -0.000029)
(0.060978 -0.159341 -0.000072)
(-0.008202 -0.072736 -0.000072)
(-0.043475 -0.013574 -0.000072)
(-0.057686 0.024464 -0.000072)
(-0.059213 0.045827 -0.000072)
(-0.052192 0.045638 -0.000072)
(-0.041011 0.030773 -0.000072)
(-0.031473 0.018011 -0.000072)
(-159.854581 0.007743 -0.000270)
(159.814911 0.024977 -0.000270)
(-0.013898 -0.106424 -0.000072)
(-0.042156 -0.061437 -0.000270)
(-0.060923 0.131720 -0.000468)
(-0.024499 0.124841 -0.000468)
(-0.012016 0.112389 -0.000468)
(-0.006918 0.104266 -0.000468)
(-0.004383 0.100895 -0.000468)
(-0.002249 0.098248 -0.000468)
(-0.002147 0.092868 -0.000468)
(0.007085 0.125778 -0.000335)
(-0.001855 0.101105 -0.000068)
)
;
    }
}
