/*--------------------------------*- C++ -*---------------------------------*\ 
| ========                 |                                                 | 
| \      /  F ield         | OpenFOAM: The Open Source CFD Toolbox           | 
|  \    /   O peration     | Version:  v1812                                 | 
|   \  /    A nd           | Web:      www.OpenFOAM.com                      | 
|    \/     M anipulation  |                                                 | 
\*--------------------------------------------------------------------------*/ 
FoamFile
{
    version     2.0;
    format      ascii;
    class       volVectorField;
    location    "/home/james/dafoam/myRuns/bezier_coanda_opt/0.00000000001/";
    object      sens_CL_shapey;
}
// * * * * * * * * * * * * * * * * * * * * * * * * * * * * * * * * * * * * * //

dimensions      [0 0 0 0 0 0 0];
internalField   uniform (0 0 0);
boundaryField
{
    allWalls
    {
        type  wall;
        value nonuniform List<vector>
164
(
(-0.472002 0.072738 0.000907)
(-0.410016 0.064344 0.000975)
(0.317095 -0.264673 0.000996)
(0.383176 -0.261279 0.001022)
(-0.052050 0.038685 0.001052)
(-0.092244 0.071065 0.001087)
(-0.113767 0.228565 0.001125)
(-0.119896 0.289881 0.001169)
(-0.073986 0.229614 0.001217)
(-0.056391 0.222152 0.001270)
(-0.041670 0.211351 0.002221)
(-0.032840 0.208793 0.003274)
(-0.025589 0.211255 0.003540)
(-0.021260 0.227375 0.003825)
(-0.016598 0.241409 0.004122)
(-0.012568 0.266389 0.004422)
(-0.008150 0.298799 0.005898)
(-0.003027 0.348737 0.007732)
(0.004063 0.428053 0.008729)
(0.013028 0.475471 0.009296)
(0.021906 0.492240 0.008761)
(0.031495 0.539847 0.006420)
(0.038397 0.540090 0.003750)
(0.045189 0.536376 0.002935)
(0.054807 0.572807 0.001929)
(0.062260 0.583464 0.000482)
(0.070593 0.597682 -0.000610)
(0.080097 0.619097 -0.000983)
(0.102037 0.726629 -0.000674)
(0.119075 0.793867 -0.000824)
(0.121926 0.751387 -0.000997)
(0.132137 0.753174 -0.001049)
(0.145039 0.768755 -0.000918)
(0.157433 0.778754 -0.000796)
(0.172065 0.792763 -0.000749)
(0.198393 0.846877 -0.000736)
(0.205350 0.800145 -0.000584)
(0.130757 0.443873 -0.000364)
(-0.007877 -0.249237 -0.000228)
(0.300654 1.223185 -0.000166)
(-0.100453 0.137597 -0.000216)
(-0.093087 0.111369 -0.000263)
(0.022848 -0.042173 -0.000048)
(0.036213 -0.075624 -0.000013)
(0.002411 -0.026813 -0.000005)
(-0.020945 0.063735 0.000053)
(-0.023329 0.098479 0.000079)
(-0.024900 0.127217 -0.000087)
(-0.028836 0.164997 -0.000414)
(-0.031268 0.199334 -0.000011)
(-0.032968 0.231495 0.000457)
(-0.033132 0.254646 0.000564)
(-0.032876 0.275654 0.000692)
(-0.031770 0.290635 0.000837)
(-0.030163 0.302581 0.001268)
(-0.028002 0.310809 0.001780)
(-0.025638 0.320816 0.002091)
(-0.022357 0.320055 0.002380)
(-0.021704 0.381985 0.002618)
(-0.017121 0.363561 0.002028)
(-0.009214 0.296684 0.001103)
(-0.004829 0.301039 0.000620)
(0.000413 0.270016 0.000185)
(0.004705 0.230604 -0.000138)
(0.007800 0.191938 0.000449)
(0.011521 0.179765 0.001173)
(0.015791 0.173986 0.001184)
(0.018991 0.157461 0.001211)
(0.020722 0.136498 0.001250)
(0.024197 0.130092 0.000744)
(0.029536 0.134979 0.000260)
(0.027247 0.104626 0.000345)
(0.031734 0.075538 0.000427)
(0.041726 0.036994 0.000503)
(0.019539 -0.063064 0.000574)
(0.020192 -0.062262 0.000639)
(0.090178 0.124301 0.000699)
(0.045102 0.196644 0.000753)
(-0.068759 0.086382 0.000800)
(-0.167357 0.034315 0.000835)
(0.229258 1.481303 -0.000227)
(-0.191305 -0.234025 -0.000382)
(-0.068312 0.222317 -0.000462)
(0.060781 1.759889 -0.000462)
(0.089595 2.622678 -0.000462)
(0.080403 1.539687 -0.000462)
(0.142431 -0.297314 -0.000462)
(0.820436 10.459112 -0.000462)
(3.131208 50.046452 -0.000462)
(-78.718577 -3.774394 -0.000267)
(752.919151 -1308.260948 -0.000267)
(-94.787830 -14.151015 -0.000073)
(-703.240010 1027.074193 -0.000267)
(13.788866 474.903311 -0.000073)
(23.272750 242.594855 -0.000073)
(7.545897 83.861437 -0.000073)
(1.113320 9.473375 -0.000073)
(4.173130 13.043339 -0.000073)
(2.520797 6.646952 -0.000073)
(0.201454 0.286361 -0.000073)
(0.522570 1.048700 -0.000073)
(4.099850 7.655372 -0.000030)
(2.158641 4.450201 0.000013)
(-0.278390 0.245919 0.000013)
(2.638735 3.771966 0.000013)
(0.111818 1.150767 0.000013)
(0.925629 2.018865 0.000013)
(1.424913 1.902375 0.000013)
(0.361427 0.625338 0.000013)
(1.501140 1.526022 0.000013)
(1.226891 1.158114 0.000013)
(2.401180 1.815193 0.000013)
(5.527756 3.225497 0.000013)
(9.790797 5.368596 0.000013)
(4.042439 3.313479 0.000013)
(-9.882912 -2.475917 0.000013)
(1.305269 0.254327 0.000013)
(7.244547 2.456384 0.000013)
(-3.622225 -0.747119 0.000013)
(3.857729 0.032395 0.000013)
(8.999240 -0.064766 0.000013)
(18.665465 -1.194886 0.000013)
(65.082411 -6.745703 0.000013)
(50.858644 -14.758941 0.000013)
(-100.924786 9.676761 0.000013)
(-108.719226 38.907872 0.000013)
(-21.731705 7.426146 0.000013)
(-5.323172 -23.753643 0.000013)
(26.669511 -20.137295 0.000013)
(17.125792 -10.361282 0.000013)
(-1.092615 -0.921158 0.000013)
(-0.211804 -1.408386 0.000013)
(0.216741 -1.674460 0.000013)
(0.838467 -1.361049 0.000013)
(3.170356 -2.614429 0.000013)
(3.897513 -3.096019 0.000013)
(3.025270 -2.255898 0.000013)
(1.893456 -1.237972 0.000013)
(1.492537 -1.036947 0.000013)
(1.063779 -0.804328 0.000013)
(0.690485 -0.606335 0.000013)
(0.397390 -0.424051 0.000013)
(0.198127 -0.271930 -0.000030)
(0.074641 -0.154196 -0.000073)
(0.002985 -0.067214 -0.000073)
(-0.034312 -0.007794 -0.000073)
(-0.050060 0.030189 -0.000073)
(-0.052740 0.051280 -0.000073)
(-0.046533 0.050472 -0.000073)
(-0.035898 0.034793 -0.000073)
(-0.026850 0.021456 -0.000073)
(-159.851611 0.009996 -0.000267)
(159.817948 0.027105 -0.000462)
(0.006976 -0.091243 -0.000267)
(-0.012805 -0.035803 -0.000267)
(-0.045744 0.150372 -0.000462)
(-0.017528 0.135791 -0.000462)
(-0.008262 0.119689 -0.000462)
(-0.004666 0.109145 -0.000462)
(-0.002933 0.104915 -0.000462)
(-0.001295 0.101706 -0.000462)
(-0.001471 0.096445 -0.000462)
(0.007579 0.130352 -0.000318)
(-0.000932 0.102231 -0.000166)
)
;
    }
}
