/*--------------------------------*- C++ -*---------------------------------*\ 
| ========                 |                                                 | 
| \      /  F ield         | OpenFOAM: The Open Source CFD Toolbox           | 
|  \    /   O peration     | Version:  v1812                                 | 
|   \  /    A nd           | Web:      www.OpenFOAM.com                      | 
|    \/     M anipulation  |                                                 | 
\*--------------------------------------------------------------------------*/ 
FoamFile
{
    version     2.0;
    format      ascii;
    class       volVectorField;
    location    "/home/james/dafoam/myRuns/bezier_coanda_opt/0.00000000001/";
    object      sens_CL_shapey;
}
// * * * * * * * * * * * * * * * * * * * * * * * * * * * * * * * * * * * * * //

dimensions      [0 0 0 0 0 0 0];
internalField   uniform (0 0 0);
boundaryField
{
    allWalls
    {
        type  wall;
        value nonuniform List<vector>
164
(
(-0.471073 0.072824 0.000905)
(-0.413529 0.065697 0.000975)
(0.313256 -0.262650 0.000995)
(0.382838 -0.260018 0.001020)
(-0.052107 0.039221 0.001049)
(-0.089133 0.065657 0.001083)
(-0.111205 0.223985 0.001120)
(-0.121345 0.293577 0.001163)
(-0.073968 0.228902 0.001209)
(-0.056494 0.223740 0.001261)
(-0.041899 0.211886 0.002217)
(-0.032529 0.208190 0.003274)
(-0.025731 0.212414 0.003541)
(-0.021034 0.226579 0.003827)
(-0.016583 0.242154 0.004124)
(-0.012422 0.265974 0.004424)
(-0.008060 0.299107 0.005887)
(-0.002901 0.348545 0.007706)
(0.004185 0.428074 0.008697)
(0.013141 0.475235 0.009257)
(0.022062 0.492111 0.008722)
(0.031702 0.539586 0.006250)
(0.038590 0.539875 0.003534)
(0.045280 0.536422 0.002203)
(0.054972 0.573916 0.001244)
(0.062497 0.584544 0.000464)
(0.070745 0.598494 -0.000045)
(0.079926 0.618461 -0.000394)
(0.096250 0.683628 -0.000622)
(0.118322 0.785746 -0.000911)
(0.127890 0.793754 -0.001051)
(0.132072 0.757350 -0.000935)
(0.143167 0.763281 -0.000827)
(0.155965 0.776139 -0.000726)
(0.170459 0.790036 -0.000759)
(0.196823 0.845191 -0.000816)
(0.203912 0.799475 -0.000617)
(0.129604 0.443261 -0.000396)
(-0.008404 -0.249302 -0.000302)
(0.299767 1.227493 -0.000238)
(-0.100202 0.137737 -0.000125)
(-0.092693 0.110727 -0.000301)
(0.022542 -0.043208 -0.000098)
(0.035433 -0.074851 -0.000052)
(0.001332 -0.023571 -0.000047)
(-0.021746 0.066616 0.000027)
(-0.023985 0.100849 0.000049)
(-0.025577 0.129860 -0.000101)
(-0.029293 0.167640 -0.000354)
(-0.031460 0.201757 0.000185)
(-0.033079 0.233754 0.000568)
(-0.033155 0.256601 0.000458)
(-0.032845 0.277344 0.000578)
(-0.031709 0.292107 0.000715)
(-0.030067 0.303739 0.001230)
(-0.027877 0.311727 0.001826)
(-0.025502 0.321568 0.002128)
(-0.022223 0.320718 0.002410)
(-0.021560 0.382121 0.002645)
(-0.017056 0.363785 0.002028)
(-0.009230 0.297151 0.001076)
(-0.004829 0.301073 0.000596)
(0.000411 0.269973 0.000164)
(0.004698 0.230522 -0.000156)
(0.007792 0.191886 0.000439)
(0.011506 0.179681 0.001170)
(0.015774 0.173913 0.001180)
(0.018969 0.157403 0.001207)
(0.020711 0.136489 0.001246)
(0.024202 0.130126 0.000738)
(0.029525 0.134881 0.000253)
(0.027276 0.104618 0.000339)
(0.031736 0.075537 0.000421)
(0.041730 0.037200 0.000497)
(0.019678 -0.062315 0.000568)
(0.020282 -0.061693 0.000634)
(0.089986 0.123608 0.000694)
(0.045443 0.195693 0.000748)
(-0.067689 0.086278 0.000796)
(-0.165923 0.034325 0.000831)
(0.228634 1.485028 -0.000269)
(-0.190861 -0.234501 -0.000392)
(-0.068191 0.222666 -0.000469)
(0.060587 1.761207 -0.000469)
(0.089300 2.623629 -0.000469)
(0.079966 1.538819 -0.000469)
(0.141798 -0.300478 -0.000469)
(0.819582 10.459385 -0.000469)
(3.130580 50.058038 -0.000469)
(-78.695919 -4.037989 -0.000270)
(751.746022 -1306.563496 -0.000469)
(-94.736175 -14.793590 -0.000270)
(-702.150976 1025.897132 -0.000270)
(13.822423 474.643364 -0.000072)
(23.275743 242.200261 -0.000072)
(7.576574 83.817817 -0.000072)
(1.141116 9.581531 -0.000072)
(4.174688 13.034552 -0.000072)
(2.525974 6.658288 -0.000072)
(0.202546 0.284780 -0.000072)
(0.526108 1.054694 -0.000072)
(4.094398 7.645172 -0.000029)
(2.152581 4.442422 0.000014)
(-0.274358 0.256964 0.000014)
(2.638517 3.779610 0.000014)
(0.112885 1.154261 0.000014)
(0.929295 2.023762 0.000014)
(1.421841 1.900300 0.000014)
(0.356298 0.620234 0.000014)
(1.496241 1.520060 0.000014)
(1.226650 1.156424 0.000014)
(2.408689 1.818131 0.000014)
(5.543350 3.232589 0.000014)
(9.803946 5.378840 0.000014)
(3.953375 3.280210 0.000014)
(-9.977450 -2.519685 0.000014)
(1.337561 0.259332 0.000014)
(7.175556 2.439267 0.000014)
(-3.759783 -0.780974 0.000014)
(3.755662 0.014556 0.000014)
(8.922850 -0.079746 0.000014)
(18.508093 -1.209731 0.000014)
(64.398021 -6.755018 0.000014)
(49.758580 -14.639859 0.000014)
(-99.999015 9.934586 0.000014)
(-107.138586 38.770370 0.000014)
(-21.547260 7.131975 0.000014)
(-5.089564 -23.750136 0.000014)
(26.622816 -20.017517 0.000014)
(16.926156 -10.243150 0.000014)
(-1.071442 -0.922142 0.000014)
(-0.175908 -1.419652 0.000014)
(0.224833 -1.658827 0.000014)
(0.843351 -1.349249 0.000014)
(3.165807 -2.606215 0.000014)
(3.879808 -3.084728 0.000014)
(3.002005 -2.244145 0.000014)
(1.873744 -1.232586 0.000014)
(1.474070 -1.034415 0.000014)
(1.047292 -0.804224 0.000014)
(0.675895 -0.608129 0.000014)
(0.384403 -0.426925 0.000014)
(0.186193 -0.276311 -0.000029)
(0.063942 -0.159232 -0.000072)
(-0.006037 -0.071259 -0.000072)
(-0.041759 -0.011096 -0.000072)
(-0.056151 0.027488 -0.000072)
(-0.057718 0.049078 -0.000072)
(-0.050634 0.048741 -0.000072)
(-0.039318 0.033488 -0.000072)
(-0.029709 0.020445 -0.000072)
(-159.853427 0.009437 -0.000270)
(159.816188 0.026821 -0.000270)
(-0.003803 -0.097611 -0.000072)
(-0.026712 -0.046517 -0.000270)
(-0.051967 0.143064 -0.000469)
(-0.020275 0.130933 -0.000469)
(-0.009731 0.116448 -0.000469)
(-0.005551 0.107277 -0.000469)
(-0.003514 0.103383 -0.000469)
(-0.001687 0.100390 -0.000469)
(-0.001750 0.095108 -0.000469)
(0.007359 0.128624 -0.000334)
(-0.001303 0.101728 -0.000065)
)
;
    }
}
