/*--------------------------------*- C++ -*---------------------------------*\ 
| ========                 |                                                 | 
| \      /  F ield         | OpenFOAM: The Open Source CFD Toolbox           | 
|  \    /   O peration     | Version:  v1812                                 | 
|   \  /    A nd           | Web:      www.OpenFOAM.com                      | 
|    \/     M anipulation  |                                                 | 
\*--------------------------------------------------------------------------*/ 
FoamFile
{
    version     2.0;
    format      ascii;
    class       volVectorField;
    location    "/home/james/dafoam/myRuns/bezier_coanda_opt/0.00000000001/";
    object      sens_CL_shapey;
}
// * * * * * * * * * * * * * * * * * * * * * * * * * * * * * * * * * * * * * //

dimensions      [0 0 0 0 0 0 0];
internalField   uniform (0 0 0);
boundaryField
{
    allWalls
    {
        type  wall;
        value nonuniform List<vector>
164
(
(-0.434782 0.062316 0.000939)
(-0.340661 0.054014 0.001006)
(0.214360 -0.185357 0.001028)
(0.280404 -0.188034 0.001055)
(0.001475 -0.018089 0.001087)
(-0.073506 0.056348 0.001122)
(-0.117521 0.229167 0.001162)
(-0.112168 0.276441 0.001207)
(-0.074775 0.231932 0.001257)
(-0.053860 0.217042 0.001311)
(-0.041575 0.213709 0.002231)
(-0.031619 0.206979 0.003261)
(-0.025203 0.213441 0.003547)
(-0.020418 0.227166 0.003854)
(-0.015945 0.242754 0.004173)
(-0.011743 0.267221 0.004495)
(-0.007335 0.300409 0.005926)
(-0.002060 0.351376 0.007702)
(0.005145 0.431430 0.008690)
(0.014143 0.477419 0.009242)
(0.022722 0.492216 0.008692)
(0.032132 0.539689 0.006353)
(0.039690 0.552114 0.003683)
(0.045140 0.535954 0.002863)
(0.054863 0.574226 0.001869)
(0.063203 0.597871 0.000435)
(0.070339 0.603140 -0.000639)
(0.080477 0.632451 -0.001003)
(0.092135 0.667286 -0.000696)
(0.115875 0.783490 -0.000841)
(0.129558 0.823537 -0.001013)
(0.129936 0.762941 -0.001065)
(0.140540 0.767627 -0.000933)
(0.153188 0.782817 -0.000810)
(0.167092 0.797120 -0.000763)
(0.191115 0.846947 -0.000750)
(0.198233 0.804428 -0.000595)
(0.132537 0.475221 -0.000379)
(0.007426 -0.173109 -0.000247)
(0.283514 1.182794 -0.000186)
(-0.103999 0.142890 -0.000224)
(-0.092738 0.109476 -0.000271)
(0.028697 -0.059913 -0.000063)
(0.039481 -0.088779 -0.000029)
(0.000696 -0.023048 -0.000023)
(-0.021452 0.064709 0.000033)
(-0.021991 0.090927 0.000058)
(-0.023611 0.119936 -0.000110)
(-0.027899 0.159400 -0.000435)
(-0.030386 0.193887 -0.000038)
(-0.032128 0.226085 0.000426)
(-0.032374 0.249538 0.000531)
(-0.032243 0.271203 0.000657)
(-0.031245 0.286750 0.000802)
(-0.029732 0.299214 0.001230)
(-0.027654 0.307932 0.001736)
(-0.025367 0.318431 0.002043)
(-0.022139 0.317871 0.002328)
(-0.021580 0.380909 0.002562)
(-0.017055 0.362332 0.001987)
(-0.009181 0.294915 0.001080)
(-0.004870 0.299903 0.000602)
(0.000343 0.269553 0.000167)
(0.004615 0.230501 -0.000158)
(0.007689 0.191386 0.000444)
(0.011431 0.179723 0.001174)
(0.015540 0.172544 0.001166)
(0.019175 0.159170 0.001176)
(0.021556 0.141964 0.001199)
(0.023037 0.125075 0.000730)
(0.028517 0.130338 0.000292)
(0.027826 0.107322 0.000377)
(0.031474 0.075560 0.000459)
(0.041327 0.037003 0.000535)
(0.019345 -0.062880 0.000606)
(0.019193 -0.064363 0.000672)
(0.089079 0.119836 0.000732)
(0.048647 0.192351 0.000786)
(-0.051352 0.084268 0.000833)
(-0.167172 0.028680 0.000868)
(0.210880 1.431526 -0.000242)
(-0.175207 -0.150512 -0.000392)
(-0.061553 0.284758 -0.000473)
(0.060603 1.780678 -0.000473)
(0.089467 2.654297 -0.000473)
(0.081183 1.618036 -0.000473)
(0.140948 -0.161284 -0.000473)
(0.810534 10.629712 -0.000473)
(3.094394 49.933344 -0.000473)
(-79.676794 -2.627190 -0.000274)
(781.706557 -1331.459241 -0.000473)
(-95.657394 -13.654236 -0.000274)
(-731.418197 1042.363043 -0.000274)
(14.763133 492.315023 -0.000074)
(24.233386 248.600419 -0.000074)
(8.070817 86.310296 -0.000074)
(1.274396 10.248622 -0.000074)
(4.222528 13.160866 -0.000074)
(2.527820 6.703370 -0.000074)
(0.054345 -0.114470 -0.000074)
(0.451440 0.838756 -0.000074)
(4.103480 7.629296 -0.000032)
(2.074739 4.318528 0.000011)
(-0.352762 0.165159 0.000011)
(2.711136 3.877315 0.000011)
(0.152067 1.216288 0.000011)
(0.914633 2.037930 0.000011)
(1.319383 1.791721 0.000011)
(0.265490 0.517141 0.000011)
(1.472171 1.473613 0.000011)
(1.248290 1.145573 0.000011)
(2.569095 1.895784 0.000011)
(5.873176 3.388743 0.000011)
(10.323109 5.664235 0.000011)
(3.469878 3.166914 0.000011)
(-11.196740 -2.986668 0.000011)
(1.486926 0.258693 0.000011)
(6.882878 2.391958 0.000011)
(-5.106222 -1.093736 0.000011)
(2.802535 -0.156752 0.000011)
(8.434741 -0.205512 0.000011)
(18.235674 -1.334064 0.000011)
(62.951649 -7.065435 0.000011)
(44.582999 -14.446007 0.000011)
(-98.525086 12.298554 0.000011)
(-101.357979 39.791711 0.000011)
(-20.899841 5.448145 0.000011)
(-3.276076 -24.954574 0.000011)
(27.446616 -20.236248 0.000011)
(15.659421 -9.839414 0.000011)
(-1.638287 -0.904869 0.000011)
(-0.127040 -1.623853 0.000011)
(0.208197 -1.655735 0.000011)
(0.872859 -1.313460 0.000011)
(3.304993 -2.645002 0.000011)
(4.040584 -3.147489 0.000011)
(3.044416 -2.209957 0.000011)
(1.869434 -1.183762 0.000011)
(1.509192 -1.041560 0.000011)
(1.058930 -0.788598 0.000011)
(0.675380 -0.581354 0.000011)
(0.386532 -0.407166 0.000011)
(0.190070 -0.259770 -0.000032)
(0.068338 -0.143523 -0.000074)
(-0.000857 -0.058640 -0.000074)
(-0.035784 -0.001425 -0.000074)
(-0.049814 0.035028 -0.000074)
(-0.051350 0.055086 -0.000074)
(-0.044486 0.053795 -0.000074)
(-0.033638 0.038076 -0.000074)
(-0.024566 0.024606 -0.000074)
(-159.849411 0.012205 -0.000274)
(159.819467 0.029339 -0.000274)
(0.017715 -0.072033 -0.000074)
(0.005006 -0.011969 -0.000274)
(-0.033771 0.160477 -0.000473)
(-0.012644 0.141874 -0.000473)
(-0.005942 0.123406 -0.000473)
(-0.003490 0.112402 -0.000473)
(-0.002299 0.108367 -0.000473)
(-0.000897 0.105608 -0.000473)
(-0.001380 0.100718 -0.000473)
(0.007551 0.137463 -0.000328)
(-0.002887 0.109614 -0.000175)
)
;
    }
}
