/*--------------------------------*- C++ -*---------------------------------*\ 
| ========                 |                                                 | 
| \      /  F ield         | OpenFOAM: The Open Source CFD Toolbox           | 
|  \    /   O peration     | Version:  v1812                                 | 
|   \  /    A nd           | Web:      www.OpenFOAM.com                      | 
|    \/     M anipulation  |                                                 | 
\*--------------------------------------------------------------------------*/ 
FoamFile
{
    version     2.0;
    format      ascii;
    class       volVectorField;
    location    "/home/james/dafoam/myRuns/bezier_coanda_opt/0.00000000001/";
    object      sens_CL_shapey;
}
// * * * * * * * * * * * * * * * * * * * * * * * * * * * * * * * * * * * * * //

dimensions      [0 0 0 0 0 0 0];
internalField   uniform (0 0 0);
boundaryField
{
    allWalls
    {
        type  wall;
        value nonuniform List<vector>
164
(
(-0.371691 0.057859 0.000944)
(-0.355820 0.068546 0.001013)
(0.130577 -0.141423 0.001035)
(0.267474 -0.184837 0.001063)
(0.005564 -0.011217 0.001094)
(-0.081263 0.070081 0.001131)
(-0.109065 0.217770 0.001171)
(-0.108115 0.267405 0.001217)
(-0.069764 0.219477 0.001267)
(-0.053008 0.216168 0.001322)
(-0.040687 0.211931 0.002238)
(-0.031219 0.207004 0.003264)
(-0.024807 0.213132 0.003551)
(-0.020115 0.227402 0.003858)
(-0.015628 0.243051 0.004177)
(-0.011420 0.267821 0.004499)
(-0.006978 0.301414 0.005969)
(-0.001644 0.353678 0.007776)
(0.005667 0.434006 0.008747)
(0.014727 0.479660 0.009283)
(0.023160 0.493043 0.008726)
(0.032579 0.541042 0.006788)
(0.040339 0.557772 0.004117)
(0.045412 0.540196 0.002234)
(0.055071 0.578401 0.001208)
(0.063614 0.604220 0.000392)
(0.070600 0.608924 -0.000698)
(0.080671 0.638789 -0.001431)
(0.092197 0.673838 -0.001146)
(0.115806 0.791101 -0.000953)
(0.129227 0.830781 -0.001041)
(0.129366 0.769244 -0.000844)
(0.140007 0.775237 -0.000619)
(0.152499 0.790908 -0.000619)
(0.165225 0.801078 -0.000662)
(0.187287 0.844838 -0.000662)
(0.196562 0.813707 -0.000619)
(0.138654 0.512469 -0.000619)
(0.021895 -0.102745 -0.000311)
(0.267109 1.116908 -0.000231)
(-0.103566 0.142132 -0.000405)
(-0.090993 0.106102 -0.000185)
(0.029957 -0.066406 0.000070)
(0.039007 -0.090100 0.000092)
(-0.001530 -0.015183 0.000091)
(-0.022694 0.070005 0.000132)
(-0.022396 0.092114 0.000146)
(-0.024088 0.121799 0.000358)
(-0.028473 0.162272 -0.000122)
(-0.030858 0.196569 -0.000151)
(-0.032490 0.228346 0.000430)
(-0.032667 0.251495 0.000588)
(-0.032467 0.272815 0.000685)
(-0.031413 0.288162 0.000796)
(-0.029850 0.300427 0.001194)
(-0.027752 0.308971 0.001696)
(-0.025443 0.319216 0.002015)
(-0.022209 0.318592 0.002311)
(-0.021600 0.380643 0.002548)
(-0.017063 0.362300 0.001989)
(-0.009210 0.295478 0.001105)
(-0.004879 0.299550 0.000639)
(0.000319 0.269056 0.000219)
(0.004566 0.229961 -0.000093)
(0.007628 0.190886 0.000469)
(0.011346 0.179188 0.001153)
(0.015419 0.171893 0.001146)
(0.019029 0.158582 0.001157)
(0.021405 0.141451 0.001181)
(0.022943 0.124786 0.000724)
(0.028338 0.129655 0.000295)
(0.027729 0.106880 0.000381)
(0.031259 0.075413 0.000462)
(0.040906 0.037432 0.000539)
(0.019595 -0.060175 0.000610)
(0.019117 -0.062676 0.000676)
(0.087017 0.115741 0.000736)
(0.047888 0.184477 0.000790)
(-0.047425 0.077467 0.000838)
(-0.135525 0.024540 0.000873)
(0.193731 1.362454 -0.000538)
(-0.161868 -0.065350 -0.000544)
(-0.056736 0.342258 -0.000469)
(0.059129 1.784414 -0.000469)
(0.087945 2.666280 -0.000469)
(0.080535 1.688532 -0.000469)
(0.137748 -0.019342 -0.000469)
(0.795426 10.719172 -0.000469)
(3.034892 49.498090 -0.000469)
(-80.286237 0.044020 -0.000273)
(815.722897 -1358.328664 -0.000273)
(-96.221484 -9.900182 -0.000076)
(-764.776091 1059.124897 -0.000273)
(15.685973 511.404237 -0.000076)
(25.206412 256.125880 -0.000076)
(8.493150 88.880324 -0.000076)
(1.316521 10.554587 -0.000076)
(4.243111 13.243042 -0.000076)
(2.492763 6.665795 -0.000076)
(-0.124182 -0.575311 -0.000076)
(0.346337 0.556990 -0.000076)
(4.096459 7.577531 -0.000033)
(1.978710 4.154894 0.000009)
(-0.479277 -0.016214 0.000009)
(2.769104 3.921092 0.000009)
(0.191601 1.269800 0.000009)
(0.855166 2.005666 0.000009)
(1.168534 1.631315 0.000009)
(0.152209 0.395476 0.000009)
(1.424210 1.415062 0.000009)
(1.237368 1.114850 0.000009)
(2.685029 1.949015 0.000009)
(6.124504 3.503084 0.000009)
(10.780948 5.906461 0.000009)
(3.180312 3.124961 0.000009)
(-12.301082 -3.387529 0.000009)
(1.332365 0.169261 0.000009)
(6.561953 2.327346 0.000009)
(-6.324226 -1.368593 0.000009)
(1.926190 -0.320644 0.000009)
(7.844927 -0.328494 0.000009)
(17.561419 -1.483746 0.000009)
(62.028811 -7.422394 0.000009)
(40.993561 -14.574137 0.000009)
(-101.017087 14.070120 0.000009)
(-100.257904 41.301824 0.000009)
(-19.318217 4.613472 0.000009)
(0.308915 -25.924276 0.000009)
(30.440617 -20.372515 0.000009)
(16.356844 -9.721741 0.000009)
(-1.248963 -0.993145 0.000009)
(0.135174 -1.688851 0.000009)
(0.263063 -1.583255 0.000009)
(0.909108 -1.305933 0.000009)
(3.320222 -2.720198 0.000009)
(3.939291 -3.198134 0.000009)
(2.885486 -2.217979 0.000009)
(1.716885 -1.157071 0.000009)
(1.412086 -1.019595 0.000009)
(1.012394 -0.781939 0.000009)
(0.654525 -0.578276 0.000009)
(0.377450 -0.402541 0.000009)
(0.185156 -0.252726 -0.000033)
(0.065022 -0.135862 -0.000076)
(-0.003162 -0.051842 -0.000076)
(-0.037332 0.003756 -0.000076)
(-0.050792 0.038371 -0.000076)
(-0.051915 0.056650 -0.000076)
(-0.044766 0.053862 -0.000076)
(-0.033823 0.037190 -0.000076)
(-0.024827 0.023364 -0.000076)
(-159.849480 0.011301 -0.000273)
(159.819672 0.028399 -0.000469)
(0.012574 -0.073089 -0.000273)
(-0.004551 -0.019632 -0.000273)
(-0.040337 0.148616 -0.000469)
(-0.016835 0.134377 -0.000469)
(-0.008651 0.117966 -0.000469)
(-0.005327 0.108204 -0.000469)
(-0.003581 0.104870 -0.000469)
(-0.001817 0.102710 -0.000469)
(-0.002122 0.098465 -0.000469)
(0.006890 0.135253 -0.000544)
(-0.003979 0.109130 -0.000619)
)
;
    }
}
