/*--------------------------------*- C++ -*---------------------------------*\ 
| ========                 |                                                 | 
| \      /  F ield         | OpenFOAM: The Open Source CFD Toolbox           | 
|  \    /   O peration     | Version:  v1812                                 | 
|   \  /    A nd           | Web:      www.OpenFOAM.com                      | 
|    \/     M anipulation  |                                                 | 
\*--------------------------------------------------------------------------*/ 
FoamFile
{
    version     2.0;
    format      ascii;
    class       volVectorField;
    location    "/home/james/dafoam/myRuns/bezier_coanda_opt/0.00000000001/";
    object      sens_CL_shapey;
}
// * * * * * * * * * * * * * * * * * * * * * * * * * * * * * * * * * * * * * //

dimensions      [0 0 0 0 0 0 0];
internalField   uniform (0 0 0);
boundaryField
{
    allWalls
    {
        type  wall;
        value nonuniform List<vector>
164
(
(-0.364799 0.052613 0.000604)
(-0.312581 0.057576 0.000450)
(0.134396 -0.132060 0.000393)
(0.218058 -0.147407 0.000548)
(-0.007740 -0.002186 0.000604)
(-0.072569 0.059951 0.000604)
(-0.110479 0.219110 0.000604)
(-0.104536 0.258962 0.000982)
(-0.066778 0.213716 0.001966)
(-0.052768 0.216356 0.002848)
(-0.040234 0.209963 0.003159)
(-0.031398 0.206720 0.003507)
(-0.024829 0.212781 0.004559)
(-0.020212 0.227380 0.005277)
(-0.015908 0.242938 0.005651)
(-0.011728 0.267957 0.006454)
(-0.007112 0.301822 0.008174)
(-0.001778 0.354237 0.008910)
(0.006065 0.435337 0.009313)
(0.015152 0.480716 0.009326)
(0.023155 0.494500 0.006602)
(0.032688 0.543664 0.004124)
(0.040382 0.559605 0.002828)
(0.045655 0.542723 0.001805)
(0.055415 0.581330 0.001026)
(0.064052 0.607170 0.000455)
(0.071214 0.612839 0.000080)
(0.081420 0.643059 -0.000056)
(0.093120 0.678357 -0.000056)
(0.117072 0.796718 -0.000056)
(0.130680 0.836613 -0.000056)
(0.130813 0.774495 -0.000281)
(0.141638 0.780876 -0.000506)
(0.154387 0.796869 -0.000506)
(0.167233 0.806544 -0.000506)
(0.188987 0.847880 -0.000506)
(0.198123 0.815915 -0.000400)
(0.142222 0.524061 -0.000294)
(0.027872 -0.077858 -0.000294)
(0.264006 1.089960 -0.000294)
(-0.104468 0.141941 -0.000294)
(-0.091719 0.106809 -0.000294)
(0.030549 -0.065714 -0.000294)
(0.040093 -0.092425 -0.000400)
(-0.000188 -0.020743 -0.000506)
(-0.021732 0.065199 -0.000506)
(-0.021627 0.088164 -0.000506)
(-0.023328 0.117603 -0.000506)
(-0.027759 0.157940 -0.000506)
(-0.030219 0.192470 -0.000280)
(-0.031949 0.224699 -0.000056)
(-0.032231 0.248324 -0.000056)
(-0.032123 0.270115 -0.000056)
(-0.031146 0.285926 -0.000056)
(-0.029639 0.298471 0.000922)
(-0.027581 0.307201 0.002047)
(-0.025318 0.317811 0.002341)
(-0.022112 0.317343 0.002629)
(-0.021558 0.380093 0.002890)
(-0.016435 0.361690 0.003441)
(-0.008664 0.294580 0.002711)
(-0.005055 0.299276 0.001265)
(0.000138 0.268914 0.000762)
(0.005077 0.229922 0.000715)
(0.008829 0.190808 0.000672)
(0.012556 0.179140 0.000295)
(0.016618 0.171802 0.000008)
(0.019547 0.158520 -0.000214)
(0.021898 0.141321 -0.000378)
(0.024103 0.124568 -0.000499)
(0.029008 0.129615 -0.000354)
(0.028336 0.106718 -0.000426)
(0.032018 0.075372 -0.000545)
(0.040367 0.036952 0.000106)
(0.018216 -0.061199 0.000604)
(0.018374 -0.063587 0.000282)
(0.086293 0.115765 0.000282)
(0.047000 0.184133 0.000604)
(-0.050262 0.075758 0.000604)
(-0.144849 0.022140 0.000604)
(0.189459 1.333763 -0.000294)
(-0.158551 -0.037481 -0.000384)
(-0.055475 0.359426 -0.000475)
(0.058992 1.782759 -0.000475)
(0.087964 2.668365 -0.000475)
(0.081001 1.712573 -0.000475)
(0.137651 0.031561 -0.000475)
(0.791670 10.744919 -0.000475)
(3.016488 49.336914 -0.000475)
(-80.519696 1.489941 -0.000276)
(828.201062 -1369.945789 -0.000276)
(-96.498185 -7.223385 -0.000077)
(-776.839547 1066.653807 -0.000276)
(15.848482 517.298103 -0.000077)
(25.465149 259.169507 -0.000077)
(8.528923 89.684098 -0.000077)
(1.256852 10.365273 -0.000077)
(4.241871 13.276437 -0.000077)
(2.466456 6.612219 -0.000077)
(-0.180268 -0.713386 -0.000077)
(0.307405 0.454337 -0.000077)
(4.106384 7.582330 -0.000034)
(1.962112 4.122495 0.000009)
(-0.521014 -0.083753 0.000009)
(2.782019 3.918492 0.000009)
(0.190845 1.268535 0.000009)
(0.830073 1.985905 0.000009)
(1.136359 1.596046 0.000009)
(0.128994 0.371143 0.000009)
(1.418624 1.408604 0.000009)
(1.234206 1.108449 0.000009)
(2.705091 1.957972 0.000009)
(6.174559 3.524688 0.000009)
(10.910324 5.964855 0.000009)
(3.303742 3.191298 0.000009)
(-12.432982 -3.417249 0.000009)
(1.263998 0.141306 0.000009)
(6.679299 2.361066 0.000009)
(-6.355407 -1.370441 0.000009)
(1.937690 -0.321146 0.000009)
(7.885427 -0.324333 0.000009)
(17.828891 -1.484723 0.000009)
(63.596427 -7.508412 0.000009)
(42.676553 -14.917457 0.000009)
(-103.923544 14.012399 0.000009)
(-103.713938 42.119312 0.000009)
(-19.834232 5.013774 0.000009)
(0.048137 -26.356311 0.000009)
(31.057925 -20.830868 0.000009)
(16.922060 -9.998297 0.000009)
(-1.161727 -1.000546 0.000009)
(0.246544 -1.684024 0.000009)
(0.396776 -1.570728 0.000009)
(1.025362 -1.228546 0.000009)
(3.515293 -2.658968 0.000009)
(4.216391 -3.190852 0.000009)
(3.138260 -2.216348 0.000009)
(1.904680 -1.157065 0.000009)
(1.539551 -1.027101 0.000009)
(1.080050 -0.776497 0.000009)
(0.688094 -0.569730 0.000009)
(0.393808 -0.396561 0.000009)
(0.193501 -0.249836 -0.000034)
(0.069898 -0.135163 -0.000077)
(0.000012 -0.052147 -0.000077)
(-0.035207 0.003332 -0.000077)
(-0.049371 0.038299 -0.000077)
(-0.050967 0.057131 -0.000077)
(-0.044129 0.054875 -0.000077)
(-0.033349 0.038516 -0.000077)
(-0.024397 0.024714 -0.000077)
(-159.849221 0.012202 -0.000276)
(159.819486 0.029401 -0.000475)
(0.014941 -0.070332 -0.000276)
(0.000121 -0.012858 -0.000276)
(-0.036938 0.156402 -0.000475)
(-0.014636 0.139342 -0.000475)
(-0.007276 0.121511 -0.000475)
(-0.004440 0.111121 -0.000475)
(-0.002936 0.107599 -0.000475)
(-0.001329 0.105223 -0.000475)
(-0.001785 0.101065 -0.000475)
(0.007150 0.138958 -0.000384)
(-0.003759 0.110870 -0.000294)
)
;
    }
}
