/*--------------------------------*- C++ -*---------------------------------*\ 
| ========                 |                                                 | 
| \      /  F ield         | OpenFOAM: The Open Source CFD Toolbox           | 
|  \    /   O peration     | Version:  v1812                                 | 
|   \  /    A nd           | Web:      www.OpenFOAM.com                      | 
|    \/     M anipulation  |                                                 | 
\*--------------------------------------------------------------------------*/ 
FoamFile
{
    version     2.0;
    format      ascii;
    class       volVectorField;
    location    "/home/james/dafoam/myRuns/bezier_coanda_opt/0.00000000001/";
    object      sens_CL_shapey;
}
// * * * * * * * * * * * * * * * * * * * * * * * * * * * * * * * * * * * * * //

dimensions      [0 0 0 0 0 0 0];
internalField   uniform (0 0 0);
boundaryField
{
    allWalls
    {
        type  wall;
        value nonuniform List<vector>
164
(
(-0.365194 0.052707 0.000604)
(-0.313659 0.057832 0.000450)
(0.134353 -0.132213 0.000394)
(0.219088 -0.148047 0.000548)
(-0.007073 -0.002918 0.000604)
(-0.072418 0.059570 0.000604)
(-0.110682 0.219377 0.000604)
(-0.104729 0.259367 0.000973)
(-0.066857 0.213904 0.001957)
(-0.052779 0.216390 0.002848)
(-0.040248 0.210064 0.003159)
(-0.031399 0.206774 0.003507)
(-0.024816 0.212779 0.004558)
(-0.020199 0.227399 0.005275)
(-0.015892 0.242938 0.005650)
(-0.011710 0.267952 0.006453)
(-0.007093 0.301804 0.008171)
(-0.001758 0.354198 0.008907)
(0.006085 0.435262 0.009321)
(0.015170 0.480631 0.009335)
(0.023166 0.494429 0.006601)
(0.032690 0.543526 0.004123)
(0.040373 0.559412 0.002828)
(0.045636 0.542512 0.001805)
(0.055393 0.581157 0.001026)
(0.064018 0.606972 0.000455)
(0.071161 0.612562 0.000081)
(0.081352 0.642768 -0.000055)
(0.093032 0.678020 -0.000055)
(0.116950 0.796270 -0.000055)
(0.130540 0.836155 -0.000055)
(0.130664 0.774087 -0.000280)
(0.141466 0.780450 -0.000506)
(0.154197 0.796449 -0.000506)
(0.167021 0.806134 -0.000506)
(0.188786 0.847643 -0.000506)
(0.197927 0.815789 -0.000400)
(0.141937 0.523440 -0.000294)
(0.027548 -0.079003 -0.000294)
(0.264073 1.091575 -0.000294)
(-0.104417 0.141937 -0.000294)
(-0.091634 0.106673 -0.000294)
(0.030553 -0.065960 -0.000294)
(0.040017 -0.092350 -0.000400)
(-0.000331 -0.020190 -0.000506)
(-0.021826 0.065637 -0.000506)
(-0.021688 0.088442 -0.000506)
(-0.023394 0.117928 -0.000506)
(-0.027825 0.158315 -0.000505)
(-0.030279 0.192842 -0.000280)
(-0.031992 0.224989 -0.000055)
(-0.032271 0.248614 -0.000055)
(-0.032160 0.270386 -0.000055)
(-0.031167 0.286100 -0.000055)
(-0.029659 0.298664 0.000923)
(-0.027598 0.307369 0.002047)
(-0.025328 0.317920 0.002341)
(-0.022121 0.317457 0.002629)
(-0.021564 0.380138 0.002890)
(-0.016438 0.361747 0.003453)
(-0.008666 0.294665 0.002723)
(-0.005056 0.299297 0.001264)
(0.000138 0.268927 0.000761)
(0.005077 0.229918 0.000718)
(0.008830 0.190818 0.000676)
(0.012554 0.179133 0.000296)
(0.016618 0.171807 0.000005)
(0.019544 0.158520 -0.000216)
(0.021897 0.141316 -0.000384)
(0.024109 0.124602 -0.000511)
(0.029007 0.129602 -0.000361)
(0.028346 0.106734 -0.000435)
(0.032021 0.075382 -0.000553)
(0.040370 0.036985 0.000106)
(0.018238 -0.061079 0.000604)
(0.018393 -0.063490 0.000283)
(0.086283 0.115696 0.000283)
(0.047008 0.184068 0.000604)
(-0.050184 0.075833 0.000604)
(-0.144757 0.022193 0.000604)
(0.189614 1.335411 -0.000294)
(-0.158647 -0.038762 -0.000384)
(-0.055523 0.358671 -0.000474)
(0.058978 1.782956 -0.000474)
(0.087936 2.668364 -0.000474)
(0.080942 1.711337 -0.000474)
(0.137610 0.028832 -0.000474)
(0.791785 10.743870 -0.000474)
(3.017373 49.345975 -0.000474)
(-80.506552 1.388122 -0.000276)
(827.481882 -1369.221026 -0.000276)
(-96.480522 -7.434581 -0.000077)
(-776.150441 1066.180838 -0.000276)
(15.845984 517.003164 -0.000077)
(25.454289 258.981314 -0.000077)
(8.531796 89.643403 -0.000077)
(1.263457 10.389149 -0.000077)
(4.242233 13.274305 -0.000077)
(2.468396 6.616662 -0.000077)
(-0.177703 -0.707470 -0.000077)
(0.309553 0.459790 -0.000077)
(4.105393 7.581216 -0.000034)
(1.962384 4.123432 0.000009)
(-0.518467 -0.079109 0.000009)
(2.781887 3.920070 0.000009)
(0.191585 1.269741 0.000009)
(0.831884 1.987758 0.000009)
(1.137460 1.597435 0.000009)
(0.129460 0.371599 0.000009)
(1.418473 1.408245 0.000009)
(1.234648 1.108738 0.000009)
(2.705518 1.958244 0.000009)
(6.174663 3.524928 0.000009)
(10.906527 5.963776 0.000009)
(3.288125 3.184724 0.000009)
(-12.437495 -3.420587 0.000009)
(1.271690 0.143667 0.000009)
(6.666735 2.357919 0.000009)
(-6.369932 -1.374246 0.000009)
(1.926379 -0.323163 0.000009)
(7.877984 -0.326163 0.000009)
(17.800850 -1.486675 0.000009)
(63.448470 -7.506483 0.000009)
(42.479545 -14.888759 0.000009)
(-103.679248 14.045567 0.000009)
(-103.380006 42.068556 0.000009)
(-19.790333 4.963855 0.000009)
(0.086819 -26.334679 0.000009)
(31.018706 -20.796544 0.000009)
(16.869833 -9.973489 0.000009)
(-1.172369 -1.001159 0.000009)
(0.233657 -1.688064 0.000009)
(0.379849 -1.572803 0.000009)
(1.012060 -1.231688 0.000009)
(3.504573 -2.660893 0.000009)
(4.206968 -3.190985 0.000009)
(3.130551 -2.215786 0.000009)
(1.899441 -1.157103 0.000009)
(1.535536 -1.026990 0.000009)
(1.077066 -0.776395 0.000009)
(0.685980 -0.569677 0.000009)
(0.392374 -0.396573 0.000009)
(0.192537 -0.249922 -0.000034)
(0.069243 -0.135323 -0.000077)
(-0.000446 -0.052367 -0.000077)
(-0.035539 0.003073 -0.000077)
(-0.049622 0.038022 -0.000077)
(-0.051171 0.056851 -0.000077)
(-0.044306 0.054615 -0.000077)
(-0.033513 0.038292 -0.000077)
(-0.024551 0.024519 -0.000077)
(-159.849319 0.012070 -0.000276)
(159.819386 0.029270 -0.000474)
(0.014379 -0.070970 -0.000276)
(-0.000768 -0.013969 -0.000276)
(-0.037544 0.155493 -0.000474)
(-0.014972 0.138787 -0.000474)
(-0.007476 0.121121 -0.000474)
(-0.004567 0.110819 -0.000474)
(-0.003025 0.107339 -0.000474)
(-0.001394 0.104996 -0.000474)
(-0.001833 0.100842 -0.000474)
(0.007116 0.138686 -0.000384)
(-0.003804 0.110775 -0.000294)
)
;
    }
}
