/*--------------------------------*- C++ -*---------------------------------*\ 
| ========                 |                                                 | 
| \      /  F ield         | OpenFOAM: The Open Source CFD Toolbox           | 
|  \    /   O peration     | Version:  v1812                                 | 
|   \  /    A nd           | Web:      www.OpenFOAM.com                      | 
|    \/     M anipulation  |                                                 | 
\*--------------------------------------------------------------------------*/ 
FoamFile
{
    version     2.0;
    format      ascii;
    class       volVectorField;
    location    "/home/james/dafoam/myRuns/bezier_coanda_opt/0.00000000001/";
    object      sens_CL_shapey;
}
// * * * * * * * * * * * * * * * * * * * * * * * * * * * * * * * * * * * * * //

dimensions      [0 0 0 0 0 0 0];
internalField   uniform (0 0 0);
boundaryField
{
    allWalls
    {
        type  wall;
        value nonuniform List<vector>
164
(
(-0.484358 0.074220 0.000909)
(-0.409515 0.061968 0.000980)
(0.335109 -0.276568 0.001000)
(0.393803 -0.271092 0.001024)
(-0.051935 0.037175 0.001053)
(-0.096708 0.077207 0.001085)
(-0.118225 0.236612 0.001122)
(-0.120317 0.290461 0.001163)
(-0.073904 0.228766 0.001209)
(-0.056663 0.222536 0.001259)
(-0.041866 0.211390 0.002208)
(-0.032991 0.208658 0.003259)
(-0.025758 0.211176 0.003526)
(-0.021427 0.227219 0.003812)
(-0.016781 0.241307 0.004110)
(-0.012758 0.266224 0.004411)
(-0.008353 0.298575 0.005897)
(-0.003247 0.348305 0.007744)
(0.003813 0.427608 0.008744)
(0.012784 0.475273 0.009314)
(0.021718 0.492271 0.008782)
(0.031364 0.539931 0.006438)
(0.038304 0.539851 0.003761)
(0.045146 0.535937 0.002946)
(0.054808 0.572148 0.001939)
(0.062329 0.582767 0.000488)
(0.070769 0.597231 -0.000619)
(0.080359 0.618585 -0.000992)
(0.102510 0.726529 -0.000669)
(0.119711 0.793901 -0.000820)
(0.122623 0.751118 -0.001000)
(0.133007 0.753044 -0.001058)
(0.146088 0.768684 -0.000924)
(0.158630 0.778549 -0.000800)
(0.173390 0.792191 -0.000750)
(0.200227 0.847079 -0.000735)
(0.207172 0.799493 -0.000581)
(0.130836 0.438548 -0.000354)
(-0.010572 -0.262895 -0.000212)
(0.304301 1.229179 -0.000150)
(-0.100329 0.136852 -0.000211)
(-0.093646 0.112323 -0.000263)
(0.022003 -0.038720 -0.000040)
(0.036101 -0.074075 -0.000005)
(0.003241 -0.029318 0.000001)
(-0.020470 0.061709 0.000060)
(-0.023182 0.097737 0.000085)
(-0.024742 0.126287 -0.000082)
(-0.028653 0.163802 -0.000413)
(-0.031137 0.198327 -0.000009)
(-0.032887 0.230726 0.000459)
(-0.033064 0.253954 0.000560)
(-0.032834 0.275127 0.000683)
(-0.031747 0.290238 0.000824)
(-0.030151 0.302269 0.001265)
(-0.027996 0.310564 0.001791)
(-0.025638 0.320661 0.002102)
(-0.022358 0.319940 0.002391)
(-0.021712 0.382064 0.002629)
(-0.017127 0.363604 0.002041)
(-0.009211 0.296627 0.001117)
(-0.004825 0.301209 0.000633)
(0.000424 0.270134 0.000197)
(0.004724 0.230717 -0.000127)
(0.007821 0.192069 0.000449)
(0.011549 0.179872 0.001162)
(0.015830 0.174148 0.001172)
(0.019025 0.157531 0.001199)
(0.020757 0.136564 0.001237)
(0.024206 0.130089 0.000737)
(0.029575 0.135098 0.000259)
(0.027258 0.104676 0.000344)
(0.031810 0.075592 0.000426)
(0.041852 0.036965 0.000502)
(0.019511 -0.063621 0.000573)
(0.020337 -0.062350 0.000638)
(0.090604 0.125592 0.000698)
(0.044729 0.198414 0.000752)
(-0.070372 0.087577 0.000799)
(-0.173068 0.035390 0.000834)
(0.232991 1.489189 -0.000215)
(-0.194598 -0.249317 -0.000377)
(-0.069659 0.210538 -0.000460)
(0.060891 1.755893 -0.000460)
(0.089740 2.617099 -0.000460)
(0.080429 1.525982 -0.000460)
(0.142933 -0.321387 -0.000460)
(0.822714 10.429458 -0.000460)
(3.139165 50.076578 -0.000460)
(-78.573048 -3.915505 -0.000266)
(748.400820 -1305.024609 -0.000266)
(-94.673460 -14.073969 -0.000071)
(-698.797756 1025.016185 -0.000266)
(13.612125 472.039258 -0.000071)
(23.109133 241.714935 -0.000071)
(7.447526 83.466785 -0.000071)
(1.077616 9.308768 -0.000071)
(4.165406 13.029436 -0.000071)
(2.519381 6.637770 -0.000071)
(0.228245 0.360876 -0.000071)
(0.535049 1.086569 -0.000071)
(4.102628 7.666279 -0.000030)
(2.178314 4.480781 0.000012)
(-0.262656 0.261573 0.000012)
(2.629329 3.754157 0.000012)
(0.095325 1.127732 0.000012)
(0.933839 2.020136 0.000012)
(1.536820 2.006646 0.000012)
(0.440563 0.703307 0.000012)
(1.205968 1.319539 0.000012)
(0.912010 0.931195 0.000012)
(2.954544 2.136736 0.000012)
(5.351295 3.182384 0.000012)
(9.685086 5.260704 0.000012)
(4.255838 3.425682 0.000012)
(-9.759592 -2.453971 0.000012)
(1.361113 0.306588 0.000012)
(7.226610 2.429786 0.000012)
(-3.244232 -0.646079 0.000012)
(3.990380 0.052993 0.000012)
(9.168804 -0.025363 0.000012)
(18.768486 -1.166684 0.000012)
(65.781198 -6.673463 0.000012)
(52.428927 -14.848344 0.000012)
(-101.637997 9.109727 0.000012)
(-110.609509 38.792804 0.000012)
(-21.897117 7.890352 0.000012)
(-5.715084 -23.544060 0.000012)
(26.507870 -20.175067 0.000012)
(17.351670 -10.483910 0.000012)
(-1.090570 -0.911158 0.000012)
(-0.241346 -1.372272 0.000012)
(0.226593 -1.685077 0.000012)
(0.836307 -1.371016 0.000012)
(3.153320 -2.609371 0.000012)
(3.891675 -3.095513 0.000012)
(3.030980 -2.263598 0.000012)
(1.901693 -1.246426 0.000012)
(1.502627 -1.046431 0.000012)
(1.070102 -0.810148 0.000012)
(0.694974 -0.609938 0.000012)
(0.401051 -0.426671 0.000012)
(0.201236 -0.273749 -0.000030)
(0.077143 -0.155172 -0.000071)
(0.004874 -0.067459 -0.000071)
(-0.032927 -0.007464 -0.000071)
(-0.049022 0.030949 -0.000071)
(-0.051818 0.052007 -0.000071)
(-0.045623 0.051119 -0.000071)
(-0.035117 0.035523 -0.000071)
(-0.026181 0.022126 -0.000071)
(-159.851246 0.010464 -0.000266)
(159.818547 0.027596 -0.000460)
(0.010736 -0.089141 -0.000266)
(-0.007797 -0.032219 -0.000266)
(-0.043484 0.153026 -0.000460)
(-0.016572 0.137028 -0.000460)
(-0.007778 0.120514 -0.000460)
(-0.004383 0.109711 -0.000460)
(-0.002756 0.105328 -0.000460)
(-0.001189 0.101979 -0.000460)
(-0.001379 0.096748 -0.000460)
(0.007637 0.130591 -0.000313)
(-0.000539 0.101561 -0.000156)
)
;
    }
}
