/*--------------------------------*- C++ -*---------------------------------*\ 
| ========                 |                                                 | 
| \      /  F ield         | OpenFOAM: The Open Source CFD Toolbox           | 
|  \    /   O peration     | Version:  v1812                                 | 
|   \  /    A nd           | Web:      www.OpenFOAM.com                      | 
|    \/     M anipulation  |                                                 | 
\*--------------------------------------------------------------------------*/ 
FoamFile
{
    version     2.0;
    format      ascii;
    class       volVectorField;
    location    "/home/james/dafoam/myRuns/bezier_coanda_opt/0.00000000001/";
    object      sens_CL_shapey;
}
// * * * * * * * * * * * * * * * * * * * * * * * * * * * * * * * * * * * * * //

dimensions      [0 0 0 0 0 0 0];
internalField   uniform (0 0 0);
boundaryField
{
    allWalls
    {
        type  wall;
        value nonuniform List<vector>
164
(
(-0.477441 0.073349 0.000910)
(-0.408924 0.063039 0.000981)
(0.325428 -0.270056 0.001001)
(0.387410 -0.265500 0.001025)
(-0.052021 0.037907 0.001054)
(-0.094584 0.074528 0.001087)
(-0.116134 0.232832 0.001123)
(-0.119920 0.289780 0.001165)
(-0.073852 0.228941 0.001211)
(-0.056490 0.222237 0.001261)
(-0.041757 0.211310 0.002217)
(-0.032908 0.208658 0.003274)
(-0.025680 0.211216 0.003536)
(-0.021351 0.227286 0.003817)
(-0.016699 0.241363 0.004110)
(-0.012674 0.266323 0.004405)
(-0.008262 0.298712 0.005894)
(-0.003148 0.348576 0.007744)
(0.003928 0.427930 0.008744)
(0.012900 0.475462 0.009312)
(0.021808 0.492313 0.008779)
(0.031435 0.540032 0.006433)
(0.038364 0.540180 0.003759)
(0.045187 0.536358 0.002943)
(0.054833 0.572687 0.001933)
(0.062328 0.583350 0.000483)
(0.070728 0.597735 -0.000610)
(0.080289 0.619164 -0.000985)
(0.102358 0.726996 -0.000679)
(0.119498 0.794369 -0.000831)
(0.122382 0.751676 -0.001010)
(0.132694 0.753527 -0.001064)
(0.145706 0.769173 -0.000928)
(0.158187 0.779100 -0.000802)
(0.172895 0.792909 -0.000751)
(0.199456 0.847243 -0.000736)
(0.206396 0.799989 -0.000580)
(0.131072 0.441996 -0.000360)
(-0.008783 -0.254364 -0.000227)
(0.302275 1.224336 -0.000166)
(-0.100506 0.137293 -0.000208)
(-0.093468 0.111987 -0.000263)
(0.022496 -0.040406 -0.000048)
(0.036288 -0.075100 -0.000013)
(0.002959 -0.028580 -0.000005)
(-0.020610 0.062251 0.000054)
(-0.023160 0.097625 0.000080)
(-0.024725 0.126237 -0.000090)
(-0.028655 0.163880 -0.000423)
(-0.031122 0.198327 -0.000016)
(-0.032865 0.230678 0.000459)
(-0.033043 0.253892 0.000566)
(-0.032809 0.275037 0.000694)
(-0.031727 0.290165 0.000840)
(-0.030130 0.302173 0.001272)
(-0.027978 0.310478 0.001786)
(-0.025623 0.320570 0.002099)
(-0.022345 0.319854 0.002391)
(-0.021703 0.381977 0.002632)
(-0.017121 0.363507 0.002043)
(-0.009210 0.296548 0.001117)
(-0.004828 0.301091 0.000634)
(0.000417 0.270072 0.000197)
(0.004714 0.230669 -0.000126)
(0.007810 0.191995 0.000442)
(0.011536 0.179826 0.001152)
(0.015811 0.174076 0.001168)
(0.019012 0.157514 0.001201)
(0.020737 0.136513 0.001245)
(0.024197 0.130063 0.000742)
(0.029562 0.135079 0.000259)
(0.027246 0.104654 0.000345)
(0.031764 0.075549 0.000426)
(0.041779 0.036934 0.000502)
(0.019499 -0.063474 0.000573)
(0.020236 -0.062431 0.000639)
(0.090404 0.124996 0.000699)
(0.044923 0.197594 0.000752)
(-0.069584 0.086896 0.000800)
(-0.170094 0.034762 0.000835)
(0.230819 1.483296 -0.000220)
(-0.192721 -0.239724 -0.000374)
(-0.068876 0.217623 -0.000461)
(0.060857 1.757852 -0.000461)
(0.089711 2.620193 -0.000461)
(0.080508 1.534592 -0.000461)
(0.142772 -0.305759 -0.000461)
(0.821511 10.446931 -0.000461)
(3.134215 50.053883 -0.000461)
(-78.667330 -3.757463 -0.000266)
(751.455429 -1307.398862 -0.000266)
(-94.751790 -13.947108 -0.000072)
(-701.783468 1026.547580 -0.000266)
(13.708621 473.832799 -0.000072)
(23.206533 242.347801 -0.000072)
(7.498412 83.714303 -0.000072)
(1.091934 9.378930 -0.000072)
(4.169497 13.038070 -0.000072)
(2.518630 6.637832 -0.000072)
(0.211854 0.315472 -0.000072)
(0.526332 1.060893 -0.000072)
(4.101826 7.660978 -0.000030)
(2.167033 4.462907 0.000012)
(-0.275376 0.246271 0.000012)
(2.632659 3.760214 0.000012)
(0.106875 1.142980 0.000012)
(0.923988 2.014542 0.000012)
(1.433482 1.910939 0.000012)
(0.369486 0.634319 0.000012)
(1.503996 1.531182 0.000012)
(1.224177 1.158705 0.000012)
(2.384752 1.807150 0.000012)
(5.495275 3.209896 0.000012)
(9.744981 5.341749 0.000012)
(4.119339 3.336658 0.000012)
(-9.749156 -2.421674 0.000012)
(1.271513 0.249021 0.000012)
(7.293100 2.465631 0.000012)
(-3.462322 -0.708872 0.000012)
(3.960032 0.051677 0.000012)
(9.053693 -0.049523 0.000012)
(18.760818 -1.177578 0.000012)
(65.532820 -6.714160 0.000012)
(51.775222 -14.825834 0.000012)
(-101.476114 9.382206 0.000012)
(-109.902804 38.900254 0.000012)
(-21.836170 7.690461 0.000012)
(-5.532232 -23.671572 0.000012)
(26.627521 -20.183641 0.000012)
(17.284260 -10.440950 0.000012)
(-1.079236 -0.915697 0.000012)
(-0.216830 -1.388185 0.000012)
(0.229800 -1.679491 0.000012)
(0.842425 -1.365806 0.000012)
(3.167048 -2.612864 0.000012)
(3.899959 -3.097407 0.000012)
(3.033855 -2.262459 0.000012)
(1.900612 -1.242850 0.000012)
(1.498659 -1.040633 0.000012)
(1.068575 -0.807124 0.000012)
(0.694097 -0.608212 0.000012)
(0.400165 -0.425293 0.000012)
(0.200343 -0.272671 -0.000030)
(0.076354 -0.154403 -0.000072)
(0.004269 -0.066951 -0.000072)
(-0.033348 -0.007183 -0.000072)
(-0.049301 0.031053 -0.000072)
(-0.052003 0.051988 -0.000072)
(-0.045752 0.051046 -0.000072)
(-0.035226 0.035463 -0.000072)
(-0.026286 0.022091 -0.000072)
(-159.851266 0.010449 -0.000266)
(159.818422 0.027568 -0.000461)
(0.009830 -0.088923 -0.000266)
(-0.008718 -0.032032 -0.000266)
(-0.043522 0.153042 -0.000461)
(-0.016510 0.137165 -0.000461)
(-0.007724 0.120604 -0.000461)
(-0.004348 0.109810 -0.000461)
(-0.002727 0.105444 -0.000461)
(-0.001160 0.102129 -0.000461)
(-0.001367 0.096888 -0.000461)
(0.007641 0.130861 -0.000310)
(-0.000720 0.102083 -0.000150)
)
;
    }
}
