/*--------------------------------*- C++ -*---------------------------------*\ 
| ========                 |                                                 | 
| \      /  F ield         | OpenFOAM: The Open Source CFD Toolbox           | 
|  \    /   O peration     | Version:  v1812                                 | 
|   \  /    A nd           | Web:      www.OpenFOAM.com                      | 
|    \/     M anipulation  |                                                 | 
\*--------------------------------------------------------------------------*/ 
FoamFile
{
    version     2.0;
    format      ascii;
    class       volVectorField;
    location    "/home/james/dafoam/myRuns/bezier_coanda_opt/0.00000000001/";
    object      sens_CL_shapey;
}
// * * * * * * * * * * * * * * * * * * * * * * * * * * * * * * * * * * * * * //

dimensions      [0 0 0 0 0 0 0];
internalField   uniform (0 0 0);
boundaryField
{
    allWalls
    {
        type  wall;
        value nonuniform List<vector>
164
(
(-0.469859 0.072750 0.000904)
(-0.415094 0.066390 0.000974)
(0.310753 -0.261207 0.000995)
(0.382635 -0.259321 0.001020)
(-0.051572 0.038839 0.001049)
(-0.088171 0.064027 0.001083)
(-0.110570 0.222799 0.001120)
(-0.121519 0.293957 0.001163)
(-0.074096 0.229341 0.001209)
(-0.056502 0.223848 0.001261)
(-0.041876 0.211966 0.002216)
(-0.032507 0.208291 0.003274)
(-0.025686 0.212410 0.003540)
(-0.020989 0.226616 0.003826)
(-0.016533 0.242161 0.004123)
(-0.012369 0.265969 0.004423)
(-0.008003 0.299105 0.005885)
(-0.002841 0.348537 0.007703)
(0.004248 0.427980 0.008693)
(0.013196 0.475063 0.009252)
(0.022100 0.491918 0.008717)
(0.031716 0.539288 0.006246)
(0.038719 0.541325 0.003535)
(0.045090 0.534464 0.002204)
(0.054853 0.572539 0.001246)
(0.062594 0.586041 0.000469)
(0.070599 0.597760 -0.000040)
(0.079864 0.618684 -0.000389)
(0.095760 0.681048 -0.000616)
(0.117989 0.784523 -0.000909)
(0.127901 0.795267 -0.001054)
(0.131726 0.756778 -0.000938)
(0.142719 0.762410 -0.000830)
(0.155489 0.775427 -0.000728)
(0.169949 0.789469 -0.000760)
(0.196226 0.844652 -0.000815)
(0.203323 0.799200 -0.000618)
(0.129183 0.443106 -0.000398)
(-0.008471 -0.248966 -0.000302)
(0.299292 1.228821 -0.000238)
(-0.099658 0.137798 -0.000124)
(-0.092277 0.110385 -0.000301)
(0.022202 -0.043289 -0.000098)
(0.034890 -0.073618 -0.000052)
(0.000767 -0.021123 -0.000047)
(-0.022140 0.068784 0.000028)
(-0.024331 0.102860 0.000050)
(-0.025926 0.131982 -0.000102)
(-0.029610 0.169722 -0.000357)
(-0.031723 0.203626 0.000184)
(-0.033289 0.235364 0.000569)
(-0.033327 0.258012 0.000459)
(-0.032976 0.278506 0.000579)
(-0.031805 0.293027 0.000716)
(-0.030137 0.304480 0.001232)
(-0.027929 0.312335 0.001829)
(-0.025537 0.322017 0.002131)
(-0.022248 0.321092 0.002412)
(-0.021566 0.382157 0.002646)
(-0.017056 0.363885 0.002027)
(-0.009235 0.297421 0.001072)
(-0.004824 0.301068 0.000593)
(0.000414 0.269896 0.000162)
(0.004697 0.230436 -0.000158)
(0.007789 0.191824 0.000438)
(0.011498 0.179590 0.001168)
(0.015762 0.173827 0.001179)
(0.018955 0.157336 0.001206)
(0.020707 0.136487 0.001244)
(0.024192 0.130089 0.000738)
(0.029508 0.134777 0.000253)
(0.027286 0.104595 0.000339)
(0.031724 0.075500 0.000420)
(0.041724 0.037311 0.000497)
(0.019738 -0.061880 0.000568)
(0.020328 -0.061325 0.000634)
(0.089845 0.123223 0.000694)
(0.045458 0.195096 0.000748)
(-0.067316 0.086136 0.000795)
(-0.164943 0.034243 0.000830)
(0.228282 1.486069 -0.000270)
(-0.190496 -0.234181 -0.000393)
(-0.068049 0.223314 -0.000468)
(0.060550 1.761891 -0.000468)
(0.089233 2.624104 -0.000468)
(0.079878 1.539008 -0.000468)
(0.141646 -0.300583 -0.000468)
(0.819285 10.460491 -0.000468)
(3.130011 50.057744 -0.000468)
(-78.687419 -4.137240 -0.000270)
(751.415706 -1305.940924 -0.000468)
(-94.715109 -15.049735 -0.000270)
(-701.854717 1025.440011 -0.000270)
(13.844894 474.649415 -0.000072)
(23.283828 242.070379 -0.000072)
(7.593661 83.815718 -0.000072)
(1.153994 9.632843 -0.000072)
(4.175599 13.032379 -0.000072)
(2.528175 6.664655 -0.000072)
(0.201679 0.281332 -0.000072)
(0.526846 1.055975 -0.000072)
(4.091884 7.640643 -0.000029)
(2.149233 4.437578 0.000014)
(-0.273473 0.260248 0.000014)
(2.639556 3.783651 0.000014)
(0.114929 1.157282 0.000014)
(0.930881 2.025886 0.000014)
(1.419311 1.897794 0.000014)
(0.353994 0.617622 0.000014)
(1.494756 1.517870 0.000014)
(1.227281 1.156151 0.000014)
(2.413320 1.820361 0.000014)
(5.552258 3.236950 0.000014)
(9.812543 5.385294 0.000014)
(3.909810 3.264740 0.000014)
(-10.027505 -2.541596 0.000014)
(1.352108 0.262141 0.000014)
(7.140700 2.431379 0.000014)
(-3.831727 -0.798334 0.000014)
(3.702275 0.005127 0.000014)
(8.883603 -0.087623 0.000014)
(18.430804 -1.217519 0.000014)
(64.070842 -6.761431 0.000014)
(49.221255 -14.584208 0.000014)
(-99.569556 10.067433 0.000014)
(-106.382976 38.714507 0.000014)
(-21.457644 6.987503 0.000014)
(-4.969573 -23.755601 0.000014)
(26.611464 -19.963802 0.000014)
(16.837206 -10.187455 0.000014)
(-1.055602 -0.923079 0.000014)
(-0.153049 -1.425863 0.000014)
(0.233364 -1.651558 0.000014)
(0.849978 -1.343558 0.000014)
(3.167332 -2.602568 0.000014)
(3.874027 -3.080044 0.000014)
(2.992757 -2.239400 0.000014)
(1.865481 -1.230706 0.000014)
(1.465826 -1.033993 0.000014)
(1.039226 -0.805329 0.000014)
(0.667895 -0.611013 0.000014)
(0.376268 -0.431588 0.000014)
(0.177351 -0.281581 -0.000029)
(0.054215 -0.163181 -0.000072)
(-0.015735 -0.073062 -0.000072)
(-0.050011 -0.011825 -0.000072)
(-0.062427 0.026786 -0.000072)
(-0.062339 0.048264 -0.000072)
(-0.054033 0.047862 -0.000072)
(-0.041825 0.032574 -0.000072)
(-0.031602 0.019613 -0.000072)
(-159.854551 0.008921 -0.000270)
(159.815260 0.026254 -0.000270)
(-0.011996 -0.099354 -0.000072)
(-0.035753 -0.049513 -0.000270)
(-0.054060 0.140299 -0.000468)
(-0.021121 0.129230 -0.000468)
(-0.010130 0.115288 -0.000468)
(-0.005753 0.106287 -0.000468)
(-0.003644 0.102402 -0.000468)
(-0.001777 0.099443 -0.000468)
(-0.001800 0.094045 -0.000468)
(0.007345 0.126977 -0.000335)
(-0.001306 0.101004 -0.000067)
)
;
    }
}
