/*--------------------------------*- C++ -*---------------------------------*\ 
| ========                 |                                                 | 
| \      /  F ield         | OpenFOAM: The Open Source CFD Toolbox           | 
|  \    /   O peration     | Version:  v1812                                 | 
|   \  /    A nd           | Web:      www.OpenFOAM.com                      | 
|    \/     M anipulation  |                                                 | 
\*--------------------------------------------------------------------------*/ 
FoamFile
{
    version     2.0;
    format      ascii;
    class       volVectorField;
    location    "/home/james/dafoam/myRuns/bezier_coanda_opt/0.00000000001/";
    object      sens_CL_shapey;
}
// * * * * * * * * * * * * * * * * * * * * * * * * * * * * * * * * * * * * * //

dimensions      [0 0 0 0 0 0 0];
internalField   uniform (0 0 0);
boundaryField
{
    allWalls
    {
        type  wall;
        value nonuniform List<vector>
164
(
(-0.496986 0.075782 0.000907)
(-0.410191 0.059841 0.000978)
(0.352911 -0.288538 0.000998)
(0.405172 -0.281080 0.001022)
(-0.052843 0.037357 0.001050)
(-0.100345 0.081535 0.001083)
(-0.120958 0.241676 0.001119)
(-0.121125 0.291876 0.001160)
(-0.074086 0.228729 0.001206)
(-0.057034 0.223322 0.001256)
(-0.042067 0.211557 0.002202)
(-0.033127 0.208577 0.003249)
(-0.025893 0.211101 0.003515)
(-0.021560 0.227092 0.003800)
(-0.016920 0.241160 0.004098)
(-0.012905 0.266041 0.004399)
(-0.008509 0.298296 0.005894)
(-0.003418 0.347762 0.007749)
(0.003613 0.426969 0.008749)
(0.012581 0.474795 0.009321)
(0.021551 0.491958 0.008792)
(0.031226 0.539497 0.006463)
(0.038175 0.538944 0.003790)
(0.045026 0.534611 0.002977)
(0.054667 0.570180 0.001965)
(0.062245 0.580883 0.000496)
(0.070796 0.595771 -0.000612)
(0.081364 0.623794 -0.000989)
(0.104773 0.742033 -0.000672)
(0.119492 0.791250 -0.000826)
(0.120472 0.732620 -0.001002)
(0.132930 0.747536 -0.001054)
(0.147028 0.769025 -0.000922)
(0.159439 0.777590 -0.000798)
(0.174291 0.791014 -0.000751)
(0.201565 0.846704 -0.000740)
(0.208496 0.798484 -0.000583)
(0.130363 0.432324 -0.000354)
(-0.013737 -0.277923 -0.000211)
(0.307818 1.237731 -0.000149)
(-0.100081 0.135998 -0.000216)
(-0.094040 0.112864 -0.000270)
(0.021117 -0.035835 -0.000043)
(0.035786 -0.072387 -0.000007)
(0.003721 -0.030688 -0.000000)
(-0.020241 0.060631 0.000060)
(-0.023219 0.097697 0.000085)
(-0.024773 0.126138 -0.000079)
(-0.028660 0.163477 -0.000411)
(-0.031159 0.198075 -0.000005)
(-0.032929 0.230668 0.000465)
(-0.033113 0.254032 0.000568)
(-0.032869 0.275216 0.000692)
(-0.031785 0.290418 0.000834)
(-0.030183 0.302441 0.001275)
(-0.028026 0.310744 0.001801)
(-0.025669 0.320855 0.002116)
(-0.022383 0.320116 0.002409)
(-0.021737 0.382301 0.002650)
(-0.017142 0.363811 0.002058)
(-0.009214 0.296809 0.001128)
(-0.004821 0.301459 0.000644)
(0.000435 0.270298 0.000209)
(0.004743 0.230841 -0.000113)
(0.007842 0.192215 0.000452)
(0.011575 0.180004 0.001153)
(0.015861 0.174284 0.001163)
(0.019056 0.157612 0.001190)
(0.020788 0.136646 0.001229)
(0.024218 0.130102 0.000732)
(0.029613 0.135191 0.000257)
(0.027295 0.104768 0.000343)
(0.031900 0.075717 0.000424)
(0.041972 0.037048 0.000500)
(0.019567 -0.063759 0.000571)
(0.020556 -0.062090 0.000637)
(0.090927 0.126592 0.000696)
(0.044378 0.199793 0.000750)
(-0.071810 0.088813 0.000797)
(-0.178683 0.036572 0.000832)
(0.236776 1.499621 -0.000214)
(-0.197851 -0.265962 -0.000377)
(-0.071045 0.197858 -0.000460)
(0.060906 1.752098 -0.000460)
(0.089755 2.611453 -0.000460)
(0.080251 1.510295 -0.000460)
(0.143223 -0.349575 -0.000460)
(0.824830 10.396214 -0.000460)
(3.147306 50.110546 -0.000460)
(-78.386862 -4.259539 -0.000265)
(742.296837 -1299.986448 -0.000265)
(-94.496040 -14.445887 -0.000070)
(-692.840840 1021.730958 -0.000265)
(13.431399 468.524354 -0.000070)
(22.921998 240.396587 -0.000070)
(7.356955 82.975555 -0.000070)
(1.057623 9.199970 -0.000070)
(4.157283 13.004894 -0.000070)
(2.520815 6.632371 -0.000070)
(0.258692 0.441859 -0.000070)
(0.550383 1.131202 -0.000070)
(4.100780 7.669840 -0.000029)
(2.194868 4.507707 0.000012)
(-0.246115 0.281647 0.000012)
(2.615626 3.736246 0.000012)
(0.087664 1.116099 0.000012)
(0.937173 2.018006 0.000012)
(1.558610 2.029529 0.000012)
(0.458673 0.723335 0.000012)
(1.207291 1.325623 0.000012)
(0.904412 0.930638 0.000012)
(2.927307 2.123743 0.000012)
(5.282503 3.150055 0.000012)
(9.574198 5.199639 0.000012)
(4.349835 3.446340 0.000012)
(-9.505718 -2.357952 0.000012)
(1.327220 0.306273 0.000012)
(7.275838 2.435733 0.000012)
(-2.974334 -0.583216 0.000012)
(4.150212 0.083588 0.000012)
(9.243041 -0.002095 0.000012)
(18.849305 -1.137837 0.000012)
(66.110905 -6.597470 0.000012)
(53.513898 -14.868319 0.000012)
(-101.768152 8.636649 0.000012)
(-111.679630 38.563783 0.000012)
(-21.998136 8.221695 0.000012)
(-6.028273 -23.299577 0.000012)
(26.269149 -20.139863 0.000012)
(17.443326 -10.547089 0.000012)
(-1.114509 -0.903082 0.000012)
(-0.288044 -1.344480 0.000012)
(0.217279 -1.694104 0.000012)
(0.823022 -1.380161 0.000012)
(3.124878 -2.601848 0.000012)
(3.871773 -3.089782 0.000012)
(3.025740 -2.268584 0.000012)
(1.900636 -1.252971 0.000012)
(1.502488 -1.051500 0.000012)
(1.070306 -0.814343 0.000012)
(0.695452 -0.613177 0.000012)
(0.401941 -0.429414 0.000012)
(0.202401 -0.276092 -0.000029)
(0.078217 -0.156959 -0.000070)
(0.005663 -0.068695 -0.000070)
(-0.032442 -0.008257 -0.000070)
(-0.048771 0.030487 -0.000070)
(-0.051718 0.051780 -0.000070)
(-0.045608 0.051013 -0.000070)
(-0.035123 0.035427 -0.000070)
(-0.026181 0.022014 -0.000070)
(-159.851339 0.010372 -0.000265)
(159.818663 0.027549 -0.000460)
(0.011696 -0.089848 -0.000265)
(-0.007025 -0.033106 -0.000265)
(-0.043847 0.152515 -0.000460)
(-0.016910 0.136478 -0.000460)
(-0.008024 0.120143 -0.000460)
(-0.004553 0.109397 -0.000460)
(-0.002873 0.105029 -0.000460)
(-0.001281 0.101661 -0.000460)
(-0.001423 0.096479 -0.000460)
(0.007620 0.130135 -0.000313)
(-0.000233 0.100607 -0.000157)
)
;
    }
}
