/*--------------------------------*- C++ -*---------------------------------*\ 
| ========                 |                                                 | 
| \      /  F ield         | OpenFOAM: The Open Source CFD Toolbox           | 
|  \    /   O peration     | Version:  v1812                                 | 
|   \  /    A nd           | Web:      www.OpenFOAM.com                      | 
|    \/     M anipulation  |                                                 | 
\*--------------------------------------------------------------------------*/ 
FoamFile
{
    version     2.0;
    format      ascii;
    class       volVectorField;
    location    "/home/james/dafoam/myRuns/bezier_coanda_opt/0.00000000001/";
    object      sens_CL_shapey;
}
// * * * * * * * * * * * * * * * * * * * * * * * * * * * * * * * * * * * * * //

dimensions      [0 0 0 0 0 0 0];
internalField   uniform (0 0 0);
boundaryField
{
    allWalls
    {
        type  wall;
        value nonuniform List<vector>
164
(
(-0.464382 0.072326 0.000904)
(-0.419406 0.068688 0.000974)
(0.300112 -0.254982 0.000994)
(0.378701 -0.254650 0.001020)
(-0.047679 0.034427 0.001049)
(-0.082366 0.055268 0.001083)
(-0.111211 0.224953 0.001121)
(-0.121846 0.293076 0.001164)
(-0.073759 0.229755 0.001211)
(-0.057226 0.226078 0.001262)
(-0.041380 0.210838 0.002213)
(-0.032662 0.209690 0.003267)
(-0.025401 0.211699 0.003536)
(-0.020909 0.227271 0.003824)
(-0.016329 0.241937 0.004124)
(-0.012204 0.266224 0.004426)
(-0.007803 0.299032 0.005888)
(-0.002638 0.348742 0.007701)
(0.004475 0.427999 0.008685)
(0.013402 0.474878 0.009238)
(0.022221 0.491009 0.008699)
(0.031769 0.538182 0.006233)
(0.038826 0.541872 0.003526)
(0.045045 0.534109 0.002199)
(0.054708 0.571635 0.001245)
(0.062569 0.587074 0.000470)
(0.070281 0.597131 -0.000035)
(0.080431 0.625146 -0.000381)
(0.092268 0.659815 -0.000606)
(0.116286 0.775536 -0.000902)
(0.130233 0.815549 -0.001051)
(0.130467 0.754442 -0.000936)
(0.141084 0.758883 -0.000828)
(0.153956 0.773541 -0.000727)
(0.168144 0.787343 -0.000758)
(0.193986 0.842105 -0.000814)
(0.201137 0.797908 -0.000617)
(0.127918 0.443773 -0.000397)
(-0.008048 -0.244616 -0.000302)
(0.297627 1.233049 -0.000238)
(-0.099628 0.137918 -0.000124)
(-0.091592 0.109047 -0.000300)
(0.022845 -0.046404 -0.000098)
(0.034731 -0.074567 -0.000052)
(-0.000215 -0.018028 -0.000047)
(-0.022758 0.071383 0.000028)
(-0.024652 0.104285 0.000050)
(-0.026265 0.133712 -0.000101)
(-0.029959 0.171784 -0.000356)
(-0.032028 0.205621 0.000184)
(-0.033529 0.237062 0.000569)
(-0.033521 0.259511 0.000459)
(-0.033137 0.279827 0.000579)
(-0.031931 0.294148 0.000716)
(-0.030235 0.305443 0.001232)
(-0.028000 0.313138 0.001826)
(-0.025591 0.322667 0.002124)
(-0.022292 0.321660 0.002403)
(-0.021587 0.382323 0.002634)
(-0.017068 0.364130 0.002017)
(-0.009248 0.297819 0.001069)
(-0.004826 0.301092 0.000593)
(0.000407 0.269846 0.000165)
(0.004686 0.230427 -0.000152)
(0.007764 0.191596 0.000438)
(0.011500 0.179712 0.001161)
(0.015616 0.172672 0.001169)
(0.019190 0.158880 0.001194)
(0.021626 0.142045 0.001230)
(0.023063 0.125104 0.000730)
(0.028607 0.130247 0.000253)
(0.028107 0.107731 0.000338)
(0.031687 0.075472 0.000420)
(0.041720 0.037546 0.000497)
(0.019954 -0.060877 0.000568)
(0.020382 -0.060783 0.000634)
(0.089575 0.122243 0.000694)
(0.045687 0.193825 0.000747)
(-0.066160 0.085722 0.000795)
(-0.161318 0.033839 0.000830)
(0.226773 1.488046 -0.000270)
(-0.188922 -0.232223 -0.000393)
(-0.067437 0.225738 -0.000468)
(0.060351 1.765048 -0.000468)
(0.088945 2.627896 -0.000468)
(0.079506 1.542864 -0.000468)
(0.140959 -0.296613 -0.000468)
(0.818033 10.471677 -0.000468)
(3.127846 50.066236 -0.000468)
(-78.703241 -4.450185 -0.000270)
(750.706730 -1304.378869 -0.000468)
(-94.681131 -15.889016 -0.000270)
(-701.217791 1024.326263 -0.000270)
(13.919849 474.827499 -0.000072)
(23.319133 241.722612 -0.000072)
(7.653233 83.838485 -0.000072)
(1.197968 9.808600 -0.000072)
(4.179313 13.024609 -0.000072)
(2.535225 6.681478 -0.000072)
(0.197550 0.264368 -0.000072)
(0.528172 1.055746 -0.000072)
(4.085066 7.627700 -0.000029)
(2.139505 4.424171 0.000014)
(-0.268493 0.275032 0.000014)
(2.642564 3.798576 0.000014)
(0.117703 1.163411 0.000014)
(0.937938 2.034673 0.000014)
(1.415634 1.894432 0.000014)
(0.346820 0.608920 0.000014)
(1.490729 1.510131 0.000014)
(1.230821 1.155318 0.000014)
(2.430817 1.827947 0.000014)
(5.587272 3.253379 0.000014)
(9.847137 5.408971 0.000014)
(3.770701 3.214686 0.000014)
(-10.180238 -2.610981 0.000014)
(1.424340 0.277713 0.000014)
(7.049012 2.410324 0.000014)
(-4.037639 -0.849845 0.000014)
(3.583485 -0.016774 0.000014)
(8.836152 -0.104336 0.000014)
(18.271002 -1.237246 0.000014)
(63.089380 -6.782421 0.000014)
(47.575110 -14.401529 0.000014)
(-97.908546 10.505602 0.000014)
(-103.780122 38.517712 0.000014)
(-21.215784 6.485151 0.000014)
(-4.541138 -23.848463 0.000014)
(26.361074 -19.809878 0.000014)
(15.929574 -9.883957 0.000014)
(-1.454492 -0.901135 0.000014)
(-0.160128 -1.541176 0.000014)
(0.258833 -1.681893 0.000014)
(0.864222 -1.342133 0.000014)
(3.175677 -2.598861 0.000014)
(3.896513 -3.094390 0.000014)
(2.967354 -2.207570 0.000014)
(1.832315 -1.193877 0.000014)
(1.474902 -1.042252 0.000014)
(1.040856 -0.802483 0.000014)
(0.665913 -0.600408 0.000014)
(0.378180 -0.422787 0.000014)
(0.182550 -0.275087 -0.000029)
(0.061434 -0.159434 -0.000072)
(-0.007880 -0.072628 -0.000072)
(-0.043249 -0.013317 -0.000072)
(-0.057516 0.024811 -0.000072)
(-0.059063 0.046196 -0.000072)
(-0.052030 0.045954 -0.000072)
(-0.040819 0.031024 -0.000072)
(-0.031281 0.018255 -0.000072)
(-159.854468 0.007924 -0.000270)
(159.814853 0.025204 -0.000270)
(-0.012557 -0.105973 -0.000072)
(-0.040030 -0.060208 -0.000270)
(-0.059876 0.133151 -0.000468)
(-0.023966 0.125581 -0.000468)
(-0.011722 0.112886 -0.000468)
(-0.006740 0.104625 -0.000468)
(-0.004269 0.101180 -0.000468)
(-0.002174 0.098484 -0.000468)
(-0.002092 0.093104 -0.000468)
(0.007125 0.126046 -0.000334)
(-0.001772 0.101129 -0.000066)
)
;
    }
}
