/*--------------------------------*- C++ -*---------------------------------*\ 
| ========                 |                                                 | 
| \      /  F ield         | OpenFOAM: The Open Source CFD Toolbox           | 
|  \    /   O peration     | Version:  v1812                                 | 
|   \  /    A nd           | Web:      www.OpenFOAM.com                      | 
|    \/     M anipulation  |                                                 | 
\*--------------------------------------------------------------------------*/ 
FoamFile
{
    version     2.0;
    format      ascii;
    class       volVectorField;
    location    "/home/james/dafoam/myRuns/bezier_coanda_opt/0.00000000001/";
    object      sens_CL_shapey;
}
// * * * * * * * * * * * * * * * * * * * * * * * * * * * * * * * * * * * * * //

dimensions      [0 0 0 0 0 0 0];
internalField   uniform (0 0 0);
boundaryField
{
    allWalls
    {
        type  wall;
        value nonuniform List<vector>
164
(
(-0.441397 0.069373 0.000933)
(-0.417459 0.071963 0.001001)
(0.266311 -0.233129 0.001023)
(0.359462 -0.238592 0.001049)
(-0.038069 0.023714 0.001080)
(-0.076775 0.049480 0.001115)
(-0.112553 0.226175 0.001154)
(-0.121411 0.292286 0.001198)
(-0.073585 0.229237 0.001247)
(-0.056335 0.223712 0.001300)
(-0.041109 0.210927 0.002213)
(-0.032334 0.209479 0.003234)
(-0.025139 0.211955 0.003519)
(-0.020657 0.227744 0.003823)
(-0.016030 0.241999 0.004140)
(-0.011902 0.266979 0.004460)
(-0.007481 0.299456 0.005903)
(-0.002252 0.349944 0.007690)
(0.004891 0.429335 0.008676)
(0.013845 0.475559 0.009229)
(0.022474 0.491191 0.008686)
(0.031878 0.538263 0.006359)
(0.039227 0.547430 0.003699)
(0.044795 0.532310 0.002885)
(0.054549 0.571001 0.001896)
(0.062747 0.592856 0.000462)
(0.069904 0.598358 -0.000609)
(0.079995 0.627090 -0.000973)
(0.091713 0.662063 -0.000667)
(0.115484 0.777863 -0.000812)
(0.129169 0.817486 -0.001000)
(0.129505 0.756640 -0.001066)
(0.140112 0.761117 -0.000930)
(0.152781 0.776096 -0.000802)
(0.166771 0.790384 -0.000752)
(0.191799 0.843688 -0.000739)
(0.198988 0.800827 -0.000580)
(0.128852 0.455452 -0.000367)
(-0.002434 -0.218110 -0.000243)
(0.291682 1.219243 -0.000183)
(-0.101588 0.141019 -0.000208)
(-0.091897 0.109143 -0.000265)
(0.025822 -0.054033 -0.000057)
(0.036996 -0.081463 -0.000022)
(-0.000071 -0.018892 -0.000015)
(-0.022290 0.069501 0.000043)
(-0.023418 0.098690 0.000070)
(-0.025033 0.127987 -0.000103)
(-0.029107 0.166891 -0.000437)
(-0.031442 0.200942 -0.000031)
(-0.033044 0.232525 0.000446)
(-0.033152 0.255280 0.000555)
(-0.032879 0.276125 0.000684)
(-0.031752 0.290962 0.000832)
(-0.030120 0.302742 0.001257)
(-0.027959 0.310904 0.001757)
(-0.025595 0.320826 0.002059)
(-0.022319 0.320012 0.002337)
(-0.021667 0.381733 0.002562)
(-0.017098 0.363363 0.001983)
(-0.009217 0.296568 0.001077)
(-0.004846 0.300538 0.000599)
(0.000377 0.269762 0.000167)
(0.004651 0.230517 -0.000155)
(0.007728 0.191538 0.000434)
(0.011466 0.179769 0.001150)
(0.015581 0.172661 0.001143)
(0.019188 0.159106 0.001155)
(0.021600 0.142083 0.001179)
(0.023079 0.125245 0.000719)
(0.028566 0.130320 0.000287)
(0.027944 0.107430 0.000372)
(0.031630 0.075628 0.000454)
(0.041628 0.037518 0.000530)
(0.019616 -0.061852 0.000601)
(0.019701 -0.062616 0.000667)
(0.089396 0.120898 0.000726)
(0.046625 0.192914 0.000780)
(-0.064032 0.084038 0.000827)
(-0.151773 0.031618 0.000862)
(0.220404 1.471724 -0.000227)
(-0.183089 -0.201750 -0.000378)
(-0.064815 0.249964 -0.000471)
(0.060653 1.775428 -0.000471)
(0.089304 2.642356 -0.000471)
(0.080274 1.573345 -0.000471)
(0.141057 -0.246423 -0.000471)
(0.816176 10.550970 -0.000471)
(3.119426 50.088641 -0.000471)
(-79.156200 -4.116935 -0.000271)
(762.264473 -1314.215328 -0.000471)
(-95.118231 -15.837541 -0.000271)
(-712.511761 1030.984991 -0.000271)
(14.309945 481.820237 -0.000072)
(23.706034 244.187601 -0.000072)
(7.864291 84.846501 -0.000072)
(1.265142 10.125975 -0.000072)
(4.205798 13.089006 -0.000072)
(2.545253 6.721602 -0.000072)
(0.148223 0.128997 -0.000072)
(0.505190 0.988916 -0.000072)
(4.091021 7.628099 -0.000030)
(2.111872 4.381359 0.000012)
(-0.297291 0.241934 0.000012)
(2.672845 3.839573 0.000012)
(0.135592 1.190189 0.000012)
(0.936048 2.043488 0.000012)
(1.378798 1.854405 0.000012)
(0.316215 0.573008 0.000012)
(1.485505 1.496330 0.000012)
(1.241357 1.153512 0.000012)
(2.493487 1.859054 0.000012)
(5.713084 3.313481 0.000012)
(10.034965 5.515005 0.000012)
(3.545342 3.154528 0.000012)
(-10.667279 -2.800700 0.000012)
(1.470916 0.274420 0.000012)
(6.885529 2.378581 0.000012)
(-4.612276 -0.983282 0.000012)
(3.058070 -0.103659 0.000012)
(8.480526 -0.170657 0.000012)
(18.172394 -1.277778 0.000012)
(62.451987 -6.860786 0.000012)
(45.212347 -14.240336 0.000012)
(-96.875879 11.498606 0.000012)
(-100.707581 38.797949 0.000012)
(-20.659940 5.713763 0.000012)
(-3.608910 -24.256241 0.000012)
(26.729448 -19.845812 0.000012)
(15.461312 -9.730100 0.000012)
(-1.630889 -0.873556 0.000012)
(-0.152695 -1.559134 0.000012)
(0.203601 -1.651013 0.000012)
(0.801067 -1.336062 0.000012)
(3.055801 -2.616234 0.000012)
(3.707335 -3.184960 0.000012)
(2.884187 -2.420410 0.000012)
(1.748776 -1.274749 0.000012)
(1.299977 -0.932165 0.000012)
(0.953917 -0.737414 0.000012)
(0.649678 -0.585484 0.000012)
(0.368529 -0.393545 0.000012)
(0.176382 -0.239664 -0.000030)
(0.062733 -0.133273 -0.000072)
(-0.002919 -0.054794 -0.000072)
(-0.037124 0.000042 -0.000072)
(-0.050887 0.034598 -0.000072)
(-0.052301 0.053048 -0.000072)
(-0.045513 0.050915 -0.000072)
(-0.034866 0.034974 -0.000072)
(-0.025987 0.021587 -0.000072)
(-159.850659 0.010098 -0.000271)
(159.818879 0.026692 -0.000271)
(0.006872 -0.083026 -0.000072)
(-0.012849 -0.030187 -0.000271)
(-0.044880 0.145508 -0.000471)
(-0.018253 0.132824 -0.000471)
(-0.009045 0.117546 -0.000471)
(-0.005316 0.107701 -0.000471)
(-0.003446 0.103919 -0.000471)
(-0.001667 0.101279 -0.000471)
(-0.001817 0.096142 -0.000471)
(0.007303 0.130667 -0.000314)
(-0.002398 0.105089 -0.000148)
)
;
    }
}
