# Forces      
# CofR        : (0.000000e+00 0.000000e+00 0.000000e+00)
# Time        forces(pressure viscous porous)	moments(pressure viscous porous)
0.24          	((2.658671e+00 5.354208e+01 -3.199858e-19) (8.765264e-01 -2.643926e-02 -1.494186e-19) (0.000000e+00 0.000000e+00 0.000000e+00)) ((-3.480235e+01 1.728136e+00 -5.224097e+02) (1.718552e-02 5.697422e-01 2.710808e-01) (0.000000e+00 0.000000e+00 0.000000e+00))
