/*--------------------------------*- C++ -*----------------------------------*\
  =========                 |
  \\      /  F ield         | OpenFOAM: The Open Source CFD Toolbox
   \\    /   O peration     | Website:  https://openfoam.org
    \\  /    A nd           | Version:  8
     \\/     M anipulation  |
\*---------------------------------------------------------------------------*/
FoamFile
{
    version     2.0;
    format      ascii;
    class       volScalarField;
    location    "3.8";
    object      p;
}
// * * * * * * * * * * * * * * * * * * * * * * * * * * * * * * * * * * * * * //

dimensions      [0 2 -2 0 0 0 0];

internalField   nonuniform List<scalar> 
262620
(
-1.34221
-1.34242
-1.34308
-1.34408
-1.34538
-1.34698
-1.34887
-1.35102
-1.35342
-1.35606
-1.35891
-1.36196
-1.3652
-1.36861
-1.37218
-1.3759
-1.37975
-1.38372
-1.3878
-1.39199
-1.39626
-1.40061
-1.40504
-1.40952
-1.41406
-1.41865
-1.42327
-1.42793
-1.4326
-1.4373
-1.44201
-1.44672
-1.45144
-1.45615
-1.46086
-1.46555
-1.47023
-1.47488
-1.47952
-1.48412
-1.4887
-1.49324
-1.49775
-1.50223
-1.50666
-1.51105
-1.5154
-1.51971
-1.52397
-1.52818
-1.53234
-1.53646
-1.54052
-1.54454
-1.5485
-1.55241
-1.55627
-1.56008
-1.56383
-1.56753
-1.57118
-1.57477
-1.57831
-1.5818
-1.58523
-1.58861
-1.59194
-1.59522
-1.59844
-1.60161
-1.60473
-1.6078
-1.61082
-1.61379
-1.61671
-1.61958
-1.6224
-1.62518
-1.6279
-1.63058
-1.63322
-1.63581
-1.63835
-1.64085
-1.6433
-1.64571
-1.64808
-1.65041
-1.6527
-1.65494
-1.65715
-1.65931
-1.66144
-1.66353
-1.66558
-1.6676
-1.66958
-1.67152
-1.67343
-1.6753
-1.67714
-1.67895
-1.68073
-1.68247
-1.68418
-1.68586
-1.68751
-1.68913
-1.69073
-1.69229
-1.69383
-1.69533
-1.69682
-1.69827
-1.6997
-1.7011
-1.70248
-1.70384
-1.70517
-1.70647
-1.34209
-1.3423
-1.34295
-1.34394
-1.34524
-1.34684
-1.34873
-1.35088
-1.35328
-1.35592
-1.35877
-1.36182
-1.36506
-1.36847
-1.37204
-1.37576
-1.37961
-1.38358
-1.38767
-1.39185
-1.39612
-1.40048
-1.4049
-1.40939
-1.41393
-1.41852
-1.42314
-1.4278
-1.43248
-1.43718
-1.44189
-1.4466
-1.45132
-1.45604
-1.46075
-1.46544
-1.47012
-1.47478
-1.47941
-1.48402
-1.4886
-1.49315
-1.49766
-1.50214
-1.50657
-1.51097
-1.51532
-1.51963
-1.52389
-1.52811
-1.53227
-1.53639
-1.54046
-1.54448
-1.54844
-1.55236
-1.55622
-1.56003
-1.56379
-1.56749
-1.57114
-1.57473
-1.57828
-1.58177
-1.5852
-1.58859
-1.59192
-1.5952
-1.59842
-1.6016
-1.60472
-1.60779
-1.61082
-1.61379
-1.61671
-1.61958
-1.62241
-1.62518
-1.62791
-1.6306
-1.63323
-1.63582
-1.63837
-1.64087
-1.64333
-1.64574
-1.64811
-1.65044
-1.65273
-1.65498
-1.65719
-1.65935
-1.66148
-1.66358
-1.66563
-1.66765
-1.66963
-1.67158
-1.67349
-1.67536
-1.67721
-1.67902
-1.68079
-1.68254
-1.68425
-1.68593
-1.68759
-1.68921
-1.6908
-1.69237
-1.69391
-1.69542
-1.6969
-1.69836
-1.69979
-1.70119
-1.70257
-1.70393
-1.70526
-1.70657
-1.34186
-1.34206
-1.34271
-1.34371
-1.345
-1.3466
-1.34849
-1.35064
-1.35304
-1.35567
-1.35852
-1.36157
-1.36481
-1.36822
-1.37179
-1.37551
-1.37936
-1.38334
-1.38742
-1.39161
-1.39589
-1.40024
-1.40467
-1.40916
-1.4137
-1.41829
-1.42292
-1.42758
-1.43226
-1.43696
-1.44168
-1.4464
-1.45112
-1.45584
-1.46055
-1.46525
-1.46993
-1.4746
-1.47924
-1.48385
-1.48843
-1.49299
-1.4975
-1.50198
-1.50643
-1.51083
-1.51518
-1.5195
-1.52376
-1.52798
-1.53216
-1.53628
-1.54035
-1.54438
-1.54835
-1.55227
-1.55613
-1.55995
-1.56371
-1.56742
-1.57107
-1.57467
-1.57822
-1.58171
-1.58516
-1.58854
-1.59188
-1.59516
-1.59839
-1.60157
-1.6047
-1.60778
-1.6108
-1.61378
-1.61671
-1.61958
-1.62241
-1.62519
-1.62793
-1.63061
-1.63325
-1.63585
-1.6384
-1.6409
-1.64336
-1.64578
-1.64815
-1.65049
-1.65278
-1.65503
-1.65724
-1.65941
-1.66155
-1.66364
-1.6657
-1.66772
-1.66971
-1.67165
-1.67357
-1.67545
-1.67729
-1.67911
-1.68089
-1.68263
-1.68435
-1.68604
-1.68769
-1.68932
-1.69091
-1.69248
-1.69402
-1.69554
-1.69702
-1.69848
-1.69991
-1.70132
-1.7027
-1.70406
-1.7054
-1.7067
-1.34152
-1.34172
-1.34237
-1.34335
-1.34465
-1.34624
-1.34812
-1.35027
-1.35267
-1.3553
-1.35815
-1.3612
-1.36444
-1.36785
-1.37142
-1.37514
-1.37899
-1.38297
-1.38706
-1.39125
-1.39553
-1.39989
-1.40432
-1.40881
-1.41336
-1.41795
-1.42258
-1.42725
-1.43194
-1.43664
-1.44136
-1.44609
-1.45082
-1.45554
-1.46026
-1.46497
-1.46966
-1.47432
-1.47897
-1.48359
-1.48818
-1.49274
-1.49727
-1.50175
-1.5062
-1.51061
-1.51497
-1.51929
-1.52357
-1.5278
-1.53198
-1.53611
-1.54019
-1.54422
-1.5482
-1.55212
-1.556
-1.55982
-1.56359
-1.5673
-1.57096
-1.57457
-1.57813
-1.58163
-1.58508
-1.58847
-1.59182
-1.59511
-1.59835
-1.60153
-1.60467
-1.60775
-1.61078
-1.61377
-1.6167
-1.61958
-1.62242
-1.62521
-1.62795
-1.63064
-1.63328
-1.63589
-1.63844
-1.64095
-1.64342
-1.64584
-1.64822
-1.65056
-1.65286
-1.65512
-1.65734
-1.65951
-1.66165
-1.66375
-1.66582
-1.66784
-1.66983
-1.67179
-1.67371
-1.67559
-1.67744
-1.67926
-1.68104
-1.6828
-1.68452
-1.68621
-1.68787
-1.6895
-1.6911
-1.69267
-1.69422
-1.69573
-1.69722
-1.69869
-1.70012
-1.70153
-1.70292
-1.70428
-1.70562
-1.70693
-1.34107
-1.34127
-1.3419
-1.34289
-1.34417
-1.34577
-1.34764
-1.34979
-1.35218
-1.35481
-1.35766
-1.36071
-1.36395
-1.36736
-1.37093
-1.37465
-1.37851
-1.38249
-1.38658
-1.39077
-1.39505
-1.39942
-1.40385
-1.40835
-1.4129
-1.4175
-1.42214
-1.42681
-1.43151
-1.43622
-1.44095
-1.44568
-1.45042
-1.45515
-1.45988
-1.46459
-1.46929
-1.47397
-1.47862
-1.48325
-1.48785
-1.49242
-1.49695
-1.50145
-1.50591
-1.51032
-1.5147
-1.51903
-1.52331
-1.52755
-1.53174
-1.53588
-1.53997
-1.54401
-1.548
-1.55194
-1.55582
-1.55965
-1.56343
-1.56715
-1.57083
-1.57444
-1.57801
-1.58152
-1.58498
-1.58838
-1.59174
-1.59504
-1.59828
-1.60148
-1.60462
-1.60771
-1.61076
-1.61375
-1.61669
-1.61958
-1.62243
-1.62522
-1.62797
-1.63067
-1.63333
-1.63594
-1.6385
-1.64102
-1.64349
-1.64592
-1.64831
-1.65066
-1.65297
-1.65523
-1.65745
-1.65964
-1.66178
-1.66389
-1.66596
-1.66799
-1.66999
-1.67195
-1.67388
-1.67577
-1.67763
-1.67945
-1.68124
-1.683
-1.68473
-1.68642
-1.68809
-1.68972
-1.69133
-1.69291
-1.69446
-1.69598
-1.69748
-1.69895
-1.70039
-1.7018
-1.7032
-1.70456
-1.70591
-1.70722
-1.34052
-1.3407
-1.34133
-1.34231
-1.34359
-1.34518
-1.34705
-1.34919
-1.35158
-1.35421
-1.35705
-1.3601
-1.36334
-1.36675
-1.37033
-1.37405
-1.37791
-1.38189
-1.38598
-1.39018
-1.39447
-1.39884
-1.40328
-1.40778
-1.41234
-1.41695
-1.42159
-1.42627
-1.43097
-1.4357
-1.44043
-1.44518
-1.44992
-1.45466
-1.4594
-1.46412
-1.46883
-1.47352
-1.47819
-1.48283
-1.48744
-1.49202
-1.49656
-1.50107
-1.50554
-1.50997
-1.51436
-1.5187
-1.52299
-1.52724
-1.53145
-1.5356
-1.5397
-1.54375
-1.54775
-1.5517
-1.5556
-1.55944
-1.56323
-1.56697
-1.57065
-1.57428
-1.57786
-1.58138
-1.58485
-1.58827
-1.59163
-1.59495
-1.5982
-1.60141
-1.60457
-1.60767
-1.61072
-1.61373
-1.61668
-1.61958
-1.62244
-1.62524
-1.628
-1.63071
-1.63338
-1.636
-1.63857
-1.6411
-1.64359
-1.64603
-1.64842
-1.65078
-1.6531
-1.65537
-1.6576
-1.6598
-1.66195
-1.66407
-1.66615
-1.66819
-1.67019
-1.67216
-1.6741
-1.67599
-1.67786
-1.67969
-1.68149
-1.68326
-1.68499
-1.6867
-1.68837
-1.69001
-1.69163
-1.69321
-1.69477
-1.6963
-1.6978
-1.69927
-1.70072
-1.70215
-1.70354
-1.70492
-1.70627
-1.70759
-1.33986
-1.34003
-1.34065
-1.34162
-1.3429
-1.34448
-1.34634
-1.34848
-1.35087
-1.35349
-1.35634
-1.35938
-1.36262
-1.36603
-1.36961
-1.37333
-1.37719
-1.38118
-1.38528
-1.38948
-1.39377
-1.39815
-1.40259
-1.40711
-1.41167
-1.41629
-1.42094
-1.42563
-1.43034
-1.43507
-1.43982
-1.44457
-1.44933
-1.45408
-1.45883
-1.46357
-1.46829
-1.47299
-1.47767
-1.48232
-1.48695
-1.49154
-1.4961
-1.50062
-1.50511
-1.50955
-1.51395
-1.51831
-1.52262
-1.52688
-1.5311
-1.53526
-1.53938
-1.54345
-1.54746
-1.55143
-1.55534
-1.5592
-1.563
-1.56675
-1.57045
-1.57409
-1.57769
-1.58122
-1.58471
-1.58814
-1.59152
-1.59484
-1.59811
-1.60133
-1.6045
-1.60762
-1.61068
-1.6137
-1.61667
-1.61958
-1.62245
-1.62527
-1.62804
-1.63076
-1.63344
-1.63607
-1.63866
-1.6412
-1.64369
-1.64615
-1.64856
-1.65092
-1.65325
-1.65553
-1.65778
-1.65998
-1.66215
-1.66427
-1.66636
-1.66842
-1.67043
-1.67241
-1.67435
-1.67626
-1.67814
-1.67998
-1.68178
-1.68356
-1.6853
-1.68702
-1.6887
-1.69035
-1.69197
-1.69357
-1.69513
-1.69667
-1.69818
-1.69966
-1.70112
-1.70255
-1.70395
-1.70533
-1.70669
-1.70802
-1.33909
-1.33926
-1.33987
-1.34083
-1.34209
-1.34367
-1.34553
-1.34766
-1.35004
-1.35266
-1.3555
-1.35855
-1.36179
-1.3652
-1.36878
-1.3725
-1.37637
-1.38036
-1.38446
-1.38867
-1.39297
-1.39735
-1.4018
-1.40632
-1.4109
-1.41552
-1.42019
-1.42489
-1.42961
-1.43435
-1.43911
-1.44388
-1.44865
-1.45342
-1.45818
-1.46293
-1.46766
-1.47238
-1.47707
-1.48174
-1.48638
-1.49099
-1.49556
-1.5001
-1.5046
-1.50906
-1.51348
-1.51785
-1.52218
-1.52646
-1.53069
-1.53488
-1.53901
-1.54309
-1.54713
-1.55111
-1.55503
-1.55891
-1.56273
-1.5665
-1.57021
-1.57387
-1.57748
-1.58104
-1.58454
-1.58798
-1.59138
-1.59472
-1.59801
-1.60124
-1.60443
-1.60756
-1.61064
-1.61367
-1.61665
-1.61958
-1.62246
-1.6253
-1.62808
-1.63082
-1.63351
-1.63616
-1.63876
-1.64131
-1.64382
-1.64629
-1.64871
-1.65109
-1.65343
-1.65573
-1.65798
-1.6602
-1.66238
-1.66452
-1.66662
-1.66868
-1.67071
-1.6727
-1.67465
-1.67657
-1.67846
-1.68031
-1.68213
-1.68391
-1.68567
-1.68739
-1.68908
-1.69074
-1.69238
-1.69398
-1.69555
-1.6971
-1.69862
-1.70011
-1.70158
-1.70302
-1.70443
-1.70582
-1.70718
-1.70852
-1.33823
-1.33838
-1.33898
-1.33993
-1.34119
-1.34275
-1.3446
-1.34673
-1.34911
-1.35173
-1.35456
-1.35761
-1.36085
-1.36426
-1.36784
-1.37157
-1.37543
-1.37943
-1.38354
-1.38775
-1.39205
-1.39644
-1.40091
-1.40544
-1.41002
-1.41466
-1.41933
-1.42404
-1.42878
-1.43354
-1.43831
-1.44309
-1.44787
-1.45266
-1.45743
-1.4622
-1.46695
-1.47168
-1.4764
-1.48108
-1.48574
-1.49037
-1.49496
-1.49951
-1.50403
-1.50851
-1.51295
-1.51734
-1.52168
-1.52598
-1.53024
-1.53444
-1.53859
-1.54269
-1.54675
-1.55074
-1.55469
-1.55858
-1.56243
-1.56621
-1.56995
-1.57363
-1.57725
-1.58082
-1.58434
-1.58781
-1.59122
-1.59458
-1.59788
-1.60114
-1.60434
-1.60749
-1.61059
-1.61364
-1.61663
-1.61958
-1.62248
-1.62533
-1.62813
-1.63089
-1.63359
-1.63625
-1.63887
-1.64144
-1.64396
-1.64644
-1.64888
-1.65128
-1.65363
-1.65594
-1.65821
-1.66044
-1.66264
-1.66479
-1.6669
-1.66898
-1.67102
-1.67302
-1.67499
-1.67692
-1.67882
-1.68068
-1.68251
-1.68431
-1.68608
-1.68781
-1.68951
-1.69119
-1.69283
-1.69444
-1.69603
-1.69759
-1.69912
-1.70062
-1.70209
-1.70354
-1.70497
-1.70637
-1.70774
-1.70908
-1.33727
-1.33741
-1.33799
-1.33893
-1.34017
-1.34173
-1.34358
-1.34569
-1.34807
-1.35068
-1.35351
-1.35656
-1.35979
-1.36321
-1.36679
-1.37052
-1.37439
-1.37839
-1.3825
-1.38672
-1.39104
-1.39544
-1.39991
-1.40445
-1.40905
-1.41369
-1.41838
-1.4231
-1.42786
-1.43263
-1.43741
-1.44221
-1.44701
-1.45181
-1.45661
-1.46139
-1.46616
-1.47091
-1.47564
-1.48035
-1.48502
-1.48967
-1.49428
-1.49886
-1.5034
-1.5079
-1.51235
-1.51676
-1.52113
-1.52545
-1.52973
-1.53395
-1.53812
-1.54225
-1.54632
-1.55034
-1.55431
-1.55822
-1.56208
-1.56589
-1.56965
-1.57335
-1.57699
-1.58059
-1.58413
-1.58761
-1.59104
-1.59442
-1.59775
-1.60102
-1.60424
-1.60741
-1.61053
-1.6136
-1.61661
-1.61958
-1.6225
-1.62537
-1.62819
-1.63096
-1.63368
-1.63636
-1.63899
-1.64158
-1.64412
-1.64662
-1.64908
-1.65149
-1.65386
-1.65618
-1.65847
-1.66072
-1.66292
-1.66509
-1.66722
-1.66931
-1.67137
-1.67338
-1.67536
-1.67731
-1.67922
-1.6811
-1.68294
-1.68476
-1.68653
-1.68828
-1.69
-1.69168
-1.69334
-1.69497
-1.69656
-1.69813
-1.69967
-1.70119
-1.70267
-1.70413
-1.70557
-1.70698
-1.70836
-1.70971
-1.33621
-1.33633
-1.33691
-1.33783
-1.33906
-1.3406
-1.34244
-1.34455
-1.34692
-1.34953
-1.35236
-1.3554
-1.35864
-1.36205
-1.36563
-1.36937
-1.37324
-1.37725
-1.38137
-1.3856
-1.38992
-1.39433
-1.39881
-1.40336
-1.40797
-1.41263
-1.41733
-1.42207
-1.42684
-1.43163
-1.43643
-1.44124
-1.44606
-1.45088
-1.45569
-1.4605
-1.46529
-1.47006
-1.47481
-1.47954
-1.48423
-1.4889
-1.49354
-1.49814
-1.5027
-1.50722
-1.5117
-1.51613
-1.52052
-1.52487
-1.52916
-1.53341
-1.53761
-1.54176
-1.54585
-1.54989
-1.55389
-1.55782
-1.56171
-1.56554
-1.56932
-1.57304
-1.57671
-1.58033
-1.58389
-1.58739
-1.59085
-1.59425
-1.5976
-1.60089
-1.60414
-1.60733
-1.61047
-1.61356
-1.61659
-1.61958
-1.62252
-1.62541
-1.62825
-1.63104
-1.63378
-1.63648
-1.63913
-1.64174
-1.6443
-1.64682
-1.64929
-1.65172
-1.65411
-1.65645
-1.65875
-1.66102
-1.66324
-1.66543
-1.66757
-1.66968
-1.67175
-1.67378
-1.67578
-1.67774
-1.67967
-1.68156
-1.68342
-1.68525
-1.68704
-1.6888
-1.69053
-1.69223
-1.6939
-1.69554
-1.69715
-1.69873
-1.70029
-1.70181
-1.70331
-1.70478
-1.70623
-1.70765
-1.70905
-1.71041
-1.33506
-1.33516
-1.33572
-1.33662
-1.33785
-1.33938
-1.34121
-1.34331
-1.34567
-1.34827
-1.3511
-1.35414
-1.35738
-1.36079
-1.36437
-1.36811
-1.37199
-1.376
-1.38013
-1.38437
-1.3887
-1.39312
-1.39761
-1.40217
-1.4068
-1.41147
-1.41619
-1.42094
-1.42573
-1.43053
-1.43535
-1.44019
-1.44503
-1.44986
-1.4547
-1.45952
-1.46433
-1.46913
-1.4739
-1.47865
-1.48337
-1.48807
-1.49272
-1.49735
-1.50193
-1.50648
-1.51098
-1.51544
-1.51986
-1.52423
-1.52855
-1.53282
-1.53705
-1.54122
-1.54534
-1.54941
-1.55342
-1.55739
-1.5613
-1.56515
-1.56896
-1.57271
-1.5764
-1.58004
-1.58363
-1.58716
-1.59064
-1.59406
-1.59743
-1.60075
-1.60402
-1.60724
-1.6104
-1.61351
-1.61657
-1.61958
-1.62254
-1.62545
-1.62831
-1.63113
-1.63389
-1.63661
-1.63928
-1.64191
-1.64449
-1.64703
-1.64952
-1.65197
-1.65438
-1.65674
-1.65906
-1.66135
-1.66359
-1.66579
-1.66796
-1.67008
-1.67217
-1.67422
-1.67623
-1.67821
-1.68016
-1.68206
-1.68394
-1.68578
-1.68759
-1.68937
-1.69111
-1.69283
-1.69451
-1.69617
-1.69779
-1.69939
-1.70096
-1.7025
-1.70401
-1.7055
-1.70696
-1.70839
-1.7098
-1.71117
-1.33382
-1.33389
-1.33444
-1.33533
-1.33653
-1.33805
-1.33987
-1.34197
-1.34432
-1.34692
-1.34974
-1.35278
-1.35601
-1.35943
-1.36301
-1.36675
-1.37064
-1.37466
-1.37879
-1.38304
-1.38738
-1.39181
-1.39631
-1.40089
-1.40553
-1.41022
-1.41495
-1.41972
-1.42452
-1.42935
-1.43419
-1.43904
-1.4439
-1.44876
-1.45362
-1.45847
-1.4633
-1.46812
-1.47292
-1.47769
-1.48244
-1.48716
-1.49184
-1.49649
-1.50111
-1.50568
-1.51021
-1.5147
-1.51914
-1.52354
-1.52789
-1.53219
-1.53644
-1.54064
-1.54479
-1.54888
-1.55293
-1.55692
-1.56085
-1.56474
-1.56857
-1.57234
-1.57606
-1.57973
-1.58334
-1.5869
-1.59041
-1.59386
-1.59726
-1.6006
-1.6039
-1.60713
-1.61032
-1.61346
-1.61654
-1.61958
-1.62256
-1.6255
-1.62838
-1.63122
-1.63401
-1.63675
-1.63945
-1.6421
-1.6447
-1.64726
-1.64977
-1.65224
-1.65467
-1.65706
-1.6594
-1.6617
-1.66396
-1.66619
-1.66837
-1.67052
-1.67262
-1.67469
-1.67672
-1.67872
-1.68068
-1.68261
-1.6845
-1.68636
-1.68819
-1.68998
-1.69174
-1.69347
-1.69517
-1.69684
-1.69849
-1.7001
-1.70168
-1.70324
-1.70476
-1.70626
-1.70774
-1.70919
-1.71061
-1.71199
-1.33248
-1.33254
-1.33306
-1.33393
-1.33512
-1.33663
-1.33844
-1.34052
-1.34287
-1.34546
-1.34828
-1.35131
-1.35455
-1.35796
-1.36155
-1.3653
-1.36919
-1.37321
-1.37735
-1.38161
-1.38596
-1.3904
-1.39492
-1.39951
-1.40417
-1.40887
-1.41362
-1.41841
-1.42323
-1.42808
-1.43294
-1.43782
-1.4427
-1.44758
-1.45246
-1.45734
-1.4622
-1.46704
-1.47186
-1.47667
-1.48144
-1.48619
-1.4909
-1.49558
-1.50022
-1.50482
-1.50938
-1.51389
-1.51837
-1.52279
-1.52717
-1.5315
-1.53578
-1.54001
-1.54419
-1.54832
-1.55239
-1.55641
-1.56038
-1.56429
-1.56815
-1.57195
-1.5757
-1.5794
-1.58304
-1.58663
-1.59016
-1.59364
-1.59707
-1.60044
-1.60376
-1.60703
-1.61024
-1.6134
-1.61652
-1.61958
-1.62259
-1.62555
-1.62846
-1.63132
-1.63414
-1.6369
-1.63962
-1.6423
-1.64492
-1.6475
-1.65004
-1.65254
-1.65499
-1.65739
-1.65976
-1.66209
-1.66437
-1.66661
-1.66882
-1.67098
-1.67311
-1.6752
-1.67725
-1.67927
-1.68125
-1.6832
-1.68511
-1.68699
-1.68883
-1.69064
-1.69242
-1.69417
-1.69589
-1.69758
-1.69923
-1.70086
-1.70246
-1.70403
-1.70558
-1.70709
-1.70858
-1.71005
-1.71149
-1.71288
-1.33105
-1.33109
-1.33159
-1.33244
-1.33362
-1.33511
-1.33691
-1.33898
-1.34132
-1.3439
-1.34672
-1.34975
-1.35298
-1.3564
-1.35999
-1.36374
-1.36763
-1.37166
-1.37582
-1.38008
-1.38444
-1.3889
-1.39343
-1.39804
-1.40271
-1.40743
-1.4122
-1.41701
-1.42185
-1.42672
-1.43161
-1.43651
-1.44141
-1.44632
-1.45123
-1.45613
-1.46101
-1.46588
-1.47074
-1.47557
-1.48037
-1.48514
-1.48989
-1.49459
-1.49927
-1.5039
-1.50849
-1.51304
-1.51754
-1.522
-1.52641
-1.53077
-1.53508
-1.53934
-1.54355
-1.54771
-1.55182
-1.55587
-1.55987
-1.56381
-1.5677
-1.57154
-1.57532
-1.57904
-1.58272
-1.58633
-1.5899
-1.59341
-1.59686
-1.60027
-1.60362
-1.60691
-1.61016
-1.61335
-1.61649
-1.61958
-1.62261
-1.6256
-1.62854
-1.63143
-1.63427
-1.63706
-1.63981
-1.64251
-1.64516
-1.64777
-1.65033
-1.65285
-1.65533
-1.65776
-1.66015
-1.66249
-1.6648
-1.66707
-1.6693
-1.67148
-1.67363
-1.67574
-1.67782
-1.67986
-1.68186
-1.68382
-1.68576
-1.68765
-1.68952
-1.69135
-1.69315
-1.69492
-1.69665
-1.69836
-1.70003
-1.70168
-1.7033
-1.70488
-1.70645
-1.70798
-1.70949
-1.71097
-1.71242
-1.71383
-1.32953
-1.32955
-1.33003
-1.33086
-1.33202
-1.3335
-1.33528
-1.33734
-1.33967
-1.34225
-1.34506
-1.34809
-1.35132
-1.35474
-1.35833
-1.36208
-1.36599
-1.37002
-1.37418
-1.37846
-1.38283
-1.3873
-1.39185
-1.39647
-1.40116
-1.4059
-1.41069
-1.41552
-1.42039
-1.42528
-1.43019
-1.43511
-1.44004
-1.44498
-1.44991
-1.45484
-1.45975
-1.46466
-1.46954
-1.4744
-1.47923
-1.48404
-1.48881
-1.49355
-1.49825
-1.50292
-1.50754
-1.51212
-1.51666
-1.52115
-1.52559
-1.52999
-1.53433
-1.53863
-1.54287
-1.54707
-1.5512
-1.55529
-1.55932
-1.5633
-1.56722
-1.57109
-1.57491
-1.57867
-1.58237
-1.58602
-1.58962
-1.59316
-1.59665
-1.60008
-1.60346
-1.60679
-1.61006
-1.61329
-1.61646
-1.61957
-1.62264
-1.62566
-1.62863
-1.63155
-1.63441
-1.63724
-1.64001
-1.64274
-1.64542
-1.64805
-1.65064
-1.65318
-1.65569
-1.65814
-1.66056
-1.66293
-1.66526
-1.66755
-1.6698
-1.67202
-1.67419
-1.67632
-1.67842
-1.68048
-1.6825
-1.68449
-1.68645
-1.68836
-1.69025
-1.6921
-1.69392
-1.69571
-1.69746
-1.69919
-1.70088
-1.70255
-1.70418
-1.70579
-1.70737
-1.70892
-1.71045
-1.71195
-1.71341
-1.71484
-1.32793
-1.32792
-1.32838
-1.32919
-1.33033
-1.3318
-1.33356
-1.33561
-1.33793
-1.3405
-1.34331
-1.34633
-1.34956
-1.35298
-1.35658
-1.36033
-1.36424
-1.36829
-1.37246
-1.37674
-1.38113
-1.38561
-1.39018
-1.39482
-1.39952
-1.40428
-1.4091
-1.41395
-1.41883
-1.42375
-1.42868
-1.43363
-1.43859
-1.44356
-1.44852
-1.45348
-1.45842
-1.46335
-1.46827
-1.47316
-1.47803
-1.48286
-1.48767
-1.49245
-1.49718
-1.50188
-1.50654
-1.51116
-1.51573
-1.52025
-1.52473
-1.52916
-1.53355
-1.53788
-1.54216
-1.54638
-1.55056
-1.55468
-1.55875
-1.56276
-1.56672
-1.57062
-1.57447
-1.57827
-1.58201
-1.58569
-1.58932
-1.5929
-1.59642
-1.59988
-1.6033
-1.60666
-1.60997
-1.61322
-1.61642
-1.61957
-1.62267
-1.62572
-1.62872
-1.63167
-1.63457
-1.63742
-1.64022
-1.64298
-1.64569
-1.64835
-1.65097
-1.65354
-1.65607
-1.65855
-1.66099
-1.66339
-1.66575
-1.66807
-1.67034
-1.67258
-1.67478
-1.67694
-1.67906
-1.68114
-1.68319
-1.6852
-1.68718
-1.68912
-1.69102
-1.6929
-1.69474
-1.69655
-1.69832
-1.70007
-1.70179
-1.70347
-1.70513
-1.70675
-1.70835
-1.70992
-1.71147
-1.71298
-1.71447
-1.71591
-1.32624
-1.3262
-1.32664
-1.32743
-1.32855
-1.33
-1.33175
-1.33379
-1.3361
-1.33866
-1.34146
-1.34448
-1.34771
-1.35113
-1.35473
-1.35849
-1.3624
-1.36646
-1.37064
-1.37493
-1.37933
-1.38383
-1.38841
-1.39307
-1.3978
-1.40258
-1.40741
-1.41229
-1.4172
-1.42214
-1.4271
-1.43208
-1.43706
-1.44206
-1.44705
-1.45204
-1.45702
-1.46198
-1.46693
-1.47185
-1.47675
-1.48163
-1.48647
-1.49128
-1.49605
-1.50079
-1.50548
-1.51014
-1.51474
-1.51931
-1.52382
-1.52829
-1.53271
-1.53708
-1.5414
-1.54566
-1.54987
-1.55403
-1.55814
-1.56219
-1.56618
-1.57012
-1.57401
-1.57784
-1.58162
-1.58534
-1.58901
-1.59262
-1.59617
-1.59968
-1.60313
-1.60652
-1.60986
-1.61315
-1.61639
-1.61957
-1.6227
-1.62578
-1.62882
-1.6318
-1.63473
-1.63761
-1.64044
-1.64323
-1.64597
-1.64866
-1.65131
-1.65391
-1.65647
-1.65898
-1.66145
-1.66388
-1.66627
-1.66861
-1.67091
-1.67318
-1.6754
-1.67758
-1.67973
-1.68184
-1.68391
-1.68595
-1.68795
-1.68991
-1.69184
-1.69374
-1.6956
-1.69744
-1.69923
-1.701
-1.70274
-1.70444
-1.70612
-1.70777
-1.70939
-1.71098
-1.71254
-1.71408
-1.71558
-1.71704
-1.32447
-1.3244
-1.32481
-1.32558
-1.32668
-1.32811
-1.32985
-1.33188
-1.33417
-1.33673
-1.33952
-1.34254
-1.34576
-1.34918
-1.35278
-1.35655
-1.36047
-1.36453
-1.36872
-1.37303
-1.37745
-1.38196
-1.38656
-1.39124
-1.39598
-1.40078
-1.40564
-1.41054
-1.41548
-1.42044
-1.42543
-1.43044
-1.43546
-1.44048
-1.44551
-1.45053
-1.45554
-1.46054
-1.46552
-1.47048
-1.47542
-1.48033
-1.48521
-1.49005
-1.49486
-1.49964
-1.50437
-1.50906
-1.51371
-1.51831
-1.52287
-1.52738
-1.53183
-1.53624
-1.5406
-1.5449
-1.54915
-1.55335
-1.5575
-1.56159
-1.56562
-1.5696
-1.57353
-1.5774
-1.58121
-1.58497
-1.58867
-1.59232
-1.59592
-1.59946
-1.60294
-1.60638
-1.60975
-1.61308
-1.61635
-1.61957
-1.62274
-1.62585
-1.62892
-1.63193
-1.6349
-1.63781
-1.64068
-1.6435
-1.64627
-1.64899
-1.65167
-1.65431
-1.65689
-1.65944
-1.66194
-1.66439
-1.66681
-1.66918
-1.67151
-1.6738
-1.67605
-1.67827
-1.68044
-1.68257
-1.68467
-1.68673
-1.68876
-1.69075
-1.69271
-1.69463
-1.69651
-1.69837
-1.70019
-1.70198
-1.70374
-1.70547
-1.70717
-1.70884
-1.71048
-1.71209
-1.71367
-1.71523
-1.71676
-1.71823
-1.32261
-1.32252
-1.3229
-1.32365
-1.32473
-1.32614
-1.32786
-1.32987
-1.33216
-1.3347
-1.33749
-1.3405
-1.34373
-1.34715
-1.35075
-1.35452
-1.35845
-1.36252
-1.36672
-1.37104
-1.37547
-1.38
-1.38462
-1.38931
-1.39408
-1.39891
-1.40379
-1.40871
-1.41367
-1.41867
-1.42369
-1.42872
-1.43377
-1.43883
-1.44389
-1.44894
-1.45399
-1.45902
-1.46404
-1.46904
-1.47401
-1.47896
-1.48388
-1.48877
-1.49362
-1.49843
-1.5032
-1.50794
-1.51262
-1.51727
-1.52187
-1.52641
-1.53091
-1.53536
-1.53976
-1.54411
-1.5484
-1.55264
-1.55683
-1.56096
-1.56503
-1.56905
-1.57302
-1.57693
-1.58078
-1.58458
-1.58833
-1.59202
-1.59565
-1.59923
-1.60275
-1.60622
-1.60964
-1.613
-1.61631
-1.61957
-1.62277
-1.62592
-1.62902
-1.63207
-1.63507
-1.63802
-1.64093
-1.64378
-1.64658
-1.64934
-1.65205
-1.65472
-1.65734
-1.65991
-1.66244
-1.66493
-1.66738
-1.66978
-1.67214
-1.67446
-1.67674
-1.67898
-1.68118
-1.68335
-1.68547
-1.68756
-1.68961
-1.69163
-1.69361
-1.69556
-1.69747
-1.69935
-1.7012
-1.70301
-1.70479
-1.70655
-1.70827
-1.70996
-1.71162
-1.71326
-1.71486
-1.71644
-1.71799
-1.71948
-1.32068
-1.32055
-1.32091
-1.32163
-1.32269
-1.32408
-1.32578
-1.32778
-1.33005
-1.33259
-1.33537
-1.33838
-1.3416
-1.34502
-1.34863
-1.3524
-1.35634
-1.36042
-1.36463
-1.36896
-1.37341
-1.37795
-1.38259
-1.3873
-1.39209
-1.39694
-1.40185
-1.4068
-1.41179
-1.41681
-1.42186
-1.42693
-1.43201
-1.4371
-1.44219
-1.44728
-1.45237
-1.45744
-1.46249
-1.46753
-1.47255
-1.47753
-1.48249
-1.48742
-1.49231
-1.49717
-1.50198
-1.50676
-1.51149
-1.51618
-1.52082
-1.52541
-1.52995
-1.53444
-1.53888
-1.54327
-1.54761
-1.55189
-1.55612
-1.5603
-1.56441
-1.56848
-1.57249
-1.57644
-1.58034
-1.58418
-1.58796
-1.59169
-1.59537
-1.59899
-1.60255
-1.60606
-1.60952
-1.61292
-1.61627
-1.61956
-1.62281
-1.626
-1.62913
-1.63222
-1.63526
-1.63825
-1.64118
-1.64407
-1.64691
-1.64971
-1.65245
-1.65515
-1.6578
-1.66041
-1.66298
-1.6655
-1.66797
-1.67041
-1.6728
-1.67515
-1.67746
-1.67973
-1.68196
-1.68415
-1.68631
-1.68843
-1.69051
-1.69255
-1.69456
-1.69653
-1.69847
-1.70038
-1.70225
-1.70409
-1.7059
-1.70767
-1.70942
-1.71114
-1.71282
-1.71448
-1.71611
-1.71771
-1.71928
-1.72079
-1.31866
-1.3185
-1.31883
-1.31953
-1.32056
-1.32193
-1.32362
-1.3256
-1.32786
-1.33039
-1.33316
-1.33617
-1.33938
-1.34281
-1.34641
-1.35019
-1.35413
-1.35822
-1.36245
-1.36679
-1.37126
-1.37582
-1.38047
-1.38521
-1.39002
-1.39489
-1.39983
-1.4048
-1.40982
-1.41488
-1.41996
-1.42506
-1.43018
-1.4353
-1.44043
-1.44556
-1.45068
-1.45579
-1.46088
-1.46596
-1.47101
-1.47604
-1.48105
-1.48602
-1.49095
-1.49585
-1.50071
-1.50553
-1.5103
-1.51504
-1.51972
-1.52436
-1.52895
-1.53348
-1.53797
-1.5424
-1.54679
-1.55111
-1.55539
-1.55961
-1.56377
-1.56788
-1.57193
-1.57593
-1.57987
-1.58375
-1.58758
-1.59136
-1.59507
-1.59874
-1.60234
-1.6059
-1.60939
-1.61284
-1.61622
-1.61956
-1.62284
-1.62607
-1.62925
-1.63238
-1.63545
-1.63848
-1.64145
-1.64438
-1.64726
-1.65009
-1.65287
-1.6556
-1.65829
-1.66093
-1.66353
-1.66608
-1.66859
-1.67106
-1.67349
-1.67587
-1.67821
-1.68051
-1.68278
-1.685
-1.68718
-1.68933
-1.69144
-1.69351
-1.69555
-1.69755
-1.69952
-1.70145
-1.70335
-1.70522
-1.70705
-1.70885
-1.71062
-1.71236
-1.71407
-1.71576
-1.71741
-1.71903
-1.72062
-1.72215
-1.31657
-1.31637
-1.31667
-1.31734
-1.31835
-1.3197
-1.32137
-1.32333
-1.32558
-1.3281
-1.33086
-1.33386
-1.33708
-1.3405
-1.34411
-1.3479
-1.35185
-1.35594
-1.36018
-1.36454
-1.36902
-1.3736
-1.37827
-1.38303
-1.38786
-1.39276
-1.39772
-1.40273
-1.40778
-1.41286
-1.41798
-1.42311
-1.42826
-1.43342
-1.43859
-1.44376
-1.44892
-1.45407
-1.4592
-1.46432
-1.46942
-1.47449
-1.47954
-1.48455
-1.48953
-1.49448
-1.49938
-1.50425
-1.50907
-1.51385
-1.51858
-1.52326
-1.5279
-1.53248
-1.53702
-1.5415
-1.54593
-1.5503
-1.55462
-1.55889
-1.5631
-1.56725
-1.57135
-1.57539
-1.57938
-1.58331
-1.58719
-1.59101
-1.59477
-1.59847
-1.60213
-1.60572
-1.60926
-1.61275
-1.61618
-1.61956
-1.62288
-1.62615
-1.62937
-1.63254
-1.63565
-1.63872
-1.64173
-1.6447
-1.64761
-1.65048
-1.6533
-1.65607
-1.6588
-1.66148
-1.66411
-1.6667
-1.66924
-1.67174
-1.6742
-1.67662
-1.679
-1.68133
-1.68362
-1.68588
-1.68809
-1.69027
-1.69241
-1.69451
-1.69658
-1.69861
-1.70061
-1.70257
-1.7045
-1.70639
-1.70825
-1.71008
-1.71188
-1.71364
-1.71538
-1.71709
-1.71876
-1.72042
-1.72203
-1.72358
-1.31439
-1.31416
-1.31443
-1.31508
-1.31606
-1.31739
-1.31903
-1.32098
-1.32322
-1.32573
-1.32848
-1.33148
-1.33469
-1.33811
-1.34172
-1.34551
-1.34947
-1.35358
-1.35783
-1.3622
-1.36669
-1.37129
-1.37599
-1.38077
-1.38563
-1.39055
-1.39554
-1.40058
-1.40566
-1.41077
-1.41592
-1.42109
-1.42628
-1.43148
-1.43668
-1.44189
-1.44709
-1.45228
-1.45746
-1.46262
-1.46776
-1.47288
-1.47797
-1.48303
-1.48806
-1.49305
-1.498
-1.50292
-1.50779
-1.51261
-1.51739
-1.52212
-1.52681
-1.53144
-1.53602
-1.54055
-1.54503
-1.54946
-1.55382
-1.55814
-1.5624
-1.5666
-1.57075
-1.57484
-1.57887
-1.58285
-1.58677
-1.59064
-1.59445
-1.5982
-1.6019
-1.60554
-1.60912
-1.61265
-1.61613
-1.61955
-1.62292
-1.62623
-1.6295
-1.63271
-1.63586
-1.63897
-1.64202
-1.64503
-1.64798
-1.65089
-1.65375
-1.65656
-1.65932
-1.66204
-1.66471
-1.66734
-1.66992
-1.67245
-1.67495
-1.6774
-1.67981
-1.68218
-1.68451
-1.68679
-1.68904
-1.69125
-1.69342
-1.69556
-1.69765
-1.69971
-1.70174
-1.70373
-1.70569
-1.70761
-1.7095
-1.71136
-1.71318
-1.71498
-1.71674
-1.71847
-1.72018
-1.72185
-1.72349
-1.72506
-1.31215
-1.31188
-1.31212
-1.31273
-1.31369
-1.31499
-1.31662
-1.31855
-1.32077
-1.32327
-1.32602
-1.329
-1.33222
-1.33564
-1.33925
-1.34305
-1.34701
-1.35113
-1.35539
-1.35978
-1.36429
-1.3689
-1.37362
-1.37842
-1.38331
-1.38826
-1.39327
-1.39834
-1.40345
-1.4086
-1.41379
-1.41899
-1.42422
-1.42946
-1.4347
-1.43995
-1.44519
-1.45043
-1.45565
-1.46086
-1.46604
-1.47121
-1.47635
-1.48145
-1.48653
-1.49157
-1.49657
-1.50153
-1.50645
-1.51133
-1.51616
-1.52094
-1.52568
-1.53036
-1.53499
-1.53957
-1.5441
-1.54858
-1.553
-1.55736
-1.56167
-1.56592
-1.57012
-1.57426
-1.57835
-1.58237
-1.58634
-1.59026
-1.59412
-1.59792
-1.60166
-1.60535
-1.60898
-1.61256
-1.61608
-1.61955
-1.62296
-1.62632
-1.62963
-1.63288
-1.63608
-1.63923
-1.64233
-1.64537
-1.64837
-1.65132
-1.65422
-1.65707
-1.65987
-1.66263
-1.66533
-1.668
-1.67062
-1.67319
-1.67572
-1.67821
-1.68066
-1.68306
-1.68542
-1.68774
-1.69003
-1.69227
-1.69447
-1.69664
-1.69877
-1.70086
-1.70292
-1.70494
-1.70693
-1.70888
-1.7108
-1.71268
-1.71454
-1.71636
-1.71815
-1.71991
-1.72164
-1.72334
-1.72501
-1.7266
-1.30982
-1.30952
-1.30972
-1.3103
-1.31124
-1.31251
-1.31412
-1.31604
-1.31824
-1.32073
-1.32347
-1.32645
-1.32966
-1.33308
-1.33669
-1.34049
-1.34446
-1.34859
-1.35286
-1.35727
-1.3618
-1.36643
-1.37117
-1.376
-1.38091
-1.38589
-1.39093
-1.39603
-1.40118
-1.40636
-1.41158
-1.41682
-1.42209
-1.42736
-1.43265
-1.43794
-1.44323
-1.44851
-1.45378
-1.45903
-1.46426
-1.46948
-1.47466
-1.47982
-1.48494
-1.49003
-1.49509
-1.5001
-1.50507
-1.51
-1.51488
-1.51972
-1.5245
-1.52924
-1.53393
-1.53856
-1.54314
-1.54767
-1.55214
-1.55656
-1.56092
-1.56522
-1.56947
-1.57366
-1.5778
-1.58188
-1.5859
-1.58986
-1.59377
-1.59762
-1.60141
-1.60515
-1.60883
-1.61246
-1.61603
-1.61954
-1.623
-1.62641
-1.62976
-1.63306
-1.6363
-1.6395
-1.64264
-1.64573
-1.64877
-1.65176
-1.6547
-1.65759
-1.66044
-1.66323
-1.66598
-1.66869
-1.67134
-1.67396
-1.67652
-1.67905
-1.68153
-1.68397
-1.68637
-1.68873
-1.69105
-1.69332
-1.69556
-1.69776
-1.69992
-1.70205
-1.70414
-1.70619
-1.70821
-1.71019
-1.71214
-1.71406
-1.71594
-1.71779
-1.71961
-1.7214
-1.72316
-1.72489
-1.72658
-1.7282
-1.30743
-1.30708
-1.30725
-1.3078
-1.30871
-1.30996
-1.31154
-1.31344
-1.31563
-1.3181
-1.32083
-1.32381
-1.32701
-1.33043
-1.33405
-1.33786
-1.34184
-1.34597
-1.35026
-1.35468
-1.35922
-1.36388
-1.36864
-1.37349
-1.37843
-1.38344
-1.38851
-1.39364
-1.39882
-1.40404
-1.4093
-1.41458
-1.41988
-1.4252
-1.43053
-1.43586
-1.44119
-1.44652
-1.45184
-1.45714
-1.46242
-1.46768
-1.47292
-1.47813
-1.4833
-1.48845
-1.49355
-1.49862
-1.50364
-1.50862
-1.51356
-1.51845
-1.52329
-1.52808
-1.53282
-1.53751
-1.54214
-1.54672
-1.55125
-1.55572
-1.56014
-1.5645
-1.5688
-1.57304
-1.57723
-1.58136
-1.58544
-1.58945
-1.59341
-1.59731
-1.60116
-1.60495
-1.60868
-1.61235
-1.61597
-1.61954
-1.62304
-1.6265
-1.6299
-1.63324
-1.63653
-1.63977
-1.64296
-1.6461
-1.64918
-1.65222
-1.6552
-1.65814
-1.66102
-1.66386
-1.66665
-1.6694
-1.67209
-1.67475
-1.67736
-1.67992
-1.68244
-1.68492
-1.68735
-1.68975
-1.6921
-1.69442
-1.69669
-1.69892
-1.70112
-1.70328
-1.7054
-1.70749
-1.70954
-1.71156
-1.71354
-1.71549
-1.7174
-1.71928
-1.72113
-1.72295
-1.72474
-1.7265
-1.72821
-1.72985
-1.30496
-1.30457
-1.30471
-1.30523
-1.3061
-1.30733
-1.30889
-1.31077
-1.31294
-1.3154
-1.31812
-1.32109
-1.32429
-1.32771
-1.33133
-1.33514
-1.33913
-1.34327
-1.34757
-1.35201
-1.35657
-1.36125
-1.36603
-1.37091
-1.37587
-1.38091
-1.38601
-1.39117
-1.39639
-1.40165
-1.40694
-1.41226
-1.41761
-1.42297
-1.42834
-1.43372
-1.4391
-1.44447
-1.44983
-1.45518
-1.46052
-1.46583
-1.47112
-1.47638
-1.48161
-1.4868
-1.49196
-1.49708
-1.50216
-1.5072
-1.51219
-1.51714
-1.52203
-1.52688
-1.53168