/*--------------------------------*- C++ -*----------------------------------*\
  =========                 |
  \\      /  F ield         | OpenFOAM: The Open Source CFD Toolbox
   \\    /   O peration     | Website:  https://openfoam.org
    \\  /    A nd           | Version:  8
     \\/     M anipulation  |
\*---------------------------------------------------------------------------*/
FoamFile
{
    version     2.0;
    format      ascii;
    class       volScalarField;
    location    "1";
    object      nut;
}
// * * * * * * * * * * * * * * * * * * * * * * * * * * * * * * * * * * * * * //

dimensions      [0 2 -1 0 0 0 0];

internalField   nonuniform List<scalar> 
277560
(
0.135613
0.135603
0.135577
0.135537
0.135488
0.135429
0.135365
0.135295
0.135222
0.135147
0.135072
0.134997
0.134922
0.13485
0.13478
0.134714
0.134651
0.134593
0.134539
0.13449
0.134447
0.134408
0.134375
0.134348
0.134326
0.13431
0.134299
0.134294
0.134294
0.1343
0.134311
0.134327
0.134348
0.134373
0.134404
0.134438
0.134477
0.13452
0.134567
0.134617
0.134671
0.134728
0.134789
0.134852
0.134917
0.134985
0.135055
0.135128
0.135202
0.135277
0.135354
0.135433
0.135512
0.135593
0.135674
0.135756
0.135838
0.13592
0.136003
0.136086
0.136169
0.136251
0.136334
0.136416
0.136497
0.136578
0.136658
0.136738
0.136817
0.136895
0.136972
0.137048
0.137123
0.137197
0.137271
0.137343
0.137414
0.137483
0.137552
0.13762
0.137686
0.137751
0.137816
0.137879
0.137941
0.138001
0.138061
0.13812
0.138177
0.138234
0.13829
0.138344
0.138398
0.138451
0.138503
0.138554
0.138604
0.138654
0.138703
0.138751
0.138799
0.138847
0.138893
0.13894
0.138986
0.139032
0.139077
0.139123
0.139168
0.139213
0.139259
0.139304
0.139349
0.139395
0.139441
0.139487
0.139533
0.13958
0.139627
0.139675
0.135629
0.135619
0.135593
0.135554
0.135504
0.135445
0.13538
0.135311
0.135238
0.135163
0.135087
0.135011
0.134937
0.134864
0.134794
0.134727
0.134664
0.134606
0.134551
0.134502
0.134458
0.134419
0.134386
0.134358
0.134336
0.134319
0.134308
0.134302
0.134302
0.134307
0.134318
0.134333
0.134354
0.134379
0.134409
0.134443
0.134482
0.134524
0.134571
0.134621
0.134674
0.134731
0.134791
0.134853
0.134918
0.134986
0.135056
0.135128
0.135202
0.135277
0.135354
0.135432
0.135511
0.135591
0.135672
0.135754
0.135836
0.135918
0.136001
0.136084
0.136166
0.136249
0.136331
0.136413
0.136494
0.136575
0.136655
0.136735
0.136813
0.136891
0.136968
0.137044
0.137119
0.137193
0.137267
0.137339
0.137409
0.137479
0.137548
0.137616
0.137682
0.137747
0.137811
0.137874
0.137936
0.137997
0.138057
0.138115
0.138173
0.13823
0.138285
0.13834
0.138394
0.138446
0.138498
0.13855
0.1386
0.13865
0.138699
0.138747
0.138795
0.138843
0.13889
0.138936
0.138982
0.139028
0.139074
0.139119
0.139165
0.13921
0.139255
0.139301
0.139346
0.139392
0.139438
0.139484
0.139531
0.139578
0.139625
0.139673
0.13565
0.13564
0.135613
0.135574
0.135524
0.135465
0.1354
0.13533
0.135256
0.135181
0.135104
0.135028
0.134953
0.13488
0.134809
0.134742
0.134678
0.134618
0.134563
0.134513
0.134468
0.134428
0.134394
0.134366
0.134342
0.134325
0.134313
0.134307
0.134306
0.13431
0.13432
0.134335
0.134354
0.134379
0.134408
0.134441
0.134479
0.134521
0.134567
0.134616
0.134669
0.134725
0.134785
0.134847
0.134911
0.134979
0.135048
0.135119
0.135193
0.135268
0.135344
0.135422
0.135501
0.135581
0.135662
0.135743
0.135825
0.135907
0.13599
0.136072
0.136155
0.136237
0.136319
0.136401
0.136482
0.136563
0.136643
0.136722
0.136801
0.136879
0.136956
0.137032
0.137107
0.137181
0.137254
0.137326
0.137397
0.137467
0.137536
0.137603
0.13767
0.137735
0.1378
0.137863
0.137925
0.137986
0.138045
0.138104
0.138162
0.138219
0.138274
0.138329
0.138383
0.138436
0.138488
0.13854
0.13859
0.13864
0.138689
0.138738
0.138786
0.138834
0.138881
0.138928
0.138974
0.13902
0.139066
0.139112
0.139157
0.139203
0.139249
0.139294
0.13934
0.139386
0.139432
0.139479
0.139526
0.139573
0.139621
0.139669
0.135675
0.135665
0.135639
0.135599
0.135548
0.135489
0.135423
0.135353
0.135278
0.135202
0.135125
0.135048
0.134972
0.134897
0.134826
0.134757
0.134692
0.134631
0.134575
0.134524
0.134478
0.134437
0.134401
0.134372
0.134347
0.134329
0.134316
0.134308
0.134306
0.134309
0.134318
0.134332
0.13435
0.134374
0.134402
0.134434
0.134471
0.134512
0.134557
0.134606
0.134658
0.134713
0.134772
0.134833
0.134897
0.134964
0.135033
0.135103
0.135176
0.135251
0.135327
0.135404
0.135483
0.135563
0.135643
0.135724
0.135806
0.135888
0.13597
0.136053
0.136135
0.136217
0.136299
0.136381
0.136462
0.136543
0.136623
0.136703
0.136781
0.136859
0.136936
0.137012
0.137088
0.137162
0.137235
0.137307
0.137378
0.137448
0.137517
0.137585
0.137652
0.137717
0.137782
0.137845
0.137907
0.137968
0.138028
0.138087
0.138145
0.138202
0.138258
0.138314
0.138368
0.138421
0.138473
0.138525
0.138576
0.138626
0.138676
0.138725
0.138773
0.138821
0.138869
0.138916
0.138962
0.139009
0.139055
0.139101
0.139147
0.139193
0.139239
0.139285
0.139332
0.139378
0.139425
0.139472
0.139519
0.139567
0.139615
0.139664
0.135705
0.135695
0.135668
0.135628
0.135577
0.135517
0.135451
0.135379
0.135304
0.135227
0.135149
0.13507
0.134993
0.134917
0.134844
0.134774
0.134708
0.134645
0.134588
0.134535
0.134487
0.134445
0.134408
0.134376
0.134351
0.13433
0.134316
0.134307
0.134303
0.134305
0.134313
0.134325
0.134342
0.134364
0.134391
0.134423
0.134458
0.134498
0.134542
0.13459
0.134641
0.134695
0.134753
0.134813
0.134877
0.134942
0.135011
0.135081
0.135153
0.135227
0.135303
0.13538
0.135458
0.135538
0.135618
0.135699
0.13578
0.135862
0.135944
0.136027
0.136109
0.136191
0.136273
0.136355
0.136436
0.136517
0.136597
0.136676
0.136755
0.136833
0.13691
0.136987
0.137062
0.137136
0.13721
0.137282
0.137353
0.137424
0.137493
0.137561
0.137628
0.137694
0.137758
0.137822
0.137885
0.137946
0.138007
0.138066
0.138124
0.138182
0.138238
0.138294
0.138348
0.138402
0.138455
0.138507
0.138558
0.138609
0.138659
0.138708
0.138757
0.138805
0.138853
0.138901
0.138948
0.138995
0.139042
0.139089
0.139135
0.139182
0.139228
0.139275
0.139322
0.139369
0.139416
0.139464
0.139512
0.13956
0.139609
0.139659
0.135739
0.135729
0.135702
0.135662
0.13561
0.13555
0.135482
0.13541
0.135333
0.135255
0.135175
0.135095
0.135016
0.134939
0.134864
0.134792
0.134724
0.13466
0.134601
0.134546
0.134496
0.134452
0.134413
0.13438
0.134352
0.134331
0.134314
0.134304
0.134298
0.134299
0.134304
0.134315
0.134331
0.134352
0.134377
0.134407
0.134441
0.13448
0.134522
0.134569
0.134619
0.134672
0.134729
0.134788
0.134851
0.134916
0.134983
0.135053
0.135125
0.135198
0.135273
0.13535
0.135428
0.135507
0.135587
0.135668
0.135749
0.13583
0.135912
0.135995
0.136077
0.136159
0.136241
0.136322
0.136404
0.136485
0.136565
0.136644
0.136723
0.136801
0.136879
0.136955
0.137031
0.137106
0.137179
0.137252
0.137324
0.137394
0.137464
0.137532
0.137599
0.137666
0.137731
0.137795
0.137858
0.13792
0.137981
0.138041
0.138099
0.138157
0.138214
0.13827
0.138325
0.138379
0.138433
0.138485
0.138537
0.138589
0.138639
0.138689
0.138739
0.138787
0.138836
0.138884
0.138932
0.138979
0.139027
0.139074
0.139121
0.139168
0.139216
0.139263
0.13931
0.139358
0.139406
0.139455
0.139503
0.139553
0.139602
0.139653
0.135777
0.135767
0.13574
0.135699
0.135647
0.135586
0.135517
0.135444
0.135366
0.135286
0.135205
0.135123
0.135042
0.134963
0.134886
0.134812
0.134742
0.134676
0.134614
0.134557
0.134506
0.134459
0.134418
0.134383
0.134353
0.134329
0.134311
0.134299
0.134291
0.13429
0.134294
0.134303
0.134317
0.134336
0.134359
0.134388
0.134421
0.134458
0.134499
0.134544
0.134593
0.134645
0.1347
0.134759
0.13482
0.134884
0.134951
0.13502
0.135091
0.135164
0.135239
0.135315
0.135392
0.135471
0.135551
0.135631
0.135712
0.135793
0.135875
0.135957
0.136039
0.136122
0.136203
0.136285
0.136366
0.136447
0.136528
0.136608
0.136687
0.136765
0.136843
0.13692
0.136995
0.13707
0.137144
0.137218
0.13729
0.137361
0.137431
0.137499
0.137567
0.137634
0.1377
0.137764
0.137828
0.13789
0.137952
0.138012
0.138072
0.13813
0.138188
0.138244
0.1383
0.138355
0.138409
0.138462
0.138514
0.138566
0.138617
0.138668
0.138718
0.138768
0.138817
0.138866
0.138914
0.138962
0.139011
0.139058
0.139106
0.139154
0.139202
0.13925
0.139298
0.139347
0.139396
0.139445
0.139495
0.139545
0.139595
0.139647
0.13582
0.13581
0.135783
0.135741
0.135688
0.135626
0.135556
0.135481
0.135402
0.13532
0.135237
0.135154
0.135071
0.134989
0.13491
0.134834
0.134761
0.134693
0.134629
0.13457
0.134515
0.134467
0.134423
0.134386
0.134354
0.134328
0.134307
0.134292
0.134283
0.134279
0.134281
0.134288
0.1343
0.134317
0.134339
0.134366
0.134397
0.134432
0.134472
0.134515
0.134563
0.134614
0.134668
0.134725
0.134785
0.134849
0.134914
0.134983
0.135053
0.135125
0.135199
0.135275
0.135352
0.13543
0.13551
0.13559
0.135671
0.135752
0.135834
0.135916
0.135998
0.13608
0.136162
0.136243
0.136325
0.136406
0.136487
0.136567
0.136646
0.136725
0.136803
0.13688
0.136956
0.137032
0.137106
0.13718
0.137252
0.137324
0.137394
0.137464
0.137532
0.137599
0.137665
0.137731
0.137795
0.137858
0.13792
0.137981
0.138041
0.1381
0.138159
0.138216
0.138272
0.138328
0.138382
0.138436
0.13849
0.138542
0.138594
0.138645
0.138696
0.138747
0.138797
0.138846
0.138895
0.138944
0.138993
0.139042
0.139091
0.139139
0.139188
0.139237
0.139286
0.139335
0.139385
0.139435
0.139485
0.139536
0.139588
0.13964
0.135866
0.135856
0.135829
0.135787
0.135733
0.135669
0.135599
0.135522
0.135441
0.135358
0.135273
0.135187
0.135102
0.135018
0.134936
0.134858
0.134782
0.134711
0.134644
0.134582
0.134526
0.134474
0.134428
0.134388
0.134354
0.134325
0.134302
0.134285
0.134273
0.134267
0.134267
0.134272
0.134282
0.134297
0.134317
0.134341
0.134371
0.134404
0.134442
0.134484
0.13453
0.134579
0.134632
0.134688
0.134747
0.13481
0.134874
0.134942
0.135011
0.135083
0.135156
0.135232
0.135308
0.135386
0.135465
0.135545
0.135625
0.135706
0.135788
0.13587
0.135952
0.136034
0.136116
0.136198
0.136279
0.136361
0.136442
0.136522
0.136602
0.136681
0.136759
0.136837
0.136913
0.136989
0.137064
0.137138
0.137211
0.137284
0.137355
0.137425
0.137494
0.137562
0.137629
0.137695
0.13776
0.137823
0.137886
0.137948
0.138009
0.138069
0.138128
0.138186
0.138243
0.138299
0.138355
0.138409
0.138463
0.138517
0.13857
0.138622
0.138673
0.138724
0.138775
0.138826
0.138876
0.138925
0.138975
0.139025
0.139074
0.139124
0.139173
0.139223
0.139273
0.139323
0.139374
0.139425
0.139476
0.139528
0.139581
0.139634
0.135917
0.135907
0.135879
0.135836
0.135781
0.135717
0.135644
0.135566
0.135484
0.135398
0.135311
0.135223
0.135135
0.135049
0.134964
0.134883
0.134805
0.134731
0.134661
0.134596
0.134536
0.134482
0.134434
0.134391
0.134353
0.134322
0.134296
0.134277
0.134263
0.134254
0.134251
0.134254
0.134261
0.134274
0.134292
0.134315
0.134342
0.134374
0.13441
0.13445
0.134495
0.134542
0.134594
0.134649
0.134707
0.134767
0.134831
0.134898
0.134966
0.135037
0.13511
0.135185
0.135261
0.135338
0.135417
0.135496
0.135576
0.135657
0.135739
0.135821
0.135903
0.135985
0.136067
0.136149
0.136231
0.136312
0.136393
0.136474
0.136554
0.136634
0.136713
0.136791
0.136868
0.136944
0.13702
0.137095
0.137168
0.137241
0.137313
0.137384
0.137453
0.137522
0.13759
0.137657
0.137722
0.137787
0.13785
0.137913
0.137975
0.138035
0.138095
0.138154
0.138212
0.138269
0.138326
0.138381
0.138436
0.13849
0.138544
0.138597
0.138649
0.138701
0.138753
0.138804
0.138855
0.138906
0.138957
0.139007
0.139057
0.139108
0.139158
0.139209
0.13926
0.139311
0.139362
0.139414
0.139467
0.139519
0.139573
0.139627
0.13597
0.13596
0.135932
0.135889
0.135833
0.135767
0.135694
0.135614
0.135529
0.135441
0.135352
0.135261
0.135171
0.135081
0.134994
0.13491
0.134829
0.134751
0.134679
0.134611
0.134548
0.134491
0.134439
0.134393
0.134353
0.134319
0.13429
0.134268
0.134251
0.13424
0.134235
0.134235
0.13424
0.134251
0.134266
0.134287
0.134312
0.134342
0.134376
0.134415
0.134457
0.134503
0.134553
0.134607
0.134663
0.134723
0.134786
0.134851
0.134919
0.134989
0.135061
0.135135
0.13521
0.135287
0.135365
0.135445
0.135525
0.135605
0.135687
0.135768
0.135851
0.135933
0.136015
0.136097
0.136179
0.136261
0.136343
0.136424
0.136504
0.136584
0.136664
0.136742
0.13682
0.136897
0.136973
0.137049
0.137123
0.137197
0.137269
0.137341
0.137411
0.137481
0.137549
0.137617
0.137683
0.137749
0.137813
0.137877
0.137939
0.138001
0.138061
0.138121
0.13818
0.138238
0.138296
0.138352
0.138408
0.138463
0.138518
0.138571
0.138625
0.138678
0.13873
0.138782
0.138834
0.138886
0.138937
0.138989
0.13904
0.139091
0.139143
0.139194
0.139246
0.139298
0.139351
0.139404
0.139457
0.139511
0.139565
0.13962
0.136027
0.136018
0.135989
0.135945
0.135888
0.135821
0.135746
0.135664
0.135578
0.135487
0.135395
0.135302
0.135209
0.135116
0.135026
0.134938
0.134854
0.134774
0.134698
0.134626
0.13456
0.1345
0.134445
0.134396
0.134353
0.134316
0.134284
0.134259
0.134239
0.134226
0.134218
0.134215
0.134218
0.134226
0.13424
0.134258
0.134281
0.134309
0.134341
0.134377
0.134418
0.134462
0.134511
0.134563
0.134618
0.134676
0.134738
0.134802
0.134869
0.134938
0.135009
0.135083
0.135157
0.135234
0.135312
0.13539
0.13547
0.135551
0.135632
0.135714
0.135796
0.135878
0.135961
0.136043
0.136125
0.136208
0.136289
0.136371
0.136452
0.136532
0.136612
0.136691
0.13677
0.136848
0.136925
0.137001
0.137076
0.13715
0.137223
0.137296
0.137367
0.137438
0.137507
0.137575
0.137643
0.137709
0.137775
0.137839
0.137903
0.137965
0.138027
0.138087
0.138147
0.138206
0.138265
0.138322
0.138379
0.138435
0.13849
0.138545
0.1386
0.138654
0.138707
0.13876
0.138813
0.138866
0.138918
0.13897
0.139023
0.139075
0.139127
0.13918
0.139233
0.139286
0.139339
0.139393
0.139447
0.139502
0.139558
0.139614
0.136088
0.136078
0.136049
0.136004
0.135946
0.135878
0.135801
0.135717
0.135629
0.135536
0.135441
0.135345
0.135249
0.135153
0.13506
0.134969
0.134881
0.134797
0.134718
0.134643
0.134574
0.13451
0.134452
0.134399
0.134353
0.134313
0.134278
0.13425
0.134228
0.134211
0.1342
0.134195
0.134195
0.134201
0.134212
0.134228
0.134249
0.134274
0.134304
0.134339
0.134377
0.13442
0.134467
0.134517
0.134571
0.134628
0.134688
0.134751
0.134817
0.134885
0.134956
0.135028
0.135103
0.135178
0.135256
0.135334
0.135414
0.135494
0.135575
0.135657
0.135739
0.135821
0.135904
0.135987
0.136069
0.136152
0.136234
0.136316
0.136398
0.136479
0.136559
0.136639
0.136718
0.136797
0.136874
0.136951
0.137027
0.137102
0.137176
0.137249
0.137322
0.137393
0.137463
0.137533
0.137601
0.137668
0.137735
0.1378
0.137865
0.137928
0.137991
0.138053
0.138114
0.138174
0.138233
0.138291
0.138349
0.138406
0.138463
0.138519
0.138574
0.138629
0.138683
0.138737
0.138791
0.138845
0.138898
0.138952
0.139005
0.139058
0.139111
0.139165
0.139219
0.139273
0.139327
0.139382
0.139437
0.139493
0.13955
0.139607
0.136151
0.136141
0.136112
0.136066
0.136007
0.135938
0.135859
0.135773
0.135682
0.135587
0.13549
0.13539
0.135291
0.135192
0.135095
0.135001
0.134909
0.134822
0.134739
0.134661
0.134588
0.13452
0.134459
0.134403
0.134354
0.13431
0.134272
0.134241
0.134216
0.134196
0.134182
0.134174
0.134172
0.134175
0.134183
0.134197
0.134215
0.134239
0.134267
0.134299
0.134336
0.134377
0.134422
0.13447
0.134522
0.134578
0.134637
0.134699
0.134764
0.134831
0.1349
0.134972
0.135046
0.135121
0.135198
0.135276
0.135355
0.135435
0.135516
0.135598
0.13568
0.135763
0.135846
0.135929
0.136012
0.136095
0.136177
0.13626
0.136342
0.136423
0.136504
0.136585
0.136665
0.136744
0.136822
0.1369
0.136977
0.137053
0.137128
0.137202
0.137275
0.137347
0.137419
0.137489
0.137558
0.137627
0.137694
0.137761
0.137826
0.137891
0.137954
0.138017
0.138079
0.13814
0.1382
0.13826
0.138319
0.138377
0.138435
0.138491
0.138548
0.138604
0.138659
0.138714
0.138769
0.138824
0.138878
0.138933
0.138987
0.139041
0.139095
0.13915
0.139205
0.13926
0.139315
0.139371
0.139428
0.139485
0.139542
0.139601
0.136217
0.136207
0.136177
0.136131
0.136071
0.136
0.13592
0.135832
0.135738
0.135641
0.13554
0.135438
0.135335
0.135233
0.135132
0.135034
0.134939
0.134848
0.134761
0.134679
0.134603
0.134532
0.134467
0.134408
0.134355
0.134308
0.134267
0.134232
0.134204
0.134181
0.134165
0.134154
0.134149
0.134149
0.134155
0.134166
0.134182
0.134203
0.134229
0.134259
0.134294
0.134333
0.134376
0.134422
0.134473
0.134527
0.134585
0.134645
0.134709
0.134775
0.134844
0.134915
0.134988
0.135062
0.135139
0.135216
0.135295
0.135375
0.135456
0.135538
0.13562
0.135703
0.135786
0.135869
0.135952
0.136036
0.136119
0.136202
0.136284
0.136366
0.136448
0.136529
0.13661
0.13669
0.136769
0.136848
0.136925
0.137002
0.137078
0.137153
0.137227
0.1373
0.137373
0.137444
0.137515
0.137584
0.137652
0.13772
0.137787
0.137852
0.137917
0.137981
0.138044
0.138106
0.138167
0.138228
0.138288
0.138347
0.138406
0.138464
0.138521
0.138578
0.138635
0.138691
0.138747
0.138803
0.138858
0.138913
0.138969
0.139024
0.139079
0.139135
0.139191
0.139247
0.139303
0.13936
0.139418
0.139476
0.139535
0.139594
0.136285
0.136276
0.136245
0.136198
0.136137
0.136065
0.135982
0.135893
0.135797
0.135696
0.135593
0.135487
0.135381
0.135275
0.135171
0.135069
0.13497
0.134875
0.134785
0.134699
0.134619
0.134544
0.134475
0.134413
0.134356
0.134306
0.134262
0.134224
0.134192
0.134167
0.134147
0.134133
0.134125
0.134123
0.134126
0.134134
0.134148
0.134167
0.13419
0.134218
0.134251
0.134288
0.134329
0.134374
0.134423
0.134475
0.134531
0.134591
0.134653
0.134718
0.134786
0.134856
0.134928
0.135002
0.135078
0.135155
0.135234
0.135314
0.135395
0.135476
0.135558
0.135641
0.135724
0.135808
0.135892
0.135975
0.136059
0.136142
0.136225
0.136308
0.136391
0.136472
0.136554
0.136635
0.136715
0.136794
0.136872
0.13695
0.137027
0.137103
0.137178
0.137253
0.137326
0.137398
0.13747
0.13754
0.13761
0.137678
0.137746
0.137813
0.137879
0.137944
0.138008
0.138071
0.138134
0.138196
0.138257
0.138317
0.138377
0.138436
0.138494
0.138552
0.13861
0.138667
0.138724
0.138781
0.138837
0.138894
0.13895
0.139007
0.139063
0.13912
0.139176
0.139234
0.139291
0.139349
0.139408
0.139467
0.139527
0.139588
0.136356
0.136346
0.136316
0.136268
0.136206
0.136131
0.136047
0.135955
0.135857
0.135754
0.135647
0.135538
0.135429
0.135319
0.135211
0.135105
0.135003
0.134904
0.134809
0.13472
0.134635
0.134557
0.134485
0.134418
0.134358
0.134304
0.134257
0.134216
0.134181
0.134152
0.134129
0.134113
0.134102
0.134097
0.134097
0.134103
0.134114
0.13413
0.134151
0.134177
0.134208
0.134243
0.134282
0.134325
0.134372
0.134423
0.134477
0.134535
0.134596
0.13466
0.134727
0.134796
0.134868
0.134941
0.135016
0.135093
0.135172
0.135251
0.135332
0.135413
0.135496
0.135578
0.135662
0.135746
0.13583
0.135914
0.135998
0.136082
0.136165
0.136249
0.136332
0.136414
0.136497
0.136578
0.136659
0.136739
0.136819
0.136897
0.136975
0.137052
0.137128
0.137204
0.137278
0.137352
0.137424
0.137496
0.137566
0.137636
0.137705
0.137773
0.13784
0.137906
0.137971
0.138036
0.1381
0.138162
0.138225
0.138286
0.138347
0.138407
0.138467
0.138526
0.138585
0.138643
0.138701
0.138759
0.138817
0.138874
0.138932
0.138989
0.139046
0.139104
0.139162
0.13922
0.139279
0.139338
0.139398
0.139458
0.139519
0.139581
0.136429
0.136419
0.136388
0.136339
0.136276
0.1362
0.136114
0.13602
0.135919
0.135813
0.135703
0.135591
0.135478
0.135364
0.135252
0.135143
0.135036
0.134933
0.134835
0.134741
0.134653
0.134571
0.134495
0.134424
0.134361
0.134303
0.134253
0.134208
0.13417
0.134138
0.134112
0.134093
0.134079
0.134071
0.134069
0.134072
0.13408
0.134094
0.134113
0.134136
0.134164
0.134197
0.134234
0.134276
0.134321
0.13437
0.134423
0.134479
0.134539
0.134602
0.134667
0.134736
0.134806
0.134879
0.134954
0.13503
0.135108
0.135187
0.135268
0.135349
0.135432
0.135515
0.135598
0.135682
0.135767
0.135851
0.135935
0.13602
0.136104
0.136188
0.136272
0.136355
0.136438
0.136521
0.136602
0.136683
0.136764
0.136843
0.136922
0.137
0.137078
0.137154
0.137229
0.137304
0.137378
0.13745
0.137522
0.137593
0.137663
0.137732
0.1378
0.137868
0.137934
0.138
0.138065
0.138129
0.138192
0.138255
0.138317
0.138378
0.138439
0.138499
0.138559
0.138619
0.138678
0.138737
0.138796
0.138854
0.138913
0.138971
0.13903
0.139089
0.139148
0.139207
0.139267
0.139327
0.139388
0.139449
0.139512
0.139574
0.136503
0.136493
0.136462
0.136412
0.136348
0.13627
0.136183
0.136086
0.135982
0.135873
0.13576
0.135645
0.135528
0.135411
0.135295
0.135181
0.13507
0.134963
0.134861
0.134763
0.134671
0.134585
0.134505
0.134431
0.134364
0.134303
0.134249
0.134201
0.13416
0.134124
0.134096
0.134073
0.134056
0.134045
0.13404
0.134041
0.134047
0.134058
0.134074
0.134095
0.134121
0.134152
0.134187
0.134226
0.13427
0.134317
0.134368
0.134423
0.134482
0.134543
0.134607
0.134675
0.134744
0.134816
0.134891
0.134966
0.135044
0.135123
0.135203
0.135285
0.135367
0.13545
0.135534
0.135618
0.135703
0.135787
0.135872
0.135957
0.136042
0.136127
0.136211
0.136295
0.136379
0.136462
0.136545
0.136627
0.136708
0.136789
0.136868
0.136948
0.137026
0.137103
0.13718
0.137255
0.13733
0.137404
0.137477
0.137549
0.13762
0.137691
0.13776
0.137829
0.137896
0.137963
0.138029
0.138095
0.138159
0.138223
0.138286
0.138349
0.138411
0.138472
0.138533
0.138594
0.138654
0.138714
0.138774
0.138834
0.138893
0.138953
0.139013
0.139073
0.139133
0.139193
0.139254
0.139316
0.139378
0.13944
0.139504
0.139568
0.136579
0.136569
0.136537
0.136487
0.136421
0.136342
0.136252
0.136153
0.136047
0.135935
0.135819
0.1357
0.135579
0.135458
0.135338
0.135221
0.135106
0.134995
0.134888
0.134786
0.13469
0.1346
0.134516
0.134439
0.134368
0.134304
0.134246
0.134194
0.13415
0.134111
0.134079
0.134054
0.134034
0.13402
0.134012
0.13401
0.134013
0.134022
0.134035
0.134054
0.134078
0.134106
0.134139
0.134177
0.134218
0.134264
0.134314
0.134367
0.134424
0.134484
0.134547
0.134613
0.134682
0.134753
0.134827
0.134902
0.134979
0.135058
0.135138
0.135219
0.135301
0.135385
0.135468
0.135553
0.135638
0.135723
0.135808
0.135894
0.135979
0.136064
0.136149
0.136234
0.136319
0.136403
0.136486
0.136569
0.136651
0.136733
0.136814
0.136894
0.136973
0.137052
0.137129
0.137206
0.137282
0.137357
0.137431
0.137504
0.137577
0.137648
0.137719
0.137789
0.137858
0.137926
0.137993
0.13806
0.138125
0.13819
0.138255
0.138319
0.138382
0.138445
0.138507
0.138569
0.13863
0.138691
0.138752
0.138813
0.138874
0.138935
0.138996
0.139057
0.139118
0.13918
0.139242
0.139304
0.139367
0.139431
0.139496
0.139561
0.136656
0.136646
0.136614
0.136563
0.136495
0.136415
0.136323
0.136222
0.136113
0.135998
0.135878
0.135756
0.135631
0.135507
0.135383
0.135261
0.135142
0.135026
0.134916
0.13481
0.13471
0.134616
0.134528
0.134447
0.134372
0.134304
0.134243
0.134189
0.13414
0.134099
0.134064
0.134035
0.134012
0.133996
0.133985
0.13398
0.13398
0.133986
0.133997
0.134014
0.134035
0.134061
0.134092
0.134127
0.134167
0.134211
0.134259
0.13431
0.134366
0.134424
0.134486
0.134552
0.134619
0.13469
0.134762
0.134837
0.134914
0.134992
0.135072
0.135153
0.135235
0.135318
0.135402
0.135487
0.135572
0.135657
0.135743
0.135829
0.135915
0.136001
0.136087
0.136172
0.136257
0.136342
0.136426
0.13651
0.136593
0.136676
0.136758
0.136839
0.136919
0.136999
0.137078
0.137156
0.137233
0.137309
0.137384
0.137459
0.137532
0.137605
0.137677
0.137748
0.137818
0.137888
0.137956
0.138024
0.138091
0.138157
0.138223
0.138288
0.138352
0.138416
0.13848
0.138543
0.138606
0.138668
0.13873
0.138792
0.138854
0.138916
0.138978
0.13904
0.139103
0.139166
0.139229
0.139293
0.139357
0.139422
0.139488
0.139554
0.136734
0.136724
0.136691
0.136639
0.136571
0.136489
0.136395
0.136291
0.13618
0.136062
0.135939
0.135812
0.135684
0.135555
0.135427
0.135301
0.135178
0.135059
0.134944
0.134834
0.13473
0.134632
0.134541
0.134456
0.134378
0.134306
0.134241
0.134183
0.134132
0.134087
0.134049
0.134017
0.133991
0.133971
0.133958
0.13395
0.133948
0.133951
0.13396
0.133974
0.133993
0.134017
0.134045
0.134078
0.134116
0.134158
0.134204
0.134254
0.134308
0.134365
0.134426
0.13449
0.134556
0.134626
0.134698
0.134772
0.134848
0.134926
0.135005
0.135086
0.135168
0.135251
0.135335
0.13542
0.135505
0.135591
0.135677
0.135764
0.13585
0.135937
0.136023
0.136109
0.136195
0.136281
0.136366
0.13645
0.136535
0.136618
0.136701
0.136783
0.136865
0.136945
0.137025
0.137104
0.137183
0.13726
0.137337
0.137412
0.137487
0.137561
0.137634
0.137707
0.137778
0.137849
0.137919
0.137988
0.138056
0.138124
0.13819
0.138257
0.138323
0.138388
0.138452
0.138517
0.138581
0.138644
0.138708
0.138771
0.138834
0.138897
0.13896
0.139024
0.139087
0.139151
0.139216
0.139281
0.139346
0.139413
0.13948
0.139548
0.136812
0.136803
0.136769
0.136716
0.136647
0.136563
0.136467
0.136361
0.136247
0.136126
0.136
0.13587
0.135738
0.135605
0.135473
0.135343
0.135215
0.135092
0.134973
0.134859
0.134751
0.134649
0.134554
0.134465
0.134383
0.134308
0.13424
0.134178
0.134124
0.134076
0.134034
0.133999
0.13397
0.133948
0.133931
0.133921
0.133916
0.133916
0.133923
0.133934
0.133951
0.133972
0.133999
0.13403
0.134065
0.134105
0.134149
0.134198
0.13425
0.134306
0.134365
0.134428
0.134493
0.134562
0.134633
0.134706
0.134782
0.134859
0.134938
0.135019
0.135101
0.135184
0.135268
0.135353
0.135438
0.135524
0.135611
0.135698
0.135784
0.135872
0.135958
0.136045
0.136132
0.136218
0.136304
0.13639
0.136475
0.136559
0.136643
0.136726
0.136809
0.136891
0.136972
0.137052
0.137131
0.13721
0.137288
0.137365
0.137441
0.137516
0.137591
0.137664
0.137737
0.137809
0.13788
0.13795
0.13802
0.138089
0.138157
0.138225
0.138292
0.138358
0.138424
0.13849
0.138555
0.13862
0.138685
0.138749
0.138813
0.138878
0.138942
0.139007
0.139072
0.139137
0.139202
0.139269
0.139335
0.139403
0.139471
0.13954
0.136891
0.136881
0.136848
0.136794
0.136723
0.136638
0.13654
0.136432
0.136315
0.13619
0.136061
0.135927
0.135791
0.135655
0.135518
0.135384
0.135253
0.135125
0.135002
0.134884
0.134772
0.134666
0.134567
0.134475
0.134389
0.134311
0.134239
0.134174
0.134116
0.134065
0.13402
0.133982
0.133951
0.133925
0.133906
0.133892
0.133885
0.133883
0.133886
0.133895
0.133909
0.133928
0.133952
0.133981
0.134015
0.134053
0.134095
0.134142
0.134192
0.134246
0.134304
0.134365
0.13443
0.134497
0.134568
0.13464
0.134715
0.134792
0.134871
0.134951
0.135033
0.135116
0.1352
0.135285
0.13537
0.135457
0.135543
0.13563
0.135718
0.135805
0.135893
0.13598
0.136068
0.136155
0.136242
0.136328
0.136414
0.136499
0.136584
0.136669
0.136752
0.136835
0.136917
0.136999
0.137079
0.137159
0.137238
0.137316
0.137394
0.13747
0.137546
0.137621
0.137695
0.137768
0.137841
0.137913
0.137984
0.138054
0.138123
0.138192
0.138261
0.138328
0.138396
0.138463
0.138529
0.138595
0.138661
0.138727
0.138792
0.138858
0.138924
0.138989
0.139055
0.139122
0.139189
0.139256
0.139324
0.139393
0.139463
0.139533
0.13697
0.13696
0.136926
0.136872
0.136799
0.136713
0.136613
0.136502
0.136382
0.136255
0.136122
0.135985
0.135845
0.135704
0.135564
0.135426
0.13529
0.135158
0.135031
0.134909
0.134794
0.134684
0.134581
0.134485
0.134396
0.134314
0.134239
0.134171
0.13411
0.134055
0.134007
0.133966
0.133931
0.133903
0.133881
0.133864
0.133854
0.133849
0.13385
0.133856
0.133868
0.133885
0.133907
0.133933
0.133965
0.134001
0.134041
0.134086
0.134134
0.134187
0.134243
0.134303
0.134367
0.134433
0.134502
0.134574
0.134648
0.134724
0.134803
0.134883
0.134964
0.135047
0.135131
0.135216
0.135302
0.135388
0.135475
0.135563
0.13565
0.135738
0.135827
0.135915
0.136003
0.136091
0.136178
0.136265
0.136352
0.136439
0.136524
0.13661
0.136694
0.136778
0.136862
0.136944
0.137026
0.137107
0.137187
0.137267
0.137346
0.137423
0.137501
0.137577
0.137652
0.137727
0.137801
0.137874
0.137946
0.138018
0.138089
0.138159
0.138229
0.138298
0.138366
0.138435
0.138502
0.13857
0.138637
0.138704
0.138771
0.138838
0.138905
0.138972
0.139039
0.139107
0.139175
0.139243
0.139313
0.139383
0.139454
0.139526
0.137049
0.137039
0.137004
0.136949
0.136876
0.136787
0.136685
0.136572
0.13645
0.13632
0.136183
0.136042
0.135899
0.135754
0.13561
0.135467
0.135328
0.135192
0.135061
0.134935
0.134815
0.134702
0.134596
0.134496
0.134403
0.134318
0.134239
0.134168
0.134103
0.134046
0.133995
0.133951
0.133913
0.133882
0.133856
0.133837
0.133824
0.133817
0.133815
0.133819
0.133828
0.133842
0.133862
0.133886
0.133915
0.133949
0.133987
0.13403
0.134077
0.134128
0.134183
0.134241
0.134303
0.134369
0.134437
0.134508
0.134581
0.134657
0.134734
0.134814
0.134895
0.134978
0.135061
0.135146
0.135232
0.135319
0.135406
0.135494
0.135582
0.135671
0.135759
0.135848
0.135937
0.136025
0.136113
0.136202
0.136289
0.136377
0.136463
0.13655
0.136635
0.13672
0.136805
0.136889
0.136972
0.137054
0.137136
0.137216
0.137296
0.137376
0.137454
0.137532
0.137608
0.137684
0.13776
0.137834
0.137908
0.137981
0.138053
0.138125
0.138196
0.138266
0.138336
0.138406
0.138475
0.138544
0.138612
0.13868
0.138749
0.138817
0.138885
0.138953
0.139022
0.139091
0.13916
0.13923
0.139301
0.139373
0.139445
0.139518
0.137127
0.137118
0.137082
0.137026
0.136951
0.136861
0.136758
0.136642
0.136517
0.136384
0.136244
0.1361
0.135952
0.135804
0.135656
0.135509
0.135365
0.135225
0.13509
0.134961
0.134837
0.13472
0.13461
0.134507
0.134411
0.134322
0.13424
0.134166
0.134098
0.134037
0.133983
0.133936
0.133895
0.133861
0.133833
0.133811
0.133795
0.133785
0.13378
0.133782
0.133788
0.1338
0.133817
0.133839
0.133866
0.133898
0.133934
0.133975
0.13402
0.134069
0.134123
0.13418
0.13424
0.134304
0.134371
0.134441
0.134514
0.134589
0.134666
0.134745
0.134825
0.134908
0.134991
0.135076
0.135162
0.135249
0.135336
0.135424
0.135513
0.135602
0.135691
0.13578
0.135869
0.135959
0.136048
0.136137
0.136225
0.136313
0.136401
0.136489
0.136575
0.136661
0.136747
0.136832
0.136916
0.137
0.137083
0.137165
0.137246
0.137327
0.137406
0.137485
0.137564
0.137641
0.137718
0.137793
0.137869
0.137943
0.138017
0.13809
0.138162
0.138234
0.138305
0.138376
0.138447
0.138517
0.138587
0.138656
0.138726
0.138795
0.138865
0.138935
0.139005
0.139075
0.139146
0.139217
0.139289
0.139362
0.139435
0.13951
0.137205
0.137195
0.137159
0.137102
0.137026
0.136935
0.136829
0.136711
0.136584
0.136447
0.136304
0.136156
0.136005
0.135853
0.135701
0.13555
0.135403
0.135259
0.13512
0.134987
0.134859
0.134739
0.134625
0.134518
0.134419
0.134327
0.134242
0.134164
0.134093
0.134029
0.133972
0.133922
0.133879
0.133841
0.13381
0.133786
0.133767
0.133754
0.133747
0.133745
0.133749
0.133759
0.133773
0.133793
0.133818
0.133847
0.133882
0.13392
0.133964
0.134011
0.134063
0.134118