# Forces      
# CofR        : (0.000000e+00 0.000000e+00 0.000000e+00)
# Time        forces(pressure viscous porous)	moments(pressure viscous porous)
0.01905       	((1.408043e+00 1.832215e+01 2.283927e-19) (9.583972e-01 -8.792032e-03 2.978645e-20) (0.000000e+00 0.000000e+00 0.000000e+00)) ((-1.190940e+01 9.152277e-01 -1.787233e+02) (5.714821e-03 6.229582e-01 9.024802e-02) (0.000000e+00 0.000000e+00 0.000000e+00))
