/*--------------------------------*- C++ -*----------------------------------*\
  =========                 |
  \\      /  F ield         | OpenFOAM: The Open Source CFD Toolbox
   \\    /   O peration     | Website:  https://openfoam.org
    \\  /    A nd           | Version:  9
     \\/     M anipulation  |
\*---------------------------------------------------------------------------*/
FoamFile
{
    format      ascii;
    class       volScalarField;
    location    "0.0125";
    object      nuTilda;
}
// * * * * * * * * * * * * * * * * * * * * * * * * * * * * * * * * * * * * * //

dimensions      [0 2 -1 0 0 0 0];

internalField   nonuniform List<scalar> 
5071
(
0.0140305
0.0140309
0.0140314
0.0140316
0.0140319
0.014032
0.0140322
0.0140323
0.0140325
0.0140326
0.0140327
0.0140328
0.0140328
0.0140329
0.014033
0.014033
0.014033
0.014033
0.014033
0.014033
0.0140329
0.0140329
0.0140328
0.0140327
0.0140325
0.0140322
0.0140319
0.0140449
0.0140445
0.0140442
0.0140437
0.0140433
0.0140428
0.0140423
0.0140417
0.0140411
0.0140405
0.0140398
0.0140392
0.0140385
0.0140378
0.0140371
0.0140364
0.0140358
0.0140353
0.014035
0.0140348
0.014035
0.0140349
0.0140346
0.014034
0.0140333
0.0140325
0.0140316
0.0140252
0.0140251
0.0140249
0.0140246
0.0140244
0.0140242
0.014024
0.0140238
0.0140235
0.0140233
0.014023
0.0140228
0.0140227
0.0140229
0.0140229
0.0140228
0.0140227
0.0140224
0.0140222
0.0140219
0.0140215
0.0140212
0.0140208
0.0140203
0.0140199
0.0140197
0.0140197
0.0140088
0.0140091
0.0140094
0.0140097
0.01401
0.0140104
0.0140105
0.0140104
0.0140103
0.0140101
0.0140098
0.0140095
0.0140092
0.0140088
0.0140083
0.0140079
0.0140073
0.0140068
0.0140062
0.0140056
0.014005
0.0140044
0.0140038
0.0140034
0.0140031
0.014003
0.0140028
0.0139696
0.0139698
0.01397
0.0139702
0.0139704
0.0139706
0.0139708
0.013971
0.0139711
0.0139713
0.0139715
0.0139717
0.013972
0.0139722
0.0139724
0.0139726
0.0139728
0.0139731
0.0139733
0.0139735
0.0139738
0.013974
0.0139743
0.0139746
0.0139748
0.0139751
0.0139754
0.0139606
0.0139611
0.0139615
0.013962
0.0139625
0.013963
0.0139635
0.0139639
0.0139644
0.0139649
0.0139654
0.0139659
0.0139664
0.0139669
0.0139673
0.0139678
0.013968
0.013968
0.0139679
0.0139678
0.0139677
0.0139675
0.0139673
0.0139671
0.0139669
0.0139666
0.0139665
0.0139455
0.013946
0.0139464
0.0139469
0.0139473
0.0139478
0.0139482
0.0139487
0.0139491
0.0139496
0.01395
0.0139505
0.0139509
0.0139514
0.0139518
0.0139523
0.0139527
0.0139532
0.0139536
0.0139541
0.0139546
0.013955
0.0139555
0.013956
0.0139565
0.0139569
0.0139574
0.0139313
0.0139319
0.0139324
0.0139329
0.0139334
0.0139339
0.0139344
0.0139349
0.0139355
0.013936
0.0139365
0.0139371
0.0139376
0.0139381
0.0139387
0.0139392
0.0139397
0.0139403
0.0139408
0.0139414
0.0139419
0.0139425
0.013943
0.0139436
0.0139441
0.0139447
0.0139452
0.0139156
0.0139162
0.0139168
0.0139174
0.013918
0.0139186
0.0139192
0.0139199
0.0139205
0.0139211
0.0139217
0.0139223
0.0139229
0.0139236
0.0139242
0.0139248
0.0139254
0.0139261
0.0139267
0.0139273
0.013928
0.0139286
0.0139292
0.0139299
0.0139305
0.0139312
0.0139318
0.013899
0.0138997
0.0139004
0.0139011
0.0139018
0.0139025
0.0139032
0.013904
0.0139047
0.0139054
0.0139061
0.0139068
0.0139076
0.0139083
0.013909
0.0139097
0.0139105
0.0139112
0.013912
0.0139127
0.0139135
0.0139142
0.013915
0.0139157
0.0139165
0.0139172
0.013918
0.0138818
0.0138827
0.0138835
0.0138843
0.0138851
0.0138859
0.0138868
0.0138876
0.0138885
0.0138893
0.0138901
0.013891
0.0138918
0.0138927
0.0138935
0.0138944
0.0138953
0.0138961
0.013897
0.0138979
0.0138987
0.0138996
0.0139005
0.0139014
0.0139022
0.0139031
0.013904
0.0138642
0.0138651
0.0138661
0.013867
0.013868
0.0138689
0.0138699
0.0138708
0.0138718
0.0138728
0.0138738
0.0138748
0.0138757
0.0138767
0.0138777
0.0138787
0.0138797
0.0138807
0.0138817
0.0138827
0.0138838
0.0138848
0.0138858
0.0138868
0.0138879
0.0138889
0.0138899
0.0138458
0.0138469
0.013848
0.0138491
0.0138502
0.0138513
0.0138524
0.0138536
0.0138547
0.0138558
0.0138569
0.0138581
0.0138592
0.0138604
0.0138615
0.0138627
0.0138638
0.013865
0.0138662
0.0138673
0.0138685
0.0138697
0.0138709
0.013872
0.0138732
0.0138744
0.0138756
0.0138267
0.0138279
0.0138292
0.0138304
0.0138317
0.013833
0.0138343
0.0138356
0.0138369
0.0138382
0.0138395
0.0138408
0.0138421
0.0138434
0.0138447
0.0138461
0.0138474
0.0138487
0.0138501
0.0138514
0.0138528
0.0138541
0.0138555
0.0138569
0.0138582
0.0138596
0.013861
0.0138065
0.0138079
0.0138094
0.0138108
0.0138123
0.0138137
0.0138152
0.0138167
0.0138181
0.0138196
0.0138211
0.0138226
0.0138241
0.0138256
0.0138272
0.0138287
0.0138302
0.0138317
0.0138333
0.0138348
0.0138364
0.0138379
0.0138395
0.0138411
0.0138426
0.0138442
0.0138458
0.0137831
0.0137848
0.0137864
0.0137881
0.0137897
0.0137914
0.013793
0.0137947
0.0137964
0.0137981
0.0137998
0.0138015
0.0138032
0.0138049
0.0138067
0.0138084
0.0138102
0.0138119
0.0138137
0.0138154
0.0138172
0.013819
0.0138208
0.0138226
0.0138244
0.0138262
0.013828
0.0138298
0.0137593
0.0137612
0.013763
0.0137649
0.0137668
0.0137687
0.0137706
0.0137725
0.0137744
0.0137764
0.0137783
0.0137803
0.0137822
0.0137842
0.0137862
0.0137882
0.0137902
0.0137922
0.0137942
0.0137963
0.0137983
0.0138004
0.0138024
0.0138045
0.0138066
0.0138086
0.0138107
0.0138128
0.0137332
0.0137353
0.0137375
0.0137396
0.0137418
0.0137439
0.0137461
0.0137483
0.0137505
0.0137527
0.013755
0.0137572
0.0137595
0.0137617
0.013764
0.0137663
0.0137686
0.0137709
0.0137733
0.0137756
0.0137779
0.0137803
0.0137827
0.013785
0.0137874
0.0137898
0.0137922
0.0137946
0.0137047
0.0137071
0.0137096
0.013712
0.0137145
0.0137169
0.0137194
0.013722
0.0137245
0.013727
0.0137296
0.0137322
0.0137348
0.0137374
0.01374
0.0137426
0.0137453
0.0137479
0.0137506
0.0137533
0.013756
0.0137587
0.0137614
0.0137642
0.0137669
0.0137697
0.0137724
0.0137752
0.0136734
0.0136762
0.0136789
0.0136817
0.0136846
0.0136874
0.0136902
0.0136931
0.013696
0.0136989
0.0137019
0.0137048
0.0137078
0.0137108
0.0137138
0.0137168
0.0137199
0.0137229
0.013726
0.0137291
0.0137322
0.0137353
0.0137384
0.0137416
0.0137448
0.013748
0.0137512
0.0137544
0.0136387
0.0136418
0.013645
0.0136482
0.0136514
0.0136546
0.0136579
0.0136612
0.0136645
0.0136679
0.0136712
0.0136746
0.013678
0.0136815
0.0136849
0.0136884
0.0136919
0.0136954
0.013699
0.0137025
0.0137061
0.0137097
0.0137134
0.0137171
0.0137207
0.0137244
0.0137282
0.0137319
0.0136
0.0136036
0.0136072
0.0136108
0.0136145
0.0136182
0.013622
0.0136257
0.0136296
0.0136334
0.0136373
0.0136412
0.0136451
0.013649
0.013653
0.013657
0.0136611
0.0136651
0.0136692
0.0136734
0.0136776
0.0136818
0.013686
0.0136902
0.0136945
0.0136988
0.0137031
0.0137074
0.0135567
0.0135608
0.0135649
0.0135691
0.0135733
0.0135776
0.0135819
0.0135863
0.0135906
0.0135951
0.0135995
0.013604
0.0136085
0.0136131
0.0136177
0.0136223
0.013627
0.0136318
0.0136365
0.0136413
0.0136462
0.013651
0.0136559
0.0136609
0.0136658
0.0136708
0.0136758
0.0136808
0.0135084
0.0135131
0.0135178
0.0135226
0.0135275
0.0135324
0.0135373
0.0135423
0.0135473
0.0135524
0.0135576
0.0135628
0.013568
0.0135733
0.0135786
0.013584
0.0135895
0.013595
0.0136005
0.0136061
0.0136117
0.0136173
0.013623
0.0136287
0.0136345
0.0136402
0.013646
0.0136519
0.0134545
0.0134598
0.0134653
0.0134708
0.0134763
0.013482
0.0134877
0.0134934
0.0134992
0.0135051
0.013511
0.013517
0.0135231
0.0135292
0.0135354
0.0135417
0.013548
0.0135544
0.0135608
0.0135673
0.0135738
0.0135804
0.0135869
0.0135936
0.0136003
0.013607
0.0136137
0.0136205
0.0133942
0.0134003
0.0134065
0.0134129
0.0134193
0.0134257
0.0134323
0.0134389
0.0134456
0.0134524
0.0134592
0.0134662
0.0134732
0.0134804
0.0134875
0.0134948
0.0135021
0.0135095
0.013517
0.0135245
0.0135321
0.0135397
0.0135474
0.0135551
0.0135629
0.0135707
0.0135785
0.0135863
0.0133264
0.0133335
0.0133406
0.0133479
0.0133552
0.0133627
0.0133702
0.0133779
0.0133856
0.0133934
0.0134014
0.0134094
0.0134176
0.0134259
0.0134342
0.0134426
0.0134512
0.0134598
0.0134684
0.0134772
0.013486
0.0134948
0.0135038
0.0135128
0.0135218
0.0135309
0.01354
0.0135492
0.0132503
0.0132584
0.0132666
0.0132749
0.0132834
0.0132919
0.0133006
0.0133094
0.0133183
0.0133274
0.0133366
0.013346
0.0133555
0.013365
0.0133747
0.0133845
0.0133944
0.0134044
0.0134145
0.0134247
0.0134349
0.0134452
0.0134556
0.0134661
0.0134767
0.0134873
0.0134979
0.0135086
0.0131645
0.0131737
0.0131832
0.0131927
0.0132025
0.0132123
0.0132224
0.0132325
0.0132428
0.0132534
0.0132641
0.0132749
0.0132859
0.013297
0.0133083
0.0133196
0.0133311
0.0133428
0.0133545
0.0133664
0.0133783
0.0133904
0.0134025
0.0134147
0.013427
0.0134394
0.0134518
0.0134643
0.0130674
0.013078
0.0130889
0.0130999
0.0131111
0.0131225
0.0131341
0.0131458
0.0131578
0.01317
0.0131824
0.0131949
0.0132077
0.0132206
0.0132337
0.0132469
0.0132603
0.0132739
0.0132876
0.0133014
0.0133154
0.0133294
0.0133436
0.0133579
0.0133723
0.0133868
0.0134013
0.0134159
0.0129574
0.0129696
0.0129821
0.0129948
0.0130077
0.0130208
0.0130341
0.0130478
0.0130617
0.0130758
0.0130901
0.0131047
0.0131195
0.0131345
0.0131498
0.0131652
0.0131808
0.0131966
0.0132126
0.0132288
0.0132451
0.0132616
0.0132782
0.0132949
0.0133118
0.0133287
0.0133457
0.0133628
0.0128325
0.0128466
0.0128609
0.0128755
0.0128903
0.0129055
0.0129209
0.0129367
0.0129528
0.0129691
0.0129858
0.0130027
0.0130199
0.0130373
0.0130551
0.013073
0.0130913
0.0131097
0.0131284
0.0131473
0.0131664
0.0131857
0.0132051
0.0132248
0.0132445
0.0132644
0.0132844
0.0133045
0.0126906
0.0127067
0.0127231
0.0127399
0.0127571
0.0127745
0.0127923
0.0128106
0.0128292
0.0128481
0.0128674
0.0128871
0.012907
0.0129273
0.012948
0.0129689
0.0129902
0.0130117
0.0130336
0.0130557
0.0130781
0.0131007
0.0131236
0.0131466
0.0131698
0.0131932
0.0132167
0.0132403
0.012529
0.0125475
0.0125664
0.0125857
0.0126054
0.0126255
0.0126462
0.0126672
0.0126887
0.0127106
0.012733
0.0127558
0.012779
0.0128026
0.0128266
0.012851
0.0128758
0.012901
0.0129266
0.0129525
0.0129788
0.0130053
0.0130322
0.0130593
0.0130866
0.0131141
0.0131418
0.0131696
0.0123452
0.0123663
0.012388
0.0124102
0.0124328
0.012456
0.0124797
0.012504
0.0125288
0.0125541
0.01258
0.0126064
0.0126333
0.0126608
0.0126887
0.0127172
0.0127461
0.0127756
0.0128055
0.0128359
0.0128667
0.0128979
0.0129295
0.0129614
0.0129936
0.0130261
0.0130587
0.0130915
0.0121359
0.0121601
0.0121848
0.0122102
0.0122362
0.0122628
0.01229
0.012318
0.0123466
0.0123758
0.0124057
0.0124362
0.0124674
0.0124992
0.0125317
0.0125648
0.0125986
0.012633
0.012668
0.0127036
0.0127398
0.0127765
0.0128137
0.0128514
0.0128895
0.0129278
0.0129664
0.0130052
0.0118979
0.0119253
0.0119536
0.0119825
0.0120122
0.0120426
0.0120738
0.0121059
0.0121387
0.0121723
0.0122067
0.0122419
0.012278
0.0123148
0.0123525
0.012391
0.0124304
0.0124705
0.0125115
0.0125532
0.0125957
0.0126389
0.0126828
0.0127273
0.0127723
0.0128178
0.0128635
0.0129095
0.0116277
0.0116588
0.0116907
0.0117236
0.0117573
0.0117919
0.0118275
0.0118641
0.0119016
0.0119401
0.0119796
0.0120201
0.0120616
0.0121042
0.0121478
0.0121924
0.0122381
0.0122849
0.0123328
0.0123816
0.0124316
0.0124824
0.0125342
0.0125868
0.0126401
0.0126941
0.0127484
0.012803
0.0113221
0.011357
0.0113929
0.0114299
0.011468
0.0115072
0.0115475
0.011589
0.0116316
0.0116755
0.0117206
0.0117669
0.0118145
0.0118633
0.0119136
0.0119651
0.0120181
0.0120725
0.0121282
0.0121854
0.0122439
0.0123038
0.0123649
0.0124271
0.0124904
0.0125545
0.0126192
0.0126843
0.0109782
0.011017
0.0110571
0.0110985
0.0111411
0.011185
0.0112303
0.0112769
0.011325
0.0113746
0.0114256
0.0114782
0.0115324
0.0115882
0.0116458
0.011705
0.0117661
0.0118289
0.0118937
0.0119603
0.0120288
0.0120992
0.0121712
0.0122449
0.0123201
0.0123964
0.0124736
0.0125513
0.010594
0.0106367
0.0106809
0.0107266
0.0107738
0.0108225
0.0108728
0.0109248
0.0109784
0.0110339
0.0110912
0.0111504
0.0112115
0.0112747
0.0113401
0.0114077
0.0114776
0.0115499
0.0116246
0.011702
0.0117818
0.0118642
0.0119491
0.0120363
0.0121255
0.0122165
0.0123088
0.0124019
0.0101685
0.0102148
0.0102629
0.0103127
0.0103643
0.0104177
0.0104729
0.01053
0.0105892
0.0106505
0.0107141
0.0107799
0.0108482
0.010919
0.0109925
0.0110688
0.0111481
0.0112305
0.0113162
0.0114053
0.0114979
0.011594
0.0116936
0.0117966
0.0119025
0.0120111
0.0121217
0.0122335
0.00970227
0.00975167
0.00980308
0.00985653
0.00991207
0.00996974
0.0100294
0.0100914
0.0101557
0.0102226
0.010292
0.0103643
0.0104395
0.0105178
0.0105994
0.0106845
0.0107735
0.0108664
0.0109636
0.0110654
0.0111718
0.0112832
0.0113994
0.0115205
0.011646
0.0117755
0.0119081
0.0120427
0.00919776
0.00924942
0.00930326
0.00935953
0.00941823
0.0094794
0.00954281
0.00960884
0.00967763
0.00974933
0.00982411
0.00990216
0.00998368
0.0100689
0.0101582
0.0102518
0.0103502
0.0104535
0.0105624
0.0106772
0.0107983
0.0109261
0.0110607
0.0112022
0.0113503
0.0115044
0.0116634
0.0118258
0.00866078
0.00871304
0.00876797
0.00882565
0.00888614
0.00894952
0.00901544
0.00908434
0.00915642
0.00923184
0.00931082
0.00939358
0.00948042
0.00957165
0.00966764
0.00976884
0.00987575
0.00998892
0.010109
0.0102366
0.0103725
0.0105172
0.0106715
0.0108354
0.0110091
0.0111918
0.0113822
0.0115781
0.00810545
0.0081551
0.00820802
0.00826425
0.00832385
0.00838691
0.00845335
0.00852301
0.00859636
0.00867359
0.00875493
0.00884067
0.00893113
0.00902669
0.00912783
0.00923509
0.00934914
0.00947074
0.00960077
0.00974024
0.00989022
0.0100518
0.0102261
0.0104139
0.0106156
0.0108308
0.0110579
0.0112943
0.00756463
0.00760483
0.00764939
0.0076982
0.00775128
0.00780882
0.007871
0.00793721
0.00800796
0.00808342
0.0081638
0.00824941
0.00834061
0.0084378
0.00854149
0.00865235
0.00877118
0.00889895
0.00903683
0.00918619
0.0093486
0.0095258
0.00971957
0.00993161
0.0101631
0.0104142
0.0106836
0.0109681
0.00711549
0.00713111
0.00715408
0.0071831
0.00721748
0.00725756
0.0073041
0.0073573
0.00741708
0.00748324
0.00755571
0.00763488
0.00772119
0.00781497
0.00791659
0.00802676
0.00814639
0.00827659
0.00841876
0.00857468
0.00874647
0.0089366
0.00914783
0.00938305
0.00964477
0.00993437
0.0102512
0.0105921
0.00686896
0.00686022
0.00685266
0.00684618
0.00684129
0.00683947
0.00684353
0.0068586
0.00688789
0.00692829
0.00697704
0.007035
0.00710371
0.00718361
0.00727371
0.00737463
0.00748753
0.00761346
0.00775371
0.00791046
0.00808635
0.00828459
0.00850911
0.00876437
0.00905484
0.00938391
0.00975259
0.0101584
0.00672381
0.00670116
0.00667811
0.00665505
0.00663261
0.0066116
0.00659291
0.00657726
0.00656472
0.00655418
0.00654682
0.00654689
0.00656431
0.00660728
0.00666503
0.00673712
0.00682682
0.00693516
0.00706131
0.00720807
0.00737862
0.00757629
0.00780636
0.00807507
0.00838944
0.00875597
0.00917858
0.009657
0.00665157
0.00662408
0.00659437
0.00656259
0.00652902
0.00649399
0.00645791
0.00642125
0.00638458
0.00634881
0.00631486
0.0062844
0.00625902
0.00623897
0.00622363
0.00621814
0.00624197
0.00630513
0.00639052
0.00650376
0.00665084
0.00683134
0.00705255
0.00732225
0.00765032
0.00804744
0.00852208
0.00907852
0.00659447
0.00657325
0.00654846
0.00651991
0.00648743
0.00645087
0.00641019
0.00636544
0.00631682
0.00626484
0.00621027
0.00615408
0.00609735
0.00604148
0.00598858
0.00594184
0.00590475
0.00587814
0.00586318
0.00588124
0.00596884
0.00609712
0.00628076
0.00652746
0.00684893
0.00726113
0.00777843
0.00841157
0.00647078
0.00646509
0.00645578
0.00644236
0.00642435
0.00640122
0.00637244
0.00633749
0.00629578
0.00624692
0.00619061
0.00612676
0.00605564
0.00597812
0.00589569
0.00581062
0.00572588
0.00564516
0.00557373
0.005519
0.00548699
0.00548137
0.00556582
0.00574173
0.00601642
0.00641325
0.00695348
0.00765553
0.00620178
0.00621585
0.00622732
0.00623566
0.00624033
0.00624074
0.0062359
0.00622515
0.00620744
0.00618174
0.00614692
0.00610164
0.00604446
0.00597439
0.0058907
0.00579324
0.00568298
0.00556275
0.00543743
0.00531408
0.00520209
0.00511394
0.00506744
0.00507541
0.0052194
0.00553726
0.00605765
0.00680235
0.00572977
0.00576256
0.00579428
0.0058246
0.00585301
0.00587896
0.00590173
0.00592058
0.00593451
0.00594236
0.00594281
0.00593376
0.00591336
0.00587929
0.00582929
0.00576023
0.00566848
0.00555223
0.00541098
0.00524708
0.00506855
0.00488964
0.0047316
0.00462184
0.00459912
0.0047086
0.00512971
0.00587535
0.00501904
0.00506581
0.00511306
0.00516064
0.00520826
0.00525553
0.00530198
0.00534712
0.0053903
0.00543059
0.00546689
0.00549764
0.00552099
0.00553462
0.00553587
0.00552052
0.00548392
0.00542042
0.00532469
0.00518919
0.00500744
0.00478209
0.00453229
0.00429165
0.0041119
0.0040596
0.00422304
0.00486677
0.00404825
0.0041017
0.00415689
0.00421382
0.00427239
0.00433246
0.0043939
0.00445651
0.00451991
0.00458364
0.00464703
0.00470913
0.00476889
0.00482459
0.00487406
0.00491434
0.00494161
0.00495057
0.00493432
0.00488199
0.00477999
0.00461496
0.00437108
0.00405834
0.00373567
0.00350001
0.00347203
0.003815
0.00281635
0.00286422
0.0029147
0.002968
0.00302423
0.0030835
0.00314595
0.00321161
0.00328043
0.00335236
0.00342723
0.00350477
0.00358454
0.00366578
0.00374755
0.0038286
0.00390726
0.00398082
0.00404265
0.00408155
0.00409001
0.00405212
0.00394299
0.00372393
0.00336972
0.00298647
0.00273612
0.00280581
0.0014642
0.00148549
0.00150861
0.00153374
0.00156102
0.00159062
0.00162277
0.0016577
0.00169566
0.00173704
0.00178232
0.00183219
0.00188761
0.00195004
0.00202168
0.00210578
0.00220695
0.00233098
0.00246643
0.00258761
0.00270197
0.00279853
0.00285859
0.00284581
0.00268703
0.00235611
0.00201513
0.00191466
0.000345546
0.000348151
0.000351407
0.000355362
0.000360019
0.000365418
0.000371617
0.000378675
0.00038667
0.000395706
0.000405905
0.000417437
0.000430528
0.000445529
0.000462909
0.000483033
0.000504368
0.000514249
0.000532428
0.000531276
0.000541512
0.00055147
0.000556057
0.000532419
0.000474974
0.000427377
0.000495272
0.00105283
0.014032
0.0140246
0.0140237
0.0140218
0.014017
0.0140124
0.01401
0.0140093
0.0140102
0.0140108
0.0140108
0.0140104
0.0140096
0.0140086
0.0140078
0.0140071
0.0140065
0.0140059
0.0140055
0.0140051
0.0140047
0.0140044
0.014004
0.0140037
0.0140034
0.0140031
0.0140028
0.0140026
0.0140024
0.0140022
0.0140021
0.014002
0.0140018
0.0140017
0.0140015
0.0140013
0.0140011
0.0140007
0.0140001
0.0139992
0.0139982
0.0139981
0.0139994
0.0139996
0.0139995
0.0139999
0.014
0.0139999
0.0139998
0.0139997
0.013999
0.0139976
0.013998
0.0140009
0.0140015
0.014001
0.0139996
0.0139969
0.0139968
0.013997
0.0140313
0.0140247
0.0140179
0.0140124
0.0140118
0.0140101
0.0140099
0.0140094
0.0140086
0.0140076
0.0140065
0.0140054
0.0140042
0.0140031
0.0140021
0.0140012
0.014001
0.0140014
0.0140021
0.0140029
0.0140038
0.0140042
0.0140042
0.0140039
0.0140034
0.0140029
0.0140023
0.0140015
0.0140008
0.014
0.0139994
0.0140002
0.0140016
0.014002
0.0140018
0.0140014
0.0140008
0.0140002
0.0139993
0.0139984
0.0139977
0.0139973
0.0139971
0.0139963
0.013996
0.0139961
0.013996
0.0139959
0.0139958
0.0139956
0.0139952
0.0139949
0.0139961
0.0139995
0.0139987
0.0139969
0.0139955
0.0139934
0.0139932
0.0139937
0.0140197
0.0140179
0.0140122
0.0140095
0.0140057
0.0140037
0.0140015
0.0140006
0.0140011
0.014
0.0139992
0.0139985
0.0139991
0.0139992
0.0139988
0.0139987
0.0139989
0.0139994
0.014
0.0140003
0.0140001
0.0139994
0.0139983
0.0139971
0.0139968
0.0139967
0.0139966
0.0139966
0.0139967
0.0139972
0.0139979
0.0139985
0.0139986
0.0139978
0.0139967
0.0139959
0.0139953
0.0139947
0.0139941
0.0139934
0.013993
0.0139926
0.0139923
0.0139919
0.0139918
0.0139919
0.0139918
0.0139918
0.0139918
0.0139919
0.013992
0.0139922
0.013994
0.013997
0.0139945
0.0139934
0.0139915
0.0139897
0.0139894
0.0139902
0.0140021
0.0139985
0.0139953
0.0139926
0.0139904
0.0139888
0.0139893
0.0139899
0.0139906
0.0139912
0.0139919
0.0139927
0.0139937
0.0139945
0.0139954
0.0139963
0.0139969
0.0139972
0.0139973
0.013997
0.0139965
0.0139958
0.0139951
0.0139946
0.0139944
0.0139941
0.0139938
0.0139936
0.0139935
0.0139934
0.013993
0.0139924
0.0139919
0.0139912
0.0139905
0.01399
0.0139895
0.013989
0.0139886
0.0139882
0.0139879
0.0139876
0.0139875
0.0139874
0.0139874
0.0139874
0.0139875
0.0139877
0.0139879
0.0139881
0.0139884
0.0139892
0.0139913
0.0139921
0.0139903
0.0139896
0.0139872
0.0139856
0.0139854
0.0139864
0.0139757
0.0139767
0.0139777
0.0139787
0.0139797
0.0139808
0.013982
0.0139832
0.0139844
0.0139856
0.0139867
0.0139879
0.013989
0.0139901
0.0139911
0.0139918
0.0139922
0.0139921
0.0139918
0.0139914
0.0139908
0.0139901
0.0139895
0.0139888
0.0139881
0.0139875
0.0139871
0.0139869
0.0139867
0.0139864
0.013986
0.0139855
0.0139851
0.0139846
0.0139842
0.0139838
0.0139835
0.0139832
0.0139829
0.0139828
0.0139826
0.0139826
0.0139826
0.0139826
0.0139827
0.0139828
0.0139831
0.0139834
0.0139837
0.013984
0.0139845
0.0139855
0.0139869
0.0139869
0.0139856
0.0139847
0.0139826
0.0139812
0.0139812
0.0139822
0.0139669
0.0139685
0.0139702
0.0139718
0.0139733
0.0139747
0.0139761
0.0139774
0.0139787
0.0139799
0.013981
0.0139819
0.0139826
0.0139831
0.0139833
0.0139833
0.0139831
0.0139827
0.0139822
0.0139817
0.0139813
0.0139809
0.0139806
0.0139803
0.01398
0.0139798
0.0139796
0.0139795
0.0139793
0.013979
0.0139788
0.0139785
0.0139782
0.0139779
0.0139777
0.0139776
0.0139774
0.0139773
0.0139772
0.0139772
0.0139773
0.0139773
0.0139774
0.0139776
0.0139777
0.0139781
0.0139784
0.0139788
0.0139792
0.0139796
0.0139802
0.0139812
0.0139819
0.0139815
0.0139806
0.0139795
0.0139777
0.0139766
0.0139766
0.0139777
0.013958
0.0139597
0.0139612
0.0139627
0.0139641
0.0139655
0.0139667
0.0139678
0.0139688
0.0139697
0.0139704
0.013971
0.0139714
0.0139717
0.0139719
0.013972
0.013972
0.013972
0.013972
0.0139719
0.0139719
0.0139718
0.0139718
0.0139718
0.0139717
0.0139717
0.0139717
0.0139717
0.0139716
0.0139715
0.0139714
0.0139713
0.0139712
0.0139712
0.0139712
0.0139712
0.0139712
0.0139713
0.0139714
0.0139715
0.0139716
0.0139718
0.013972
0.0139723
0.0139726
0.0139731
0.0139735
0.0139739
0.0139742
0.0139747
0.0139755
0.0139761
0.0139764
0.013976
0.0139751
0.013974
0.0139724
0.0139715
0.0139716
0.0139727
0.0139459
0.0139476
0.0139492
0.0139508
0.0139522
0.0139535
0.0139548
0.0139559
0.0139569
0.0139578
0.0139586
0.0139593
0.0139599
0.0139604
0.0139608
0.0139612
0.0139615
0.0139618
0.0139621
0.0139623
0.0139625
0.0139628
0.0139629
0.0139631
0.0139633
0.0139634
0.0139636
0.0139637
0.0139638
0.0139639
0.013964
0.0139641
0.0139642
0.0139643
0.0139645
0.0139646
0.0139648
0.013965
0.0139652
0.0139655
0.0139657
0.013966
0.0139663
0.0139668
0.0139672
0.0139677
0.0139681
0.0139685
0.0139689
0.0139695
0.0139701
0.0139705
0.0139704
0.0139701
0.0139692
0.0139681
0.0139668
0.0139661
0.0139663
0.0139674
0.0139325
0.0139344
0.0139362
0.0139379
0.0139395
0.0139409
0.0139423
0.0139436
0.0139447
0.0139458
0.0139468
0.0139477
0.0139485
0.0139492
0.0139499
0.0139506
0.0139512
0.0139517
0.0139522
0.0139527
0.0139531
0.0139535
0.0139539
0.0139543
0.0139546
0.0139549
0.0139553
0.0139555
0.0139558
0.0139561
0.0139564
0.0139567
0.013957
0.0139572
0.0139575
0.0139579
0.0139582
0.0139585
0.0139588
0.0139591
0.0139595
0.0139599
0.0139604
0.0139609
0.0139614
0.0139618
0.0139622
0.0139626
0.0139632
0.0139637
0.0139641
0.0139642
0.0139641
0.0139637
0.0139629
0.0139618
0.0139608
0.0139603
0.0139605
0.0139616
0.0139188
0.0139209
0.0139229
0.0139248
0.0139265
0.0139282
0.0139297
0.0139312
0.0139326
0.0139338
0.013935
0.0139361
0.0139372
0.0139382
0.0139391
0.0139399
0.0139408
0.0139415
0.0139422
0.0139429
0.0139435
0.0139442
0.0139447
0.0139453
0.0139458
0.0139463
0.0139468
0.0139473
0.0139477
0.0139482
0.0139486
0.013949
0.0139495
0.0139499
0.0139503
0.0139507
0.0139511
0.0139516
0.013952
0.0139525
0.013953
0.0139535
0.013954
0.0139545
0.013955
0.0139554
0.0139558
0.0139563
0.0139569
0.0139573
0.0139575
0.0139576
0.0139574
0.013957
0.0139562
0.0139552
0.0139543
0.013954
0.0139543
0.0139553
0.013905
0.0139073
0.0139095
0.0139115
0.0139135
0.0139154
0.0139171
0.0139188
0.0139204
0.0139219
0.0139233
0.0139246
0.0139258
0.013927
0.0139282
0.0139292
0.0139302
0.0139312
0.0139321
0.013933
0.0139338
0.0139346
0.0139353
0.0139361
0.0139368
0.0139375
0.0139381
0.0139387
0.0139394
0.0139399
0.0139405
0.0139411
0.0139416
0.0139422
0.0139427
0.0139432
0.0139437
0.0139443
0.0139449
0.0139455
0.013946
0.0139466
0.0139471
0.0139476
0.0139481
0.0139485
0.013949
0.0139495
0.01395
0.0139502
0.0139504
0.0139504
0.0139502
0.0139497
0.013949
0.0139481
0.0139474
0.0139472
0.0139476
0.0139485
0.013891
0.0138935
0.0138959
0.0138982
0.0139004
0.0139024
0.0139044
0.0139063
0.0139081
0.0139097
0.0139114
0.0139129
0.0139143
0.0139157
0.0139171
0.0139183
0.0139195
0.0139207
0.0139218
0.0139228
0.0139238
0.0139248
0.0139257
0.0139266
0.0139275
0.0139283
0.0139291
0.0139299
0.0139306
0.0139313
0.013932
0.0139327
0.0139334
0.013934
0.0139347
0.0139353
0.013936
0.0139366
0.0139373
0.0139379
0.0139385
0.0139391
0.0139396
0.0139401
0.0139406
0.0139411
0.0139416
0.0139421
0.0139424
0.0139426
0.0139427
0.0139427
0.0139425
0.013942
0.0139412
0.0139405
0.01394
0.01394
0.0139404
0.0139412
0.0138769
0.0138795
0.0138821
0.0138846
0.013887
0.0138893
0.0138915
0.0138935
0.0138955
0.0138974
0.0138992
0.013901
0.0139026
0.0139042
0.0139057
0.0139072
0.0139085
0.0139099
0.0139111
0.0139124
0.0139135
0.0139147
0.0139157
0.0139168
0.0139178
0.0139187
0.0139197
0.0139206
0.0139214
0.0139223
0.0139231
0.0139239
0.0139246
0.0139254
0.0139262
0.013927
0.0139277
0.0139284
0.0139291
0.0139298
0.0139304
0.0139309
0.0139315
0.013932
0.0139326
0.0139331
0.0139336
0.0139339
0.0139342
0.0139344
0.0139345
0.0139344
0.0139341
0.0139336
0.013933
0.0139325
0.0139321
0.0139321
0.0139326
0.0139334
0.0138624
0.0138653
0.0138681
0.0138708
0.0138734
0.0138759
0.0138782
0.0138805
0.0138827
0.0138848
0.0138868
0.0138887
0.0138905
0.0138923
0.013894
0.0138956
0.0138972
0.0138986
0.0139001
0.0139015
0.0139028
0.013904
0.0139053
0.0139064
0.0139076
0.0139086
0.0139097
0.0139107
0.0139117
0.0139126
0.0139136
0.0139145
0.0139154
0.0139163
0.0139172
0.013918
0.0139188
0.0139195
0.0139202
0.0139209
0.0139215
0.0139221
0.0139227
0.0139233
0.0139239
0.0139244
0.0139248
0.0139251
0.0139254
0.0139256
0.0139256
0.0139255
0.0139252
0.0139247
0.0139242
0.0139238
0.0139236
0.0139237
0.0139241
0.0139249
0.0138474
0.0138505
0.0138535
0.0138565
0.0138592
0.0138619
0.0138645
0.013867
0.0138693
0.0138716
0.0138738
0.0138759
0.0138779
0.0138798
0.0138817
0.0138835
0.0138852
0.0138868
0.0138884
0.0138899
0.0138914
0.0138928
0.0138942
0.0138955
0.0138967
0.013898
0.0138991
0.0139003
0.0139014
0.0139025
0.0139036
0.0139046
0.0139056
0.0139065
0.0139074
0.0139083
0.0139091
0.0139099
0.0139106
0.0139113
0.013912
0.0139127
0.0139133
0.0139139
0.0139145
0.0139149
0.0139153
0.0139156
0.0139159
0.0139161
0.0139161
0.0139159
0.0139156
0.0139152
0.0139148
0.0139145
0.0139144
0.0139146
0.0139151
0.0139158
0.0138317
0.013835
0.0138382
0.0138414
0.0138444
0.0138473
0.0138501
0.0138527
0.0138553
0.0138578
0.0138601
0.0138624
0.0138646
0.0138667
0.0138687
0.0138707
0.0138725
0.0138743
0.0138761
0.0138778
0.0138794
0.0138809
0.0138824
0.0138839
0.0138853
0.0138866
0.013888
0.0138892
0.0138905
0.0138917
0.0138928
0.0138939
0.013895
0.0138959
0.0138969
0.0138978
0.0138987
0.0138995
0.0139003
0.013901
0.0139018
0.0139025
0.0139031
0.0139037
0.0139042
0.0139047
0.0139051
0.0139054
0.0139057
0.0139058
0.0139058
0.0139056
0.0139054
0.013905
0.0139048
0.0139046
0.0139046
0.0139048
0.0139053
0.0139059
0.013815
0.0138185
0.013822
0.0138254
0.0138286
0.0138317
0.0138347
0.0138376
0.0138404
0.0138431
0.0138456
0.0138481
0.0138505
0.0138527
0.0138549
0.0138571
0.0138591
0.0138611
0.013863
0.0138648
0.0138666
0.0138683
0.01387
0.0138716
0.0138731
0.0138746
0.013876
0.0138774
0.0138787
0.01388
0.0138812
0.0138823
0.0138834
0.0138845
0.0138855
0.0138864
0.0138874
0.0138883
0.0138891
0.01389
0.0138907
0.0138914
0.0138921
0.0138927
0.0138932
0.0138937
0.0138941
0.0138944
0.0138947
0.0138948
0.0138947
0.0138946
0.0138944
0.0138941
0.013894
0.0138939
0.013894
0.0138942
0.0138947
0.0138953
0.0137971
0.0138009
0.0138047
0.0138083
0.0138118
0.0138152
0.0138184
0.0138215
0.0138245
0.0138274
0.0138302
0.0138329
0.0138354
0.0138379
0.0138403
0.0138426
0.0138449
0.013847
0.0138491
0.0138511
0.013853
0.0138548
0.0138566
0.0138583
0.01386
0.0138616
0.0138631
0.0138646
0.013866
0.0138673
0.0138686
0.0138698
0.013871
0.0138721
0.0138732
0.0138742
0.0138752
0.0138762
0.0138771
0.013878
0.0138787
0.0138795
0.0138801
0.0138807
0.0138813
0.0138818
0.0138822
0.0138826
0.0138828
0.0138828
0.0138828
0.0138827
0.0138826
0.0138825
0.0138824
0.0138824
0.0138825
0.0138829
0.0138833
0.0138839
0.0137781
0.0137822
0.0137863
0.0137902
0.013794
0.0137976
0.0138011
0.0138044
0.0138077
0.0138108
0.0138138
0.0138167
0.0138195
0.0138221
0.0138247
0.0138272
0.0138296
0.0138319
0.0138341
0.0138363
0.0138383
0.0138403
0.0138422
0.0138441
0.0138458
0.0138475
0.0138491
0.0138507
0.0138522
0.0138536
0.013855
0.0138563
0.0138576
0.0138588
0.0138599
0.0138611
0.0138621
0.0138631
0.0138641
0.013865
0.0138658
0.0138665
0.0138672
0.0138679
0.0138685
0.013869
0.0138694
0.0138697
0.0138699
0.01387
0.01387
0.01387
0.01387
0.0138699
0.0138699
0.01387
0.0138702
0.0138706
0.013871
0.0138716
0.0137578
0.0137622
0.0137666
0.0137708
0.0137749
0.0137787
0.0137825
0.0137861
0.0137896
0.0137929
0.0137962
0.0137993
0.0138022
0.0138051
0.0138079
0.0138106
0.0138131
0.0138156
0.013818
0.0138203
0.0138225
0.0138246
0.0138266
0.0138286
0.0138305
0.0138323
0.013834
0.0138357
0.0138373
0.0138388
0.0138403
0.0138417
0.0138431
0.0138444
0.0138457
0.0138468
0.013848
0.013849
0.01385
0.0138509
0.0138518
0.0138526
0.0138534
0.013854
0.0138546
0.0138552
0.0138556
0.0138559
0.0138561
0.0138562
0.0138563
0.0138564
0.0138564
0.0138564
0.0138565
0.0138567
0.013857
0.0138573
0.0138577
0.0137357
0.0137406
0.0137453
0.0137498
0.0137542
0.0137584
0.0137624
0.0137663
0.01377
0.0137736
0.0137771
0.0137804
0.0137836
0.0137867
0.0137897
0.0137925
0.0137953
0.0137979
0.0138005
0.013803
0.0138053
0.0138076
0.0138098
0.0138119
0.0138139
0.0138158
0.0138177
0.0138195
0.0138212
0.0138229
0.0138245
0.013826
0.0138275
0.0138289
0.0138302
0.0138314
0.0138326
0.0138337
0.0138348
0.0138358
0.0138367
0.0138376
0.0138384
0.0138391
0.0138397
0.0138402
0.0138406
0.013841
0.0138412
0.0138414
0.0138416
0.0138417
0.0138418
0.0138419