# Forces      
# CofR        : (0.000000e+00 0.000000e+00 0.000000e+00)
# Time        forces(pressure viscous)	moments(pressure viscous)
500           	((9.495515e-02 2.363896e-04 1.846940e-17) (1.274130e-01 1.073320e-07 -4.689757e-19)) ((2.653484e-18 5.775961e-18 -5.485204e-05) (-9.259640e-20 -1.660482e-19 -5.733338e-08))
