/*--------------------------------*- C++ -*----------------------------------*\
  =========                 |
  \\      /  F ield         | OpenFOAM: The Open Source CFD Toolbox
   \\    /   O peration     | Website:  https://openfoam.org
    \\  /    A nd           | Version:  9
     \\/     M anipulation  |
\*---------------------------------------------------------------------------*/
FoamFile
{
    format      ascii;
    class       volScalarField;
    location    "0.015";
    object      nuTilda;
}
// * * * * * * * * * * * * * * * * * * * * * * * * * * * * * * * * * * * * * //

dimensions      [0 2 -1 0 0 0 0];

internalField   nonuniform List<scalar> 
12072
(
0.0140413
0.0140415
0.0140416
0.0140418
0.0140419
0.014042
0.0140422
0.0140423
0.0140424
0.0140425
0.0140427
0.0140428
0.0140429
0.014043
0.0140431
0.0140432
0.0140433
0.0140434
0.0140435
0.0140436
0.0140437
0.0140438
0.0140439
0.014044
0.0140441
0.0140442
0.0140443
0.0140444
0.0140445
0.0140446
0.0140446
0.0140447
0.0140448
0.0140449
0.014045
0.014045
0.0140451
0.0140452
0.0140453
0.0140453
0.0140454
0.0140455
0.0140456
0.0140456
0.0140457
0.0140458
0.0140458
0.0140459
0.014046
0.014046
0.0140461
0.0140462
0.0140462
0.0140463
0.0140464
0.0140464
0.0140465
0.0140466
0.0140466
0.0140467
0.0140468
0.0140498
0.0140499
0.0140501
0.0140504
0.0140506
0.0140509
0.0140511
0.0140514
0.0140517
0.0140519
0.0140522
0.0140524
0.0140527
0.0140529
0.0140532
0.0140534
0.0140537
0.0140539
0.0140542
0.0140544
0.0140547
0.0140549
0.0140551
0.0140554
0.0140556
0.0140559
0.0140561
0.0140564
0.0140566
0.0140569
0.0140572
0.0140574
0.0140577
0.0140579
0.0140582
0.0140585
0.0140588
0.014059
0.0140593
0.0140596
0.0140599
0.0140602
0.0140605
0.0140608
0.0140612
0.0140615
0.0140618
0.0140622
0.0140625
0.0140629
0.0140633
0.0140636
0.0140641
0.0140645
0.0140649
0.0140653
0.0140658
0.0140663
0.0140668
0.0140673
0.0140679
0.0140313
0.0140312
0.0140311
0.014031
0.0140308
0.0140306
0.0140305
0.0140303
0.0140301
0.0140299
0.0140297
0.0140296
0.0140294
0.0140292
0.014029
0.0140289
0.0140287
0.0140285
0.0140284
0.0140282
0.0140281
0.0140279
0.0140278
0.0140276
0.0140275
0.0140274
0.0140273
0.0140273
0.0140272
0.0140272
0.0140272
0.0140272
0.0140272
0.0140272
0.0140272
0.0140272
0.0140272
0.0140273
0.0140273
0.0140273
0.0140274
0.0140274
0.0140275
0.0140276
0.0140276
0.0140277
0.0140278
0.0140279
0.014028
0.0140281
0.0140283
0.0140284
0.0140285
0.0140287
0.0140289
0.014029
0.0140293
0.0140295
0.0140297
0.01403
0.0140303
0.0140113
0.0140114
0.0140114
0.0140113
0.0140114
0.0140116
0.0140118
0.0140121
0.0140124
0.0140128
0.0140132
0.0140136
0.0140141
0.0140146
0.0140151
0.0140157
0.0140162
0.0140167
0.0140173
0.0140178
0.0140183
0.0140188
0.0140194
0.0140199
0.0140204
0.0140209
0.0140214
0.0140219
0.0140224
0.0140229
0.0140234
0.0140239
0.0140244
0.0140249
0.0140254
0.0140259
0.0140264
0.0140268
0.0140273
0.0140278
0.0140282
0.0140287
0.0140292
0.0140296
0.0140301
0.0140305
0.014031
0.0140314
0.0140318
0.0140323
0.0140327
0.0140331
0.0140335
0.0140339
0.0140344
0.0140348
0.0140352
0.0140355
0.0140359
0.0140363
0.0140367
0.0140251
0.0140251
0.0140251
0.0140252
0.0140252
0.0140252
0.0140252
0.0140252
0.0140252
0.0140253
0.0140253
0.0140253
0.0140253
0.0140253
0.0140253
0.0140253
0.0140253
0.0140252
0.014025
0.0140248
0.0140246
0.0140243
0.0140241
0.0140241
0.014024
0.014024
0.0140239
0.0140239
0.014024
0.014024
0.0140241
0.0140242
0.0140243
0.0140244
0.0140245
0.0140246
0.0140248
0.0140249
0.014025
0.0140252
0.0140253
0.0140254
0.0140256
0.0140257
0.0140258
0.0140259
0.014026
0.0140262
0.0140263
0.0140264
0.0140265
0.0140266
0.0140267
0.0140268
0.0140269
0.014027
0.0140271
0.0140272
0.0140273
0.0140274
0.0140275
0.0139911
0.0139911
0.013991
0.013991
0.013991
0.0139909
0.0139909
0.0139909
0.0139908
0.0139908
0.0139908
0.0139908
0.0139907
0.0139907
0.0139907
0.0139906
0.0139904
0.0139901
0.0139899
0.0139897
0.0139896
0.0139896
0.0139896
0.0139896
0.0139896
0.0139897
0.0139898
0.0139899
0.01399
0.0139901
0.0139903
0.0139904
0.0139906
0.0139908
0.013991
0.0139912
0.0139915
0.0139917
0.013992
0.0139923
0.0139925
0.0139928
0.0139931
0.0139934
0.0139936
0.0139939
0.0139942
0.0139944
0.0139947
0.0139949
0.0139952
0.0139954
0.0139956
0.0139958
0.0139961
0.0139963
0.0139965
0.0139967
0.0139969
0.013997
0.0139972
0.0139595
0.0139598
0.01396
0.0139602
0.0139604
0.0139606
0.0139608
0.013961
0.0139612
0.0139613
0.0139615
0.0139616
0.0139618
0.0139619
0.013962
0.0139621
0.0139621
0.0139622
0.0139623
0.0139623
0.0139623
0.0139623
0.0139623
0.0139623
0.0139623
0.0139622
0.0139621
0.0139618
0.0139615
0.0139612
0.0139609
0.0139606
0.0139603
0.01396
0.0139597
0.0139594
0.0139591
0.0139589
0.0139586
0.0139583
0.013958
0.0139577
0.0139574
0.0139572
0.0139569
0.0139566
0.0139563
0.0139561
0.0139558
0.0139555
0.0139553
0.013955
0.0139548
0.0139545
0.0139542
0.013954
0.0139537
0.0139535
0.0139532
0.013953
0.0139527
0.013941
0.0139411
0.0139413
0.0139414
0.0139416
0.0139418
0.013942
0.0139423
0.0139425
0.0139427
0.0139429
0.0139432
0.0139434
0.0139437
0.013944
0.0139442
0.0139445
0.0139448
0.0139451
0.0139454
0.0139457
0.013946
0.0139463
0.0139466
0.0139469
0.0139472
0.0139475
0.0139478
0.0139481
0.0139483
0.0139486
0.0139488
0.0139491
0.0139493
0.0139495
0.0139497
0.0139499
0.0139501
0.0139503
0.0139505
0.0139507
0.0139508
0.013951
0.0139511
0.0139512
0.0139513
0.0139514
0.0139514
0.0139515
0.0139515
0.0139515
0.0139515
0.0139515
0.0139514
0.0139513
0.0139512
0.013951
0.0139506
0.0139502
0.0139497
0.0139492
0.0139288
0.0139291
0.0139294
0.0139296
0.0139299
0.0139301
0.0139304
0.0139306
0.0139308
0.013931
0.0139312
0.0139314
0.0139315
0.0139317
0.0139318
0.013932
0.0139321
0.0139321
0.0139322
0.0139323
0.0139323
0.0139323
0.0139323
0.0139322
0.013932
0.0139318
0.0139313
0.0139309
0.0139305
0.01393
0.0139296
0.0139292
0.0139288
0.0139283
0.0139279
0.0139275
0.0139271
0.0139267
0.0139263
0.0139259
0.0139255
0.0139251
0.0139247
0.0139243
0.0139239
0.0139235
0.0139231
0.0139227
0.0139223
0.0139219
0.0139215
0.0139211
0.0139207
0.0139203
0.0139199
0.0139195
0.0139191
0.0139187
0.0139183
0.0139179
0.0139174
0.0139131
0.0139127
0.0139122
0.0139117
0.0139112
0.0139108
0.0139103
0.0139098
0.0139094
0.0139089
0.0139085
0.0139082
0.0139082
0.0139082
0.0139082
0.0139084
0.0139085
0.0139087
0.013909
0.0139093
0.0139096
0.0139099
0.0139102
0.0139104
0.0139107
0.013911
0.0139112
0.0139115
0.0139117
0.013912
0.0139122
0.0139124
0.0139125
0.0139127
0.0139129
0.013913
0.0139131
0.0139132
0.0139133
0.0139133
0.0139133
0.0139133
0.0139133
0.0139131
0.013913
0.0139126
0.0139121
0.0139115
0.0139109
0.0139104
0.0139098
0.0139093
0.0139087
0.0139082
0.0139076
0.0139071
0.0139065
0.013906
0.0139054
0.0139049
0.0139043
0.0138995
0.013899
0.0138984
0.0138979
0.0138973
0.0138967
0.0138962
0.0138956
0.0138951
0.0138945
0.0138939
0.0138934
0.013893
0.013893
0.013893
0.013893
0.0138932
0.0138933
0.0138936
0.0138938
0.013894
0.0138943
0.0138945
0.0138946
0.0138948
0.0138949
0.0138951
0.0138952
0.0138952
0.0138953
0.0138953
0.0138952
0.0138952
0.013895
0.0138947
0.0138943
0.0138937
0.013893
0.0138924
0.0138917
0.0138911
0.0138905
0.0138898
0.0138892
0.0138885
0.0138879
0.0138873
0.0138866
0.013886
0.0138853
0.0138847
0.013884
0.0138834
0.0138827
0.0138821
0.0138814
0.0138808
0.0138801
0.0138795
0.0138788
0.0138782
0.0138844
0.0138838
0.0138831
0.0138825
0.0138818
0.0138811
0.0138805
0.0138798
0.0138792
0.0138785
0.0138778
0.0138772
0.0138765
0.0138758
0.0138752
0.0138745
0.0138739
0.0138732
0.0138725
0.0138719
0.0138712
0.0138705
0.0138699
0.0138692
0.0138686
0.0138679
0.0138672
0.0138666
0.0138659
0.0138653
0.0138646
0.013864
0.0138633
0.0138629
0.0138628
0.0138628
0.0138628
0.0138628
0.0138628
0.0138627
0.0138625
0.0138621
0.0138614
0.0138607
0.01386
0.0138593
0.0138586
0.0138579
0.0138572
0.0138565
0.0138558
0.013855
0.0138543
0.0138536
0.0138529
0.0138522
0.0138515
0.0138508
0.01385
0.0138493
0.0138486
0.0138677
0.0138669
0.0138661
0.0138654
0.0138646
0.0138638
0.0138631
0.0138623
0.0138615
0.0138607
0.0138599
0.0138592
0.0138584
0.0138576
0.0138568
0.013856
0.0138552
0.0138545
0.0138537
0.0138529
0.0138521
0.0138513
0.0138505
0.0138497
0.0138489
0.0138481
0.0138473
0.0138465
0.0138457
0.0138449
0.0138441
0.0138433
0.0138425
0.0138419
0.0138417
0.0138416
0.0138414
0.0138411
0.0138405
0.0138397
0.0138388
0.013838
0.0138371
0.0138363
0.0138354
0.0138346
0.0138337
0.0138329
0.013832
0.0138312
0.0138303
0.0138295
0.0138286
0.0138277
0.0138269
0.013826
0.0138251
0.0138243
0.0138234
0.0138225
0.0138216
0.0138484
0.0138475
0.0138466
0.0138457
0.0138448
0.0138439
0.013843
0.0138421
0.0138412
0.0138403
0.0138394
0.0138384
0.0138375
0.0138366
0.0138357
0.0138348
0.0138338
0.0138329
0.013832
0.0138311
0.0138301
0.0138292
0.0138283
0.0138273
0.0138264
0.0138254
0.0138245
0.0138235
0.0138226
0.0138217
0.0138207
0.0138197
0.0138188
0.0138178
0.0138169
0.0138159
0.013815
0.013814
0.013813
0.0138121
0.0138111
0.0138101
0.0138092
0.0138082
0.0138072
0.0138062
0.0138053
0.0138043
0.0138033
0.0138023
0.0138013
0.0138003
0.0137993
0.0137983
0.0137973
0.0137963
0.0137953
0.0137943
0.0137933
0.0137923
0.0137913
0.0138269
0.0138258
0.0138248
0.0138237
0.0138227
0.0138216
0.0138205
0.0138195
0.0138184
0.0138173
0.0138163
0.0138152
0.0138141
0.013813
0.0138119
0.0138109
0.0138098
0.0138087
0.0138076
0.0138065
0.0138054
0.0138043
0.0138032
0.0138021
0.013801
0.0137999
0.0137987
0.0137976
0.0137965
0.0137954
0.0137943
0.0137931
0.013792
0.0137909
0.0137897
0.0137886
0.0137875
0.0137863
0.0137852
0.013784
0.0137829
0.0137817
0.0137806
0.0137794
0.0137782
0.0137771
0.0137759
0.0137747
0.0137735
0.0137724
0.0137712
0.01377
0.0137688
0.0137676
0.0137664
0.0137652
0.013764
0.0137628
0.0137616
0.0137604
0.0137592
0.0138032
0.013802
0.0138007
0.0137995
0.0137982
0.013797
0.0137958
0.0137945
0.0137933
0.013792
0.0137907
0.0137895
0.0137882
0.0137869
0.0137857
0.0137844
0.0137831
0.0137818
0.0137806
0.0137793
0.013778
0.0137767
0.0137754
0.0137741
0.0137728
0.0137715
0.0137702
0.0137689
0.0137676
0.0137663
0.0137649
0.0137636
0.0137623
0.013761
0.0137596
0.0137583
0.013757
0.0137556
0.0137543
0.0137529
0.0137516
0.0137502
0.0137488
0.0137475
0.0137461
0.0137447
0.0137433
0.013742
0.0137406
0.0137392
0.0137378
0.0137364
0.013735
0.0137336
0.0137322
0.0137307
0.0137293
0.0137279
0.0137265
0.013725
0.0137236
0.0137779
0.0137764
0.013775
0.0137736
0.0137721
0.0137706
0.0137692
0.0137677
0.0137663
0.0137648
0.0137633
0.0137618
0.0137604
0.0137589
0.0137574
0.0137559
0.0137544
0.0137529
0.0137514
0.0137499
0.0137484
0.0137469
0.0137454
0.0137439
0.0137423
0.0137408
0.0137393
0.0137377
0.0137362
0.0137347
0.0137331
0.0137316
0.01373
0.0137284
0.0137269
0.0137253
0.0137237
0.0137221
0.0137205
0.013719
0.0137174
0.0137158
0.0137142
0.0137125
0.0137109
0.0137093
0.0137077
0.0137061
0.0137044
0.0137028
0.0137011
0.0136995
0.0136978
0.0136962
0.0136945
0.0136928
0.0136911
0.0136894
0.0136878
0.0136861
0.0136844
0.0137512
0.0137495
0.0137478
0.0137461
0.0137444
0.0137427
0.013741
0.0137393
0.0137376
0.0137359
0.0137342
0.0137325
0.0137307
0.013729
0.0137273
0.0137255
0.0137238
0.0137221
0.0137203
0.0137185
0.0137168
0.013715
0.0137133
0.0137115
0.0137097
0.0137079
0.0137061
0.0137043
0.0137025
0.0137007
0.0136989
0.0136971
0.0136953
0.0136934
0.0136916
0.0136898
0.0136879
0.0136861
0.0136842
0.0136824
0.0136805
0.0136786
0.0136767
0.0136748
0.0136729
0.013671
0.0136691
0.0136672
0.0136653
0.0136634
0.0136614
0.0136595
0.0136575
0.0136556
0.0136536
0.0136517
0.0136497
0.0136477
0.0136457
0.0136437
0.0136417
0.0137232
0.0137212
0.0137192
0.0137173
0.0137153
0.0137133
0.0137114
0.0137094
0.0137074
0.0137054
0.0137034
0.0137014
0.0136994
0.0136974
0.0136954
0.0136933
0.0136913
0.0136893
0.0136872
0.0136852
0.0136831
0.0136811
0.013679
0.0136769
0.0136749
0.0136728
0.0136707
0.0136686
0.0136665
0.0136644
0.0136623
0.0136601
0.013658
0.0136559
0.0136537
0.0136516
0.0136494
0.0136472
0.0136451
0.0136429
0.0136407
0.0136385
0.0136363
0.0136341
0.0136318
0.0136296
0.0136274
0.0136251
0.0136229
0.0136206
0.0136183
0.013616
0.0136138
0.0136115
0.0136091
0.0136068
0.0136045
0.0136022
0.0135998
0.0135974
0.0135951
0.0136937
0.0136914
0.0136891
0.0136868
0.0136845
0.0136823
0.01368
0.0136777
0.0136753
0.013673
0.0136707
0.0136684
0.013666
0.0136637
0.0136614
0.013659
0.0136566
0.0136543
0.0136519
0.0136495
0.0136471
0.0136447
0.0136423
0.0136399
0.0136375
0.0136351
0.0136326
0.0136302
0.0136277
0.0136253
0.0136228
0.0136203
0.0136179
0.0136154
0.0136129
0.0136103
0.0136078
0.0136053
0.0136027
0.0136002
0.0135976
0.0135951
0.0135925
0.0135899
0.0135873
0.0135847
0.013582
0.0135794
0.0135768
0.0135741
0.0135714
0.0135688
0.0135661
0.0135634
0.0135606
0.0135579
0.0135552
0.0135524
0.0135496
0.0135469
0.0135441
0.0136625
0.0136599
0.0136572
0.0136546
0.0136519
0.0136493
0.0136466
0.0136439
0.0136412
0.0136386
0.0136359
0.0136332
0.0136304
0.0136277
0.013625
0.0136223
0.0136195
0.0136168
0.013614
0.0136112
0.0136085
0.0136057
0.0136029
0.0136001
0.0135973
0.0135944
0.0135916
0.0135888
0.0135859
0.013583
0.0135801
0.0135773
0.0135744
0.0135714
0.0135685
0.0135656
0.0135626
0.0135597
0.0135567
0.0135537
0.0135507
0.0135477
0.0135447
0.0135417
0.0135386
0.0135355
0.0135325
0.0135294
0.0135263
0.0135231
0.01352
0.0135169
0.0135137
0.0135105
0.0135073
0.0135041
0.0135009
0.0134976
0.0134944
0.0134911
0.0134878
0.0136294
0.0136264
0.0136233
0.0136202
0.0136171
0.0136141
0.013611
0.0136079
0.0136047
0.0136016
0.0135985
0.0135954
0.0135922
0.0135891
0.0135859
0.0135827
0.0135795
0.0135763
0.0135731
0.0135699
0.0135667
0.0135634
0.0135602
0.0135569
0.0135536
0.0135504
0.0135471
0.0135437
0.0135404
0.0135371
0.0135337
0.0135304
0.013527
0.0135236
0.0135202
0.0135167
0.0135133
0.0135098
0.0135064
0.0135029
0.0134994
0.0134959
0.0134923
0.0134888
0.0134852
0.0134816
0.013478
0.0134744
0.0134707
0.0134671
0.0134634
0.0134597
0.013456
0.0134522
0.0134485
0.0134447
0.0134409
0.013437
0.0134332
0.0134293
0.0134254
0.0135941
0.0135905
0.013587
0.0135834
0.0135798
0.0135762
0.0135726
0.013569
0.0135654
0.0135618
0.0135582
0.0135545
0.0135509
0.0135472
0.0135435
0.0135399
0.0135362
0.0135325
0.0135287
0.013525
0.0135212
0.0135175
0.0135137
0.0135099
0.0135061
0.0135023
0.0134984
0.0134946
0.0134907
0.0134868
0.0134829
0.013479
0.013475
0.0134711
0.0134671
0.0134631
0.0134591
0.0134551
0.013451
0.0134469
0.0134428
0.0134387
0.0134346
0.0134304
0.0134262
0.013422
0.0134178
0.0134136
0.0134093
0.013405
0.0134007
0.0133963
0.0133919
0.0133875
0.0133831
0.0133787
0.0133742
0.0133697
0.0133651
0.0133606
0.013356
0.0135564
0.0135522
0.0135481
0.0135439
0.0135398
0.0135356
0.0135314
0.0135272
0.013523
0.0135188
0.0135145
0.0135103
0.0135061
0.0135018
0.0134976
0.0134933
0.013489
0.0134847
0.0134804
0.0134761
0.0134717
0.0134674
0.013463
0.0134586
0.0134541
0.0134497
0.0134452
0.0134408
0.0134363
0.0134317
0.0134272
0.0134226
0.013418
0.0134134
0.0134088
0.0134041
0.0133995
0.0133948
0.01339
0.0133853
0.0133805
0.0133757
0.0133708
0.013366
0.0133611
0.0133562
0.0133512
0.0133462
0.0133412
0.0133362
0.0133311
0.013326
0.0133209
0.0133157
0.0133105
0.0133052
0.0133
0.0132947
0.0132893
0.0132839
0.0132785
0.013516
0.0135112
0.0135064
0.0135015
0.0134967
0.0134919
0.013487
0.0134821
0.0134772
0.0134723
0.0134674
0.0134625
0.0134576
0.0134526
0.0134477
0.0134427
0.0134377
0.0134328
0.0134277
0.0134227
0.0134177
0.0134126
0.0134075
0.0134024
0.0133973
0.0133921
0.0133869
0.0133817
0.0133765
0.0133712
0.013366
0.0133607
0.0133553
0.0133499
0.0133446
0.0133391
0.0133337
0.0133282
0.0133227
0.0133171
0.0133116
0.0133059
0.0133003
0.0132946
0.0132889
0.0132831
0.0132773
0.0132715
0.0132656
0.0132597
0.0132538
0.0132478
0.0132418
0.0132357
0.0132296
0.0132234
0.0132172
0.013211
0.0132047
0.0131983
0.0131919
0.0134726
0.013467
0.0134615
0.0134559
0.0134503
0.0134447
0.0134391
0.0134334
0.0134278
0.0134221
0.0134164
0.0134107
0.013405
0.0133992
0.0133934
0.0133877
0.0133819
0.0133761
0.0133702
0.0133644
0.0133586
0.0133527
0.0133468
0.0133409
0.0133349
0.0133289
0.0133229
0.0133169
0.0133108
0.0133047
0.0132986
0.0132924
0.0132862
0.01328
0.0132737
0.0132674
0.013261
0.0132547
0.0132482
0.0132418
0.0132353
0.0132287
0.0132221
0.0132155
0.0132088
0.0132021
0.0131953
0.0131885
0.0131816
0.0131747
0.0131678
0.0131607
0.0131537
0.0131465
0.0131394
0.0131321
0.0131248
0.0131175
0.01311
0.0131026
0.013095
0.013426
0.0134196
0.0134132
0.0134067
0.0134002
0.0133937
0.0133872
0.0133807
0.0133742
0.0133676
0.013361
0.0133544
0.0133478
0.0133411
0.0133344
0.0133277
0.013321
0.0133142
0.0133075
0.0133007
0.0132939
0.013287
0.0132802
0.0132734
0.0132665
0.0132595
0.0132526
0.0132456
0.0132385
0.0132314
0.0132243
0.0132172
0.0132099
0.0132027
0.0131954
0.0131881
0.0131807
0.0131733
0.0131658
0.0131583
0.0131507
0.0131431
0.0131354
0.0131277
0.0131199
0.013112
0.0131041
0.0130962
0.0130881
0.0130801
0.0130719
0.0130637
0.0130554
0.0130471
0.0130386
0.0130301
0.0130216
0.0130129
0.0130042
0.0129954
0.0129865
0.0133759
0.0133685
0.0133611
0.0133536
0.0133461
0.0133386
0.0133311
0.0133235
0.013316
0.0133084
0.0133008
0.0132931
0.0132855
0.0132778
0.01327
0.0132623
0.0132545
0.0132467
0.0132388
0.013231
0.013223
0.0132151
0.0132071
0.0131992
0.0131912
0.0131832
0.0131751
0.013167
0.0131588
0.0131506
0.0131424
0.0131341
0.0131257
0.0131173
0.0131088
0.0131003
0.0130918
0.0130831
0.0130744
0.0130657
0.0130569
0.013048
0.0130391
0.0130301
0.013021
0.0130119
0.0130026
0.0129934
0.012984
0.0129746
0.012965
0.0129554
0.0129458
0.012936
0.0129261
0.0129162
0.0129061
0.012896
0.0128858
0.0128754
0.012865
0.0133221
0.0133135
0.0133049
0.0132963
0.0132876
0.013279
0.0132703
0.0132615
0.0132528
0.013244
0.0132352
0.0132264
0.0132175
0.0132086
0.0131997
0.0131907
0.0131817
0.0131727
0.0131636
0.0131545
0.0131454
0.0131362
0.013127
0.0131177
0.0131084
0.0130991
0.0130897
0.0130803
0.0130709
0.0130614
0.0130518
0.0130422
0.0130325
0.0130228
0.013013
0.0130031
0.0129932
0.0129832
0.0129731
0.0129629
0.0129527
0.0129424
0.012932
0.0129216
0.012911
0.0129004
0.0128897
0.0128789
0.012868
0.012857
0.0128459
0.0128347
0.0128234
0.012812
0.0128004
0.0127888
0.0127771
0.0127652
0.0127532
0.0127411
0.0127289
0.0132641
0.0132542
0.0132443
0.0132343
0.0132243
0.0132143
0.0132043
0.0131942
0.0131841
0.013174
0.0131638
0.0131536
0.0131434
0.0131331
0.0131228
0.0131125
0.0131021
0.0130916
0.0130812
0.0130706
0.0130601
0.0130494
0.0130388
0.013028
0.0130173
0.0130065
0.0129956
0.0129847
0.0129738
0.0129628
0.0129518
0.0129406
0.0129294
0.0129182
0.0129068
0.0128954
0.0128839
0.0128723
0.0128606
0.0128488
0.012837
0.012825
0.012813
0.0128009
0.0127886
0.0127763
0.0127638
0.0127513
0.0127386
0.0127258
0.0127129
0.0126999
0.0126867
0.0126735
0.01266
0.0126465
0.0126328
0.012619
0.012605
0.0125908
0.0125766
0.0132017
0.0131903
0.0131788
0.0131673
0.0131558
0.0131442
0.0131327
0.0131211
0.0131094
0.0130977
0.013086
0.0130742
0.0130624
0.0130506
0.0130387
0.0130267
0.0130148
0.0130027
0.0129906
0.0129785
0.0129663
0.012954
0.0129417
0.0129293
0.0129169
0.0129044
0.0128918
0.0128792
0.0128665
0.0128538
0.012841
0.0128282
0.0128153
0.0128022
0.0127891
0.0127759
0.0127626
0.0127492
0.0127357
0.0127221
0.0127084
0.0126946
0.0126806
0.0126666
0.0126524
0.0126381
0.0126237
0.0126091
0.0125944
0.0125796
0.0125646
0.0125495
0.0125343
0.0125189
0.0125033
0.0124875
0.0124716
0.0124555
0.0124393
0.0124228
0.0124062
0.0131345
0.0131213
0.0131081
0.0130948
0.0130816
0.0130682
0.0130549
0.0130415
0.0130281
0.0130146
0.0130011
0.0129875
0.0129739
0.0129603
0.0129466
0.0129328
0.012919
0.0129051
0.0128911
0.0128771
0.0128631
0.0128489
0.0128347
0.0128205
0.0128061
0.0127917
0.0127772
0.0127626
0.012748
0.0127333
0.0127185
0.0127037
0.0126888
0.0126737
0.0126586
0.0126434
0.012628
0.0126126
0.012597
0.0125813
0.0125654
0.0125495
0.0125334
0.0125172
0.0125008
0.0124843
0.0124676
0.0124508
0.0124338
0.0124167
0.0123994
0.0123819
0.0123643
0.0123465
0.0123284
0.0123102
0.0122918
0.0122732
0.0122543
0.0122353
0.012216
0.0130621
0.0130469
0.0130317
0.0130164
0.0130011
0.0129858
0.0129704
0.012955
0.0129395
0.012924
0.0129084
0.0128928
0.0128771
0.0128614
0.0128456
0.0128297
0.0128138
0.0127978
0.0127818
0.0127657
0.0127495
0.0127332
0.0127168
0.0127004
0.0126839
0.0126673
0.0126506
0.0126338
0.0126169
0.0125999
0.0125829
0.0125658
0.0125486
0.0125313
0.0125139
0.0124964
0.0124787
0.0124609
0.0124429
0.0124249
0.0124066
0.0123883
0.0123697
0.0123511
0.0123322
0.0123132
0.012294
0.0122747
0.0122551
0.0122354
0.0122155
0.0121954
0.0121751
0.0121545
0.0121338
0.0121128
0.0120916
0.0120701
0.0120484
0.0120264
0.0120042
0.0129842
0.0129666
0.0129491
0.0129315
0.0129139
0.0128962
0.0128785
0.0128608
0.012843
0.0128251
0.0128072
0.0127892
0.0127712
0.0127531
0.0127349
0.0127167
0.0126984
0.01268
0.0126615
0.012643
0.0126243
0.0126056
0.0125868
0.0125679
0.0125489
0.0125298
0.0125106
0.0124913
0.0124719
0.0124524
0.0124328
0.0124131
0.0123934
0.0123735
0.0123535
0.0123334
0.0123131
0.0122926
0.012272
0.0122513
0.0122304
0.0122093
0.012188
0.0121666
0.012145
0.0121232
0.0121012
0.012079
0.0120566
0.012034
0.0120112
0.0119881
0.0119648
0.0119413
0.0119175
0.0118935
0.0118692
0.0118446
0.0118198
0.0117946
0.0117691
0.0129002
0.01288
0.0128598
0.0128396
0.0128193
0.012799
0.0127786
0.0127582
0.0127377
0.0127172
0.0126966
0.0126759
0.0126552
0.0126344
0.0126135
0.0125926
0.0125715
0.0125504
0.0125292
0.0125079
0.0124865
0.012465
0.0124434
0.0124217
0.0123999
0.012378
0.012356
0.0123339
0.0123116
0.0122893
0.0122668
0.0122442
0.0122215
0.0121987
0.0121758
0.0121527
0.0121295
0.0121061
0.0120826
0.0120588
0.0120349
0.0120108
0.0119865
0.0119621
0.0119374
0.0119125
0.0118874
0.0118621
0.0118365
0.0118108
0.0117847
0.0117585
0.011732
0.0117052
0.0116781
0.0116508
0.0116231
0.0115952
0.0115669
0.0115383
0.0115093
0.0128097
0.0127865
0.0127633
0.01274
0.0127167
0.0126933
0.0126699
0.0126465
0.0126229
0.0125993
0.0125757
0.012552
0.0125282
0.0125043
0.0124803
0.0124563
0.0124322
0.0124079
0.0123836
0.0123592
0.0123346
0.01231
0.0122853
0.0122604
0.0122355
0.0122104
0.0121852
0.0121599
0.0121345
0.0121089
0.0120832
0.0120574
0.0120314
0.0120053
0.0119792
0.0119529
0.0119264
0.0118997
0.0118729
0.0118459
0.0118187
0.0117912
0.0117636
0.0117358
0.0117078
0.0116795
0.011651
0.0116223
0.0115934
0.0115642
0.0115347
0.011505
0.011475
0.0114447
0.0114141
0.0113832
0.011352
0.0113205
0.0112886
0.0112563
0.0112237
0.0127124
0.0126856
0.0126589
0.0126322
0.0126054
0.0125785
0.0125517
0.0125247
0.0124977
0.0124707
0.0124435
0.0124163
0.012389
0.0123617
0.0123342
0.0123067
0.012279
0.0122513
0.0122234
0.0121955
0.0121674
0.0121393
0.012111
0.0120826
0.0120541
0.0120255
0.0119967
0.0119679
0.0119389
0.0119097
0.0118805
0.0118511
0.0118215
0.0117919
0.0117621
0.0117322
0.0117022
0.0116719
0.0116415
0.0116109
0.0115801
0.011549
0.0115178
0.0114864
0.0114547
0.0114229
0.0113908
0.0113584
0.0113258
0.011293
0.0112599
0.0112265
0.0111928
0.0111588
0.0111246
0.01109
0.0110551
0.0110198
0.0109842
0.0109482
0.0109118
0.0126075
0.0125768
0.0125461
0.0125154
0.0124846
0.0124538
0.012423
0.0123921
0.0123611
0.0123301
0.012299
0.0122679
0.0122366
0.0122053
0.0121739
0.0121424
0.0121108
0.0120791
0.0120473
0.0120154
0.0119834
0.0119513
0.011919
0.0118867
0.0118543
0.0118217
0.011789
0.0117562
0.0117233
0.0116902
0.011657
0.0116237
0.0115903
0.0115567
0.011523
0.0114892
0.0114553
0.0114212
0.0113869
0.0113524
0.0113177
0.0112829
0.0112478
0.0112126
0.0111771
0.0111414
0.0111055
0.0110693
0.0110329
0.0109963
0.0109594
0.0109222
0.0108848
0.010847
0.010809
0.0107706
0.010732
0.0106929
0.0106535
0.0106137
0.0105736
0.0124946
0.0124593
0.0124241
0.0123888
0.0123536
0.0123183
0.0122829
0.0122476
0.0122121
0.0121766
0.0121411
0.0121054
0.0120697
0.012034
0.0119981
0.0119622
0.0119261
0.01189
0.0118538
0.0118175
0.0117811
0.0117446
0.011708
0.0116713
0.0116345
0.0115976
0.0115606
0.0115235
0.0114862
0.0114489
0.0114115
0.0113739
0.0113363
0.0112985
0.0112606
0.0112227
0.0111846
0.0111464
0.011108
0.0110694
0.0110307
0.0109918
0.0109528
0.0109135
0.0108741
0.0108345
0.0107946
0.0107546
0.0107143
0.0106738
0.0106331
0.0105921
0.0105509
0.0105094
0.0104676
0.0104255
0.0103831
0.0103404
0.0102973
0.0102538
0.01021
0.012373
0.0123326
0.0122922
0.0122518
0.0122114
0.012171
0.0121305
0.0120901
0.0120496
0.012009
0.0119685
0.0119278
0.0118871
0.0118463
0.0118055
0.0117646
0.0117236
0.0116826
0.0116415
0.0116003
0.011559
0.0115177
0.0114763
0.0114349
0.0113933
0.0113517
0.01131
0.0112683
0.0112265
0.0111846
0.0111426
0.0111006
0.0110584
0.0110162
0.010974
0.0109316
0.0108892
0.0108467
0.0108041
0.0107613
0.0107184
0.0106754
0.0106323
0.010589
0.0105456
0.010502
0.0104583
0.0104143
0.0103702
0.010326
0.0102815
0.0102368
0.0101919
0.0101467
0.0101013
0.0100556
0.0100097
0.00996341
0.00991684
0.00986994
0.00982268
0.0122422
0.0121959
0.0121496
0.0121033
0.0120571
0.0120109
0.0119648
0.0119186
0.0118724
0.0118262
0.01178
0.0117337
0.0116874
0.0116411
0.0115947
0.0115483
0.0115019
0.0114555
0.011409
0.0113625
0.0113159
0.0112694
0.0112228
0.0111762
0.0111296
0.011083
0.0110363
0.0109896
0.010943
0.0108963
0.0108495
0.0108028
0.010756
0.0107092
0.0106624
0.0106156
0.0105688
0.0105219
0.010475
0.010428
0.010381
0.0103339
0.0102867
0.0102394
0.0101921
0.0101447
0.0100971
0.0100495
0.0100017
0.00995377
0.00990572
0.00985751
0.00980913
0.00976057
0.00971181
0.00966283
0.00961362
0.00956416
0.00951443
0.00946441
0.00941407
0.0121015
0.0120484
0.0119955
0.0119427
0.0118899
0.0118372
0.0117845
0.0117319
0.0116794
0.0116268
0.0115743
0.0115218
0.0114693
0.0114169
0.0113645
0.0113121
0.0112597
0.0112074
0.0111551
0.0111028
0.0110506
0.0109985
0.0109464
0.0108944
0.0108424
0.0107905
0.0107386
0.0106868
0.0106351
0.0105835
0.0105319
0.0104803
0.0104289
0.0103775
0.0103261
0.0102748
0.0102236
0.0101725
0.0101213
0.0100702
0.0100192
0.00996808
0.00991702
0.00986597
0.00981491
0.00976383
0.00971273
0.00966159
0.00961041
0.00955917
0.00950786
0.00945647
0.00940497
0.00935336
0.00930162
0.00924972
0.00919766
0.0091454
0.00909293
0.00904023
0.00898727
0.0119503
0.0118896
0.0118291
0.0117688
0.0117087
0.0116486
0.0115888
0.011529
0.0114693
0.0114098
0.0113503
0.011291
0.0112317
0.0111726
0.0111136
0.0110547
0.0109959
0.0109373
0.0108788
0.0108204
0.0107623
0.0107042
0.0106464
0.0105887
0.0105312
0.0104738
0.0104167
0.0103597
0.0103029
0.0102463
0.0101898
0.0101335
0.0100774
0.0100215
0.00996573
0.00991013
0.00985471
0.00979943
0.00974429
0.00968929
0.00963441
0.00957966
0.00952502
0.00947047
0.00941603
0.00936166
0.00930736
0.00925312
0.00919893
0.00914477
0.00909062
0.00903647
0.0089823
0.0089281
0.00887384
0.00881951
0.00876508
0.00871053
0.00865583
0.00860097
0.00854591
0.0117877
0.0117184
0.0116495
0.0115808
0.0115124
0.0114443
0.0113763
0.0113086
0.0112412
0.0111739
0.0111068
0.01104
0.0109734
0.0109071
0.010841
0.0107752
0.0107096
0.0106444
0.0105794
0.0105147
0.0104503
0.0103863
0.0103225
0.0102591
0.010196
0.0101332
0.0100708
0.0100087
0.00994685
0.00988538
0.00982422
0.00976338
0.00970284
0.00964262
0.00958269
0.00952305
0.00946371
0.00940464
0.00934584
0.0092873
0.00922902
0.00917097
0.00911316
0.00905556
0.00899816
0.00894096
0.00888394
0.00882708
0.00877036
0.00871377
0.0086573
0.00860091
0.0085446
0.00848834
0.00843211
0.00837589
0.00831965
0.00826337
0.00820702
0.00815057
0.008094
0.0116132
0.0115342
0.0114558
0.0113778
0.0113002
0.011223
0.0111462
0.0110698
0.0109938
0.0109181
0.0108429
0.010768
0.0106936
0.0106196
0.0105461
0.010473
0.0104004
0.0103283
0.0102567
0.0101855
0.0101149
0.0100448
0.00997516
0.00990607
0.00983749
0.00976942
0.00970187
0.00963482
0.00956827
0.00950222
0.00943666
0.00937158
0.00930698
0.00924283
0.00917914
0.00911588
0.00905305
0.00899064
0.00892864
0.00886705
0.00880585
0.00874502
0.00868455
0.00862442
0.00856462
0.00850513
0.00844593
0.008387
0.00832832
0.00826988
0.00821165
0.00815361
0.00809573
0.008038
0.00798039
0.00792287
0.00786541
0.007808
0.00775059
0.00769317
0.00763569
0.011426
0.0113362
0.0112471
0.0111587
0.011071
0.0109839
0.0108974
0.0108115
0.0107262
0.0106416
0.0105576
0.0104743
0.0103917
0.0103097
0.0102285
0.010148
0.0100682
0.00998917
0.00991088
0.00983334
0.00975656
0.00968052
0.00960525
0.00953072
0.00945694
0.00938389
0.00931158
0.00923998
0.00916909
0.0090989
0.00902938
0.00896054
0.00889235
0.00882479
0.00875786
0.00869151
0.00862574
0.00856055
0.00849593
0.00843186
0.00836832
0.0083053
0.00824277
0.00818071
0.00811911
0.00805793
0.00799716
0.00793678
0.00787676
0.00781707
0.0077577
0.00769861
0.00763978
0.00758119
0.0075228
0.00746459
0.00740653
0.00734858
0.00729072
0.00723291
0.00717512
0.0112253
0.0111234
0.0110226
0.0109228
0.0108239
0.010726
0.010629
0.010533
0.0104379
0.0103438
0.0102507
0.0101586
0.0100675
0.0099774
0.00988838
0.00980042
0.00971352
0.00962769
0.00954293
0.00945922
0.00937657
0.00929496
0.00921439
0.00913485
0.00905631
0.00897876
0.00890219
0.00882657
0.00875188
0.00867811
0.00860523
0.00853322
0.00846205
0.0083917
0.00832215
0.00825336
0.00818527
0.00811794
0.00805134
0.00798544
0.00792022
0.00785566
0.00779172
0.00772838
0.00766561
0.00760339
0.00754169
0.00748049
0.00741975
0.00735944
0.00729954
0.00724003
0.00718086
0.00712201
0.00706344
0.00700514
0.00694706
0.00688917
0.00683144
0.00677383
0.0067163
0.0110106
0.0108953
0.0107815
0.0106692
0.0105583
0.0104487
0.0103406
0.0102338
0.0101284
0.0100244
0.00992191
0.00982084
0.00972123
0.00962308
0.00952641
0.0094312
0.00933745
0.00924516
0.0091543
0.00906486
0.00897682
0.00889016
0.00880485
0.00872086
0.00863818
0.00855675
0.00847657
0.00839759
0.00831978
0.00824312
0.00816756
0.00809307
0.00801962
0.00794718
0.00787571
0.00780516
0.00773547
0.00766669
0.0075988
0.00753176
0.00746554
0.0074001
0.00733542
0.00727146
0.00720819
0.00714557
0.00708358
0.00702218
0.00696134
0.00690103
0.00684121
0.00678186
0.00672294
0.00666441
0.00660625
0.00654842
0.00649088
0.0064336
0.00637654
0.00631966
0.00626293
0.0107811
0.0106511
0.0105232
0.0103973
0.0102734
0.0101515
0.0100316
0.00991361