/*--------------------------------*- C++ -*----------------------------------*\
  =========                 |
  \\      /  F ield         | OpenFOAM: The Open Source CFD Toolbox
   \\    /   O peration     | Website:  https://openfoam.org
    \\  /    A nd           | Version:  8
     \\/     M anipulation  |
\*---------------------------------------------------------------------------*/
FoamFile
{
    version     2.0;
    format      ascii;
    class       surfaceScalarField;
    location    "0.01739";
    object      phi;
}
// * * * * * * * * * * * * * * * * * * * * * * * * * * * * * * * * * * * * * //

dimensions      [0 3 -1 0 0 0 0];

internalField   nonuniform List<scalar> 
215475
(
-0.00359996
0.0264
-0.00840002
0.0708001
-0.012
0.1152
-0.0167999
0.1596
-0.0215998
0.204
-0.0251997
0.2484
-0.0287996
0.2916
-0.0323996
0.336
-0.0359995
0.3792
-0.0395994
0.4248
-0.0419993
0.4668
-0.0455992
0.5112
-0.0491991
0.5556
-0.052799
0.5976
-0.0539989
0.6408
-0.0575988
0.6852
-0.0611987
0.7272
-0.0635986
0.7704
-0.0659985
0.8124
-0.0671984
0.8544
-0.0707983
0.8976
-0.0719982
0.9384
-0.0743981
0.9804
-0.075598
1.0224
-0.0779978
1.0632
-0.0791977
1.104
-0.0815976
1.146
-0.0827975
1.1844
-0.0839974
1.2252
-0.0863972
1.266
-0.0875971
1.3044
-0.088797
1.344
-0.0899969
1.3824
-0.0899968
1.4208
-0.0911966
1.4592
-0.0911965
1.4964
-0.0923964
1.5348
-0.0935962
1.572
-0.0935961
1.608
-0.094796
1.644
-0.0947959
1.68
-0.0947957
1.716
-0.0947956
1.7496
-0.0947955
1.7856
-0.0947954
1.8192
-0.0947952
1.8528
-0.0947951
1.8864
-0.093595
1.9188
-0.0935949
1.9512
-0.0935947
1.9836
-0.0923946
2.0136
-0.0923945
2.046
-0.0911944
2.0748
-0.0905942
2.10564
-0.0897541
2.13468
-0.088794
2.16336
-0.0878339
2.19168
-0.0868738
2.2194
-0.0856737
2.24652
-0.0844735
2.27304
-0.0832734
2.2992
-0.0819533
2.32464
-0.0805132
2.34948
-0.0790731
2.37384
-0.077633
2.3976
-0.0760729
2.42076
-0.0743928
2.4432
-0.0728327
2.46528
-0.0711526
2.48664
-0.0693525
2.50728
-0.0675524
2.52744
-0.0656323
2.54688
-0.0637122
2.56572
-0.0616721
2.58396
-0.059632
2.6016
-0.0577119
2.61864
-0.0555518
2.63484
-0.0533917
2.65044
-0.0512316
2.66556
-0.0489515
2.67984
-0.0467915
2.69364
-0.0446314
2.7066
-0.0422313
2.71884
-0.0399512
2.73072
-0.0375511
2.74164
-0.0351511
2.75196
-0.032751
2.76168
-0.0303509
2.77068
-0.0279509
2.77896
-0.0254308
2.78652
-0.0229107
2.79348
-0.0203907
2.79972
-0.0178706
2.80536
-0.0152306
2.81004
-0.0128305
2.81436
-0.0102505
2.8178
-0.00769441
2.82058
-0.00512636
2.82266
-0.00255833
2.82404
9.71885e-06
2.82475
0.00257775
2.82475
0.00514579
2.82404
0.00771382
2.82266
0.0102699
2.82058
0.0128499
2.8178
0.0152499
2.81436
0.0178899
2.81004
0.02041
2.80536
0.02293
2.79972
0.02545
2.79348
0.02797
2.78652
0.03037
2.77896
0.03277
2.77068
0.03517
2.76168
0.03757
2.75196
0.03997
2.74164
0.04225
2.73072
0.04465
2.71884
0.04681
2.7066
0.04897
2.69364
0.05125
2.67984
0.0534099
2.66556
0.0555699
2.65044
0.0577299
2.63484
0.0596499
2.61864
0.0616898
2.6016
0.0637298
2.58396
0.0656498
2.56572
0.0675697
2.54688
0.0693697
2.52744
0.0711696
2.50728
0.0728496
2.48664
0.0744095
2.46528
0.0760895
2.4432
0.0776494
2.42076
0.0790893
2.3976
0.0805293
2.37384
0.0819692
2.34948
0.0832891
2.32464
0.0844891
2.2992
0.085689
2.27304
0.0868889
2.24652
0.0878488
2.2194
0.0888087
2.19168
0.0897686
2.16336
0.0906085
2.13468
0.0912084
2.10564
0.0924083
2.0748
0.0924082
2.046
0.0936081
2.0136
0.093608
1.9836
0.0936079
1.9512
0.0948078
1.9188
0.0948077
1.8864
0.0948076
1.8528
0.0948074
1.8192
0.0948073
1.7856
0.0948072
1.7496
0.094807
1.716
0.0948069
1.68
0.0936068
1.644
0.0936066
1.608
0.0924065
1.572
0.0912063
1.5348
0.0912062
1.4964
0.090006
1.4592
0.0900059
1.4208
0.0888057
1.3824
0.0876055
1.344
0.0864054
1.3044
0.0840052
1.266
0.082805
1.2252
0.0816049
1.1844
0.0792047
1.146
0.0780045
1.104
0.0756043
1.0632
0.0744042
1.0224
0.072004
0.9804
0.0708038
0.9384
0.0672036
0.8976
0.0660034
0.8544
0.0636033
0.8124
0.0612031
0.7704
0.0576029
0.7272
0.0540027
0.6852
0.0528025
0.6408
0.0492023
0.5976
0.0456021
0.5556
0.0420019
0.5112
0.0396017
0.4668
0.0360015
0.4248
0.0324013
0.3792
0.0288011
0.336
0.0252009
0.2916
0.0216007
0.2484
0.0168004
0.204
0.0120001
0.1596
0.00839991
0.1152
0.00360012
0.0707998
0.0264001
-0.00479981
0.0311998
-0.00959985
0.0756001
-0.0131999
0.1188
-0.0179998
0.1644
-0.0215995
0.2076
-0.0239993
0.2508
-0.0287991
0.2964
-0.0323988
0.3396
-0.0359986
0.3828
-0.0395984
0.4284
-0.0431981
0.4704
-0.0467978
0.5148
-0.0479976
0.5568
-0.0515973
0.6012
-0.055197
0.6444
-0.0575967
0.6876
-0.0599964
0.7296
-0.0623961
0.7728
-0.0647957
0.8148
-0.0683954
0.858
-0.0695951
0.8988
-0.0731947
0.942
-0.0743944
0.9816
-0.076794
1.0248
-0.0779937
1.0644
-0.0803933
1.1064
-0.081593
1.1472
-0.0839926
1.1868
-0.0851922
1.2264
-0.0851919
1.266
-0.0863915
1.3056
-0.0875911
1.3452
-0.0887908
1.3836
-0.0899904
1.422
-0.09119
1.4604
-0.0923896
1.4976
-0.0923892
1.5348
-0.0923888
1.572
-0.0935885
1.6092
-0.0935881
1.644
-0.0947877
1.6812
-0.0935873
1.7148
-0.0947869
1.7508
-0.0947865
1.7856
-0.0947861
1.8192
-0.0947858
1.8528
-0.0947854
1.8864
-0.093585
1.9176
-0.0935846
1.9512
-0.0923843
1.9824
-0.0935839
2.0148
-0.0911835
2.0436
-0.0911831
2.0748
-0.0905828
2.10504
-0.0897424
2.13384
-0.088902
2.16252
-0.0878217
2.1906
-0.0867413
2.21832
-0.085661
2.24544
-0.0845806
2.27196
-0.0832603
2.29788
-0.0819399
2.32332
-0.0804996
2.34804
-0.0791792
2.37252
-0.0776189
2.39604
-0.0760586
2.4192
-0.0744982
2.44164
-0.0728179
2.4636
-0.0710176
2.48484
-0.0692173
2.50548
-0.067417
2.52564
-0.0654967
2.54496
-0.0636964
2.56392
-0.0617761
2.58204
-0.0597358
2.59956
-0.0575755
2.61648
-0.0555353
2.6328
-0.053495
2.6484
-0.0512147
2.66328
-0.0490545
2.67768
-0.0467742
2.69136
-0.044494
2.70432
-0.0422137
2.71656
-0.0398135
2.72832
-0.0375333
2.73936
-0.0351331
2.74956
-0.0327329
2.75928
-0.0302126
2.76816
-0.0278124
2.77656
-0.0254122
2.78412
-0.0228921
2.79096
-0.0203719
2.7972
-0.0178517
2.80284
-0.0153315
2.80752
-0.0128114
2.81184
-0.0102192
2.81521
-0.00766307
2.81802
-0.00509493
2.8201
-0.00253881
2.82149
2.93178e-05
2.82218
0.00259743
2.82218
0.00515355
2.82149
0.00772165
2.8201
0.0102778
2.81802
0.0128698
2.81521
0.0153899
2.81184
0.01791
2.80752
0.02043
2.80284
0.0229501
2.7972
0.0254701
2.79096
0.0278701
2.78412
0.0302702
2.77656
0.0327902
2.76816
0.0351902
2.75928
0.0375902
2.74956
0.0398702
2.73936
0.0422702
2.72832
0.0445502
2.71656
0.0468301
2.70432
0.0491101
2.69136
0.0512701
2.67768
0.05355
2.66328
0.0555899
2.6484
0.0576298
2.6328
0.0597898
2.61648
0.0618297
2.59956
0.0637496
2.58204
0.0655495
2.56392
0.0674693
2.54496
0.0692692
2.52564
0.071069
2.50548
0.0728689
2.48484
0.0745487
2.4636
0.0761086
2.44164
0.0776684
2.4192
0.0792282
2.39604
0.080548
2.37252
0.0819878
2.34804
0.0833076
2.32332
0.0846273
2.29788
0.0857071
2.27196
0.0867868
2.24544
0.0878666
2.21832
0.0889463
2.1906
0.089786
2.16252
0.0906258
2.13384
0.0912255
2.10504
0.0912251
2.0748
0.0936249
2.0436
0.0924245
2.0148
0.0936242
1.9824
0.0936238
1.9512
0.0948235
1.9176
0.0948231
1.8864
0.0948228
1.8528
0.0948224
1.8192
0.094822
1.7856
0.0936216
1.7508
0.0948212
1.7148
0.0936207
1.6812
0.0936203
1.644
0.0924199
1.6092
0.0924194
1.572
0.092419
1.5348
0.0912185
1.4976
0.0900181
1.4604
0.0888176
1.422
0.0876171
1.3836
0.0864166
1.3452
0.0852161
1.3056
0.0852156
1.266
0.0840151
1.2264
0.0816145
1.1868
0.080414
1.1472
0.0780135
1.1064
0.0768129
1.0644
0.0744124
1.0248
0.0732118
0.981601
0.0696112
0.942001
0.0684107
0.898801
0.0648101
0.858001
0.0624095
0.814801
0.0600089
0.772801
0.0576084
0.729601
0.0552078
0.687601
0.0516072
0.644401
0.0480065
0.601201
0.046806
0.556801
0.0432054
0.514801
0.0396047
0.470401
0.0360041
0.428401
0.0324035
0.382801
0.028803
0.339601
0.0240023
0.296401
0.0216015
0.250801
0.0180008
0.207601
0.0132004
0.164401
0.00960057
0.1188
0.00480072
0.0755996
0.0312008
-0.00479972
0.0359995
-0.00839958
0.0791999
-0.0131996
0.1236
-0.0167996
0.168
-0.0203994
0.211199
-0.025199
0.255599
-0.0287986
0.299999
-0.0323982
0.343199
-0.0359978
0.386399
-0.0383974
0.430799
-0.043197
0.475199
-0.0455965
0.517199
-0.0491961
0.560399
-0.0527956
0.604799
-0.0551951
0.646799
-0.0575946
0.689999
-0.0611941
0.733199
-0.0635936
0.775199
-0.0659931
0.817199
-0.0671925
0.859199
-0.070792
0.902399
-0.0719914
0.943199
-0.0755908
0.985199
-0.0767902
1.026
-0.0791897
1.0668
-0.0803891
1.1076
-0.0815885
1.1484
-0.0827879
1.188
-0.0839873
1.2276
-0.0863866
1.2684
-0.087586
1.3068
-0.0887854
1.3464
-0.0899847
1.3848
-0.0911841
1.4232
-0.0911835
1.4604
-0.0923828
1.4988
-0.0923822
1.5348
-0.0935815
1.5732
-0.0935809
1.6092
-0.0947802
1.6452
-0.0935796
1.68
-0.094779
1.716
-0.0947783
1.7508
-0.0947776
1.7856
-0.094777
1.8192
-0.0947764
1.8528
-0.0935757
1.8852
-0.0947751
1.9188
-0.0935745
1.95
-0.0935738
1.9824
-0.0923732
2.0136
-0.0923725
2.0436
-0.0923719
2.0748
-0.0905713
2.10324
-0.0897307
2.133
-0.0887701
2.16156
-0.0878095
2.18964
-0.0868488
2.21736
-0.0856483
2.24424
-0.0844477
2.27076
-0.0831271
2.29656
-0.0818065
2.322
-0.0806059
2.34684
-0.0790453
2.37096
-0.0776048
2.3946
-0.0760442
2.41764
-0.0743637
2.43996
-0.0726831
2.46192
-0.0710026
2.48316
-0.0693221
2.5038
-0.0674016
2.52372
-0.0656011
2.54316
-0.0635606
2.56188
-0.0616401
2.58012
-0.0597196
2.59764
-0.0576791
2.61444
-0.0555186
2.63064
-0.0533582
2.64624
-0.0511977
2.66112
-0.0490373
2.67552
-0.0467569
2.68908
-0.0444765
2.70204
-0.042196
2.71428
-0.0399157
2.72604
-0.0375153
2.73696
-0.0351149
2.74716
-0.0327145
2.75688
-0.0303142
2.76576
-0.0277938
2.77404
-0.0252735
2.7816
-0.0228732
2.78856
-0.0203529
2.79468
-0.0178326
2.80032
-0.0153123
2.805
-0.012792
2.80932
-0.0102118
2.81263
-0.00765553
2.81546
-0.00508731
2.81753
-0.00251907
2.81892
4.91464e-05
2.81962
0.00261734
2.81962
0.0051855
2.81892
0.00775368
2.81753
0.0103099
2.81546
0.01289
2.81263
0.0154101
2.80932
0.0179303
2.805
0.0204503
2.80032
0.0229704
2.79468
0.0253705
2.78856
0.0278906
2.7816
0.0304106
2.77404
0.0328106
2.76576
0.0352107
2.75688
0.0376106
2.74716
0.0400106
2.73696
0.0422906
2.72604
0.0445706
2.71428
0.0468505
2.70204
0.0491304
2.68908
0.0512904
2.67552
0.0534502
2.66112
0.0556102
2.64624
0.05777
2.63064
0.0598099
2.61444
0.0617297
2.59764
0.0636495
2.58012
0.0656893
2.56188
0.0674891
2.54316
0.0694089
2.52372
0.0710886
2.5038
0.0727684
2.48316
0.0744481
2.46192
0.0761278
2.43996
0.0776875
2.41764
0.0791272
2.3946
0.0806868
2.37096
0.0818865
2.34684
0.0832061
2.322
0.0845258
2.29656
0.0857253
2.27076
0.0869249
2.24424
0.0878845
2.21736
0.088844
2.18964
0.0898036
2.16156
0.0906431
2.133
0.0924426
2.10324
0.0924421
2.0748
0.0924415
2.0436
0.093641
2.0136
0.0936404
1.9824
0.0948398
1.95
0.0936392
1.9188
0.0948386
1.8852
0.0948379
1.8528
0.0948373
1.8192
0.0948366
1.7856
0.094836
1.7508
0.0936353
1.716
0.0948346
1.68
0.0936339
1.6452
0.0936331
1.6092
0.0924323
1.5732
0.0924316
1.5348
0.0912308
1.4988
0.09123
1.4604
0.0900292
1.4232
0.0888284
1.3848
0.0876276
1.3464
0.0864267
1.3068
0.0840258
1.2684
0.082825
1.2276
0.0816241
1.188
0.0804232
1.1484
0.0792223
1.1076
0.0768214
1.0668
0.0756205
1.026
0.0720195
0.985202
0.0708186
0.943202
0.0672176
0.902402
0.0660167
0.859202
0.0636157
0.817202
0.0612147
0.775202
0.0576137
0.733202
0.0552128
0.690002
0.0528118
0.646802
0.0492107
0.604802
0.0456097
0.560402
0.0432087
0.517202
0.0384077
0.475202
0.0360067
0.430802
0.0324057
0.386402
0.0288046
0.343202
0.0252034
0.300002
0.0204021
0.255602
0.0168013
0.211202
0.0132013
0.168001
0.00840163
0.1236
0.00480109
0.0792002
0.0360019
-0.00359972
0.0395992
-0.00839935
0.0839996
-0.0131993
0.1284
-0.0167994
0.1716
-0.0215992
0.215999
-0.0251988
0.259199
-0.0287982
0.303599
-0.0323976
0.346799
-0.0359971
0.389999
-0.0395965
0.434399
-0.041996
0.477599
-0.0455953
0.520799
-0.0491947
0.563999
-0.0515941
0.607198
-0.0551934
0.650398
-0.0575927
0.692398
-0.059992
0.735598
-0.0623913
0.777598
-0.0659905
0.820798
-0.0683897
0.861598
-0.069589
0.903598
-0.0719882
0.945598
-0.0743874
0.987598
-0.0755866
1.0272
-0.0779858
1.0692
-0.0791849
1.1088
-0.0815841
1.1508
-0.0827832
1.1892
-0.0851824
1.23
-0.0863815
1.2696
-0.0875806
1.308
-0.0875798
1.3464
-0.0887789
1.386
-0.089978
1.4244
-0.0911771
1.4616
-0.0911762
1.4988
-0.0935752
1.5372
-0.0935743
1.5732
-0.0935734
1.6092
-0.0935725
1.6452
-0.0947716
1.6812
-0.0947707
1.716
-0.0947698
1.7508
-0.0947689
1.7856
-0.094768
1.8192
-0.094767
1.8528
-0.0947661
1.8852
-0.0935652
1.9176
-0.0935643
1.95
-0.0935634
1.9824
-0.0923626
2.0124
-0.0923617
2.0436
-0.0911607
2.0736
-0.0905599
2.10264
-0.089719
2.13216
-0.0887581
2.1606
-0.0879173
2.1888
-0.0867164
2.21616
-0.0856356
2.24316
-0.0844347
2.26956
-0.0832339
2.29536
-0.081913
2.32068
-0.0804722
2.3454
-0.0790315
2.36952
-0.0775906
2.39316
-0.0759098
2.41596
-0.0744691
2.43852
-0.0727883
2.46024
-0.0709875
2.48136
-0.0691868
2.502
-0.0673861
2.52192
-0.0655853
2.54136
-0.0636646
2.55996
-0.0616239
2.57808
-0.0595832
2.5956
-0.0575426
2.6124
-0.0555019
2.6286
-0.0533412
2.64408
-0.0513006
2.65908
-0.04902
2.67324
-0.0467394
2.6868
-0.0444588
2.69976
-0.0422982
2.71212
-0.0398976
2.72364
-0.0374971
2.73456
-0.0350966
2.74476
-0.032696
2.75448
-0.0302955
2.76336
-0.0277751
2.77152
-0.0253746
2.7792
-0.0228541
2.78604
-0.0203337
2.79216
-0.0178132
2.7978
-0.0152929
2.80248
-0.0126524
2.80668
-0.0101921
2.81017
-0.00762372
2.8129
-0.0050674
2.81497
-0.00249909
2.81635
6.92133e-05
2.81705
0.00263749
2.81705
0.00520576
2.81635
0.00776201
2.81497
0.0103302
2.8129
0.0127904
2.81017
0.0154306
2.80668
0.0179508
2.80248
0.0204709
2.7978
0.022991
2.79216
0.0255111
2.78604
0.0279112
2.7792
0.0304313
2.77152
0.0328313
2.76336
0.0352314
2.75448
0.0376314
2.74476
0.0400313
2.73456
0.0424313
2.72364
0.0445912
2.71212
0.0468712
2.69976
0.0491511
2.6868
0.0514309
2.67324
0.0534708
2.65908
0.0556306
2.64408
0.0576704
2.6286
0.0597102
2.6124
0.06175
2.5956
0.0637897
2.57808
0.0657094
2.55996
0.0675092
2.54136
0.0693088
2.52192
0.0711085
2.502
0.0729081
2.48136
0.0745877
2.46024
0.0760273
2.43852
0.0777069
2.41596
0.0791464
2.39316
0.0805859
2.36952
0.0820254
2.3454
0.0833449
2.32068
0.0845443
2.29536
0.0857437
2.26956
0.0868231
2.24316
0.0880225
2.21616
0.0888618
2.1888
0.0898212
2.1606
0.0906605
2.13216
0.0912598
2.10264
0.092459
2.0736
0.0924582
2.0436
0.0936575
2.0124
0.0936567
1.9824
0.0936558
1.95
0.094855
1.9176
0.0948541
1.8852
0.0948532
1.8528
0.0948523
1.8192
0.0948513
1.7856
0.0948504
1.7508
0.0948494
1.716
0.0936484
1.6812
0.0936474
1.6452
0.0936463
1.6092
0.0936453
1.5732
0.0912441
1.5372
0.0912431
1.4988
0.0900419
1.4616
0.0888408
1.4244
0.0876396
1.386
0.0876385
1.3464
0.0864373
1.308
0.0852361
1.2696
0.0828348
1.23
0.0816336
1.1892
0.0792323
1.1508
0.078031
1.1088
0.0756297
1.0692
0.0744284
1.0272
0.0720271
0.987603
0.0696257
0.945603
0.0684245
0.903603
0.0660231
0.861603
0.0624217
0.820803
0.0600203
0.777603
0.0576189
0.735603
0.0552176
0.692403
0.0516161
0.650403
0.0492147
0.607203
0.0456133
0.564003
0.0420118
0.520803
0.0396104
0.477603
0.036009
0.434403
0.0324076
0.390003
0.0288059
0.346803
0.0252041
0.303604
0.0216027
0.259204
0.0168022
0.216002
0.0132026
0.1716
0.00840255
0.1284
0.00360112
0.0840016
0.039603
-0.0047997
0.0443989
-0.00959919
0.0887991
-0.013199
0.132
-0.016799
0.1752
-0.020399
0.219599
-0.0251986
0.263998
-0.0287979
0.307198
-0.0323972
0.350398
-0.0359965
0.393598
-0.0395958
0.437998
-0.043195
0.481198
-0.0467942
0.524398
-0.0491934
0.566398
-0.0527926
0.610798
-0.0551917
0.652798
-0.0587909
0.695998
-0.06119
0.737997
-0.063589
0.779997
-0.0647881
0.821997
-0.0683871
0.865197
-0.0707861
0.905997
-0.0731851
0.947997
-0.0743841
0.988797
-0.076783
1.0296
-0.077982
1.0704
-0.0803809
1.1112
-0.0815798
1.152
-0.0827788
1.1904
-0.0839776
1.2312
-0.0851765
1.2708
-0.0863754
1.3092
-0.0887742
1.3488
-0.0899731
1.3872
-0.089972
1.4244
-0.0911708
1.4628
-0.0923696
1.5
-0.0923684
1.5372
-0.0923673
1.5732
-0.0935661
1.6104
-0.0935649
1.6452
-0.0935637
1.6812
-0.0947625
1.7172
-0.0947613
1.7508
-0.0947602
1.7856
-0.094759
1.8192
-0.0935578
1.8516
-0.0935567
1.8852
-0.0947555
1.9188
-0.0935543
1.9488
-0.0923531
1.9812
-0.0923519
2.0124
-0.0911508
2.0424
-0.0911496
2.0736
-0.0905485
2.10204
-0.0897073
2.13132
-0.0888662
2.15976
-0.0877851
2.18772
-0.086704
2.21508
-0.0856229
2.24208
-0.0844218
2.26836
-0.0832207
2.29416
-0.0818996
2.31936
-0.0804585
2.34396
-0.0791375
2.3682
-0.0775764
2.3916
-0.0760154
2.4144
-0.0743344
2.43684
-0.0726534
2.45856
-0.0709724
2.47968
-0.0692914
2.50032
-0.0674904
2.52012
-0.0654495
2.53932
-0.0636486
2.55816
-0.0617276
2.57616
-0.0596868
2.59356
-0.0576459
2.61036
-0.055485
2.62644
-0.0533241
2.64192
-0.0511633
2.65692
-0.0490025
2.67108
-0.0467217
2.68452
-0.0444409
2.69748
-0.0421602
2.70984
-0.0397594
2.72124
-0.0374787
2.73228
-0.035078
2.74236
-0.0326773
2.75208
-0.0301566
2.76084
-0.027876
2.76924
-0.0252354
2.77656
-0.0228348
2.78364
-0.0203143
2.78964
-0.0177937
2.79528
-0.0152732
2.79996
-0.0127527
2.80416
-0.0101602
2.80758
-0.00761575
2.81035
-0.00504727
2.8124
-0.00247887
2.81378
8.95252e-05
2.81448
0.00265789
2.81448
0.00522624
2.81378
0.00779452
2.8124
0.0103388
2.81035
0.0129311
2.80758
0.0154513
2.80416
0.0179716
2.79996
0.0204918
2.79528
0.023012
2.78964
0.0254121
2.78364
0.0280522
2.77656
0.0303323
2.76924
0.0328523
2.76084
0.0352523
2.75208
0.0376524
2.74236
0.0399323
2.73228
0.0423323
2.72124
0.0446122
2.70984
0.046892
2.69748
0.0491719
2.68452
0.0513318
2.67108
0.0534916
2.65692
0.0556513
2.64192
0.0578111
2.62644
0.0598508
2.61036
0.0618905
2.59356
0.0638101
2.57616
0.0656098
2.55816
0.0676494
2.53932
0.069449
2.52012
0.0711285
2.50032
0.072808
2.47968
0.0744875
2.45856
0.076167
2.43684
0.0777264
2.4144
0.0792858
2.3916
0.0806051
2.3682
0.0820444
2.34396
0.0833638
2.31936
0.084563
2.29416
0.0857623
2.26836
0.0868415
2.24208
0.0879207
2.21508
0.0889998
2.18772
0.0898389
2.15976
0.090678
2.13132
0.0912771
2.10204
0.0912761
2.0736
0.0924751
2.0424
0.092474
2.0124
0.093673
1.9812
0.0948719
1.9488
0.0936708
1.9188
0.0936696
1.8852
0.0948685
1.8516
0.0948673
1.8192
0.0948661
1.7856
0.0948648
1.7508
0.0936635
1.7172
0.0936622
1.6812
0.0936608
1.6452
0.0924594
1.6104
0.0924581
1.5732
0.0924567
1.5372
0.0912553
1.5
0.0900538
1.4628
0.0900523
1.4244
0.0888508
1.3872
0.0864492
1.3488
0.0852477
1.3092
0.0840461
1.2708
0.0828445
1.2312
0.0816429
1.1904
0.0804413
1.152
0.0780396
1.1112
0.076838
1.0704
0.0744363
1.0296
0.0732346
0.988805
0.0708329
0.948005
0.0684311
0.906005
0.0648293
0.865205
0.0636276
0.822005
0.0612258
0.780005
0.058824
0.738005
0.0552222
0.696005
0.0528204
0.652805
0.0492185
0.610805
0.0468167
0.566405
0.0432149
0.524405
0.039613
0.481205
0.0360112
0.438005
0.0324091
0.393605
0.0288069
0.350406
0.0252048
0.307206
0.0204036
0.264005
0.0168036
0.219602
0.013204
0.1752
0.00960323
0.132
0.00480123
0.0888036
0.0444043
-0.00479969
0.0491986
-0.00839915
0.0923985
-0.0131987
0.136799
-0.0179986
0.18
-0.0215986
0.223199
-0.0251984
0.267598
-0.0287977
0.310797
-0.0323969
0.353997
-0.0371959
0.398397
-0.0395951
0.440397
-0.0431942
0.484797
-0.0455933
0.526797
-0.0491923
0.569997
-0.0515913
0.613197
-0.0551902
0.656397
-0.0575892
0.698396
-0.0599881
0.740396
-0.0635869
0.783596
-0.0659858
0.824396
-0.0671846
0.866396
-0.0695834
0.908396
-0.0719822
0.950396
-0.0743809
0.991196
-0.0767796
1.032
-0.0779784
1.0716
-0.080377
1.1136
-0.0815757
1.1532
-0.0839744
1.1928
-0.085173
1.2324
-0.0863716
1.272
-0.0875703
1.3104
-0.0887689
1.35
-0.0887675
1.3872
-0.0899661
1.4256
-0.0911646
1.464
-0.0923632
1.5012
-0.0923618
1.5372
-0.0935603
1.5744
-0.0935588
1.6104
-0.0947574
1.6464
-0.0947559
1.6812
-0.0947545
1.7172
-0.094753
1.7508
-0.0947516
1.7856
-0.0947501
1.8192
-0.0947486
1.8516
-0.0947472
1.8852
-0.0935457
1.9176
-0.0935443
1.9488
-0.0935428
1.9812
-0.0923414
2.0112
-0.09234
2.0424
-0.0911385
2.0724
-0.0905371
2.10144
-0.0896957
2.13048
-0.0887343
2.1588
-0.0877729
2.18676
-0.0868115
2.21412
-0.0856101
2.24088
-0.0844088
2.26716
-0.0832075
2.29296
-0.0818861
2.31804
-0.0805648
2.34264
-0.0790035
2.36664
-0.0774422
2.39004
-0.0760009
2.41296
-0.0744396
2.43528
-0.0727584
2.45688
-0.0710771
2.478
-0.069156
2.4984
-0.0673548
2.51832
-0.0655535
2.53752
-0.0636324
2.55624
-0.0615913
2.57412
-0.0595501
2.59152
-0.057509
2.60832
-0.055468
2.6244
-0.0534269
2.63988
-0.0511459
2.65464
-0.0488649
2.6688
-0.0467039
2.68236
-0.0445429
2.69532
-0.042142
2.70744
-0.0398611
2.71896
-0.0373402
2.72976
-0.0350593
2.74008
-0.0326585
2.74968
-0.0302576
2.75844
-0.0277369
2.76672
-0.0253361
2.77416
-0.0226953
2.781
-0.0202946
2.78724
-0.017774
2.79276
-0.0152532
2.79744
-0.0127327
2.80164
-0.010152
2.805
-0.00758343
2.80778
-0.0050269
2.80985
-0.0024584
2.81121
0.000110088
2.81191
0.00267854
2.81191
0.00524698
2.81121
0.00780338
2.80985
0.0103718
2.80778
0.012952
2.805
0.0154724
2.80164
0.0179926
2.79744
0.0205128
2.79276
0.022913
2.78724
0.0255532
2.781
0.0279533
2.77416
0.0304734
2.76672
0.0328735
2.75844
0.0352736
2.74968
0.0375535
2.74008
0.0400735
2.72976
0.0423535
2.71896
0.0447534
2.70744
0.0469133
2.69532
0.049073
2.68236
0.0513528
2.6688
0.0536326
2.65464
0.0556723
2.63988
0.057712
2.6244
0.0597517
2.60832
0.0617912
2.59152
0.0638308
2.57412
0.0657504
2.55624
0.0675498
2.53752
0.0693493
2.51832
0.0712688
2.4984
0.0729482
2.478
0.0746275
2.45688
0.0761868
2.43528
0.077626
2.41296
0.0791853
2.39004
0.0807445
2.36664
0.0820637
2.34264
0.0833828
2.31804
0.0845819
2.29296
0.085781
2.26716
0.08698
2.24088
0.0879389
2.21412
0.0888979
2.18676
0.0898568
2.1588
0.0906956
2.13048
0.0912945
2.10144
0.0924933
2.0724
0.092492
2.0424
0.0936908
2.0112
0.0936894
1.9812
0.0936881
1.9488
0.0948867
1.9176
0.0948853
1.8852
0.0948838
1.8516
0.0948823
1.8192
0.0948808
1.7856
0.0948793
1.7508
0.0948777
1.71721
0.0948761
1.68121
0.0936744
1.64641
0.0936727
1.61041
0.0924709
1.57441
0.0924692
1.53721
0.0912674
1.50121
0.0900656
1.46401
0.0888637
1.42561
0.0888619
1.38721
0.08766
1.35001
0.0864581
1.31041
0.0852561
1.27201
0.0840542
1.23241
0.0816522
1.19281
0.0804501
1.15321
0.0780481
1.11361
0.076846
1.07161
0.0744439
1.03201
0.0720418
0.991207
0.0696397
0.950407
0.0672375
0.908407
0.0660354
0.866407
0.0636333
0.824407
0.060031
0.783607
0.0576288
0.740407
0.0552266
0.698407
0.0516243
0.656407
0.0492221
0.613207
0.0456198
0.570007
0.0432176
0.526807
0.0396154
0.484807
0.0372131
0.440407
0.0324104
0.398408
0.0288077
0.354008
0.0252057
0.310808
0.021605
0.267606
0.0180055
0.223202
0.0132053
0.18
0.00840348
0.136802
0.0048013
0.0924058
0.0492056
-0.00359972
0.0527983
-0.00839914
0.0971979
-0.0119985
0.140399
-0.0167982
0.184799
-0.0215982
0.227999
-0.0251981
0.271198
-0.0287976
0.314397
-0.0323966
0.357596
-0.0359956
0.401996
-0.0395945
0.443996
-0.0419935
0.487196
-0.0455924
0.530396
-0.0491912
0.573596
-0.0527901
0.616795
-0.0551888
0.658795
-0.0575876
0.700795
-0.0611863
0.743995
-0.062385
0.784795
-0.0659836
0.827995
-0.0683822
0.868795
-0.0707808
0.910795
-0.0719794
0.951595
-0.0743779
0.993594
-0.0755764
1.03319
-0.0791748
1.07519
-0.0791734
1.11359
-0.0815718
1.15559
-0.0827702
1.19399
-0.0839686
1.23359
-0.085167
1.27319
-0.0875653
1.31279
-0.0875637
1.34999
-0.0899619
1.38959
-0.0911602
1.42679
-0.0911586
1.46399
-0.0911569
1.50119
-0.0923552
1.53839
-0.0935534
1.57559
-0.0935517
1.61039
-0.09355
1.64639
-0.0947482
1.68239
-0.0935466
1.71599
-0.0947448
1.75199
-0.094743
1.78559
-0.0935413
1.81799
-0.0947395
1.85279
-0.0947378
1.88519
-0.0935361
1.91639
-0.0935344
1.94879
-0.0935326
1.98119
-0.0935309
2.01119
-0.0923292
2.04119
-0.0911275
2.07119
-0.0905258
2.10083
-0.0895641
2.12951
-0.0887224
2.15795
-0.0877607
2.18579
-0.0866791
2.21303
-0.0855975
2.23979
-0.0843958
2.26595
-0.0831942
2.29175
-0.0818726
2.31671
-0.080431
2.34119
-0.0789895
2.36519
-0.0775479
2.38859
-0.0759864
2.41139
-0.0743049
2.43359
-0.0727434
2.45531
-0.0709419
2.47619
-0.0692604
2.49671
-0.067339
2.51639
-0.0655376
2.53571
-0.0634962
2.55419
-0.0615748
2.57219
-0.0596535
2.5896
-0.0574922
2.60616
-0.0554508
2.62236
-0.0532896
2.63772
-0.0511283
2.65248
-0.0489671
2.66664
-0.0468059
2.6802
-0.0444048
2.69292
-0.0421237
2.70516
-0.0397225
2.71656
-0.0374414
2.72748
-0.0350404
2.73768
-0.0326394
2.74728
-0.0302384
2.75604
-0.0277174
2.7642
-0.0253165
2.77176
-0.0227956
2.77848
-0.0202747
2.78472
-0.0177539
2.79024
-0.0152331
2.79492
-0.0125924
2.799
-0.0101317
2.80254
-0.00757492
2.80523
-0.00500628
2.80728
-0.00243768
2.80865
0.000130906
2.80934
0.00269945
2.80934
0.00526798
2.80865
0.00783647
2.80728
0.0103929
2.80523
0.0128533
2.80254
0.0154936
2.799
0.018014
2.79492
0.0205342
2.79024
0.0230544
2.78472
0.0255746
2.77848
0.0279749
2.77176
0.0304949
2.7642
0.032895
2.75604
0.0352951
2.74728
0.0376951
2.73768
0.039975
2.72748
0.0423749
2.71656
0.0446548
2.70516
0.0470546
2.69292
0.0492145
2.6802
0.0513742
2.66664
0.0535339
2.65248
0.0556936
2.63772
0.0577331
2.62236
0.0598927
2.60616
0.0618122
2.5896
0.0637317
2.5722
0.0657712
2.5542
0.0675706
2.53572
0.0694899
2.5164
0.0711692
2.49672
0.0729684
2.4762
0.0745276
2.45532
0.0762069
2.4336
0.077766
2.4114
0.079205
2.3886
0.0806442
2.3652
0.0820831
2.3412
0.0834021
2.31672
0.0846009
2.29176
0.0857998
2.26596
0.0868786
2.2398
0.0879574
2.21304
0.0889161
2.1858
0.0897548
2.15796
0.0907134
2.12952
0.091312
2.10085
0.0925106
2.07121
0.0937091
2.04121
0.0937075
2.01121
0.0937059
1.98121
0.0937043
1.94881
0.0949027
1.91641
0.094901
1.88521
0.0936992
1.85281
0.0948974
1.81801
0.0948956
1.78561
0.0936936
1.75201
0.0948918
1.71601
0.0936898
1.68241
0.0936879
1.64641
0.0936859
1.61041
0.0924837
1.57561
0.0912816
1.53841
0.0912795
1.50121
0.0912774
1.46401
0.0900752
1.42681
0.0876729
1.38961
0.0876707
1.35001
0.0852683
1.31281
0.084066
1.27321
0.0828636
1.23361
0.0816613
1.19401
0.0792588
1.15561
0.0792565
1.11361
0.0756539
1.07521
0.0744515
1.03321
0.0720489
0.993609
0.0708465
0.951609
0.0684439
0.910809
0.0660413
0.86881
0.0624387
0.82801
0.0612362
0.78481
0.0576335
0.74401
0.0552309
0.70081
0.0528283
0.65881
0.0492255
0.61681
0.0456229
0.57361
0.0420202
0.53041
0.0396175
0.48721
0.0360145
0.44401
0.0324114
0.402011
0.0288085
0.357611
0.025207
0.31441
0.0216069
0.271206
0.0168072
0.228002
0.0120061
0.184801
0.0084036
0.140405
0.00360123
0.0972082
0.0528068
-0.00479967
0.057598
-0.00959911
0.101997
-0.0131984
0.143998
-0.0167978
0.188399
-0.0203977
0.231599
-0.0239977
0.274798
-0.0287973
0.319196
-0.0323964
0.361195
-0.0359953
0.405595
-0.0395941
0.447595
-0.0431928
0.490795
-0.0467916
0.533995
-0.0491903
0.575994
-0.051589
0.619194
-0.0551876
0.662394
-0.0575862
0.703194
-0.0599847
0.746394
-0.0635831
0.788393
-0.0647816
0.829193
-0.06838
0.872393
-0.0695784
0.911993
-0.0731767
0.955193
-0.074375
0.994793
-0.0767733
1.03559
-0.0779715
1.07639
-0.0803697
1.11599
-0.0815679
1.15679
-0.0827661
1.19519
-0.0851642
1.23599
-0.0863623
1.27439
-0.0863605
1.31279
-0.0887585
1.35239
-0.0887566
1.38959
-0.0899547
1.42799
-0.0911527
1.46519
-0.0923507
1.50239
-0.0923487
1.53839
-0.0923468
1.57559
-0.0935447
1.61159
-0.0947427
1.64759
-0.0935407
1.68119
-0.0947387
1.71719
-0.0947367
1.75199
-0.0947346
1.78559
-0.0947326
1.81799
-0.0947306
1.85279
-0.0935286
1.88399
-0.0947265
1.91759
-0.0935245
1.94759
-0.0923225
1.97999
-0.0923205
2.01119
-0.0923184
2.04119
-0.0911165
2.06999
-0.0905145
2.10023
-0.0896725
2.12867
-0.0888305
2.15711
-0.0877486
2.18471
-0.0867867
2.21207
-0.0855847
2.23859
-0.0845028
2.26487
-0.0830609
2.29031
-0.0817391
2.31539
-0.0804172
2.33987
-0.0790954
2.36387
-0.0775335
2.38703
-0.0759718
2.40983
-0.07441
2.43203
-0.0726082
2.45351
-0.0709265
2.47451
-0.0691248
2.49491
-0.0673231
2.51459
-0.0654015
2.53379
-0.0635998
2.55239
-0.0616782
2.57027
-0.0595166
2.58743
-0.0575951
2.60423
-0.0554335
2.62019
-0.0532721
2.63555
-0.0511107
2.65031
-0.0489491
2.66447
-0.0466678
2.67791
-0.0443864
2.69063
-0.0421051
2.70287
-0.0398238
2.71427
-0.0374225
2.72507
-0.0350213
2.73527
-0.0326201
2.74488
-0.0300989
2.75352
-0.0276978
2.7618
-0.0251767
2.76924
-0.0227756
2.77608
-0.0202547
2.7822
-0.0177337
2.78772
-0.0152128
2.7924
-0.0126918
2.79648
-0.010099
2.79994
-0.00754224
2.80267
-0.0049854
2.80472
-0.00241669
2.80608
0.000151988
2.80677
0.00272063
2.80677
0.00528925
2.80608
0.00784573
2.80472
0.0104023
2.80267
0.0129948
2.79995
0.0155151
2.79648
0.0180356
2.7924
0.0205559
2.78772
0.0230762
2.7822
0.0254765
2.77608
0.0279965
2.76924
0.0303968
2.7618
0.0329168
2.75352
0.0353169
2.74488
0.0377169
2.73528
0.0401168
2.72508
0.0423967
2.71428
0.0446765
2.70288
0.0469563
2.69064
0.0492361
2.67792
0.0513957
2.66448
0.0535555
2.65032
0.055715
2.63556
0.0578746
2.6202
0.0597941
2.60424
0.0619535
2.58744
0.0638729
2.57028
0.0656722
2.5524
0.0675915
2.5338
0.0693907
2.5146
0.0711899
2.49492
0.0728691
2.47452
0.0746682
2.45352
0.0762272
2.43204
0.0777861
2.40984
0.0793451
2.38704
0.0806639
2.36388
0.0819827
2.33988
0.0833015
2.31541
0.0847402
2.29033
0.0858188
2.26489
0.0870174
2.23861
0.087976
2.21209
0.0890545
2.18473
0.0898929
2.15713
0.0907314
2.12869
0.0913296
2.10025
0.092528
2.07001
0.0925262
2.04121
0.0925243
2.01121
0.0937225
1.98001
0.0949207
1.94761
0.0937186
1.91761
0.0949167
1.88401
0.0949146
1.85281
0.0949125
1.81801
0.0949103
1.78561
0.0949082
1.75201
0.0937058
1.71721
0.0949037
1.68121
0.0937012
1.64761
0.0924989
1.61161
0.0924965
1.57561
0.092494
1.53841
0.0912916
1.50241
0.090089
1.46521
0.0888864
1.42801
0.0888838
1.38961
0.0864811
1.35241
0.0864785
1.31281
0.0852758
1.27441
0.082873
1.23601
0.0816702
1.19521
0.0804675
1.15681
0.0780646
1.11601
0.0768618
1.07641
0.0744588
1.03561
0.073256
0.994812
0.0696529
0.955212
0.0684501
0.912012
0.064847
0.872413
0.0636441
0.829213
0.060041
0.788413
0.057638
0.746413
0.055235
0.703213
0.0516318
0.662413
0.0492288
0.619213
0.0468257
0.576013
0.0432226
0.534013
0.0396193
0.490813
0.0360158
0.447614
0.0324123
0.405615
0.0288097
0.361214
0.0240087
0.319211
0.020409
0.274805
0.0168088
0.231602
0.0132067
0.188403
0.00960381
0.144008
0.00480147
0.102011
0.0576083
-0.00479966
0.0623977
-0.00839916
0.105597
-0.0131983
0.148797
-0.0167976
0.191998
-0.0215972
0.236399
-0.0251972
0.278398
-0.028797
0.322796
-0.0323962
0.364795
-0.0359951
0.409194
-0.0395937
0.451193
-0.0431923
0.494393