/*--------------------------------*- C++ -*----------------------------------*\
  =========                 |
  \\      /  F ield         | OpenFOAM: The Open Source CFD Toolbox
   \\    /   O peration     | Website:  https://openfoam.org
    \\  /    A nd           | Version:  8
     \\/     M anipulation  |
\*---------------------------------------------------------------------------*/
FoamFile
{
    version     2.0;
    format      ascii;
    class       volScalarField;
    location    "8.7";
    object      p;
}
// * * * * * * * * * * * * * * * * * * * * * * * * * * * * * * * * * * * * * //

dimensions      [0 2 -2 0 0 0 0];

internalField   nonuniform List<scalar> 
262620
(
-1.35606
-1.35627
-1.35695
-1.35797
-1.3593
-1.36095
-1.36288
-1.36509
-1.36755
-1.37025
-1.37317
-1.3763
-1.37962
-1.38312
-1.38678
-1.39059
-1.39454
-1.39861
-1.40279
-1.40708
-1.41146
-1.41592
-1.42045
-1.42505
-1.4297
-1.43439
-1.43913
-1.44389
-1.44868
-1.45349
-1.45831
-1.46313
-1.46796
-1.47278
-1.47759
-1.48239
-1.48718
-1.49194
-1.49668
-1.50138
-1.50606
-1.51071
-1.51532
-1.51989
-1.52441
-1.5289
-1.53334
-1.53774
-1.54209
-1.54639
-1.55064
-1.55484
-1.55899
-1.56308
-1.56712
-1.57111
-1.57504
-1.57892
-1.58275
-1.58652
-1.59023
-1.59389
-1.5975
-1.60105
-1.60454
-1.60798
-1.61136
-1.6147
-1.61797
-1.6212
-1.62437
-1.62749
-1.63055
-1.63357
-1.63653
-1.63944
-1.6423
-1.64512
-1.64788
-1.6506
-1.65326
-1.65588
-1.65846
-1.66099
-1.66347
-1.66591
-1.6683
-1.67065
-1.67296
-1.67523
-1.67745
-1.67964
-1.68178
-1.68389
-1.68595
-1.68798
-1.68997
-1.69193
-1.69385
-1.69573
-1.69757
-1.69939
-1.70117
-1.70291
-1.70462
-1.70631
-1.70795
-1.70957
-1.71116
-1.71272
-1.71425
-1.71575
-1.71722
-1.71867
-1.72009
-1.72148
-1.72284
-1.72418
-1.72549
-1.72678
-1.35593
-1.35614
-1.35681
-1.35783
-1.35916
-1.36081
-1.36274
-1.36495
-1.36741
-1.37011
-1.37303
-1.37616
-1.37948
-1.38298
-1.38664
-1.39045
-1.39439
-1.39847
-1.40265
-1.40694
-1.41132
-1.41578
-1.42032
-1.42491
-1.42956
-1.43426
-1.43899
-1.44376
-1.44855
-1.45336
-1.45818
-1.46301
-1.46784
-1.47266
-1.47748
-1.48228
-1.48707
-1.49183
-1.49657
-1.50128
-1.50596
-1.51061
-1.51522
-1.5198
-1.52433
-1.52882
-1.53326
-1.53766
-1.54201
-1.54632
-1.55057
-1.55477
-1.55892
-1.56302
-1.56706
-1.57105
-1.57499
-1.57887
-1.5827
-1.58647
-1.59019
-1.59385
-1.59746
-1.60101
-1.60451
-1.60795
-1.61134
-1.61468
-1.61796
-1.62118
-1.62436
-1.62748
-1.63055
-1.63356
-1.63653
-1.63944
-1.64231
-1.64513
-1.64789
-1.65061
-1.65328
-1.6559
-1.65848
-1.66101
-1.6635
-1.66594
-1.66834
-1.67069
-1.673
-1.67527
-1.6775
-1.67968
-1.68183
-1.68394
-1.68601
-1.68804
-1.69003
-1.69199
-1.69391
-1.69579
-1.69764
-1.69946
-1.70124
-1.70298
-1.7047
-1.70638
-1.70803
-1.70965
-1.71124
-1.7128
-1.71434
-1.71584
-1.71731
-1.71876
-1.72018
-1.72157
-1.72294
-1.72428
-1.72559
-1.72688
-1.35569
-1.3559
-1.35657
-1.35759
-1.35892
-1.36056
-1.36249
-1.3647
-1.36716
-1.36986
-1.37278
-1.37591
-1.37923
-1.38272
-1.38638
-1.3902
-1.39414
-1.39822
-1.4024
-1.40669
-1.41108
-1.41554
-1.42008
-1.42467
-1.42933
-1.43403
-1.43877
-1.44354
-1.44833
-1.45315
-1.45797
-1.4628
-1.46764
-1.47246
-1.47728
-1.48209
-1.48688
-1.49165
-1.49639
-1.50111
-1.5058
-1.51045
-1.51506
-1.51964
-1.52418
-1.52867
-1.53312
-1.53753
-1.54188
-1.54619
-1.55045
-1.55466
-1.55881
-1.56292
-1.56697
-1.57096
-1.57491
-1.57879
-1.58263
-1.5864
-1.59013
-1.59379
-1.59741
-1.60096
-1.60446
-1.60791
-1.61131
-1.61464
-1.61793
-1.62116
-1.62434
-1.62746
-1.63054
-1.63356
-1.63653
-1.63945
-1.64232
-1.64514
-1.64791
-1.65063
-1.65331
-1.65593
-1.65851
-1.66105
-1.66354
-1.66598
-1.66838
-1.67074
-1.67306
-1.67533
-1.67756
-1.67975
-1.6819
-1.68401
-1.68608
-1.68812
-1.69011
-1.69207
-1.69399
-1.69588
-1.69773
-1.69955
-1.70134
-1.70309
-1.7048
-1.70649
-1.70814
-1.70977
-1.71136
-1.71292
-1.71446
-1.71596
-1.71744
-1.71889
-1.72031
-1.72171
-1.72307
-1.72442
-1.72574
-1.72703
-1.35534
-1.35555
-1.35621
-1.35723
-1.35855
-1.36019
-1.36212
-1.36432
-1.36678
-1.36948
-1.3724
-1.37553
-1.37885
-1.38234
-1.38601
-1.38982
-1.39377
-1.39784
-1.40203
-1.40633
-1.41071
-1.41518
-1.41972
-1.42432
-1.42898
-1.43368
-1.43843
-1.4432
-1.448
-1.45282
-1.45765
-1.46249
-1.46733
-1.47216
-1.47699
-1.4818
-1.4866
-1.49137
-1.49612
-1.50085
-1.50554
-1.5102
-1.51482
-1.51941
-1.52395
-1.52846
-1.53291
-1.53732
-1.54169
-1.54601
-1.55027
-1.55449
-1.55865
-1.56276
-1.56682
-1.57082
-1.57477
-1.57867
-1.58251
-1.58629
-1.59002
-1.5937
-1.59732
-1.60088
-1.60439
-1.60785
-1.61125
-1.61459
-1.61789
-1.62112
-1.62431
-1.62744
-1.63052
-1.63355
-1.63653
-1.63946
-1.64233
-1.64516
-1.64794
-1.65066
-1.65335
-1.65598
-1.65857
-1.66111
-1.6636
-1.66606
-1.66846
-1.67083
-1.67315
-1.67542
-1.67766
-1.67986
-1.68201
-1.68413
-1.68621
-1.68825
-1.69025
-1.69221
-1.69414
-1.69603
-1.69789
-1.69971
-1.7015
-1.70326
-1.70498
-1.70667
-1.70833
-1.70996
-1.71156
-1.71312
-1.71466
-1.71617
-1.71765
-1.7191
-1.72053
-1.72193
-1.7233
-1.72465
-1.72597
-1.72727
-1.35488
-1.35508
-1.35574
-1.35675
-1.35807
-1.3597
-1.36163
-1.36383
-1.36628
-1.36898
-1.3719
-1.37502
-1.37834
-1.38184
-1.3855
-1.38932
-1.39327
-1.39735
-1.40154
-1.40584
-1.41023
-1.4147
-1.41924
-1.42385
-1.42851
-1.43322
-1.43797
-1.44276
-1.44756
-1.45239
-1.45723
-1.46207
-1.46692
-1.47176
-1.4766
-1.48142
-1.48622
-1.49101
-1.49577
-1.5005
-1.5052
-1.50987
-1.51451
-1.5191
-1.52366
-1.52817
-1.53264
-1.53706
-1.54143
-1.54576
-1.55003
-1.55426
-1.55843
-1.56256
-1.56662
-1.57064
-1.5746
-1.5785
-1.58235
-1.58615
-1.58989
-1.59357
-1.5972
-1.60078
-1.6043
-1.60776
-1.61117
-1.61453
-1.61783
-1.62108
-1.62427
-1.62742
-1.6305
-1.63354
-1.63653
-1.63946
-1.64235
-1.64518
-1.64797
-1.65071
-1.6534
-1.65604
-1.65864
-1.66118
-1.66369
-1.66615
-1.66856
-1.67093
-1.67326
-1.67555
-1.67779
-1.68
-1.68216
-1.68428
-1.68637
-1.68841
-1.69042
-1.69239
-1.69433
-1.69623
-1.69809
-1.69992
-1.70171
-1.70348
-1.7052
-1.7069
-1.70857
-1.7102
-1.7118
-1.71338
-1.71492
-1.71643
-1.71792
-1.71938
-1.72081
-1.72221
-1.72359
-1.72494
-1.72627
-1.72757
-1.35432
-1.35451
-1.35515
-1.35615
-1.35747
-1.3591
-1.36102
-1.36321
-1.36567
-1.36836
-1.37128
-1.3744
-1.37772
-1.38122
-1.38489
-1.3887
-1.39266
-1.39674
-1.40093
-1.40523
-1.40963
-1.4141
-1.41865
-1.42327
-1.42794
-1.43266
-1.43741
-1.4422
-1.44702
-1.45185
-1.4567
-1.46156
-1.46641
-1.47127
-1.47611
-1.48094
-1.48576
-1.49056
-1.49533
-1.50007
-1.50479
-1.50947
-1.51411
-1.51872
-1.52329
-1.52781
-1.53229
-1.53673
-1.54111
-1.54545
-1.54974
-1.55398
-1.55817
-1.5623
-1.56638
-1.57041
-1.57438
-1.5783
-1.58216
-1.58597
-1.58972
-1.59342
-1.59706
-1.60065
-1.60418
-1.60766
-1.61108
-1.61445
-1.61776
-1.62102
-1.62423
-1.62738
-1.63048
-1.63353
-1.63653
-1.63948
-1.64237
-1.64522
-1.64801
-1.65076
-1.65346
-1.65612
-1.65872
-1.66128
-1.66379
-1.66626
-1.66869
-1.67107
-1.67341
-1.6757
-1.67796
-1.68017
-1.68234
-1.68447
-1.68657
-1.68862
-1.69064
-1.69262
-1.69456
-1.69647
-1.69834
-1.70018
-1.70198
-1.70375
-1.70549
-1.70719
-1.70886
-1.7105
-1.71211
-1.71369
-1.71525
-1.71677
-1.71826
-1.71972
-1.72116
-1.72257
-1.72396
-1.72532
-1.72665
-1.72795
-1.35364
-1.35382
-1.35446
-1.35545
-1.35676
-1.35838
-1.36029
-1.36248
-1.36493
-1.36762
-1.37054
-1.37366
-1.37698
-1.38048
-1.38415
-1.38797
-1.39192
-1.39601
-1.40021
-1.40452
-1.40891
-1.4134
-1.41795
-1.42258
-1.42726
-1.43198
-1.43675
-1.44155
-1.44637
-1.45122
-1.45608
-1.46094
-1.46581
-1.47068
-1.47554
-1.48038
-1.48521
-1.49002
-1.49481
-1.49956
-1.50429
-1.50899
-1.51365
-1.51827
-1.52285
-1.52739
-1.53188
-1.53633
-1.54074
-1.54509
-1.54939
-1.55365
-1.55785
-1.562
-1.56609
-1.57013
-1.57412
-1.57806
-1.58193
-1.58576
-1.58952
-1.59324
-1.59689
-1.60049
-1.60404
-1.60753
-1.61097
-1.61435
-1.61768
-1.62095
-1.62417
-1.62734
-1.63045
-1.63352
-1.63653
-1.63949
-1.6424
-1.64526
-1.64807
-1.65083
-1.65354
-1.6562
-1.65882
-1.66139
-1.66392
-1.6664
-1.66884
-1.67123
-1.67358
-1.67589
-1.67815
-1.68037
-1.68256
-1.6847
-1.6868
-1.68887
-1.6909
-1.69289
-1.69484
-1.69676
-1.69864
-1.70048
-1.7023
-1.70407
-1.70582
-1.70753
-1.70921
-1.71086
-1.71248
-1.71407
-1.71563
-1.71716
-1.71866
-1.72013
-1.72158
-1.723
-1.72439
-1.72575
-1.72709
-1.7284
-1.35286
-1.35303
-1.35365
-1.35464
-1.35593
-1.35755
-1.35946
-1.36164
-1.36409
-1.36677
-1.36969
-1.37281
-1.37613
-1.37963
-1.3833
-1.38712
-1.39108
-1.39517
-1.39937
-1.40369
-1.40809
-1.41258
-1.41715
-1.42178
-1.42647
-1.4312
-1.43598
-1.44079
-1.44563
-1.45049
-1.45536
-1.46024
-1.46512
-1.47
-1.47487
-1.47973
-1.48458
-1.4894
-1.4942
-1.49898
-1.50372
-1.50843
-1.51311
-1.51775
-1.52234
-1.5269
-1.53141
-1.53588
-1.5403
-1.54467
-1.54899
-1.55326
-1.55748
-1.56165
-1.56576
-1.56982
-1.57382
-1.57777
-1.58167
-1.58551
-1.58929
-1.59302
-1.5967
-1.60032
-1.60388
-1.60739
-1.61084
-1.61424
-1.61758
-1.62087
-1.62411
-1.62729
-1.63042
-1.6335
-1.63653
-1.6395
-1.64243
-1.6453
-1.64813
-1.6509
-1.65363
-1.65631
-1.65894
-1.66153
-1.66407
-1.66656
-1.66901
-1.67142
-1.67378
-1.6761
-1.67837
-1.68061
-1.68281
-1.68496
-1.68708
-1.68915
-1.69119
-1.6932
-1.69516
-1.69709
-1.69898
-1.70084
-1.70266
-1.70445
-1.70621
-1.70793
-1.70962
-1.71128
-1.71291
-1.71451
-1.71608
-1.71761
-1.71912
-1.72061
-1.72206
-1.72349
-1.72489
-1.72626
-1.72761
-1.72893
-1.35197
-1.35213
-1.35274
-1.35371
-1.355
-1.35661
-1.35851
-1.36069
-1.36313
-1.36581
-1.36872
-1.37185
-1.37517
-1.37867
-1.38233
-1.38616
-1.39012
-1.39422
-1.39843
-1.40275
-1.40716
-1.41166
-1.41623
-1.42087
-1.42557
-1.43032
-1.43511
-1.43993
-1.44478
-1.44966
-1.45454
-1.45944
-1.46433
-1.46923
-1.47412
-1.47899
-1.48386
-1.4887
-1.49352
-1.49831
-1.50307
-1.5078
-1.5125
-1.51715
-1.52177
-1.52635
-1.53088
-1.53536
-1.5398
-1.54419
-1.54853
-1.55282
-1.55706
-1.56125
-1.56538
-1.56946
-1.57349
-1.57746
-1.58137
-1.58523
-1.58904
-1.59278
-1.59648
-1.60011
-1.6037
-1.60722
-1.6107
-1.61411
-1.61748
-1.62078
-1.62404
-1.62724
-1.63039
-1.63348
-1.63653
-1.63952
-1.64246
-1.64535
-1.64819
-1.65099
-1.65373
-1.65643
-1.65907
-1.66167
-1.66423
-1.66674
-1.6692
-1.67163
-1.674
-1.67634
-1.67863
-1.68088
-1.68309
-1.68526
-1.68739
-1.68948
-1.69153
-1.69355
-1.69552
-1.69746
-1.69937
-1.70124
-1.70307
-1.70488
-1.70664
-1.70838
-1.71008
-1.71175
-1.71339
-1.715
-1.71658
-1.71813
-1.71965
-1.72114
-1.72261
-1.72404
-1.72545
-1.72684
-1.7282
-1.72952
-1.35099
-1.35113
-1.35173
-1.35269
-1.35397
-1.35556
-1.35745
-1.35963
-1.36206
-1.36474
-1.36765
-1.37077
-1.37409
-1.37759
-1.38126
-1.38509
-1.38906
-1.39316
-1.39737
-1.4017
-1.40612
-1.41063
-1.41521
-1.41986
-1.42457
-1.42934
-1.43414
-1.43898
-1.44384
-1.44873
-1.45363
-1.45854
-1.46346
-1.46837
-1.47328
-1.47817
-1.48305
-1.48791
-1.49275
-1.49756
-1.50235
-1.5071
-1.51181
-1.51649
-1.52113
-1.52573
-1.53028
-1.53479
-1.53925
-1.54366
-1.54803
-1.55234
-1.5566
-1.56081
-1.56496
-1.56906
-1.57311
-1.5771
-1.58104
-1.58492
-1.58875
-1.59252
-1.59623
-1.59989
-1.60349
-1.60704
-1.61053
-1.61397
-1.61735
-1.62068
-1.62396
-1.62718
-1.63035
-1.63346
-1.63653
-1.63954
-1.6425
-1.64541
-1.64827
-1.65108
-1.65384
-1.65656
-1.65922
-1.66184
-1.66441
-1.66694
-1.66942
-1.67186
-1.67425
-1.67661
-1.67891
-1.68118
-1.68341
-1.68559
-1.68774
-1.68984
-1.69191
-1.69394
-1.69593
-1.69788
-1.6998
-1.70169
-1.70354
-1.70535
-1.70713
-1.70888
-1.7106
-1.71228
-1.71393
-1.71555
-1.71714
-1.71871
-1.72024
-1.72174
-1.72322
-1.72467
-1.72609
-1.72748
-1.72885
-1.73018
-1.3499
-1.35002
-1.35061
-1.35156
-1.35282
-1.35441
-1.35629
-1.35846
-1.36089
-1.36356
-1.36647
-1.36958
-1.3729
-1.37641
-1.38008
-1.38391
-1.38788
-1.39199
-1.39621
-1.40054
-1.40498
-1.40949
-1.41409
-1.41875
-1.42348
-1.42825
-1.43307
-1.43792
-1.4428
-1.44771
-1.45263
-1.45756
-1.46249
-1.46742
-1.47235
-1.47727
-1.48217
-1.48705
-1.49191
-1.49674
-1.50155
-1.50632
-1.51106
-1.51576
-1.52043
-1.52505
-1.52962
-1.53416
-1.53864
-1.54308
-1.54746
-1.5518
-1.55609
-1.56032
-1.5645
-1.56862
-1.57269
-1.57671
-1.58067
-1.58458
-1.58843
-1.59222
-1.59596
-1.59964
-1.60327
-1.60684
-1.61036
-1.61382
-1.61722
-1.62057
-1.62387
-1.62711
-1.6303
-1.63344
-1.63653
-1.63956
-1.64254
-1.64547
-1.64835
-1.65118
-1.65397
-1.6567
-1.65939
-1.66202
-1.66462
-1.66716
-1.66966
-1.67212
-1.67453
-1.6769
-1.67923
-1.68151
-1.68375
-1.68596
-1.68812
-1.69024
-1.69232
-1.69437
-1.69638
-1.69835
-1.70028
-1.70218
-1.70405
-1.70587
-1.70767
-1.70943
-1.71116
-1.71286
-1.71453
-1.71616
-1.71777
-1.71934
-1.72089
-1.7224
-1.72389
-1.72535
-1.72678
-1.72819
-1.72957
-1.73092
-1.34872
-1.34882
-1.3494
-1.35032
-1.35158
-1.35315
-1.35503
-1.35718
-1.3596
-1.36227
-1.36518
-1.36829
-1.37161
-1.37511
-1.37879
-1.38262
-1.3866
-1.39071
-1.39494
-1.39929
-1.40373
-1.40826
-1.41286
-1.41754
-1.42228
-1.42707
-1.4319
-1.43677
-1.44167
-1.44659
-1.45153
-1.45648
-1.46144
-1.46639
-1.47134
-1.47628
-1.4812
-1.48611
-1.49099
-1.49585
-1.50068
-1.50548
-1.51024
-1.51497
-1.51966
-1.5243
-1.52891
-1.53346
-1.53798
-1.54244
-1.54685
-1.55122
-1.55553
-1.55979
-1.56399
-1.56814
-1.57224
-1.57628
-1.58027
-1.5842
-1.58808
-1.5919
-1.59566
-1.59937
-1.60302
-1.60662
-1.61016
-1.61365
-1.61708
-1.62045
-1.62377
-1.62704
-1.63026
-1.63342
-1.63653
-1.63958
-1.64259
-1.64554
-1.64844
-1.6513
-1.6541
-1.65686
-1.65957
-1.66223
-1.66484
-1.66741
-1.66993
-1.6724
-1.67484
-1.67722
-1.67957
-1.68187
-1.68413
-1.68635
-1.68854
-1.69068
-1.69278
-1.69484
-1.69687
-1.69885
-1.70081
-1.70272
-1.7046
-1.70645
-1.70826
-1.71004
-1.71178
-1.71349
-1.71518
-1.71683
-1.71844
-1.72003
-1.72159
-1.72312
-1.72463
-1.7261
-1.72755
-1.72897
-1.73036
-1.73171
-1.34744
-1.34752
-1.34808
-1.34899
-1.35023
-1.35179
-1.35366
-1.3558
-1.35822
-1.36088
-1.36378
-1.3669
-1.37021
-1.37372
-1.37739
-1.38123
-1.38522
-1.38933
-1.39357
-1.39793
-1.40238
-1.40692
-1.41154
-1.41623
-1.42098
-1.42579
-1.43064
-1.43553
-1.44045
-1.44539
-1.45035
-1.45532
-1.4603
-1.46527
-1.47025
-1.47521
-1.48016
-1.48509
-1.49
-1.49488
-1.49974
-1.50456
-1.50935
-1.51411
-1.51882
-1.5235
-1.52813
-1.53272
-1.53726
-1.54175
-1.54619
-1.55058
-1.55492
-1.55921
-1.56344
-1.56762
-1.57175
-1.57582
-1.57984
-1.5838
-1.5877
-1.59155
-1.59534
-1.59908
-1.60276
-1.60638
-1.60995
-1.61346
-1.61692
-1.62032
-1.62367
-1.62697
-1.63021
-1.63339
-1.63653
-1.63961
-1.64264
-1.64562
-1.64854
-1.65142
-1.65425
-1.65703
-1.65976
-1.66244
-1.66508
-1.66767
-1.67021
-1.67271
-1.67516
-1.67757
-1.67994
-1.68226
-1.68455
-1.68679
-1.68899
-1.69115
-1.69327
-1.69535
-1.6974
-1.6994
-1.70137
-1.70331
-1.7052
-1.70707
-1.7089
-1.71069
-1.71245
-1.71418
-1.71588
-1.71754
-1.71918
-1.72078
-1.72236
-1.7239
-1.72542
-1.72691
-1.72837
-1.72981
-1.73121
-1.73258
-1.34607
-1.34613
-1.34667
-1.34756
-1.34879
-1.35033
-1.35219
-1.35433
-1.35673
-1.35939
-1.36228
-1.3654
-1.36871
-1.37222
-1.3759
-1.37974
-1.38373
-1.38785
-1.3921
-1.39646
-1.40093
-1.40548
-1.41012
-1.41482
-1.41959
-1.42441
-1.42928
-1.43419
-1.43913
-1.4441
-1.44908
-1.45407
-1.45907
-1.46407
-1.46907
-1.47406
-1.47903
-1.48399
-1.48893
-1.49384
-1.49873
-1.50358
-1.5084
-1.51318
-1.51793
-1.52263
-1.52729
-1.53191
-1.53648
-1.541
-1.54548
-1.5499
-1.55427
-1.55859
-1.56285
-1.56707
-1.57122
-1.57532
-1.57937
-1.58336
-1.5873
-1.59117
-1.595
-1.59876
-1.60247
-1.60613
-1.60972
-1.61326
-1.61675
-1.62018
-1.62356
-1.62688
-1.63015
-1.63336
-1.63653
-1.63963
-1.64269
-1.6457
-1.64865
-1.65155
-1.65441
-1.65721
-1.65997
-1.66268
-1.66534
-1.66795
-1.67052
-1.67304
-1.67552
-1.67795
-1.68034
-1.68269
-1.68499
-1.68725
-1.68947
-1.69166
-1.6938
-1.6959
-1.69796
-1.69999
-1.70198
-1.70393
-1.70585
-1.70773
-1.70958
-1.71139
-1.71317
-1.71492
-1.71664
-1.71832
-1.71997
-1.72159
-1.72318
-1.72475
-1.72628
-1.72778
-1.72926
-1.73071
-1.73213
-1.73351
-1.34461
-1.34464
-1.34516
-1.34604
-1.34724
-1.34878
-1.35062
-1.35275
-1.35514
-1.3578
-1.36068
-1.36379
-1.36711
-1.37062
-1.3743
-1.37814
-1.38214
-1.38627
-1.39053
-1.3949
-1.39938
-1.40395
-1.4086
-1.41332
-1.4181
-1.42295
-1.42784
-1.43276
-1.43773
-1.44271
-1.44772
-1.45274
-1.45776
-1.46279
-1.46781
-1.47283
-1.47783
-1.48282
-1.48779
-1.49273
-1.49764
-1.50253
-1.50738
-1.5122
-1.51697
-1.52171
-1.5264
-1.53105
-1.53565
-1.54021
-1.54471
-1.54917
-1.55357
-1.55793
-1.56222
-1.56647
-1.57066
-1.57479
-1.57887
-1.58289
-1.58686
-1.59077
-1.59463
-1.59842
-1.60217
-1.60585
-1.60948
-1.61305
-1.61657
-1.62003
-1.62344
-1.62679
-1.63009
-1.63333
-1.63653
-1.63966
-1.64275
-1.64578
-1.64876
-1.6517
-1.65458
-1.65741
-1.66019
-1.66293
-1.66561
-1.66825
-1.67085
-1.67339
-1.67589
-1.67835
-1.68077
-1.68314
-1.68546
-1.68775
-1.68999
-1.6922
-1.69436
-1.69649
-1.69857
-1.70062
-1.70263
-1.70461
-1.70655
-1.70845
-1.71031
-1.71215
-1.71395
-1.71571
-1.71745
-1.71915
-1.72082
-1.72246
-1.72407
-1.72565
-1.7272
-1.72872
-1.73021
-1.73168
-1.73311
-1.7345
-1.34305
-1.34306
-1.34356
-1.34442
-1.34561
-1.34712
-1.34895
-1.35107
-1.35346
-1.3561
-1.35899
-1.36209
-1.36541
-1.36891
-1.3726
-1.37645
-1.38045
-1.38459
-1.38886
-1.39324
-1.39773
-1.40231
-1.40698
-1.41172
-1.41652
-1.42139
-1.4263
-1.43125
-1.43623
-1.44124
-1.44627
-1.45132
-1.45637
-1.46143
-1.46648
-1.47152
-1.47656
-1.48158
-1.48657
-1.49155
-1.49649
-1.50141
-1.5063
-1.51114
-1.51596
-1.52073
-1.52545
-1.53014
-1.53477
-1.53936
-1.5439
-1.54839
-1.55283
-1.55722
-1.56155
-1.56583
-1.57006
-1.57423
-1.57834
-1.5824
-1.5864
-1.59034
-1.59423
-1.59807
-1.60184
-1.60556
-1.60922
-1.61283
-1.61638
-1.61987
-1.62331
-1.6267
-1.63003
-1.6333
-1.63652
-1.63969
-1.64281
-1.64587
-1.64889
-1.65185
-1.65476
-1.65762
-1.66043
-1.66319
-1.66591
-1.66857
-1.67119
-1.67377
-1.6763
-1.67878
-1.68122
-1.68362
-1.68597
-1.68828
-1.69055
-1.69278
-1.69497
-1.69711
-1.69922
-1.70129
-1.70333
-1.70532
-1.70728
-1.70921
-1.7111
-1.71295
-1.71477
-1.71656
-1.71831
-1.72003
-1.72172
-1.72338
-1.72501
-1.7266
-1.72817
-1.72971
-1.73122
-1.7327
-1.73415
-1.73556
-1.34141
-1.34139
-1.34186
-1.3427
-1.34387
-1.34537
-1.34719
-1.34929
-1.35167
-1.35431
-1.35719
-1.36029
-1.36361
-1.36711
-1.3708
-1.37466
-1.37867
-1.38282
-1.38709
-1.39149
-1.39599
-1.40059
-1.40527
-1.41003
-1.41485
-1.41973
-1.42467
-1.42964
-1.43465
-1.43969
-1.44474
-1.44982
-1.4549
-1.45998
-1.46506
-1.47014
-1.47521
-1.48026
-1.48529
-1.49029
-1.49528
-1.50023
-1.50515
-1.51003
-1.51488
-1.51968
-1.52445
-1.52917
-1.53384
-1.53847
-1.54305
-1.54757
-1.55205
-1.55647
-1.56084
-1.56516
-1.56942
-1.57363
-1.57778
-1.58187
-1.58591
-1.58989
-1.59382
-1.59768
-1.6015
-1.60525
-1.60895
-1.61259
-1.61618
-1.6197
-1.62318
-1.6266
-1.62996
-1.63327
-1.63652
-1.63973
-1.64287
-1.64597
-1.64901
-1.65201
-1.65495
-1.65784
-1.66068
-1.66347
-1.66622
-1.66891
-1.67156
-1.67417
-1.67672
-1.67923
-1.6817
-1.68412
-1.6865
-1.68884
-1.69114
-1.69339
-1.6956
-1.69778
-1.69991
-1.70201
-1.70406
-1.70608
-1.70807
-1.71001
-1.71192
-1.7138
-1.71564
-1.71745
-1.71922
-1.72097
-1.72268
-1.72435
-1.726
-1.72762
-1.72921
-1.73076
-1.73229
-1.7338
-1.73526
-1.73669
-1.33967
-1.33963
-1.34008
-1.3409
-1.34205
-1.34353
-1.34533
-1.34742
-1.34979
-1.35242
-1.3553
-1.3584
-1.36171
-1.36522
-1.36891
-1.37277
-1.37678
-1.38094
-1.38523
-1.38964
-1.39416
-1.39877
-1.40347
-1.40824
-1.41309
-1.41799
-1.42295
-1.42795
-1.43298
-1.43804
-1.44313
-1.44823
-1.45334
-1.45846
-1.46357
-1.46868
-1.47378
-1.47886
-1.48393
-1.48897
-1.49399
-1.49898
-1.50393
-1.50886
-1.51374
-1.51858
-1.52339
-1.52814
-1.53286
-1.53752
-1.54214
-1.54671
-1.55122
-1.55568
-1.56009
-1.56445
-1.56875
-1.57299
-1.57718
-1.58132
-1.58539
-1.58941
-1.59338
-1.59728
-1.60113
-1.60492
-1.60866
-1.61234
-1.61596
-1.61953
-1.62304
-1.62649
-1.62989
-1.63323
-1.63652
-1.63976
-1.64294
-1.64607
-1.64915
-1.65218
-1.65515
-1.65807
-1.66095
-1.66377
-1.66655
-1.66927
-1.67195
-1.67459
-1.67717
-1.67971
-1.68221
-1.68466
-1.68707
-1.68944
-1.69176
-1.69404
-1.69628
-1.69848
-1.70064
-1.70276
-1.70484
-1.70689
-1.70889
-1.71086
-1.7128
-1.7147
-1.71656
-1.71839
-1.72019
-1.72195
-1.72369
-1.72539
-1.72705
-1.72869
-1.7303
-1.73188
-1.73343
-1.73495
-1.73643
-1.73787
-1.33786
-1.33779
-1.33821
-1.339
-1.34013
-1.3416
-1.34338
-1.34546
-1.34782
-1.35044
-1.35331
-1.3564
-1.35972
-1.36323
-1.36692
-1.37079
-1.37481
-1.37898
-1.38328
-1.3877
-1.39223
-1.39686
-1.40157
-1.40637
-1.41124
-1.41616
-1.42114
-1.42617
-1.43123
-1.43632
-1.44143
-1.44657
-1.45171
-1.45686
-1.462
-1.46715
-1.47228
-1.4774
-1.4825
-1.48758
-1.49264
-1.49766
-1.50266
-1.50762
-1.51254
-1.51743
-1.52227
-1.52707
-1.53182
-1.53653
-1.54119
-1.54579
-1.55035
-1.55485
-1.5593
-1.5637
-1.56804
-1.57233
-1.57656
-1.58073
-1.58485
-1.58891
-1.59291
-1.59686
-1.60075
-1.60458
-1.60836
-1.61207
-1.61573
-1.61934
-1.62289
-1.62638
-1.62982
-1.6332
-1.63652
-1.6398
-1.64301
-1.64618
-1.64929
-1.65235
-1.65536
-1.65832
-1.66123
-1.66409
-1.66689
-1.66965
-1.67237
-1.67503
-1.67765
-1.68022
-1.68275
-1.68523
-1.68767
-1.69006
-1.69241
-1.69472
-1.69699
-1.69922
-1.7014
-1.70355
-1.70566
-1.70773
-1.70976
-1.71176
-1.71372
-1.71564
-1.71753
-1.71939
-1.72121
-1.72299
-1.72475
-1.72647
-1.72816
-1.72982
-1.73145
-1.73305
-1.73462
-1.73616
-1.73767
-1.73912
-1.33595
-1.33585
-1.33625
-1.33702
-1.33812
-1.33957
-1.34134
-1.3434
-1.34575
-1.34837
-1.35123
-1.35432
-1.35763
-1.36114
-1.36484
-1.36871
-1.37274
-1.37691
-1.38123
-1.38566
-1.39021
-1.39485
-1.39959
-1.40441
-1.40929
-1.41425
-1.41925
-1.4243
-1.42939
-1.43451
-1.43966
-1.44482
-1.45
-1.45518
-1.46036
-1.46554
-1.47071
-1.47587
-1.48101
-1.48613
-1.49122
-1.49629
-1.50132
-1.50632
-1.51129
-1.51621
-1.5211
-1.52594
-1.53074
-1.53548
-1.54018
-1.54484
-1.54943
-1.55398
-1.55848
-1.56292
-1.5673
-1.57163
-1.5759
-1.58012
-1.58428
-1.58838
-1.59243
-1.59642
-1.60035
-1.60422
-1.60804
-1.6118
-1.6155
-1.61914
-1.62273
-1.62626
-1.62974
-1.63316
-1.63652
-1.63983
-1.64309
-1.64629
-1.64944
-1.65254
-1.65559
-1.65858
-1.66152
-1.66441
-1.66726
-1.67005
-1.6728
-1.67549
-1.67815
-1.68075
-1.68331
-1.68582
-1.68829
-1.69072
-1.6931
-1.69544
-1.69773
-1.69999
-1.70221
-1.70438
-1.70652
-1.70862
-1.71068
-1.7127
-1.71469
-1.71664
-1.71855
-1.72043
-1.72228
-1.72409
-1.72587
-1.72761
-1.72933
-1.73101
-1.73266
-1.73428
-1.73587
-1.73744
-1.73896
-1.74044
-1.33397
-1.33383
-1.3342
-1.33494
-1.33603
-1.33746
-1.33921
-1.34126
-1.34359
-1.3462
-1.34905
-1.35214
-1.35545
-1.35896
-1.36266
-1.36654
-1.37057
-1.37476
-1.37908
-1.38353
-1.38809
-1.39276
-1.39751
-1.40235
-1.40727
-1.41224
-1.41727
-1.42235
-1.42747
-1.43262
-1.4378
-1.443
-1.44821
-1.45342
-1.45864
-1.46386
-1.46907
-1.47426
-1.47944
-1.4846
-1.48974
-1.49485
-1.49992
-1.50497
-1.50998
-1.51495
-1.51987
-1.52476
-1.5296
-1.53439
-1.53914
-1.54383
-1.54848
-1.55307
-1.55761
-1.56209
-1.56652
-1.5709
-1.57522
-1.57948
-1.58368
-1.58783
-1.59192
-1.59595
-1.59993
-1.60384
-1.6077
-1.6115
-1.61525
-1.61893
-1.62256
-1.62614
-1.62966
-1.63312
-1.63652
-1.63987
-1.64317
-1.64641
-1.6496
-1.65274
-1.65582
-1.65885
-1.66183
-1.66476
-1.66764
-1.67047
-1.67325
-1.67598
-1.67867
-1.68131
-1.6839
-1.68644
-1.68895
-1.6914
-1.69382
-1.69619
-1.69852
-1.7008
-1.70305
-1.70525
-1.70742
-1.70955
-1.71164
-1.71369
-1.7157
-1.71768
-1.71962
-1.72152
-1.72339
-1.72523
-1.72704
-1.72881
-1.73054
-1.73225
-1.73393
-1.73557
-1.73718
-1.73877
-1.74032
-1.74181
-1.3319
-1.33173
-1.33207
-1.33279
-1.33385
-1.33525
-1.33699
-1.33902
-1.34135
-1.34394
-1.34679
-1.34987
-1.35318
-1.35669
-1.36039
-1.36428
-1.36832
-1.37252
-1.37685
-1.38132
-1.38589
-1.39058
-1.39535
-1.40021
-1.40515
-1.41015
-1.41521
-1.42032
-1.42547
-1.43065
-1.43586
-1.44109
-1.44634
-1.45159
-1.45685
-1.4621
-1.46735
-1.47259
-1.47781
-1.48301
-1.48819
-1.49334
-1.49846
-1.50355
-1.50861
-1.51362
-1.51859
-1.52353
-1.52841
-1.53325
-1.53804
-1.54279
-1.54748
-1.55212
-1.5567
-1.56124
-1.56571
-1.57013
-1.5745
-1.57881
-1.58306
-1.58725
-1.59139
-1.59547
-1.59949
-1.60345
-1.60735
-1.6112
-1.61499
-1.61872
-1.62239
-1.62601
-1.62957
-1.63307
-1.63652
-1.63991
-1.64325
-1.64653
-1.64976
-1.65294
-1.65606
-1.65913
-1.66215
-1.66512
-1.66804
-1.6709
-1.67372
-1.67649
-1.67921
-1.68188
-1.68451
-1.68709
-1.68963
-1.69212
-1.69457
-1.69697
-1.69933
-1.70165
-1.70393
-1.70616
-1.70836
-1.71052
-1.71264
-1.71472
-1.71676
-1.71876
-1.72073
-1.72267
-1.72456
-1.72643
-1.72826
-1.73005
-1.73182
-1.73355
-1.73525
-1.73692
-1.73856
-1.74016
-1.74174
-1.74325
-1.32975
-1.32955
-1.32986
-1.33054
-1.33158
-1.33297
-1.33468
-1.3367
-1.33901
-1.34159
-1.34443
-1.34751
-1.35082
-1.35433
-1.35804
-1.36192
-1.36598
-1.37018
-1.37453
-1.37901
-1.38361
-1.38831
-1.3931
-1.39799
-1.40295
-1.40798
-1.41306
-1.4182
-1.42338
-1.4286
-1.43384
-1.43911
-1.44439
-1.44969
-1.45498
-1.46028
-1.46557
-1.47085
-1.47611
-1.48136
-1.48658
-1.49178
-1.49694
-1.50208
-1.50718
-1.51224
-1.51726
-1.52224
-1.52718
-1.53207
-1.53691
-1.5417
-1.54644
-1.55113
-1.55576
-1.56034
-1.56487
-1.56934
-1.57375
-1.57811
-1.58241
-1.58665
-1.59083
-1.59496
-1.59903
-1.60304
-1.60699
-1.61088
-1.61472
-1.61849
-1.62221
-1.62587
-1.62948
-1.63303
-1.63652
-1.63996
-1.64334
-1.64666
-1.64993
-1.65315
-1.65632
-1.65943
-1.66249
-1.66549
-1.66845
-1.67136
-1.67421
-1.67702
-1.67978
-1.68249
-1.68515
-1.68777
-1.69034
-1.69287
-1.69535
-1.69779
-1.70018
-1.70253
-1.70484
-1.70711
-1.70934
-1.71153
-1.71368
-1.71579
-1.71786
-1.7199
-1.72189
-1.72386
-1.72578
-1.72767
-1.72953
-1.73135
-1.73314
-1.7349
-1.73663
-1.73832
-1.73998
-1.74162
-1.74321
-1.74475
-1.32752
-1.32728
-1.32756
-1.32822
-1.32923
-1.33059
-1.33229
-1.33429
-1.33659
-1.33916
-1.34199
-1.34507
-1.34837
-1.35188
-1.35559
-1.35948
-1.36354
-1.36776
-1.37212
-1.37662
-1.38123
-1.38595
-1.39077
-1.39568
-1.40066
-1.40572
-1.41084
-1.416
-1.42122
-1.42647
-1.43175
-1.43705
-1.44237
-1.44771
-1.45304
-1.45838
-1.46371
-1.46904
-1.47434
-1.47964
-1.4849
-1.49015
-1.49536
-1.50055
-1.50569
-1.51081
-1.51588
-1.52091
-1.52589
-1.53083
-1.53572
-1.54056
-1.54535
-1.55009
-1.55478
-1.55941
-1.56399
-1.56851
-1.57297
-1.57738
-1.58173
-1.58602
-1.59026
-1.59443
-1.59855
-1.60261
-1.60661
-1.61055
-1.61443
-1.61826
-1.62202
-1.62573
-1.62939
-1.63298
-1.63652
-1.64
-1.64342
-1.64679
-1.65011
-1.65337
-1.65658
-1.65973
-1.66283
-1.66588
-1.66888
-1.67183
-1.67472
-1.67757
-1.68037
-1.68312
-1.68582
-1.68847
-1.69108
-1.69365
-1.69616
-1.69864
-1.70107
-1.70345
-1.7058
-1.7081
-1.71036
-1.71258
-1.71476
-1.7169
-1.71901
-1.72107
-1.7231
-1.72509
-1.72705
-1.72897
-1.73086
-1.73271
-1.73452
-1.73631
-1.73806
-1.73978
-1.74147
-1.74313
-1.74475
-1.7463
-1.32521
-1.32494
-1.32518
-1.32581
-1.3268
-1.32814
-1.32981
-1.33179
-1.33408
-1.33664
-1.33946
-1.34253
-1.34583
-1.34934
-1.35306
-1.35696
-1.36103
-1.36525
-1.36963
-1.37414
-1.37877
-1.38351
-1.38835
-1.39328
-1.3983
-1.40338
-1.40853
-1.41373
-1.41897
-1.42426
-1.42958
-1.43492
-1.44028
-1.44565
-1.45103
-1.45641
-1.46179
-1.46716
-1.47251
-1.47785
-1.48317
-1.48846
-1.49372
-1.49896
-1.50415
-1.50932
-1.51444
-1.51952
-1.52456
-1.52955
-1.53449
-1.53939
-1.54423
-1.54902
-1.55376
-1.55845
-1.56308
-1.56765
-1.57217
-1.57663
-1.58103
-1.58537
-1.58966
-1.59389
-1.59805
-1.60216
-1.60621
-1.61021
-1.61414
-1.61801
-1.62183
-1.62559
-1.62929
-1.63293
-1.63652
-1.64004
-1.64352
-1.64693
-1.65029
-1.6536
-1.65685
-1.66005
-1.66319
-1.66629
-1.66933
-1.67232
-1.67525
-1.67814
-1.68098
-1.68377
-1.68651
-1.6892
-1.69185
-1.69445
-1.69701
-1.69952
-1.70198
-1.70441
-1.70679
-1.70912
-1.71142
-1.71367
-1.71589
-1.71806
-1.7202
-1.7223
-1.72436
-1.72638
-1.72837
-1.73032
-1.73223
-1.73411
-1.73596
-1.73777
-1.73955
-1.7413
-1.74302
-1.7447
-1.74635
-1.74792
-1.32283
-1.32252
-1.32273
-1.32333
-1.32428
-1.3256
-1.32725
-1.32922
-1.33148
-1.33403
-1.33685
-1.33991
-1.34321
-1.34672
-1.35044
-1.35434
-1.35842
-1.36266
-1.36705
-1.37157
-1.37622
-1.38098
-1.38585
-1.3908
-1.39584
-1.40096
-1.40614
-1.41137
-1.41665
-1.42197
-1.42733
-1.43271
-1.43811
-1.44352
-1.44895
-1.45437
-1.4598
-1.46521
-1.47061
-1.476
-1.48137
-1.48671
-1.49202
-1.49731
-1.50256
-1.50777
-1.51295
-1.51808
-1.52317
-1.52822
-1.53322
-1.53817
-1.54306
-1.54791
-1.5527
-1.55744
-1.56213
-1.56676
-1.57133
-1.57584
-1.5803
-1.5847
-1.58904
-1.59332
-1.59754
-1.6017
-1.6058
-1.60985
-1.61383
-1.61776
-1.62163
-1.62543
-1.62919
-1.63288
-1.63651
-1.64009
-1.64361
-1.64707
-1.65048
-1.65384
-1.65713
-1.66038
-1.66357
-1.66671
-1.66979
-1.67282
-1.6758
-1.67873
-1.68161
-1.68445
-1.68723
-1.68996
-1.69265
-1.69529
-1.69788
-1.70043
-1.70294
-1.7054
-1.70781
-1.71019
-1.71252
-1.71481
-1.71706
-1.71927
-1.72144
-1.72357
-1.72566
-1.72772
-1.72973
-1.73171
-1.73366
-1.73557
-1.73745
-1.73929
-1.7411
-1.74288
-1.74462
-1.74634
-1.748
-1.7496
-1.32037
-1.32002
-1.32019
-1.32076
-1.32169
-1.32297
-1.3246
-1.32655
-1.32881
-1.33134
-1.33415
-1.33721
-1.3405
-1.34401
-1.34773
-1.35164
-1.35573
-1.35998
-1.36438
-1.36892
-1.37359
-1.37837
-1.38326
-1.38824
-1.39331
-1.39846
-1.40366
-1.40893
-1.41425
-1.41961
-1.425
-1.43042
-1.43587
-1.44133
-1.44679
-1.45226
-1.45773
-1.4632
-1.46865
-1.47409
-1.4795
-1.4849
-1.49027
-1.4956
-1.50091
-1.50618
-1.51141
-1.5166
-1.52174
-1.52684
-1.5319
-1.5369
-1.54186
-1.54676
-1.55161
-1.55641
-1.56115
-1.56583
-1.57046
-1.57503
-1.57954
-1.584
-1.58839
-1.59273
-1.597
-1.60122
-1.60538
-1.60948
-1.61352
-1.6175
-1.62142
-1.62528
-1.62908
-1.63282
-1.63651
-1.64014
-1.64371
-1.64722
-1.65068
-1.65408
-1.65743
-1.66072
-1.66396
-1.66714
-1.67027
-1.67335
-1.67637
-1.67935
-1.68227
-1.68515
-1.68797
-1.69075
-1.69348
-1.69616
-1.69879
-1.70138
-1.70392
-1.70642
-1.70888
-1.71129
-1.71366
-1.71598
-1.71827
-1.72051
-1.72272
-1.72488
-1.72701
-1.7291
-1.73115
-1.73316
-1.73514
-1.73708
-1.73899
-1.74086
-1.7427
-1.74451
-1.74628
-1.74802
-1.74972
-1.75134
-1.31784
-1.31744
-1.31758
-1.31811
-1.31901
-1.32027
-1.32188
-1.32381
-1.32605
-1.32857
-1.33137
-1.33442
-1.33771
-1.34122
-1.34494
-1.34886
-1.35295
-1.35721
-1.36163
-1.36619
-1.37088
-1.37568
-1.38059
-1.3856
-1.3907
-1.39587
-1.40111
-1.40642
-1.41177
-1.41717
-1.4226
-1.42807
-1.43355
-1.43906
-1.44457
-1.45009
-1.45561
-1.46112
-1.46662
-1.47211
-1.47758
-1.48303
-1.48845
-1.49384
-1.4992
-1.50453
-1.50981
-1.51506
-1.52026
-1.52542
-1.53053
-1.5356
-1.54061