/*--------------------------------*- C++ -*----------------------------------*\
  =========                 |
  \\      /  F ield         | OpenFOAM: The Open Source CFD Toolbox
   \\    /   O peration     | Website:  https://openfoam.org
    \\  /    A nd           | Version:  8
     \\/     M anipulation  |
\*---------------------------------------------------------------------------*/
FoamFile
{
    version     2.0;
    format      ascii;
    class       volScalarField;
    location    "7";
    object      nut;
}
// * * * * * * * * * * * * * * * * * * * * * * * * * * * * * * * * * * * * * //

dimensions      [0 2 -1 0 0 0 0];

internalField   nonuniform List<scalar> 
248760
(
0.139974
0.139922
0.139869
0.139817
0.139764
0.139711
0.139658
0.139605
0.139552
0.139499
0.139446
0.139393
0.13934
0.139287
0.139235
0.139182
0.13913
0.139078
0.139026
0.138975
0.138924
0.138873
0.138822
0.138771
0.138721
0.138672
0.138622
0.138573
0.138524
0.138476
0.138428
0.13838
0.138333
0.138287
0.13824
0.138194
0.138149
0.138104
0.13806
0.138016
0.137972
0.137929
0.137886
0.137844
0.137802
0.137761
0.137721
0.13768
0.137641
0.137602
0.137563
0.137525
0.137487
0.13745
0.137413
0.137377
0.137341
0.137306
0.137271
0.137237
0.137203
0.13717
0.137137
0.137104
0.137072
0.137041
0.13701
0.13698
0.136949
0.13692
0.136891
0.136862
0.136834
0.136806
0.136779
0.136752
0.136725
0.136699
0.136673
0.136648
0.136623
0.136598
0.136574
0.136551
0.136527
0.136504
0.136482
0.13646
0.136438
0.136416
0.136395
0.136374
0.136354
0.136334
0.136314
0.136295
0.136275
0.136257
0.136238
0.13622
0.136202
0.136185
0.136167
0.13615
0.136134
0.136117
0.136101
0.136086
0.13607
0.136055
0.136041
0.136026
0.136012
0.135999
0.135986
0.135973
0.135961
0.13595
0.13594
0.13593
0.139974
0.139922
0.139869
0.139816
0.139763
0.13971
0.139657
0.139604
0.139551
0.139498
0.139445
0.139392
0.139339
0.139286
0.139234
0.139181
0.139129
0.139077
0.139025
0.138974
0.138922
0.138871
0.13882
0.13877
0.13872
0.13867
0.13862
0.138571
0.138522
0.138474
0.138426
0.138378
0.138331
0.138284
0.138238
0.138192
0.138146
0.138101
0.138057
0.138012
0.137969
0.137926
0.137883
0.137841
0.137799
0.137758
0.137717
0.137677
0.137637
0.137597
0.137559
0.13752
0.137483
0.137445
0.137408
0.137372
0.137336
0.137301
0.137266
0.137232
0.137198
0.137164
0.137131
0.137099
0.137067
0.137035
0.137004
0.136974
0.136944
0.136914
0.136885
0.136856
0.136828
0.1368
0.136772
0.136745
0.136719
0.136692
0.136667
0.136641
0.136616
0.136592
0.136568
0.136544
0.13652
0.136497
0.136475
0.136452
0.13643
0.136409
0.136388
0.136367
0.136346
0.136326
0.136306
0.136287
0.136268
0.136249
0.13623
0.136212
0.136194
0.136177
0.136159
0.136142
0.136126
0.136109
0.136093
0.136077
0.136062
0.136047
0.136032
0.136018
0.136004
0.13599
0.135977
0.135964
0.135953
0.135941
0.135931
0.135922
0.139974
0.139921
0.139869
0.139816
0.139763
0.13971
0.139656
0.139603
0.13955
0.139497
0.139444
0.13939
0.139337
0.139285
0.139232
0.139179
0.139127
0.139075
0.139023
0.138971
0.138919
0.138868
0.138817
0.138767
0.138716
0.138666
0.138617
0.138567
0.138518
0.13847
0.138421
0.138374
0.138326
0.138279
0.138233
0.138187
0.138141
0.138096
0.138051
0.138007
0.137963
0.137919
0.137876
0.137834
0.137792
0.137751
0.13771
0.137669
0.137629
0.13759
0.137551
0.137512
0.137474
0.137437
0.1374
0.137363
0.137327
0.137292
0.137257
0.137222
0.137188
0.137155
0.137122
0.137089
0.137057
0.137025
0.136994
0.136963
0.136933
0.136903
0.136874
0.136845
0.136816
0.136788
0.136761
0.136733
0.136707
0.13668
0.136654
0.136629
0.136604
0.136579
0.136555
0.136531
0.136507
0.136484
0.136461
0.136439
0.136417
0.136395
0.136374
0.136353
0.136332
0.136312
0.136292
0.136273
0.136253
0.136234
0.136216
0.136197
0.136179
0.136162
0.136144
0.136127
0.13611
0.136094
0.136078
0.136062
0.136046
0.136031
0.136016
0.136002
0.135988
0.135974
0.135961
0.135948
0.135936
0.135925
0.135915
0.135905
0.139974
0.139921
0.139868
0.139815
0.139762
0.139708
0.139655
0.139602
0.139548
0.139495
0.139442
0.139388
0.139335
0.139282
0.139229
0.139177
0.139124
0.139072
0.139019
0.138967
0.138916
0.138864
0.138813
0.138762
0.138712
0.138661
0.138611
0.138562
0.138513
0.138464
0.138415
0.138367
0.13832
0.138273
0.138226
0.138179
0.138133
0.138088
0.138043
0.137998
0.137954
0.137911
0.137867
0.137825
0.137783
0.137741
0.1377
0.137659
0.137619
0.137579
0.13754
0.137501
0.137463
0.137425
0.137388
0.137351
0.137315
0.137279
0.137244
0.137209
0.137175
0.137141
0.137108
0.137075
0.137042
0.137011
0.136979
0.136948
0.136918
0.136888
0.136858
0.136829
0.1368
0.136772
0.136744
0.136717
0.13669
0.136663
0.136637
0.136611
0.136586
0.136561
0.136537
0.136513
0.136489
0.136466
0.136443
0.13642
0.136398
0.136376
0.136354
0.136333
0.136313
0.136292
0.136272
0.136252
0.136233
0.136214
0.136195
0.136176
0.136158
0.13614
0.136123
0.136106
0.136089
0.136072
0.136056
0.13604
0.136024
0.136009
0.135994
0.135979
0.135965
0.135951
0.135938
0.135926
0.135913
0.135902
0.135892
0.135882
0.139974
0.139921
0.139867
0.139814
0.139761
0.139707
0.139654
0.1396
0.139547
0.139493
0.139439
0.139386
0.139333
0.139279
0.139226
0.139173
0.13912
0.139068
0.139015
0.138963
0.138911
0.138859
0.138808
0.138757
0.138706
0.138655
0.138605
0.138555
0.138506
0.138457
0.138408
0.13836
0.138312
0.138264
0.138217
0.13817
0.138124
0.138078
0.138033
0.137988
0.137944
0.1379
0.137856
0.137813
0.137771
0.137729
0.137687
0.137646
0.137606
0.137566
0.137526
0.137487
0.137449
0.137411
0.137373
0.137336
0.137299
0.137263
0.137228
0.137193
0.137158
0.137124
0.13709
0.137057
0.137025
0.136992
0.136961
0.136929
0.136899
0.136868
0.136838
0.136809
0.13678
0.136751
0.136723
0.136696
0.136669
0.136642
0.136615
0.136589
0.136564
0.136539
0.136514
0.13649
0.136466
0.136442
0.136419
0.136396
0.136374
0.136352
0.13633
0.136309
0.136288
0.136267
0.136247
0.136227
0.136207
0.136188
0.136169
0.13615
0.136132
0.136114
0.136096
0.136079
0.136062
0.136045
0.136029
0.136012
0.135997
0.135981
0.135966
0.135951
0.135937
0.135923
0.13591
0.135897
0.135885
0.135873
0.135863
0.135853
0.139973
0.13992
0.139867
0.139813
0.13976
0.139706
0.139652
0.139598
0.139544
0.139491
0.139437
0.139383
0.139329
0.139276
0.139222
0.139169
0.139116
0.139063
0.13901
0.138958
0.138906
0.138854
0.138802
0.13875
0.138699
0.138648
0.138598
0.138548
0.138498
0.138448
0.138399
0.138351
0.138302
0.138254
0.138207
0.13816
0.138113
0.138067
0.138021
0.137976
0.137931
0.137887
0.137843
0.1378
0.137757
0.137715
0.137673
0.137631
0.13759
0.13755
0.13751
0.137471
0.137432
0.137393
0.137355
0.137318
0.137281
0.137245
0.137209
0.137173
0.137138
0.137104
0.13707
0.137036
0.137003
0.136971
0.136939
0.136907
0.136876
0.136845
0.136815
0.136786
0.136756
0.136727
0.136699
0.136671
0.136644
0.136616
0.13659
0.136564
0.136538
0.136512
0.136487
0.136463
0.136438
0.136415
0.136391
0.136368
0.136345
0.136323
0.136301
0.13628
0.136258
0.136237
0.136217
0.136197
0.136177
0.136157
0.136138
0.136119
0.136101
0.136083
0.136065
0.136047
0.13603
0.136013
0.135996
0.13598
0.135964
0.135948
0.135933
0.135918
0.135903
0.135889
0.135876
0.135863
0.13585
0.135839
0.135828
0.135818
0.139973
0.13992
0.139866
0.139812
0.139758
0.139704
0.13965
0.139596
0.139542
0.139488
0.139434
0.13938
0.139326
0.139272
0.139218
0.139165
0.139111
0.139058
0.139005
0.138952
0.1389
0.138847
0.138795
0.138743
0.138692
0.13864
0.13859
0.138539
0.138489
0.138439
0.138389
0.13834
0.138292
0.138243
0.138195
0.138148
0.138101
0.138054
0.138008
0.137963
0.137917
0.137873
0.137828
0.137785
0.137741
0.137698
0.137656
0.137614
0.137573
0.137532
0.137492
0.137452
0.137413
0.137374
0.137336
0.137298
0.13726
0.137224
0.137187
0.137151
0.137116
0.137081
0.137047
0.137013
0.13698
0.136947
0.136914
0.136882
0.136851
0.13682
0.136789
0.136759
0.136729
0.1367
0.136671
0.136643
0.136615
0.136588
0.136561
0.136534
0.136508
0.136482
0.136457
0.136432
0.136408
0.136383
0.13636
0.136336
0.136313
0.136291
0.136268
0.136247
0.136225
0.136204
0.136183
0.136163
0.136142
0.136123
0.136103
0.136084
0.136065
0.136047
0.136029
0.136011
0.135993
0.135976
0.135959
0.135943
0.135926
0.135911
0.135895
0.13588
0.135865
0.135851
0.135837
0.135824
0.135812
0.1358
0.135789
0.135779
0.139973
0.139919
0.139865
0.139811
0.139757
0.139703
0.139648
0.139594
0.13954
0.139485
0.139431
0.139376
0.139322
0.139268
0.139214
0.13916
0.139106
0.139053
0.138999
0.138946
0.138893
0.13884
0.138788
0.138735
0.138683
0.138632
0.13858
0.138529
0.138479
0.138429
0.138379
0.138329
0.13828
0.138231
0.138183
0.138135
0.138087
0.13804
0.137994
0.137948
0.137902
0.137857
0.137812
0.137768
0.137724
0.137681
0.137638
0.137596
0.137554
0.137513
0.137472
0.137432
0.137392
0.137352
0.137314
0.137275
0.137238
0.1372
0.137163
0.137127
0.137091
0.137056
0.137021
0.136987
0.136953
0.13692
0.136887
0.136855
0.136823
0.136791
0.13676
0.13673
0.1367
0.13667
0.136641
0.136612
0.136584
0.136556
0.136529
0.136502
0.136475
0.136449
0.136424
0.136398
0.136373
0.136349
0.136325
0.136301
0.136278
0.136255
0.136232
0.13621
0.136188
0.136167
0.136146
0.136125
0.136104
0.136084
0.136065
0.136045
0.136026
0.136007
0.135989
0.135971
0.135953
0.135936
0.135918
0.135902
0.135885
0.135869
0.135853
0.135838
0.135823
0.135809
0.135795
0.135781
0.135769
0.135757
0.135746
0.135736
0.139973
0.139919
0.139865
0.13981
0.139756
0.139701
0.139646
0.139592
0.139537
0.139482
0.139428
0.139373
0.139318
0.139264
0.139209
0.139155
0.139101
0.139047
0.138993
0.138939
0.138886
0.138833
0.13878
0.138727
0.138675
0.138623
0.138571
0.138519
0.138468
0.138417
0.138367
0.138317
0.138267
0.138218
0.138169
0.138121
0.138073
0.138025
0.137978
0.137932
0.137886
0.13784
0.137795
0.13775
0.137706
0.137662
0.137618
0.137576
0.137533
0.137492
0.13745
0.137409
0.137369
0.137329
0.13729
0.137251
0.137213
0.137175
0.137138
0.137101
0.137065
0.137029
0.136994
0.136959
0.136925
0.136891
0.136858
0.136825
0.136792
0.13676
0.136729
0.136698
0.136668
0.136638
0.136608
0.136579
0.13655
0.136522
0.136494
0.136467
0.13644
0.136413
0.136387
0.136362
0.136336
0.136311
0.136287
0.136263
0.136239
0.136216
0.136193
0.13617
0.136148
0.136126
0.136105
0.136084
0.136063
0.136043
0.136023
0.136003
0.135984
0.135965
0.135946
0.135927
0.135909
0.135892
0.135874
0.135857
0.13584
0.135824
0.135808
0.135792
0.135777
0.135762
0.135748
0.135735
0.135722
0.13571
0.135699
0.135688
0.139973
0.139918
0.139864
0.139809
0.139754
0.139699
0.139644
0.139589
0.139534
0.139479
0.139424
0.139369
0.139314
0.139259
0.139204
0.13915
0.139095
0.139041
0.138986
0.138932
0.138878
0.138825
0.138771
0.138718
0.138665
0.138613
0.13856
0.138509
0.138457
0.138406
0.138355
0.138304
0.138254
0.138204
0.138155
0.138106
0.138058
0.138009
0.137962
0.137915
0.137868
0.137822
0.137776
0.137731
0.137686
0.137641
0.137598
0.137554
0.137511
0.137469
0.137427
0.137386
0.137345
0.137305
0.137265
0.137225
0.137187
0.137148
0.137111
0.137073
0.137036
0.137
0.136964
0.136929
0.136894
0.13686
0.136826
0.136793
0.13676
0.136728
0.136696
0.136664
0.136633
0.136603
0.136573
0.136543
0.136514
0.136485
0.136457
0.136429
0.136402
0.136375
0.136348
0.136322
0.136297
0.136271
0.136246
0.136222
0.136198
0.136174
0.136151
0.136128
0.136105
0.136083
0.136061
0.13604
0.136019
0.135998
0.135978
0.135958
0.135938
0.135919
0.1359
0.135881
0.135862
0.135844
0.135827
0.135809
0.135792
0.135776
0.135759
0.135743
0.135728
0.135713
0.135699
0.135685
0.135672
0.135659
0.135648
0.135638
0.139973
0.139918
0.139863
0.139808
0.139753
0.139698
0.139642
0.139587
0.139531
0.139476
0.139421
0.139365
0.13931
0.139254
0.139199
0.139144
0.139089
0.139034
0.138979
0.138925
0.138871
0.138816
0.138763
0.138709
0.138656
0.138602
0.13855
0.138497
0.138445
0.138393
0.138342
0.138291
0.13824
0.13819
0.13814
0.13809
0.138041
0.137993
0.137945
0.137897
0.137849
0.137803
0.137756
0.13771
0.137665
0.13762
0.137576
0.137532
0.137488
0.137445
0.137403
0.137361
0.13732
0.137279
0.137238
0.137198
0.137159
0.13712
0.137082
0.137044
0.137007
0.13697
0.136933
0.136897
0.136862
0.136827
0.136793
0.136759
0.136726
0.136693
0.13666
0.136628
0.136597
0.136566
0.136535
0.136505
0.136476
0.136447
0.136418
0.13639
0.136362
0.136334
0.136307
0.136281
0.136255
0.136229
0.136204
0.136179
0.136154
0.13613
0.136106
0.136083
0.13606
0.136038
0.136015
0.135994
0.135972
0.135951
0.13593
0.13591
0.13589
0.13587
0.135851
0.135832
0.135813
0.135794
0.135776
0.135759
0.135741
0.135724
0.135708
0.135692
0.135676
0.135661
0.135646
0.135632
0.135619
0.135606
0.135595
0.135584
0.139973
0.139917
0.139862
0.139807
0.139751
0.139696
0.13964
0.139584
0.139529
0.139473
0.139417
0.139361
0.139305
0.139249
0.139194
0.139138
0.139083
0.139027
0.138972
0.138917
0.138862
0.138808
0.138753
0.138699
0.138645
0.138592
0.138539
0.138486
0.138433
0.13838
0.138328
0.138277
0.138226
0.138175
0.138124
0.138074
0.138024
0.137975
0.137926
0.137878
0.13783
0.137783
0.137736
0.137689
0.137643
0.137598
0.137553
0.137508
0.137464
0.137421
0.137378
0.137335
0.137293
0.137252
0.137211
0.13717
0.13713
0.137091
0.137052
0.137013
0.136975
0.136938
0.136901
0.136864
0.136829
0.136793
0.136758
0.136724
0.13669
0.136656
0.136623
0.136591
0.136559
0.136527
0.136496
0.136466
0.136436
0.136406
0.136377
0.136348
0.13632
0.136292
0.136264
0.136237
0.136211
0.136185
0.136159
0.136133
0.136108
0.136084
0.13606
0.136036
0.136013
0.13599
0.135967
0.135945
0.135923
0.135901
0.13588
0.135859
0.135839
0.135819
0.135799
0.13578
0.135761
0.135742
0.135724
0.135706
0.135688
0.135671
0.135654
0.135637
0.135621
0.135606
0.135591
0.135576
0.135563
0.13555
0.135538
0.135528
0.139972
0.139917
0.139861
0.139806
0.13975
0.139694
0.139638
0.139582
0.139526
0.139469
0.139413
0.139357
0.139301
0.139244
0.139188
0.139132
0.139076
0.139021
0.138965
0.138909
0.138854
0.138799
0.138744
0.138689
0.138635
0.138581
0.138527
0.138473
0.13842
0.138367
0.138315
0.138262
0.138211
0.138159
0.138108
0.138057
0.138007
0.137957
0.137908
0.137859
0.13781
0.137762
0.137715
0.137668
0.137621
0.137575
0.137529
0.137484
0.137439
0.137395
0.137351
0.137308
0.137265
0.137223
0.137182
0.137141
0.1371
0.13706
0.13702
0.136981
0.136943
0.136905
0.136867
0.13683
0.136794
0.136758
0.136722
0.136687
0.136652
0.136618
0.136585
0.136552
0.136519
0.136487
0.136456
0.136425
0.136394
0.136364
0.136334
0.136305
0.136276
0.136247
0.136219
0.136192
0.136165
0.136138
0.136112
0.136086
0.136061
0.136036
0.136011
0.135987
0.135963
0.13594
0.135917
0.135894
0.135872
0.13585
0.135828
0.135807
0.135786
0.135766
0.135745
0.135726
0.135706
0.135687
0.135668
0.13565
0.135632
0.135614
0.135597
0.13558
0.135564
0.135548
0.135533
0.135518
0.135504
0.135491
0.135479
0.135468
0.139972
0.139917
0.139861
0.139805
0.139748
0.139692
0.139636
0.139579
0.139523
0.139466
0.139409
0.139353
0.139296
0.139239
0.139183
0.139126
0.13907
0.139014
0.138957
0.138901
0.138846
0.13879
0.138734
0.138679
0.138624
0.13857
0.138515
0.138461
0.138407
0.138354
0.1383
0.138248
0.138195
0.138143
0.138091
0.13804
0.137989
0.137939
0.137889
0.137839
0.13779
0.137741
0.137693
0.137645
0.137598
0.137551
0.137505
0.137459
0.137413
0.137369
0.137324
0.13728
0.137237
0.137194
0.137152
0.13711
0.137069
0.137028
0.136988
0.136948
0.136909
0.13687
0.136832
0.136794
0.136757
0.136721
0.136685
0.136649
0.136614
0.136579
0.136545
0.136511
0.136478
0.136446
0.136414
0.136382
0.136351
0.13632
0.13629
0.13626
0.13623
0.136201
0.136173
0.136145
0.136117
0.13609
0.136063
0.136037
0.136011
0.135986
0.135961
0.135936
0.135912
0.135888
0.135864
0.135841
0.135818
0.135796
0.135774
0.135752
0.135731
0.13571
0.13569
0.13567
0.13565
0.13563
0.135611
0.135592
0.135574
0.135556
0.135538
0.135521
0.135505
0.135488
0.135473
0.135458
0.135444
0.13543
0.135418
0.135407
0.139972
0.139916
0.13986
0.139803
0.139747
0.13969
0.139633
0.139577
0.13952
0.139463
0.139405
0.139348
0.139291
0.139234
0.139177
0.13912
0.139063
0.139006
0.13895
0.138893
0.138837
0.138781
0.138725
0.138669
0.138613
0.138558
0.138503
0.138448
0.138394
0.13834
0.138286
0.138232
0.138179
0.138127
0.138074
0.138022
0.137971
0.13792
0.137869
0.137819
0.137769
0.137719
0.13767
0.137622
0.137574
0.137526
0.137479
0.137433
0.137387
0.137341
0.137296
0.137252
0.137208
0.137164
0.137121
0.137079
0.137037
0.136995
0.136955
0.136914
0.136874
0.136835
0.136796
0.136758
0.13672
0.136683
0.136646
0.13661
0.136574
0.136539
0.136504
0.13647
0.136436
0.136403
0.13637
0.136338
0.136306
0.136275
0.136244
0.136213
0.136183
0.136154
0.136125
0.136096
0.136068
0.13604
0.136013
0.135986
0.13596
0.135934
0.135908
0.135883
0.135859
0.135834
0.13581
0.135787
0.135763
0.135741
0.135718
0.135696
0.135674
0.135653
0.135632
0.135611
0.135591
0.135571
0.135552
0.135533
0.135514
0.135496
0.135478
0.13546
0.135443
0.135427
0.135411
0.135395
0.135381
0.135367
0.135355
0.135344
0.139972
0.139916
0.139859
0.139802
0.139745
0.139688
0.139631
0.139574
0.139517
0.139459
0.139402
0.139344
0.139286
0.139229
0.139171
0.139114
0.139057
0.138999
0.138942
0.138885
0.138828
0.138771
0.138715
0.138658
0.138602
0.138546
0.138491
0.138435
0.13838
0.138325
0.138271
0.138217
0.138163
0.13811
0.138057
0.138004
0.137952
0.1379
0.137849
0.137798
0.137747
0.137697
0.137647
0.137598
0.13755
0.137501
0.137454
0.137406
0.13736
0.137313
0.137268
0.137222
0.137178
0.137134
0.13709
0.137047
0.137004
0.136962
0.13692
0.136879
0.136839
0.136799
0.136759
0.13672
0.136682
0.136644
0.136606
0.13657
0.136533
0.136497
0.136462
0.136427
0.136393
0.136359
0.136325
0.136292
0.13626
0.136228
0.136197
0.136166
0.136135
0.136105
0.136075
0.136046
0.136018
0.135989
0.135962
0.135934
0.135907
0.135881
0.135855
0.135829
0.135804
0.135779
0.135754
0.13573
0.135707
0.135683
0.135661
0.135638
0.135616
0.135594
0.135573
0.135552
0.135531
0.135511
0.135491
0.135471
0.135452
0.135433
0.135415
0.135397
0.13538
0.135363
0.135347
0.135331
0.135316
0.135302
0.13529
0.135278
0.139972
0.139915
0.139858
0.139801
0.139744
0.139686
0.139629
0.139571
0.139513
0.139456
0.139398
0.13934
0.139282
0.139224
0.139166
0.139108
0.13905
0.138992
0.138934
0.138877
0.138819
0.138762
0.138705
0.138648
0.138591
0.138534
0.138478
0.138422
0.138366
0.138311
0.138256
0.138201
0.138147
0.138093
0.138039
0.137986
0.137933
0.13788
0.137828
0.137776
0.137725
0.137674
0.137624
0.137574
0.137525
0.137476
0.137427
0.137379
0.137332
0.137285
0.137238
0.137192
0.137147
0.137102
0.137058
0.137014
0.13697
0.136928
0.136885
0.136844
0.136802
0.136762
0.136721
0.136682
0.136643
0.136604
0.136566
0.136528
0.136491
0.136455
0.136419
0.136383
0.136348
0.136314
0.13628
0.136246
0.136213
0.13618
0.136148
0.136117
0.136086
0.136055
0.136025
0.135995
0.135966
0.135937
0.135909
0.135881
0.135853
0.135826
0.1358
0.135773
0.135748
0.135722
0.135697
0.135673
0.135648
0.135625
0.135601
0.135578
0.135556
0.135533
0.135512
0.13549
0.135469
0.135448
0.135428
0.135408
0.135388
0.135369
0.13535
0.135332
0.135314
0.135297
0.135281
0.135265
0.13525
0.135236
0.135222
0.135211
0.139972
0.139915
0.139857
0.1398
0.139742
0.139685
0.139627
0.139569
0.13951
0.139452
0.139394
0.139335
0.139277
0.139218
0.13916
0.139101
0.139043
0.138984
0.138926
0.138868
0.13881
0.138752
0.138694
0.138637
0.138579
0.138522
0.138465
0.138409
0.138352
0.138296
0.138241
0.138185
0.13813
0.138075
0.138021
0.137967
0.137913
0.13786
0.137807
0.137755
0.137703
0.137651
0.1376
0.137549
0.137499
0.13745
0.1374
0.137352
0.137304
0.137256
0.137209
0.137162
0.137116
0.13707
0.137025
0.13698
0.136936
0.136893
0.13685
0.136807
0.136765
0.136724
0.136683
0.136642
0.136603
0.136563
0.136524
0.136486
0.136448
0.136411
0.136374
0.136338
0.136303
0.136267
0.136233
0.136198
0.136165
0.136132
0.136099
0.136067
0.136035
0.136004
0.135973
0.135943
0.135913
0.135883
0.135854
0.135826
0.135798
0.13577
0.135743
0.135716
0.13569
0.135664
0.135639
0.135613
0.135589
0.135565
0.135541
0.135517
0.135494
0.135471
0.135449
0.135427
0.135405
0.135384
0.135363
0.135343
0.135323
0.135304
0.135284
0.135266
0.135248
0.13523
0.135213
0.135197
0.135181
0.135167
0.135154
0.135141
0.139972
0.139914
0.139857
0.139799
0.139741
0.139683
0.139624
0.139566
0.139507
0.139449
0.13939
0.139331
0.139272
0.139213
0.139154
0.139095
0.139036
0.138977
0.138918
0.138859
0.138801
0.138742
0.138684
0.138626
0.138568
0.13851
0.138453
0.138395
0.138338
0.138282
0.138225
0.138169
0.138113
0.138058
0.138003
0.137948
0.137893
0.137839
0.137786
0.137733
0.13768
0.137628
0.137576
0.137525
0.137474
0.137423
0.137373
0.137324
0.137275
0.137226
0.137178
0.137131
0.137084
0.137038
0.136992
0.136946
0.136901
0.136857
0.136813
0.13677
0.136727
0.136685
0.136643
0.136602
0.136562
0.136522
0.136482
0.136443
0.136405
0.136367
0.136329
0.136292
0.136256
0.13622
0.136185
0.13615
0.136116
0.136082
0.136048
0.136016
0.135983
0.135951
0.13592
0.135889
0.135858
0.135828
0.135799
0.13577
0.135741
0.135713
0.135685
0.135658
0.135631
0.135605
0.135579
0.135553
0.135528
0.135503
0.135479
0.135455
0.135431
0.135408
0.135385
0.135362
0.13534
0.135319
0.135298
0.135277
0.135256
0.135236
0.135217
0.135198
0.135179
0.135161
0.135144
0.135127
0.135111
0.135097
0.135083
0.135071
0.139971
0.139914
0.139856
0.139798
0.139739
0.139681
0.139622
0.139563
0.139504
0.139445
0.139386
0.139326
0.139267
0.139207
0.139148
0.139088
0.139029
0.13897
0.13891
0.138851
0.138792
0.138733
0.138674
0.138615
0.138556
0.138498
0.13844
0.138382
0.138324
0.138267
0.138209
0.138153
0.138096
0.13804
0.137984
0.137929
0.137873
0.137819
0.137764
0.13771
0.137657
0.137604
0.137551
0.137499
0.137448
0.137396
0.137346
0.137295
0.137246
0.137196
0.137148
0.137099
0.137052
0.137004
0.136958
0.136912
0.136866
0.136821
0.136776
0.136732
0.136689
0.136646
0.136603
0.136562
0.13652
0.136479
0.136439
0.136399
0.13636
0.136322
0.136283
0.136246
0.136209
0.136172
0.136136
0.1361
0.136065
0.136031
0.135997
0.135963
0.13593
0.135898
0.135866
0.135834
0.135803
0.135772
0.135742
0.135713
0.135683
0.135655
0.135626
0.135598
0.135571
0.135544
0.135517
0.135491
0.135465
0.13544
0.135415
0.135391
0.135366
0.135343
0.135319
0.135297
0.135274
0.135252
0.13523
0.135209
0.135188
0.135167
0.135148
0.135128
0.135109
0.135091
0.135073
0.135056
0.13504
0.135025
0.135011
0.134998
0.139971
0.139913
0.139855
0.139797
0.139738
0.139679
0.13962
0.139561
0.139501
0.139441
0.139382
0.139322
0.139262
0.139202
0.139142
0.139082
0.139022
0.138962
0.138902
0.138842
0.138782
0.138723
0.138663
0.138604
0.138544
0.138485
0.138427
0.138368
0.13831
0.138251
0.138194
0.138136
0.138079
0.138022
0.137965
0.137909
0.137853
0.137798
0.137743
0.137688
0.137634
0.13758
0.137526
0.137474
0.137421
0.137369
0.137318
0.137266
0.137216
0.137166
0.137116
0.137067
0.137019
0.136971
0.136923
0.136876
0.13683
0.136784
0.136739
0.136694
0.13665
0.136606
0.136563
0.13652
0.136478
0.136436
0.136395
0.136355
0.136315
0.136275
0.136237
0.136198
0.13616
0.136123
0.136086
0.13605
0.136014
0.135979
0.135944
0.13591
0.135877
0.135843
0.135811
0.135778
0.135747
0.135715
0.135685
0.135654
0.135624
0.135595
0.135566
0.135538
0.13551
0.135482
0.135455
0.135428
0.135402
0.135376
0.13535
0.135325
0.135301
0.135276
0.135253
0.135229
0.135206
0.135184
0.135161
0.13514
0.135118
0.135097
0.135077
0.135057
0.135038
0.135019
0.135001
0.134983
0.134967
0.134951
0.134937
0.134924
0.139971
0.139913
0.139854
0.139795
0.139736
0.139677
0.139618
0.139558
0.139498
0.139438
0.139378
0.139317
0.139257
0.139197
0.139136
0.139075
0.139015
0.138954
0.138894
0.138833
0.138773
0.138713
0.138653
0.138592
0.138533
0.138473
0.138413
0.138354
0.138295
0.138236
0.138178
0.138119
0.138061
0.138004
0.137946
0.137889
0.137833
0.137776
0.137721
0.137665
0.13761
0.137555
0.137501
0.137448
0.137394
0.137341
0.137289
0.137237
0.137186
0.137135
0.137085
0.137035
0.136985
0.136937
0.136888
0.136841
0.136793
0.136747
0.136701
0.136655
0.13661
0.136565
0.136521
0.136478
0.136435
0.136393
0.136351
0.13631
0.136269
0.136229
0.136189
0.13615
0.136111
0.136073
0.136036
0.135999
0.135962
0.135927
0.135891
0.135856
0.135822
0.135788
0.135754
0.135722
0.135689
0.135657
0.135626
0.135595
0.135564
0.135534
0.135505
0.135476
0.135447
0.135419
0.135391
0.135364
0.135337
0.13531
0.135284
0.135259
0.135234
0.135209
0.135185
0.135161
0.135137
0.135114
0.135091
0.135069
0.135047
0.135026
0.135005
0.134984
0.134965
0.134945
0.134927
0.134909
0.134892
0.134876
0.134862
0.134848
0.139971
0.139912
0.139853
0.139794
0.139735
0.139675
0.139615
0.139555
0.139495
0.139434
0.139374
0.139313
0.139252
0.139191
0.13913
0.139069
0.139008
0.138947
0.138886
0.138825
0.138764
0.138703
0.138642
0.138581
0.138521
0.13846
0.1384
0.13834
0.13828
0.138221
0.138161
0.138102
0.138044
0.137985
0.137927
0.137869
0.137812
0.137755
0.137698
0.137642
0.137586
0.137531
0.137476
0.137421
0.137367
0.137314
0.13726
0.137208
0.137156
0.137104
0.137053
0.137002
0.136952
0.136902
0.136853
0.136804
0.136756
0.136709
0.136662
0.136615
0.13657
0.136524
0.136479
0.136435
0.136391
0.136348
0.136306
0.136264
0.136222
0.136181
0.136141
0.136101
0.136062
0.136023
0.135985
0.135947
0.13591
0.135873
0.135837
0.135801
0.135766
0.135732
0.135697
0.135664
0.135631
0.135598
0.135566
0.135534
0.135503
0.135473
0.135442
0.135413
0.135383
0.135355
0.135326
0.135298
0.135271
0.135244
0.135217
0.135191
0.135165
0.13514
0.135115
0.135091
0.135067
0.135043
0.13502
0.134997
0.134975
0.134953
0.134931
0.13491
0.13489
0.134871
0.134852
0.134833
0.134816
0.1348
0.134785
0.134771
0.139971
0.139912
0.139853
0.139793
0.139733
0.139673
0.139613
0.139552
0.139492
0.139431
0.13937
0.139308
0.139247
0.139186
0.139124
0.139062
0.139001
0.138939
0.138877
0.138816
0.138754
0.138693
0.138631
0.13857
0.138509
0.138448
0.138387
0.138326
0.138265
0.138205
0.138145
0.138085
0.138026
0.137967
0.137908
0.137849
0.137791
0.137733
0.137676
0.137619
0.137562
0.137506
0.13745
0.137395
0.13734
0.137285
0.137231
0.137178
0.137125
0.137072
0.13702
0.136969
0.136918
0.136867
0.136817
0.136768
0.136719
0.136671
0.136623
0.136575
0.136529
0.136483
0.136437
0.136392
0.136347
0.136303
0.13626
0.136217
0.136175
0.136133
0.136092
0.136051
0.136011
0.135972
0.135932
0.135894
0.135856
0.135819
0.135782
0.135745
0.13571
0.135674
0.135639
0.135605
0.135571
0.135538
0.135505
0.135473
0.135441
0.13541
0.135379
0.135349
0.135319
0.135289
0.13526
0.135232
0.135204
0.135176
0.135149
0.135122
0.135096
0.13507
0.135044
0.135019
0.134995
0.134971
0.134947
0.134924
0.134901
0.134878
0.134857
0.134835
0.134814
0.134794
0.134775
0.134756
0.134739
0.134722
0.134707
0.134693
0.139971
0.139911
0.139852
0.139792
0.139732
0.139671
0.139611
0.13955
0.139489
0.139427
0.139366
0.139304
0.139242
0.13918
0.139118
0.139056
0.138994
0.138931
0.138869
0.138807
0.138745
0.138682
0.13862
0.138558
0.138497
0.138435
0.138373
0.138312
0.138251
0.13819
0.138129
0.138068
0.138008
0.137948
0.137889
0.137829
0.13777
0.137712
0.137653
0.137595
0.137538
0.137481
0.137424
0.137368
0.137312
0.137257
0.137202
0.137148
0.137094
0.13704
0.136987
0.136935
0.136883
0.136832
0.136781
0.136731
0.136681
0.136632
0.136583
0.136535
0.136487
0.13644
0.136394
0.136348
0.136303
0.136258
0.136214
0.13617
0.136127
0.136084
0.136042
0.136001
0.13596
0.135919
0.13588
0.13584
0.135802
0.135764
0.135726
0.135689
0.135652
0.135616
0.135581
0.135546
0.135511
0.135477
0.135444
0.135411
0.135378
0.135346
0.135315
0.135284
0.135253
0.135223
0.135193
0.135164
0.135135
0.135107
0.135079
0.135052
0.135025
0.134999
0.134973
0.134947
0.134922
0.134897
0.134873
0.134849
0.134826
0.134803
0.13478
0.134759
0.134737
0.134717
0.134697
0.134678
0.13466
0.134643
0.134627
0.134613
0.13997
0.139911
0.139851
0.139791
0.13973
0.13967
0.139608
0.139547
0.139485
0.139424
0.139362
0.139299
0.139237
0.139175
0.139112
0.139049
0.138986
0.138924
0.138861
0.138798
0.138735
0.138672
0.13861
0.138547
0.138484
0.138422
0.13836
0.138298
0.138236
0.138174
0.138112
0.138051
0.13799
0.137929
0.137869
0.137809
0.137749
0.13769
0.137631
0.137572
0.137513
0.137456
0.137398
0.137341
0.137284
0.137228
0.137172
0.137117
0.137062
0.137008
0.136954
0.136901
0.136848
0.136796
0.136744
0.136693
0.136643
0.136593
0.136543
0.136494
0.136446
0.136398
0.13635
0.136304
0.136257
0.136212
0.136167
0.136122
0.136078
0.136035
0.135992
0.13595
0.135908
0.135867
0.135826
0.135786
0.135747
0.135708
0.135669
0.135631
0.135594
0.135557
0.135521
0.135485
0.13545
0.135415
0.135381
0.135347
0.135314
0.135281
0.135249
0.135217
0.135186
0.135155
0.135125
0.135095
0.135066
0.135037
0.135009
0.134981
0.134953
0.134926
0.1349
0.134873
0.134848
0.134822
0.134798
0.134773
0.134749
0.134726
0.134703
0.134681
0.134659
0.134638
0.134618
0.134598
0.13458
0.134562
0.134546
0.134531
0.13997
0.13991
0.13985
0.13979
0.139729
0.139668
0.139606
0.139544
0.139482
0.13942
0.139358
0.139295
0.139232
0.139169
0.139106
0.139043
0.138979
0.138916
0.138852
0.138789
0.138726
0.138662
0.138599
0.138535
0.138472
0.138409
0.138346
0.138283
0.138221
0.138158
0.138096
0.138034
0.137972
0.137911
0.137849
0.137788
0.137728
0.137667
0.137608
0.137548
0.137489
0.13743
0.137372
0.137314
0.137256
0.137199
0.137143
0.137086
0.137031
0.136976
0.136921
0.136867
0.136813
0.13676
0.136707
0.136655
0.136604
0.136553
0.136502
0.136453
0.136403
0.136354
0.136306
0.136259
0.136211
0.136165
0.136119
0.136074
0.136029
0.135985
0.135941
0.135898
0.135855
0.135813
0.135772
0.135731
0.135691
0.135651
0.135612
0.135573
0.135535
0.135497
0.13546
0.135424
0.135388
0.135352
0.135317
0.135283
0.135249
0.135216
0.135183
0.13515
0.135118
0.135087
0.135056
0.135026
0.134996
0.134966
0.134937
0.134908
0.13488
0.134853
0.134825
0.134799
0.134772
0.134746
0.134721
0.134696
0.134672
0.134648
0.134624
0.134601
0.134579
0.134558
0.134537
0.134517
0.134498
0.13448
0.134464
0.134449
0.13997
0.13991
0.139849
0.139789
0.139727
0.139666
0.139604
0.139542
0.139479
0.139416
0.139354
0.13929
0.139227
0.139163
0.1391
0.139036
0.138972
0.138908
0.138844
0.13878
0.138716
0.138652
0.138588
0.138524
0.13846
0.138396
0.138332
0.138269
0.138205
0.138142
0.138079
0.138016
0.137954
0.137892
0.137829
0.137768
0.137706
0.137645
0.137584
0.137524
0.137464
0.137404
0.137345
0.137286
0.137228
0.13717
0.137112
0.137055
0.136999
0.136943
0.136887
0.136832
0.136778
0.136724
0.13667
0.136617
0.136565