/*--------------------------------*- C++ -*----------------------------------*\
  =========                 |
  \\      /  F ield         | OpenFOAM: The Open Source CFD Toolbox
   \\    /   O peration     | Website:  https://openfoam.org
    \\  /    A nd           | Version:  8
     \\/     M anipulation  |
\*---------------------------------------------------------------------------*/
FoamFile
{
    version     2.0;
    format      ascii;
    class       surfaceScalarField;
    location    "7";
    object      phi;
}
// * * * * * * * * * * * * * * * * * * * * * * * * * * * * * * * * * * * * * //

dimensions      [0 3 -1 0 0 0 0];

internalField   nonuniform List<scalar> 
496224
(
0.0283431
-0.000359256
0.0286963
-0.000353123
0.0290434
-0.000347097
0.0293845
-0.000341174
0.0297199
-0.000335354
0.0300495
-0.000329636
0.0303735
-0.000324017
0.030692
-0.000318494
0.0310051
-0.000313067
0.0313128
-0.000307734
0.0316153
-0.000302494
0.0319127
-0.000297343
0.032205
-0.00029228
0.0324923
-0.000287306
0.0327747
-0.000282417
0.0330523
-0.000277611
0.0333252
-0.000272888
0.0335934
-0.000268246
0.0338571
-0.000263685
0.0341163
-0.000259199
0.0343711
-0.000254791
0.0346216
-0.000250459
0.0348678
-0.0002462
0.0351098
-0.000242014
0.0353477
-0.000237898
0.0355815
-0.000233854
0.0358114
-0.000229877
0.0360374
-0.000225968
0.0362595
-0.000222125
0.0364778
-0.000218347
0.0366925
-0.000214635
0.0369035
-0.000210983
0.0371109
-0.000207394
0.0373147
-0.000203866
0.0375151
-0.000200397
0.0377121
-0.000196986
0.0379057
-0.000193633
0.0380961
-0.000190338
0.0382832
-0.000187095
0.0384671
-0.00018391
0.0386479
-0.000180777
0.0388256
-0.000177697
0.0390002
-0.000174669
0.0391719
-0.000171693
0.0393407
-0.000168765
0.0395066
-0.000165887
0.0396696
-0.000163059
0.0398299
-0.000160276
0.0399874
-0.000157541
0.0401423
-0.000154852
0.0402945
-0.000152209
0.0404441
-0.000149611
0.0405912
-0.000147053
0.0407357
-0.000144542
0.0408778
-0.000142073
0.0410174
-0.000139643
0.0411547
-0.000137256
0.0412896
-0.000134909
0.0414222
-0.000132602
0.0415525
-0.000130332
0.0416806
-0.000128101
0.0418065
-0.000125909
0.0419303
-0.000123753
0.0420519
-0.000121634
0.0421715
-0.000119551
0.042289
-0.000117502
0.0424045
-0.000115488
0.042518
-0.000113509
0.0426295
-0.000111563
0.0427392
-0.00010965
0.042847
-0.000107769
0.0429529
-0.00010592
0.043057
-0.000104103
0.0431593
-0.000102316
0.0432599
-0.000100561
0.0433587
-9.88336e-05
0.0434558
-9.71365e-05
0.0435513
-9.54692e-05
0.0436451
-9.38287e-05
0.0437373
-9.2216e-05
0.043828
-9.06322e-05
0.0439171
-8.90742e-05
0.0440046
-8.75441e-05
0.0440906
-8.6038e-05
0.0441752
-8.45598e-05
0.0442583
-8.31045e-05
0.04434
-8.16762e-05
0.0444202
-8.0271e-05
0.0444991
-7.88907e-05
0.0445767
-7.75334e-05
0.0446529
-7.61981e-05
0.0447278
-7.48879e-05
0.0448014
-7.35988e-05
0.0448737
-7.23317e-05
0.0449448
-7.10867e-05
0.0450146
-6.98638e-05
0.0450833
-6.866e-05
0.0451508
-6.74773e-05
0.0452171
-6.63167e-05
0.0452823
-6.51733e-05
0.0453463
-6.4051e-05
0.0454093
-6.29488e-05
0.0454711
-6.18637e-05
0.0455319
-6.07979e-05
0.0455917
-5.97501e-05
0.0456504
-5.87206e-05
0.0457081
-5.77102e-05
0.0457648
-5.6714e-05
0.0458206
-5.5738e-05
0.0458753
-5.47772e-05
0.0459292
-5.38336e-05
0.0459821
-5.29053e-05
0.0460341
-5.19944e-05
0.0460852
-5.10987e-05
0.0461354
-5.02186e-05
0.0461847
-4.9354e-05
0.0462332
-4.85052e-05
0.0462809
-4.76725e-05
0.0463278
-4.68541e-05
-4.60517e-05
0.0463738
0.0281444
-0.000715994
0.028495
-0.00070377
0.0288397
-0.000691759
0.0291785
-0.000679956
0.0295115
-0.000668357
0.0298388
-0.00065696
0.0301606
-0.00064576
0.0304768
-0.000634754
0.0307877
-0.000623939
0.0310933
-0.000613311
0.0313936
-0.000602865
0.0316889
-0.0005926
0.0319791
-0.000582511
0.0322644
-0.000572596
0.0325448
-0.000562852
0.0328205
-0.000553275
0.0330915
-0.000543861
0.0333579
-0.000534611
0.0336197
-0.000525517
0.0338771
-0.00051658
0.0341301
-0.000507795
0.0343788
-0.00049916
0.0346232
-0.000490672
0.0348636
-0.000482329
0.0350998
-0.000474128
0.035332
-0.000466066
0.0355603
-0.000458141
0.0357846
-0.00045035
0.0360052
-0.000442692
0.036222
-0.000435163
0.0364352
-0.000427762
0.0366447
-0.000420486
0.0368506
-0.000413331
0.037053
-0.000406301
0.037252
-0.000399386
0.0374476
-0.00039259
0.0376399
-0.000385907
0.0378289
-0.000379337
0.0380147
-0.000372879
0.0381973
-0.000366528
0.0383768
-0.000360284
0.0385533
-0.000354147
0.0387267
-0.000348112
0.0388972
-0.000342179
0.0390648
-0.000336345
0.0392295
-0.00033061
0.0393914
-0.000324971
0.0395505
-0.000319427
0.039707
-0.000313977
0.0398607
-0.000308617
0.0400119
-0.000303349
0.0401604
-0.000298169
0.0403065
-0.000293075
0.04045
-0.000288069
0.0405911
-0.000283146
0.0407297
-0.000278307
0.040866
-0.000273548
0.041
-0.00026887
0.0411317
-0.000264271
0.0412611
-0.000259748
0.0413883
-0.000255304
0.0415133
-0.000250934
0.0416362
-0.000246637
0.041757
-0.000242413
0.0418757
-0.000238261
0.0419923
-0.000234179
0.042107
-0.000230166
0.0422197
-0.000226221
0.0423305
-0.000222342
0.0424394
-0.000218529
0.0425464
-0.000214782
0.0426516
-0.000211096
0.042755
-0.000207475
0.0428566
-0.000203914
0.0429564
-0.000200414
0.0430545
-0.000196973
0.043151
-0.000193591
0.0432458
-0.000190267
0.043339
-0.000186998
0.0434305
-0.000183785
0.0435205
-0.000180627
0.043609
-0.000177523
0.0436959
-0.000174472
0.0437813
-0.000171472
0.0438653
-0.000168525
0.0439478
-0.000165626
0.0440289
-0.000162778
0.0441086
-0.000159978
0.044187
-0.000157226
0.044264
-0.000154522
0.0443396
-0.000151862
0.044414
-0.000149248
0.0444871
-0.000146681
0.0445589
-0.000144155
0.0446295
-0.000141674
0.0446989
-0.000139236
0.044767
-0.000136837
0.044834
-0.000134482
0.0448999
-0.000132166
0.0449646
-0.000129889
0.0450282
-0.000127653
0.0450907
-0.000125453
0.0451521
-0.000123292
0.0452125
-0.000121169
0.0452718
-0.000119082
0.0453301
-0.000117029
0.0453874
-0.000115013
0.0454438
-0.000113032
0.0454991
-0.000111084
0.0455535
-0.000109169
0.045607
-0.000107287
0.0456595
-0.00010544
0.0457111
-0.000103623
0.0457619
-0.000101838
0.0458117
-0.000100085
0.0458607
-9.83617e-05
0.0459089
-9.66692e-05
0.0459562
-9.50088e-05
0.0460028
-9.33792e-05
-9.17805e-05
0.0460485
0.027947
-0.00107023
0.0282952
-0.00105196
0.0286375
-0.001034
0.0289739
-0.00101636
0.0293045
-0.000999025
0.0296296
-0.000981989
0.0299491
-0.000965248
0.0302631
-0.000948797
0.0305718
-0.00093263
0.0308752
-0.000916742
0.0311735
-0.000901129
0.0314667
-0.000885786
0.0317549
-0.000870705
0.0320382
-0.000855885
0.0323166
-0.00084132
0.0325904
-0.000827004
0.0328594
-0.000812934
0.0331239
-0.000799106
0.0333839
-0.000785514
0.0336395
-0.000772154
0.0338907
-0.000759023
0.0341377
-0.000746116
0.0343804
-0.000733429
0.0346191
-0.000720958
0.0348536
-0.000708698
0.0350842
-0.000696649
0.0353109
-0.000684802
0.0355337
-0.000673157
0.0357527
-0.00066171
0.035968
-0.000650456
0.0361796
-0.000639393
0.0363877
-0.000628517
0.0365922
-0.000617824
0.0367932
-0.000607314
0.0369908
-0.00059698
0.037185
-0.00058682
0.0373759
-0.000576831
0.0375636
-0.000567012
0.0377481
-0.000557357
0.0379294
-0.000547865
0.0381077
-0.000538533
0.0382829
-0.000529357
0.0384551
-0.000520338
0.0386244
-0.000511468
0.0387908
-0.000502748
0.0389543
-0.000494176
0.0391151
-0.000485748
0.0392732
-0.000477461
0.0394285
-0.000469313
0.0395812
-0.000461303
0.0397313
-0.000453427
0.0398788
-0.000445685
0.0400238
-0.000438073
0.0401663
-0.000430589
0.0403064
-0.00042323
0.0404441
-0.000415996
0.0405794
-0.000408883
0.0407124
-0.000401891
0.0408432
-0.000395016
0.0409717
-0.000388258
0.041098
-0.000381613
0.0412221
-0.000375081
0.0413442
-0.00036866
0.0414641
-0.000362345
0.041582
-0.000356139
0.0416978
-0.000350037
0.0418117
-0.000344038
0.0419236
-0.000338141
0.0420336
-0.000332344
0.0421417
-0.000326645
0.042248
-0.000321042
0.0423524
-0.000315535
0.0424551
-0.00031012
0.042556
-0.000304799
0.0426551
-0.000299567
0.0427526
-0.000294425
0.0428483
-0.000289368
0.0429425
-0.000284399
0.043035
-0.000279513
0.0431259
-0.000274711
0.0432153
-0.000269991
0.0433031
-0.000265351
0.0433894
-0.00026079
0.0434743
-0.000256307
0.0435576
-0.0002519
0.0436396
-0.000247569
0.0437201
-0.000243311
0.0437993
-0.000239126
0.043877
-0.000235013
0.0439535
-0.000230969
0.0440286
-0.000226995
0.0441025
-0.000223089
0.044175
-0.00021925
0.0442464
-0.000215475
0.0443165
-0.000211766
0.0443853
-0.00020812
0.044453
-0.000204537
0.0445196
-0.000201016
0.044585
-0.000197553
0.0446492
-0.000194151
0.0447124
-0.000190807
0.0447744
-0.000187521
0.0448354
-0.000184291
0.0448954
-0.000181116
0.0449543
-0.000177995
0.0450122
-0.000174929
0.0450691
-0.000171914
0.045125
-0.000168953
0.04518
-0.000166041
0.045234
-0.000163179
0.0452871
-0.000160368
0.0453392
-0.000157605
0.0453905
-0.000154889
0.0454409
-0.000152221
0.0454904
-0.0001496
0.0455391
-0.000147026
0.0455869
-0.000144495
0.0456339
-0.000142012
0.0456801
-0.000139577
-0.000137189
0.0457255
0.0277511
-0.00142198
0.0280968
-0.0013977
0.0284367
-0.00137385
0.0287707
-0.00135041
0.0290991
-0.00132737
0.0294218
-0.00130474
0.029739
-0.0012825
0.0300509
-0.00126064
0.0303574
-0.00123916
0.0306587
-0.00121805
0.0309549
-0.0011973
0.031246
-0.00117691
0.0315322
-0.00115688
0.0318135
-0.00113719
0.03209
-0.00111783
0.0323618
-0.00109881
0.032629
-0.00108012
0.0328916
-0.00106175
0.0331498
-0.00104369
0.0334036
-0.00102594
0.0336531
-0.00100849
0.0338983
-0.000991339
0.0341393
-0.000974483
0.0343763
-0.000957911
0.0346092
-0.000941624
0.0348382
-0.000925612
0.0350632
-0.000909874
0.0352845
-0.0008944
0.035502
-0.000879192
0.0357158
-0.000864239
0.0359259
-0.00084954
0.0361325
-0.000835089
0.0363355
-0.000820883
0.0365351
-0.000806917
0.0367313
-0.000793186
0.0369242
-0.000779688
0.0371138
-0.000766415
0.0373002
-0.000753368
0.0374833
-0.000740541
0.0376634
-0.00072793
0.0378404
-0.000715529
0.0380144
-0.00070334
0.0381854
-0.000691355
0.0383535
-0.000679571
0.0385187
-0.000667985
0.0386812
-0.000656594
0.0388408
-0.000645396
0.0389977
-0.000634385
0.039152
-0.000623561
0.0393036
-0.000612918
0.0394526
-0.000602455
0.0395991
-0.000592166
0.0397431
-0.000582052
0.0398846
-0.000572109
0.0400237
-0.000562331
0.0401604
-0.00055272
0.0402948
-0.000543269
0.0404269
-0.000533979
0.0405567
-0.000524845
0.0406843
-0.000515865
0.0408098
-0.000507038
0.040933
-0.000498358
0.0410542
-0.000489825
0.0411733
-0.000481437
0.0412903
-0.00047319
0.0414054
-0.000465083
0.0415185
-0.000457113
0.0416296
-0.000449277
0.0417388
-0.000441575
0.0418462
-0.000434003
0.0419517
-0.000426559
0.0420554
-0.000419241
0.0421573
-0.000412048
0.0422575
-0.000404976
0.042356
-0.000398025
0.0424527
-0.000391192
0.0425478
-0.000384474
0.0426413
-0.000377872
0.0427332
-0.000371381
0.0428235
-0.000365001
0.0429122
-0.000358728
0.0429994
-0.000352564
0.0430851
-0.000346503
0.0431694
-0.000340547
0.0432522
-0.000334692
0.0433335
-0.000328937
0.0434135
-0.000323279
0.0434921
-0.00031772
0.0435693
-0.000312254
0.0436453
-0.000306881
0.0437199
-0.000301601
0.0437932
-0.000296411
0.0438652
-0.00029131
0.0439361
-0.000286295
0.0440057
-0.000281367
0.0440741
-0.000276523
0.0441413
-0.000271762
0.0442074
-0.000267083
0.0442723
-0.000262483
0.0443361
-0.000257963
0.0443988
-0.00025352
0.0444604
-0.000249152
0.044521
-0.000244861
0.0445805
-0.000240642
0.044639
-0.000236497
0.0446965
-0.000232422
0.044753
-0.000228418
0.0448086
-0.000224481
0.0448631
-0.000220613
0.0449168
-0.000216812
0.0449695
-0.000213075
0.0450213
-0.000209404
0.0450722
-0.000205796
0.0451222
-0.000202252
0.0451714
-0.000198768
0.0452197
-0.000195346
0.0452672
-0.000191987
0.0453139
-0.000188688
0.0453597
-0.000185451
-0.000182276
0.0454048
0.0275565
-0.00177127
0.0278998
-0.00174103
0.0282372
-0.00171131
0.028569
-0.00168211
0.028895
-0.00165342
0.0292155
-0.00162522
0.0295305
-0.00159752
0.0298402
-0.00157029
0.0301445
-0.00154353
0.0304437
-0.00151724
0.0307378
-0.0014914
0.0310269
-0.001466
0.0313111
-0.00144104
0.0315904
-0.00141652
0.031865
-0.00139241
0.0321349
-0.00136872
0.0324002
-0.00134543
0.032661
-0.00132254
0.0329173
-0.00130005
0.0331693
-0.00127794
0.0334171
-0.0012562
0.0336606
-0.00123484
0.0338999
-0.00121384
0.0341352
-0.0011932
0.0343665
-0.00117292
0.0345939
-0.00115297
0.0348174
-0.00113337
0.035037
-0.00111409
0.035253
-0.00109515
0.0354653
-0.00107652
0.035674
-0.00105821
0.0358791
-0.00104021
0.0360807
-0.00102252
0.0362789
-0.00100512
0.0364737
-0.000988016
0.0366653
-0.000971202
0.0368535
-0.00095467
0.0370386
-0.000938419
0.0372205
-0.000922439
0.0373993
-0.000906731
0.037575
-0.000891285
0.0377478
-0.000876101
0.0379176
-0.000861172
0.0380845
-0.000846494
0.0382486
-0.000832063
0.0384099
-0.000817875
0.0385684
-0.000803925
0.0387242
-0.000790211
0.0388774
-0.000776726
0.039028
-0.00076347
0.0391759
-0.000750435
0.0393214
-0.000737621
0.0394644
-0.000725023
0.0396049
-0.000712636
0.039743
-0.000700457
0.0398788
-0.000688485
0.0400122
-0.000676714
0.0401434
-0.000665142
0.0402723
-0.000653764
0.040399
-0.00064258
0.0405236
-0.000631582
0.040646
-0.000620771
0.0407663
-0.000610143
0.0408846
-0.000599694
0.0410008
-0.000589421
0.041115
-0.000579323
0.0412273
-0.000569394
0.0413377
-0.000559635
0.0414461
-0.000550041
0.0415527
-0.000540609
0.0416575
-0.000531336
0.0417605
-0.000522221
0.0418617
-0.000513261
0.0419612
-0.000504453
0.042059
-0.000495794
0.042155
-0.000487283
0.0422495
-0.000478915
0.0423423
-0.00047069
0.0424335
-0.000462605
0.0425232
-0.000454657
0.0426113
-0.000446845
0.0426979
-0.000439166
0.042783
-0.000431618
0.0428667
-0.000424198
0.0429489
-0.000416905
0.0430297
-0.000409735
0.0431091
-0.000402689
0.0431871
-0.000395763
0.0432638
-0.000388955
0.0433392
-0.000382263
0.0434133
-0.000375685
0.0434861
-0.00036922
0.0435577
-0.000362867
0.043628
-0.00035662
0.0436971
-0.000350481
0.043765
-0.000344448
0.0438318
-0.000338516
0.0438974
-0.000332687
0.0439619
-0.000326959
0.0440252
-0.000321328
0.0440875
-0.000315793
0.0441487
-0.000310354
0.0442088
-0.000305007
0.044268
-0.000299754
0.044326
-0.000294589
0.0443831
-0.000289513
0.0444392
-0.000284524
0.0444944
-0.000279622
0.0445486
-0.000274804
0.0446018
-0.000270068
0.0446542
-0.000265414
0.0447056
-0.000260841
0.0447562
-0.000256347
0.0448058
-0.000251932
0.0448547
-0.000247592
0.0449026
-0.00024333
0.0449498
-0.000239145
0.0449962
-0.000235036
0.0450417
-0.000231003
-0.000227049
0.0450865
0.0273632
-0.0021181
0.0277041
-0.00208194
0.0280392
-0.00204641
0.0283686
-0.00201149
0.0286924
-0.00197718
0.0290106
-0.00194346
0.0293234
-0.00191033
0.0296309
-0.00187777
0.0299331
-0.00184577
0.0302302
-0.00181433
0.0305223
-0.00178343
0.0308093
-0.00175306
0.0310915
-0.00172322
0.0313689
-0.00169388
0.0316415
-0.00166506
0.0319095
-0.00163672
0.032173
-0.00160888
0.0324319
-0.00158151
0.0326865
-0.00155461
0.0329367
-0.00152817
0.0331827
-0.00150218
0.0334245
-0.00147664
0.0336622
-0.00145153
0.0338958
-0.00142684
0.0341255
-0.00140258
0.0343513
-0.00137873
0.0345732
-0.00135529
0.0347913
-0.00133224
0.0350058
-0.00130959
0.0352166
-0.00128731
0.0354238
-0.00126542
0.0356275
-0.0012439
0.0358277
-0.00122273
0.0360245
-0.00120193
0.036218
-0.00118148
0.0364081
-0.00116137
0.0365951
-0.0011416
0.0367788
-0.00112217
0.0369594
-0.00110306
0.037137
-0.00108428
0.0373115
-0.00106581
0.0374831
-0.00104765
0.0376517
-0.0010298
0.0378174
-0.00101225
0.0379804
-0.00099499
0.0381405
-0.000978024
0.0382979
-0.000961344
0.0384527
-0.000944943
0.0386048
-0.000928819
0.0387543
-0.000912967
0.0389012
-0.000897381
0.0390456
-0.000882057
0.0391876
-0.000866992
0.0393271
-0.00085218
0.0394643
-0.000837617
0.0395991
-0.0008233
0.0397316
-0.000809225
0.0398619
-0.000795386
0.0399899
-0.000781781
0.0401157
-0.000768405
0.0402394
-0.000755256
0.0403609
-0.000742327
0.0404804
-0.000729618
0.0405979
-0.000717123
0.0407133
-0.000704839
0.0408267
-0.000692764
0.0409382
-0.000680892
0.0410478
-0.000669221
0.0411555
-0.000657748
0.0412614
-0.000646468
0.0413654
-0.000635381
0.0414677
-0.000624482
0.0415682
-0.000613766
0.041667
-0.000603233
0.041764
-0.000592879
0.0418595
-0.000582701
0.0419532
-0.000572695
0.0420454
-0.00056286
0.042136
-0.000553192
0.042225
-0.000543687
0.0423125
-0.000534346
0.0423985
-0.000525164
0.042483
-0.000516136
0.0425661
-0.000507264
0.0426477
-0.000498542
0.042728
-0.00048997
0.0428068
-0.000481543
0.0428843
-0.00047326
0.0429605
-0.00046512
0.0430353
-0.000457117
0.0431089
-0.000449252
0.0431812
-0.000441522
0.0432523
-0.000433922
0.0433221
-0.000426453
0.0433907
-0.000419113
0.0434582
-0.000411897
0.0435245
-0.000404805
0.0435896
-0.000397835
0.0436536
-0.000390984
0.0437166
-0.000384249
0.0437784
-0.000377632
0.0438392
-0.000371126
0.0438989
-0.000364735
0.0439576
-0.000358451
0.0440153
-0.000352275
0.044072
-0.000346205
0.0441277
-0.000340241
0.0441825
-0.000334377
0.0442363
-0.000328616
0.0442891
-0.000322952
0.0443411
-0.000317388
0.0443922
-0.000311918
0.0444424
-0.000306545
0.0444917
-0.000301264
0.0445402
-0.000296075
0.0445879
-0.000290979
0.0446347
-0.000285974
0.0446807
-0.00028106
0.0447259
-0.000276237
-0.000271509
0.0447704
0.0271713
-0.00246251
0.0275099
-0.00242046
0.0278426
-0.00237915
0.0281697
-0.00233856
0.0284912
-0.00229867
0.0288072
-0.00225947
0.0291178
-0.00222095
0.0294231
-0.00218309
0.0297232
-0.00214589
0.0300183
-0.00210934
0.0303082
-0.00207341
0.0305933
-0.0020381
0.0308735
-0.00200341
0.0311489
-0.00196931
0.0314196
-0.00193579
0.0316858
-0.00190285
0.0319474
-0.00187048
0.0322045
-0.00183866
0.0324573
-0.00180739
0.0327058
-0.00177665
0.03295
-0.00174643
0.0331901
-0.00171673
0.0334261
-0.00168754
0.0336581
-0.00165885
0.0338862
-0.00163064
0.0341104
-0.00160291
0.0343307
-0.00157566
0.0345473
-0.00154886
0.0347603
-0.00152252
0.0349696
-0.00149663
0.0351754
-0.00147118
0.0353776
-0.00144615
0.0355764
-0.00142155
0.0357719
-0.00139736
0.035964
-0.00137359
0.0361528
-0.00135021
0.0363384
-0.00132723
0.0365209
-0.00130463
0.0367002
-0.00128242
0.0368765
-0.00126058
0.0370498
-0.00123911
0.0372202
-0.001218
0.0373876
-0.00119724
0.0375522
-0.00117684
0.037714
-0.00115678
0.037873
-0.00113705
0.0380294
-0.00111766
0.038183
-0.00109859
0.038334
-0.00107985
0.0384825
-0.00106142
0.0386284
-0.0010433
0.0387718
-0.00102548
0.0389128
-0.00100797
0.0390514
-0.000990746
0.0391876
-0.000973816
0.0393214
-0.000957172
0.039453
-0.000940807
0.0395823
-0.000924718
0.0397095
-0.000908902
0.0398344
-0.000893351
0.0399572
-0.000878064
0.0400779
-0.000863033
0.0401966
-0.000848258
0.0403132
-0.000833731
0.0404278
-0.000819449
0.0405404
-0.000805411
0.0406512
-0.000791609
0.04076
-0.00077804
0.0408669
-0.000764702
0.040972
-0.000751589
0.0410754
-0.000738699
0.0411769
-0.000726027
0.0412767
-0.000713569
0.0413748
-0.000701324
0.0414712
-0.000689287
0.041566
-0.000677453
0.0416591
-0.00066582
0.0417506
-0.000654386
0.0418406
-0.000643145
0.041929
-0.000632096
0.0420159
-0.000621236
0.0421013
-0.000610559
0.0421852
-0.000600066
0.0422677
-0.00058975
0.0423487
-0.00057961
0.0424284
-0.000569644
0.0425067
-0.000559846
0.0425837
-0.000550218
0.0426593
-0.000540752
0.0427336
-0.000531449
0.0428067
-0.000522306
0.0428785
-0.000513317
0.0429491
-0.000504482
0.0430184
-0.0004958
0.0430865
-0.000487264
0.0431535
-0.000478876
0.0432194
-0.000470631
0.043284
-0.000462527
0.0433476
-0.000454562
0.0434101
-0.000446733
0.0434715
-0.000439039
0.0435319
-0.000431477
0.0435912
-0.000424044
0.0436495
-0.000416738
0.0437067
-0.000409559
0.043763
-0.000402503
0.0438184
-0.000395567
0.0438727
-0.000388751
0.0439262
-0.000382052
0.0439787
-0.000375469
0.0440303
-0.000368998
0.044081
-0.00036264
0.0441309
-0.000356391
0.0441799
-0.000350253
0.044228
-0.00034422
0.0442753
-0.000338296
0.0443218
-0.000332476
0.0443675
-0.000326762
0.0444124
-0.000321157
-0.000315659
0.0444566
0.0269808
-0.0028045
0.027317
-0.00275661
0.0276474
-0.00270956
0.0279722
-0.00266333
0.0282914
-0.0026179
0.0286052
-0.00257326
0.0289136
-0.00252939
0.0292168
-0.00248628
0.0295148
-0.00244391
0.0298078
-0.00240228
0.0300957
-0.00236136
0.0303787
-0.00232115
0.030657
-0.00228163
0.0309305
-0.0022428
0.0311993
-0.00220463
0.0314636
-0.00216711
0.0317233
-0.00213024
0.0319787
-0.00209401
0.0322297
-0.00205839
0.0324764
-0.00202338
0.0327189
-0.00198897
0.0329574
-0.00195515
0.0331917
-0.0019219
0.0334221
-0.00188922
0.0336485
-0.0018571
0.0338712
-0.00182552
0.03409
-0.00179448
0.0343051
-0.00176396
0.0345165
-0.00173396
0.0347244
-0.00170448
0.0349287
-0.00167549
0.0351295
-0.00164699
0.0353269
-0.00161897
0.035521
-0.00159142
0.0357117
-0.00156434
0.0358993
-0.00153772
0.0360836
-0.00151155
0.0362648
-0.00148582
0.0364429
-0.00146052
0.0366179
-0.00143565
0.03679
-0.00141119
0.0369592
-0.00138715
0.0371254
-0.00136352
0.0372889
-0.00134028
0.0374495
-0.00131743
0.0376074
-0.00129496
0.0377627
-0.00127288
0.0379152
-0.00125116
0.0380652
-0.00122982
0.0382126
-0.00120883
0.0383575
-0.00118819
0.0384999
-0.0011679
0.0386399
-0.00114795
0.0387775
-0.00112834
0.0389128
-0.00110906
0.0390457
-0.00109011
0.0391764
-0.00107147
0.0393048
-0.00105315
0.039431
-0.00103513
0.0395551
-0.00101742
0.039677
-0.00100001
0.0397969
-0.000982895
0.0399147
-0.000966068
0.0400305
-0.000949524
0.0401443
-0.00093326
0.0402562
-0.000917271
0.0403661
-0.000901553
0.0404742
-0.000886099
0.0405804
-0.00087091
0.0406848
-0.000855975
0.0407874
-0.000841295
0.0408882
-0.000826863
0.0409873
-0.000812675
0.0410847
-0.00079873
0.0411805
-0.00078502
0.0412745
-0.000771543
0.041367
-0.000758295
0.0414579
-0.000745273
0.0415472
-0.000732472
0.041635
-0.000719888
0.0417213
-0.000707518
0.0418061
-0.000695361
0.0418895
-0.000683408
0.0419714
-0.00067166
0.0420519
-0.000660113
0.042131
-0.000648763
0.0422087
-0.000637604
0.0422852
-0.000626639
0.0423603
-0.000615858
0.0424341
-0.000605263
0.0425066
-0.000594849
0.0425779
-0.000584612
0.042648
-0.000574551
0.0427169
-0.000564662
0.0427845
-0.000554942
0.042851
-0.000545388
0.0429164
-0.000535998
0.0429806
-0.000526769
0.0430438
-0.000517697
0.0431058
-0.000508781
0.0431668
-0.000500019
0.0432267
-0.000491406
0.0432856
-0.000482941
0.0433435
-0.00047462
0.0434004
-0.000466444
0.0434563
-0.000458407
0.0435112
-0.000450508
0.0435652
-0.000442745
0.0436183
-0.000435116
0.0436705
-0.000427619
0.0437217
-0.000420249
0.0437721
-0.000413008
0.0438216
-0.000405892
0.0438702
-0.000398899
0.043918
-0.000392031
0.043965
-0.000385282
0.0440112
-0.000378654
0.0440566
-0.000372147
0.0441012
-0.000365762
-0.000359501
0.044145
0.0267916
-0.00314409
0.0271254
-0.00309041
0.0274535
-0.00303766
0.027776
-0.00298583
0.028093
-0.00293489
0.0284046
-0.00288485
0.0287109
-0.00283566
0.0290119
-0.00278733
0.0293078
-0.00273984
0.0295987
-0.00269316
0.0298847
-0.00264729
0.0301657
-0.00260221
0.030442
-0.00255791
0.0307136
-0.00251437
0.0309805
-0.00247158
0.0312429
-0.00242952
0.0315009
-0.00238819
0.0317544
-0.00234756
0.0320037
-0.00230763
0.0322487
-0.00226838
0.0324895
-0.0022298
0.0327262
-0.00219189
0.0329589
-0.00215461
0.0331877
-0.00211798
0.0334126
-0.00208196
0.0336336
-0.00204656
0.0338509
-0.00201176
0.0340645
-0.00197755
0.0342745
-0.00194392
0.0344808
-0.00191086
0.0346837
-0.00187836
0.0348831
-0.00184641
0.0350792
-0.001815
0.0352719
-0.00178412
0.0354613
-0.00175377
0.0356475
-0.00172392
0.0358305
-0.00169458
0.0360104
-0.00166573
0.0361873
-0.00163737
0.0363611
-0.00160949
0.036532
-0.00158207
0.0367
-0.00155512
0.0368651
-0.00152862
0.0370274
-0.00150257
0.0371869
-0.00147695
0.0373437
-0.00145177
0.0374978
-0.00142701
0.0376494
-0.00140267
0.0377983
-0.00137874
0.0379447
-0.00135521
0.0380885
-0.00133207
0.03823
-0.00130933
0.038369
-0.00128696
0.0385056
-0.00126498
0.0386399
-0.00124336
0.0387719
-0.00122211
0.0389017
-0.00120122
0.0390292
-0.00118068
0.0391545
-0.00116048
0.0392777
-0.00114063
0.0393988
-0.00112111
0.0395179
-0.00110192
0.0396348
-0.00108306
0.0397498
-0.00106451
0.0398628
-0.00104628
0.0399739
-0.00102835
0.0400831
-0.00101073
0.0401904
-0.000993405
0.0402959
-0.000976375
0.0403995
-0.000959633
0.0405014
-0.000943174
0.0406015
-0.000926996
0.0407
-0.000911091
0.0407967
-0.000895455
0.0408917
-0.000880087
0.0409852
-0.000864978
0.041077
-0.000850125
0.0411673
-0.000835526
0.041256
-0.000821175
0.0413432
-0.000807068
0.0414288
-0.000793201
0.041513
-0.00077957
0.0415958
-0.000766171
0.0416771
-0.000753
0.0417571
-0.000740055
0.0418357
-0.000727329
0.0419129
-0.000714821
0.0419888
-0.000702526
0.0420633
-0.000690442
0.0421366
-0.000678562
0.0422087
-0.000666888
0.0422795
-0.000655412
0.0423491
-0.000644132
0.0424174
-0.000633045
0.0424846
-0.000622149
0.0425507
-0.000611437
0.0426156
-0.000600909
0.0426794
-0.000590563
0.0427421
-0.000580393
0.0428037
-0.000570397
0.0428643
-0.000560573
0.0429238
-0.000550918
0.0429823
-0.000541427
0.0430397
-0.0005321
0.0430962
-0.000522933
0.0431518
-0.000513923
0.0432063
-0.000505067
0.0432599
-0.000496364
0.0433126
-0.00048781
0.0433644
-0.000479405
0.0434153
-0.000471145
0.0434653
-0.000463026
0.0435145
-0.000455047
0.0435628
-0.000447209
0.0436103
-0.000439507
0.0436569
-0.000431941
0.0437028
-0.000424511
0.0437479
-0.000417216
0.0437921
-0.000410058
-0.000403039
0.0438357
0.0266037
-0.00348129
0.0269352
-0.00342186
0.027261
-0.00336345
0.0275812
-0.00330606
0.027896
-0.00324967
0.0282054
-0.00319425
0.0285095
-0.00313979
0.0288085
-0.00308627
0.0291023
-0.00303368
0.0293912
-0.002982
0.0296751
-0.00293121
0.0299542
-0.0028813
0.0302285
-0.00283224
0.0304982
-0.00278404
0.0307633
-0.00273665
0.0310238
-0.00269009
0.03128
-0.00264432
0.0315317
-0.00259934
0.0317792
-0.00255512
0.0320225
-0.00251166
0.0322617
-0.00246895
0.0324967
-0.00242696
0.0327278
-0.0023857
0.032955
-0.00234513
0.0331783
-0.00230525
0.0333977
-0.00226605
0.0336135
-0.00222752
0.0338256
-0.00218965
0.0340341
-0.00215241
0.034239
-0.0021158
0.0344405
-0.00207982
0.0346385
-0.00204444
0.0348332
-0.00200966
0.0350245
-0.00197547
0.0352126
-0.00194186
0.0353975
-0.00190881
0.0355792
-0.00187633
0.0357579
-0.00184438
0.0359335
-0.00181298
0.0361061
-0.00178211
0.0362758
-0.00175175
0.0364426
-0.00172191
0.0366066
-0.00169257
0.0367677
-0.00166373
0.0369261
-0.00163537
0.0370818
-0.00160748
0.0372349
-0.00158007
0.0373853
-0.00155311
0.0375332
-0.00152661
0.0376786
-0.00150056
0.0378214
-0.00147494
0.0379619
-0.00144976
0.0380999
-0.001425
0.0382356
-0.00140066
0.0383689
-0.00137672
0.0385
-0.00135319
0.0386289
-0.00133006
0.0387555
-0.00130732
0.03888
-0.00128496
0.0390023
-0.00126297
0.0391226
-0.00124136
0.0392408
-0.00122011
0.0393569
-0.00119923
0.0394711
-0.00117869
0.0395834
-0.0011585
0.0396937
-0.00113865
0.0398021
-0.00111914
0.0399086
-0.00109996
0.0400134
-0.00108111
0.0401163
-0.00106257
0.0402175
-0.00104434
0.0403169
-0.00102643
0.0404146
-0.00100882
0.0405107
-0.000991509
0.0406051
-0.000974489
0.0406979
-0.000957761
0.0407891
-0.000941316
0.0408787
-0.000925151
0.0409668
-0.000909261
0.0410533
-0.00089364
0.0411384
-0.000878286
0.041222
-0.000863193
0.0413042
-0.000848357
0.041385
-0.000833775
0.0414644
-0.000819439
0.0415424
-0.00080535
0.0416191
-0.0007915
0.0416945
-0.000777886
0.0417685
-0.000764506
0.0418413
-0.000751353
0.0419128
-0.000738425
0.0419832
-0.000725719
0.0420522
-0.000713228
0.0421202
-0.000700952
0.0421869
-0.000688887
0.0422525
-0.000677027
0.0423169
-0.00066537
0.0423803
-0.000653914
0.0424426
-0.000642652
0.0425037
-0.000631585
0.0425639
-0.000620707
0.042623
-0.000610016
0.0426811
-0.000599508
0.0427381
-0.000589179
0.0427942
-0.000579029
0.0428494
-0.000569052
0.0429035
-0.000559247
0.0429568
-0.00054961
0.0430091
-0.00054014
0.0430605
-0.000530832
0.0431111
-0.000521685
0.0431608
-0.000512696
0.0432096
-0.000503862
0.0432575
-0.000495182
0.0433047
-0.000486654
0.043351
-0.000478277
0.0433966
-0.000470049
0.0434413
-0.000461972
0.0434853
-0.000454046
-0.000446272
0.0435285
0.0264172
-0.00381614
0.0267463
-0.00375098
0.0270698
-0.00368696
0.0273878
-0.00362405
0.0277004
-0.00356223
0.0280076
-0.00350148
0.0283096
-0.00344178
0.0286065
-0.00338312
0.0288982
-0.00332547
0.0291851
-0.00326882
0.029467
-0.00321314
0.0297441
-0.00315843
0.0300165
-0.00310466
0.0302843
-0.00305181
0.0305475
-0.00299987
0.0308063
-0.00294882
0.0310606
-0.00289865
0.0313106
-0.00284934
0.0315564
-0.00280088
0.0317979
-0.00275324
0.0320354
-0.00270642
0.0322688
-0.00266039
0.0324983
-0.00261515
0.0327239
-0.00257069
0.0329456
-0.00252698
0.0331635
-0.00248401
0.0333778
-0.00244177
0.0335884
-0.00240025
0.0337954
-0.00235943
0.0339989
-0.00231931
0.0341989
-0.00227986
0.0343956
-0.00224108
0.0345889
-0.00220296
0.0347789
-0.00216548
0.0349657
-0.00212863
0.0351493
-0.00209241
0.0353297
-0.0020568
0.0355071
-0.00202179
0.0356815
-0.00198736
0.0358529
-0.00195352
0.0360214
-0.00192025
0.036187
-0.00188754
0.0363498
-0.00185537
0.0365099
-0.00182375
0.0366672
-0.00179267
0.0368218
-0.0017621
0.0369738
-0.00173205
0.0371232
-0.0017025
0.03727
-0.00167346
0.0374143
-0.0016449
0.0375562
-0.00161682
0.0376957
-0.00158921
0.0378327
-0.00156207
0.0379675
-0.00153539
0.0380999
-0.00150915
0.0382301
-0.00148336
0.038358
-0.001458
0.0384838
-0.00143307
0.0386074
-0.00140856
0.0387289
-0.00138446
0.0388483
-0.00136077
0.0389656
-0.00133748
0.039081
-0.00131459
0.0391944
-0.00129208
0.0393058
-0.00126995
0.0394154
-0.00124819
0.039523
-0.0012268
0.0396288
-0.00120578
0.0397328
-0.00118511
0.0398351
-0.00116478
0.0399355
-0.00114481
0.0400343
-0.00112517
0.0401313
-0.00110587
0.0402267
-0.00108689
0.0403204
-0.00106824
0.0404126
-0.0010499
0.0405031
-0.00103187
0.0405921
-0.00101415
0.0406796
-0.000996733
0.0407656
-0.000979611
0.0408501
-0.000962779
0.0409331
-0.000946235
0.0410147
-0.000929973
0.0410949
-0.000913986
0.0411738
-0.000898273
0.0412512
-0.000882827
0.0413274
-0.000867646
0.0414022
-0.000852722
0.0414758
-0.000838055
0.0415481
-0.000823636
0.0416191
-0.000809466
0.0416889
-0.000795537
0.0417575
-0.000781844
0.041825
-0.000768389
0.0418912
-0.000755162
0.0419564
-0.000742161
0.0420204
-0.000729384
0.0420833
-0.000716824
0.0421451
-0.00070448
0.0422059
-0.000692348
0.0422656
-0.000680424
0.0423243
-0.000668703
0.042382
-0.000657184
0.0424387
-0.000645862
0.0424944
-0.000634736
0.0425491
-0.000623799
0.0426029