/*--------------------------------*- C++ -*----------------------------------*\
  =========                 |
  \\      /  F ield         | OpenFOAM: The Open Source CFD Toolbox
   \\    /   O peration     | Website:  https://openfoam.org
    \\  /    A nd           | Version:  9
     \\/     M anipulation  |
\*---------------------------------------------------------------------------*/
FoamFile
{
    format      ascii;
    class       volScalarField;
    location    "0.005";
    object      alphat;
}
// * * * * * * * * * * * * * * * * * * * * * * * * * * * * * * * * * * * * * //

dimensions      [1 -1 -1 0 0 0 0];

internalField   nonuniform List<scalar> 
12072
(
0.0163763
0.0163763
0.0163766
0.0163769
0.0163771
0.0163773
0.0163776
0.0163778
0.016378
0.0163782
0.0163784
0.0163786
0.0163788
0.016379
0.0163791
0.0163793
0.0163795
0.0163797
0.0163798
0.01638
0.0163802
0.0163803
0.0163805
0.0163806
0.0163808
0.0163809
0.0163811
0.0163812
0.0163813
0.0163815
0.0163816
0.0163817
0.0163819
0.016382
0.0163821
0.0163822
0.0163824
0.0163825
0.0163826
0.0163827
0.0163828
0.0163829
0.016383
0.0163831
0.0163832
0.0163833
0.0163834
0.0163835
0.0163836
0.0163837
0.0163838
0.0163839
0.016384
0.0163841
0.0163842
0.0163843
0.0163844
0.0163845
0.0163846
0.0163847
0.0163848
0.0163864
0.0163867
0.0163869
0.0163872
0.0163876
0.0163879
0.0163882
0.0163886
0.0163889
0.0163892
0.0163895
0.0163899
0.0163902
0.0163905
0.0163908
0.0163911
0.0163914
0.0163917
0.016392
0.0163923
0.0163927
0.016393
0.0163933
0.0163936
0.0163939
0.0163942
0.0163945
0.0163948
0.0163951
0.0163954
0.0163958
0.0163961
0.0163964
0.0163967
0.016397
0.0163974
0.0163977
0.016398
0.0163984
0.0163987
0.0163991
0.0163995
0.0163998
0.0164002
0.0164006
0.016401
0.0164014
0.0164018
0.0164022
0.0164027
0.0164031
0.0164036
0.0164041
0.0164046
0.0164051
0.0164056
0.0164062
0.0164067
0.0164073
0.016408
0.0164086
0.0163683
0.0163682
0.0163681
0.0163679
0.0163677
0.0163675
0.0163672
0.016367
0.0163668
0.0163666
0.0163663
0.0163661
0.0163659
0.0163657
0.0163655
0.0163652
0.016365
0.0163648
0.0163646
0.0163644
0.0163642
0.0163641
0.0163639
0.0163637
0.0163636
0.0163635
0.0163634
0.0163633
0.0163632
0.0163632
0.0163631
0.0163631
0.0163631
0.0163631
0.0163631
0.0163631
0.0163632
0.0163632
0.0163632
0.0163633
0.0163633
0.0163634
0.0163634
0.0163635
0.0163636
0.0163637
0.0163638
0.0163639
0.016364
0.0163641
0.0163643
0.0163644
0.0163646
0.0163648
0.016365
0.0163652
0.0163654
0.0163657
0.0163659
0.0163662
0.0163666
0.0163436
0.0163436
0.0163436
0.0163436
0.0163437
0.0163439
0.0163442
0.0163445
0.0163449
0.0163453
0.0163458
0.0163463
0.0163469
0.0163475
0.0163482
0.0163488
0.0163494
0.01635
0.0163507
0.0163513
0.0163519
0.0163525
0.0163531
0.0163537
0.0163544
0.016355
0.0163556
0.0163562
0.0163568
0.0163573
0.0163579
0.0163585
0.0163591
0.0163597
0.0163603
0.0163608
0.0163614
0.016362
0.0163625
0.0163631
0.0163636
0.0163642
0.0163647
0.0163652
0.0163658
0.0163663
0.0163668
0.0163673
0.0163679
0.0163684
0.0163689
0.0163694
0.0163699
0.0163703
0.0163708
0.0163713
0.0163718
0.0163722
0.0163727
0.0163731
0.0163736
0.0163619
0.0163619
0.0163619
0.0163619
0.016362
0.016362
0.016362
0.016362
0.016362
0.016362
0.0163621
0.0163621
0.0163621
0.0163621
0.0163621
0.0163621
0.016362
0.0163619
0.0163618
0.0163615
0.0163612
0.0163609
0.0163607
0.0163606
0.0163605
0.0163605
0.0163604
0.0163604
0.0163605
0.0163605
0.0163606
0.0163607
0.0163608
0.0163609
0.0163611
0.0163612
0.0163614
0.0163615
0.0163617
0.0163618
0.016362
0.0163621
0.0163623
0.0163624
0.0163625
0.0163627
0.0163628
0.0163629
0.0163631
0.0163632
0.0163633
0.0163634
0.0163636
0.0163637
0.0163638
0.0163639
0.016364
0.0163642
0.0163643
0.0163644
0.0163645
0.0163217
0.0163216
0.0163216
0.0163215
0.0163215
0.0163214
0.0163214
0.0163214
0.0163213
0.0163213
0.0163213
0.0163213
0.0163213
0.0163213
0.0163212
0.0163211
0.0163209
0.0163206
0.0163203
0.01632
0.01632
0.0163199
0.0163199
0.01632
0.01632
0.0163201
0.0163202
0.0163203
0.0163205
0.0163206
0.0163208
0.016321
0.0163212
0.0163214
0.0163217
0.0163219
0.0163222
0.0163225
0.0163228
0.0163231
0.0163234
0.0163238
0.0163241
0.0163244
0.0163247
0.016325
0.0163253
0.0163256
0.0163259
0.0163262
0.0163265
0.0163268
0.016327
0.0163273
0.0163276
0.0163278
0.016328
0.0163283
0.0163285
0.0163287
0.0163289
0.0162861
0.0162864
0.0162867
0.0162869
0.0162872
0.0162874
0.0162876
0.0162879
0.0162881
0.0162882
0.0162884
0.0162886
0.0162887
0.0162889
0.016289
0.0162891
0.0162892
0.0162893
0.0162893
0.0162894
0.0162894
0.0162894
0.0162894
0.0162894
0.0162893
0.0162893
0.0162891
0.0162888
0.0162885
0.0162881
0.0162878
0.0162874
0.0162871
0.0162867
0.0162864
0.016286
0.0162857
0.0162854
0.016285
0.0162847
0.0162844
0.016284
0.0162837
0.0162834
0.0162831
0.0162827
0.0162824
0.0162821
0.0162818
0.0162815
0.0162812
0.0162809
0.0162806
0.0162803
0.01628
0.0162796
0.0162793
0.016279
0.0162787
0.0162785
0.0162782
0.0162645
0.0162646
0.0162648
0.016265
0.0162652
0.0162655
0.0162657
0.016266
0.0162662
0.0162665
0.0162668
0.0162671
0.0162674
0.0162677
0.016268
0.0162683
0.0162687
0.016269
0.0162693
0.0162697
0.01627
0.0162704
0.0162707
0.0162711
0.0162715
0.0162718
0.0162721
0.0162725
0.0162728
0.0162731
0.0162734
0.0162737
0.016274
0.0162742
0.0162745
0.0162748
0.016275
0.0162752
0.0162754
0.0162756
0.0162758
0.016276
0.0162762
0.0162763
0.0162764
0.0162765
0.0162766
0.0162767
0.0162768
0.0162768
0.0162768
0.0162768
0.0162768
0.0162767
0.0162766
0.0162764
0.0162761
0.0162757
0.0162751
0.0162746
0.0162741
0.0162512
0.0162515
0.0162518
0.0162521
0.0162524
0.0162527
0.016253
0.0162533
0.0162535
0.0162538
0.016254
0.0162542
0.0162544
0.0162546
0.0162547
0.0162549
0.016255
0.0162551
0.0162552
0.0162552
0.0162553
0.0162553
0.0162552
0.0162551
0.016255
0.0162546
0.0162541
0.0162536
0.0162531
0.0162526
0.0162521
0.0162516
0.0162511
0.0162506
0.0162502
0.0162497
0.0162492
0.0162487
0.0162483
0.0162478
0.0162473
0.0162468
0.0162464
0.0162459
0.0162455
0.016245
0.0162445
0.0162441
0.0162436
0.0162431
0.0162427
0.0162422
0.0162417
0.0162413
0.0162408
0.0162403
0.0162398
0.0162394
0.0162389
0.0162384
0.0162379
0.0162331
0.0162326
0.016232
0.0162315
0.016231
0.0162304
0.0162299
0.0162293
0.0162288
0.0162283
0.0162278
0.0162275
0.0162274
0.0162275
0.0162276
0.0162277
0.0162279
0.0162281
0.0162284
0.0162288
0.0162291
0.0162295
0.0162298
0.0162302
0.0162305
0.0162308
0.0162311
0.0162314
0.0162317
0.0162319
0.0162322
0.0162324
0.0162326
0.0162328
0.016233
0.0162332
0.0162333
0.0162334
0.0162335
0.0162335
0.0162336
0.0162335
0.0162335
0.0162333
0.0162331
0.0162326
0.016232
0.0162314
0.0162307
0.0162301
0.0162294
0.0162288
0.0162281
0.0162275
0.0162269
0.0162262
0.0162256
0.0162249
0.0162243
0.0162236
0.016223
0.016218
0.0162173
0.0162167
0.016216
0.0162154
0.0162147
0.0162141
0.0162134
0.0162128
0.0162122
0.0162115
0.0162109
0.0162105
0.0162104
0.0162104
0.0162105
0.0162107
0.0162109
0.0162112
0.0162115
0.0162118
0.016212
0.0162123
0.0162125
0.0162127
0.0162128
0.016213
0.0162131
0.0162132
0.0162132
0.0162132
0.0162132
0.0162131
0.0162129
0.0162126
0.0162121
0.0162113
0.0162105
0.0162098
0.0162091
0.0162083
0.0162076
0.0162068
0.0162061
0.0162053
0.0162046
0.0162038
0.0162031
0.0162023
0.0162016
0.0162008
0.0162001
0.0161993
0.0161986
0.0161978
0.0161971
0.0161963
0.0161955
0.0161948
0.016194
0.0161932
0.0162007
0.0162
0.0161992
0.0161985
0.0161977
0.016197
0.0161962
0.0161954
0.0161947
0.0161939
0.0161931
0.0161924
0.0161916
0.0161908
0.0161901
0.0161893
0.0161886
0.0161878
0.016187
0.0161863
0.0161855
0.0161847
0.016184
0.0161832
0.0161824
0.0161817
0.0161809
0.0161801
0.0161794
0.0161786
0.0161779
0.0161771
0.0161764
0.0161759
0.0161758
0.0161758
0.0161758
0.0161758
0.0161757
0.0161756
0.0161754
0.0161749
0.0161741
0.0161733
0.0161725
0.0161716
0.0161708
0.01617
0.0161692
0.0161684
0.0161675
0.0161667
0.0161659
0.0161651
0.0161642
0.0161634
0.0161626
0.0161617
0.0161609
0.01616
0.0161592
0.0161818
0.0161809
0.01618
0.0161791
0.0161783
0.0161774
0.0161765
0.0161756
0.0161747
0.0161738
0.0161729
0.016172
0.0161711
0.0161702
0.0161693
0.0161684
0.0161675
0.0161666
0.0161657
0.0161647
0.0161638
0.0161629
0.016162
0.0161611
0.0161601
0.0161592
0.0161583
0.0161574
0.0161564
0.0161555
0.0161546
0.0161537
0.0161528
0.0161521
0.0161519
0.0161517
0.0161515
0.0161511
0.0161504
0.0161494
0.0161484
0.0161474
0.0161465
0.0161455
0.0161445
0.0161435
0.0161425
0.0161415
0.0161405
0.0161395
0.0161385
0.0161375
0.0161365
0.0161355
0.0161345
0.0161335
0.0161325
0.0161315
0.0161305
0.0161294
0.0161284
0.0161598
0.0161588
0.0161577
0.0161567
0.0161556
0.0161546
0.0161536
0.0161525
0.0161515
0.0161504
0.0161494
0.0161483
0.0161472
0.0161462
0.0161451
0.0161441
0.016143
0.0161419
0.0161409
0.0161398
0.0161387
0.0161376
0.0161365
0.0161355
0.0161344
0.0161333
0.0161322
0.0161311
0.01613
0.0161289
0.0161278
0.0161267
0.0161256
0.0161245
0.0161234
0.0161223
0.0161211
0.01612
0.0161189
0.0161178
0.0161167
0.0161155
0.0161144
0.0161133
0.0161121
0.016111
0.0161099
0.0161087
0.0161076
0.0161064
0.0161053
0.0161041
0.0161029
0.0161018
0.0161006
0.0160994
0.0160983
0.0160971
0.0160959
0.0160947
0.0160935
0.0161352
0.016134
0.0161328
0.0161316
0.0161304
0.0161291
0.0161279
0.0161267
0.0161255
0.0161242
0.016123
0.0161217
0.0161205
0.0161193
0.016118
0.0161168
0.0161155
0.0161142
0.016113
0.0161117
0.0161105
0.0161092
0.0161079
0.0161066
0.0161053
0.0161041
0.0161028
0.0161015
0.0161002
0.0160989
0.0160976
0.0160963
0.016095
0.0160937
0.0160923
0.016091
0.0160897
0.0160884
0.016087
0.0160857
0.0160844
0.016083
0.0160817
0.0160803
0.016079
0.0160776
0.0160763
0.0160749
0.0160735
0.0160721
0.0160708
0.0160694
0.016068
0.0160666
0.0160652
0.0160638
0.0160624
0.016061
0.0160596
0.0160581
0.0160567
0.0161081
0.0161066
0.0161052
0.0161038
0.0161024
0.0161009
0.0160995
0.016098
0.0160966
0.0160952
0.0160937
0.0160923
0.0160908
0.0160893
0.0160879
0.0160864
0.0160849
0.0160835
0.016082
0.0160805
0.016079
0.0160775
0.016076
0.0160745
0.016073
0.0160715
0.01607
0.0160685
0.016067
0.0160655
0.0160639
0.0160624
0.0160609
0.0160593
0.0160578
0.0160562
0.0160547
0.0160531
0.0160515
0.01605
0.0160484
0.0160468
0.0160452
0.0160436
0.016042
0.0160404
0.0160388
0.0160372
0.0160356
0.016034
0.0160323
0.0160307
0.0160291
0.0160274
0.0160258
0.0160241
0.0160225
0.0160208
0.0160191
0.0160174
0.0160158
0.016079
0.0160774
0.0160757
0.016074
0.0160724
0.0160707
0.016069
0.0160673
0.0160657
0.016064
0.0160623
0.0160606
0.0160589
0.0160572
0.0160555
0.0160537
0.016052
0.0160503
0.0160486
0.0160468
0.0160451
0.0160433
0.0160416
0.0160398
0.0160381
0.0160363
0.0160345
0.0160328
0.016031
0.0160292
0.0160274
0.0160256
0.0160238
0.016022
0.0160202
0.0160183
0.0160165
0.0160147
0.0160128
0.016011
0.0160091
0.0160073
0.0160054
0.0160035
0.0160016
0.0159998
0.0159979
0.015996
0.0159941
0.0159921
0.0159902
0.0159883
0.0159864
0.0159844
0.0159825
0.0159805
0.0159786
0.0159766
0.0159746
0.0159726
0.0159706
0.0160483
0.0160464
0.0160445
0.0160425
0.0160406
0.0160386
0.0160367
0.0160347
0.0160327
0.0160308
0.0160288
0.0160268
0.0160248
0.0160228
0.0160208
0.0160188
0.0160168
0.0160148
0.0160128
0.0160108
0.0160087
0.0160067
0.0160047
0.0160026
0.0160005
0.0159985
0.0159964
0.0159943
0.0159922
0.0159902
0.0159881
0.015986
0.0159838
0.0159817
0.0159796
0.0159775
0.0159753
0.0159732
0.015971
0.0159688
0.0159667
0.0159645
0.0159623
0.0159601
0.0159579
0.0159557
0.0159535
0.0159512
0.015949
0.0159468
0.0159445
0.0159422
0.01594
0.0159377
0.0159354
0.0159331
0.0159308
0.0159285
0.0159261
0.0159238
0.0159214
0.0160161
0.0160139
0.0160116
0.0160094
0.0160071
0.0160048
0.0160026
0.0160003
0.015998
0.0159957
0.0159934
0.0159911
0.0159888
0.0159865
0.0159841
0.0159818
0.0159795
0.0159771
0.0159748
0.0159724
0.01597
0.0159677
0.0159653
0.0159629
0.0159605
0.0159581
0.0159556
0.0159532
0.0159508
0.0159483
0.0159459
0.0159434
0.015941
0.0159385
0.015936
0.0159335
0.015931
0.0159285
0.0159259
0.0159234
0.0159209
0.0159183
0.0159157
0.0159132
0.0159106
0.015908
0.0159054
0.0159028
0.0159001
0.0158975
0.0158948
0.0158922
0.0158895
0.0158868
0.0158841
0.0158814
0.0158787
0.015876
0.0158732
0.0158705
0.0158677
0.0159822
0.0159796
0.015977
0.0159743
0.0159717
0.0159691
0.0159664
0.0159638
0.0159611
0.0159585
0.0159558
0.0159531
0.0159504
0.0159477
0.015945
0.0159423
0.0159396
0.0159368
0.0159341
0.0159313
0.0159286
0.0159258
0.015923
0.0159203
0.0159175
0.0159146
0.0159118
0.015909
0.0159062
0.0159033
0.0159005
0.0158976
0.0158947
0.0158918
0.0158889
0.015886
0.0158831
0.0158801
0.0158772
0.0158742
0.0158712
0.0158682
0.0158652
0.0158622
0.0158592
0.0158561
0.0158531
0.01585
0.0158469
0.0158438
0.0158407
0.0158376
0.0158345
0.0158313
0.0158281
0.0158249
0.0158217
0.0158185
0.0158153
0.015812
0.0158088
0.0159463
0.0159433
0.0159402
0.0159372
0.0159341
0.0159311
0.015928
0.0159249
0.0159218
0.0159187
0.0159156
0.0159125
0.0159094
0.0159063
0.0159031
0.0159
0.0158968
0.0158936
0.0158904
0.0158872
0.015884
0.0158808
0.0158776
0.0158743
0.0158711
0.0158678
0.0158645
0.0158612
0.0158579
0.0158546
0.0158513
0.0158479
0.0158445
0.0158412
0.0158378
0.0158344
0.015831
0.0158275
0.0158241
0.0158206
0.0158171
0.0158136
0.0158101
0.0158066
0.015803
0.0157995
0.0157959
0.0157923
0.0157886
0.015785
0.0157814
0.0157777
0.015774
0.0157703
0.0157665
0.0157628
0.015759
0.0157552
0.0157514
0.0157476
0.0157437
0.0159081
0.0159046
0.0159011
0.0158976
0.015894
0.0158905
0.0158869
0.0158833
0.0158797
0.0158762
0.0158726
0.0158689
0.0158653
0.0158617
0.015858
0.0158543
0.0158507
0.015847
0.0158433
0.0158396
0.0158358
0.0158321
0.0158283
0.0158245
0.0158207
0.0158169
0.0158131
0.0158093
0.0158054
0.0158016
0.0157977
0.0157938
0.0157898
0.0157859
0.0157819
0.015778
0.015774
0.01577
0.0157659
0.0157619
0.0157578
0.0157537
0.0157496
0.0157455
0.0157413
0.0157371
0.0157329
0.0157287
0.0157244
0.0157202
0.0157159
0.0157116
0.0157072
0.0157029
0.0156985
0.0156941
0.0156896
0.0156852
0.0156807
0.0156761
0.0156716
0.0158674
0.0158633
0.0158592
0.015855
0.0158509
0.0158468
0.0158426
0.0158385
0.0158343
0.0158302
0.015826
0.0158218
0.0158176
0.0158133
0.0158091
0.0158049
0.0158006
0.0157963
0.015792
0.0157877
0.0157833
0.015779
0.0157746
0.0157702
0.0157658
0.0157614
0.0157569
0.0157525
0.015748
0.0157435
0.0157389
0.0157344
0.0157298
0.0157252
0.0157206
0.015716
0.0157113
0.0157066
0.0157019
0.0156972
0.0156924
0.0156876
0.0156828
0.015678
0.0156731
0.0156682
0.0156633
0.0156583
0.0156534
0.0156484
0.0156433
0.0156383
0.0156332
0.015628
0.0156229
0.0156177
0.0156124
0.0156072
0.0156019
0.0155965
0.0155912
0.0158238
0.015819
0.0158142
0.0158094
0.0158046
0.0157998
0.015795
0.0157901
0.0157853
0.0157804
0.0157756
0.0157707
0.0157658
0.0157609
0.015756
0.015751
0.0157461
0.0157411
0.0157361
0.0157311
0.0157261
0.015721
0.0157159
0.0157108
0.0157057
0.0157006
0.0156954
0.0156902
0.015685
0.0156798
0.0156745
0.0156692
0.0156639
0.0156585
0.0156531
0.0156477
0.0156423
0.0156368
0.0156313
0.0156258
0.0156202
0.0156146
0.015609
0.0156033
0.0155977
0.0155919
0.0155862
0.0155804
0.0155745
0.0155687
0.0155627
0.0155568
0.0155508
0.0155448
0.0155387
0.0155326
0.0155264
0.0155202
0.015514
0.0155077
0.0155013
0.0157771
0.0157715
0.015766
0.0157604
0.0157548
0.0157493
0.0157436
0.015738
0.0157324
0.0157267
0.0157211
0.0157154
0.0157097
0.0157039
0.0156982
0.0156925
0.0156867
0.015681
0.0156752
0.0156694
0.0156635
0.0156577
0.0156518
0.0156458
0.0156399
0.0156339
0.0156279
0.0156219
0.0156158
0.0156097
0.0156036
0.0155974
0.0155912
0.015585
0.0155787
0.0155724
0.0155661
0.0155597
0.0155533
0.0155468
0.0155403
0.0155338
0.0155272
0.0155206
0.015514
0.0155073
0.0155005
0.0154937
0.0154869
0.01548
0.0154731
0.0154661
0.0154591
0.015452
0.0154449
0.0154377
0.0154304
0.0154231
0.0154158
0.0154084
0.0154009
0.0157268
0.0157204
0.015714
0.0157076
0.0157011
0.0156946
0.0156882
0.0156816
0.0156751
0.0156685
0.015662
0.0156554
0.0156487
0.0156421
0.0156354
0.0156287
0.015622
0.0156153
0.0156086
0.0156018
0.015595
0.0155882
0.0155814
0.0155745
0.0155676
0.0155607
0.0155537
0.0155467
0.0155397
0.0155326
0.0155255
0.0155183
0.0155111
0.0155038
0.0154966
0.0154892
0.0154818
0.0154744
0.0154669
0.0154594
0.0154519
0.0154442
0.0154366
0.0154288
0.0154211
0.0154132
0.0154054
0.0153974
0.0153894
0.0153814
0.0153732
0.0153651
0.0153568
0.0153485
0.0153401
0.0153317
0.0153232
0.0153146
0.0153059
0.0152972
0.0152884
0.0156729
0.0156655
0.015658
0.0156506
0.0156431
0.0156356
0.0156281
0.0156205
0.015613
0.0156054
0.0155978
0.0155901
0.0155824
0.0155747
0.015567
0.0155592
0.0155514
0.0155436
0.0155358
0.0155279
0.01552
0.0155121
0.0155042
0.0154962
0.0154882
0.0154802
0.0154721
0.015464
0.0154558
0.0154476
0.0154393
0.015431
0.0154226
0.0154142
0.0154057
0.0153972
0.0153886
0.01538
0.0153713
0.0153625
0.0153537
0.0153448
0.0153359
0.0153269
0.0153178
0.0153087
0.0152995
0.0152902
0.0152808
0.0152714
0.0152619
0.0152523
0.0152427
0.0152329
0.0152231
0.0152132
0.0152032
0.0151931
0.0151829
0.0151727
0.0151623
0.0156148
0.0156062
0.0155976
0.015589
0.0155804
0.0155717
0.015563
0.0155543
0.0155455
0.0155367
0.0155279
0.0155191
0.0155102
0.0155013
0.0154923
0.0154833
0.0154743
0.0154652
0.0154561
0.015447
0.0154378
0.0154286
0.0154194
0.0154101
0.0154008
0.0153915
0.0153822
0.0153727
0.0153633
0.0153537
0.0153441
0.0153345
0.0153248
0.015315
0.0153051
0.0152952
0.0152853
0.0152752
0.0152651
0.0152549
0.0152447
0.0152344
0.0152239
0.0152135
0.0152029
0.0151922
0.0151815
0.0151707
0.0151598
0.0151488
0.0151377
0.0151265
0.0151152
0.0151038
0.0150923
0.0150807
0.015069
0.0150572
0.0150452
0.0150332
0.015021
0.0155523
0.0155424
0.0155325
0.0155225
0.0155125
0.0155025
0.0154924
0.0154823
0.0154722
0.015462
0.0154518
0.0154416
0.0154313
0.015421
0.0154107
0.0154003
0.0153898
0.0153794
0.0153688
0.0153582
0.0153476
0.015337
0.0153262
0.0153155
0.0153047
0.0152938
0.015283
0.0152721
0.0152611
0.01525
0.0152389
0.0152277
0.0152165
0.0152051
0.0151937
0.0151822
0.0151707
0.015159
0.0151473
0.0151355
0.0151236
0.0151116
0.0150995
0.0150873
0.015075
0.0150626
0.0150501
0.0150375
0.0150248
0.015012
0.014999
0.014986
0.0149728
0.0149595
0.0149461
0.0149325
0.0149188
0.014905
0.014891
0.0148769
0.0148626
0.015485
0.0154736
0.0154621
0.0154506
0.015439
0.0154274
0.0154158
0.0154041
0.0153924
0.0153807
0.0153689
0.0153571
0.0153452
0.0153333
0.0153214
0.0153093
0.0152973
0.0152852
0.015273
0.0152608
0.0152485
0.0152361
0.0152237
0.0152113
0.0151987
0.0151862
0.0151735
0.0151609
0.0151482
0.0151354
0.0151225
0.0151096
0.0150966
0.0150834
0.0150702
0.0150569
0.0150435
0.01503
0.0150164
0.0150027
0.0149889
0.014975
0.014961
0.0149468
0.0149325
0.0149182
0.0149036
0.014889
0.0148742
0.0148593
0.0148443
0.0148291
0.0148138
0.0147983
0.0147826
0.0147668
0.0147509
0.0147347
0.0147184
0.0147019
0.0146852
0.0154126
0.0153993
0.015386
0.0153727
0.0153594
0.015346
0.0153326
0.0153191
0.0153056
0.0152921
0.0152785
0.0152648
0.0152511
0.0152374
0.0152236
0.0152097
0.0151958
0.0151818
0.0151677
0.0151536
0.0151394
0.0151252
0.0151108
0.0150964
0.015082
0.0150674
0.0150528
0.0150381
0.0150233
0.0150086
0.0149937
0.0149787
0.0149637
0.0149485
0.0149332
0.0149179
0.0149024
0.0148867
0.014871
0.0148551
0.0148392
0.0148231
0.0148068
0.0147904
0.0147739
0.0147572
0.0147404
0.0147235
0.0147063
0.0146891
0.0146716
0.014654
0.0146362
0.0146182
0.0146
0.0145817
0.0145631
0.0145444
0.0145254
0.0145062
0.0144868
0.0153345
0.0153192
0.0153039
0.0152885
0.0152731
0.0152577
0.0152422
0.0152267
0.0152111
0.0151955
0.0151798
0.015164
0.0151482
0.0151324
0.0151164
0.0151004
0.0150844
0.0150682
0.015052
0.0150357
0.0150193
0.0150029
0.0149864
0.0149697
0.014953
0.0149363
0.0149194
0.0149024
0.0148853
0.0148682
0.014851
0.0148338
0.0148164
0.0147989
0.0147813
0.0147635
0.0147456
0.0147276
0.0147094
0.0146911
0.0146727
0.0146541
0.0146353
0.0146164
0.0145973
0.014578
0.0145586
0.014539
0.0145192
0.0144993
0.0144791
0.0144587
0.0144381
0.0144173
0.0143963
0.0143751
0.0143536
0.0143319
0.0143099
0.0142876
0.0142651
0.0152503
0.0152327
0.015215
0.0151973
0.0151796
0.0151618
0.0151439
0.015126
0.0151081
0.0150901
0.015072
0.0150538
0.0150356
0.0150173
0.014999
0.0149805
0.014962
0.0149434
0.0149247
0.014906
0.0148871
0.0148681
0.0148491
0.01483
0.0148107
0.0147914
0.0147719
0.0147524
0.0147327
0.0147129
0.0146931
0.0146731
0.0146531
0.014633
0.0146127
0.0145922
0.0145716
0.0145508
0.0145299
0.0145088
0.0144876
0.0144662
0.0144446
0.0144228
0.0144008
0.0143786
0.0143563
0.0143337
0.0143109
0.0142879
0.0142647
0.0142412
0.0142175
0.0141936
0.0141694
0.0141449
0.0141201
0.0140951
0.0140698
0.0140442
0.0140182
0.0151597
0.0151394
0.015119
0.0150986
0.0150781
0.0150576
0.0150371
0.0150165
0.0149958
0.014975
0.0149542
0.0149333
0.0149123
0.0148913
0.0148701
0.0148489
0.0148276
0.0148062
0.0147847
0.0147631
0.0147414
0.0147196
0.0146977
0.0146756
0.0146535
0.0146313
0.0146089
0.0145864
0.0145638
0.014541
0.0145182
0.0144952
0.0144722
0.014449
0.0144257
0.0144022
0.0143785
0.0143547
0.0143307
0.0143065
0.0142821
0.0142575
0.0142327
0.0142077
0.0141825
0.0141571
0.0141314
0.0141055
0.0140794
0.014053
0.0140264
0.0139995
0.0139724
0.0139449
0.0139172
0.0138892
0.0138608
0.0138321
0.0138031
0.0137738
0.0137441
0.015062
0.0150386
0.0150151
0.0149916
0.0149681
0.0149445
0.0149208
0.0148971
0.0148733
0.0148494
0.0148255
0.0148014
0.0147773
0.0147531
0.0147288
0.0147044
0.0146799
0.0146553
0.0146305
0.0146057
0.0145808
0.0145557
0.0145306
0.0145053
0.0144799
0.0144543
0.0144287
0.0144029
0.0143769
0.0143508
0.0143246
0.0142983
0.0142718
0.0142452
0.0142185
0.0141916
0.0141645
0.0141372
0.0141097
0.014082
0.0140541
0.014026
0.0139977
0.0139691
0.0139404
0.0139113
0.0138821
0.0138525
0.0138227
0.0137927
0.0137623
0.0137317
0.0137007
0.0136695
0.0136379
0.013606
0.0135737
0.0135411
0.0135081
0.0134748
0.013441
0.0149568
0.0149298
0.0149028
0.0148758
0.0148487
0.0148215
0.0147943
0.014767
0.0147397
0.0147122
0.0146847
0.0146571
0.0146294
0.0146016
0.0145736
0.0145456
0.0145175
0.0144893
0.0144609
0.0144324
0.0144038
0.0143751
0.0143463
0.0143173
0.0142882
0.0142589
0.0142295
0.0142
0.0141703
0.0141405
0.0141105
0.0140804
0.0140501
0.0140197
0.0139892
0.0139585
0.0139276
0.0138965
0.0138652
0.0138336
0.0138019
0.0137699
0.0137377
0.0137052
0.0136725
0.0136395
0.0136063
0.0135728
0.013539
0.013505
0.0134706
0.0134359
0.0134009
0.0133656
0.0133299
0.0132938
0.0132574
0.0132206
0.0131834
0.0131458
0.0131078
0.0148435
0.0148124
0.0147814
0.0147503
0.0147191
0.0146879
0.0146566
0.0146253
0.0145939
0.0145624
0.0145308
0.0144991
0.0144673
0.0144354
0.0144034
0.0143712
0.014339
0.0143067
0.0142742
0.0142416
0.0142089
0.014176
0.014143
0.0141099
0.0140767
0.0140433
0.0140097
0.013976
0.0139422
0.0139082
0.013874
0.0138397
0.0138053
0.0137707
0.0137359
0.0137011
0.013666
0.0136307
0.0135952
0.0135594
0.0135235
0.0134873
0.0134508
0.0134142
0.0133772
0.01334
0.0133026
0.0132648
0.0132268
0.0131885
0.0131498
0.0131109
0.0130716
0.013032
0.012992
0.0129516
0.0129109
0.0128697
0.0128282
0.0127862
0.0127437
0.0147214
0.0146857
0.01465
0.0146143
0.0145785
0.0145427
0.0145068
0.0144708
0.0144348
0.0143986
0.0143624
0.0143261
0.0142897
0.0142531
0.0142165
0.0141798
0.0141429
0.0141059
0.0140688
0.0140316
0.0139943
0.0139568
0.0139192
0.0138814
0.0138436
0.0138056
0.0137674
0.0137291
0.0136907
0.0136521
0.0136134
0.0135745
0.0135354
0.0134963
0.0134569
0.0134175
0.0133779
0.0133381
0.013298
0.0132578
0.0132173
0.0131766
0.0131357
0.0130946
0.0130532
0.0130115
0.0129696
0.0129274
0.012885
0.0128422
0.0127991
0.0127558
0.0127121
0.012668
0.0126236
0.0125789
0.0125337
0.0124882
0.0124422
0.0123958
0.0123489
0.0145899
0.0145489
0.0145079
0.0144669
0.0144259
0.0143848
0.0143436
0.0143024
0.0142611
0.0142198
0.0141783
0.0141368
0.0140951
0.0140534
0.0140116
0.0139696
0.0139276
0.0138854
0.0138431
0.0138008
0.0137583
0.0137157
0.0136729
0.0136301
0.0135871
0.0135441
0.0135009
0.0134575
0.0134141
0.0133705
0.0133268
0.013283
0.013239
0.0131949
0.0131507
0.0131064
0.013062
0.0130173
0.0129725
0.0129275
0.0128823
0.0128369
0.0127913
0.0127455
0.0126995
0.0126532
0.0126067
0.01256
0.012513
0.0124658
0.0124183
0.0123704
0.0123223
0.0122739
0.0122251
0.012176
0.0121265
0.0120766
0.0120264
0.0119757
0.0119245
0.0144484
0.0144013
0.0143543
0.0143073
0.0142602
0.0142132
0.0141661
0.0141189
0.0140717
0.0140244
0.0139771
0.0139297
0.0138822
0.0138346
0.013787
0.0137392
0.0136914
0.0136435
0.0135955
0.0135474
0.0134992
0.013451
0.0134027
0.0133542
0.0133057
0.0132572
0.0132085
0.0131597
0.0131109
0.013062
0.013013
0.0129639
0.0129147
0.0128654
0.0128161
0.0127667
0.0127171
0.0126675
0.0126177
0.0125678
0.0125178
0.0124676
0.0124172
0.0123667
0.012316
0.0122651
0.0122141
0.0121628
0.0121113
0.0120596
0.0120077
0.0119556
0.0119031
0.0118504
0.0117975
0.0117442
0.0116905
0.0116366
0.0115822
0.0115275
0.0114723
0.014296
0.0142421
0.0141882
0.0141343
0.0140805
0.0140267
0.0139729
0.013919
0.0138652
0.0138112
0.0137573
0.0137033
0.0136493
0.0135952
0.0135411
0.0134869
0.0134327
0.0133785
0.0133242
0.0132699
0.0132156
0.0131612
0.0131068
0.0130524
0.012998
0.0129435
0.012889
0.0128345
0.01278
0.0127254
0.0126709
0.0126163
0.0125617
0.012507
0.0124524
0.0123977
0.0123431
0.0122883
0.0122336
0.0121787
0.0121238
0.0120688
0.0120137
0.0119586
0.0119033
0.0118479
0.0117924
0.0117368
0.011681
0.0116251
0.011569
0.0115128
0.0114563
0.0113996
0.0113427
0.0112856
0.0112281
0.0111704
0.0111124
0.011054
0.0109952
0.0141321
0.0140703
0.0140086
0.0139471
0.0138856
0.0138242
0.0137628
0.0137014
0.0136401
0.0135788
0.0135175
0.0134562
0.0133949
0.0133337
0.0132725
0.0132113
0.0131501
0.013089
0.0130279
0.0129669
0.012906
0.012845
0.0127842
0.0127234
0.0126627
0.0126021
0.0125415
0.012481
0.0124206
0.0123603
0.0123
0.0122398
0.0121797
0.0121197
0.0120597
0.0119999
0.0119401
0.0118803
0.0118206
0.011761
0.0117013
0.0116417
0.0115821
0.0115225
0.0114629
0.0114033
0.0113436
0.0112839
0.0112242
0.0111644
0.0111045
0.0110445
0.0109844
0.0109241
0.0108638
0.0108032
0.0107424
0.0106814
0.0106202
0.0105587
0.0104969
0.0139559
0.0138852
0.0138147
0.0137444
0.0136743
0.0136044
0.0135345
0.0134648
0.0133951
0.0133256
0.0132562
0.0131869
0.0131177
0.0130487
0.0129797
0.0129109
0.0128423
0.0127738
0.0127055
0.0126373
0.0125694
0.0125016
0.012434
0.0123666
0.0122994
0.0122324
0.0121657
0.0120991
0.0120327
0.0119666
0.0119007
0.0118349
0.0117694
0.0117041
0.011639
0.011574
0.0115093
0.0114448
0.0113804
0.0113162
0.0112521
0.0111882
0.0111244
0.0110607
0.0109971
0.0109336
0.0108703
0.0108069
0.0107437
0.0106805
0.0106173
0.010554
0.0104908
0.0104276
0.0103642
0.0103008
0.0102373
0.0101736
0.0101098
0.0100458
0.00998151
0.0137664
0.0136857
0.0136054
0.0135253
0.0134455
0.013366
0.0132868
0.0132078
0.013129
0.0130504
0.0129721
0.0128941
0.0128163
0.0127388
0.0126616
0.0125847
0.0125082
0.0124319
0.012356
0.0122804
0.0122052
0.0121304
0.0120559
0.0119818
0.0119081
0.0118348
0.0117618
0.0116892
0.011617
0.0115452
0.0114738
0.0114027
0.011332
0.0112617
0.0111917
0.0111221
0.0110528
0.0109838
0.0109151
0.0108468
0.0107787
0.0107109
0.0106434
0.0105762
0.0105092
0.0104424
0.0103758
0.0103094
0.0102432
0.0101772
0.0101112
0.0100454
0.0099797
0.00991403
0.00984839
0.00978277
0.00971713
0.00965144
0.00958568
0.0095198
0.00945378
0.013563
0.013471
0.0133795
0.0132886
0.0131981
0.013108
0.0130184
0.0129291
0.0128404
0.012752
0.0126641
0.0125767
0.0124898
0.0124033
0.0123174
0.012232
0.0121472
0.0120629
0.0119792
0.0118961
0.0118136
0.0117317
0.0116503
0.0115696
0.0114895
0.01141
0.0113311
0.0112527
0.011175
0.0110978
0.0110213
0.0109452
0.0108698
0.0107949
0.0107205
0.0106466
0.0105732
0.0105003
0.0104279
0.010356
0.0102846
0.0102135
0.0101429
0.0100727
0.0100029
0.00993343
0.00986432
0.00979552
0.00972703
0.0096588
0.00959082
0.00952307
0.00945551
0.00938812
0.00932088
0.00925374
0.00918668
0.00911966
0.00905266
0.00898564
0.00891855
0.0133448
0.0132401
0.0131362
0.0130331
0.0129307
0.0128291
0.0127281
0.0126278
0.0125282
0.0124294
0.0123313
0.0122339
0.0121374
0.0120416
0.0119467
0.0118526
0.0117594
0.011667
0.0115755
0.0114849
0.0113952
0.0113064
0.0112184
0.0111313
0.0110451
0.0109598
0.0108753
0.0107917
0.0107089
0.0106269
0.0105457
0.0104653
0.0103856
0.0103067
0.0102285
0.010151
0.0100742
0.00999809
0.00992262
0.00984781
0.00977361
0.00970002
0.00962701
0.00955455
0.00948263
0.0094112
0.00934025
0.00926976
0.00919968
0.00913
0.00906069
0.00899171
0.00892304
0.00885464
0.00878649
0.00871854
0.00865077
0.00858313
0.0085156
0.00844813
0.00838068
0.0131108
0.012992
0.0128744
0.012758
0.0126426
0.0125283
0.012415
0.0123028
0.0121917
0.0120818
0.011973
0.0118653
0.0117589
0.0116536
0.0115496
0.0114468
0.0113453
0.011245
0.0111459
0.0110481
0.0109515
0.0108562
0.010762
0.0106691
0.0105773
0.0104867
0.0103973
0.0103089
0.0102217
0.0101355
0.0100504
0.00996624
0.00988311
0.00980094
0.0097197
0.00963936
0.00955984
0.00948121
0.00940343
0.00932648
0.00925032
0.00917492
0.00910026
0.0090263
0.00895302
0.00888037
0.00880834
0.00873688
0.00866596
0.00859556
0.00852564
0.00845615
0.00838708
0.00831838
0.00825002
0.00818196
0.00811417
0.0080466
0.00797921
0.00791197
0.00784483
0.0128604
0.012726
0.0125933
0.0124622
0.0123326
0.0122047
0.0120784
0.0119536
0.0118305
0.011709
0.0115892
0.0114711
0.0113547
0.01124
0.011127
0.0110157
0.0109062
0.0107983
0.0106921
0.0105876
0.0104847
0.0103835
0.0102838
0.0101856
0.010089
0.0099939
0.00990022
0.00980795
0.00971706
0.0096275
0.00953923
0.00945222
0.00936643
0.00928182
0.00919834
0.00911594
0.00903455
0.00895423
0.00887494
0.00879665
0.00871932
0.00864291
0.00856738
0.00849269
0.00841881
0.0083457
0.00827332
0.00820164
0.00813061
0.0080602
0.00799037
0.00792108
0.00785229
0.00778397
0.00771607
0.00764856
0.0075814
0.00751453
0.00744793
0.00738154
0.00731533
0.0125928
0.0124411
0.0122919
0.0121449
0.0120002
0.0118579
0.0117177
0.0115799
0.0114444
0.0113112
0.0111804
0.0110518
0.0109257
0.0108018
0.0106803
0.010561
0.010444
0.0103292
0.0102166
0.0101061
0.00999774
0.00989136
0.00978697
0.0096845
0.00958391
0.00948513
0.00938812
0.00929282