/*--------------------------------*- C++ -*----------------------------------*\
  =========                 |
  \\      /  F ield         | OpenFOAM: The Open Source CFD Toolbox
   \\    /   O peration     | Website:  https://openfoam.org
    \\  /    A nd           | Version:  9
     \\/     M anipulation  |
\*---------------------------------------------------------------------------*/
FoamFile
{
    format      ascii;
    class       volScalarField;
    location    "0.005";
    object      alphat;
}
// * * * * * * * * * * * * * * * * * * * * * * * * * * * * * * * * * * * * * //

dimensions      [1 -1 -1 0 0 0 0];

internalField   nonuniform List<scalar> 
6352
(
0.00125239
0.000147511
2.39008e-05
6.38272e-06
2.67142e-06
1.48655e-06
1.4877e-06
1.54264e-06
1.38517e-06
1.12778e-06
8.81157e-07
7.07764e-07
6.04959e-07
5.88784e-07
9.5889e-07
1.38451e-06
1.76699e-06
6.23981e-07
0.00359465
0.000892224
0.000461538
0.000308992
0.000232229
0.000186317
0.000190127
0.000193361
0.000184708
0.000169127
0.000151303
0.000135382
0.000122682
0.000113002
0.000106191
0.000101097
9.60756e-05
8.74903e-05
0.00572685
0.00169774
0.000900345
0.000603275
0.00045397
0.000361398
0.000307194
0.000285555
0.000260624
0.000234783
0.000209467
0.000188047
0.000171277
0.00015834
0.000148575
0.000140857
0.000133453
0.000124751
0.000114251
0.00767096
0.00258316
0.0013655
0.000900552
0.000664498
0.000517998
0.00041724
0.000355587
0.000307272
0.000267241
0.000233838
0.000209469
0.000192443
0.00018055
0.000173149
0.000169131
0.000166359
0.000162802
0.000156634
0.00942726
0.00348062
0.00183756
0.00119538
0.000865196
0.000659322
0.000514039
0.000416072
0.000346206
0.000294154
0.000255432
0.000234929
0.000224171
0.000215279
0.000207131
0.000200614
0.0001953
0.000189661
0.000182876
0.000177195
0.01099
0.00434967
0.00229985
0.00147893
0.00105071
0.000781944
0.000604855
0.00048625
0.000404298
0.000345539
0.000302081
0.000277039
0.000260435
0.000245822
0.000232269
0.000221489
0.000213072
0.000206113
0.000199711
0.000194532
0.0123485
0.0051581
0.00273748
0.00174218
0.00121464
0.000897433
0.000695283
0.000561966
0.000470784
0.000405078
0.000354656
0.000318472
0.000289262
0.000266218
0.000248801
0.000236909
0.000228144
0.000220613
0.000213685
0.000207195
0.0134864
0.00587265
0.00313603
0.00197522
0.00136394
0.00100653
0.000782779
0.000636215
0.00053543
0.000461007
0.000401322
0.000354286
0.000317151
0.000288048
0.00026651
0.000252403
0.000241219
0.000230673
0.000221394
0.000213512
0.0143786
0.0064629
0.00348073
0.0021734
0.00149585
0.00110455
0.000861158
0.000701673
0.000590756
0.000506073
0.000439286
0.000386647
0.000345156
0.000312177
0.000286018
0.000264425
0.000246084
0.000231932
0.000221291
0.000212784
0.014982
0.00689813
0.00373347
0.00231095
0.00158723
0.00117376
0.00091728
0.00074862
0.00062717
0.000535443
0.00046492
0.000409488
0.000365317
0.000328646
0.000297543
0.000271241
0.000249356
0.000231659
0.000218745
0.000207771
0.0150841
0.0069433
0.00373848
0.00231021
0.00158997
0.00117642
0.000917939
0.000747696
0.000625936
0.000534438
0.000464239
0.000408427
0.000363496
0.00032664
0.000295786
0.000268868
0.000246398
0.000227572
0.000212325
0.000199496
0.0148671
0.00680111
0.00365917
0.00225734
0.00155244
0.00115022
0.000897005
0.00072902
0.000610384
0.00052084
0.000451796
0.00039734
0.000353044
0.000316432
0.000285726
0.000259639
0.000237224
0.000217921
0.000201816
0.000188231
0.0144256
0.00651199
0.00350402
0.00215702
0.00148023
0.00109747
0.000856454
0.000694333
0.00058011
0.000495517
0.000429301
0.000376714
0.000334088
0.00029928
0.000269214
0.000243819
0.000222309
0.000204064
0.000188626
0.000175512
0.0136883
0.00608598
0.00327877
0.0020148
0.00137668
0.00101873
0.000797223
0.000645934
0.000538016
0.000458369
0.000397184
0.000348335
0.000307657
0.00027407
0.000245861
0.000222566
0.000203112
0.000186242
0.000171333
0.000159507
0.0126635
0.00547962
0.002978
0.00183543
0.00124599
0.000914624
0.000712985
0.00057971
0.000482775
0.000409001
0.000351659
0.000306642
0.000270811
0.000240829
0.000214213
0.000192446
0.00017542
0.000161608
0.000151598
0.00014621
0.0113404
0.00469308
0.00256151
0.00160219
0.00108613
0.000788929
0.000607439
0.000489878
0.000408107
0.000347737
0.000296985
0.000255323
0.000222994
0.000196433
0.00017462
0.000159255
0.000149048
0.000142084
0.000135251
0.000128292
0.00968759
0.00373113
0.00203908
0.00130352
0.000902178
0.000653284
0.000494332
0.000389118
0.000316654
0.000264824
0.000224837
0.000193577
0.000175071
0.000154373
0.000135803
0.000121569
0.000113057
0.00010949
0.000106725
0.000108775
0.00764708
0.00261928
0.00143428
0.000938398
0.000672374
0.000505922
0.000384998
0.000297399
0.000232838
0.000183309
0.000144747
0.000115777
9.79444e-05
9.37099e-05
9.39574e-05
9.22335e-05
8.94006e-05
8.67401e-05
8.52177e-05
8.56408e-05
0.00512026
0.00149685
0.000792658
0.00052998
0.000392191
0.000304091
0.000237601
0.000202914
0.000173985
0.000142382
0.000112964
8.91072e-05
7.26466e-05
6.37131e-05
5.8973e-05
5.41693e-05
4.74908e-05
4.08586e-05
3.65302e-05
4.78763e-05
0.0019396
0.000329035
0.000107587
3.84394e-05
1.54249e-05
7.02141e-06
3.42729e-06
2.13339e-06
1.44629e-06
9.43104e-07
6.18849e-07
5.34117e-07
1.00904e-06
1.37273e-06
1.58933e-06
1.58588e-06
6.05339e-07
5.47866e-07
1.1662e-06
1.60172e-06
0.000203894
0.000208643
0.000203868
0.000206423
0.000200368
0.000194482
0.000199613
0.000192765
0.000184817
0.000189412
0.000180129
0.000170948
0.00016207
0.000176936
0.00016654
0.000156994
0.00014846
0.000163986
0.000153573
0.000144714
0.00013737
0.000132147
0.000149112
0.000140606
0.000135011
0.000130659
0.000127034
0.000124016
0.000139638
0.000133311
0.000128195
0.000124102
0.000120698
0.000117738
0.000123137
0.000119466
0.000116502
0.000113911
0.000111478
0.000109055
0.000108043
0.000106454
0.000104503
0.000102269
9.96995e-05
9.67581e-05
9.34866e-05
8.2361e-05
8.1238e-05
8.01244e-05
7.84492e-05
7.6144e-05
7.32597e-05
7.03946e-05
5.72361e-05
5.98675e-05
5.95678e-05
5.79508e-05
5.54412e-05
5.16164e-05
4.97609e-05
4.68898e-05
2.01042e-06
2.0213e-06
1.88237e-06
1.7018e-06
1.42949e-06
4.583e-07
9.22579e-07
9.73238e-07
0.0163527
0.0163527
0.0163527
0.0163526
0.0163526
0.0163525
0.0163525
0.0163524
0.0163524
0.0163523
0.0163522
0.0163522
0.0163521
0.0163521
0.016352
0.0163519
0.0163519
0.0163518
0.0163517
0.0163517
0.0163516
0.0163515
0.0163515
0.0163514
0.0163513
0.0163513
0.0163512
0.0163511
0.016351
0.016351
0.0163509
0.0163508
0.0163508
0.0163507
0.0163506
0.0163505
0.0163505
0.0163504
0.0163503
0.0163503
0.0163502
0.0163501
0.01635
0.01635
0.0163499
0.0163498
0.0163498
0.0163497
0.0163496
0.0163495
0.0163495
0.0163494
0.0163493
0.0163492
0.0163492
0.0163491
0.016349
0.0163489
0.0163489
0.0163488
0.0163487
0.0163361
0.0163362
0.0163363
0.0163364
0.0163365
0.0163366
0.0163366
0.0163367
0.0163368
0.0163368
0.0163369
0.0163369
0.016337
0.016337
0.016337
0.016337
0.016337
0.016337
0.016337
0.016337
0.0163369
0.0163368
0.0163366
0.0163365
0.0163365
0.0163364
0.0163364
0.0163364
0.0163364
0.0163364
0.0163364
0.0163365
0.0163365
0.0163365
0.0163365
0.0163365
0.0163365
0.0163365
0.0163365
0.0163365
0.0163365
0.0163365
0.0163365
0.0163365
0.0163366
0.0163366
0.0163366
0.0163366
0.0163366
0.0163366
0.0163366
0.0163366
0.0163366
0.0163366
0.0163366
0.0163367
0.0163367
0.0163367
0.0163367
0.0163367
0.0163367
0.0163202
0.0163203
0.0163203
0.0163204
0.0163204
0.0163205
0.0163205
0.0163206
0.0163206
0.0163206
0.0163207
0.0163207
0.0163208
0.0163208
0.0163208
0.0163209
0.0163209
0.0163209
0.0163209
0.0163209
0.0163209
0.0163209
0.0163209
0.0163208
0.0163207
0.0163205
0.0163204
0.0163202
0.0163201
0.0163199
0.0163197
0.0163196
0.0163194
0.0163193
0.0163191
0.0163189
0.0163188
0.0163186
0.0163185
0.0163183
0.0163181
0.016318
0.0163178
0.0163177
0.0163175
0.0163173
0.0163172
0.016317
0.0163169
0.0163167
0.0163165
0.0163164
0.0163162
0.0163161
0.0163159
0.0163158
0.0163156
0.0163154
0.0163153
0.0163151
0.016315
0.0162988
0.0162989
0.0162989
0.016299
0.0162991
0.0162992
0.0162993
0.0162994
0.0162995
0.0162995
0.0162996
0.0162997
0.0162997
0.0162998
0.0162998
0.0162998
0.0162999
0.0162999
0.0162999
0.0162998
0.0162997
0.0162995
0.0162993
0.0162991
0.0162989
0.0162986
0.0162984
0.0162982
0.016298
0.0162978
0.0162976
0.0162974
0.0162971
0.0162969
0.0162967
0.0162965
0.0162963
0.0162961
0.0162959
0.0162957
0.0162955
0.0162953
0.0162951
0.016295
0.016295
0.016295
0.016295
0.016295
0.0162951
0.0162951
0.0162952
0.0162952
0.0162953
0.0162953
0.0162954
0.0162955
0.0162956
0.0162957
0.0162957
0.0162958
0.0162959
0.0162612
0.0162614
0.0162615
0.0162617
0.0162619
0.016262
0.0162622
0.0162623
0.0162625
0.0162627
0.0162628
0.016263
0.0162631
0.0162633
0.0162634
0.0162636
0.0162638
0.0162639
0.0162641
0.0162642
0.0162644
0.0162645
0.0162647
0.0162649
0.016265
0.0162652
0.0162653
0.0162655
0.0162656
0.0162658
0.0162659
0.0162661
0.0162662
0.0162664
0.0162665
0.0162667
0.0162668
0.016267
0.0162671
0.0162673
0.0162674
0.0162675
0.0162677
0.0162678
0.016268
0.0162681
0.0162683
0.0162684
0.0162685
0.0162687
0.0162688
0.016269
0.0162691
0.0162692
0.0162694
0.0162695
0.0162696
0.0162698
0.0162699
0.01627
0.0162702
0.0162318
0.0162319
0.016232
0.0162321
0.0162323
0.0162324
0.0162325
0.0162327
0.0162328
0.016233
0.0162331
0.0162332
0.0162334
0.0162335
0.0162337
0.0162338
0.016234
0.0162341
0.0162342
0.0162344
0.0162345
0.0162347
0.0162348
0.016235
0.0162351
0.0162352
0.0162354
0.0162355
0.0162357
0.0162358
0.0162359
0.0162361
0.0162362
0.0162363
0.0162365
0.0162366
0.0162367
0.0162369
0.016237
0.0162371
0.0162373
0.0162374
0.0162375
0.0162376
0.0162378
0.0162379
0.016238
0.0162381
0.0162382
0.0162384
0.0162385
0.0162386
0.0162387
0.0162388
0.0162389
0.016239
0.0162392
0.0162393
0.0162394
0.0162395
0.0162396
0.0162055
0.016205
0.0162045
0.016204
0.0162036
0.0162031
0.0162026
0.0162021
0.0162016
0.0162011
0.0162007
0.0162002
0.0161997
0.0161992
0.0161987
0.0161982
0.0161977
0.0161973
0.0161968
0.0161963
0.0161958
0.0161953
0.0161948
0.0161943
0.0161938
0.0161933
0.0161929
0.0161924
0.0161919
0.0161914
0.0161909
0.0161904
0.0161899
0.0161894
0.0161889
0.0161884
0.016188
0.0161875
0.016187
0.0161865
0.016186
0.0161855
0.016185
0.0161845
0.016184
0.0161835
0.016183
0.0161825
0.016182
0.0161816
0.0161811
0.0161806
0.0161801
0.0161796
0.0161791
0.0161786
0.0161781
0.0161776
0.0161771
0.0161766
0.0161761
0.0161746
0.016174
0.0161733
0.0161727
0.016172
0.0161713
0.0161707
0.01617
0.0161694
0.0161687
0.0161681
0.0161674
0.0161668
0.0161661
0.0161654
0.0161648
0.0161641
0.0161635
0.0161628
0.0161621
0.0161615
0.0161608
0.0161602
0.0161595
0.0161588
0.0161582
0.0161575
0.0161568
0.0161562
0.0161555
0.0161548
0.0161542
0.0161535
0.0161528
0.0161521
0.0161515
0.0161508
0.0161501
0.0161495
0.0161488
0.0161481
0.0161474
0.0161468
0.0161461
0.0161454
0.0161447
0.0161441
0.0161434
0.0161427
0.016142
0.0161413
0.0161407
0.01614
0.0161393
0.0161386
0.0161379
0.0161373
0.0161366
0.0161359
0.0161352
0.0161345
0.0161395
0.0161386
0.0161378
0.0161369
0.016136
0.0161351
0.0161343
0.0161334
0.0161325
0.0161316
0.0161307
0.0161299
0.016129
0.0161281
0.0161272
0.0161263
0.0161254
0.0161245
0.0161236
0.0161227
0.0161218
0.016121
0.0161201
0.0161192
0.0161183
0.0161174
0.0161165
0.0161156
0.0161147
0.0161138
0.0161129
0.016112
0.016111
0.0161101
0.0161092
0.0161083
0.0161074
0.0161065
0.0161056
0.0161047
0.0161038
0.0161028
0.0161019
0.016101
0.0161001
0.0160992
0.0160983
0.0160973
0.0160964
0.0160955
0.0160946
0.0160936
0.0160927
0.0160918
0.0160909
0.0160899
0.016089
0.0160881
0.0160872
0.0160862
0.0160853
0.0160844
0.0160983
0.0160971
0.016096
0.0160948
0.0160936
0.0160924
0.0160912
0.01609
0.0160888
0.0160876
0.0160865
0.0160853
0.0160841
0.0160829
0.0160817
0.0160805
0.0160793
0.0160781
0.0160768
0.0160756
0.0160744
0.0160732
0.016072
0.0160708
0.0160696
0.0160683
0.0160671
0.0160659
0.0160647
0.0160635
0.0160622
0.016061
0.0160598
0.0160585
0.0160573
0.0160561
0.0160548
0.0160536
0.0160523
0.0160511
0.0160499
0.0160486
0.0160474
0.0160461
0.0160449
0.0160436
0.0160424
0.0160411
0.0160399
0.0160386
0.0160373
0.0160361
0.0160348
0.0160336
0.0160323
0.016031
0.0160298
0.0160285
0.0160272
0.016026
0.0160247
0.0160234
0.0160504
0.0160488
0.0160472
0.0160456
0.016044
0.0160424
0.0160408
0.0160392
0.0160376
0.016036
0.0160344
0.0160328
0.0160311
0.0160295
0.0160279
0.0160263
0.0160246
0.016023
0.0160213
0.0160197
0.0160181
0.0160164
0.0160148
0.0160131
0.0160115
0.0160098
0.0160081
0.0160065
0.0160048
0.0160031
0.0160015
0.0159998
0.0159981
0.0159964
0.0159947
0.015993
0.0159914
0.0159897
0.015988
0.0159863
0.0159846
0.0159829
0.0159812
0.0159795
0.0159777
0.015976
0.0159743
0.0159726
0.0159709
0.0159692
0.0159674
0.0159657
0.015964
0.0159623
0.0159605
0.0159588
0.0159571
0.0159553
0.0159536
0.0159518
0.0159501
0.0159483
0.0159943
0.0159922
0.01599
0.0159879
0.0159857
0.0159835
0.0159814
0.0159792
0.015977
0.0159748
0.0159726
0.0159704
0.0159682
0.015966
0.0159638
0.0159616
0.0159594
0.0159572
0.0159549
0.0159527
0.0159504
0.0159482
0.0159459
0.0159437
0.0159414
0.0159392
0.0159369
0.0159346
0.0159323
0.01593
0.0159278
0.0159255
0.0159232
0.0159208
0.0159185
0.0159162
0.0159139
0.0159116
0.0159093
0.0159069
0.0159046
0.0159022
0.0158999
0.0158976
0.0158952
0.0158928
0.0158905
0.0158881
0.0158858
0.0158834
0.015881
0.0158786
0.0158763
0.0158739
0.0158715
0.0158691
0.0158667
0.0158643
0.0158619
0.0158595
0.0158571
0.0158547
0.0159291
0.0159262
0.0159233
0.0159203
0.0159174
0.0159145
0.0159115
0.0159086
0.0159056
0.0159027
0.0158997
0.0158967
0.0158937
0.0158907
0.0158877
0.0158847
0.0158816
0.0158786
0.0158755
0.0158725
0.0158694
0.0158663
0.0158632
0.0158601
0.015857
0.0158539
0.0158508
0.0158476
0.0158445
0.0158413
0.0158382
0.015835
0.0158318
0.0158286
0.0158254
0.0158222
0.015819
0.0158158
0.0158126
0.0158093
0.0158061
0.0158029
0.0157996
0.0157963
0.0157931
0.0157898
0.0157865
0.0157832
0.0157799
0.0157767
0.0157733
0.01577
0.0157667
0.0157634
0.0157601
0.0157568
0.0157534
0.0157501
0.0157468
0.0157434
0.0157401
0.0157367
0.015853
0.0158491
0.0158452
0.0158412
0.0158373
0.0158333
0.0158293
0.0158253
0.0158212
0.0158172
0.0158131
0.015809
0.0158049
0.0158008
0.0157967
0.0157925
0.0157884
0.0157842
0.01578
0.0157758
0.0157715
0.0157673
0.015763
0.0157587
0.0157544
0.0157501
0.0157457
0.0157414
0.015737
0.0157326
0.0157282
0.0157238
0.0157193
0.0157149
0.0157104
0.0157059
0.0157014
0.0156969
0.0156924
0.0156878
0.0156833
0.0156787
0.0156741
0.0156696
0.015665
0.0156603
0.0156557
0.0156511
0.0156464
0.0156418
0.0156371
0.0156324
0.0156278
0.0156231
0.0156184
0.0156137
0.0156089
0.0156042
0.0155995
0.0155948
0.01559
0.0155853
0.0157646
0.0157593
0.0157539
0.0157486
0.0157432
0.0157378
0.0157323
0.0157268
0.0157213
0.0157158
0.0157102
0.0157046
0.0156989
0.0156933
0.0156875
0.0156818
0.015676
0.0156702
0.0156644
0.0156585
0.0156526
0.0156466
0.0156406
0.0156346
0.0156286
0.0156225
0.0156164
0.0156102
0.015604
0.0155978
0.0155916
0.0155853
0.015579
0.0155726
0.0155662
0.0155598
0.0155534
0.0155469
0.0155404
0.0155339
0.0155274
0.0155208
0.0155142
0.0155076
0.0155009
0.0154943
0.0154876
0.0154809
0.0154741
0.0154674
0.0154606
0.0154538
0.015447
0.0154402
0.0154333
0.0154265
0.0154197
0.0154128
0.0154059
0.015399
0.0153921
0.0153852
0.0156615
0.0156543
0.015647
0.0156397
0.0156324
0.0156249
0.0156175
0.0156099
0.0156024
0.0155947
0.015587
0.0155792
0.0155714
0.0155635
0.0155555
0.0155475
0.0155394
0.0155312
0.015523
0.0155147
0.0155063
0.0154979
0.0154894
0.0154808
0.0154721
0.0154634
0.0154546
0.0154457
0.0154368
0.0154278
0.0154187
0.0154095
0.0154003
0.015391
0.0153817
0.0153722
0.0153627
0.0153532
0.0153435
0.0153338
0.0153241
0.0153143
0.0153044
0.0152944
0.0152844
0.0152744
0.0152643
0.0152541
0.0152439
0.0152337
0.0152234
0.0152131
0.0152027
0.0151923
0.0151818
0.0151714
0.0151609
0.0151504
0.0151399
0.0151293
0.0151188
0.0151082
0.0155412
0.0155313
0.0155215
0.0155115
0.0155014
0.0154912
0.015481
0.0154706
0.0154601
0.0154495
0.0154387
0.0154279
0.0154169
0.0154058
0.0153946
0.0153832
0.0153717
0.01536
0.0153482
0.0153363
0.0153242
0.015312
0.0152996
0.0152871
0.0152744
0.0152615
0.0152485
0.0152353
0.015222
0.0152084
0.0151948
0.0151809
0.0151669
0.0151526
0.0151383
0.0151237
0.015109
0.0150941
0.015079
0.0150637
0.0150483
0.0150327
0.015017
0.0150011
0.0149851
0.014969
0.0149527
0.0149363
0.0149198
0.0149032
0.0148866
0.0148699
0.0148531
0.0148363
0.0148195
0.0148028
0.014786
0.0147693
0.0147526
0.014736
0.0147195
0.0147031
0.0154006
0.0153872
0.0153738
0.0153601
0.0153463
0.0153323
0.0153181
0.0153037
0.0152891
0.0152743
0.0152592
0.015244
0.0152284
0.0152126
0.0151966
0.0151803
0.0151637
0.0151468
0.0151296
0.0151121
0.0150943
0.0150761
0.0150576
0.0150387
0.0150195
0.0149998
0.0149798
0.0149594
0.0149386
0.0149173
0.0148956
0.0148735
0.0148509
0.0148278
0.0148043
0.0147803
0.0147559
0.014731
0.0147057
0.0146799
0.0146538
0.0146273
0.0146005
0.0145734
0.0145461
0.0145187
0.0144911
0.0144635
0.0144359
0.0144084
0.014381
0.0143538
0.0143268
0.0143001
0.0142737
0.0142478
0.0142223
0.0141974
0.0141731
0.0141495
0.0141266
0.0141044
0.0152365
0.0152184
0.0152001
0.0151815
0.0151625
0.0151432
0.0151236
0.0151036
0.0150832
0.0150624
0.0150412
0.0150195
0.0149973
0.0149746
0.0149514
0.0149277
0.0149033
0.0148784
0.0148528
0.0148265
0.0147995
0.0147717
0.0147432
0.0147138
0.0146835
0.0146523
0.0146202
0.014587
0.0145528
0.0145175
0.014481
0.0144435
0.0144048
0.0143649
0.014324
0.014282
0.0142391
0.0141952
0.0141507
0.0141056
0.0140601
0.0140143
0.0139685
0.0139229
0.0138777
0.0138331
0.0137894
0.0137469
0.0137057
0.0136661
0.0136282
0.0135921
0.0135579
0.0135257
0.0134955
0.0134677
0.0134428
0.0134221
0.0134046
0.0133897
0.0133768
0.0133658
0.0150456
0.0150211
0.0149962
0.0149708
0.0149449
0.0149184
0.0148913
0.0148635
0.014835
0.0148057
0.0147757
0.0147448
0.014713
0.0146802
0.0146463
0.0146114
0.0145752
0.0145378
0.014499
0.0144588
0.0144169
0.0143734
0.0143281
0.0142809
0.0142317
0.0141803
0.0141266
0.0140705
0.0140119
0.0139509
0.0138873
0.0138213
0.0137529
0.0136825
0.0136104
0.013537
0.0134627
0.0133883
0.0133143
0.0132416
0.0131708
0.0131026
0.0130379
0.0129771
0.012921
0.0128708
0.0128294
0.0127949
0.0127665
0.0127438
0.0127266
0.0127148
0.0127083
0.0127073
0.0127117
0.0127214
0.0127364
0.0127562
0.01278
0.0128065
0.0128337
0.0128632
0.0148238
0.014791
0.0147575
0.0147231
0.0146879
0.0146516
0.0146143
0.0145759
0.0145363
0.0144953
0.0144529
0.0144089
0.0143633
0.0143158
0.0142663
0.0142147
0.0141608
0.0141043
0.0140451
0.0139829
0.0139174
0.0138485
0.0137757
0.0136989
0.0136177
0.0135319
0.0134413
0.0133458
0.0132453
0.0131402
0.0130308
0.0129181
0.012803
0.0126872
0.0125722
0.0124601
0.0123529
0.0122527
0.0121624
0.0120871
0.0120258
0.0119776
0.0119432
0.0119228
0.0119165
0.0119246
0.0119479
0.011986
0.0120385
0.0121041
0.0121802
0.0122639
0.0123605
0.0124713
0.0126003
0.0127406
0.0128929
0.0130544
0.0132219
0.0133947
0.0135717
0.0137519
0.0145678
0.0145242
0.0144794
0.0144334
0.014386
0.0143369
0.0142862
0.0142336
0.0141789
0.0141221
0.0140627
0.0140008
0.0139358
0.0138677
0.013796
0.0137205
0.0136407
0.0135563
0.0134667
0.0133716
0.0132703
0.0131624
0.0130472
0.0129243
0.0127932
0.0126536
0.0125055
0.0123493
0.0121861
0.0120178
0.0118473
0.0116788
0.0115167
0.0113667
0.0112367
0.0111331
0.0110549
0.0110054
0.0109868
0.0110006
0.0110497
0.0111346
0.0112537
0.0114025
0.0115744
0.0117825
0.0120263
0.0122979
0.0125951
0.0129147
0.013252
0.0136055
0.0139703
0.0143425
0.0147212
0.0151053
0.0154931
0.0158829
0.0162747
0.0166683
0.0170619
0.0174547
0.0142743
0.014217
0.014158
0.0140971
0.014034
0.0139685
0.0139004
0.0138295
0.0137553
0.0136776
0.0135961
0.0135103
0.0134197
0.013324
0.0132224
0.0131146
0.0129997
0.012877
0.0127457
0.0126051
0.0124541
0.0122918
0.0121174
0.0119301
0.0117297
0.0115165
0.011292
0.0110595
0.0108248
0.010596
0.0103841
0.0102074
0.0100706
0.00998339
0.00995526
0.00999201
0.0100999
0.0102786
0.0105222
0.0108213
0.0112007
0.0116426
0.0121377
0.0126668
0.0132293
0.013817
0.0144275
0.0150603
0.0157118
0.0163784
0.0170569
0.0177407
0.0184215
0.0190951
0.0197666
0.020432
0.021086
0.0217262
0.0223514
0.0229601
0.023551
0.0241221
0.013939
0.0138647
0.0137881
0.0137087
0.0136262
0.0135404
0.0134508
0.013357
0.0132586
0.0131551
0.0130459
0.0129305
0.0128081
0.0126781
0.0125395
0.0123915
0.012233
0.0120629
0.0118799
0.0116828
0.0114702
0.0112407
0.0109934
0.0107279
0.0104453
0.0101492
0.00984688
0.00955096
0.00928477
0.00906688
0.00891944
0.00886796
0.00893169
0.00912261
0.00943981
0.00986745
0.0104317
0.0110971
0.011837
0.0126495
0.0135238
0.0144437
0.0153939
0.0163569
0.0173228
0.0182837
0.0192332
0.0201661
0.0210781
0.0219659
0.0228266
0.0236581
0.0244588
0.0252274
0.0259636
0.0266674
0.0273392
0.027979
0.0285871
0.0291637
0.0297088
0.0302222
0.0135579
0.0134622
0.0133644
0.013263
0.0131575
0.0130475
0.0129324
0.0128118
0.012685
0.0125514
0.0124102
0.0122607
0.0121019
0.0119329
0.0117526
0.0115596
0.0113526
0.0111301
0.0108903
0.0106315
0.0103519
0.01005
0.00972541
0.00937996
0.00901973
0.00865817
0.00831991
0.00803075
0.00783581
0.00778628
0.00792322
0.00826858
0.00881918
0.00956467
0.0104843
0.011527
0.0126695
0.013873
0.015109
0.0163539
0.0175902
0.0188045
0.0199865
0.0211286
0.0222252
0.0232728
0.0242696
0.0252148
0.0261087
0.0269522
0.0277466
0.0284937
0.0291953
0.0298535
0.0304704
0.031048
0.031588
0.0320921
0.0325616
0.0329981
0.0334016
0.0337695
0.0131325
0.0130095
0.0128844
0.0127574
0.0126255
0.0124879
0.0123441
0.0121935
0.0120354
0.011869
0.0116934
0.0115078
0.011311
0.0111019
0.0108792
0.0106413
0.0103866
0.0101131
0.00981873
0.00950133
0.00915886
0.0087903
0.00839762
0.00798947
0.00758457
0.00720377
0.00690055
0.00675394
0.00684582
0.00723178
0.00792017
0.008887
0.0100982
0.011468
0.012936
0.0144459
0.0159562
0.0174373
0.0188684
0.0202358
0.0215312
0.0227506
0.023893
0.0249595
0.0259527
0.026876
0.0277335
0.0285291
0.0292669
0.0299504
0.0305827
0.0311667
0.0317053
0.0322022
0.0326606
0.0330824
0.0334687
0.0338198
0.0341357
0.0344158
0.0346605
0.0348721
0.0126611
0.0125076
0.0123508
0.0121909
0.0120295
0.0118621
0.0116876
0.0115055
0.0113151
0.0111155
0.0109059
0.0106853
0.0104527
0.0102067
0.00994586
0.00966858
0.00937292
0.00905673
0.00871759
0.00835304
0.00796114
0.00754231
0.0071045
0.00666625
0.0062494
0.00592563
0.00581235
0.00602406
0.0066192
0.00759356
0.00891626
0.010479
0.0121855
0.013934
0.0156597
0.0173219
0.0188958
0.020369
0.0217371
0.0230008
0.0241641
0.0252321
0.0262109
0.0271069
0.0279264
0.0286758
0.0293606
0.0299861
0.0305569
0.0310767
0.0315489
0.0319762
0.032361
0.0327056
0.0330113
0.0332807
0.0335168
0.0337228
0.0339009
0.034052
0.0341763
0.0342738
0.0121429
0.0119556
0.011765
0.0115708
0.0113735
0.0111748
0.0109691
0.0107558
0.0105341
0.0103036
0.0100632
0.00981215
0.00954927
0.00927332
0.00898281
0.00867603
0.00835099
0.0080054
0.00763672
0.00724239
0.00682079
0.00637465
0.00592092
0.00547944
0.00511388
0.00497408
0.00522544
0.00591566
0.00701444
0.00851688
0.0102874
0.0121967
0.0141062
0.0159429
0.0176686
0.0192661
0.0207301
0.0220634
0.0232736
0.0243698
0.0253614
0.0262573
0.0270642
0.0277902
0.0284428
0.0290292
0.0295553
0.0300265
0.0304471
0.0308207
0.031149
0.0314336
0.0316757
0.0318797
0.0320527
0.0321977
0.0323161
0.0324092
0.0324778
0.0325226
0.0325438
0.0325417
0.0115783
0.0113544
0.0111281
0.010899
0.0106669
0.0104326
0.0101973
0.00995527
0.00970613
0.00944929
0.00918406
0.00890956
0.00862476
0.00832842
0.00801912
0.00769514
0.00735455
0.00699509
0.00661429
0.00620968
0.00578006
0.0053303
0.0048845
0.00447744
0.00423864
0.00440536
0.00508774
0.00615104
0.00757396
0.00938376
0.0113795
0.0133825
0.0152911
0.01706
0.0186756
0.0201384
0.0214505
0.0226229
0.0236691
0.0246026
0.0254354
0.0261793
0.026834
0.0274098
0.0279164
0.0283611
0.0287498
0.0290871
0.0293768
0.0296215
0.0298228
0.0299815
0.0301046
0.030199
0.0302657
0.0303062
0.0303214
0.030312
0.0302789
0.0302225
0.0301434
0.0300423
0.0109691
0.0107066
0.0104439
0.0101804
0.00991594
0.00965064
0.00938657
0.00911964
0.00884813
0.00857145
0.0082889
0.00799958
0.00770247
0.00739633
0.00707975
0.00675112
0.00640862
0.00605019
0.00567363
0.00527679
0.00485891
0.00442617
0.00400866
0.00366883
0.00361674
0.00414115
0.0051611
0.00636956
0.00791857
0.00982354
0.0118725
0.0138504
0.0156756
0.0173273
0.01881
0.0201392
0.021306
0.0223284
0.0232266
0.0240156
0.0247075
0.0253123
0.0258375
0.026291
0.0266802
0.0270112
0.0272893
0.0275185
0.0277021
0.0278422
0.0279399
0.0280003
0.02803
0.0280297
0.0280003
0.0279424
0.0278563
0.0277424
0.0276014
0.0274339
0.0272412
0.0270248
0.0103188
0.0100169
0.00971853
0.00942297
0.00912961
0.00883812
0.00854889
0.00826379
0.00797731
0.00768887
0.00739771
0.00710287
0.00680322
0.00649752
0.00618434
0.00586219
0.00552941
0.00518428
0.00482502
0.00445007
0.0040592
0.00365882
0.00328205
0.00302796
0.00318295
0.00402611
0.00522977
0.00638589
0.00784939
0.00975839
0.0117883
0.0136893
0.015407
0.0169349
0.018284
0.0194697
0.0205047
0.0214046
0.0221852
0.0228605
0.0234424
0.0239411
0.0243651
0.0247221
0.0250186
0.0252602
0.0254517
0.0255967
0.0256982
0.0257582
0.025778
0.0257632
0.0257142
0.0256311
0.0255138
0.0253616
0.0251739
0.0249497
0.0246884
0.0243904
0.0240573
0.023694
0.00963233
0.00929171
0.00896022
0.00863665
0.00831992
0.0080092
0.00770427
0.00740707
0.00711289
0.00682073
0.00652945
0.00623781
0.00594448
0.00564807
0.00534715
0.00504026
0.00472596
0.00440289
0.00406983
0.00372596
0.00337181
0.00301348
0.00268163
0.00251397
0.00285137
0.00392924
0.00520761
0.00621595
0.0074781
0.00928033
0.0111948
0.0129993
0.0146187
0.0160437
0.0172865
0.0183643
0.0192943
0.0200935
0.0207777
0.0213608
0.0218551
0.0222706
0.0226162
0.0228992
0.0231257
0.0233009
0.0234289
0.0235132
0.0235564
0.0235608
0.0235286
0.0234582
0.0233493
0.0232009
0.0230114
0.0227788
0.0224999
0.0221716
0.0217903
0.0213539
0.020864
0.0203336
0.00891603
0.00853931
0.00817917
0.00783349
0.00750039
0.00717826
0.00686609
0.00656481
0.0062711
0.00598334
0.00569992
0.0054192
0.00513959
0.00485952
0.0045775
0.0042921
0.00400208
0.0037064
0.00340442
0.00309618
0.00278328
0.00247216
0.00219185
0.00208957
0.00255691
0.00378352
0.00503403
0.00584629
0.00684706
0.00848295
0.0102797
0.011992
0.0135234
0.0148586
0.01601
0.0169964
0.0178374
0.0185513
0.0191549
0.0196626
0.0200869
0.020438
0.0207245
0.0209535
0.0211307
0.0212606
0.0213471
0.021393
0.0214008
0.0213726
0.0213108
0.0212093
0.0210656
0.0208782
0.0206445
0.0203612
0.0200237
0.0196268
0.0191647
0.0186332
0.0180343
0.0173925
0.00817772
0.00776948
0.00738704
0.00702671
0.00668532
0.00636019
0.00604921
0.00575182
0.00546643
0.00519043
0.00492164
0.00465806
0.00439781
0.00413914
0.00388048
0.00362043
0.00335788
0.00309209
0.00282293
0.00255131
0.00228015
0.0020174
0.00179181
0.00173184
0.00225791
0.00354428
0.00472952
0.00537729
0.00609363
0.0075081
0.00917522
0.0107993
0.0122511
0.0135057
0.0145752
0.0154803
0.0162426
0.0168825
0.0174176
0.0178631
0.0182318
0.0185338
0.0187775
0.0189696
0.0191153
0.0192186
0.0192828
0.0193101
0.0193024
0.019261
0.0191868
0.0190805
0.0189294
0.0187329
0.0184883
0.0181922
0.0178401
0.0174273
0.016949
0.0164022
0.0157899
0.0151302
0.00742628
0.00699316
0.00659642
0.00622998
0.00588892
0.00556916
0.00526735
0.00498128
0.00471096
0.00445264
0.00420367
0.00396168
0.00372457
0.00349045
0.00325767
0.00302485
0.00279096
0.00255548
0.00231874
0.00208255
0.00185147
0.00163615
0.00146792
0.0014515
0.00195176
0.00321174
0.00436723
0.00489694
0.00543037
0.00645897
0.00797701
0.0095124
0.01089
0.0120701
0.0130636
0.0138937
0.0145846
0.0151583
0.015634
0.0160276
0.0163518
0.0166168
0.0168305
0.0169993
0.0171276
0.0172192
0.0172764
0.0173011
0.0172943
0.0172564
0.0171876
0.0170868
0.0169522
0.0167734
0.016547
0.0162709
0.0159417
0.0155563
0.0151124
0.0146103
0.0140553
0.0134626
0.0066714
0.00622189
0.00582004
0.00545651
0.00512424
0.00481757
0.00453195
0.00426408
0.00401368
0.00377721
0.00355148
0.00333382
0.00312193
0.00291384
0.00270786
0.00250261
0.00229713
0.00209106
0.00188517
0.00168237
0.00148954
0.00132136
0.00121621
0.00124252
0.00164302
0.00282433
0.00397085
0.00441157
0.00474768
0.00540781
0.00675585
0.00819621
0.00950181
0.0106111
0.0115321
0.012291
0.0129149
0.013428
0.0138509
0.0141998
0.0144878
0.0147246
0.0149178
0.015073
0.0151944
0.0152847
0.0153459
0.0153791
0.0153849
0.015363
0.0153127
0.0152325
0.0151201
0.0149727
0.0147857
0.0145529
0.0142717
0.0139414
0.0135611
0.0131332
0.0126635
0.0121639
0.00592313
0.00546726
0.00507005
0.00471826
0.00440244
0.00411539
0.00385146
0.00360644
0.00337969
0.00316779
0.00296722
0.00277513
0.00258915
0.00240726
0.00222779
0.00204937
0.00187109
0.00169277
0.00151578
0.00134479
0.00119038
0.00107303
0.00102422
0.00107289
0.00140313
0.00243556
0.00354842
0.00395316
0.00414758
0.00457398
0.00556681
0.00689794
0.00813038
0.00917075
0.0100209
0.0107104
0.0112698
0.0117259
0.0121002
0.0124097
0.012667
0.0128816
0.0130605
0.0132085
0.0133291
0.0134246
0.0134964
0.013545
0.0135704
0.013572
0.0135485
0.0134982
0.013419
0.0133083
0.0131634
0.0129827
0.012764
0.0125046
0.0122028
0.011862
0.0114873
0.0110861
0.00519155
0.00474028
0.00435733
0.00402521
0.00373222
0.0034698
0.00323141
0.0030118
0.00281116
0.0026252
0.00245041
0.00228392
0.0021234
0.0019669
0.00181277
0.00165969
0.00150685
0.00135438
0.00120481
0.00106604
0.00095487
0.0008939
0.000875802
0.000941954
0.00124013
0.0020589
0.00310397
0.00352241
0.00362117
0.00384905
0.00444613
0.00565207
0.00680619
0.0077784
0.00855819
0.00917876
0.00967499
0.010076
0.0104047
0.0106779
0.0109081
0.0111041
0.0112719
0.011416
0.011539
0.0116427
0.0117279
0.0117947
0.0118428
0.011871
0.011878
0.0118621
0.0118212
0.0117533
0.0116564
0.0115293
0.0113707
0.01118
0.0109592
0.0107089
0.0104307
0.0101272
0.00448632
0.0040508
0.00369086
0.00338498
0.0031196
0.00288517
0.00267459
0.0024821
0.00230813
0.00214811
0.00199856
0.00185675
0.00172044
0.0015878
0.00145727
0.00132763
0.00119826
0.00107003
0.000947941
0.000846049
0.000785582
0.000754698
0.000760865
0.000839216
0.00109692
0.00170838
0.00265271