/*--------------------------------*- C++ -*----------------------------------*\
  =========                 |
  \\      /  F ield         | OpenFOAM: The Open Source CFD Toolbox
   \\    /   O peration     | Website:  https://openfoam.org
    \\  /    A nd           | Version:  9
     \\/     M anipulation  |
\*---------------------------------------------------------------------------*/
FoamFile
{
    format      ascii;
    class       volScalarField;
    location    "0.005";
    object      nut;
}
// * * * * * * * * * * * * * * * * * * * * * * * * * * * * * * * * * * * * * //

dimensions      [0 2 -1 0 0 0 0];

internalField   nonuniform List<scalar> 
7154
(
0.0140494
0.0140496
0.0140499
0.0140501
0.0140503
0.0140505
0.0140506
0.0140508
0.014051
0.0140512
0.0140513
0.0140515
0.0140516
0.0140518
0.0140519
0.0140521
0.0140522
0.0140523
0.0140524
0.0140526
0.0140527
0.0140528
0.0140529
0.014053
0.0140531
0.0140532
0.0140533
0.0140534
0.0140535
0.0140536
0.0140537
0.0140538
0.0140539
0.014054
0.0140541
0.0140541
0.0140542
0.0140543
0.0140544
0.0140545
0.0140545
0.0140546
0.0140547
0.0140548
0.0140549
0.0140549
0.014055
0.0140551
0.0140552
0.0140552
0.0140553
0.0140554
0.0140555
0.0140556
0.0140556
0.0140557
0.0140487
0.0140495
0.0140502
0.0140508
0.0140514
0.0140518
0.0140521
0.0140523
0.0140525
0.0140526
0.0140526
0.0140526
0.0140527
0.0140528
0.0140531
0.0140533
0.0140537
0.0140541
0.0140544
0.0140548
0.0140552
0.0140556
0.0140559
0.0140563
0.0140567
0.0140571
0.0140575
0.0140578
0.0140582
0.0140586
0.014059
0.0140594
0.0140598
0.0140603
0.0140607
0.0140611
0.0140615
0.014062
0.0140624
0.0140629
0.0140634
0.0140639
0.0140644
0.0140649
0.0140654
0.0140659
0.0140665
0.0140671
0.0140677
0.0140683
0.014069
0.0140697
0.0140704
0.0140711
0.0140719
0.0140726
0.0140467
0.0140466
0.0140464
0.0140463
0.0140461
0.0140459
0.0140456
0.0140453
0.014045
0.0140448
0.0140445
0.0140444
0.0140444
0.0140443
0.0140443
0.0140442
0.014044
0.0140438
0.0140435
0.0140433
0.0140431
0.0140429
0.0140428
0.0140427
0.0140426
0.0140425
0.0140424
0.0140423
0.0140422
0.0140421
0.0140421
0.014042
0.014042
0.014042
0.0140419
0.0140419
0.0140419
0.0140419
0.0140419
0.014042
0.014042
0.0140421
0.0140421
0.0140422
0.0140423
0.0140424
0.0140425
0.0140427
0.0140428
0.014043
0.0140433
0.0140435
0.0140438
0.0140441
0.0140444
0.0140446
0.0140046
0.0140046
0.0140046
0.0140046
0.0140046
0.0140046
0.0140046
0.0140046
0.0140047
0.0140047
0.0140047
0.0140047
0.0140047
0.0140048
0.014005
0.0140052
0.0140055
0.0140058
0.0140062
0.0140066
0.0140071
0.0140076
0.0140081
0.0140086
0.0140092
0.0140097
0.0140102
0.0140108
0.0140113
0.0140118
0.0140123
0.0140128
0.0140134
0.0140139
0.0140144
0.0140148
0.0140153
0.0140158
0.0140163
0.0140168
0.0140172
0.0140177
0.0140181
0.0140186
0.014019
0.0140195
0.0140199
0.0140203
0.0140207
0.0140211
0.0140215
0.0140219
0.0140223
0.0140227
0.0140231
0.0140234
0.0139968
0.013997
0.0139971
0.0139973
0.0139974
0.0139976
0.0139977
0.0139978
0.013998
0.0139981
0.0139982
0.0139983
0.0139984
0.0139984
0.0139984
0.0139984
0.0139983
0.0139982
0.0139979
0.0139977
0.0139976
0.0139975
0.0139975
0.0139975
0.0139976
0.0139977
0.0139978
0.0139979
0.013998
0.0139982
0.0139983
0.0139985
0.0139987
0.013999
0.0139992
0.0139994
0.0139997
0.0139999
0.0140001
0.0140003
0.0140006
0.0140008
0.014001
0.0140012
0.0140014
0.0140015
0.0140017
0.0140019
0.0140021
0.0140022
0.0140024
0.0140026
0.0140027
0.0140029
0.014003
0.0140032
0.0139777
0.0139778
0.0139779
0.0139779
0.013978
0.013978
0.0139781
0.0139782
0.0139782
0.0139783
0.0139784
0.0139784
0.0139784
0.0139782
0.013978
0.0139777
0.0139775
0.0139775
0.0139775
0.0139776
0.0139776
0.0139777
0.0139778
0.013978
0.0139781
0.0139783
0.0139785
0.0139787
0.0139789
0.0139792
0.0139794
0.0139797
0.01398
0.0139803
0.0139806
0.0139809
0.0139812
0.0139815
0.0139818
0.013982
0.0139823
0.0139825
0.0139828
0.013983
0.0139833
0.0139835
0.0139837
0.0139839
0.0139841
0.0139842
0.0139844
0.0139845
0.0139847
0.0139848
0.0139849
0.013985
0.0139629
0.0139631
0.0139633
0.0139635
0.0139637
0.0139639
0.0139641
0.0139642
0.0139644
0.0139645
0.0139646
0.0139648
0.0139649
0.0139649
0.013965
0.0139651
0.0139651
0.0139651
0.0139651
0.0139651
0.013965
0.0139648
0.0139645
0.0139642
0.0139639
0.0139637
0.0139634
0.0139631
0.0139629
0.0139626
0.0139623
0.0139621
0.0139618
0.0139616
0.0139613
0.0139611
0.0139608
0.0139606
0.0139603
0.0139601
0.0139598
0.0139596
0.0139593
0.0139591
0.0139588
0.0139586
0.0139583
0.0139581
0.0139578
0.0139576
0.0139574
0.0139571
0.0139569
0.0139566
0.0139564
0.0139561
0.013959
0.0139592
0.0139594
0.0139596
0.0139599
0.0139602
0.0139604
0.0139607
0.013961
0.0139613
0.0139616
0.0139619
0.0139621
0.0139624
0.0139627
0.0139629
0.0139632
0.0139634
0.0139637
0.0139639
0.0139641
0.0139643
0.0139645
0.0139647
0.0139649
0.0139651
0.0139652
0.0139654
0.0139655
0.0139656
0.0139657
0.0139658
0.0139658
0.0139659
0.0139659
0.0139659
0.0139658
0.0139658
0.0139657
0.0139655
0.0139653
0.0139648
0.0139644
0.013964
0.0139636
0.0139633
0.0139629
0.0139626
0.0139623
0.0139619
0.0139616
0.0139613
0.013961
0.0139606
0.0139603
0.01396
0.01396
0.0139602
0.0139603
0.0139604
0.0139605
0.0139606
0.0139607
0.0139607
0.0139607
0.0139607
0.0139607
0.0139607
0.0139606
0.0139605
0.0139603
0.0139601
0.0139596
0.0139591
0.0139586
0.0139581
0.0139577
0.0139572
0.0139568
0.0139563
0.0139559
0.0139554
0.013955
0.0139545
0.0139541
0.0139537
0.0139532
0.0139528
0.0139524
0.0139519
0.0139515
0.013951
0.0139506
0.0139501
0.0139497
0.0139493
0.0139488
0.0139484
0.0139479
0.0139475
0.013947
0.0139466
0.0139461
0.0139456
0.0139452
0.0139447
0.0139443
0.0139438
0.0139433
0.0139429
0.0139424
0.013942
0.0139396
0.0139391
0.0139387
0.0139382
0.0139378
0.0139373
0.0139369
0.0139364
0.013936
0.0139355
0.0139351
0.0139347
0.0139342
0.0139338
0.0139333
0.0139329
0.0139325
0.0139323
0.0139323
0.0139324
0.0139325
0.0139325
0.0139326
0.0139327
0.0139327
0.0139327
0.0139327
0.0139326
0.0139325
0.0139324
0.0139321
0.0139318
0.0139312
0.0139306
0.0139301
0.0139296
0.0139291
0.0139287
0.0139282
0.0139278
0.0139273
0.0139268
0.0139264
0.0139259
0.0139255
0.013925
0.0139245
0.0139241
0.0139236
0.0139232
0.0139227
0.0139222
0.0139218
0.0139213
0.0139208
0.0139203
0.0139192
0.0139186
0.0139181
0.0139175
0.0139169
0.0139164
0.0139158
0.0139152
0.0139147
0.0139141
0.0139135
0.0139129
0.0139124
0.0139118
0.0139112
0.0139107
0.0139102
0.01391
0.01391
0.01391
0.01391
0.01391
0.0139099
0.0139097
0.0139095
0.013909
0.0139083
0.0139077
0.0139071
0.0139065
0.0139058
0.0139052
0.0139046
0.013904
0.0139034
0.0139027
0.0139021
0.0139015
0.0139008
0.0139002
0.0138996
0.0138989
0.0138983
0.0138977
0.013897
0.0138964
0.0138958
0.0138951
0.0138945
0.0138938
0.0138932
0.0138925
0.0138919
0.0138913
0.0138906
0.01389
0.0138992
0.0138985
0.0138978
0.0138972
0.0138965
0.0138959
0.0138952
0.0138946
0.0138939
0.0138932
0.0138926
0.0138919
0.0138912
0.0138906
0.0138899
0.0138892
0.0138886
0.0138879
0.0138872
0.0138865
0.0138859
0.0138852
0.0138845
0.0138838
0.0138832
0.0138825
0.0138818
0.0138811
0.0138805
0.0138798
0.0138791
0.0138784
0.0138777
0.013877
0.0138763
0.0138756
0.013875
0.0138743
0.0138736
0.0138729
0.0138722
0.0138715
0.0138708
0.0138701
0.0138693
0.0138686
0.0138679
0.0138672
0.0138665
0.0138658
0.0138651
0.0138643
0.0138636
0.0138629
0.0138622
0.0138614
0.0138798
0.0138791
0.0138783
0.0138775
0.0138768
0.013876
0.0138753
0.0138745
0.0138737
0.013873
0.0138722
0.0138714
0.0138706
0.0138699
0.0138691
0.0138683
0.0138675
0.0138668
0.013866
0.0138652
0.0138644
0.0138636
0.0138628
0.013862
0.0138613
0.0138605
0.0138597
0.0138589
0.0138581
0.0138573
0.0138565
0.0138557
0.0138549
0.013854
0.0138532
0.0138524
0.0138516
0.0138508
0.01385
0.0138492
0.0138483
0.0138475
0.0138467
0.0138459
0.013845
0.0138442
0.0138434
0.0138425
0.0138417
0.0138409
0.01384
0.0138392
0.0138383
0.0138375
0.0138366
0.0138358
0.0138611
0.0138602
0.0138594
0.0138585
0.0138576
0.0138567
0.0138559
0.013855
0.0138541
0.0138532
0.0138523
0.0138514
0.0138506
0.0138497
0.0138488
0.0138479
0.013847
0.0138461
0.0138452
0.0138443
0.0138434
0.0138425
0.0138416
0.0138407
0.0138398
0.0138388
0.0138379
0.013837
0.0138361
0.0138352
0.0138342
0.0138333
0.0138324
0.0138315
0.0138305
0.0138296
0.0138287
0.0138277
0.0138268
0.0138258
0.0138249
0.0138239
0.013823
0.013822
0.0138211
0.0138201
0.0138192
0.0138182
0.0138172
0.0138163
0.0138153
0.0138143
0.0138134
0.0138124
0.0138114
0.0138104
0.0138428
0.0138418
0.0138408
0.0138398
0.0138388
0.0138378
0.0138368
0.0138358
0.0138348
0.0138338
0.0138327
0.0138317
0.0138307
0.0138297
0.0138286
0.0138276
0.0138266
0.0138255
0.0138245
0.0138235
0.0138224
0.0138214
0.0138203
0.0138193
0.0138182
0.0138172
0.0138161
0.0138151
0.013814
0.013813
0.0138119
0.0138108
0.0138098
0.0138087
0.0138076
0.0138065
0.0138054
0.0138044
0.0138033
0.0138022
0.0138011
0.0138
0.0137989
0.0137978
0.0137967
0.0137956
0.0137945
0.0137934
0.0137922
0.0137911
0.01379
0.0137889
0.0137877
0.0137866
0.0137855
0.0137843
0.0138245
0.0138233
0.0138222
0.013821
0.0138198
0.0138187
0.0138175
0.0138164
0.0138152
0.013814
0.0138129
0.0138117
0.0138105
0.0138093
0.0138082
0.013807
0.0138058
0.0138046
0.0138034
0.0138022
0.013801
0.0137998
0.0137986
0.0137974
0.0137962
0.013795
0.0137938
0.0137926
0.0137914
0.0137901
0.0137889
0.0137877
0.0137864
0.0137852
0.013784
0.0137827
0.0137815
0.0137802
0.013779
0.0137777
0.0137765
0.0137752
0.0137739
0.0137727
0.0137714
0.0137701
0.0137688
0.0137675
0.0137662
0.013765
0.0137637
0.0137624
0.0137611
0.0137597
0.0137584
0.0137571
0.0138056
0.0138043
0.013803
0.0138016
0.0138003
0.013799
0.0137976
0.0137963
0.013795
0.0137936
0.0137923
0.0137909
0.0137896
0.0137882
0.0137869
0.0137855
0.0137841
0.0137828
0.0137814
0.01378
0.0137787
0.0137773
0.0137759
0.0137745
0.0137731
0.0137717
0.0137703
0.0137689
0.0137675
0.0137661
0.0137647
0.0137633
0.0137618
0.0137604
0.013759
0.0137575
0.0137561
0.0137547
0.0137532
0.0137518
0.0137503
0.0137488
0.0137474
0.0137459
0.0137444
0.0137429
0.0137415
0.01374
0.0137385
0.013737
0.0137355
0.013734
0.0137324
0.0137309
0.0137294
0.0137279
0.0137859
0.0137844
0.0137828
0.0137813
0.0137798
0.0137783
0.0137767
0.0137752
0.0137737
0.0137721
0.0137706
0.013769
0.0137675
0.0137659
0.0137644
0.0137628
0.0137612
0.0137597
0.0137581
0.0137565
0.0137549
0.0137533
0.0137517
0.0137501
0.0137485
0.0137469
0.0137453
0.0137437
0.0137421
0.0137404
0.0137388
0.0137372
0.0137355
0.0137339
0.0137322
0.0137306
0.0137289
0.0137272
0.0137256
0.0137239
0.0137222
0.0137205
0.0137188
0.0137171
0.0137154
0.0137137
0.0137119
0.0137102
0.0137085
0.0137067
0.013705
0.0137032
0.0137015
0.0136997
0.013698
0.0136962
0.0137651
0.0137633
0.0137616
0.0137598
0.0137581
0.0137563
0.0137546
0.0137528
0.013751
0.0137493
0.0137475
0.0137457
0.0137439
0.0137421
0.0137403
0.0137385
0.0137367
0.0137349
0.0137331
0.0137313
0.0137294
0.0137276
0.0137258
0.0137239
0.0137221
0.0137202
0.0137183
0.0137165
0.0137146
0.0137127
0.0137108
0.0137089
0.013707
0.0137051
0.0137032
0.0137013
0.0136994
0.0136974
0.0136955
0.0136935
0.0136916
0.0136896
0.0136877
0.0136857
0.0136837
0.0136817
0.0136797
0.0136777
0.0136757
0.0136736
0.0136716
0.0136696
0.0136675
0.0136655
0.0136634
0.0136613
0.0137429
0.0137409
0.0137389
0.0137368
0.0137348
0.0137328
0.0137308
0.0137288
0.0137267
0.0137247
0.0137226
0.0137206
0.0137185
0.0137165
0.0137144
0.0137123
0.0137102
0.0137081
0.013706
0.0137039
0.0137018
0.0136997
0.0136976
0.0136955
0.0136933
0.0136912
0.013689
0.0136869
0.0136847
0.0136825
0.0136804
0.0136782
0.013676
0.0136738
0.0136715
0.0136693
0.0136671
0.0136648
0.0136626
0.0136603
0.0136581
0.0136558
0.0136535
0.0136512
0.0136489
0.0136466
0.0136442
0.0136419
0.0136396
0.0136372
0.0136348
0.0136324
0.0136301
0.0136277
0.0136252
0.0136228
0.013719
0.0137167
0.0137144
0.0137121
0.0137098
0.0137075
0.0137051
0.0137028
0.0137005
0.0136981
0.0136957
0.0136934
0.013691
0.0136886
0.0136862
0.0136839
0.0136815
0.013679
0.0136766
0.0136742
0.0136718
0.0136693
0.0136669
0.0136644
0.0136619
0.0136595
0.013657
0.0136545
0.013652
0.0136494
0.0136469
0.0136444
0.0136418
0.0136393
0.0136367
0.0136341
0.0136315
0.0136289
0.0136263
0.0136237
0.013621
0.0136184
0.0136157
0.0136131
0.0136104
0.0136077
0.013605
0.0136022
0.0135995
0.0135967
0.013594
0.0135912
0.0135884
0.0135856
0.0135828
0.0135799
0.0136933
0.0136906
0.013688
0.0136853
0.0136826
0.01368
0.0136773
0.0136746
0.0136719
0.0136692
0.0136665
0.0136637
0.013661
0.0136583
0.0136555
0.0136528
0.01365
0.0136472
0.0136444
0.0136416
0.0136388
0.013636
0.0136332
0.0136303
0.0136275
0.0136246
0.0136217
0.0136188
0.0136159
0.013613
0.0136101
0.0136071
0.0136042
0.0136012
0.0135982
0.0135952
0.0135922
0.0135892
0.0135862
0.0135831
0.01358
0.0135769
0.0135738
0.0135707
0.0135676
0.0135644
0.0135613
0.0135581
0.0135549
0.0135517
0.0135484
0.0135452
0.0135419
0.0135386
0.0135353
0.013532
0.0136654
0.0136624
0.0136593
0.0136563
0.0136532
0.0136501
0.013647
0.0136439
0.0136408
0.0136377
0.0136346
0.0136314
0.0136283
0.0136251
0.0136219
0.0136188
0.0136156
0.0136123
0.0136091
0.0136059
0.0136026
0.0135994
0.0135961
0.0135928
0.0135895
0.0135862
0.0135829
0.0135795
0.0135761
0.0135728
0.0135694
0.013566
0.0135625
0.0135591
0.0135556
0.0135521
0.0135486
0.0135451
0.0135416
0.013538
0.0135344
0.0135308
0.0135272
0.0135236
0.0135199
0.0135163
0.0135126
0.0135088
0.0135051
0.0135013
0.0134975
0.0134937
0.0134899
0.013486
0.0134821
0.0134782
0.0136353
0.0136318
0.0136283
0.0136247
0.0136212
0.0136176
0.0136141
0.0136105
0.0136069
0.0136033
0.0135997
0.0135961
0.0135925
0.0135888
0.0135852
0.0135815
0.0135778
0.0135741
0.0135703
0.0135666
0.0135629
0.0135591
0.0135553
0.0135515
0.0135477
0.0135438
0.01354
0.0135361
0.0135322
0.0135283
0.0135243
0.0135204
0.0135164
0.0135124
0.0135083
0.0135043
0.0135002
0.0134961
0.013492
0.0134879
0.0134837
0.0134795
0.0134753
0.0134711
0.0134668
0.0134625
0.0134582
0.0134538
0.0134494
0.013445
0.0134406
0.0134361
0.0134316
0.013427
0.0134225
0.0134179
0.0136027
0.0135986
0.0135945
0.0135904
0.0135863
0.0135823
0.0135782
0.013574
0.0135699
0.0135658
0.0135616
0.0135574
0.0135532
0.013549
0.0135448
0.0135405
0.0135363
0.013532
0.0135277
0.0135234
0.013519
0.0135147
0.0135103
0.0135059
0.0135015
0.013497
0.0134926
0.0134881
0.0134835
0.013479
0.0134744
0.0134698
0.0134652
0.0134606
0.0134559
0.0134512
0.0134464
0.0134417
0.0134369
0.0134321
0.0134272
0.0134223
0.0134174
0.0134125
0.0134075
0.0134024
0.0133974
0.0133923
0.0133872
0.013382
0.0133768
0.0133715
0.0133663
0.0133609
0.0133556
0.0133501
0.0135675
0.0135628
0.0135581
0.0135533
0.0135486
0.0135439
0.0135391
0.0135343
0.0135296
0.0135248
0.01352
0.0135152
0.0135103
0.0135055
0.0135006
0.0134957
0.0134908
0.0134859
0.0134809
0.0134759
0.0134709
0.0134658
0.0134608
0.0134557
0.0134506
0.0134454
0.0134403
0.0134351
0.0134298
0.0134246
0.0134193
0.0134139
0.0134086
0.0134032
0.0133978
0.0133923
0.0133868
0.0133813
0.0133757
0.0133701
0.0133644
0.0133587
0.013353
0.0133472
0.0133414
0.0133355
0.0133296
0.0133237
0.0133176
0.0133116
0.0133055
0.0132993
0.0132931
0.0132869
0.0132806
0.0132742
0.0135296
0.0135242
0.0135188
0.0135134
0.0135079
0.0135024
0.0134969
0.0134914
0.0134859
0.0134803
0.0134748
0.0134692
0.0134636
0.013458
0.0134524
0.0134468
0.0134411
0.0134354
0.0134297
0.0134239
0.0134181
0.0134123
0.0134065
0.0134006
0.0133947
0.0133887
0.0133827
0.0133767
0.0133707
0.0133646
0.0133584
0.0133523
0.0133461
0.0133398
0.0133335
0.0133271
0.0133208
0.0133143
0.0133078
0.0133013
0.0132947
0.0132881
0.0132814
0.0132747
0.0132679
0.013261
0.0132541
0.0132471
0.0132401
0.013233
0.0132258
0.0132186
0.0132113
0.013204
0.0131965
0.013189
0.0134887
0.0134824
0.0134762
0.0134699
0.0134636
0.0134573
0.013451
0.0134446
0.0134382
0.0134318
0.0134254
0.0134189
0.0134125
0.013406
0.0133995
0.013393
0.0133864
0.0133799
0.0133733
0.0133666
0.0133599
0.0133532
0.0133465
0.0133397
0.0133328
0.013326
0.013319
0.0133121
0.0133051
0.013298
0.0132909
0.0132837
0.0132765
0.0132693
0.0132619
0.0132546
0.0132471
0.0132397
0.0132321
0.0132245
0.0132168
0.0132091
0.0132013
0.0131934
0.0131855
0.0131775
0.0131694
0.0131612
0.013153
0.0131447
0.0131363
0.0131278
0.0131192
0.0131106
0.0131018
0.013093
0.0134441
0.0134369
0.0134297
0.0134225
0.0134152
0.0134079
0.0134006
0.0133933
0.0133859
0.0133785
0.0133711
0.0133637
0.0133562
0.0133487
0.0133412
0.0133336
0.013326
0.0133184
0.0133108
0.0133031
0.0132954
0.0132877
0.0132799
0.013272
0.0132641
0.0132561
0.0132481
0.0132401
0.0132319
0.0132238
0.0132155
0.0132072
0.0131989
0.0131904
0.0131819
0.0131734
0.0131647
0.013156
0.0131472
0.0131384
0.0131294
0.0131204
0.0131113
0.0131021
0.0130929
0.0130835
0.013074
0.0130645
0.0130548
0.0130451
0.0130352
0.0130252
0.0130151
0.013005
0.0129946
0.0129842
0.0133955
0.0133872
0.0133789
0.0133706
0.0133622
0.0133538
0.0133454
0.0133369
0.0133284
0.0133199
0.0133113
0.0133027
0.0132941
0.0132854
0.0132767
0.013268
0.0132592
0.0132503
0.0132415
0.0132326
0.0132237
0.0132147
0.0132057
0.0131966
0.0131875
0.0131783
0.013169
0.0131597
0.0131503
0.0131408
0.0131312
0.0131216
0.0131119
0.0131021
0.0130922
0.0130823
0.0130722
0.0130621
0.0130519
0.0130416
0.0130312
0.0130206
0.01301
0.0129993
0.0129884
0.0129775
0.0129664
0.0129552
0.0129439
0.0129325
0.0129209
0.0129092
0.0128974
0.0128854
0.0128732
0.0128609
0.0133425
0.0133329
0.0133233
0.0133137
0.013304
0.0132943
0.0132846
0.0132749
0.013265
0.0132552
0.0132453
0.0132354
0.0132254
0.0132154
0.0132053
0.0131952
0.013185
0.0131748
0.0131645
0.0131542
0.0131438
0.0131335
0.013123
0.0131125
0.0131019
0.0130913
0.0130806
0.0130697
0.0130588
0.0130479
0.0130368
0.0130256
0.0130144
0.013003
0.0129915
0.01298
0.0129683
0.0129565
0.0129446
0.0129326
0.0129205
0.0129082
0.0128958
0.0128833
0.0128706
0.0128578
0.0128449
0.0128318
0.0128186
0.0128052
0.0127916
0.0127778
0.0127639
0.0127498
0.0127355
0.0127211
0.0132846
0.0132736
0.0132625
0.0132513
0.0132402
0.013229
0.0132178
0.0132065
0.0131951
0.0131838
0.0131723
0.0131609
0.0131493
0.0131378
0.0131261
0.0131144
0.0131027
0.0130908
0.0130789
0.013067
0.013055
0.0130429
0.0130307
0.0130186
0.0130063
0.012994
0.0129816
0.012969
0.0129564
0.0129437
0.0129308
0.0129179
0.0129048
0.0128916
0.0128783
0.0128649
0.0128513
0.0128376
0.0128238
0.0128098
0.0127957
0.0127814
0.012767
0.0127524
0.0127376
0.0127227
0.0127076
0.0126923
0.0126768
0.0126611
0.0126452
0.0126291
0.0126128
0.0125962
0.0125794
0.0125624
0.0132214
0.0132086
0.0131958
0.0131829
0.01317
0.0131571
0.0131441
0.0131311
0.013118
0.0131048
0.0130916
0.0130783
0.013065
0.0130516
0.0130381
0.0130246
0.013011
0.0129973
0.0129835
0.0129697
0.0129558
0.0129417
0.0129276
0.0129135
0.0128993
0.012885
0.0128706
0.0128561
0.0128415
0.0128267
0.0128118
0.0127968
0.0127816
0.0127663
0.0127509
0.0127353
0.0127196
0.0127036
0.0126876
0.0126713
0.0126549
0.0126383
0.0126215
0.0126045
0.0125873
0.0125699
0.0125523
0.0125345
0.0125164
0.0124981
0.0124795
0.0124607
0.0124416
0.0124223
0.0124027
0.0123827
0.0131523
0.0131375
0.0131227
0.0131078
0.0130929
0.0130779
0.0130629
0.0130478
0.0130326
0.0130174
0.0130021
0.0129867
0.0129713
0.0129558
0.0129402
0.0129245
0.0129088
0.0128929
0.012877
0.012861
0.0128448
0.0128286
0.0128123
0.0127958
0.0127793
0.0127627
0.012746
0.0127292
0.0127123
0.0126952
0.012678
0.0126605
0.012643
0.0126252
0.0126073
0.0125893
0.012571
0.0125525
0.0125339
0.0125151
0.012496
0.0124767
0.0124572
0.0124375
0.0124176
0.0123973
0.0123769
0.0123562
0.0123351
0.0123139
0.0122923
0.0122704
0.0122481
0.0122256
0.0122027
0.0121794
0.0130768
0.0130596
0.0130425
0.0130252
0.0130079
0.0129905
0.0129731
0.0129556
0.0129381
0.0129205
0.0129027
0.012885
0.0128671
0.0128491
0.0128311
0.0128129
0.0127947
0.0127763
0.0127579
0.0127393
0.0127206
0.0127018
0.0126829
0.0126639
0.0126447
0.0126254
0.012606
0.0125866
0.012567
0.0125472
0.0125272
0.0125071
0.0124868
0.0124663
0.0124455
0.0124246
0.0124035
0.0123821
0.0123606
0.0123387
0.0123167
0.0122944
0.0122718
0.012249
0.0122259
0.0122025
0.0121787
0.0121547
0.0121304
0.0121057
0.0120806
0.0120552
0.0120294
0.0120032
0.0119766
0.0119496
0.0129941
0.0129742
0.0129542
0.0129342
0.0129141
0.012894
0.0128738
0.0128535
0.0128332
0.0128127
0.0127922
0.0127716
0.0127509
0.0127301
0.0127092
0.0126881
0.012667
0.0126458
0.0126244
0.0126029
0.0125813
0.0125595
0.0125376
0.0125156
0.0124934
0.0124711
0.0124486
0.0124261
0.0124034
0.0123805
0.0123574
0.0123342
0.0123107
0.012287
0.012263
0.0122389
0.0122144
0.0121898
0.0121648
0.0121397
0.0121142
0.0120884
0.0120624
0.012036
0.0120093
0.0119823
0.0119549
0.0119272
0.0118991
0.0118706
0.0118417
0.0118123
0.0117826
0.0117523
0.0117216
0.0116903
0.0129034
0.0128802
0.012857
0.0128338
0.0128105
0.0127871
0.0127637
0.0127401
0.0127165
0.0126928
0.012669
0.0126451
0.0126211
0.012597
0.0125728
0.0125484
0.0125239
0.0124993
0.0124746
0.0124497
0.0124247
0.0123995
0.0123741
0.0123486
0.012323
0.0122972
0.0122712
0.0122451
0.0122188
0.0121924
0.0121658
0.0121389
0.0121118
0.0120844
0.0120568
0.012029
0.0120008
0.0119724
0.0119437
0.0119147
0.0118854
0.0118558
0.0118258
0.0117955
0.0117648
0.0117337
0.0117023
0.0116704
0.0116382
0.0116055
0.0115723
0.0115386
0.0115045
0.0114698
0.0114346
0.0113987
0.0128037
0.0127767
0.0127498
0.0127228
0.0126957
0.0126685
0.0126413
0.0126139
0.0125865
0.012559
0.0125314
0.0125037
0.0124758
0.0124478
0.0124197
0.0123915
0.0123631
0.0123346
0.0123059
0.0122771
0.0122482
0.012219
0.0121897
0.0121603
0.0121306
0.0121008
0.0120708
0.0120406
0.0120102
0.0119798
0.0119491
0.0119181
0.0118869
0.0118555
0.0118237
0.0117917
0.0117594
0.0117268
0.0116938
0.0116606
0.011627
0.0115931
0.0115588
0.0115241
0.011489
0.0114536
0.0114177
0.0113814
0.0113446
0.0113073
0.0112695
0.0112312
0.0111923
0.0111529
0.0111128
0.0110722
0.0126939
0.0126625
0.0126311
0.0125996
0.0125681
0.0125365
0.0125048
0.012473
0.0124411
0.0124092
0.0123771
0.0123449
0.0123125
0.0122801
0.0122475
0.0122147
0.0121818
0.0121488
0.0121156
0.0120823
0.0120487
0.0120151
0.0119812
0.0119472
0.011913
0.0118786
0.011844
0.0118093
0.0117743
0.0117392
0.0117039
0.0116684
0.0116326
0.0115965
0.0115602
0.0115236
0.0114866
0.0114494
0.0114118
0.0113739
0.0113356
0.011297
0.011258
0.0112187
0.0111789
0.0111387
0.011098
0.0110569
0.0110153
0.0109732
0.0109306
0.0108874
0.0108437
0.0107993
0.0107542
0.0107085
0.0125727
0.012536
0.0124993
0.0124626
0.0124258
0.012389
0.0123521
0.0123151
0.012278
0.0122408
0.0122035
0.012166
0.0121285
0.0120908
0.012053
0.012015
0.0119769
0.0119387
0.0119003
0.0118617
0.011823
0.0117841
0.0117451
0.0117059
0.0116665
0.011627
0.0115873
0.0115474
0.0115073
0.011467
0.0114267
0.0113861
0.0113452
0.0113041
0.0112627
0.011221
0.011179
0.0111367
0.0110942
0.0110513
0.011008
0.0109644
0.0109205
0.0108761
0.0108314
0.0107863
0.0107407
0.0106946
0.0106481
0.0106011
0.0105535
0.0105053
0.0104566
0.0104072
0.0103572
0.0103065
0.0124383
0.0123954
0.0123525
0.0123096
0.0122667
0.0122237
0.0121806
0.0121375
0.0120943
0.012051
0.0120076
0.0119641
0.0119204
0.0118767
0.0118328
0.0117889
0.0117448
0.0117005
0.0116562
0.0116117
0.0115671
0.0115224
0.0114775
0.0114325
0.0113873
0.011342
0.0112966
0.011251
0.0112053
0.0111594
0.0111135
0.0110673
0.011021
0.0109744
0.0109276
0.0108805
0.0108332
0.0107856
0.0107378
0.0106897
0.0106413
0.0105925
0.0105435
0.0104941
0.0104443
0.0103942
0.0103436
0.0102926
0.0102412
0.0101893
0.0101368
0.0100838
0.0100303
0.00997611
0.00992128
0.00986575
0.012289
0.0122387
0.0121884
0.0121382
0.012088
0.0120377
0.0119874
0.0119371
0.0118867
0.0118363
0.0117858
0.0117352
0.0116846
0.0116339
0.0115831
0.0115322
0.0114813
0.0114303
0.0113792
0.0113281
0.0112768
0.0112255
0.0111742
0.0111227
0.0110712
0.0110197
0.010968
0.0109163
0.0108645
0.0108126
0.0107606
0.0107086
0.0106565
0.0106042
0.0105517
0.0104991
0.0104463
0.0103933
0.0103401
0.0102867
0.0102331
0.0101793
0.0101252
0.0100708
0.0100161
0.00996109
0.00990575
0.00985005
0.00979394
0.00973741
0.00968043
0.00962294
0.00956493
0.00950634
0.00944714
0.00938727
0.0121224
0.0120632
0.0120042
0.0119453
0.0118865
0.0118277
0.011769
0.0117102
0.0116515
0.0115928
0.0115341
0.0114754
0.0114167
0.011358
0.0112993
0.0112407
0.011182
0.0111234
0.0110648
0.0110063
0.0109478
0.0108893
0.0108309
0.0107725
0.0107142
0.0106559
0.0105976
0.0105394
0.0104812
0.010423
0.0103649
0.0103069
0.0102488
0.0101907
0.0101326
0.0100744
0.0100162
0.00995785
0.00989946
0.00984097
0.00978236
0.00972363
0.00966474
0.00960569
0.00954644
0.00948697
0.00942726
0.00936727
0.00930698
0.00924635
0.00918535
0.00912393
0.00906206
0.00899968
0.00893676
0.00887323
0.0119358
0.0118661
0.0117967
0.0117276
0.0116586
0.0115898
0.0115211
0.0114525
0.0113841
0.0113159
0.0112477
0.0111797
0.0111119
0.0110442
0.0109767
0.0109093
0.0108422
0.0107752
0.0107084
0.0106419
0.0105755
0.0105094
0.0104435
0.0103778
0.0103123
0.010247
0.010182
0.0101172
0.0100525
0.00998809
0.00992386
0.00985986
0.009796
0.00973228
0.00966868
0.0096052
0.00954181
0.00947852
0.00941529
0.00935212
0.00928899
0.00922586
0.00916273
0.00909957
0.00903634
0.00897303
0.0089096
0.00884601
0.00878224
0.00871824
0.00865398
0.00858941
0.00852448
0.00845914
0.00839335
0.00832705
0.0117259
0.0116438
0.011562
0.0114807
0.0113998
0.0113192
0.011239
0.0111591
0.0110795
0.0110003
0.0109215
0.010843
0.010765
0.0106873
0.0106101
0.0105332
0.0104569
0.0103809
0.0103055
0.0102305
0.010156
0.0100819
0.0100083
0.00993521
0.00986256
0.00979037
0.00971863
0.00964734
0.00957648
0.00950604
0.00943602
0.00936642
0.00929719
0.0092283
0.00915975
0.00909151
0.00902358
0.00895593
0.00888853
0.00882138
0.00875444
0.00868768
0.00862108
0.00855461
0.00848824
0.00842193
0.00835564
0.00828935
0.00822301
0.00815658
0.00809
0.00802324
0.00795625
0.00788896
0.00782132
0.00775327
0.011489
0.0113919
0.0112955
0.0111998
0.0111049
0.0110107
0.0109171
0.0108242
0.010732
0.0106405
0.0105497
0.0104597
0.0103705
0.010282
0.0101944
0.0101075
0.0100215
0.00993629
0.00985192
0.00976838
0.00968566
0.00960377
0.00952268
0.00944239
0.00936289
0.00928417
0.00920619
0.00912896
0.00905244
0.00897661
0.00890146
0.00882696
0.00875309
0.00867981
0.00860712
0.00853498
0.00846337
0.00839227
0.00832163
0.00825144
0.00818166
0.00811226
0.0080432
0.00797444
0.00790595
0.00783769
0.00776961
0.00770168
0.00763385
0.00756606
0.00749827
0.00743043
0.00736248
0.00729435
0.007226
0.00715734
0.0112204
0.0111053
0.0109916
0.0108791
0.0107679
0.0106579
0.0105491
0.0104416
0.0103353
0.0102302
0.0101265
0.0100241
0.00992301
0.00982326
0.00972486
0.0096278
0.00953209
0.0094377
0.00934463
0.00925286
0.00916238
0.00907315
0.00898515
0.00889836
0.00881275
0.00872828
0.00864492
0.00856264
0.0084814
0.00840117
0.0083219
0.00824353
0.00816607
0.00808949
0.00801377
0.00793885
0.00786471
0.0077913
0.00771859
0.00764653
0.00757508
0.00750421
0.00743387
0.00736401
0.0072946
0.00722557
0.00715689
0.0070885
0.00702036
0.00695241
0.00688459
0.00681685
0.00674913
0.00668135
0.00661346
0.00654539
0.0109144
0.010778
0.0106438
0.0105118
0.0103819
0.010254
0.0101282
0.0100045
0.0098829
0.00976343
0.00964607
0.00953083
0.00941771
0.00930668
0.00919772
0.0090908
0.00898588
0.00888293
0.00878191
0.00868276
0.00858544
0.00848989
0.00839606
0.0083039
0.00821336
0.00812437
0.00803688
0.00795084
0.00786619
0.00778287
0.00770081
0.0076199
0.00754021
0.00746169
0.00738428
0.00730794
0.00723261
0.00715825
0.00708479
0.0070122
0.00694042
0.00686939
0.00679907
0.0067294
0.00666034
0.00659182
0.00652379
0.00645619
0.00638898
0.00632209
0.00625546
0.00618902
0.00612272
0.00605649
0.00599025
0.00592393
0.0105642
0.0104026
0.0102446
0.0100901
0.00993903
0.00979137
0.00964709
0.00950618
0.00936859
0.00923431
0.00910329
0.00897546
0.00885077
0.00872914
0.00861049
0.00849473
0.00838177
0.00827152
0.0081639
0.0080588
0.00795613
0.00785579
0.00775771
0.00766178
0.00756791
0.00747603
0.00738605
0.00729787
0.00721143
0.00712663
0.00704339
0.00696154
0.00688119
0.00680227
0.00672472
0.00664846
0.00657344
0.00649959
0.00642685
0.00635514
0.00628442
0.00621462
0.00614568
0.00607753
0.00601012
0.00594339
0.00587728
0.00581173
0.00574667
0.00568204
0.00561778
0.00555383
0.00549011
0.00542655
0.00536309
0.00529965
0.0101618
0.00997055
0.00978513
0.00960536
0.00943109
0.00926221
0.0090986
0.00894014
0.00878669
0.00863813
0.00849428
0.00835498
0.00822007
0.00808937
0.0079627
0.00783989
0.00772077
0.00760518
0.00749294
0.0073839
0.00727791
0.00717483
0.0070745
0.00697681
0.00688162
0.00678881
0.00669825
0.00660985
0.00652348
0.00643903
0.00635638
0.00627533
0.00619603
0.00611838
0.00604232
0.00596776
0.00589461
0.0058228
0.00575225
0.00568289
0.00561464
0.00554743
0.00548121
0.00541589
0.00535142
0.00528773
0.00522475
0.00516242
0.00510068
0.00503945
0.00497867
0.00491828
0.00485821
0.00479838
0.00473873
0.00467917
0.00969749
0.00947185
0.00925557
0.00904823
0.00884944
0.00865887
0.00847616
0.00830099
0.00813299
0.00797181
0.00781711
0.00766855
0.00752578
0.00738848
0.00725634
0.00712908
0.0070064
0.00688804
0.00677377
0.00666333
0.00655652
0.00645313
0.00635296
0.00625583
0.00616158
0.00607004
0.00598105
0.00589448
0.00581019
0.00572802
0.00564768
0.0055693
0.00549285
0.00541815
0.00534528
0.00527403
0.00520432
0.00513605
0.00506915
0.00500352
0.0049391
0.00487581
0.00481356
0.0047523
0.00469195
0.00463244
0.00457371
0.00451569
0.0044583
0.0044015
0.0043452
0.00428934
0.00423385
0.00417867
0.00412372
0.00406892
0.00915961
0.00889504
0.00864522
0.00840914
0.00818592
0.00797472
0.00777475
0.00758525
0.0074055
0.00723481
0.00707253
0.00691807
0.00677086
0.00663039
0.00649618
0.00636778
0.00624478
0.00612683
0.00601356
0.00590468
0.00579989
0.00569892
0.00560153
0.00550748
0.00541658
0.00532862
0.00524342
0.00516082
0.00508063
0.00500267
0.00492657
0.00485265
0.00478077
0.0047108
0.00464265
0.00457621
0.00451136
0.00444802
0.00438609
0.00432548
0.00426611
0.0042079
0.00415078
0.00409466
0.00403948
0.00398516
0.00393164
0.00387886
0.00382674
0.00377522
0.00372424
0.00367372
0.00362361
0.00357383
0.00352433
0.00347501
0.00853462
0.00822744
0.00794299
0.00767907
0.0074337
0.00720514