/*--------------------------------*- C++ -*----------------------------------*\
  =========                 |
  \\      /  F ield         | OpenFOAM: The Open Source CFD Toolbox
   \\    /   O peration     | Website:  https://openfoam.org
    \\  /    A nd           | Version:  9
     \\/     M anipulation  |
\*---------------------------------------------------------------------------*/
FoamFile
{
    format      ascii;
    class       volScalarField;
    location    "0.005";
    object      p;
}
// * * * * * * * * * * * * * * * * * * * * * * * * * * * * * * * * * * * * * //

dimensions      [1 -1 -2 0 0 0 0];

internalField   nonuniform List<scalar> 
6352
(
164299
164296
164295
164294
164294
164293
164292
164291
164291
164290
164290
164289
164289
164288
164288
164287
164287
164287
164298
164296
164295
164294
164294
164293
164292
164292
164291
164290
164290
164289
164289
164288
164288
164288
164287
164287
164297
164296
164295
164294
164294
164293
164292
164292
164291
164291
164290
164290
164289
164289
164288
164288
164287
164287
164287
164297
164296
164295
164294
164294
164293
164292
164292
164291
164291
164290
164290
164289
164289
164288
164288
164287
164287
164287
164297
164296
164295
164295
164294
164293
164292
164292
164291
164291
164290
164290
164289
164289
164288
164288
164288
164287
164287
164286
164297
164296
164295
164295
164294
164293
164293
164292
164291
164291
164290
164290
164289
164289
164289
164288
164288
164287
164287
164287
164297
164296
164295
164295
164294
164293
164293
164292
164291
164291
164290
164290
164290
164289
164289
164288
164288
164288
164287
164287
164297
164296
164295
164295
164294
164293
164293
164292
164292
164291
164291
164290
164290
164289
164289
164288
164288
164288
164287
164287
164297
164296
164295
164295
164294
164293
164293
164292
164292
164291
164291
164290
164290
164289
164289
164289
164288
164288
164287
164287
164297
164296
164295
164295
164294
164293
164293
164292
164292
164291
164291
164290
164290
164290
164289
164289
164288
164288
164288
164287
164297
164296
164295
164295
164294
164294
164293
164292
164292
164291
164291
164290
164290
164290
164289
164289
164289
164288
164288
164287
164297
164296
164295
164295
164294
164294
164293
164293
164292
164292
164291
164291
164290
164290
164289
164289
164289
164288
164288
164288
164297
164296
164296
164295
164294
164294
164293
164293
164292
164292
164291
164291
164290
164290
164290
164289
164289
164289
164288
164288
164297
164296
164296
164295
164294
164294
164293
164293
164292
164292
164291
164291
164290
164290
164290
164289
164289
164289
164288
164288
164297
164296
164296
164295
164295
164294
164293
164293
164292
164292
164291
164291
164291
164290
164290
164289
164289
164289
164289
164288
164297
164296
164296
164295
164295
164294
164293
164293
164293
164292
164292
164291
164291
164290
164290
164290
164289
164289
164289
164288
164297
164297
164296
164295
164295
164294
164294
164293
164293
164292
164292
164291
164291
164291
164290
164290
164289
164289
164289
164289
164297
164297
164296
164295
164295
164294
164294
164293
164293
164292
164292
164291
164291
164291
164290
164290
164290
164289
164289
164289
164298
164297
164296
164295
164295
164294
164294
164293
164293
164292
164292
164292
164291
164291
164290
164290
164290
164289
164289
164289
164299
164297
164296
164296
164295
164294
164294
164293
164293
164293
164292
164292
164291
164291
164291
164290
164290
164290
164289
164289
164286
164286
164286
164287
164286
164286
164287
164286
164286
164287
164287
164286
164286
164287
164287
164286
164286
164288
164287
164287
164286
164285
164288
164287
164287
164286
164286
164285
164288
164287
164287
164286
164286
164285
164288
164288
164287
164287
164286
164286
164288
164288
164287
164287
164286
164286
164285
164288
164288
164288
164287
164287
164286
164285
164289
164288
164288
164287
164287
164286
164286
164285
164289
164288
164288
164288
164287
164287
164286
164285
99986.6
99986.7
99987
99987.2
99987.3
99987.5
99987.6
99987.8
99987.9
99988
99988.2
99988.3
99988.5
99988.6
99988.7
99988.8
99989
99989.1
99989.2
99989.4
99989.5
99989.6
99989.7
99989.9
99990
99990.1
99990.2
99990.3
99990.4
99990.6
99990.7
99990.8
99990.9
99991
99991.1
99991.2
99991.3
99991.4
99991.5
99991.6
99991.7
99991.8
99991.9
99992
99992.1
99992.2
99992.3
99992.4
99992.5
99992.6
99992.7
99992.8
99992.9
99992.9
99993
99993.1
99993.2
99993.3
99993.4
99993.4
99993.5
100001
100002
100002
100002
100002
100002
100002
100002
100002
100002
100002
100002
100002
100002
100002
100002
100002
100002
100002
100003
100003
100003
100003
100003
100003
100003
100003
100003
100003
100003
100003
100003
100003
100003
100003
100003
100003
100003
100003
100003
100003
100003
100004
100004
100004
100004
100004
100004
100004
100004
100004
100004
100004
100004
100004
100004
100004
100004
100004
100004
100004
100015
100015
100015
100015
100015
100015
100015
100015
100014
100014
100014
100014
100014
100014
100014
100014
100014
100014
100014
100014
100014
100014
100014
100014
100014
100014
100014
100014
100014
100014
100013
100013
100013
100013
100013
100013
100013
100013
100013
100013
100013
100013
100013
100013
100013
100013
100013
100013
100013
100013
100013
100013
100013
100013
100013
100013
100013
100012
100012
100012
100012
100014
100014
100014
100014
100014
100014
100014
100014
100014
100014
100014
100014
100014
100014
100014
100014
100014
100014
100014
100014
100014
100014
100014
100014
100014
100014
100014
100014
100014
100014
100014
100014
100014
100014
100014
100014
100014
100014
100014
100014
100014
100014
100014
100014
100014
100014
100014
100014
100014
100014
100014
100014
100014
100014
100014
100014
100014
100014
100014
100014
100014
100024
100024
100024
100024
100024
100024
100024
100024
100024
100024
100024
100024
100024
100024
100024
100024
100023
100023
100023
100023
100023
100023
100023
100023
100023
100023
100023
100023
100023
100023
100023
100023
100023
100023
100023
100023
100023
100023
100023
100023
100023
100022
100022
100022
100022
100022
100022
100022
100022
100022
100022
100022
100022
100022
100022
100022
100022
100022
100022
100022
100022
100027
100027
100027
100027
100027
100027
100027
100027
100027
100027
100027
100027
100027
100027
100026
100026
100026
100026
100026
100026
100026
100026
100026
100026
100026
100026
100026
100026
100026
100026
100026
100026
100026
100026
100026
100026
100026
100026
100026
100026
100025
100025
100025
100025
100025
100025
100025
100025
100025
100025
100025
100025
100025
100025
100025
100025
100025
100025
100025
100025
100025
100034
100034
100034
100034
100034
100034
100034
100034
100034
100034
100034
100034
100034
100034
100034
100034
100033
100033
100033
100033
100033
100033
100033
100033
100033
100033
100033
100033
100033
100033
100033
100033
100033
100032
100032
100032
100032
100032
100032
100032
100032
100032
100032
100032
100032
100032
100032
100031
100031
100031
100031
100031
100031
100031
100031
100031
100031
100031
100031
100030
100030
100040
100039
100039
100039
100039
100039
100039
100039
100039
100039
100039
100039
100039
100039
100039
100039
100038
100038
100038
100038
100038
100038
100038
100038
100038
100038
100038
100038
100038
100037
100037
100037
100037
100037
100037
100037
100037
100037
100037
100037
100036
100036
100036
100036
100036
100036
100036
100036
100036
100035
100035
100035
100035
100035
100035
100035
100035
100035
100035
100034
100034
100047
100047
100047
100047
100047
100046
100046
100046
100046
100046
100046
100046
100046
100046
100046
100045
100045
100045
100045
100045
100045
100045
100045
100045
100044
100044
100044
100044
100044
100044
100044
100044
100043
100043
100043
100043
100043
100043
100043
100042
100042
100042
100042
100042
100042
100042
100041
100041
100041
100041
100041
100041
100040
100040
100040
100040
100040
100040
100040
100039
100039
100039
100054
100054
100054
100054
100054
100053
100053
100053
100053
100053
100053
100053
100053
100052
100052
100052
100052
100052
100052
100051
100051
100051
100051
100051
100051
100050
100050
100050
100050
100050
100049
100049
100049
100049
100049
100048
100048
100048
100048
100048
100047
100047
100047
100047
100047
100046
100046
100046
100046
100046
100045
100045
100045
100045
100044
100044
100044
100044
100044
100043
100043
100043
100063
100063
100062
100062
100062
100062
100062
100062
100061
100061
100061
100061
100061
100060
100060
100060
100060
100060
100059
100059
100059
100059
100058
100058
100058
100058
100057
100057
100057
100056
100056
100056
100056
100055
100055
100055
100054
100054
100054
100053
100053
100053
100053
100052
100052
100052
100051
100051
100051
100050
100050
100050
100049
100049
100049
100048
100048
100048
100048
100047
100047
100047
100072
100072
100072
100072
100071
100071
100071
100071
100070
100070
100070
100070
100069
100069
100069
100068
100068
100068
100067
100067
100067
100066
100066
100066
100065
100065
100064
100064
100064
100063
100063
100062
100062
100061
100061
100061
100060
100060
100059
100059
100058
100058
100057
100057
100057
100056
100056
100055
100055
100054
100054
100053
100053
100053
100052
100052
100051
100051
100050
100050
100049
100049
100084
100083
100083
100083
100082
100082
100082
100081
100081
100081
100080
100080
100079
100079
100079
100078
100078
100077
100077
100076
100076
100075
100075
100074
100073
100073
100072
100072
100071
100071
100070
100069
100069
100068
100067
100067
100066
100066
100065
100064
100064
100063
100062
100062
100061
100060
100060
100059
100058
100058
100057
100056
100056
100055
100055
100054
100053
100053
100052
100052
100051
100050
100097
100096
100096
100095
100095
100095
100094
100094
100093
100093
100092
100092
100091
100090
100090
100089
100088
100088
100087
100086
100086
100085
100084
100083
100082
100082
100081
100080
100079
100078
100077
100076
100075
100074
100074
100073
100072
100071
100070
100069
100068
100067
100066
100065
100064
100063
100062
100061
100060
100060
100059
100058
100057
100056
100055
100054
100053
100053
100052
100051
100050
100050
100112
100111
100111
100111
100110
100110
100109
100108
100108
100107
100106
100105
100105
100104
100103
100102
100101
100100
100099
100098
100097
100096
100095
100094
100093
100091
100090
100089
100088
100086
100085
100084
100082
100081
100080
100078
100077
100076
100074
100073
100072
100070
100069
100068
100066
100065
100064
100062
100061
100060
100059
100057
100056
100055
100054
100053
100051
100050
100049
100048
100047
100046
100130
100129
100129
100128
100127
100127
100126
100125
100124
100124
100123
100122
100121
100119
100118
100117
100116
100114
100113
100112
100110
100108
100107
100105
100104
100102
100100
100098
100097
100095
100093
100091
100089
100087
100085
100083
100081
100079
100077
100075
100074
100072
100070
100068
100066
100064
100062
100060
100059
100057
100055
100053
100052
100050
100049
100047
100046
100044
100043
100041
100040
100039
100150
100150
100149
100148
100148
100147
100146
100145
100144
100143
100142
100141
100139
100138
100136
100135
100133
100131
100129
100127
100125
100123
100121
100119
100116
100114
100112
100109
100107
100104
100101
100099
100096
100093
100090
100088
100085
100082
100079
100077
100074
100071
100068
100066
100063
100060
100058
100055
100053
100051
100048
100046
100044
100042
100040
100038
100036
100034
100032
100031
100029
100028
100173
100173
100172
100172
100171
100170
100169
100168
100167
100166
100164
100163
100161
100159
100157
100155
100153
100151
100148
100146
100143
100140
100137
100134
100131
100128
100124
100121
100117
100113
100110
100106
100102
100098
100094
100090
100086
100082
100079
100075
100071
100067
100063
100059
100056
100052
100048
100045
100042
100038
100035
100032
100029
100027
100024
100021
100019
100017
100015
100013
100011
100010
100198
100198
100198
100197
100197
100196
100195
100194
100193
100192
100190
100188
100186
100184
100182
100179
100176
100173
100170
100167
100163
100160
100156
100152
100147
100143
100138
100134
100129
100124
100119
100113
100108
100103
100097
100092
100086
100081
100075
100070
100064
100059
100054
100049
100044
100039
100034
100029
100025
100021
100017
100013
100009
100006
100003
99999.6
99996.8
99994.2
99991.9
99989.7
99987.8
99986.1
100225
100225
100225
100225
100225
100224
100224
100223
100222
100220
100218
100217
100214
100212
100209
100206
100203
100199
100196
100191
100187
100182
100177
100172
100166
100160
100154
100148
100141
100135
100128
100120
100113
100106
100098
100090
100083
100075
100067
100060
100052
100045
100038
100031
100024
100017
100011
100004
99998.3
99992.7
99987.3
99982.3
99977.6
99973.3
99969.4
99965.8
99962.7
99960
99957.7
99955.7
99954
99952.6
100252
100253
100254
100254
100254
100254
100254
100253
100252
100251
100249
100247
100245
100243
100240
100236
100233
100228
100224
100219
100214
100208
100202
100195
100188
100180
100172
100164
100155
100146
100137
100127
100117
100107
100097
100086
100076
100065
100055
100045
100034
100024
100014
100005
99995.8
99987.1
99978.9
99971.1
99963.9
99957.3
99951.2
99945.6
99940.2
99935.1
99930.4
99926
99922.4
99919.4
99916.5
99913.8
99911.7
99910.3
100279
100281
100282
100283
100284
100284
100284
100284
100283
100283
100281
100280
100277
100275
100272
100268
100264
100260
100255
100249
100243
100236
100229
100221
100212
100203
100193
100182
100171
100159
100146
100134
100120
100106
100092
100078
100064
100049
100035
100021
100007
99993.7
99980.9
99968.2
99955.7
99943.1
99930.5
99918.5
99907.6
99897.7
99889.2
99882.6
99877
99871.6
99866.9
99863
99860.1
99858
99856.8
99856.5
99857.1
99858.2
100305
100307
100309
100311
100312
100313
100314
100314
100314
100314
100313
100312
100310
100308
100305
100302
100298
100293
100288
100282
100275
100267
100259
100249
100239
100228
100215
100202
100188
100172
100156
100139
100121
100102
100083
100063
100043
100023
100002
99980.1
99959.3
99939.7
99921.5
99906.2
99893
99880.3
99868.4
99857.6
99848.1
99839.9
99832.8
99826.5
99821.1
99816.3
99812
99808.6
99806.3
99805.1
99804.6
99804.9
99805.9
99807.7
100328
100331
100334
100337
100339
100340
100342
100343
100344
100344
100344
100343
100342
100340
100338
100335
100331
100327
100322
100316
100309
100300
100291
100281
100269
100255
100241
100224
100206
100186
100164
100141
100116
100089
100061
100033
100005
99978.8
99955.6
99933.6
99910.7
99888.9
99868.9
99850.7
99833.8
99818.5
99805.1
99793.3
99783.3
99774.9
99768.1
99762.9
99759.2
99756.8
99755.4
99755.1
99755.8
99757.5
99759.9
99763.1
99767
99771.4
100349
100353
100357
100360
100363
100365
100367
100369
100370
100371
100371
100371
100371
100370
100368
100366
100363
100359
100355
100349
100343
100335
100325
100314
100301
100286
100269
100249
100227
100201
100172
100140
100106
100070
100035
99999.4
99965.8
99934.1
99904.2
99876
99850.2
99827.2
99807.1
99789.8
99774.9
99762.4
99752.1
99743.8
99737.3
99732.4
99729
99726.9
99725.9
99726
99727.1
99729
99731.6
99735
99739
99743.5
99748.6
99754.2
100368
100372
100377
100380
100384
100386
100389
100391
100393
100394
100396
100396
100396
100396
100396
100394
100392
100390
100386
100382
100376
100369
100360
100349
100336
100320
100300
100277
100248
100214
100175
100132
100088
100044
100001
99960.2
99921.8
99887.1
99856.2
99829.1
99805.6
99785.4
99768.3
99753.9
99742
99732.2
99724.4
99718.3
99713.7
99710.5
99708.5
99707.7
99707.8
99708.9
99710.9
99713.6
99717.1
99721.2
99725.9
99731.2
99737
99743.3
100384
100389
100394
100398
100402
100405
100408
100410
100412
100414
100416
100417
100418
100419
100419
100419
100418
100417
100415
100412
100407
100402
100394
100384
100371
100355
100334
100306
100271
100226
100175
100122
100069
100018
99970.6
99927.6
99889.6
99856.3
99827.5
99802.8
99781.6
99763.5
99748.3
99735.6
99725.2
99716.7
99710
99704.9
99701.2
99698.9
99697.7
99697.6
99698.4
99700.2
99702.7
99705.9
99709.9
99714.4
99719.5
99725.1
99731.2
99737.7
100399
100404
100409
100413
100417
100420
100423
100426
100428
100431
100432
100434
100436
100437
100438
100439
100440
100440
100439
100438
100435
100432
100426
100418
100407
100392
100369
100337
100292
100236
100175
100114
100055
100002
99953.7
99911.6
99874.9
99843.1
99815.6
99791.9
99771.7
99754.5
99740
99727.9
99718
99710
99703.7
99699
99695.7
99693.7
99692.8
99692.9
99694
99696
99698.7
99702.2
99706.3
99711
99716.2
99721.9
99728
99734.6
100412
100417
100422
100426
100430
100433
100436
100439
100441
100444
100446
100448
100450
100452
100454
100455
100457
100458
100459
100459
100459
100458
100455
100450
100441
100427
100405
100368
100315
100249
100180
100114
100053
99998.8
99951.1
99909.4
99873
99841.4
99814.1
99790.5
99770.2
99753
99738.4
99726.3
99716.3
99708.2
99702
99697.2
99694
99692
99691.1
99691.4
99692.5
99694.6
99697.4
99700.9
99705
99709.7
99714.9
99720.6
99726.7
99733.1
100423
100429
100434
100438
100441
100444
100447
100449
100452
100454
100456
100458
100461
100463
100465
100468
100470
100472
100474
100476
100478
100479
100479
100477
100471
100460
100439
100399
100340
100267
100193
100124
100062
100007
99959.1
99916.8
99879.7
99847.3
99819.2
99794.9
99774
99756.1
99741
99728.3
99717.9
99709.5
99703
99698.1
99694.6
99692.5
99691.6
99691.7
99692.9
99694.9
99697.7
99701.2
99705.3
99710
99715.1
99720.7
99726.7
99732.9
100434
100440
100444
100448
100451
100453
100455
100458
100460
100462
100464
100466
100469
100471
100474
100477
100480
100483
100486
100489
100492
100495
100497
100498
100496
100489
100470
100431
100368
100291
100215
100144
100080
100024
99974.1
99930.3
99891.8
99858
99828.6
99803
99780.9
99762
99746
99732.6
99721.6
99712.7
99705.7
99700.4
99696.7
99694.4
99693.4
99693.4
99694.5
99696.5
99699.2
99702.7
99706.8
99711.4
99716.5
99722
99727.8
99733.8
100444
100450
100454
100457
100459
100461
100463
100464
100466
100468
100470
100473
100475
100478
100481
100484
100487
100491
100495
100499
100503
100507
100511
100514
100516
100511
100496
100461
100399
100321
100243
100169
100104
100046
99994
99948.1
99907.6
99871.8
99840.5
99813.3
99789.7
99769.6
99752.5
99738.2
99726.4
99716.9
99709.5
99703.9
99699.9
99697.4
99696.1
99696.1
99697.1
99699
99701.7
99705.2
99709.3
99713.9
99718.9
99724.3
99730
99735.8
100454
100459
100462
100464
100466
100467
100468
100470
100471
100473
100475
100477
100480
100483
100486
100489
100493
100497
100501
100505
100510
100515
100520
100525
100529
100528
100517
100488
100432
100355
100275
100200
100132
100071
100017
99968.6
99925.5
99887.3
99853.8
99824.6
99799.4
99777.8
99759.6
99744.4
99731.9
99721.8
99713.9
99707.9
99703.6
99700.9
99699.6
99699.5
99700.4
99702.3
99705.1
99708.5
99712.6
99717.2
99722.2
99727.5
99733
99738.6
100463
100468
100470
100471
100472
100472
100473
100474
100475
100477
100478
100481
100483
100486
100490
100493
100497
100501
100505
100510
100514
100520
100526
100532
100536
100537
100531
100510
100462
100391
100310
100233
100163
100100
100042
99990.6
99944.4
99903.5
99867.5
99836.2
99809.2
99786.2
99766.8
99750.7
99737.4
99726.8
99718.5
99712.2
99707.7
99704.9
99703.5
99703.3
99704.3
99706.2
99709
99712.5
99716.6
99721.2
99726.2
99731.4
99736.8
99742.2
100472
100476
100477
100477
100477
100477
100477
100477
100478
100479
100481
100483
100486
100489
100493
100496
100500
100504
100508
100513
100517
100523
100528
100535
100540
100542
100538
100525
100488
100425
100346
100268
100195
100129
100068
100013
99963.4
99919.4
99880.8
99847.4
99818.6
99794.2
99773.7
99756.7
99742.8
99731.7
99723
99716.4
99711.8
99708.9
99707.4
99707.3
99708.3
99710.3
99713.2
99716.8
99721
99725.7
99730.7
99735.9
99741.2
99746.3
100481
100483
100483
100482
100481
100480
100480
100480
100480
100482
100483
100486
100488
100491
100495
100498
100502
100506
100511
100515
100519
100524
100530
100535
100540
100542
100540
100532
100507
100455
100382
100304
100229
100159
100094
100035
99981.9
99934.6
99893.3
99857.6
99827.2
99801.4
99779.9
99762.1
99747.7
99736.1
99727.1
99720.4
99715.7
99712.7
99711.3
99711.2
99712.3
99714.5
99717.5
99721.3
99725.7
99730.5
99735.6
99740.8
99746
99751
100489
100490
100488
100486
100484
100483
100482
100482
100482
100483
100485
100487
100490
100493
100496
100500
100504
100508
100512
100516
100521
100525
100530
100534
100538
100540
100538
100534
100519
100480
100416
100339
100262
100189
100120
100056
99999.1
99948.5
99904.5
99866.7
99834.6
99807.7
99785.2
99766.8
99751.8
99739.9
99730.7
99723.9
99719.1
99716.2
99714.8
99714.8
99716.1
99718.4
99721.6
99725.6
99730.2
99735.2
99740.5
99745.9
99751.1
99756
100497
100495
100493
100490
100487
100485
100484
100483
100483
100484
100486
100488
100491
100494
100498
100502
100506
100510
100514
100518
100522
100525
100529
100533
100536
100537
100534
100532
100525
100499
100446
100374
100295
100218
100144
100076
100015
99960.8
99914.2
99874.4
99840.9
99812.8
99789.6
99770.6
99755.2
99743
99733.7
99726.7
99721.9
99719
99717.7
99717.9
99719.3
99721.8
99725.3
99729.6
99734.4
99739.7
99745.2
99750.8
99756.2
99761.1
100504
100501
100496
100492
100489
100487
100485
100484
100484
100485
100487
100489
100492
100495
100499
100503
100507
100511
100515
100519
100522
100525
100528
100531
100533
100534
100531
100528
100526
100511
100471
100406
100327
100246
100167
100094
100029
99971.5
99922.3
99880.8
99845.9
99816.9
99793
99773.5
99757.8
99745.4
99735.8
99728.8
99724
99721.2
99720
99720.3
99721.9
99724.6
99728.3
99732.8
99738
99743.6
99749.4
99755.3
99761
99766.1
100510
100505
100500
100495
100491
100488
100486
100485
100485
100486
100488
100490
100493
100496
100500
100504
100508
100512
100516
100519
100523
100525
100527
100529
100531
100531
100528
100525
100524
100517
100489
100433
100357
100272
100189
100111
100041
99980.3
99928.9
99885.7
99849.7
99819.9
99795.4
99775.5
99759.5
99746.9
99737.3
99730.3
99725.5
99722.6
99721.5
99721.9
99723.7
99726.6
99730.5
99735.3
99740.7
99746.7
99752.8
99759.1
99765.1
99770.7
100516
100509
100502
100497
100492
100489
100487
100486
100486
100487
100488
100490
100493
100497
100500
100504
100509
100513
100517
100520
100523
100525
100526
100528
100529
100530
100527
100522
100522
100519
100501
100455
100383
100297
100208
100125
100051
99987.6
99934.1
99889.5
99852.5
99822
99797.1
99776.8
99760.6
99747.9
99738.2
99731
99726.2
99723.4
99722.4
99722.9
99724.7
99727.8
99731.9
99736.9
99742.6
99748.8
99755.3
99761.9
99768.4
99774.4
100521
100512
100504
100498
100493
100490
100487
100486
100486
100487
100488
100491
100494
100497
100501
100505
100509
100514
100517
100520
100523
100525
100526
100527
100528
100529
100526
100521
100519
100518
100508
100472
100406
100318
100225
100137
100059
99993.3
99938
99892.2
99854.4
99823.4
99798
99777.5
99761.1
99748.3
99738.5
99731.3
99726.5
99723.6
99722.6
99723.2
99725.1
99728.2
99732.4
99737.6
99743.5
99749.9
99756.7
99763.6
99770.5
99777.1
100525
100514
100506
100499
100494
100490
100488
100487
100486
100487
100489
100491
100494
100497
100501
100505
100510
100514
100518
100521
100523
100524
100525
100526
100528
100529
100526
100520
100517
100516
100510
100483
100424
100337
100240
100147
100066
99997.8
99941
99894.2
99855.7
99824.2
99798.5
99777.8
99761.3
99748.3
99738.4
99731.2
99726.3
99723.4
99722.4
99722.9
99724.9
99728.1
99732.3
99737.5
99743.5
99750.1
99757.1
99764.2
99771.4
99778.4
100528
100516
100507
100500
100494
100491
100488
100487
100487
100487
100489
100491
100494
100498
100502
100506
100510
100514
100518
100521
100523
100524
100525
100526
100528
100529
100526
100520
100516
100514
100510
100489
100438
100353
100253
100156
100072
100001
99943.1
99895.5
99856.5
99824.6
99798.7
99777.8
99761.1
99748.1
99738.1
99730.8
99725.9
99723
99721.9
99722.4
99724.3
99727.4
99731.7
99736.9
99742.9
99749.6
99756.6
99763.9
99771.2
99778.4
100531
100518
100508
100501
100495
100491
100488
100487
100487
100488
100489
100491
100494
100498
100502
100506
100510
100515
100518
100521
100523
100524
100525
100526
100528
100529
100526
100520
100515
100513
100508
100491
100446
100365
100263
100163
100076
100004
99944.7
99896.4
99857
99824.8
99798.7
99777.7
99760.9
99747.7
99737.7
99730.3
99725.3
99722.4
99721.2
99721.7
99723.5
99726.6
99730.8
99736
99741.9
99748.5
99755.5
99762.8
99770.1
99777.4
100533
100519
100509
100501
100495
100491
100488
100487
100487
100488
100489
100491
100494
100498
100502
100506
100511
100515
100518
100521
100523
100524
100525
100526
100528
100529
100527
100521
100515
100512
100506
100491
100451
100374
100271
100169
100080
100006
99945.8
99897
99857.2
99824.8
99798.6
99777.5
99760.6
99747.4
99737.3
99729.9
99724.8
99721.8
99720.6
99721
99722.8
99725.8
99729.9
99735
99740.8
99747.3
99754.2
99761.3
99768.6
99775.7
100535
100520
100509
100501
100495
100491
100488
100487
100487
100488
100489
100492
100494
100498
100502
100506
100511
100515
100518
100521
100522
100524
100525
100526
100528
100530
100527
100521
100515
100511
100504
100489
100452
100379
100277
100173
100082
100007
99946.5
99897.3
99857.3
99824.8
99798.4
99777.2
99760.3
99747
99736.9
99729.4
99724.3
99721.3
99720.1
99720.4
99722.1
99725
99729.1
99734.1
99739.9
99746.3
99753
99760
99767.1
99774
100536
100520
100510
100502
100496
100491
100489
100487
100487
100488
100489
100492
100494
100498
100502
100506
100510
100515
100518
100520
100522
100524
100525
100526
100528
100530
100528
100521
100515
100510
100503
100487
100451
100380
100279
100175
100084
100008
99947
99897.5
99857.4
99824.7
99798.3
99777
99760.1
99746.7
99736.6
99729.1
99724
99720.9
99719.6
99719.9
99721.6
99724.4
99728.4
99733.3
99739
99745.3
99752
99758.9
99765.9
99772.6
100537
100521
100510
100502
100496
100491
100489
100487
100487
100488
100489
100492
100494
100498
100502
100506
100510
100514
100518
100520
100522
100524
100525
100526
100528
100530
100528
100521
100515
100510
100502
100485
100449
100379
100279
100176
100084
100008
99946.9
99897.4
99857.1
99824.4
99798
99776.7
99759.7
99746.4
99736.2
99728.7
99723.6
99720.5
99719.1
99719.4
99721
99723.8
99727.7
99732.6
99738.3
99744.6
99751.2
99758.1
99765
99771.6
100537
100521
100510
100502
100496
100491
100489
100487
100487
100488
100489
100491
100494
100498
100502
100506
100510
100514
100518
100520
100522
100524
100525
100526
100528
100530
100528
100522
100515
100510
100502
100485
100448
100377
100278
100175
100083
100008
99946.4
99896.9
99856.7
99824
99797.6
99776.4
99759.4
99746.1
99735.9
99728.4
99723.3
99720.2
99718.8
99719
99720.6
99723.4
99727.3
99732.2
99737.9
99744.2
99750.8
99757.6
99764.5
99771.2
100028
100032
100036
100040
100044
100049
100053
100057
100055
100061
100058
100065
100060
100068
100062
100070
100053
100063
100071
100052
100062
100072
100049
100060
100071
100033
100045
100057
100068
100026
100039
100051
100063
100002
100016
100030
100044
100057
99972.8
99988.2
100004
100019
100033
100048
99954.3
99971.1
99987.8
100004
100021
100037
99913.1
99931.7
99950.2
99968.5
99986.6
100004
100022
99863.7
99884.3
99904.8
99925.1
99945.2
99965.1
99984.8
100004
99827.6
99850.3
99872.8
99895.2
99917.4
99939.3
99961
99982.4
99760.5
99785.6
99810.5
99835.4
99860.1
99884.6
99908.8
99932.8
99956.5
99681.9
99709.4
99737
99764.5
99792
99819.2
99846.3
99873.2
99899.8
99926
99590.6
99620.8
99651.1
99681.5
99711.8
99742.2
99772.4
99802.4
99832.1
99861.6
99890.6
99485.7
99518.6
99551.7
99585.1
99618.6
99652.1
99685.6
99719.1
99752.3
99785.3
99817.9
99850.2
99367.1
99402.5
99438.4
99474.8
99511.5
99548.4
99585.4
99622.4
99659.4
99696.1
99732.7
99768.8
99804.6
99233.8
99271.7
99310.3
99349.7
99389.6
99429.9
99470.5
99511.3
99552.2
99593
99633.7
99674.1
99714.1
99753.7
99087.8
99127.8
99168.9
99211
99253.9
99297.5
99341.7
99386.3
99431.1
99476
99521
99565.8
99610.3
99654.5
99698.1
98926.4
98968.2
99011.6
99056.3
99102.2
99149
99196.8
99245.2
99294
99343.3
99392.7
99442.1
99491.4
99540.4
99589.1
99637.2
98718.5
98759
98801.8
98846.6
98893.2
98941.4
98991
99041.7
99093.5
99146.1
99199.3
99252.9
99306.8
99360.7
99414.5
99468
99521.2
99573.7
98528.7
98569.7
98613.4
98659.7
98708.3
98758.9
98811.4
98865.4
98920.7
98977.2
99034.6
99092.7
99151.3
99210.3
99269.3
99328.3
99386.9
99445.1
99502.7
98359.5
98398.8
98441.7
98487.6
98536.2
98587.5
98641.1
98696.9
98754.4
98813.6
98874
98935.6
98997.9
99060.8
99124.1
99187.5
99250.8
99313.8
99376.3
99438.2
98131.4
98169.4
98213.2
98260.5
98310.6
98363.6
98419.4
98478.2
98539.8
98603
98667.3
98733.2
98800.1
98867.8
98936.4
99005.7
99075.2
99144.5
99213.5
99281.9
99349.7
98004.1
98037.7
98076.6
98120.2
98167.9
98219.3
98273.8
98331.2
98392.7
98456.9
98521.4
98588.1
98657.2
98727.3
98798.6
98871.4
98945.1
99018
99090.6
99162.9
99234.6
99305.6
97729.8
97759.6
97795.6
97837.3
97884.3
97936
97992.1
98051.9
98115.4
98182.6
98252.2
98323.9
98398.1
98474
98551.1
98628.7
98706.4
98784.5
98864.3
98943.8
99023.2
99101.9
99179.7
100006
100007
100008
100009
100010
100011
100012
100013
100014
100015
100017
100018
100019
100020
100021
100023
100024
100025
100027
100028
100029
100031
100032
100033
100034
100035
100037
100038
100039
100040
100040
100041
100042
100042
100042
100042
100042
100042
100041
100040
100038
100036
100034
100030
100026
100021
100015
100009
100001
99992.3
100009
100009
100010
100010
100011
100011
100011
100011
100012
100012
100012
100012
100012
100012
100012
100012
100012
100012
100012
100012
100011
100011
100011
100010
100010
100009
100008
100008
100007
100006
100005
100004
100004
100003
100002
100001
100000
99999.2
99998.4
99997.7
99997
99996.6
99996.3
99996.2
99996.2
99996.7
99997.5
99998.6
99999.7
100001
100007
100007
100008
100008
100008
100009
100009
100009
100010
100010
100010
100010
100011
100011
100011
100011
100012
100012
100012
100012
100012
100013
100013
100013
100013
100014
100014
100014
100015
100015
100015
100016
100016
100016
100017
100017
100017
100018
100018
100018
100018
100018
100018
100018
100018
100018
100017
100017
100016
100015
100007
100008
100008
100009
100010
100010
100011
100012
100012
100013
100013
100014
100014
100015
100015
100016
100016
100017
100017
100018
100018
100018
100019
100019
100019
100020
100020
100020
100020
100020
100020
100020
100020
100020
100020
100019
100019
100019
100018
100018
100018
100017
100017
100016
100016
100016
100015
100015
100015
100015
100009
100010
100010
100011
100012
100013
100013
100014
100015
100016
100016
100017