/*--------------------------------*- C++ -*----------------------------------*\
  =========                 |
  \\      /  F ield         | OpenFOAM: The Open Source CFD Toolbox
   \\    /   O peration     | Website:  https://openfoam.org
    \\  /    A nd           | Version:  9
     \\/     M anipulation  |
\*---------------------------------------------------------------------------*/
FoamFile
{
    format      ascii;
    class       surfaceScalarField;
    location    "0.005";
    object      phi;
}
// * * * * * * * * * * * * * * * * * * * * * * * * * * * * * * * * * * * * * //

dimensions      [1 0 -1 0 0 0 0];

internalField   nonuniform List<scalar> 
23876
(
0.354354
-0.000537846
-0.354702
0.354013
-0.000540087
0.353678
-0.000542061
0.353351
-0.000543966
0.35303
-0.000545906
0.352716
-0.000547861
0.352409
-0.000549808
0.352107
-0.000551746
0.351812
-0.000553676
0.351523
-0.0005556
0.35124
-0.000557517
0.350962
-0.000559429
0.35069
-0.000561335
0.350424
-0.000563235
0.350163
-0.000565131
0.349907
-0.000567022
0.349656
-0.000568908
0.34941
-0.000570791
0.349169
-0.000572669
0.348933
-0.000574543
0.348701
-0.000576413
0.348474
-0.00057828
0.348252
-0.000580144
0.348033
-0.000582004
0.347819
-0.000583861
0.347609
-0.000585716
0.347403
-0.000587568
0.347201
-0.000589417
0.347003
-0.000591264
0.346809
-0.000593109
0.346618
-0.000594951
0.346431
-0.000596792
0.346247
-0.00059863
0.346067
-0.000600467
0.345891
-0.000602302
0.345717
-0.000604135
0.345547
-0.000605967
0.345379
-0.000607797
0.345215
-0.000609626
0.345054
-0.000611453
0.344896
-0.000613279
0.344741
-0.000615103
0.344588
-0.000616926
0.344438
-0.000618748
0.344291
-0.000620568
0.344146
-0.000622387
0.344004
-0.000624204
0.343865
-0.00062602
0.343728
-0.000627835
0.343593
-0.000629648
0.34346
-0.00063146
0.34333
-0.00063327
0.343202
-0.000635079
0.343076
-0.000636886
0.342953
-0.000638691
0.342831
-0.000640494
0.342712
-0.000642295
0.342594
-0.000644094
0.342478
-0.00064589
0.342365
-0.000647684
-0.000649475
0.301846
-0.000436793
-0.301947
0.301748
-0.000442057
0.301653
-0.000447126
0.301561
-0.00045206
0.301472
-0.000456909
0.301386
-0.000461687
0.301303
-0.000466382
0.301222
-0.000470995
0.301144
-0.000475529
0.301068
-0.000479986
0.300995
-0.000484368
0.300924
-0.000488677
0.300856
-0.000492916
0.30079
-0.000497087
0.300726
-0.00050119
0.300664
-0.000505229
0.300604
-0.000509204
0.300547
-0.000513117
0.300491
-0.000516971
0.300437
-0.000520766
0.300385
-0.000524505
0.300335
-0.000528189
0.300287
-0.00053182
0.30024
-0.000535398
0.300195
-0.000538926
0.300152
-0.000542405
0.30011
-0.000545837
0.30007
-0.000549221
0.300031
-0.000552561
0.299994
-0.000555857
0.299958
-0.00055911
0.299924
-0.000562322
0.299891
-0.000565494
0.299859
-0.000568626
0.299828
-0.00057172
0.299799
-0.000574778
0.299771
-0.000577799
0.299744
-0.000580785
0.299718
-0.000583737
0.299693
-0.000586655
0.299669
-0.000589541
0.299646
-0.000592396
0.299625
-0.000595219
0.299604
-0.000598013
0.299584
-0.000600777
0.299565
-0.000603512
0.299547
-0.00060622
0.29953
-0.0006089
0.299514
-0.000611553
0.299499
-0.00061418
0.299484
-0.000616781
0.29947
-0.000619357
0.299457
-0.000621908
0.299444
-0.000624435
0.299433
-0.000626937
0.299421
-0.000629416
0.299411
-0.00063187
0.299401
-0.000634301
0.299392
-0.000636707
0.299383
-0.000639093
-0.000641444
0.279266
-0.000513545
-0.279189
0.27934
-0.000516136
0.279411
-0.000518299
0.279479
-0.000520473
0.279545
-0.000522649
0.279608
-0.000524827
0.279669
-0.000527008
0.279727
-0.000529191
0.279783
-0.000531374
0.279837
-0.000533557
0.279888
-0.00053574
0.279937
-0.000537924
0.279984
-0.000540106
0.28003
-0.000542281
0.280073
-0.000544446
0.280114
-0.000546603
0.280154
-0.00054876
0.280192
-0.000550916
0.280228
-0.000553073
0.280262
-0.000555229
0.280295
-0.000557386
0.280326
-0.000559542
0.280356
-0.000561698
0.280385
-0.000563853
0.280412
-0.000566008
0.280438
-0.000568162
0.280462
-0.000570316
0.280485
-0.000572469
0.280507
-0.00057462
0.280528
-0.000576771
0.280548
-0.00057892
0.280567
-0.000581069
0.280585
-0.000583217
0.280601
-0.000585363
0.280617
-0.000587508
0.280632
-0.000589652
0.280646
-0.000591795
0.280659
-0.000593937
0.280671
-0.000596077
0.280683
-0.000598215
0.280694
-0.000600352
0.280704
-0.000602488
0.280713
-0.000604622
0.280722
-0.000606754
0.28073
-0.000608885
0.280738
-0.000611014
0.280745
-0.000613141
0.280751
-0.000615265
0.280757
-0.000617388
0.280762
-0.000619508
0.280767
-0.000621626
0.280771
-0.000623742
0.280775
-0.000625854
0.280779
-0.000627964
0.280782
-0.000630071
0.280785
-0.000632174
0.280787
-0.000634274
0.280789
-0.000636369
0.280791
-0.00063846
0.280792
-0.000640549
-0.000642624
0.258981
-0.000469226
-0.259025
0.258936
-0.000471471
0.258892
-0.000474057
0.258848
-0.000476663
0.258804
-0.000479281
0.258762
-0.000481903
0.258719
-0.000484529
0.258677
-0.000487158
0.258635
-0.000489792
0.258594
-0.000492428
0.258554
-0.000495068
0.258513
-0.00049771
0.258474
-0.000500353
0.258434
-0.000502997
0.258396
-0.00050564
0.258357
-0.00050828
0.258319
-0.000510922
0.258282
-0.000513564
0.258245
-0.000516208
0.258209
-0.000518852
0.258173
-0.000521496
0.258138
-0.000524139
0.258103
-0.000526782
0.258068
-0.000529425
0.258034
-0.000532066
0.258001
-0.000534706
0.257968
-0.000537345
0.257935
-0.000539981
0.257903
-0.000542616
0.257872
-0.000545249
0.257841
-0.000547879
0.25781
-0.000550506
0.25778
-0.00055313
0.25775
-0.000555752
0.257721
-0.000558368
0.257693
-0.000560975
0.257664
-0.000563575
0.257637
-0.000566171
0.257609
-0.000568763
0.257582
-0.000571352
0.257556
-0.000573937
0.25753
-0.000576518
0.257505
-0.000579095
0.25748
-0.000581668
0.257455
-0.000584237
0.257431
-0.000586802
0.257407
-0.000589362
0.257384
-0.000591918
0.257361
-0.00059447
0.257338
-0.000597017
0.257316
-0.000599559
0.257294
-0.000602097
0.257273
-0.00060463
0.257252
-0.000607158
0.257232
-0.000609682
0.257212
-0.0006122
0.257192
-0.000614714
0.257173
-0.000617223
0.257155
-0.000619727
0.257136
-0.000622225
-0.000624719
0.236288
-0.000486437
-0.236271
0.236306
-0.000489314
0.236324
-0.000491722
0.236341
-0.000494111
0.236358
-0.000496498
0.236375
-0.000498888
0.236392
-0.000501281
0.236409
-0.000503676
0.236425
-0.000506074
0.236441
-0.000508474
0.236457
-0.000510877
0.236472
-0.000513282
0.236488
-0.000515691
0.236503
-0.000518111
0.236518
-0.000520546
0.236532
-0.000522991
0.236547
-0.000525438
0.236561
-0.000527888
0.236575
-0.000530339
0.236589
-0.000532793
0.236603
-0.000535248
0.236617
-0.000537705
0.23663
-0.000540164
0.236643
-0.000542624
0.236656
-0.000545085
0.236669
-0.000547548
0.236682
-0.000550012
0.236694
-0.000552478
0.236707
-0.000554944
0.236719
-0.000557411
0.236731
-0.000559879
0.236743
-0.000562348
0.236754
-0.000564817
0.236766
-0.000567287
0.236777
-0.000569755
0.236788
-0.000572219
0.2368
-0.000574678
0.23681
-0.000577137
0.236821
-0.000579596
0.236832
-0.000582055
0.236843
-0.000584513
0.236853
-0.000586965
0.236863
-0.000589414
0.236874
-0.000591861
0.236884
-0.000594308
0.236894
-0.000596755
0.236903
-0.000599201
0.236913
-0.000601647
0.236923
-0.000604092
0.236932
-0.000606536
0.236942
-0.000608979
0.236951
-0.000611422
0.23696
-0.000613864
0.236969
-0.000616305
0.236978
-0.000618744
0.236987
-0.000621183
0.236996
-0.00062362
0.237005
-0.000626056
0.237014
-0.000628491
0.237023
-0.000630924
-0.000633356
0.219466
-0.000465943
-0.219487
0.219445
-0.000468399
0.219424
-0.000470915
0.219404
-0.000473424
0.219383
-0.000475942
0.219363
-0.000478468
0.219342
-0.000481
0.219322
-0.00048354
0.219302
-0.000486086
0.219282
-0.000488638
0.219263
-0.000491197
0.219243
-0.000493762
0.219224
-0.000496333
0.219205
-0.000498914
0.219186
-0.000501506
0.219167
-0.000504107
0.219148
-0.000506714
0.219129
-0.000509325
0.219111
-0.000511942
0.219093
-0.000514562
0.219075
-0.000517187
0.219057
-0.000519816
0.219039
-0.00052245
0.219022
-0.000525087
0.219004
-0.000527728
0.218987
-0.000530373
0.21897
-0.000533021
0.218953
-0.000535672
0.218937
-0.000538327
0.21892
-0.000540984
0.218904
-0.000543642
0.218888
-0.0005463
0.218872
-0.00054896
0.218856
-0.000551621
0.218841
-0.000554285
0.218826
-0.000556952
0.218811
-0.00055962
0.218796
-0.000562291
0.218781
-0.000564963
0.218767
-0.000567637
0.218753
-0.000570312
0.218739
-0.000572983
0.218725
-0.000575653
0.218711
-0.000578323
0.218698
-0.000580995
0.218685
-0.000583668
0.218672
-0.000586341
0.218659
-0.000589016
0.218647
-0.000591691
0.218635
-0.000594366
0.218623
-0.000597042
0.218611
-0.000599718
0.2186
-0.000602394
0.218588
-0.00060507
0.218577
-0.000607746
0.218567
-0.000610422
0.218556
-0.000613097
0.218546
-0.000615771
0.218536
-0.000618445
0.218526
-0.000621118
-0.000623804
0.200715
-0.000459428
-0.200722
0.200709
-0.000462602
0.200704
-0.000465371
0.200698
-0.000468098
0.200693
-0.000470821
0.200688
-0.000473548
0.200684
-0.00047628
0.200679
-0.000479018
0.200675
-0.00048176
0.200671
-0.000484507
0.200667
-0.000487259
0.200663
-0.000490015
0.200659
-0.000492776
0.200656
-0.000495541
0.200653
-0.00049831
0.20065
-0.000501084
0.200647
-0.000503861
0.200644
-0.000506642
0.200642
-0.000509427
0.200639
-0.000512215
0.200637
-0.000515007
0.200635
-0.000517802
0.200633
-0.000520597
0.200632
-0.000523393
0.20063
-0.000526192
0.200629
-0.000528993
0.200628
-0.000531797
0.200627
-0.000534604
0.200626
-0.000537413
0.200625
-0.000540224
0.200624
-0.000543036
0.200624
-0.000545847
0.200623
-0.000548659
0.200623
-0.000551472
0.200623
-0.000554288
0.200624
-0.000557105
0.200624
-0.000559924
0.200624
-0.000562745
0.200625
-0.000565566
0.200626
-0.00056839
0.200627
-0.000571214
0.200628
-0.000574039
0.200629
-0.000576866
0.20063
-0.000579693
0.200632
-0.00058252
0.200633
-0.000585348
0.200635
-0.000588177
0.200637
-0.000591005
0.200639
-0.000593833
0.200642
-0.000596661
0.200644
-0.000599489
0.200647
-0.000602316
0.200649
-0.000605141
0.200652
-0.000607965
0.200655
-0.000610788
0.200659
-0.000613609
0.200662
-0.000616428
0.200665
-0.000619244
0.200669
-0.000622057
0.200673
-0.000624888
-0.000627741
0.185682
-0.000443894
-0.185697
0.185666
-0.000446918
0.18565
-0.000449796
0.185635
-0.000452644
0.18562
-0.000455496
0.185604
-0.000458354
0.185589
-0.00046122
0.185574
-0.000464094
0.18556
-0.000466976
0.185545
-0.000469865
0.185531
-0.00047276
0.185516
-0.000475663
0.185502
-0.000478572
0.185488
-0.000481487
0.185474
-0.000484408
0.18546
-0.000487336
0.185447
-0.000490269
0.185433
-0.000493207
0.18542
-0.000496151
0.185407
-0.000499099
0.185394
-0.000502053
0.185381
-0.000505013
0.185369
-0.000507976
0.185356
-0.000510941
0.185344
-0.00051391
0.185332
-0.000516881
0.18532
-0.000519859
0.185308
-0.000522832
0.185296
-0.000525841
0.185285
-0.00052886
0.185274
-0.000531886
0.185263
-0.000534916
0.185252
-0.000537951
0.185242
-0.00054099
0.185231
-0.000544033
0.185221
-0.00054708
0.185212
-0.000550131
0.185202
-0.000553185
0.185193
-0.000556243
0.185184
-0.000559304
0.185175
-0.000562368
0.185166
-0.000565434
0.185158
-0.000568503
0.18515
-0.000571575
0.185142
-0.000574649
0.185134
-0.000577724
0.185127
-0.000580801
0.18512
-0.00058388
0.185113
-0.000586959
0.185106
-0.00059004
0.1851
-0.000593121
0.185094
-0.000596203
0.185088
-0.000599285
0.185082
-0.000602366
0.185077
-0.000605447
0.185072
-0.000608527
0.185067
-0.000611606
0.185063
-0.000614683
0.185058
-0.000617758
0.185054
-0.00062085
-0.000623952
0.170465
-0.000428446
-0.170481
0.17045
-0.000431629
0.170435
-0.000434729
0.17042
-0.000437833
0.170406
-0.000440944
0.170391
-0.000444065
0.170377
-0.000447196
0.170364
-0.000450336
0.17035
-0.000453488
0.170337
-0.00045667
0.170324
-0.000459867
0.170311
-0.000463076
0.170299
-0.000466294
0.170287
-0.000469521
0.170276
-0.000472758
0.170264
-0.000476003
0.170253
-0.000479257
0.170243
-0.00048252
0.170232
-0.000485789
0.170222
-0.000489061
0.170212
-0.000492318
0.170203
-0.00049556
0.170194
-0.000498802
0.170185
-0.000502048
0.170176
-0.000505298
0.170168
-0.000508552
0.17016
-0.000511812
0.170152
-0.000515068
0.170145
-0.000518359
0.170137
-0.000521662
0.170131
-0.00052497
0.170124
-0.000528283
0.170118
-0.000531602
0.170112
-0.000534924
0.170106
-0.000538252
0.1701
-0.000541582
0.170095
-0.000544917
0.17009
-0.000548255
0.170085
-0.000551593
0.170081
-0.000554934
0.170077
-0.000558277
0.170073
-0.000561621
0.17007
-0.000564967
0.170066
-0.000568313
0.170063
-0.000571661
0.170061
-0.000575008
0.170058
-0.000578354
0.170056
-0.0005817
0.170054
-0.000585073
0.170053
-0.000588459
0.170051
-0.000591849
0.17005
-0.000595241
0.17005
-0.000598634
0.170049
-0.000602028
0.170049
-0.000605424
0.17005
-0.00060882
0.17005
-0.000612217
0.170051
-0.000615614
0.170052
-0.000619011
0.170054
-0.000622408
-0.000625805
0.157359
-0.000409075
-0.157379
0.15734
-0.000412313
0.157321
-0.00041563
0.157302
-0.000418966
0.157283
-0.000422316
0.157265
-0.000425678
0.157247
-0.000429052
0.157229
-0.000432439
0.157211
-0.000435841
0.157194
-0.000439277
0.157177
-0.000442754
0.15716
-0.000446262
0.157143
-0.00044979
0.157127
-0.000453334
0.157111
-0.000456893
0.157096
-0.000460467
0.157081
-0.000464057
0.157066
-0.000467662
0.157051
-0.000471277
0.157037
-0.00047487
0.157023
-0.000478419
0.157009
-0.00048195
0.156996
-0.000485484
0.156983
-0.000489025
0.15697
-0.000492573
0.156958
-0.000496128
0.156946
-0.00049969
0.156934
-0.000503259
0.156923
-0.000506834
0.156911
-0.000510415
0.1569
-0.000514002
0.15689
-0.000517592
0.156879
-0.000521184
0.156869
-0.00052478
0.156859
-0.000528374
0.15685
-0.000531976
0.15684
-0.000535563
0.156831
-0.000539193
0.156822
-0.000542845
0.156814
-0.000546504
0.156806
-0.000550167
0.156798
-0.000553833
0.156791
-0.000557503
0.156783
-0.000561175
0.156777
-0.000564849
0.15677
-0.000568524
0.156764
-0.000572201
0.156758
-0.000575878
0.156753
-0.000579581
0.156748
-0.000583297
0.156743
-0.000587018
0.156738
-0.000590742
0.156734
-0.000594468
0.15673
-0.000598196
0.156727
-0.000601926
0.156724
-0.000605657
0.156721
-0.000609389
0.156718
-0.000613122
0.156716
-0.000616856
0.156714
-0.00062059
-0.000624324
0.144696
-0.000387918
-0.144717
0.144675
-0.00039156
0.144655
-0.000395193
0.144635
-0.000398842
0.144615
-0.000402506
0.144596
-0.000406186
0.144576
-0.000409882
0.144558
-0.000413592
0.144539
-0.000417318
0.144521
-0.000421058
0.144503
-0.000424835
0.144485
-0.00042864
0.144468
-0.000432465
0.144451
-0.000436306
0.144434
-0.000440162
0.144418
-0.000444034
0.144402
-0.000447922
0.144386
-0.000451824
0.14437
-0.000455736
0.144355
-0.000459636
0.14434
-0.000463514
0.144326
-0.000467399
0.144311
-0.000471294
0.144298
-0.000475199
0.144284
-0.000479114
0.144271
-0.000483039
0.144258
-0.000486972
0.144246
-0.000490915
0.144234
-0.000494866
0.144222
-0.000498825
0.144211
-0.000502793
0.1442
-0.000506791
0.14419
-0.000510815
0.14418
-0.000514853
0.144171
-0.000518897
0.144162
-0.000522947
0.144153
-0.000526955
0.144145
-0.000530971
0.144137
-0.000534998
0.144129
-0.00053903
0.144122
-0.000543065
0.144116
-0.0005471
0.144109
-0.000551136
0.144103
-0.000555173
0.144098
-0.000559231
0.144092
-0.000563319
0.144088
-0.000567417
0.144083
-0.00057152
0.144079
-0.000575627
0.144076
-0.000579737
0.144073
-0.000583851
0.14407
-0.000587968
0.144067
-0.000592087
0.144065
-0.000596208
0.144064
-0.000600331
0.144063
-0.000604456
0.144062
-0.000608582
0.144061
-0.000612709
0.144061
-0.000616837
0.144062
-0.000620965
-0.000625093
0.133391
-0.000364243
-0.133414
0.133367
-0.00036811
0.133344
-0.00037204
0.133321
-0.000375995
0.133299
-0.000379971
0.133277
-0.000383967
0.133255
-0.000387981
0.133233
-0.000392015
0.133212
-0.000396068
0.133191
-0.000400139
0.13317
-0.000404229
0.13315
-0.000408336
0.13313
-0.000412461
0.13311
-0.000416603
0.133091
-0.000420762
0.133072
-0.000424937
0.133053
-0.000429129
0.133034
-0.000433336
0.133016
-0.00043756
0.132998
-0.000441798
0.132981
-0.000446051
0.132964
-0.000450319
0.132947
-0.000454602
0.132931
-0.000458898
0.132915
-0.000463208
0.1329
-0.000467532
0.132884
-0.000471869
0.13287
-0.000476219
0.132855
-0.000480581
0.132842
-0.000484955
0.132828
-0.000489342
0.132815
-0.000493765
0.132803
-0.000498268
0.13279
-0.000502805
0.132779
-0.000507363
0.132768
-0.000511893
0.132757
-0.000516344
0.132747
-0.000520752
0.132737
-0.000525153
0.132728
-0.000529542
0.132719
-0.00053395
0.13271
-0.000538399
0.132702
-0.000542858
0.132694
-0.000547322
0.132686
-0.000551807
0.132679
-0.000556322
0.132673
-0.000560848
0.132667
-0.000565379
0.132661
-0.000569916
0.132656
-0.000574458
0.132651
-0.000579003
0.132646
-0.000583553
0.132642
-0.000588106
0.132639
-0.000592662
0.132636
-0.00059722
0.132633
-0.000601781
0.132631
-0.000606344
0.132629
-0.000610907
0.132628
-0.000615472
0.132627
-0.000620038
-0.000624603
0.122736
-0.00033771
-0.122763
0.12271
-0.000341974
0.122684
-0.000346262
0.122659
-0.000350576
0.122634
-0.000354914
0.122609
-0.000359277
0.122585
-0.000363664
0.122561
-0.000368074
0.122537
-0.000372507
0.122514
-0.000376963
0.122491
-0.000381441
0.122469
-0.000385942
0.122447
-0.000390464
0.122425
-0.000395008
0.122404
-0.000399572
0.122383
-0.000404157
0.122363
-0.000408763
0.122343
-0.000413388
0.122323
-0.000418033
0.122304
-0.000422697
0.122286
-0.00042738
0.122267
-0.00043208
0.12225
-0.000436799
0.122232
-0.000441535
0.122215
-0.000446288
0.122199
-0.000451058
0.122183
-0.000455844
0.122167
-0.000460646
0.122152
-0.000465464
0.122137
-0.000470296
0.122123
-0.000475143
0.122109
-0.000480006
0.122096
-0.000484928
0.122083
-0.000489878
0.122071
-0.000494846
0.122059
-0.000499793
0.122047
-0.000504697
0.122036
-0.000509594
0.122025
-0.000514498
0.122015
-0.000519398
0.122005
-0.000524322
0.121996
-0.000529291
0.121988
-0.000534275
0.12198
-0.00053927
0.121972
-0.000544274
0.121965
-0.000549285
0.121959
-0.000554303
0.121952
-0.000559328
0.121947
-0.000564359
0.121942
-0.000569395
0.121937
-0.000574437
0.121933
-0.000579483
0.12193
-0.000584534
0.121927
-0.000589588
0.121924
-0.000594645
0.121922
-0.000599705
0.12192
-0.000604767
0.121919
-0.000609831
0.121919
-0.000614896
0.121919
-0.000619961
-0.000625027
0.113063
-0.00030864
-0.113092
0.113035
-0.000313226
0.113006
-0.000317876
0.112978
-0.000322561
0.112951
-0.000327277
0.112923
-0.000332022
0.112896
-0.000336796
0.11287
-0.000341599
0.112844
-0.00034643
0.112818
-0.00035129
0.112793
-0.000356177
0.112768
-0.000361091
0.112744
-0.000366032
0.11272
-0.000370999
0.112696
-0.000375992
0.112673
-0.000381011
0.11265
-0.000386055
0.112628
-0.000391124
0.112606
-0.000396216
0.112585
-0.000401333
0.112564
-0.000406473
0.112543
-0.000411635
0.112523
-0.00041682
0.112504
-0.000422026
0.112485
-0.000427254
0.112466
-0.000432503
0.112448
-0.000437772
0.112431
-0.00044306
0.112414
-0.000448368
0.112397
-0.000453695
0.112381
-0.00045904
0.112365
-0.000464403
0.11235
-0.000469783
0.112335
-0.000475179
0.112321
-0.000480591
0.112307
-0.000486018
0.112294
-0.000491459
0.112281
-0.000496915
0.112269
-0.000502384
0.112258
-0.000507867
0.112247
-0.000513362
0.112236
-0.00051887
0.112227
-0.000524388
0.112217
-0.000529918
0.112208
-0.000535457
0.1122
-0.000541006
0.112192
-0.000546564
0.112185
-0.00055213
0.112179
-0.000557705
0.112172
-0.000563286
0.112167
-0.000568874
0.112162
-0.000574467
0.112157
-0.000580066
0.112153
-0.00058567
0.11215
-0.000591277
0.112147
-0.000596888
0.112145
-0.000602501
0.112143
-0.000608117
0.112142
-0.000613734
0.112142
-0.000619352
-0.00062497
0.104051
-0.000276583
-0.104083
0.104019
-0.000281588
0.103988
-0.000286642
0.103957
-0.000291736
0.103927
-0.000296867
0.103897
-0.000302034
0.103867
-0.000307237
0.103838
-0.000312475
0.103809
-0.000317747
0.103781
-0.000323053
0.103753
-0.000328393
0.103726
-0.000333766
0.103699
-0.000339171
0.103673
-0.000344609
0.103647
-0.000350079
0.103621
-0.000355579
0.103596
-0.00036111
0.103572
-0.000366672
0.103548
-0.000372262
0.103525
-0.000377882
0.103502
-0.00038353
0.103479
-0.000389206
0.103457
-0.000394909
0.103436
-0.000400639
0.103415
-0.000406395
0.103395
-0.000412176
0.103375
-0.000417982
0.103356
-0.000423812
0.103337
-0.000429666
0.103319
-0.000435543
0.103301
-0.000441442
0.103284
-0.000447363
0.103268
-0.000453304
0.103252
-0.000459266
0.103236
-0.000465248
0.103222
-0.000471248
0.103208
-0.000477267
0.103194
-0.000483303
0.103181
-0.000489356
0.103168
-0.000495425
0.103157
-0.000501509
0.103145
-0.000507608
0.103135
-0.000513721
0.103125
-0.000519848
0.103115
-0.000525986
0.103106
-0.000532137
0.103098
-0.000538299
0.10309
-0.000544471
0.103083
-0.000550652
0.103077
-0.000556843
0.103071
-0.000563041
0.103066
-0.000569247
0.103061
-0.000575459
0.103057
-0.000581677
0.103054
-0.000587899
0.103051
-0.000594126
0.103049
-0.000600357
0.103047
-0.00060659
0.103046
-0.000612824
0.103046
-0.00061906
-0.000625296
0.0957994
-0.00024186
-0.0958342
0.0957651
-0.000247256
0.0957312
-0.000252728
0.0956977
-0.000258249
0.0956647
-0.000263814
0.095632
-0.000269424
0.0955999
-0.000275076
0.0955682
-0.00028077
0.0955369
-0.000286506
0.0955062
-0.000292283
0.0954759
-0.000298101
0.0954461
-0.00030396
0.0954168
-0.000309857
0.0953879
-0.000315794
0.0953596
-0.000321769
0.0953318
-0.000327781
0.0953046
-0.000333831
0.0952778
-0.000339917
0.0952516
-0.000346039
0.0952259
-0.000352197
0.0952008
-0.000358388
0.0951762
-0.000364614
0.0951521
-0.000370872
0.0951286
-0.000377163
0.0951057
-0.000383486
0.0950834
-0.000389839
0.0950616
-0.000396223
0.0950405
-0.000402636
0.0950199
-0.000409078
0.0949999
-0.000415548
0.0949805
-0.000422045
0.0949617
-0.000428568
0.0949435
-0.000435117
0.0949259
-0.000441691
0.094909
-0.000448289
0.0948926
-0.000454909
0.0948769
-0.000461553
0.0948618
-0.000468218
0.0948474
-0.000474903
0.0948336
-0.000481609
0.0948204
-0.000488333
0.0948078
-0.000495075
0.094796
-0.000501835
0.0947847
-0.000508611
0.0947741
-0.000515403
0.0947642
-0.000522209
0.0947549
-0.000529029
0.0947463
-0.000535862
0.0947384
-0.000542707
0.0947311
-0.000549562
0.0947245
-0.000556428
0.0947186
-0.000563303
0.0947133
-0.000570186
0.0947087
-0.000577076
0.0947048
-0.000583973
0.0947015
-0.000590875
0.0946989
-0.000597782
0.094697
-0.000604692
0.0946958
-0.000611604
0.0946953
-0.000618518
-0.000625433
0.0881549
-0.000204208
-0.0881926
0.0881177
-0.000210052
0.088081
-0.000215973
0.0880447
-0.00022195
0.0880088
-0.000227981
0.0879735
-0.000234064
0.0879386
-0.000240198
0.0879042
-0.000246383
0.0878703
-0.000252618
0.0878369
-0.000258902
0.0878041
-0.000265235
0.0877717
-0.000271616
0.0877399
-0.000278044
0.0877086
-0.000284519
0.0876779
-0.000291039
0.0876477
-0.000297605
0.0876181
-0.000304216
0.0875891
-0.00031087
0.0875606
-0.000317567
0.0875327
-0.000324306
0.0875054
-0.000331087
0.0874787
-0.000337908
0.0874526
-0.000344768
0.0874271
-0.000351668
0.0874022
-0.000358605
0.087378
-0.00036558
0.0873543
-0.000372591
0.0873313
-0.000379638
0.087309
-0.000386719
0.0872873
-0.000393833
0.0872662
-0.000400981
0.0872458
-0.00040816
0.087226
-0.00041537
0.087207
-0.00042261
0.0871885
-0.000429879
0.0871708
-0.000437176
0.0871538
-0.0004445
0.0871374
-0.00045185
0.0871217
-0.000459225
0.0871067
-0.000466625
0.0870924
-0.000474047
0.0870789
-0.000481492
0.087066
-0.000488957
0.0870538
-0.000496443
0.0870424
-0.000503948
0.0870316
-0.00051147
0.0870216
-0.00051901
0.0870123
-0.000526565
0.0870037
-0.000534135
0.0869959
-0.000541719
0.0869888
-0.000549315
0.0869824
-0.000556923
0.0869768
-0.000564542
0.0869718
-0.000572169
0.0869677
-0.000579805
0.0869642
-0.000587447
0.0869616
-0.000595096
0.0869596
-0.000602749
0.0869584
-0.000610405
0.086958
-0.000618065
-0.000625725
0.0811326
-0.000163902
-0.0811729
0.0810928
-0.000170192
0.0810534
-0.000176577
0.0810145
-0.00018303
0.080976
-0.000189547
0.0809381
-0.000196125
0.0809007
-0.000202764
0.0808637
-0.000209464
0.0808273
-0.000216222
0.0807915
-0.000223039
0.0807562
-0.000229914
0.0807214
-0.000236845
0.0806872
-0.000243833
0.0806535
-0.000250876
0.0806205
-0.000257973
0.080588
-0.000265124
0.0805561
-0.000272328
0.0805248
-0.000279583
0.0804941
-0.000286889
0.0804641
-0.000294245
0.0804346
-0.00030165
0.0804058
-0.000309103
0.0803777
-0.000316604
0.0803501
-0.00032415
0.0803233
-0.000331741
0.0802971
-0.000339377
0.0802715
-0.000347056
0.0802467
-0.000354776
0.0802225
-0.000362538
0.080199
-0.00037034
0.0801762
-0.000378181
0.0801541
-0.00038606
0.0801327
-0.000393975
0.080112
-0.000401927
0.0800921
-0.000409913
0.0800728
-0.000417932
0.0800543
-0.000425984
0.0800365
-0.000434068
0.0800195
-0.000442181
0.0800032
-0.000450324
0.0799876
-0.000458494
0.0799728
-0.000466692
0.0799588
-0.000474915
0.0799455
-0.000483162
0.079933
-0.000491432
0.0799212
-0.000499725
0.0799103
-0.000508038
0.0799001
-0.000516371
0.0798907
-0.000524722
0.079882
-0.00053309
0.0798742
-0.000541473
0.0798671
-0.000549872
0.0798609
-0.000558283
0.0798554
-0.000566707
0.0798508
-0.000575141
0.0798469
-0.000583585
0.0798438
-0.000592036
0.0798416
-0.000600494
0.0798401
-0.000608957
0.0798395
-0.000617424
-0.000625894
0.07465
-0.000120872
-0.074693
0.0746074
-0.000127644
0.0745654
-0.000134521
0.0745238
-0.000141476
0.0744828
-0.000148505
0.0744423
-0.000155607
0.0744023
-0.00016278
0.0743629
-0.000170023
0.074324
-0.000177336
0.0742856
-0.000184717
0.0742479
-0.000192166
0.0742107
-0.000199682
0.0741742
-0.000207263
0.0741382
-0.000214909
0.0741028
-0.000222618
0.0740681
-0.00023039
0.074034
-0.000238224
0.0740005
-0.000246118
0.0739677
-0.000254072
0.0739356
-0.000262083
0.0739041
-0.000270152
0.0738732
-0.000278278
0.0738431
-0.000286458
0.0738136
-0.000294692
0.0737849
-0.000302978
0.0737568
-0.000311317
0.0737295
-0.000319706
0.0737028
-0.000328144
0.0736769
-0.00033663
0.0736517
-0.000345163
0.0736273
-0.000353741
0.0736036
-0.000362364
0.0735807
-0.000371031
0.0735585
-0.000379739
0.0735371
-0.000388488
0.0735164
-0.000397277
0.0734965
-0.000406105
0.0734774
-0.000414969
0.0734591
-0.000423869
0.0734416
-0.000432804
0.0734249
-0.000441771
0.0734089
-0.000450771
0.0733938
-0.000459802
0.0733795
-0.000468862
0.073366
-0.00047795
0.0733534
-0.000487064
0.0733416
-0.000496204
0.0733306
-0.000505367
0.0733204
-0.000514554
0.0733111
-0.000523761
0.0733026
-0.000532988
0.0732949
-0.000542234
0.0732881
-0.000551496
0.0732822
-0.000560774
0.0732771
-0.000570065
0.0732729
-0.000579369
0.0732696
-0.000588684
0.0732671
-0.000598008
0.0732655
-0.00060734
0.0732647
-0.000616678
-0.000626021
0.0686899
-7.53783e-05
-0.0687354
0.0686449
-8.26437e-05
0.0686004
-9.00306e-05
0.0685564
-9.75096e-05
0.068513
-0.000105075
0.0684701
-0.000112724
0.0684278
-0.000120455
0.068386
-0.000128268
0.0683448
-0.000136162
0.0683043
-0.000144135
0.0682643
-0.000152186
0.0682249
-0.000160315
0.0681862
-0.000168519
0.068148
-0.000176797
0.0681106
-0.000185149
0.0680738
-0.000193574
0.0680376
-0.000202069
0.0680021
-0.000210633
0.0679673
-0.000219266
0.0679332
-0.000227967
0.0678998
-0.000236733
0.0678671
-0.000245563
0.0678351
-0.000254457
0.0678038
-0.000263412
0.0677732
-0.000272429
0.0677434
-0.000281504
0.0677144
-0.000290638
0.067686
-0.000299828
0.0676585
-0.000309073
0.0676317
-0.000318372
0.0676057
-0.000327725
0.0675804
-0.000337128
0.067556
-0.000346581
0.0675323
-0.000356083
0.0675095
-0.000365633
0.0674874
-0.000375228
0.0674662
-0.000384868
0.0674458
-0.000394551
0.0674262
-0.000404275
0.0674074
-0.000414041
0.0673895
-0.000423845
0.0673724
-0.000433687
0.0673562
-0.000443566
0.0673408
-0.000453479
0.0673263
-0.000463426
0.0673126
-0.000473404
0.0672998
-0.000483414
0.0672879
-0.000493452
0.0672769
-0.000503518
0.0672667
-0.00051361
0.0672574
-0.000523727
0.0672491
-0.000533866
0.0672416
-0.000544027
0.067235
-0.000554208
0.0672294
-0.000564408
0.0672246
-0.000574624
0.0672208
-0.000584854
0.0672179
-0.000595099
0.0672159
-0.000605354
0.0672149
-0.00061562
-0.000625894
0.063199
-2.75053e-05
-0.0632469
0.0631517
-3.52954e-05
0.0631049
-4.32203e-05
0.0630586
-5.12503e-05
0.0630129
-5.93791e-05
0.0629678
-6.76044e-05
0.0629233
-7.59246e-05
0.0628793
-8.43383e-05
0.062836
-9.28441e-05
0.0627933
-0.000101441
0.0627513
-0.000110126
0.0627099
-0.0001189
0.0626691
-0.00012776
0.062629
-0.000136704
0.0625896
-0.000145732
0.0625509
-0.000154842
0.0625128
-0.000164032
0.0624755
-0.000173301
0.0624389
-0.000182648
0.062403
-0.00019207
0.0623678
-0.000201566
0.0623334
-0.000211135
0.0622997
-0.000220776
0.0622668
-0.000230486
0.0622346
-0.000240264
0.0622032
-0.000250109
0.0621726
-0.00026002
0.0621428
-0.000269994
0.0621137
-0.00028003
0.0620855
-0.000290128
0.062058
-0.000300285
0.0620314
-0.0003105
0.0620056
-0.000320771
0.0619806
-0.000331097
0.0619565
-0.000341478
0.0619331
-0.00035191
0.0619107
-0.000362393
0.061889
-0.000372925
0.0618683
-0.000383506
0.0618484
-0.000394133
0.0618293
-0.000404805
0.0618112
-0.000415521
0.0617939
-0.000426279
0.0617775
-0.000437078
0.061762
-0.000447916
0.0617473
-0.000458792
0.0617336
-0.000469705
0.0617208
-0.000480652
0.0617089
-0.000491633
0.061698
-0.000502646
0.0616879
-0.000513689
0.0616788
-0.000524761
0.0616707
-0.00053586
0.0616635
-0.000546984
0.0616572
-0.000558133
0.0616519
-0.000569303
0.0616475
-0.000580494
0.0616441
-0.000591704
0.0616417
-0.00060293
0.0616402
-0.000614172
-0.000625427
0.0581495
2.24712e-05
-0.0581995
0.0581001
1.41331e-05
0.0580512
5.6428e-06
0.058003
-2.96715e-06
0.0579553
-1.16895e-05
0.0579082
-2.05216e-05
0.0578617
-2.94614e-05
0.0578159
-3.85072e-05
0.0577707
-4.76571e-05
0.0577262
-5.69093e-05
0.0576823
-6.6262e-05
0.0576391
-7.57132e-05
0.0575966
-8.52613e-05
0.0575548
-9.49043e-05
0.0575137
-0.00010464
0.0574734
-0.000114468
0.0574337
-0.000124384
0.0573948
-0.000134389
0.0573566
-0.000144479
0.0573192
-0.000154652
0.0572826
-0.000164908
0.0572467
-0.000175245
0.0572116
-0.00018566
0.0571772
-0.000196151
0.0571437
-0.000206718
0.0571109
-0.000217359
0.057079
-0.000228071
0.0570478
-0.000238854
0.0570175
-0.000249705
0.056988
-0.000260623
0.0569593
-0.000271606
0.0569315
-0.000282653
0.0569045
-0.000293763
0.0568783
-0.000304934
0.056853
-0.000316164
0.0568285
-0.000327452
0.0568049
-0.000338797
0.0567822
-0.000350197
0.0567604
-0.00036165
0.0567394
-0.000373156
0.0567193
-0.000384713
0.0567001
-0.00039632
0.0566818
-0.000407975
0.0566644
-0.000419677
0.0566479