/*--------------------------------*- C++ -*----------------------------------*\
  =========                 |
  \\      /  F ield         | OpenFOAM: The Open Source CFD Toolbox
   \\    /   O peration     | Website:  https://openfoam.org
    \\  /    A nd           | Version:  9
     \\/     M anipulation  |
\*---------------------------------------------------------------------------*/
FoamFile
{
    format      ascii;
    class       volVectorField;
    location    "0.005";
    object      U;
}
// * * * * * * * * * * * * * * * * * * * * * * * * * * * * * * * * * * * * * //

dimensions      [0 1 -1 0 0 0 0];

internalField   nonuniform List<vector> 
6352
(
(5.55168 -0.0301404 0)
(5.34626 0.0225035 1.2359e-17)
(5.06691 0.0378607 -1.88989e-17)
(4.79225 0.0438032 0)
(4.53673 0.050883 0)
(4.29913 0.0534915 0)
(4.13001 0.05012 0)
(4.01047 0.0500879 1.17369e-16)
(3.90269 0.0547104 -1.2043e-16)
(3.78827 0.0611983 0)
(3.66307 0.0676585 0)
(3.53252 0.0733646 0)
(3.40447 0.0780814 0)
(3.28554 0.0820256 0)
(3.18015 0.0854945 2.96322e-16)
(3.08509 0.0878852 -3.02329e-16)
(2.98686 0.0872367 0)
(2.85205 0.0797649 0)
(5.60192 0.02319 0)
(5.56193 0.0381479 4.95407e-18)
(5.50284 0.0380963 -8.52542e-18)
(5.4356 0.038103 0)
(5.36622 0.0376933 0)
(5.2954 0.0344753 0)
(5.20528 0.02879 0)
(5.11291 0.0248007 0)
(5.02647 0.0244902 0)
(4.94738 0.0254314 0)
(4.87275 0.0265747 -7.57663e-17)
(4.80056 0.0272343 7.97531e-17)
(4.73047 0.0270759 0)
(4.66317 0.0262333 0)
(4.59934 0.0254299 1.77177e-16)
(4.53925 0.0261489 -1.80648e-16)
(4.47997 0.0309646 -1.83584e-16)
(4.40739 0.0436249 3.71696e-16)
(5.60964 0.0211107 0)
(5.61387 0.0362804 0)
(5.61124 0.039813 0)
(5.59991 0.0403204 0)
(5.58443 0.0402529 1.74554e-17)
(5.56602 0.0383003 -2.05643e-17)
(5.53031 0.0351742 0)
(5.47944 0.0325859 0)
(5.42416 0.0317249 0)
(5.3711 0.0321443 -5.46994e-17)
(5.32212 0.0330773 5.84238e-17)
(5.27715 0.0338486 0)
(5.23531 0.0339043 0)
(5.19586 0.0332018 -1.34207e-16)
(5.15833 0.0322901 2.75378e-16)
(5.12291 0.0324895 -3.4903e-22)
(5.08954 0.0374923 -2.84093e-16)
(5.05108 0.0497489 2.87183e-16)
(5.01445 0.088619 -2.85533e-16)
(5.61269 0.0179979 0)
(5.63363 0.0334938 0)
(5.65526 0.0387539 7.19656e-18)
(5.66981 0.0396513 -2.06143e-17)
(5.68038 0.0400183 2.63985e-17)
(5.68755 0.0394873 -1.59808e-17)
(5.68545 0.0387033 0)
(5.6702 0.0370889 -4.14804e-17)
(5.64697 0.0362384 4.55048e-17)
(5.62089 0.0361407 -4.94548e-17)
(5.59514 0.036386 5.32692e-17)
(5.57164 0.0363771 0)
(5.55039 0.0359055 0)
(5.5303 0.0348544 0)
(5.51045 0.0335093 0)
(5.49068 0.0326581 0)
(5.47172 0.0357092 -1.24415e-16)
(5.45018 0.0443893 1.24704e-16)
(5.43095 0.0725481 0)
(5.61394 0.0155327 2.88752e-19)
(5.64213 0.0297388 -7.75622e-19)
(5.67567 0.0349991 0)
(5.70414 0.0362299 0)
(5.7295 0.0369136 0)
(5.75155 0.0369644 0)
(5.76832 0.0368671 -3.23355e-17)
(5.77704 0.0361449 3.72696e-17)
(5.77907 0.0358723 -4.1838e-17)
(5.77673 0.0358895 4.60607e-17)
(5.77208 0.0359748 0)
(5.76622 0.0357448 -1.04513e-16)
(5.75941 0.03509 1.07442e-16)
(5.75171 0.0339798 0)
(5.74309 0.0325452 0)
(5.73366 0.0312113 -1.13128e-16)
(5.72432 0.0327601 2.79469e-22)
(5.71408 0.0389482 2.28394e-16)
(5.70622 0.060079 -2.71489e-22)
(5.67336 0.115507 -1.08012e-16)
(5.61432 0.0130822 -2.54737e-19)
(5.64561 0.0252378 6.41263e-19)
(5.68537 0.0301456 4.6793e-18)
(5.72174 0.0316333 -1.39622e-17)
(5.75591 0.0326138 3.97539e-23)
(5.78725 0.0329779 1.19131e-17)
(5.81504 0.0331392 0)
(5.83797 0.0330381 0)
(5.85606 0.0331918 0)
(5.86994 0.0334609 -4.22923e-17)
(5.88048 0.0337927 4.58039e-17)
(5.88764 0.033938 0)
(5.89166 0.0337779 0)
(5.89352 0.0330263 0)
(5.89411 0.0317837 0)
(5.8939 0.0301785 0)
(5.89372 0.0304426 0)
(5.89356 0.0342514 0)
(5.89527 0.048779 0)
(5.88744 0.0878011 1.04478e-16)
(5.61429 0.0104534 2.32794e-19)
(5.64663 0.0203321 -5.56861e-19)
(5.68958 0.0246742 0)
(5.73042 0.0263541 -6.1561e-18)
(5.76987 0.0275577 8.4319e-18)
(5.80696 0.0282111 0)
(5.84121 0.0284957 0)
(5.87206 0.0286985 -3.09905e-17)
(5.89931 0.0291238 3.50598e-17)
(5.92283 0.0296818 0)
(5.9429 0.0303767 0)
(5.9594 0.0310744 0)
(5.97259 0.031492 0)
(5.98316 0.0312042 0)
(5.99195 0.0302331 0)
(5.99956 0.0285289 0)
(6.00675 0.0277758 -1.0428e-16)
(6.01413 0.0294174 1.05244e-16)
(6.02313 0.0380151 0)
(6.03003 0.0651127 0)
(5.61409 0.00775416 0)
(5.64646 0.0152186 0)
(5.6907 0.0188342 3.65991e-18)
(5.73397 0.0205795 -5.61032e-18)
(5.77633 0.0219597 0)
(5.81676 0.0228439 0)
(5.85472 0.0232029 0)
(5.88996 0.0235667 0)
(5.92235 0.0241897 0)
(5.95151 0.0250328 -3.59931e-17)
(5.97744 0.0260726 3.92678e-17)
(6.00025 0.0272046 0)
(6.02019 0.0280837 0)
(6.03759 0.0282729 0)
(6.05286 0.0277106 0)
(6.06643 0.0262034 0)
(6.0791 0.0248442 -1.02102e-16)
(6.09194 0.0248473 1.03648e-16)
(6.10628 0.029199 0)
(6.12148 0.0464161 -1.03005e-16)
(5.61386 0.00507232 2.1041e-19)
(5.64571 0.0100092 -4.6907e-19)
(5.69006 0.01271 0)
(5.73477 0.0144205 -5.26501e-18)
(5.77915 0.0159479 2.88896e-23)
(5.8216 0.0170581 9.50793e-18)
(5.8615 0.0175223 0)
(5.89879 0.0180401 0)
(5.93343 0.0188436 0)
(5.96536 0.0199099 -3.42735e-17)
(5.99473 0.0211889 3.75204e-17)
(6.02149 0.0225982 0)
(6.04575 0.0238324 0)
(6.06771 0.0244917 0)
(6.08744 0.0244271 0)
(6.10534 0.0233164 0)
(6.12218 0.0217151 0)
(6.13905 0.0206049 0)
(6.15715 0.0219309 0)
(6.177 0.0318732 -1.04828e-16)
(5.61363 0.00245057 0)
(5.64468 0.00473261 0)
(5.68843 0.00645518 -3.28421e-18)
(5.73354 0.0079944 5.12495e-18)
(5.77904 0.00962348 -7.16643e-18)
(5.82282 0.0109822 2.78312e-17)
(5.86404 0.0116292 -4.53776e-17)
(5.9027 0.0123484 8.85335e-23)
(5.93881 0.0133523 6.0359e-17)
(5.97231 0.0146208 -3.36238e-17)
(6.00327 0.0160922 -3.68373e-17)
(6.03172 0.0177122 1.19387e-16)
(6.05778 0.0192318 -8.49429e-17)
(6.08164 0.0202842 0)
(6.10377 0.0206798 9.43037e-17)
(6.1244 0.0200217 -9.84435e-17)
(6.14401 0.0184318 0)
(6.16345 0.0166099 0)
(6.18385 0.0159877 -1.07348e-16)
(6.2058 0.0202743 1.0778e-16)
(5.61344 -0.000116696 0)
(5.64354 -0.000560037 0)
(5.68624 0.00017335 0)
(5.73083 0.00140704 0)
(5.77644 0.00306658 -7.2672e-18)
(5.82069 0.00464962 9.39697e-18)
(5.86257 0.00552795 0)
(5.90203 0.00646435 -2.69018e-17)
(5.9391 0.00766292 3.06003e-17)
(5.97368 0.00914212 -3.4099e-17)
(6.00576 0.0108351 3.73373e-17)
(6.03538 0.0127064 0)
(6.06263 0.0145275 0)
(6.08771 0.015926 0)
(6.11096 0.0167001 0)
(6.13271 0.0164929 0)
(6.15343 0.0151345 -1.04124e-16)
(6.17395 0.012954 1.07583e-16)
(6.19542 0.0111437 0)
(6.21853 0.0112408 0)
(5.61329 -0.00263133 0)
(5.64235 -0.00573837 0)
(5.68365 -0.00605248 3.47041e-18)
(5.72683 -0.00520831 -1.08646e-17)
(5.77147 -0.00359794 7.58235e-18)
(5.81504 -0.00185859 0)
(5.85646 -0.000729418 0)
(5.8957 0.000438915 0)
(5.93274 0.00184629 0)
(5.96755 0.00353592 0)
(6.00009 0.00545486 0)
(6.03036 0.00756978 0)
(6.05846 0.00968985 0)
(6.08454 0.0114507 0)
(6.10884 0.0126314 0)
(6.13159 0.0128606 0)
(6.15314 0.011777 0)
(6.1741 0.00933858 0)
(6.19565 0.00644391 0)
(6.21833 0.00363097 0)
(5.6132 -0.00507363 0)
(5.6411 -0.0107295 0)
(5.6806 -0.0121014 0)
(5.72147 -0.0116678 -5.79217e-18)
(5.76368 -0.0101512 8.07927e-18)
(5.80501 -0.00832966 0)
(5.84436 -0.00696618 0)
(5.88176 -0.00560782 0)
(5.9173 -0.00403873 0)
(5.95089 -0.00218815 -3.72463e-17)
(5.98248 -9.56588e-05 4.06904e-17)
(6.01208 0.00222119 0)
(6.03971 0.00459397 0)
(6.06546 0.00668963 0)
(6.08953 0.00831186 0)
(6.11203 0.00911797 0)
(6.13314 0.00862386 -1.12819e-16)
(6.15321 0.00638003 1.16386e-16)
(6.17329 0.00304592 0)
(6.19395 -0.00198999 -1.21567e-16)
(5.61315 -0.0074424 -2.48112e-19)
(5.6397 -0.015532 5.61659e-19)
(5.67686 -0.0179225 -4.04191e-18)
(5.71455 -0.0178357 6.30684e-18)
(5.75326 -0.0164041 -8.7967e-18)
(5.79125 -0.0145319 1.1293e-17)
(5.82757 -0.0129453 0)
(5.86222 -0.011422 0)
(5.89523 -0.00971642 0)
(5.92657 -0.0077171 0)
(5.95622 -0.00546327 0)
(5.98421 -0.00295933 0)
(6.01045 -0.00035678 0)
(6.03498 0.00202208 1.05802e-16)
(6.05791 0.00400173 -1.11153e-16)
(6.07926 0.00528775 0)
(6.09899 0.00537848 -1.19991e-16)
(6.11721 0.00360692 1.23539e-16)
(6.13468 0.000323138 0)
(6.15213 -0.00517093 -1.28504e-16)
(5.6131 -0.00970993 0)
(5.63793 -0.02009 0)
(5.67189 -0.0233785 0)
(5.70511 -0.0235455 -7.04064e-18)
(5.73889 -0.0222068 3.45653e-23)
(5.77209 -0.0203042 1.25959e-17)
(5.804 -0.0185228 0)
(5.83453 -0.0168401 -3.5294e-17)
(5.86366 -0.0150102 3.97937e-17)
(5.89135 -0.0129179 -4.39625e-17)
(5.91777 -0.0105785 4.78808e-17)
(5.94302 -0.00793361 0)
(5.96675 -0.00514228 0)
(5.98889 -0.00249192 0)
(6.00945 -0.000103883 0)
(6.02824 0.00176789 0)
(6.04507 0.00262135 -1.30024e-16)
(6.05973 0.0015378 1.33014e-16)
(6.07284 -0.00119562 0)
(6.08528 -0.00775385 -1.36341e-16)
(5.61297 -0.011821 3.11604e-19)
(5.63527 -0.0242513 -7.59857e-19)
(5.66446 -0.0282531 5.36827e-18)
(5.69122 -0.0285177 -8.15659e-18)
(5.71785 -0.0272776 0)
(5.74389 -0.0253764 0)
(5.76911 -0.0234534 0)
(5.79337 -0.0216063 0)
(5.8165 -0.0196044 0)
(5.83851 -0.0173828 -4.98799e-17)
(5.85973 -0.0149762 5.41822e-17)
(5.8804 -0.0121985 0)
(5.89971 -0.009313 0)
(5.9175 -0.00656172 0)
(5.93342 -0.00394239 0)
(5.94719 -0.0015753 0)
(5.95861 0.000116355 0)
(5.96723 2.73085e-05 0)
(5.97378 -0.00185334 0)
(5.97847 -0.00802139 0)
(5.61258 -0.013901 0)
(5.6306 -0.0276744 0)
(5.65171 -0.0320703 0)
(5.66868 -0.0322908 -1.00116e-17)
(5.68456 -0.030995 4.63901e-23)
(5.69937 -0.0290751 1.70771e-17)
(5.71373 -0.0270656 0)
(5.72727 -0.025077 0)
(5.73989 -0.0229311 0)
(5.75224 -0.0205807 0)
(5.76482 -0.0180517 0)
(5.77783 -0.0150348 0)
(5.79013 -0.0117996 0)
(5.79982 -0.0086033 0)
(5.80583 -0.00565744 0)
(5.80881 -0.0029916 0)
(5.80962 -0.000850134 -1.60991e-16)
(5.80846 -0.000317606 1.61575e-16)
(5.80583 -0.00115191 0)
(5.79939 -0.00774923 -1.60798e-16)
(5.61157 -0.0160601 -4.71469e-19)
(5.62074 -0.0301372 1.36966e-18)
(5.62657 -0.0336641 9.4431e-18)
(5.6272 -0.033475 -2.69045e-17)
(5.62573 -0.0321369 1.741e-17)
(5.62227 -0.0302644 0)
(5.61818 -0.028081 5.05766e-17)
(5.61126 -0.0257096 -5.78715e-17)
(5.60208 -0.0235736 0)
(5.59349 -0.0214997 -7.14458e-17)
(5.58716 -0.0192692 7.79523e-17)
(5.58299 -0.0161163 0)
(5.5804 -0.0121438 0)
(5.57438 -0.00782515 0)
(5.56272 -0.00358084 0)
(5.5474 0.000412915 0)
(5.53123 0.00398545 -1.84515e-16)
(5.51652 0.006019 1.8532e-16)
(5.50389 0.00786801 0)
(5.48273 0.00526528 0)
(5.60872 -0.0174829 0)
(5.59423 -0.0309325 0)
(5.5664 -0.0308165 0)
(5.53387 -0.030202 0)
(5.49895 -0.0287464 -2.65821e-17)
(5.46141 -0.0269712 3.10629e-17)
(5.42197 -0.0250745 0)
(5.37604 -0.0234928 -7.76933e-17)
(5.32534 -0.0225078 8.39713e-17)
(5.2741 -0.0216287 0)
(5.22391 -0.0208737 0)
(5.17435 -0.0193306 0)
(5.12548 -0.0170943 0)
(5.0775 -0.0152665 0)
(5.03034 -0.0134873 0)
(4.98432 -0.011584 0)
(4.94027 -0.00940233 0)
(4.90101 -0.00709477 0)
(4.86832 -0.00671982 0)
(4.82383 -0.0114443 -2.37207e-16)
(5.58185 0.0110899 0)
(5.47858 -0.013288 0)
(5.32613 -0.0150357 3.59966e-17)
(5.16462 -0.0105514 -8.93527e-17)
(5.00376 -0.00403489 5.10077e-17)
(4.84323 0.00188889 0)
(4.67898 0.00960139 -1.21757e-16)
(4.52187 0.0172877 1.2855e-16)
(4.36891 0.0237166 1.35093e-16)
(4.21046 0.0300366 -1.42625e-16)
(4.04216 0.0370792 0)
(3.86643 0.046125 0)
(3.68923 0.0560949 0)
(3.52271 0.0657822 -3.43692e-16)
(3.37386 0.0731441 7.39176e-22)
(3.24084 0.0789289 7.19839e-22)
(3.11995 0.0844308 3.6959e-16)
(3.00608 0.0921486 3.7787e-16)
(2.89336 0.103119 -3.85808e-16)
(2.83619 0.103899 0)
(6.04846 0.110259 -1.29446e-16)
(6.14541 0.0802206 1.0939e-16)
(6.17391 0.126531 -9.48981e-17)
(6.2023 0.0570129 1.53467e-16)
(6.23262 0.0946965 1.56816e-16)
(6.26817 0.139936 -2.59183e-16)
(6.23267 0.0385192 -1.37407e-16)
(6.26407 0.0690048 9.43532e-17)
(6.30024 0.105552 0)
(6.24553 0.0231046 -1.5351e-17)
(6.27699 0.047994 -9.56669e-17)
(6.31211 0.078147 9.96803e-17)
(6.35127 0.116155 -6.90938e-17)
(6.24362 0.0113761 -1.08911e-16)
(6.27314 0.0316824 9.76078e-17)
(6.30489 0.0565266 3.39795e-17)
(6.33925 0.0878893 2.12312e-16)
(6.2164 0.00187274 2.54181e-16)
(6.24267 0.0177775 -1.33376e-16)
(6.26953 0.0379814 0)
(6.29741 0.0636011 0)
(6.32825 0.09771 -7.53654e-17)
(6.16952 -0.00403091 1.22264e-16)
(6.18963 0.00809213 -1.71036e-16)
(6.2092 0.0243333 1.78096e-16)
(6.2283 0.0450128 0)
(6.24888 0.0729456 1.53835e-16)
(6.27332 0.109128 -1.20156e-16)
(6.09518 -0.00794633 1.34004e-16)
(6.10579 0.00110935 3.50852e-17)
(6.11414 0.0137349 -3.65165e-17)
(6.12042 0.030074 -3.79659e-17)
(6.12683 0.0526693 -7.90715e-17)
(6.13621 0.082086 1.23817e-16)
(5.97665 -0.00950624 1.75011e-17)
(5.97227 -0.00249304 1.64514e-16)
(5.96364 0.00698929 -1.52056e-16)
(5.95164 0.0198542 7.91271e-17)
(5.93908 0.0378543 -4.12908e-17)
(5.92962 0.0612866 0)
(5.78002 -0.00866527 1.40346e-16)
(5.75246 -0.0026309 -1.95173e-17)
(5.71909 0.00442044 0)
(5.68237 0.0147583 -4.23833e-17)
(5.64628 0.0289741 4.44135e-17)
(5.61531 0.0473818 0)
(5.59507 0.071183 -4.92746e-17)
(5.43226 0.00430855 1.73263e-16)
(5.36634 0.00796949 -3.3996e-16)
(5.29795 0.0112541 5.22052e-22)
(5.23101 0.017635 1.91906e-16)
(5.16941 0.0270226 1.01094e-16)
(5.11684 0.0400414 -1.06779e-16)
(5.07908 0.0575176 -8.49549e-17)
(4.72396 -0.00416561 2.02547e-16)
(4.61243 0.00288995 -1.37982e-17)
(4.51258 0.00663 0)
(4.42297 0.0111829 -2.42994e-16)
(4.3436 0.0167173 2.57234e-16)
(4.27585 0.0251975 0)
(4.22628 0.0368495 5.4469e-17)
(4.19821 0.0519899 -1.54352e-16)
(2.74402 0.113983 5.31475e-18)
(2.67182 0.113244 0)
(2.60744 0.115189 0)
(2.5428 0.119827 0)
(2.47906 0.126132 0)
(2.42271 0.136435 0)
(2.37571 0.151445 -2.93484e-17)
(2.35102 0.171604 -2.47215e-16)
(30.8408 -1.35267 0)
(30.835 -1.35071 0)
(30.8289 -1.34877 0)
(30.8241 -1.34687 0)
(30.8197 -1.34501 0)
(30.8153 -1.34319 0)
(30.8108 -1.3414 0)
(30.8064 -1.33964 0)
(30.802 -1.33791 0)
(30.7977 -1.33621 0)
(30.7934 -1.33455 0)
(30.7891 -1.33292 0)
(30.7849 -1.33131 0)
(30.7807 -1.32974 0)
(30.7766 -1.3282 0)
(30.7724 -1.32669 0)
(30.7684 -1.3252 0)
(30.7644 -1.32375 0)
(30.7604 -1.32232 0)
(30.7564 -1.32093 0)
(30.7525 -1.31956 0)
(30.7486 -1.31822 0)
(30.7448 -1.31691 0)
(30.7409 -1.31562 0)
(30.7372 -1.31436 0)
(30.7334 -1.31313 0)
(30.7297 -1.31193 0)
(30.726 -1.31075 0)
(30.7224 -1.30959 0)
(30.7188 -1.30847 0)
(30.7152 -1.30736 0)
(30.7117 -1.30629 0)
(30.7082 -1.30523 0)
(30.7047 -1.30421 0)
(30.7013 -1.3032 0)
(30.6978 -1.30222 0)
(30.6945 -1.30127 0)
(30.6911 -1.30033 0)
(30.6878 -1.29942 0)
(30.6845 -1.29854 0)
(30.6812 -1.29767 0)
(30.678 -1.29683 0)
(30.6748 -1.29601 0)
(30.6716 -1.29521 0)
(30.6685 -1.29444 0)
(30.6654 -1.29368 0)
(30.6623 -1.29295 0)
(30.6592 -1.29224 0)
(30.6562 -1.29154 0)
(30.6532 -1.29087 0)
(30.6502 -1.29022 0)
(30.6473 -1.28959 0)
(30.6443 -1.28898 0)
(30.6415 -1.28839 0)
(30.6386 -1.28782 0)
(30.6357 -1.28726 0)
(30.6329 -1.28673 0)
(30.6301 -1.28621 0)
(30.6274 -1.28572 0)
(30.6246 -1.28524 0)
(30.6219 -1.28477 0)
(29.622 -0.565877 6.29808e-31)
(29.6201 -0.57171 0)
(29.6183 -0.577055 0)
(29.6166 -0.582342 0)
(29.6149 -0.587591 0)
(29.6132 -0.592802 0)
(29.6116 -0.597975 0)
(29.6099 -0.603111 0)
(29.6083 -0.60821 0)
(29.6067 -0.613272 0)
(29.6051 -0.618299 0)
(29.6036 -0.623289 0)
(29.602 -0.628245 0)
(29.6005 -0.633165 0)
(29.599 -0.638051 0)
(29.5976 -0.642902 0)
(29.5961 -0.64772 0)
(29.5947 -0.652504 0)
(29.5933 -0.657255 0)
(29.5919 -0.661973 0)
(29.5905 -0.666659 0)
(29.5892 -0.671313 0)
(29.5878 -0.675935 0)
(29.5865 -0.680525 0)
(29.5852 -0.685085 0)
(29.584 -0.689614 0)
(29.5827 -0.694113 0)
(29.5815 -0.698583 0)
(29.5802 -0.703032 0)
(29.579 -0.707458 0)
(29.5779 -0.711857 0)
(29.5767 -0.716227 0)
(29.5755 -0.720567 0)
(29.5744 -0.724879 0)
(29.5733 -0.729163 0)
(29.5722 -0.733418 0)
(29.5711 -0.737646 0)
(29.57 -0.741846 0)
(29.569 -0.746018 0)
(29.568 -0.750164 0)
(29.5669 -0.754283 0)
(29.5659 -0.758375 0)
(29.565 -0.762441 0)
(29.564 -0.766482 0)
(29.563 -0.770496 0)
(29.5621 -0.774485 0)
(29.5612 -0.778449 0)
(29.5603 -0.782387 0)
(29.5594 -0.786301 0)
(29.5585 -0.790191 0)
(29.5576 -0.794056 0)
(29.5568 -0.797897 0)
(29.5559 -0.801715 0)
(29.5551 -0.805508 0)
(29.5543 -0.809279 0)
(29.5535 -0.813026 0)
(29.5527 -0.81675 0)
(29.5519 -0.820452 0)
(29.5512 -0.824131 0)
(29.5504 -0.827787 0)
(29.5497 -0.831419 0)
(29.5392 -0.99277 -7.24174e-31)
(29.541 -0.995171 0)
(29.5427 -0.99757 0)
(29.5443 -0.999971 0)
(29.5458 -1.00236 0)
(29.5474 -1.00474 0)
(29.5489 -1.00711 0)
(29.5505 -1.00947 0)
(29.552 -1.01183 0)
(29.5534 -1.01417 0)
(29.5549 -1.0165 0)
(29.5563 -1.01883 0)
(29.5578 -1.02114 0)
(29.5592 -1.02345 0)
(29.5606 -1.02574 0)
(29.562 -1.02802 0)
(29.5633 -1.03028 0)
(29.5647 -1.03252 0)
(29.566 -1.03476 0)
(29.5674 -1.03699 0)
(29.5687 -1.03921 0)
(29.57 -1.04142 0)
(29.5712 -1.04363 0)
(29.5725 -1.04582 0)
(29.5738 -1.04801 0)
(29.575 -1.05019 0)
(29.5762 -1.05236 0)
(29.5774 -1.05452 0)
(29.5786 -1.05669 0)
(29.5798 -1.05886 0)
(29.581 -1.06102 0)
(29.5822 -1.06317 0)
(29.5833 -1.06531 0)
(29.5845 -1.06745 0)
(29.5856 -1.06957 0)
(29.5867 -1.07169 0)
(29.5878 -1.0738 0)
(29.5889 -1.07591 0)
(29.59 -1.078 0)
(29.5911 -1.08009 0)
(29.5921 -1.08217 0)
(29.5932 -1.08424 0)
(29.5942 -1.0863 0)
(29.5953 -1.08836 0)
(29.5963 -1.0904 0)
(29.5973 -1.09245 0)
(29.5983 -1.09448 0)
(29.5993 -1.0965 0)
(29.6003 -1.09852 0)
(29.6013 -1.10053 0)
(29.6023 -1.10253 0)
(29.6033 -1.10453 0)
(29.6042 -1.10652 0)
(29.6052 -1.1085 0)
(29.6061 -1.11047 0)
(29.6071 -1.11244 0)
(29.608 -1.1144 0)
(29.6089 -1.11635 0)
(29.6098 -1.11829 0)
(29.6108 -1.12023 0)
(29.6117 -1.12215 0)
(29.466 -0.829846 8.3212e-31)
(29.4659 -0.832968 0)
(29.4657 -0.835573 0)
(29.4654 -0.83809 0)
(29.4652 -0.840594 0)
(29.465 -0.843099 0)
(29.4648 -0.845606 0)
(29.4647 -0.848115 0)
(29.4645 -0.850627 0)
(29.4643 -0.85314 0)
(29.4642 -0.855655 0)
(29.464 -0.85817 0)
(29.4639 -0.860685 0)
(29.4637 -0.8632 0)
(29.4636 -0.865714 0)
(29.4635 -0.868225 0)
(29.4634 -0.870732 0)
(29.4633 -0.873234 0)
(29.4632 -0.87573 0)
(29.4631 -0.878217 0)
(29.4631 -0.880693 0)
(29.463 -0.883157 0)
(29.463 -0.885691 0)
(29.4629 -0.888254 0)
(29.4629 -0.890823 0)
(29.4629 -0.893394 0)
(29.4629 -0.895966 0)
(29.4628 -0.898538 0)
(29.4628 -0.90111 0)
(29.4629 -0.903682 0)
(29.4629 -0.906254 0)
(29.4629 -0.908826 0)
(29.4629 -0.911398 0)
(29.463 -0.913969 0)
(29.463 -0.916539 0)
(29.4631 -0.919109 0)
(29.4632 -0.921678 0)
(29.4632 -0.924245 0)
(29.4633 -0.926811 0)
(29.4634 -0.929376 0)
(29.4635 -0.93194 0)
(29.4636 -0.934505 0)
(29.4637 -0.937124 0)
(29.4639 -0.939765 0)
(29.464 -0.942405 0)
(29.4641 -0.945034 0)
(29.4643 -0.947652 0)
(29.4644 -0.950258 0)
(29.4646 -0.952854 0)
(29.4648 -0.955441 0)
(29.465 -0.95802 0)
(29.4651 -0.960592 0)
(29.4653 -0.963156 0)
(29.4655 -0.965714 0)
(29.4658 -0.968267 0)
(29.466 -0.970813 0)
(29.4662 -0.973353 0)
(29.4664 -0.975889 0)
(29.4667 -0.978418 0)
(29.4669 -0.980941 0)
(29.4672 -0.983456 0)
(29.2454 -0.941537 -4.79723e-31)
(29.2466 -0.944952 0)
(29.2476 -0.948333 0)
(29.2484 -0.951717 0)
(29.2492 -0.955093 0)
(29.2501 -0.958462 0)
(29.2511 -0.961823 0)
(29.252 -0.965175 0)
(29.2529 -0.96852 0)
(29.2538 -0.971857 0)
(29.2547 -0.975186 0)
(29.2557 -0.978507 0)
(29.2566 -0.98182 0)
(29.2576 -0.985124 0)
(29.2586 -0.98842 0)
(29.2596 -0.991708 0)
(29.2606 -0.994987 0)
(29.2616 -0.998258 0)
(29.2626 -1.00152 0)
(29.2636 -1.00477 0)
(29.2646 -1.00802 0)
(29.2657 -1.01125 0)
(29.2667 -1.01448 0)
(29.2678 -1.0177 0)
(29.2688 -1.02091 0)
(29.2699 -1.02411 0)
(29.271 -1.0273 0)
(29.2721 -1.03048 0)
(29.2732 -1.03365 0)
(29.2743 -1.03681 0)
(29.2754 -1.03996 0)
(29.2765 -1.04311 0)
(29.2776 -1.04624 0)
(29.2788 -1.04937 0)
(29.2799 -1.05248 0)
(29.281 -1.05559 0)
(29.2822 -1.05868 0)
(29.2834 -1.06177 0)
(29.2845 -1.06484 0)
(29.2857 -1.06791 0)
(29.2869 -1.07096 0)
(29.2881 -1.07401 0)
(29.2893 -1.07704 0)
(29.2905 -1.08007 0)
(29.2917 -1.08309 0)
(29.2929 -1.08609 0)
(29.2941 -1.08909 0)
(29.2954 -1.09207 0)
(29.2966 -1.09504 0)
(29.2978 -1.09801 0)
(29.2991 -1.10096 0)
(29.3003 -1.10391 0)
(29.3016 -1.10684 0)
(29.3028 -1.10976 0)
(29.3041 -1.11267 0)
(29.3054 -1.11557 0)
(29.3067 -1.11846 0)
(29.3079 -1.12134 0)
(29.3092 -1.12421 0)
(29.3105 -1.12707 0)
(29.3118 -1.12991 0)
(29.1375 -0.926621 0)
(29.1384 -0.931086 0)
(29.139 -0.934773 0)
(29.1395 -0.938324 0)
(29.14 -0.941849 0)
(29.1407 -0.945366 0)
(29.1413 -0.948877 0)
(29.1419 -0.952384 0)
(29.1426 -0.955886 0)
(29.1432 -0.959383 0)
(29.1439 -0.962875 0)
(29.1446 -0.966361 0)
(29.1453 -0.969842 0)
(29.1461 -0.973317 0)
(29.1468 -0.976787 0)
(29.1476 -0.98025 0)
(29.1484 -0.983707 0)
(29.1492 -0.987158 0)
(29.15 -0.990602 0)
(29.1508 -0.99404 0)
(29.1516 -0.997471 0)
(29.1525 -1.00089 0)
(29.1534 -1.00431 0)
(29.1543 -1.00772 0)
(29.1552 -1.01112 0)
(29.1561 -1.01452 0)
(29.157 -1.0179 0)
(29.158 -1.02128 0)
(29.1589 -1.02465 0)
(29.1599 -1.02801 0)
(29.1609 -1.03136 0)
(29.1619 -1.03471 0)
(29.1629 -1.03804 0)
(29.164 -1.04137 0)
(29.165 -1.04469 0)
(29.1661 -1.04799 0)
(29.1671 -1.05129 0)
(29.1682 -1.05458 0)
(29.1693 -1.05786 0)
(29.1705 -1.06113 0)
(29.1716 -1.06439 0)
(29.1727 -1.06764 0)
(29.1739 -1.07087 0)
(29.1751 -1.0741 0)
(29.1762 -1.07732 0)
(29.1774 -1.08053 0)
(29.1786 -1.08372 0)
(29.1799 -1.08691 0)
(29.1811 -1.09008 0)
(29.1823 -1.09324 0)
(29.1836 -1.09639 0)
(29.1849 -1.09953 0)
(29.1861 -1.10266 0)
(29.1874 -1.10578 0)
(29.1887 -1.10888 0)
(29.19 -1.11197 0)
(29.1914 -1.11506 0)
(29.1927 -1.11812 0)
(29.194 -1.12118 0)
(29.1954 -1.12422 0)
(29.1968 -1.12724 0)
(28.9411 -0.980493 0)
(28.9426 -0.985321 0)
(28.9438 -0.990103 0)
(28.9448 -0.994879 0)
(28.9459 -0.999645 0)
(28.9471 -1.0044 0)
(28.9482 -1.00914 0)
(28.9495 -1.01387 0)
(28.9507 -1.01859 0)
(28.9519 -1.02329 0)
(28.9532 -1.02798 0)
(28.9545 -1.03266 0)
(28.9559 -1.03733 0)
(28.9573 -1.04198 0)
(28.9587 -1.04661 0)
(28.9601 -1.05123 0)
(28.9615 -1.05584 0)
(28.963 -1.06043 0)
(28.9645 -1.065 0)
(28.966 -1.06956 0)
(28.9676 -1.07411 0)
(28.9692 -1.07863 0)
(28.9708 -1.08314 0)
(28.9724 -1.08764 0)
(28.974 -1.09211 0)
(28.9757 -1.09657 0)
(28.9774 -1.10101 0)
(28.9791 -1.10544 0)
(28.9809 -1.10984 0)
(28.9826 -1.11423 0)
(28.9844 -1.1186 0)
(28.9862 -1.12295 0)
(28.9881 -1.12728 0)
(28.9899 -1.13159 0)
(28.9918 -1.13588 0)
(28.9937 -1.14015 0)
(28.9956 -1.1444 0)
(28.9976 -1.14864 0)
(28.9995 -1.15285 0)
(29.0015 -1.15704 0)
(29.0035 -1.16121 0)
(29.0055 -1.16537 0)
(29.0076 -1.1695 0)
(29.0096 -1.17361 0)
(29.0117 -1.1777 0)
(29.0138 -1.18176 0)
(29.0159 -1.18581 0)
(29.0181 -1.18984 0)
(29.0202 -1.19384 0)
(29.0224 -1.19782 0)
(29.0246 -1.20178 0)
(29.0268 -1.20572 0)
(29.029 -1.20964 0)
(29.0312 -1.21353 0)
(29.0335 -1.2174 0)
(29.0357 -1.22125 0)
(29.038 -1.22508 0)
(29.0403 -1.22889 0)
(29.0426 -1.23267 0)
(29.0449 -1.23643 0)
(29.0473 -1.24016 0)
(28.7852 -1.00882 0)
(28.7871 -1.01458 0)
(28.7886 -1.02029 0)
(28.7899 -1.02599 0)
(28.7914 -1.03168 0)
(28.7929 -1.03736 0)
(28.7944 -1.04301 0)
(28.796 -1.04865 0)
(28.7977 -1.05427 0)
(28.7993 -1.05987 0)
(28.801 -1.06545 0)
(28.8028 -1.07101 0)
(28.8046 -1.07655 0)
(28.8064 -1.08207 0)
(28.8083 -1.08757 0)
(28.8102 -1.09304 0)
(28.8121 -1.09849 0)
(28.8141 -1.10392 0)
(28.8161 -1.10933 0)
(28.8182 -1.11471 0)
(28.8203 -1.12007 0)
(28.8224 -1.1254 0)
(28.8246 -1.13071 0)
(28.8268 -1.13599 0)
(28.829 -1.14124 0)
(28.8312 -1.14647 0)
(28.8335 -1.15167 0)
(28.8359 -1.15684 0)
(28.8382 -1.16198 0)
(28.8406 -1.16709 0)
(28.8431 -1.17218 0)
(28.8455 -1.17723 0)
(28.848 -1.18226 0)
(28.8505 -1.18726 0)
(28.8531 -1.19222 0)
(28.8556 -1.19716 0)
(28.8582 -1.20206 0)
(28.8609 -1.20693 0)
(28.8635 -1.21177 0)
(28.8662 -1.21658 0)
(28.8689 -1.22136 0)
(28.8716 -1.2261 0)
(28.8744 -1.23081 0)
(28.8772 -1.23549 0)
(28.88 -1.24014 0)
(28.8828 -1.24475 0)
(28.8856 -1.24933 0)
(28.8885 -1.25387 0)
(28.8914 -1.25838 0)
(28.8943 -1.26286 0)
(28.8972 -1.2673 0)
(28.9002 -1.27171 0)
(28.9032 -1.27608 0)
(28.9062 -1.28042 0)
(28.9092 -1.28472 0)
(28.9122 -1.28899 0)
(28.9152 -1.29323 0)
(28.9183 -1.29743 0)
(28.9213 -1.3016 0)
(28.9244 -1.30573 0)
(28.9275 -1.30981 0)
(28.5772 -1.06446 0)
(28.5799 -1.07206 0)
(28.5821 -1.07957 0)
(28.5841 -1.08706 0)
(28.5863 -1.09452 0)
(28.5886 -1.10196 0)
(28.5909 -1.10936 0)
(28.5933 -1.11674 0)
(28.5958 -1.12408 0)
(28.5983 -1.13138 0)
(28.6009 -1.13865 0)
(28.6035 -1.14589 0)
(28.6063 -1.15308 0)
(28.609 -1.16024 0)
(28.6119 -1.16736 0)
(28.6148 -1.17444 0)
(28.6178 -1.18148 0)
(28.6208 -1.18848 0)
(28.6239 -1.19543 0)
(28.627 -1.20234 0)
(28.6302 -1.20921 0)
(28.6335 -1.21603 0)
(28.6368 -1.2228 0)
(28.6401 -1.22953 0)
(28.6435 -1.2362 0)
(28.647 -1.24283 0)
(28.6505 -1.24941 0)
(28.6541 -1.25594 0)
(28.6577 -1.26242 0)
(28.6614 -1.26885 0)
(28.6651 -1.27522 0)
(28.6689 -1.28154 0)
(28.6727 -1.28781 0)
(28.6765 -1.29403 0)
(28.6804 -1.30019 0)
(28.6844 -1.30629 0)
(28.6884 -1.31234 0)
(28.6924 -1.31833 0)
(28.6964 -1.32427 0)
(28.7005 -1.33015 0)
(28.7047 -1.33597 0)
(28.7088 -1.34174 0)
(28.713 -1.34744 0)
(28.7173 -1.35309 0)
(28.7215 -1.35868 0)
(28.7258 -1.36422 0)
(28.7302 -1.36969 0)
(28.7345 -1.37511 0)
(28.7389 -1.38046 0)
(28.7433 -1.38576 0)
(28.7477 -1.391 0)
(28.7522 -1.39618 0)
(28.7567 -1.40129 0)
(28.7612 -1.40635 0)
(28.7657 -1.41136 0)
(28.7703 -1.4163 0)
(28.7748 -1.42118 0)
(28.7794 -1.426 0)
(28.784 -1.43077 0)
(28.7886 -1.43547 0)
(28.7932 -1.44012 0)
(28.7979 -1.4447 0)
(28.3642 -1.12162 2.40576e-31)
(28.3679 -1.13136 0)
(28.3709 -1.14101 0)
(28.3738 -1.15061 0)
(28.3768 -1.16018 0)
(28.38 -1.16969 0)
(28.3834 -1.17916 0)
(28.3868 -1.18858 0)
(28.3903 -1.19794 0)
(28.3939 -1.20725 0)
(28.3977 -1.21651 0)
(28.4015 -1.2257 0)
(28.4054 -1.23484 0)
(28.4094 -1.24391 0)
(28.4136 -1.25292 0)
(28.4178 -1.26186 0)
(28.4221 -1.27074 0)
(28.4265 -1.27954 0)
(28.4309 -1.28828 0)
(28.4355 -1.29694 0)
(28.4402 -1.30552 0)
(28.4449 -1.31403 0)
(28.4497 -1.32246 0)
(28.4546 -1.33082 0)
(28.4596 -1.33909 0)
(28.4647 -1.34728 0)
(28.4698 -1.35539 0)
(28.475 -1.36341 0)
(28.4803 -1.37135 0)
(28.4857 -1.3792 0)
(28.4911 -1.38696 0)
(28.4966 -1.39463 0)
(28.5021 -1.40222 0)
(28.5077 -1.40971 0)
(28.5134 -1.41711 0)
(28.5191 -1.42442 0)
(28.5249 -1.43163 0)
(28.5307 -1.43875 0)
(28.5366 -1.44578 0)
(28.5425 -1.45271 0)
(28.5485 -1.45955 0)
(28.5545 -1.46629 0)
(28.5606 -1.47293 0)
(28.5667 -1.47948 0)
(28.5728 -1.48593 0)
(28.579 -1.49229 0)
(28.5852 -1.49854 0)
(28.5914 -1.50471 0)
(28.5977 -1.51077 0)
(28.604 -1.51674 0)
(28.6103 -1.52261 0)
(28.6166 -1.52838 0)
(28.623 -1.53406 0)
(28.6294 -1.53964 0)
(28.6358 -1.54513 0)
(28.6422 -1.55052 0)
(28.6486 -1.55581 0)
(28.655 -1.56102 0)
(28.6615 -1.56613 0)
(28.6679 -1.57114 0)
(28.6744 -1.57606 0)
(28.6808 -1.58089 0)
(28.1052 -1.19837 2.7651e-31)
(28.1103 -1.21134 0)
(28.1146 -1.22416 0)
(28.1186 -1.23693 0)
(28.123 -1.24963 0)
(28.1276 -1.26225 0)
(28.1324 -1.27479 0)
(28.1374 -1.28726 0)
(28.1425 -1.29963 0)
(28.1478 -1.31192 0)
(28.1532 -1.32411 0)
(28.1588 -1.33621 0)
(28.1646 -1.3482 0)
(28.1705 -1.36009 0)
(28.1766 -1.37188 0)
(28.1828 -1.38355 0)
(28.1892 -1.3951 0)
(28.1957 -1.40654 0)
(28.2023 -1.41786 0)
(28.2091 -1.42905 0)
(28.2161 -1.44011 0)
(28.2231 -1.45104 0)
(28.2303 -1.46184 0)
(28.2376 -1.47251 0)
(28.2451 -1.48303 0)
(28.2526 -1.49342 0)
(28.2603 -1.50366 0)
(28.2681 -1.51375 0)
(28.276 -1.5237 0)
(28.284 -1.53349 0)
(28.2921 -1.54314 0)
(28.3003 -1.55263 0)
(28.3086 -1.56196 0)
(28.3169 -1.57114 0)
(28.3254 -1.58016 0)
(28.3339 -1.58902 0)
(28.3425 -1.59772 0)
(28.3512 -1.60626 0)
(28.3599 -1.61463 0)
(28.3687 -1.62285 0)
(28.3776 -1.6309 0)
(28.3865 -1.63879 0)
(28.3955 -1.64651 0)
(28.4045 -1.65407 0)
(28.4136 -1.66146 0)
(28.4227 -1.66869 0)
(28.4318 -1.67576 0)
(28.4409 -1.68267 0)
(28.4501 -1.68941 0)
(28.4593 -1.69599 0)
(28.4685 -1.70241 0)
(28.4778 -1.70867 0)
(28.487 -1.71477 0)
(28.4963 -1.72072 0)
(28.5055 -1.7265 0)
(28.5148 -1.73213 0)
(28.524 -1.73761 0)
(28.5332 -1.74294 0)
(28.5425 -1.74811 0)
(28.5517 -1.75314 0)
(28.5608 -1.75801 0)
(28.57 -1.76273 0)
(27.8135 -1.287 0)
(27.8202 -1.30432 0)
(27.8261 -1.32146 0)
(27.8318 -1.33851 0)
(27.8379 -1.35545 0)
(27.8444 -1.37228 0)
(27.8512 -1.389 0)
(27.8582 -1.40559 0)
(27.8655 -1.42205 0)
(27.873 -1.43837 0)
(27.8808 -1.45455 0)
(27.8889 -1.47057 0)
(27.8972 -1.48643 0)
(27.9058 -1.50212 0)
(27.9146 -1.51764 0)
(27.9237 -1.53297 0)
(27.933 -1.54812 0)
(27.9425 -1.56308 0)
(27.9523 -1.57783 0)
(27.9623 -1.59238 0)
(27.9725 -1.60672 0)
(27.9829 -1.62084 0)
(27.9935 -1.63474 0)
(28.0043 -1.64841 0)
(28.0153 -1.66185 0)
(28.0265 -1.67505 0)
(28.0378 -1.68801 0)
(28.0493 -1.70073 0)
(28.061 -1.71319 0)
(28.0728 -1.7254 0)
(28.0848 -1.73735 0)
(28.0969 -1.74904 0)
(28.1092 -1.76047 0)
(28.1216 -1.77164 0)
(28.134 -1.78253 0)
(28.1466 -1.79316 0)
(28.1593 -1.80352 0)
(28.1721 -1.8136 0)
(28.185 -1.82341 0)
(28.1979 -1.83294 0)
(28.2109 -1.8422 0)
(28.224 -1.85119 0)
(28.2371 -1.8599 0)
(28.2502 -1.86833 0)
(28.2634 -1.8765 0)
(28.2766 -1.88439 0)
(28.2899 -1.892 0)
(28.3031 -1.89935 0)
(28.3164 -1.90643 0)
(28.3296 -1.91325 0)
(28.3428 -1.9198 0)
(28.356 -1.92609 0)
(28.3692 -1.93213 0)
(28.3824 -1.93791 0)
(28.3955 -1.94343 0)
(28.4086 -1.94871 0)
(28.4216 -1.95375 0)
(28.4346 -1.95854 0)
(28.4475 -1.9631 0)
(28.4603 -1.96743 0)
(28.4731 -1.97153 0)
(28.4858 -1.9754 0)
(27.463 -1.39276 0)
(27.4718 -1.41626 0)
(27.4797 -1.43953 0)
(27.4873 -1.46268 0)
(27.4956 -1.48569 0)
(27.5045 -1.50855 0)
(27.5139 -1.53123 0)
(27.5236 -1.55373 0)
(27.5338 -1.57603 0)
(27.5444 -1.59813 0)
(27.5555 -1.62 0)
(27.567 -1.64163 0)
(27.5789 -1.66301 0)
(27.5912 -1.68413 0)
(27.6039 -1.70497 0)
(27.617 -1.72552 0)
(27.6305 -1.74578 0)
(27.6443 -1.76572 0)
(27.6586 -1.78533 0)
(27.6732 -1.8046 0)
(27.6881 -1.82353 0)
(27.7034 -1.8421 0)
(27.719 -1.8603 0)
(27.7349 -1.87813 0)
(27.7511 -1.89556 0)
(27.7676 -1.9126 0)
(27.7844 -1.92923 0)
(27.8015 -1.94545 0)
(27.8187 -1.96124 0)
(27.8363 -1.97661 0)
(27.854 -1.99155 0)
(27.872 -2.00604 0)
(27.8901 -2.02009 0)
(27.9085 -2.0337 0)
(27.927 -2.04685 0)
(27.9456 -2.05954 0)
(27.9644 -2.07178 0)
(27.9833 -2.08355 0)
(28.0022 -2.09487 0)
(28.0213 -2.10572 0)
(28.0405 -2.11611 0)
(28.0596 -2.12604 0)
(28.0789 -2.13552 0)
(28.0981 -2.14453 0)
(28.1174 -2.15309 0)
(28.1367 -2.1612 0)
(28.1559 -2.16886 0)
(28.1751 -2.17608 0)
(28.1943 -2.18286 0)
(28.2134 -2.18921 0)
(28.2324 -2.19514 0)
(28.2514 -2.20064 0)