/*--------------------------------*- C++ -*----------------------------------*\
  =========                 |
  \\      /  F ield         | OpenFOAM: The Open Source CFD Toolbox
   \\    /   O peration     | Website:  https://openfoam.org
    \\  /    A nd           | Version:  9
     \\/     M anipulation  |
\*---------------------------------------------------------------------------*/
FoamFile
{
    format      ascii;
    class       volVectorField;
    location    "0.005";
    object      U;
}
// * * * * * * * * * * * * * * * * * * * * * * * * * * * * * * * * * * * * * //

dimensions      [0 1 -1 0 0 0 0];

internalField   nonuniform List<vector> 
12072
(
(26.6563 -2.42234 0)
(26.6392 -2.40769 0)
(26.608 -2.39345 0)
(26.5804 -2.3796 0)
(26.5562 -2.36619 0)
(26.5327 -2.35321 0)
(26.5092 -2.34064 0)
(26.4862 -2.32847 0)
(26.4636 -2.31669 0)
(26.4416 -2.30528 0)
(26.42 -2.29425 0)
(26.3988 -2.28358 0)
(26.3781 -2.27326 0)
(26.3577 -2.26329 0)
(26.3378 -2.25366 0)
(26.3183 -2.24436 0)
(26.2992 -2.23539 0)
(26.2804 -2.22673 0)
(26.262 -2.21837 0)
(26.244 -2.21032 0)
(26.2264 -2.20256 0)
(26.2091 -2.19509 0)
(26.1921 -2.1879 0)
(26.1754 -2.18099 0)
(26.1591 -2.17434 0)
(26.1431 -2.16795 0)
(26.1274 -2.16182 0)
(26.112 -2.15594 0)
(26.0969 -2.1503 0)
(26.0821 -2.1449 0)
(26.0676 -2.13973 0)
(26.0533 -2.13479 0)
(26.0394 -2.13007 0)
(26.0256 -2.12557 0)
(26.0122 -2.12128 0)
(25.9989 -2.1172 0)
(25.986 -2.11332 0)
(25.9732 -2.10964 0)
(25.9607 -2.10615 0)
(25.9485 -2.10284 0)
(25.9364 -2.09972 0)
(25.9246 -2.09678 0)
(25.913 -2.09402 0)
(25.9016 -2.09143 0)
(25.8904 -2.089 0)
(25.8794 -2.08674 0)
(25.8686 -2.08463 0)
(25.8579 -2.08269 0)
(25.8475 -2.08089 0)
(25.8372 -2.07924 0)
(25.8272 -2.07774 0)
(25.8173 -2.07638 0)
(25.8075 -2.07516 0)
(25.798 -2.07407 0)
(25.7886 -2.07311 0)
(25.7793 -2.07228 0)
(25.7702 -2.07158 0)
(25.7613 -2.071 0)
(25.7525 -2.07054 0)
(25.7439 -2.0702 0)
(25.7353 -2.06997 0)
(24.4903 -0.553728 0)
(24.4797 -0.58057 0)
(24.4717 -0.604596 0)
(24.4645 -0.62789 0)
(24.4572 -0.650797 0)
(24.45 -0.673346 0)
(24.4431 -0.695482 0)
(24.4364 -0.717202 0)
(24.4299 -0.738519 0)
(24.4236 -0.759441 0)
(24.4176 -0.779981 0)
(24.4117 -0.800148 0)
(24.406 -0.819951 0)
(24.4005 -0.8394 0)
(24.3952 -0.858503 0)
(24.3901 -0.87727 0)
(24.3851 -0.895709 0)
(24.3803 -0.913827 0)
(24.3757 -0.931634 0)
(24.3712 -0.949136 0)
(24.3669 -0.966341 0)
(24.3628 -0.983257 0)
(24.3587 -0.999891 0)
(24.3549 -1.01625 0)
(24.3511 -1.03234 0)
(24.3475 -1.04817 0)
(24.344 -1.06374 0)
(24.3407 -1.07906 0)
(24.3375 -1.09415 0)
(24.3344 -1.10899 0)
(24.3314 -1.12361 0)
(24.3285 -1.13799 0)
(24.3257 -1.15216 0)
(24.3231 -1.16612 0)
(24.3205 -1.17987 0)
(24.3181 -1.19341 0)
(24.3157 -1.20675 0)
(24.3135 -1.2199 0)
(24.3113 -1.23286 0)
(24.3092 -1.24563 0)
(24.3072 -1.25822 0)
(24.3053 -1.27064 0)
(24.3035 -1.28288 0)
(24.3018 -1.29495 0)
(24.3001 -1.30686 0)
(24.2985 -1.31861 0)
(24.297 -1.33019 0)
(24.2956 -1.34163 0)
(24.2942 -1.35291 0)
(24.2929 -1.36405 0)
(24.2917 -1.37504 0)
(24.2905 -1.38589 0)
(24.2894 -1.3966 0)
(24.2883 -1.40717 0)
(24.2873 -1.41761 0)
(24.2864 -1.42792 0)
(24.2855 -1.43809 0)
(24.2847 -1.44814 0)
(24.2839 -1.45807 0)
(24.2832 -1.46787 0)
(24.2825 -1.47754 0)
(24.4284 -1.76311 0)
(24.4353 -1.76754 0)
(24.442 -1.77195 0)
(24.4479 -1.7763 0)
(24.4541 -1.7806 0)
(24.4596 -1.78486 0)
(24.465 -1.78906 0)
(24.4703 -1.79322 0)
(24.4753 -1.79733 0)
(24.4801 -1.8014 0)
(24.4847 -1.80542 0)
(24.4892 -1.8094 0)
(24.4934 -1.81335 0)
(24.4974 -1.81726 0)
(24.5013 -1.82114 0)
(24.5051 -1.82498 0)
(24.5086 -1.82879 0)
(24.512 -1.83258 0)
(24.5153 -1.83633 0)
(24.5184 -1.84006 0)
(24.5213 -1.84377 0)
(24.5242 -1.84745 0)
(24.5268 -1.85112 0)
(24.5294 -1.85476 0)
(24.5319 -1.85838 0)
(24.5342 -1.86199 0)
(24.5364 -1.86558 0)
(24.5385 -1.86916 0)
(24.5405 -1.87272 0)
(24.5424 -1.87627 0)
(24.5442 -1.87981 0)
(24.5459 -1.88333 0)
(24.5475 -1.88685 0)
(24.549 -1.89036 0)
(24.5504 -1.89387 0)
(24.5518 -1.89736 0)
(24.553 -1.90085 0)
(24.5542 -1.90434 0)
(24.5553 -1.90782 0)
(24.5564 -1.91129 0)
(24.5574 -1.91477 0)
(24.5583 -1.91824 0)
(24.5592 -1.92171 0)
(24.56 -1.92517 0)
(24.5607 -1.92863 0)
(24.5614 -1.93209 0)
(24.562 -1.93555 0)
(24.5626 -1.93901 0)
(24.5632 -1.94247 0)
(24.5637 -1.94593 0)
(24.5641 -1.94938 0)
(24.5645 -1.95283 0)
(24.5649 -1.95628 0)
(24.5652 -1.95973 0)
(24.5655 -1.96317 0)
(24.5658 -1.96661 0)
(24.566 -1.97004 0)
(24.5662 -1.97347 0)
(24.5664 -1.97689 0)
(24.5665 -1.98031 0)
(24.5666 -1.98367 0)
(24.4478 -1.06848 0)
(24.443 -1.07538 0)
(24.4385 -1.08229 0)
(24.4344 -1.08935 0)
(24.4303 -1.09649 0)
(24.4262 -1.10369 0)
(24.4221 -1.11095 0)
(24.4181 -1.11827 0)
(24.4142 -1.12564 0)
(24.4102 -1.13306 0)
(24.4064 -1.14053 0)
(24.4025 -1.14804 0)
(24.3988 -1.15559 0)
(24.395 -1.16314 0)
(24.3913 -1.17067 0)
(24.3876 -1.1782 0)
(24.384 -1.18577 0)
(24.3805 -1.19336 0)
(24.377 -1.20099 0)
(24.3735 -1.20864 0)
(24.3701 -1.21632 0)
(24.3667 -1.22402 0)
(24.3634 -1.23174 0)
(24.3601 -1.23948 0)
(24.3569 -1.24725 0)
(24.3537 -1.25502 0)
(24.3505 -1.26282 0)
(24.3474 -1.27062 0)
(24.3444 -1.27844 0)
(24.3413 -1.28627 0)
(24.3384 -1.2941 0)
(24.3355 -1.30195 0)
(24.3326 -1.3098 0)
(24.3298 -1.31765 0)
(24.327 -1.32551 0)
(24.3242 -1.33337 0)
(24.3215 -1.34123 0)
(24.3189 -1.34909 0)
(24.3163 -1.35695 0)
(24.3137 -1.36481 0)
(24.3112 -1.37267 0)
(24.3087 -1.38053 0)
(24.3063 -1.38838 0)
(24.3039 -1.39623 0)
(24.3015 -1.40407 0)
(24.2992 -1.41191 0)
(24.2969 -1.41974 0)
(24.2947 -1.42756 0)
(24.2925 -1.43537 0)
(24.2904 -1.44318 0)
(24.2882 -1.45098 0)
(24.2862 -1.45877 0)
(24.2841 -1.46654 0)
(24.2821 -1.47431 0)
(24.2802 -1.48206 0)
(24.2783 -1.48981 0)
(24.2764 -1.49754 0)
(24.2746 -1.50526 0)
(24.2728 -1.51296 0)
(24.271 -1.52065 0)
(24.2693 -1.52833 0)
(24.056 -1.44995 0)
(24.0575 -1.45743 0)
(24.0596 -1.46475 0)
(24.0615 -1.47203 0)
(24.0633 -1.47927 0)
(24.065 -1.48648 0)
(24.0667 -1.49365 0)
(24.0684 -1.50078 0)
(24.0701 -1.50788 0)
(24.0717 -1.51495 0)
(24.0734 -1.52199 0)
(24.075 -1.52899 0)
(24.0765 -1.53597 0)
(24.0781 -1.54294 0)
(24.0796 -1.54992 0)
(24.0811 -1.55689 0)
(24.0826 -1.56383 0)
(24.0841 -1.57075 0)
(24.0856 -1.57764 0)
(24.087 -1.58451 0)
(24.0884 -1.59135 0)
(24.0898 -1.59816 0)
(24.0912 -1.60495 0)
(24.0926 -1.61172 0)
(24.0939 -1.61846 0)
(24.0952 -1.62518 0)
(24.0965 -1.63187 0)
(24.0978 -1.63854 0)
(24.0991 -1.64519 0)
(24.1003 -1.65182 0)
(24.1016 -1.65842 0)
(24.1028 -1.665 0)
(24.104 -1.67156 0)
(24.1052 -1.67809 0)
(24.1063 -1.6846 0)
(24.1075 -1.69105 0)
(24.1087 -1.69747 0)
(24.1098 -1.70385 0)
(24.1109 -1.71022 0)
(24.112 -1.71657 0)
(24.1131 -1.7229 0)
(24.1142 -1.72921 0)
(24.1152 -1.73551 0)
(24.1163 -1.74178 0)
(24.1173 -1.74803 0)
(24.1183 -1.75427 0)
(24.1193 -1.76049 0)
(24.1203 -1.76669 0)
(24.1213 -1.77287 0)
(24.1223 -1.77904 0)
(24.1233 -1.78519 0)
(24.1242 -1.79132 0)
(24.1252 -1.79744 0)
(24.1261 -1.80354 0)
(24.1271 -1.80963 0)
(24.128 -1.8157 0)
(24.1289 -1.82175 0)
(24.1298 -1.82779 0)
(24.1307 -1.83382 0)
(24.1316 -1.83983 0)
(24.1325 -1.84583 0)
(24.1069 -1.21244 0)
(24.1048 -1.21894 0)
(24.1023 -1.22462 0)
(24.0999 -1.23026 0)
(24.0976 -1.23594 0)
(24.0954 -1.24167 0)
(24.0932 -1.24745 0)
(24.0909 -1.25327 0)
(24.0887 -1.25914 0)
(24.0865 -1.26505 0)
(24.0844 -1.27101 0)
(24.0822 -1.27701 0)
(24.0801 -1.28305 0)
(24.0779 -1.28916 0)
(24.0758 -1.29534 0)
(24.0737 -1.30157 0)
(24.0717 -1.30785 0)
(24.0696 -1.31417 0)
(24.0676 -1.32052 0)
(24.0656 -1.3269 0)
(24.0636 -1.33332 0)
(24.0616 -1.33977 0)
(24.0596 -1.34626 0)
(24.0577 -1.35277 0)
(24.0558 -1.35932 0)
(24.0539 -1.36589 0)
(24.052 -1.3725 0)
(24.0501 -1.37913 0)
(24.0483 -1.38579 0)
(24.0465 -1.39248 0)
(24.0447 -1.39919 0)
(24.0429 -1.40593 0)
(24.0411 -1.41269 0)
(24.0394 -1.41947 0)
(24.0377 -1.42628 0)
(24.036 -1.43311 0)
(24.0343 -1.43996 0)
(24.0327 -1.44683 0)
(24.031 -1.45372 0)
(24.0294 -1.46063 0)
(24.0279 -1.46755 0)
(24.0263 -1.47447 0)
(24.0248 -1.48138 0)
(24.0233 -1.4883 0)
(24.0218 -1.49524 0)
(24.0204 -1.50219 0)
(24.0189 -1.50916 0)
(24.0175 -1.51615 0)
(24.0162 -1.52314 0)
(24.0148 -1.53015 0)
(24.0135 -1.53717 0)
(24.0122 -1.54421 0)
(24.0109 -1.55125 0)
(24.0097 -1.5583 0)
(24.0084 -1.56537 0)
(24.0072 -1.57244 0)
(24.0061 -1.57952 0)
(24.0049 -1.58661 0)
(24.0038 -1.5937 0)
(24.0027 -1.60081 0)
(24.0016 -1.60791 0)
(23.7816 -1.3048 -3.04888e-30)
(23.7807 -1.31277 0)
(23.7802 -1.32074 0)
(23.7796 -1.32869 0)
(23.779 -1.33665 0)
(23.7784 -1.34459 0)
(23.7778 -1.35253 0)
(23.7772 -1.36046 0)
(23.7767 -1.36839 0)
(23.7762 -1.37631 0)
(23.7757 -1.38422 0)
(23.7753 -1.39212 0)
(23.7748 -1.40002 0)
(23.7744 -1.40791 0)
(23.774 -1.41579 0)
(23.7737 -1.42367 0)
(23.7733 -1.43153 0)
(23.773 -1.43939 0)
(23.7727 -1.44724 0)
(23.7724 -1.45508 0)
(23.7721 -1.46291 0)
(23.7719 -1.47073 0)
(23.7716 -1.47855 0)
(23.7714 -1.48635 0)
(23.7712 -1.49415 0)
(23.771 -1.50194 0)
(23.7709 -1.50971 0)
(23.7708 -1.51748 0)
(23.7706 -1.52524 0)
(23.7705 -1.53299 0)
(23.7705 -1.54073 0)
(23.7704 -1.54843 0)
(23.7703 -1.55612 0)
(23.7703 -1.56381 0)
(23.7703 -1.57148 0)
(23.7703 -1.57914 0)
(23.7703 -1.5868 0)
(23.7704 -1.59444 0)
(23.7705 -1.60208 0)
(23.7705 -1.60971 0)
(23.7706 -1.61733 0)
(23.7708 -1.62494 0)
(23.7709 -1.63254 0)
(23.771 -1.64014 0)
(23.7712 -1.64772 0)
(23.7714 -1.6553 0)
(23.7716 -1.66287 0)
(23.7718 -1.67043 0)
(23.7721 -1.67798 0)
(23.7724 -1.68552 0)
(23.7726 -1.69305 0)
(23.7729 -1.70057 0)
(23.7733 -1.70808 0)
(23.7736 -1.71558 0)
(23.774 -1.72307 0)
(23.7743 -1.73055 0)
(23.7747 -1.73802 0)
(23.7751 -1.74548 0)
(23.7755 -1.75293 0)
(23.776 -1.76037 0)
(23.7764 -1.76787 0)
(23.7345 -1.20034 0)
(23.7327 -1.20872 0)
(23.7305 -1.21578 0)
(23.7284 -1.22264 0)
(23.7265 -1.22949 0)
(23.7246 -1.23638 0)
(23.7226 -1.24329 0)
(23.7207 -1.25024 0)
(23.7188 -1.25722 0)
(23.7169 -1.26423 0)
(23.715 -1.27127 0)
(23.7132 -1.27834 0)
(23.7114 -1.28544 0)
(23.7095 -1.29257 0)
(23.7078 -1.29973 0)
(23.706 -1.30691 0)
(23.7042 -1.31413 0)
(23.7025 -1.32137 0)
(23.7008 -1.32863 0)
(23.6991 -1.33593 0)
(23.6974 -1.34325 0)
(23.6958 -1.35059 0)
(23.6941 -1.35795 0)
(23.6925 -1.36532 0)
(23.691 -1.3727 0)
(23.6894 -1.38011 0)
(23.6879 -1.38755 0)
(23.6863 -1.395 0)
(23.6848 -1.40248 0)
(23.6834 -1.40997 0)
(23.6819 -1.41749 0)
(23.6805 -1.42502 0)
(23.6791 -1.43257 0)
(23.6778 -1.44014 0)
(23.6764 -1.44773 0)
(23.6751 -1.45534 0)
(23.6739 -1.46297 0)
(23.6726 -1.47061 0)
(23.6714 -1.47826 0)
(23.6703 -1.48593 0)
(23.6691 -1.49362 0)
(23.668 -1.50131 0)
(23.6669 -1.50902 0)
(23.6658 -1.51675 0)
(23.6648 -1.52448 0)
(23.6638 -1.53222 0)
(23.6629 -1.53998 0)
(23.6619 -1.54774 0)
(23.6611 -1.55551 0)
(23.6602 -1.56329 0)
(23.6594 -1.57107 0)
(23.6586 -1.57886 0)
(23.6578 -1.58666 0)
(23.6571 -1.59445 0)
(23.6564 -1.60225 0)
(23.6557 -1.61004 0)
(23.6551 -1.61784 0)
(23.6545 -1.62563 0)
(23.6539 -1.63341 0)
(23.6534 -1.6413 0)
(23.6529 -1.64925 0)
(23.5047 -1.20455 0)
(23.5029 -1.2132 0)
(23.501 -1.22175 0)
(23.4989 -1.23029 0)
(23.4968 -1.23885 0)
(23.4948 -1.24743 0)
(23.4928 -1.25601 0)
(23.4909 -1.26461 0)
(23.489 -1.27322 0)
(23.4872 -1.28184 0)
(23.4854 -1.29046 0)
(23.4836 -1.2991 0)
(23.4819 -1.30774 0)
(23.4802 -1.31638 0)
(23.4786 -1.32504 0)
(23.477 -1.3337 0)
(23.4754 -1.34236 0)
(23.4739 -1.35103 0)
(23.4725 -1.35969 0)
(23.4711 -1.36836 0)
(23.4697 -1.37704 0)
(23.4684 -1.38572 0)
(23.4671 -1.39441 0)
(23.4658 -1.4031 0)
(23.4646 -1.4118 0)
(23.4635 -1.42048 0)
(23.4623 -1.42917 0)
(23.4612 -1.43783 0)
(23.4602 -1.44665 0)
(23.4592 -1.4555 0)
(23.4582 -1.46438 0)
(23.4572 -1.47326 0)
(23.4563 -1.48214 0)
(23.4555 -1.49103 0)
(23.4547 -1.49993 0)
(23.4539 -1.50883 0)
(23.4531 -1.51773 0)
(23.4524 -1.52664 0)
(23.4518 -1.53555 0)
(23.4512 -1.54446 0)
(23.4506 -1.55338 0)
(23.45 -1.5623 0)
(23.4495 -1.57122 0)
(23.449 -1.58014 0)
(23.4486 -1.58906 0)
(23.4482 -1.59799 0)
(23.4479 -1.60691 0)
(23.4475 -1.61583 0)
(23.4473 -1.62475 0)
(23.447 -1.63367 0)
(23.4468 -1.64259 0)
(23.4467 -1.6515 0)
(23.4466 -1.66041 0)
(23.4465 -1.66932 0)
(23.4465 -1.67823 0)
(23.4465 -1.68713 0)
(23.4466 -1.69602 0)
(23.4467 -1.70491 0)
(23.4468 -1.7138 0)
(23.447 -1.72268 0)
(23.4473 -1.73155 0)
(23.4073 -1.12805 3.82389e-30)
(23.4047 -1.13625 0)
(23.4018 -1.14453 0)
(23.3989 -1.15284 0)
(23.3961 -1.16119 0)
(23.3934 -1.16958 0)
(23.3907 -1.17799 0)
(23.388 -1.18645 0)
(23.3853 -1.19496 0)
(23.3827 -1.20362 0)
(23.3801 -1.21234 0)
(23.3776 -1.22112 0)
(23.3751 -1.22995 0)
(23.3727 -1.23881 0)
(23.3703 -1.24772 0)
(23.3679 -1.25667 0)
(23.3656 -1.26566 0)
(23.3634 -1.27469 0)
(23.3612 -1.28375 0)
(23.3591 -1.29283 0)
(23.357 -1.30182 0)
(23.3549 -1.31073 0)
(23.3529 -1.31963 0)
(23.3509 -1.32855 0)
(23.349 -1.3375 0)
(23.3471 -1.34646 0)
(23.3453 -1.35545 0)
(23.3435 -1.36446 0)
(23.3418 -1.3735 0)
(23.3401 -1.38256 0)
(23.3384 -1.39164 0)
(23.3368 -1.40073 0)
(23.3352 -1.40985 0)
(23.3337 -1.41899 0)
(23.3322 -1.42814 0)
(23.3308 -1.43731 0)
(23.3294 -1.44649 0)
(23.328 -1.45569 0)
(23.3267 -1.46488 0)
(23.3254 -1.47409 0)
(23.3241 -1.4833 0)
(23.323 -1.49252 0)
(23.3218 -1.50175 0)
(23.3207 -1.51098 0)
(23.3197 -1.52021 0)
(23.3187 -1.52944 0)
(23.3178 -1.53866 0)
(23.3169 -1.54789 0)
(23.316 -1.55726 0)
(23.3152 -1.56669 0)
(23.3145 -1.57615 0)
(23.3138 -1.58562 0)
(23.3132 -1.5951 0)
(23.3126 -1.60459 0)
(23.312 -1.61409 0)
(23.3115 -1.6236 0)
(23.3111 -1.63311 0)
(23.3107 -1.64263 0)
(23.3104 -1.65215 0)
(23.3101 -1.66168 0)
(23.3098 -1.67122 0)
(23.2187 -1.09149 0)
(23.2157 -1.10112 0)
(23.2125 -1.11081 0)
(23.2091 -1.12054 0)
(23.2059 -1.13032 0)
(23.2027 -1.14012 0)
(23.1996 -1.14996 0)
(23.1966 -1.15983 0)
(23.1936 -1.16973 0)
(23.1906 -1.17967 0)
(23.1877 -1.18976 0)
(23.1848 -1.19997 0)
(23.182 -1.21024 0)
(23.1792 -1.22055 0)
(23.1765 -1.23091 0)
(23.1738 -1.24131 0)
(23.1712 -1.25174 0)
(23.1686 -1.26222 0)
(23.1661 -1.27272 0)
(23.1636 -1.2831 0)
(23.1612 -1.29332 0)
(23.1588 -1.30353 0)
(23.1565 -1.31376 0)
(23.1543 -1.32401 0)
(23.1521 -1.33428 0)
(23.1499 -1.34456 0)
(23.1479 -1.35485 0)
(23.1458 -1.36516 0)
(23.1439 -1.37548 0)
(23.142 -1.38582 0)
(23.1402 -1.39616 0)
(23.1384 -1.4065 0)
(23.1367 -1.41684 0)
(23.135 -1.42718 0)
(23.1335 -1.43749 0)
(23.132 -1.44783 0)
(23.1306 -1.45808 0)
(23.1292 -1.46855 0)
(23.1279 -1.47912 0)
(23.1267 -1.48973 0)
(23.1255 -1.50035 0)
(23.1244 -1.51098 0)
(23.1234 -1.52162 0)
(23.1224 -1.53228 0)
(23.1214 -1.54294 0)
(23.1206 -1.55361 0)
(23.1197 -1.56428 0)
(23.119 -1.57497 0)
(23.1183 -1.58566 0)
(23.1177 -1.59635 0)
(23.1172 -1.60705 0)
(23.1167 -1.61775 0)
(23.1163 -1.62846 0)
(23.116 -1.63916 0)
(23.1157 -1.64987 0)
(23.1155 -1.66058 0)
(23.1153 -1.67129 0)
(23.1152 -1.68199 0)
(23.1152 -1.6927 0)
(23.1152 -1.7034 0)
(23.1153 -1.7141 0)
(23.091 -1.01913 0)
(23.0872 -1.02905 0)
(23.0832 -1.03906 0)
(23.0791 -1.04912 0)
(23.0751 -1.05924 0)
(23.0713 -1.06941 0)
(23.0674 -1.07963 0)
(23.0637 -1.08989 0)
(23.0599 -1.1002 0)
(23.0563 -1.11056 0)
(23.0527 -1.12097 0)
(23.0491 -1.13141 0)
(23.0456 -1.14191 0)
(23.0422 -1.15244 0)
(23.0388 -1.16302 0)
(23.0354 -1.17364 0)
(23.0321 -1.1843 0)
(23.0289 -1.195 0)
(23.0257 -1.20574 0)
(23.0226 -1.21652 0)
(23.0195 -1.22734 0)
(23.0165 -1.23819 0)
(23.0136 -1.24909 0)
(23.0107 -1.26001 0)
(23.0079 -1.27098 0)
(23.0052 -1.28198 0)
(23.0025 -1.29301 0)
(22.9999 -1.30408 0)
(22.9974 -1.31518 0)
(22.995 -1.32631 0)
(22.9926 -1.33748 0)
(22.9903 -1.34881 0)
(22.9881 -1.36027 0)
(22.986 -1.37181 0)
(22.9839 -1.3834 0)
(22.982 -1.395 0)
(22.9801 -1.40647 0)
(22.9783 -1.41777 0)
(22.9765 -1.42904 0)
(22.9749 -1.4403 0)
(22.9732 -1.45156 0)
(22.9717 -1.46281 0)
(22.9702 -1.47405 0)
(22.9688 -1.4853 0)
(22.9675 -1.49664 0)
(22.9663 -1.50813 0)
(22.9651 -1.51967 0)
(22.964 -1.53122 0)
(22.9629 -1.5428 0)
(22.962 -1.55438 0)
(22.9611 -1.56598 0)
(22.9603 -1.57759 0)
(22.9596 -1.58921 0)
(22.9589 -1.60084 0)
(22.9584 -1.61248 0)
(22.9579 -1.62413 0)
(22.9574 -1.63578 0)
(22.9571 -1.64744 0)
(22.9568 -1.65911 0)
(22.9566 -1.67078 0)
(22.9565 -1.68245 0)
(22.9201 -0.959009 0)
(22.9155 -0.970185 0)
(22.9108 -0.981464 0)
(22.9059 -0.992809 0)
(22.9011 -1.00421 0)
(22.8965 -1.01568 0)
(22.8919 -1.02719 0)
(22.8874 -1.03877 0)
(22.8829 -1.0504 0)
(22.8785 -1.06208 0)
(22.8742 -1.07382 0)
(22.87 -1.0856 0)
(22.8658 -1.09744 0)
(22.8617 -1.10933 0)
(22.8577 -1.12127 0)
(22.8538 -1.13326 0)
(22.8499 -1.14529 0)
(22.8462 -1.15737 0)
(22.8425 -1.1695 0)
(22.8388 -1.18167 0)
(22.8353 -1.19388 0)
(22.8318 -1.20613 0)
(22.8285 -1.21843 0)
(22.8252 -1.23076 0)
(22.822 -1.24314 0)
(22.8188 -1.25555 0)
(22.8158 -1.268 0)
(22.8128 -1.28049 0)
(22.8099 -1.29301 0)
(22.8072 -1.30556 0)
(22.8044 -1.31815 0)
(22.8018 -1.33078 0)
(22.7993 -1.3437 0)
(22.7968 -1.35673 0)
(22.7945 -1.36982 0)
(22.7921 -1.38276 0)
(22.7899 -1.39541 0)
(22.7878 -1.40798 0)
(22.7857 -1.42055 0)
(22.7838 -1.43306 0)
(22.7819 -1.44568 0)
(22.7802 -1.45851 0)
(22.7785 -1.47141 0)
(22.777 -1.48433 0)
(22.7755 -1.49727 0)
(22.7742 -1.51023 0)
(22.7729 -1.5232 0)
(22.7717 -1.53619 0)
(22.7706 -1.54919 0)
(22.7696 -1.5622 0)
(22.7687 -1.57522 0)
(22.7679 -1.58825 0)
(22.7672 -1.60129 0)
(22.7666 -1.61434 0)
(22.7661 -1.62739 0)
(22.7656 -1.64045 0)
(22.7653 -1.65351 0)
(22.765 -1.66657 0)
(22.7649 -1.67963 0)
(22.7648 -1.69269 0)
(22.7649 -1.70575 0)
(22.7772 -0.878351 0)
(22.7718 -0.890192 0)
(22.766 -0.90216 0)
(22.7602 -0.914212 0)
(22.7546 -0.926339 0)
(22.7491 -0.93854 0)
(22.7436 -0.950812 0)
(22.7382 -0.963154 0)
(22.7329 -0.975567 0)
(22.7277 -0.988049 0)
(22.7225 -1.0006 0)
(22.7174 -1.01322 0)
(22.7125 -1.0259 0)
(22.7076 -1.03865 0)
(22.7027 -1.05146 0)
(22.698 -1.06433 0)
(22.6934 -1.07727 0)
(22.6888 -1.09027 0)
(22.6844 -1.10333 0)
(22.68 -1.11644 0)
(22.6757 -1.12962 0)
(22.6716 -1.14285 0)
(22.6675 -1.15613 0)
(22.6635 -1.16947 0)
(22.6596 -1.18286 0)
(22.6558 -1.19631 0)
(22.6521 -1.2098 0)
(22.6485 -1.22335 0)
(22.645 -1.23694 0)
(22.6416 -1.25058 0)
(22.6383 -1.26426 0)
(22.6351 -1.27799 0)
(22.632 -1.29176 0)
(22.629 -1.30557 0)
(22.626 -1.31942 0)
(22.6232 -1.33331 0)
(22.6205 -1.34724 0)
(22.6178 -1.3612 0)
(22.6153 -1.3752 0)
(22.613 -1.38923 0)
(22.6107 -1.40329 0)
(22.6085 -1.41738 0)
(22.6065 -1.4315 0)
(22.6045 -1.44565 0)
(22.6027 -1.45982 0)
(22.601 -1.47402 0)
(22.5994 -1.48824 0)
(22.5979 -1.50249 0)
(22.5965 -1.51675 0)
(22.5952 -1.53103 0)
(22.594 -1.54533 0)
(22.5929 -1.55965 0)
(22.592 -1.57398 0)
(22.5911 -1.58832 0)
(22.5904 -1.60267 0)
(22.5898 -1.61703 0)
(22.5893 -1.6314 0)
(22.5889 -1.64578 0)
(22.5886 -1.66016 0)
(22.5884 -1.67455 0)
(22.5883 -1.68893 0)
(22.613 -0.799228 0)
(22.6064 -0.812304 0)
(22.5996 -0.825526 0)
(22.5928 -0.838848 0)
(22.5861 -0.852259 0)
(22.5795 -0.865759 0)
(22.573 -0.879344 0)
(22.5666 -0.893014 0)
(22.5603 -0.906768 0)
(22.5541 -0.920604 0)
(22.548 -0.934522 0)
(22.542 -0.94852 0)
(22.5361 -0.962597 0)
(22.5302 -0.976751 0)
(22.5245 -0.990982 0)
(22.5189 -1.00529 0)
(22.5135 -1.01967 0)
(22.5081 -1.03412 0)
(22.5028 -1.04864 0)
(22.4976 -1.06324 0)
(22.4926 -1.0779 0)
(22.4876 -1.09263 0)
(22.4828 -1.10742 0)
(22.478 -1.12228 0)
(22.4734 -1.1372 0)
(22.469 -1.15218 0)
(22.4646 -1.16722 0)
(22.4603 -1.18232 0)
(22.4562 -1.19747 0)
(22.4522 -1.21268 0)
(22.4483 -1.22795 0)
(22.4445 -1.24326 0)
(22.4408 -1.25863 0)
(22.4373 -1.27404 0)
(22.4339 -1.2895 0)
(22.4306 -1.305 0)
(22.4275 -1.32055 0)
(22.4244 -1.33613 0)
(22.4215 -1.35176 0)
(22.4188 -1.36743 0)
(22.4161 -1.38313 0)
(22.4136 -1.39886 0)
(22.4112 -1.41463 0)
(22.4089 -1.43043 0)
(22.4068 -1.44625 0)
(22.4048 -1.46211 0)
(22.4029 -1.47799 0)
(22.4012 -1.4939 0)
(22.3996 -1.50982 0)
(22.3981 -1.52577 0)
(22.3968 -1.54173 0)
(22.3956 -1.55772 0)
(22.3945 -1.57371 0)
(22.3936 -1.58972 0)
(22.3928 -1.60574 0)
(22.3921 -1.62177 0)
(22.3916 -1.6378 0)
(22.3912 -1.65384 0)
(22.3909 -1.66989 0)
(22.3908 -1.68593 0)
(22.3908 -1.70197 0)
(22.4601 -0.706195 0)
(22.4524 -0.720197 0)
(22.4444 -0.734373 0)
(22.4364 -0.74867 0)
(22.4285 -0.763077 0)
(22.4208 -0.777592 0)
(22.4132 -0.792211 0)
(22.4057 -0.806935 0)
(22.3983 -0.821762 0)
(22.391 -0.836691 0)
(22.3838 -0.85172 0)
(22.3767 -0.866848 0)
(22.3698 -0.882073 0)
(22.3629 -0.897395 0)
(22.3562 -0.91281 0)
(22.3496 -0.928319 0)
(22.3431 -0.94392 0)
(22.3368 -0.95961 0)
(22.3305 -0.975389 0)
(22.3244 -0.991255 0)
(22.3184 -1.00721 0)
(22.3126 -1.02324 0)
(22.3069 -1.03935 0)
(22.3013 -1.05555 0)
(22.2958 -1.07182 0)
(22.2905 -1.08817 0)
(22.2853 -1.1046 0)
(22.2803 -1.1211 0)
(22.2754 -1.13767 0)
(22.2706 -1.1543 0)
(22.266 -1.17101 0)
(22.2615 -1.18778 0)
(22.2571 -1.20461 0)
(22.2529 -1.22151 0)
(22.2488 -1.23846 0)
(22.2449 -1.25547 0)
(22.2412 -1.27254 0)
(22.2375 -1.28966 0)
(22.2341 -1.30683 0)
(22.2307 -1.32405 0)
(22.2276 -1.34132 0)
(22.2246 -1.35863 0)
(22.2217 -1.37599 0)
(22.219 -1.39338 0)
(22.2164 -1.41082 0)
(22.214 -1.42829 0)
(22.2117 -1.44579 0)
(22.2096 -1.46333 0)
(22.2077 -1.48089 0)
(22.2059 -1.49849 0)
(22.2043 -1.5161 0)
(22.2028 -1.53375 0)
(22.2015 -1.55141 0)
(22.2003 -1.56909 0)
(22.1993 -1.58678 0)
(22.1985 -1.60449 0)
(22.1978 -1.62221 0)
(22.1973 -1.63994 0)
(22.1969 -1.65768 0)
(22.1967 -1.67542 0)
(22.1967 -1.69316 0)
(22.2963 -0.60983 1.62148e-30)
(22.2871 -0.625099 0)
(22.2778 -0.640569 0)
(22.2685 -0.656183 0)
(22.2593 -0.671927 0)
(22.2503 -0.687801 0)
(22.2414 -0.7038 0)
(22.2326 -0.719924 0)
(22.2239 -0.73617 0)
(22.2154 -0.752539 0)
(22.207 -0.769027 0)
(22.1987 -0.785633 0)
(22.1905 -0.802356 0)
(22.1825 -0.819193 0)
(22.1747 -0.836143 0)
(22.1669 -0.853204 0)
(22.1593 -0.870375 0)
(22.1519 -0.887652 0)
(22.1446 -0.905035 0)
(22.1375 -0.922522 0)
(22.1304 -0.940109 0)
(22.1236 -0.957797 0)
(22.1169 -0.975581 0)
(22.1103 -0.993461 0)
(22.104 -1.01143 0)
(22.0977 -1.0295 0)
(22.0916 -1.04765 0)
(22.0857 -1.06589 0)
(22.08 -1.08421 0)
(22.0744 -1.10262 0)
(22.0689 -1.12111 0)
(22.0637 -1.13967 0)
(22.0586 -1.15831 0)
(22.0537 -1.17702 0)
(22.0489 -1.1958 0)
(22.0443 -1.21465 0)
(22.0399 -1.23357 0)
(22.0357 -1.25255 0)
(22.0316 -1.27159 0)
(22.0277 -1.29069 0)
(22.024 -1.30984 0)
(22.0205 -1.32905 0)
(22.0171 -1.34831 0)
(22.0139 -1.36761 0)
(22.011 -1.38696 0)
(22.0081 -1.40636 0)
(22.0055 -1.42579 0)
(22.0031 -1.44527 0)
(22.0008 -1.46477 0)
(21.9987 -1.48431 0)
(21.9968 -1.50388 0)
(21.9951 -1.52348 0)
(21.9936 -1.5431 0)
(21.9923 -1.56274 0)
(21.9911 -1.5824 0)
(21.9902 -1.60208 0)
(21.9894 -1.62177 0)
(21.9888 -1.64146 0)
(21.9884 -1.66117 0)
(21.9882 -1.68088 0)
(21.9882 -1.70059 0)
(22.1371 -0.502923 0)
(22.1265 -0.519308 0)
(22.1157 -0.535927 0)
(22.1049 -0.552716 0)
(22.0943 -0.569662 0)
(22.0839 -0.586762 0)
(22.0735 -0.604012 0)
(22.0634 -0.621411 0)
(22.0533 -0.638958 0)
(22.0434 -0.65665 0)
(22.0337 -0.674486 0)
(22.0241 -0.692463 0)
(22.0146 -0.71058 0)
(22.0054 -0.728834 0)
(21.9962 -0.747224 0)
(21.9872 -0.765746 0)
(21.9784 -0.7844 0)
(21.9698 -0.803183 0)
(21.9613 -0.822093 0)
(21.953 -0.841127 0)
(21.9448 -0.860283 0)
(21.9369 -0.879558 0)
(21.9291 -0.898951 0)
(21.9214 -0.918459 0)
(21.914 -0.938079 0)
(21.9067 -0.957809 0)
(21.8997 -0.977646 0)
(21.8928 -0.997588 0)
(21.886 -1.01763 0)
(21.8795 -1.03778 0)
(21.8732 -1.05802 0)
(21.867 -1.07835 0)
(21.8611 -1.09878 0)
(21.8553 -1.1193 0)
(21.8498 -1.1399 0)
(21.8444 -1.16059 0)
(21.8392 -1.18135 0)
(21.8343 -1.2022 0)
(21.8295 -1.22311 0)
(21.8249 -1.24411 0)
(21.8206 -1.26517 0)
(21.8164 -1.28629 0)
(21.8125 -1.30748 0)
(21.8088 -1.32873 0)
(21.8052 -1.35004 0)
(21.8019 -1.3714 0)
(21.7988 -1.39281 0)
(21.7959 -1.41427 0)
(21.7932 -1.43577 0)
(21.7908 -1.45732 0)
(21.7885 -1.47891 0)
(21.7865 -1.50053 0)
(21.7847 -1.52218 0)
(21.7831 -1.54386 0)
(21.7817 -1.56556 0)
(21.7805 -1.58729 0)
(21.7796 -1.60904 0)
(21.7789 -1.6308 0)
(21.7784 -1.65258 0)
(21.7781 -1.67436 0)
(21.778 -1.69615 0)
(21.9733 -0.390707 1.88294e-30)
(21.9611 -0.40842 0)
(21.9487 -0.426401 0)
(21.9362 -0.444581 0)
(21.924 -0.462946 0)
(21.912 -0.481491 0)
(21.9001 -0.500213 0)
(21.8883 -0.519111 0)
(21.8768 -0.538183 0)
(21.8654 -0.557425 0)
(21.8541 -0.576836 0)
(21.8431 -0.596414 0)
(21.8322 -0.616155 0)
(21.8215 -0.636058 0)
(21.8109 -0.65612 0)
(21.8006 -0.676338 0)
(21.7904 -0.69671 0)
(21.7804 -0.717233 0)
(21.7706 -0.737904 0)
(21.7611 -0.758722 0)
(21.7517 -0.779682 0)
(21.7424 -0.800783 0)
(21.7334 -0.822021 0)
(21.7246 -0.843393 0)
(21.716 -0.864898 0)
(21.7077 -0.886531 0)
(21.6995 -0.90829 0)
(21.6915 -0.930172 0)
(21.6837 -0.952174 0)
(21.6762 -0.974293 0)
(21.6689 -0.996526 0)
(21.6618 -1.01887 0)
(21.6549 -1.04132 0)
(21.6482 -1.06388 0)
(21.6418 -1.08653 0)
(21.6356 -1.10929 0)
(21.6296 -1.13214 0)
(21.6238 -1.15508 0)
(21.6183 -1.17811 0)
(21.613 -1.20123 0)
(21.608 -1.22443 0)
(21.6032 -1.24771 0)
(21.5986 -1.27106 0)
(21.5942 -1.29448 0)
(21.5901 -1.31797 0)
(21.5863 -1.34153 0)
(21.5827 -1.36515 0)
(21.5793 -1.38883 0)
(21.5762 -1.41256 0)
(21.5733 -1.43634 0)
(21.5707 -1.46017 0)
(21.5683 -1.48404 0)
(21.5662 -1.50795 0)
(21.5643 -1.5319 0)
(21.5627 -1.55588 0)
(21.5613 -1.57989 0)
(21.5602 -1.60392 0)
(21.5594 -1.62797 0)
(21.5588 -1.65204 0)
(21.5584 -1.67613 0)
(21.5583 -1.70022 0)
(21.8123 -0.270058 -2.02854e-30)
(21.7983 -0.289041 0)
(21.7841 -0.30833 0)
(21.7699 -0.32785 0)
(21.756 -0.347586 0)
(21.7422 -0.367533 0)
(21.7287 -0.387687 0)
(21.7153 -0.408047 0)
(21.702 -0.428609 0)
(21.689 -0.449371 0)
(21.6762 -0.470329 0)
(21.6635 -0.491482 0)
(21.6511 -0.512825 0)
(21.6389 -0.534357 0)
(21.6268 -0.556074 0)
(21.615 -0.577973 0)
(21.6034 -0.600051 0)
(21.5919 -0.622306 0)
(21.5807 -0.644733 0)
(21.5698 -0.66733 0)
(21.559 -0.690093 0)
(21.5485 -0.71302 0)
(21.5382 -0.736106 0)
(21.5281 -0.75935 0)
(21.5182 -0.782747 0)
(21.5086 -0.806294 0)
(21.4992 -0.829988 0)
(21.4901 -0.853826 0)
(21.4812 -0.877803 0)
(21.4725 -0.901918 0)
(21.4641 -0.926165 0)
(21.456 -0.950543 0)
(21.4481 -0.975046 0)
(21.4404 -0.999673 0)
(21.433 -1.02442 0)
(21.4258 -1.04928 0)
(21.4189 -1.07426 0)
(21.4123 -1.09934 0)
(21.4059 -1.12453 0)
(21.3998 -1.14982 0)
(21.394 -1.1752 0)
(21.3884 -1.20069 0)
(21.3831 -1.22626 0)
(21.3781 -1.25192 0)
(21.3733 -1.27766 0)
(21.3688 -1.30348 0)
(21.3646 -1.32938 0)
(21.3607 -1.35535 0)
(21.3571 -1.38139 0)
(21.3537 -1.40749 0)
(21.3506 -1.43364 0)
(21.3478 -1.45986 0)
(21.3453 -1.48613 0)
(21.3431 -1.51244 0)
(21.3411 -1.5388 0)
(21.3395 -1.56519 0)
(21.3381 -1.59162 0)
(21.337 -1.61808 0)
(21.3363 -1.64457 0)
(21.3358 -1.67108 0)
(21.3356 -1.6976 0)
(21.6503 -0.143732 1.09256e-30)
(21.6344 -0.16413 0)
(21.6182 -0.184875 0)
(21.6022 -0.205885 0)
(21.5863 -0.227144 0)
(21.5707 -0.248647 0)
(21.5553 -0.270389 0)
(21.5401 -0.292368 0)
(21.5251 -0.314579 0)
(21.5104 -0.337021 0)
(21.4958 -0.359688 0)
(21.4814 -0.382578 0)
(21.4673 -0.405687 0)
(21.4534 -0.429012 0)
(21.4398 -0.452548 0)
(21.4263 -0.476293 0)
(21.4131 -0.500242 0)
(21.4002 -0.524392 0)
(21.3875 -0.548739 0)
(21.375 -0.573279 0)
(21.3628 -0.598009 0)
(21.3508 -0.622925 0)
(21.3391 -0.648023 0)
(21.3277 -0.673299 0)
(21.3165 -0.698749 0)
(21.3056 -0.72437 0)
(21.2949 -0.750158 0)
(21.2845 -0.77611 0)
(21.2744 -0.80222 0)
(21.2646 -0.828486 0)
(21.255 -0.854904 0)
(21.2457 -0.88147 0)
(21.2367 -0.90818 0)
(21.228 -0.93503 0)
(21.2195 -0.962017 0)
(21.2114 -0.989136 0)
(21.2035 -1.01639 0)
(21.196 -1.04376 0)
(21.1887 -1.07125 0)
(21.1817 -1.09887 0)
(21.175 -1.12659 0)
(21.1686 -1.15443 0)
(21.1625 -1.18237 0)
(21.1567 -1.21042 0)
(21.1513 -1.23856 0)
(21.1461 -1.26679 0)
(21.1412 -1.29512 0)
(21.1367 -1.32353 0)
(21.1324 -1.35203 0)
(21.1285 -1.3806 0)
(21.1249 -1.40924 0)
(21.1216 -1.43796 0)
(21.1187 -1.46673 0)
(21.116 -1.49557 0)
(21.1137 -1.52447 0)
(21.1117 -1.55341 0)
(21.1101 -1.58241 0)
(21.1088 -1.61144 0)
(21.1078 -1.64051 0)
(21.1071 -1.66962 0)
(21.1068 -1.69875 0)
(21.4905 -0.0106843 0)
(21.4725 -0.0325061 0)
(21.4543 -0.0547164 0)
(21.4363 -0.0772301 0)
(21.4184 -0.100029 0)
(21.4009 -0.123106 0)
(21.3835 -0.146457 0)
(21.3664 -0.170078 0)
(21.3495 -0.193964 0)
(21.3329 -0.218111 0)
(21.3165 -0.242515 0)
(21.3004 -0.267171 0)
(21.2845 -0.292075 0)
(21.2689 -0.317222 0)
(21.2535 -0.342609 0)
(21.2384 -0.36823 0)
(21.2236 -0.394081 0)
(21.209 -0.420158 0)
(21.1947 -0.446457 0)
(21.1807 -0.472972 0)
(21.167 -0.499699 0)
(21.1535 -0.526635 0)
(21.1403 -0.553774 0)
(21.1275 -0.581113 0)
(21.1149 -0.608646 0)
(21.1026 -0.63637 0)
(21.0906 -0.664281 0)
(21.0789 -0.692374 0)
(21.0675 -0.720645 0)
(21.0564 -0.74909 0)
(21.0457 -0.777705 0)
(21.0352 -0.806486 0)
(21.025 -0.835429 0)
(21.0152 -0.864529 0)
(21.0056 -0.893784 0)
(20.9964 -0.923188 0)
(20.9875 -0.952738 0)
(20.9789 -0.982431 0)
(20.9707 -1.01226 0)
(20.9627 -1.04223 0)
(20.9551 -1.07232 0)
(20.9478 -1.10255 0)
(20.9409 -1.13289 0)
(20.9343 -1.16335 0)
(20.928 -1.19393 0)
(20.9221 -1.22462 0)
(20.9165 -1.25542 0)
(20.9112 -1.28632 0)
(20.9063 -1.31732 0)
(20.9017 -1.34842 0)
(20.8975 -1.3796 0)
(20.8937 -1.41087 0)
(20.8902 -1.44223 0)
(20.887 -1.47366 0)
(20.8842 -1.50516 0)
(20.8818 -1.53674 0)
(20.8798 -1.56837 0)
(20.8781 -1.60007 0)
(20.8768 -1.63182 0)
(20.8758 -1.66362 0)
(20.8753 -1.69546 0)
(21.3314 0.127422 0)
(21.3111 0.10405 0)
(21.2908 0.0802454 0)
(21.2706 0.056097 0)
(21.2506 0.0316256 0)
(21.231 0.00683908 0)
(21.2116 -0.0182566 0)
(21.1925 -0.0436559 0)
(21.1736 -0.0693533 0)
(21.155 -0.0953432 0)
(21.1367 -0.12162 0)
(21.1187 -0.148179 0)
(21.101 -0.175013 0)
(21.0836 -0.202117 0)
(21.0664 -0.229486 0)
(21.0496 -0.257115 0)
(21.0331 -0.284996 0)
(21.0168 -0.313127 0)
(21.0009 -0.3415 0)
(20.9853 -0.37011 0)
(20.97 -0.398953 0)
(20.955 -0.428022 0)
(20.9404 -0.457314 0)
(20.926 -0.486823 0)
(20.912 -0.516543 0)
(20.8983 -0.546471 0)
(20.885 -0.576601 0)
(20.872 -0.606929 0)
(20.8593 -0.637451 0)
(20.8469 -0.668161 0)
(20.8349 -0.699056 0)
(20.8232 -0.730131 0)
(20.8118 -0.761382 0)
(20.8008 -0.792806 0)
(20.7902 -0.824397 0)
(20.7798 -0.856153 0)
(20.7699 -0.88807 0)
(20.7602 -0.920142 0)
(20.751 -0.952368 0)
(20.742 -0.984744 0)
(20.7335 -1.01726 0)
(20.7253 -1.04993 0)
(20.7174 -1.08273 0)
(20.7099 -1.11567 0)
(20.7028 -1.14874 0)
(20.696 -1.18193 0)
(20.6896 -1.21525 0)
(20.6836 -1.2487 0)
(20.6779 -1.28226 0)
(20.6727 -1.31593 0)
(20.6678 -1.34971 0)