/*--------------------------------*- C++ -*----------------------------------*\
  =========                 |
  \\      /  F ield         | OpenFOAM: The Open Source CFD Toolbox
   \\    /   O peration     | Website:  https://openfoam.org
    \\  /    A nd           | Version:  8
     \\/     M anipulation  |
\*---------------------------------------------------------------------------*/
FoamFile
{
    version     2.0;
    format      ascii;
    class       volScalarField;
    location    "0.2";
    object      p;
}
// * * * * * * * * * * * * * * * * * * * * * * * * * * * * * * * * * * * * * //

dimensions      [0 2 -2 0 0 0 0];

internalField   nonuniform List<scalar> 
248760
(
1.44248
1.44231
1.44184
1.44119
1.44039
1.43946
1.43843
1.43734
1.43621
1.43507
1.43393
1.43281
1.43169
1.43057
1.42945
1.42831
1.42715
1.42599
1.42483
1.42366
1.42251
1.42137
1.42025
1.41914
1.41806
1.417
1.41596
1.41495
1.41396
1.41299
1.41204
1.41111
1.41021
1.40933
1.40847
1.40763
1.40682
1.40602
1.40524
1.40447
1.40373
1.403
1.40229
1.40159
1.40091
1.40024
1.39959
1.39895
1.39834
1.39774
1.39716
1.39661
1.39607
1.39556
1.39508
1.39463
1.39422
1.39384
1.3935
1.39319
1.39291
1.39266
1.39243
1.39222
1.39202
1.39183
1.39164
1.39146
1.39127
1.39108
1.39088
1.39067
1.39045
1.39022
1.38998
1.38973
1.38948
1.38922
1.38895
1.38868
1.3884
1.38812
1.38782
1.38752
1.38722
1.3869
1.38657
1.38623
1.38588
1.38552
1.38513
1.38474
1.38432
1.38389
1.38343
1.38296
1.38247
1.38196
1.38143
1.38088
1.38032
1.37974
1.37913
1.37852
1.37789
1.37724
1.37658
1.37591
1.37522
1.37453
1.3738
1.37306
1.37228
1.37147
1.37063
1.36979
1.36896
1.36821
1.36762
1.3672
1.44251
1.44234
1.44188
1.44124
1.44044
1.43952
1.43851
1.43743
1.4363
1.43516
1.43402
1.43288
1.43175
1.43062
1.42948
1.42832
1.42716
1.42599
1.42482
1.42365
1.4225
1.42136
1.42024
1.41913
1.41805
1.41699
1.41595
1.41494
1.41395
1.41298
1.41203
1.4111
1.4102
1.40932
1.40846
1.40763
1.40681
1.40601
1.40523
1.40447
1.40372
1.40299
1.40227
1.40158
1.40089
1.40022
1.39957
1.39893
1.39831
1.39771
1.39712
1.39656
1.39602
1.3955
1.39501
1.39456
1.39414
1.39376
1.39341
1.3931
1.39282
1.39256
1.39233
1.39212
1.39192
1.39173
1.39154
1.39134
1.39115
1.39095
1.39073
1.39051
1.39028
1.39004
1.38979
1.38953
1.38926
1.38899
1.38871
1.38842
1.38813
1.38783
1.38753
1.38722
1.3869
1.38657
1.38623
1.38588
1.38551
1.38514
1.38474
1.38433
1.3839
1.38345
1.38298
1.38249
1.38198
1.38145
1.3809
1.38033
1.37973
1.37911
1.37847
1.37782
1.37714
1.37644
1.37572
1.37499
1.37422
1.37344
1.37261
1.37175
1.37084
1.36989
1.36888
1.36785
1.36681
1.36583
1.36494
1.36415
1.44255
1.44239
1.44193
1.4413
1.44051
1.4396
1.4386
1.43752
1.4364
1.43526
1.43411
1.43297
1.43183
1.43068
1.42953
1.42836
1.42719
1.42601
1.42484
1.42367
1.42251
1.42137
1.42025
1.41914
1.41806
1.417
1.41597
1.41495
1.41396
1.41299
1.41204
1.41112
1.41022
1.40934
1.40848
1.40764
1.40683
1.40603
1.40525
1.40448
1.40373
1.403
1.40229
1.40159
1.4009
1.40023
1.39957
1.39893
1.3983
1.39769
1.39709
1.39652
1.39597
1.39544
1.39494
1.39447
1.39404
1.39365
1.3933
1.39298
1.39269
1.39244
1.3922
1.39198
1.39177
1.39157
1.39137
1.39116
1.39095
1.39073
1.39049
1.39025
1.38999
1.38973
1.38945
1.38917
1.38888
1.38858
1.38827
1.38797
1.38765
1.38733
1.387
1.38667
1.38633
1.38598
1.38561
1.38524
1.38485
1.38445
1.38403
1.3836
1.38314
1.38268
1.38218
1.38168
1.38115
1.38061
1.38005
1.37947
1.37886
1.37825
1.37761
1.37696
1.37629
1.37561
1.3749
1.37418
1.37343
1.37267
1.37186
1.37104
1.37016
1.36926
1.36831
1.36734
1.36637
1.36543
1.36457
1.36378
1.44262
1.44246
1.44201
1.44138
1.4406
1.43969
1.43869
1.43762
1.43651
1.43537
1.43422
1.43307
1.43192
1.43076
1.4296
1.42842
1.42724
1.42606
1.42488
1.4237
1.42254
1.4214
1.42028
1.41917
1.41809
1.41703
1.416
1.41498
1.41399
1.41302
1.41208
1.41115
1.41025
1.40938
1.40852
1.40768
1.40686
1.40606
1.40528
1.40452
1.40377
1.40303
1.40232
1.40161
1.40092
1.40025
1.39958
1.39893
1.3983
1.39767
1.39707
1.39648
1.39591
1.39537
1.39485
1.39437
1.39393
1.39352
1.39315
1.39282
1.39252
1.39225
1.392
1.39177
1.39155
1.39133
1.3911
1.39088
1.39064
1.39039
1.39013
1.38986
1.38957
1.38927
1.38897
1.38865
1.38832
1.38799
1.38766
1.38732
1.38697
1.38662
1.38626
1.38589
1.38552
1.38513
1.38474
1.38433
1.38391
1.38348
1.38303
1.38256
1.38208
1.38158
1.38106
1.38052
1.37996
1.37938
1.37878
1.37816
1.37752
1.37685
1.37617
1.37547
1.37475
1.374
1.37324
1.37246
1.37167
1.37085
1.37002
1.36916
1.36829
1.36738
1.36645
1.3655
1.36456
1.36364
1.3628
1.36201
1.4427
1.44255
1.4421
1.44147
1.4407
1.4398
1.4388
1.43774
1.43662
1.43548
1.43433
1.43318
1.43202
1.43085
1.42968
1.4285
1.42731
1.42612
1.42493
1.42376
1.4226
1.42145
1.42033
1.41922
1.41814
1.41708
1.41605
1.41504
1.41404
1.41308
1.41213
1.41121
1.41031
1.40943
1.40857
1.40773
1.40692
1.40611
1.40533
1.40456
1.40381
1.40307
1.40235
1.40165
1.40095
1.40027
1.3996
1.39895
1.3983
1.39766
1.39704
1.39644
1.39585
1.39529
1.39475
1.39425
1.39379
1.39336
1.39297
1.39262
1.3923
1.39201
1.39174
1.39149
1.39125
1.391
1.39076
1.3905
1.39024
1.38996
1.38967
1.38936
1.38904
1.3887
1.38836
1.388
1.38764
1.38727
1.3869
1.38652
1.38614
1.38575
1.38536
1.38495
1.38454
1.38412
1.38369
1.38325
1.3828
1.38233
1.38185
1.38135
1.38084
1.38031
1.37976
1.37919
1.37861
1.37801
1.3774
1.37677
1.37612
1.37545
1.37477
1.37408
1.37337
1.37266
1.37193
1.3712
1.37047
1.36972
1.36897
1.36821
1.36745
1.36665
1.36585
1.36502
1.3642
1.3634
1.36269
1.36206
1.4428
1.44265
1.44221
1.44158
1.44081
1.43991
1.43892
1.43786
1.43675
1.43561
1.43446
1.4333
1.43214
1.43097
1.42978
1.42859
1.4274
1.4262
1.42501
1.42383
1.42267
1.42152
1.4204
1.41929
1.41821
1.41715
1.41612
1.4151
1.41411
1.41315
1.4122
1.41128
1.41038
1.4095
1.40864
1.4078
1.40698
1.40618
1.40539
1.40462
1.40386
1.40312
1.4024
1.40169
1.40099
1.4003
1.39962
1.39896
1.3983
1.39765
1.39702
1.3964
1.39579
1.3952
1.39465
1.39412
1.39362
1.39317
1.39276
1.39238
1.39204
1.39172
1.39143
1.39115
1.39088
1.39061
1.39034
1.39005
1.38976
1.38944
1.38911
1.38877
1.38841
1.38804
1.38765
1.38726
1.38686
1.38645
1.38604
1.38562
1.3852
1.38477
1.38434
1.3839
1.38345
1.383
1.38253
1.38205
1.38156
1.38106
1.38054
1.38001
1.37946
1.3789
1.37832
1.37772
1.37711
1.37648
1.37584
1.37517
1.37449
1.37379
1.37308
1.37235
1.37162
1.37086
1.37009
1.36931
1.36853
1.36772
1.36691
1.36607
1.36522
1.36433
1.36342
1.36249
1.36157
1.36068
1.35988
1.35914
1.44291
1.44276
1.44232
1.4417
1.44093
1.44003
1.43905
1.43799
1.43688
1.43575
1.4346
1.43344
1.43227
1.43109
1.4299
1.4287
1.4275
1.4263
1.42511
1.42393
1.42276
1.42161
1.42049
1.41938
1.4183
1.41724
1.4162
1.41519
1.4142
1.41323
1.41229
1.41137
1.41046
1.40958
1.40872
1.40788
1.40706
1.40625
1.40546
1.40468
1.40392
1.40318
1.40245
1.40173
1.40102
1.40033
1.39964
1.39897
1.3983
1.39764
1.39699
1.39635
1.39572
1.39511
1.39452
1.39397
1.39344
1.39296
1.39251
1.3921
1.39173
1.39138
1.39106
1.39075
1.39045
1.39016
1.38985
1.38953
1.3892
1.38885
1.38849
1.38811
1.38771
1.3873
1.38688
1.38644
1.386
1.38556
1.3851
1.38465
1.38419
1.38372
1.38325
1.38277
1.38228
1.38179
1.38128
1.38076
1.38024
1.3797
1.37914
1.37858
1.37799
1.3774
1.37679
1.37616
1.37552
1.37486
1.37418
1.3735
1.37279
1.37207
1.37133
1.37058
1.36981
1.36902
1.36822
1.36741
1.36657
1.36572
1.36485
1.36396
1.36305
1.36212
1.36117
1.36023
1.3593
1.35844
1.35767
1.35699
1.44303
1.44289
1.44245
1.44183
1.44105
1.44016
1.43918
1.43812
1.43702
1.43589
1.43474
1.43358
1.43241
1.43123
1.43003
1.42883
1.42762
1.42641
1.42522
1.42403
1.42287
1.42172
1.42059
1.41949
1.4184
1.41734
1.41631
1.41529
1.4143
1.41333
1.41239
1.41146
1.41056
1.40968
1.40882
1.40797
1.40714
1.40633
1.40553
1.40475
1.40398
1.40323
1.40249
1.40177
1.40106
1.40035
1.39966
1.39898
1.3983
1.39762
1.39695
1.39629
1.39564
1.395
1.39439
1.3938
1.39324
1.39272
1.39224
1.39179
1.39138
1.39101
1.39065
1.39031
1.38998
1.38965
1.38931
1.38896
1.38859
1.38821
1.38781
1.38739
1.38696
1.38651
1.38604
1.38557
1.38509
1.38461
1.38411
1.38362
1.38311
1.38261
1.38209
1.38157
1.38104
1.38051
1.37996
1.3794
1.37883
1.37825
1.37765
1.37704
1.37642
1.37578
1.37513
1.37446
1.37377
1.37307
1.37235
1.37161
1.37085
1.37008
1.36929
1.36847
1.36764
1.36678
1.3659
1.36498
1.36404
1.36306
1.36205
1.36099
1.3599
1.35877
1.3576
1.35643
1.35523
1.35408
1.35297
1.35189
1.44316
1.44302
1.44258
1.44196
1.44119
1.4403
1.43931
1.43827
1.43717
1.43604
1.4349
1.43374
1.43256
1.43137
1.43017
1.42896
1.42775
1.42654
1.42534
1.42416
1.42299
1.42184
1.42071
1.4196
1.41852
1.41746
1.41642
1.41541
1.41441
1.41344
1.4125
1.41157
1.41067
1.40978
1.40891
1.40806
1.40723
1.40641
1.40561
1.40482
1.40405
1.40329
1.40254
1.40181
1.40109
1.40038
1.39967
1.39898
1.39828
1.39759
1.39691
1.39622
1.39555
1.39488
1.39424
1.39361
1.39302
1.39246
1.39193
1.39145
1.391
1.39059
1.3902
1.38982
1.38946
1.38909
1.38872
1.38834
1.38794
1.38752
1.38709
1.38663
1.38616
1.38567
1.38517
1.38465
1.38413
1.38361
1.38307
1.38253
1.38199
1.38144
1.38088
1.38031
1.37974
1.37916
1.37856
1.37796
1.37734
1.37671
1.37607
1.37541
1.37474
1.37405
1.37334
1.37262
1.37188
1.37113
1.37035
1.36956
1.36875
1.36791
1.36706
1.36617
1.36527
1.36434
1.36338
1.36238
1.36136
1.36028
1.35918
1.35801
1.35683
1.35557
1.35432
1.353
1.35173
1.35041
1.34919
1.34787
1.44331
1.44316
1.44272
1.4421
1.44132
1.44043
1.43946
1.43841
1.43732
1.4362
1.43506
1.4339
1.43272
1.43152
1.43032
1.4291
1.42789
1.42668
1.42547
1.42429
1.42312
1.42197
1.42084
1.41973
1.41865
1.41759
1.41655
1.41553
1.41454
1.41356
1.41262
1.41169
1.41078
1.40989
1.40902
1.40816
1.40732
1.4065
1.40569
1.40489
1.40411
1.40334
1.40259
1.40184
1.40111
1.40039
1.39968
1.39897
1.39826
1.39755
1.39685
1.39614
1.39544
1.39475
1.39407
1.39341
1.39277
1.39217
1.39161
1.39108
1.39059
1.39014
1.38971
1.3893
1.3889
1.3885
1.38809
1.38767
1.38724
1.38679
1.38632
1.38582
1.38531
1.38478
1.38424
1.38369
1.38313
1.38255
1.38198
1.38139
1.3808
1.3802
1.37959
1.37898
1.37836
1.37772
1.37708
1.37642
1.37575
1.37506
1.37436
1.37364
1.37291
1.37216
1.37139
1.3706
1.36979
1.36896
1.36811
1.36724
1.36635
1.36543
1.36449
1.36352
1.36252
1.36149
1.36042
1.35932
1.35816
1.35697
1.35571
1.35442
1.35304
1.35162
1.35013
1.34862
1.34705
1.34554
1.34402
1.34248
1.44346
1.44332
1.44287
1.44224
1.44147
1.44058
1.4396
1.43857
1.43748
1.43637
1.43523
1.43407
1.43288
1.43168
1.43047
1.42925
1.42803
1.42682
1.42562
1.42443
1.42326
1.42211
1.42098
1.41987
1.41878
1.41772
1.41668
1.41566
1.41467
1.41369
1.41274
1.41181
1.4109
1.41
1.40913
1.40826
1.40742
1.40658
1.40577
1.40496
1.40417
1.40339
1.40263
1.40187
1.40113
1.4004
1.39967
1.39895
1.39823
1.3975
1.39678
1.39605
1.39532
1.3946
1.39389
1.39319
1.39251
1.39187
1.39126
1.39069
1.39016
1.38966
1.38919
1.38874
1.3883
1.38786
1.38742
1.38697
1.3865
1.38601
1.3855
1.38497
1.38442
1.38385
1.38327
1.38267
1.38206
1.38145
1.38082
1.38019
1.37954
1.37889
1.37824
1.37757
1.37689
1.3762
1.37549
1.37477
1.37404
1.37329
1.37253
1.37174
1.37094
1.37012
1.36927
1.36841
1.36752
1.36661
1.36568
1.36473
1.36375
1.36275
1.36171
1.36066
1.35956
1.35843
1.35725
1.35606
1.35478
1.35348
1.35209
1.35067
1.34914
1.3476
1.34594
1.3443
1.34258
1.34095
1.33928
1.33766
1.44362
1.44348
1.44303
1.4424
1.44162
1.44073
1.43975
1.43872
1.43765
1.43654
1.4354
1.43424
1.43305
1.43185
1.43063
1.4294
1.42818
1.42697
1.42576
1.42458
1.42341
1.42226
1.42113
1.42002
1.41893
1.41786
1.41682
1.4158
1.4148
1.41383
1.41287
1.41194
1.41102
1.41012
1.40924
1.40837
1.40751
1.40667
1.40584
1.40503
1.40423
1.40344
1.40266
1.4019
1.40114
1.4004
1.39965
1.39892
1.39818
1.39744
1.39669
1.39594
1.39519
1.39444
1.39369
1.39295
1.39223
1.39154
1.39089
1.39027
1.38969
1.38915
1.38863
1.38814
1.38766
1.38718
1.38671
1.38622
1.38571
1.38519
1.38464
1.38407
1.38348
1.38287
1.38224
1.3816
1.38094
1.38028
1.3796
1.37891
1.37822
1.37751
1.37679
1.37607
1.37532
1.37457
1.3738
1.37301
1.37221
1.37139
1.37055
1.36969
1.36881
1.3679
1.36698
1.36603
1.36505
1.36406
1.36303
1.36199
1.36092
1.35982
1.35869
1.35755
1.35636
1.35515
1.3539
1.35262
1.35129
1.34993
1.34849
1.34704
1.3455
1.34396
1.34233
1.34073
1.33909
1.33756
1.33603
1.33458
1.4438
1.44365
1.44319
1.44255
1.44177
1.44088
1.43991
1.43888
1.43781
1.43671
1.43557
1.43441
1.43322
1.43201
1.43079
1.42956
1.42834
1.42712
1.42592
1.42473
1.42356
1.42241
1.42128
1.42017
1.41908
1.41801
1.41697
1.41594
1.41494
1.41397
1.41301
1.41207
1.41114
1.41024
1.40935
1.40847
1.4076
1.40675
1.40591
1.40509
1.40428
1.40348
1.40269
1.40191
1.40114
1.40038
1.39962
1.39887
1.39812
1.39736
1.39659
1.39582
1.39504
1.39425
1.39347
1.39269
1.39193
1.3912
1.39049
1.38983
1.3892
1.38861
1.38804
1.38751
1.38698
1.38647
1.38595
1.38542
1.38488
1.38431
1.38373
1.38311
1.38248
1.38183
1.38115
1.38046
1.37976
1.37904
1.37831
1.37756
1.37681
1.37604
1.37526
1.37447
1.37366
1.37283
1.37199
1.37113
1.37025
1.36935
1.36843
1.36748
1.36651
1.36552
1.3645
1.36346
1.36239
1.36129
1.36017
1.35903
1.35786
1.35666
1.35544
1.35421
1.35294
1.35165
1.35034
1.34901
1.34764
1.34625
1.34481
1.34336
1.34184
1.34031
1.3387
1.33711
1.33544
1.3339
1.33235
1.33098
1.44397
1.44382
1.44336
1.44271
1.44192
1.44103
1.44007
1.43904
1.43798
1.43688
1.43575
1.43458
1.43339
1.43217
1.43095
1.42972
1.42849
1.42728
1.42607
1.42489
1.42372
1.42257
1.42144
1.42032
1.41923
1.41817
1.41712
1.41609
1.41509
1.41411
1.41314
1.4122
1.41127
1.41036
1.40945
1.40857
1.40769
1.40683
1.40598
1.40515
1.40432
1.40351
1.40271
1.40191
1.40113
1.40035
1.39958
1.39881
1.39804
1.39726
1.39647
1.39567
1.39486
1.39405
1.39323
1.39242
1.39161
1.39083
1.39008
1.38936
1.38868
1.38803
1.38742
1.38684
1.38627
1.38571
1.38515
1.38458
1.38399
1.38339
1.38276
1.3821
1.38142
1.38072
1.38
1.37926
1.3785
1.37772
1.37693
1.37613
1.37531
1.37448
1.37363
1.37277
1.37189
1.37099
1.37007
1.36913
1.36817
1.36718
1.36617
1.36513
1.36406
1.36297
1.36185
1.3607
1.35952
1.35832
1.35708
1.35582
1.35454
1.35323
1.35189
1.35055
1.34917
1.34779
1.34637
1.34497
1.34351
1.34208
1.3406
1.33915
1.33762
1.33614
1.33457
1.33307
1.33152
1.33013
1.32876
1.32761
1.44416
1.444
1.44353
1.44287
1.44208
1.44119
1.44022
1.43921
1.43815
1.43705
1.43592
1.43475
1.43355
1.43234
1.43111
1.42988
1.42865
1.42743
1.42623
1.42505
1.42388
1.42273
1.4216
1.42048
1.41939
1.41832
1.41727
1.41625
1.41524
1.41425
1.41328
1.41233
1.41139
1.41047
1.40956
1.40867
1.40778
1.40691
1.40605
1.4052
1.40436
1.40353
1.40271
1.4019
1.4011
1.40031
1.39952
1.39873
1.39793
1.39713
1.39632
1.3955
1.39467
1.39382
1.39297
1.39211
1.39127
1.39044
1.38964
1.38886
1.38813
1.38743
1.38677
1.38613
1.38552
1.38491
1.3843
1.38369
1.38306
1.38241
1.38173
1.38103
1.38031
1.37955
1.37878
1.37798
1.37717
1.37634
1.37549
1.37462
1.37373
1.37283
1.37192
1.37098
1.37002
1.36904
1.36804
1.36701
1.36596
1.36488
1.36377
1.36263
1.36147
1.36027
1.35904
1.35778
1.35649
1.35517
1.35381
1.35244
1.35103
1.3496
1.34814
1.34668
1.34517
1.34367
1.34212
1.34061
1.33903
1.3375
1.33589
1.33435
1.3327
1.33114
1.32945
1.32788
1.32621
1.32475
1.32327
1.32204
1.44435
1.44419
1.44371
1.44304
1.44224
1.44134
1.44038
1.43937
1.43832
1.43723
1.43609
1.43492
1.43372
1.4325
1.43126
1.43003
1.42881
1.42759
1.42639
1.42521
1.42404
1.42289
1.42176
1.42065
1.41955
1.41848
1.41743
1.4164
1.41539
1.4144
1.41342
1.41246
1.41152
1.41059
1.40967
1.40876
1.40786
1.40698
1.4061
1.40524
1.40438
1.40354
1.4027
1.40188
1.40106
1.40025
1.39944
1.39862
1.39781
1.39699
1.39615
1.3953
1.39444
1.39357
1.39268
1.39179
1.3909
1.39002
1.38917
1.38834
1.38755
1.3868
1.38608
1.38539
1.38472
1.38406
1.38341
1.38275
1.38207
1.38137
1.38065
1.3799
1.37913
1.37832
1.3775
1.37664
1.37577
1.37488
1.37396
1.37303
1.37207
1.3711
1.37011
1.36909
1.36805
1.36699
1.3659
1.36478
1.36364
1.36246
1.36125
1.36001
1.35874
1.35743
1.35609
1.35471
1.3533
1.35186
1.35038
1.34887
1.34733
1.34576
1.34417
1.34254
1.3409
1.33922
1.33754
1.33581
1.33409
1.33231
1.33053
1.32868
1.32684
1.3249
1.32297
1.32097
1.31903
1.31704
1.31527
1.3134
1.44455
1.44438
1.44389
1.44321
1.4424
1.4415
1.44055
1.43954
1.43849
1.4374
1.43626
1.43508
1.43388
1.43265
1.43142
1.43019
1.42896
1.42775
1.42655
1.42537
1.42421
1.42306
1.42193
1.42081
1.41972
1.41864
1.41759
1.41655
1.41554
1.41454
1.41356
1.41259
1.41164
1.4107
1.40977
1.40885
1.40794
1.40704
1.40615
1.40527
1.4044
1.40354
1.40268
1.40184
1.401
1.40016
1.39933
1.3985
1.39766
1.39681
1.39595
1.39508
1.39419
1.39328
1.39236
1.39143
1.3905
1.38957
1.38867
1.38779
1.38694
1.38613
1.38536
1.38461
1.38389
1.38318
1.38247
1.38176
1.38103
1.38028
1.37951
1.37872
1.37789
1.37703
1.37615
1.37524
1.37431
1.37335
1.37237
1.37137
1.37034
1.36929
1.36822
1.36713
1.366
1.36485
1.36368
1.36247
1.36122
1.35995
1.35864
1.35729
1.35591
1.35449
1.35304
1.35154
1.35002
1.34845
1.34685
1.34521
1.34355
1.34185
1.34012
1.33836
1.33658
1.33477
1.33293
1.33106
1.32917
1.32723
1.32526
1.32324
1.32117
1.31906
1.31689
1.31472
1.31253
1.31045
1.30846
1.30655
1.44476
1.44458
1.44407
1.44338
1.44256
1.44166
1.44071
1.4397
1.43866
1.43756
1.43642
1.43524
1.43403
1.4328
1.43157
1.43034
1.42912
1.42791
1.42671
1.42553
1.42437
1.42322
1.42209
1.42098
1.41988
1.4188
1.41775
1.41671
1.41569
1.41468
1.4137
1.41272
1.41176
1.4108
1.40986
1.40893
1.408
1.40709
1.40618
1.40528
1.4044
1.40352
1.40265
1.40178
1.40092
1.40006
1.3992
1.39834
1.39748
1.39661
1.39572
1.39482
1.3939
1.39296
1.392
1.39104
1.39006
1.38909
1.38814
1.3872
1.3863
1.38543
1.3846
1.38379
1.38301
1.38225
1.38149
1.38072
1.37995
1.37915
1.37833
1.37748
1.3766
1.37569
1.37475
1.37378
1.37278
1.37176
1.37071
1.36964
1.36854
1.36742
1.36627
1.36509
1.36389
1.36265
1.36138
1.36008
1.35874
1.35737
1.35595
1.3545
1.35302
1.35149
1.34992
1.34831
1.34666
1.34498
1.34325
1.34149
1.3397
1.33787
1.336
1.33411
1.33218
1.33021
1.32821
1.32618
1.32409
1.32197
1.31978
1.31754
1.3152
1.31283
1.31035
1.30787
1.30534
1.30292
1.30055
1.29825
1.44497
1.44478
1.44426
1.44355
1.44272
1.44182
1.44087
1.43987
1.43882
1.43772
1.43658
1.43539
1.43418
1.43295
1.43172
1.43049
1.42927
1.42807
1.42687
1.4257
1.42454
1.42339
1.42226
1.42114
1.42004
1.41896
1.4179
1.41686
1.41583
1.41482
1.41383
1.41284
1.41187
1.4109
1.40994
1.409
1.40806
1.40713
1.4062
1.40529
1.40438
1.40348
1.40259
1.4017
1.40082
1.39993
1.39905
1.39817
1.39727
1.39637
1.39546
1.39453
1.39357
1.3926
1.39161
1.39061
1.38959
1.38857
1.38757
1.38658
1.38562
1.38469
1.3838
1.38294
1.3821
1.38128
1.38046
1.37965
1.37882
1.37797
1.3771
1.37619
1.37526
1.37429
1.3733
1.37227
1.37121
1.37012
1.36901
1.36787
1.3667
1.3655
1.36427
1.36301
1.36172
1.36039
1.35904
1.35764
1.35621
1.35473
1.35322
1.35167
1.35008
1.34844
1.34677
1.34505
1.34329
1.34149
1.33965
1.33778
1.33587
1.33392
1.33194
1.32993
1.32789
1.32581
1.32369
1.32154
1.31935
1.31711
1.31482
1.31246
1.31005
1.30756
1.30504
1.30247
1.29994
1.29745
1.29515
1.29284
1.44518
1.44498
1.44445
1.44372
1.44289
1.44198
1.44103
1.44002
1.43897
1.43787
1.43673
1.43554
1.43432
1.43309
1.43186
1.43064
1.42942
1.42822
1.42703
1.42586
1.4247
1.42355
1.42242
1.4213
1.4202
1.41912
1.41806
1.41701
1.41598
1.41496
1.41395
1.41296
1.41197
1.41099
1.41002
1.40906
1.4081
1.40716
1.40621
1.40528
1.40435
1.40343
1.40251
1.4016
1.40069
1.39978
1.39887
1.39796
1.39704
1.3961
1.39516
1.39419
1.39321
1.39221
1.39118
1.39014
1.38908
1.38802
1.38696
1.38592
1.38491
1.38392
1.38297
1.38205
1.38115
1.38027
1.3794
1.37853
1.37765
1.37675
1.37582
1.37486
1.37388
1.37286
1.3718
1.37071
1.36959
1.36844
1.36726
1.36605
1.36481
1.36353
1.36223
1.36089
1.35951
1.3581
1.35666
1.35517
1.35365
1.35208
1.35047
1.34882
1.34713
1.34539
1.34361
1.34179
1.33992
1.33802
1.33608
1.33409
1.33207
1.33001
1.32792
1.32579
1.32364
1.32144
1.31921
1.31693
1.31462
1.31224
1.30982
1.30732
1.30478
1.30214
1.29947
1.29675
1.29407
1.29143
1.289
1.28654
1.4454
1.44519
1.44464
1.4439
1.44305
1.44214
1.44118
1.44018
1.43912
1.43802
1.43687
1.43568
1.43446
1.43323
1.432
1.43078
1.42957
1.42838
1.42719
1.42602
1.42486
1.42372
1.42258
1.42147
1.42036
1.41928
1.41821
1.41716
1.41612
1.41509
1.41407
1.41306
1.41206
1.41107
1.41009
1.40911
1.40814
1.40717
1.40621
1.40525
1.4043
1.40336
1.40242
1.40148
1.40054
1.3996
1.39866
1.39772
1.39677
1.3958
1.39482
1.39383
1.39281
1.39177
1.39071
1.38963
1.38853
1.38742
1.38632
1.38523
1.38416
1.38311
1.3821
1.38112
1.38016
1.37923
1.3783
1.37737
1.37644
1.37548
1.37451
1.3735
1.37246
1.37138
1.37027
1.36912
1.36794
1.36672
1.36548
1.36419
1.36288
1.36153
1.36015
1.35874
1.35729
1.35579
1.35427
1.35269
1.35108
1.34943
1.34773
1.34598
1.3442
1.34236
1.34049
1.33857
1.33661
1.33461
1.33257
1.33049
1.32837
1.32622
1.32404
1.32182
1.31957
1.31728
1.31497
1.31261
1.31023
1.30778
1.30531
1.30275
1.30017
1.29748
1.29478
1.29203
1.28934
1.28669
1.28427
1.28184
1.44561
1.4454
1.44483
1.44407
1.44321
1.44229
1.44133
1.44032
1.43926
1.43815
1.437
1.43581
1.43459
1.43336
1.43214
1.43092
1.42972
1.42853
1.42735
1.42618
1.42503
1.42388
1.42274
1.42162
1.42052
1.41943
1.41836
1.4173
1.41625
1.41521
1.41418
1.41316
1.41215
1.41114
1.41014
1.40914
1.40815
1.40717
1.40619
1.40521
1.40424
1.40327
1.4023
1.40133
1.40037
1.3994
1.39843
1.39745
1.39646
1.39546
1.39445
1.39342
1.39237
1.39129
1.39019
1.38907
1.38794
1.38679
1.38564
1.3845
1.38337
1.38227
1.3812
1.38016
1.37915
1.37815
1.37717
1.37619
1.3752
1.37419
1.37316
1.37209
1.371
1.36987
1.3687
1.36749
1.36625
1.36497
1.36366
1.36231
1.36093
1.35952
1.35806
1.35657
1.35505
1.35348
1.35187
1.35022
1.34852
1.34679
1.345
1.34318
1.3413
1.33938
1.33742
1.33541
1.33336
1.33127
1.32913
1.32696
1.32475
1.32251
1.32023
1.31793
1.31558
1.31321
1.31081
1.30838
1.3059
1.3034
1.30083
1.29822
1.29554
1.29282
1.29003
1.28724
1.28444
1.28178
1.27926
1.27683
1.44584
1.44561
1.44502
1.44425
1.44337
1.44244
1.44147
1.44046
1.43939
1.43828
1.43712
1.43593
1.43471
1.43349
1.43227
1.43106
1.42986
1.42868
1.4275
1.42634
1.42518
1.42404
1.4229
1.42178
1.42067
1.41958
1.4185
1.41743
1.41637
1.41533
1.41429
1.41325
1.41222
1.4112
1.41018
1.40917
1.40816
1.40715
1.40615
1.40515
1.40415
1.40315
1.40216
1.40116
1.40017
1.39917
1.39816
1.39715
1.39613
1.39509
1.39404
1.39298
1.39189
1.39078
1.38964
1.38848
1.38731
1.38612
1.38492
1.38373
1.38255
1.3814
1.38027
1.37917
1.3781
1.37705
1.37601
1.37497
1.37393
1.37286
1.37178
1.37066
1.36952
1.36833
1.3671
1.36584
1.36454
1.3632
1.36183
1.36042
1.35897
1.35749
1.35596
1.3544
1.3528
1.35117
1.34948
1.34776
1.34599
1.34418
1.34232
1.34041
1.33846
1.33646
1.33442
1.33233
1.3302
1.32803
1.32582
1.32357
1.32128
1.31896
1.3166
1.31422
1.3118
1.30936
1.30689
1.30439
1.30185
1.29929
1.29667
1.29401
1.29128
1.28851
1.28566
1.28282
1.27998
1.27727
1.27472
1.27229
1.44606
1.44582
1.44521
1.44442
1.44353
1.44259
1.44161
1.44058
1.43952
1.4384
1.43724
1.43604
1.43483
1.43361
1.4324
1.4312
1.43001
1.42883
1.42766
1.42649
1.42534
1.42419
1.42305
1.42193
1.42081
1.41972
1.41863
1.41755
1.41649
1.41543
1.41438
1.41333
1.41228
1.41124
1.4102
1.40917
1.40814
1.40711
1.40609
1.40506
1.40404
1.40302
1.40199
1.40097
1.39994
1.39891
1.39787
1.39682
1.39576
1.39469
1.3936
1.3925
1.39137
1.39022
1.38905
1.38786
1.38664
1.38541
1.38417
1.38294
1.38171
1.3805
1.37932
1.37816
1.37703
1.37592
1.37483
1.37373
1.37263
1.37152
1.37038
1.36922
1.36801
1.36677
1.36549
1.36417
1.36282
1.36142
1.35998
1.35851
1.357
1.35545
1.35387
1.35224
1.35058
1.34887
1.34712
1.34533
1.34349
1.34161
1.33969
1.33772
1.33569
1.33363
1.33152
1.32937
1.32716
1.32493
1.32264
1.32033
1.31797
1.31558
1.31315
1.3107
1.30821
1.3057
1.30315
1.30059
1.29797
1.29535
1.29265
1.28993
1.28713
1.28431
1.28141
1.27853
1.27566
1.27295
1.27041
1.26803
1.44628
1.44603
1.4454
1.44459
1.44368
1.44272
1.44173
1.4407
1.43963
1.4385
1.43734
1.43615
1.43494
1.43373
1.43253
1.43133
1.43015
1.42897
1.4278
1.42664
1.42549
1.42434
1.4232
1.42207
1.42095
1.41985
1.41875
1.41767
1.41659
1.41552
1.41445
1.41339
1.41233
1.41127
1.41021
1.40916
1.40811
1.40706
1.40601
1.40496
1.40391
1.40286
1.4018
1.40075
1.39968
1.39862
1.39754
1.39646
1.39536
1.39425
1.39312
1.39198
1.39082
1.38963
1.38842
1.38719
1.38594
1.38468
1.3834
1.38212
1.38084
1.37958
1.37834
1.37713
1.37595
1.37478
1.37363
1.37248
1.37133
1.37016
1.36897
1.36775
1.3665
1.36521
1.36387
1.3625
1.36109
1.35963
1.35814
1.35661
1.35504
1.35343
1.35179
1.3501
1.34837
1.34661
1.3448
1.34294
1.34105
1.33911
1.33712
1.33509
1.33301
1.33089
1.32872
1.32651
1.32426
1.32196
1.31962
1.31725
1.31484
1.31239
1.30991
1.30739
1.30485
1.30228
1.29969
1.29706
1.29441
1.29171
1.28899
1.28621
1.28339
1.28051
1.27761
1.2747
1.27186
1.26914
1.26668
1.26434
1.4465
1.44624
1.44559
1.44475
1.44382
1.44285
1.44184
1.4408
1.43972
1.4386
1.43744
1.43625
1.43505
1.43384
1.43265
1.43146
1.43028
1.42911
1.42795
1.42679
1.42563
1.42448
1.42334
1.4222
1.42108
1.41997
1.41887
1.41777
1.41668
1.4156
1.41452
1.41344
1.41236
1.41128
1.4102
1.40913
1.40805
1.40698
1.4059
1.40483
1.40375
1.40267
1.40159
1.4005
1.3994
1.3983
1.39718
1.39606
1.39493
1.39378
1.39262
1.39143
1.39023
1.38901
1.38776
1.3865
1.38521
1.38391
1.38259
1.38127
1.37995
1.37864
1.37736
1.37609
1.37485
1.37363
1.37243
1.37122
1.37002
1.3688
1.36756
1.36629
1.36498
1.36364
1.36226
1.36083
1.35936
1.35786
1.35631
1.35472
1.3531
1.35143
1.34973
1.34799
1.34621
1.34438
1.34252
1.34061
1.33867
1.33667
1.33464
1.33255
1.33043
1.32826
1.32605
1.32379
1.3215
1.31916
1.31678
1.31437
1.31192
1.30943
1.30692
1.30437
1.3018
1.29919
1.29657
1.29391
1.29124
1.28852
1.28578
1.28299
1.28016
1.27729
1.2744
1.27151
1.2687
1.26605
1.26369
1.26153
1.44672
1.44645
1.44577
1.4449
1.44395
1.44296
1.44194
1.4409
1.43981
1.43868
1.43752
1.43634
1.43515
1.43395
1.43277
1.43159
1.43041
1.42925
1.42809
1.42692
1.42577
1.42461
1.42347
1.42233
1.4212
1.42008
1.41897
1.41786
1.41676
1.41566
1.41456
1.41347
1.41237
1.41127
1.41017
1.40908
1.40798
1.40688
1.40578
1.40468
1.40357
1.40246
1.40134
1.40022
1.39909
1.39795
1.3968
1.39564
1.39446
1.39327
1.39207
1.39085
1.38961
1.38835
1.38707
1.38577
1.38445
1.38312
1.38176
1.3804
1.37904
1.37769
1.37636
1.37504
1.37375
1.37247
1.37121
1.36996
1.3687
1.36743
1.36614
1.36482
1.36347
1.36207
1.36064
1.35917
1.35765
1.35609
1.3545
1.35286
1.35118
1.34947
1.34771
1.34592
1.34409
1.34222
1.3403
1.33835
1.33635
1.33432
1.33224
1.33011
1.32795
1.32574
1.32349
1.32121
1.31888
1.31651
1.31411
1.31167
1.3092
1.3067
1.30416
1.30161
1.29902
1.29641
1.29377
1.29112
1.28843
1.28573
1.283
1.28024
1.27744
1.27462
1.27178
1.26896
1.26622
1.26367
1.26142
1.25943
1.44693
1.44664
1.44594
1.44505
1.44407
1.44306
1.44203
1.44097
1.43988
1.43876
1.4376
1.43642
1.43524
1.43406
1.43288
1.43171
1.43054
1.42938
1.42822
1.42706
1.42589
1.42474
1.42359
1.42244
1.42131
1.42018
1.41906
1.41794
1.41682
1.41571
1.41459
1.41348
1.41236
1.41124
1.41012
1.409
1.40788
1.40676
1.40563
1.4045
1.40336
1.40222
1.40107
1.39991
1.39874
1.39757
1.39638
1.39518
1.39396
1.39274
1.39149
1.39023
1.38896
1.38766
1.38635
1.38501
1.38366
1.38229
1.38091
1.37952
1.37812
1.37672
1.37534
1.37398
1.37263
1.37131
1.36999
1.36869
1.36738
1.36606
1.36472
1.36335
1.36195
1.36051
1.35903
1.35751
1.35595
1.35434
1.3527
1.35102
1.34929
1.34753
1.34573
1.34389
1.34202
1.3401
1.33815
1.33615
1.33412
1.33204
1.32993
1.32777
1.32557
1.32334
1.32106
1.31875
1.3164
1.31402
1.3116
1.30916
1.30668
1.30418
1.30165
1.29909
1.29652
1.29393
1.29131
1.28869
1.28605
1.28339
1.28071
1.27801
1.27528
1.27253
1.26977
1.26704
1.26439
1.26195
1.25984
1.25802
1.44714
1.44684
1.4461
1.44518
1.44417
1.44315
1.44211
1.44104
1.43995
1.43882
1.43767
1.4365
1.43533
1.43416
1.43299
1.43182
1.43066
1.4295
1.42834
1.42718
1.42601
1.42485
1.42369
1.42254
1.4214
1.42026
1.41913
1.418
1.41687
1.41574
1.4146
1.41347
1.41233
1.41119
1.41005
1.40891
1.40776
1.40661
1.40546
1.4043
1.40313
1.40195
1.40077
1.39958
1.39837
1.39716
1.39593
1.39469
1.39343
1.39217
1.39088
1.38959
1.38827
1.38694
1.38559
1.38423
1.38285
1.38145
1.38003
1.37861
1.37717
1.37574
1.37431
1.3729
1.37151
1.37013
1.36877
1.36741
1.36605
1.36468
1.36329
1.36188
1.36043
1.35895
1.35742
1.35586
1.35425
1.35261
1.35092
1.34919
1.34743
1.34562
1.34378
1.34191
1.33999
1.33804
1.33605
1.33402
1.33195
1.32985
1.3277
1.32552
1.32329
1.32104
1.31874
1.31642
1.31406
1.31167
1.30925
1.3068
1.30433
1.30184
1.29932
1.29679
1.29424
1.29168
1.2891
1.28652
1.28392
1.28132
1.27869
1.27605
1.27339
1.27071
1.26802
1.26537
1.26281
1.26047
1.25849
1.25684
1.44734
1.44702
1.44626
1.4453
1.44427
1.44322
1.44216
1.44109
1.44
1.43887
1.43773
1.43658
1.43542
1.43425
1.43309
1.43193
1.43078
1.42962
1.42846
1.42729
1.42612
1.42495
1.42379
1.42263
1.42148
1.42033
1.41918
1.41804
1.41689
1.41574
1.41459
1.41344
1.41228
1.41112
1.40996
1.40879
1.40762
1.40644
1.40526
1.40407
1.40287
1.40166
1.40044
1.39921
1.39797
1.39672
1.39545
1.39417
1.39288
1.39157
1.39025
1.38891
1.38756
1.38619
1.38481
1.38341
1.382
1.38057
1.37913
1.37767
1.3762
1.37473
1.37327
1.37181
1.37037
1.36895
1.36753
1.36613
1.36472
1.3633
1.36186
1.3604
1.35891
1.35738
1.35581
1.3542
1.35256
1.35087
1.34914
1.34738
1.34557
1.34373
1.34186
1.33994
1.338
1.33601
1.33399
1.33193
1.32984
1.32771
1.32554
1.32334
1.3211
1.31883
1.31652
1.31419
1.31182
1.30943
1.30701
1.30457
1.30211
1.29963
1.29714
1.29463
1.29212
1.2896
1.28707
1.28454
1.28201
1.27947
1.27692
1.27437
1.2718
1.26921
1.26663
1.26409
1.26167
1.25946
1.25761
1.25609
1.44752
1.44719
1.44639
1.4454
1.44434
1.44328
1.44221
1.44113
1.44004
1.43892
1.43779
1.43664
1.4355
1.43434
1.43319
1.43204
1.43088
1.42973
1.42856
1.42739
1.42622
1.42504
1.42387
1.4227
1.42154
1.42038
1.41922
1.41806
1.4169
1.41573
1.41456
1.41339
1.41221
1.41103
1.40984
1.40865
1.40745
1.40624
1.40503
1.40381
1.40258
1.40134
1.40009
1.39882
1.39754
1.39625
1.39494
1.39362
1.39228
1.39094
1.38957
1.3882
1.38681
1.38541
1.38399
1.38256
1.38112
1.37966
1.37819
1.3767
1.37521
1.37371
1.3722
1.37071
1.36922
1.36775
1.36628
1.36483
1.36337
1.3619
1.36041
1.35891
1.35737
1.3558
1.35419
1.35254
1.35085
1.34913
1.34736
1.34556
1.34372
1.34185
1.33994
1.338
1.33602
1.33401
1.33197
1.32988
1.32777
1.32562
1.32344
1.32122
1.31897
1.31669
1.31438
1.31204
1.30967
1.30728
1.30487
1.30244
1.3
1.29754
1.29507
1.2926
1.29012
1.28764
1.28517
1.28269
1.28021
1.27774
1.27526
1.27278
1.27029
1.26778
1.26529