/*--------------------------------*- C++ -*----------------------------------*\
  =========                 |
  \\      /  F ield         | OpenFOAM: The Open Source CFD Toolbox
   \\    /   O peration     | Website:  https://openfoam.org
    \\  /    A nd           | Version:  8
     \\/     M anipulation  |
\*---------------------------------------------------------------------------*/
FoamFile
{
    version     2.0;
    format      ascii;
    class       volScalarField;
    location    "2.4";
    object      p;
}
// * * * * * * * * * * * * * * * * * * * * * * * * * * * * * * * * * * * * * //

dimensions      [0 2 -2 0 0 0 0];

internalField   nonuniform List<scalar> 
10000
(
-8.51795e+63
-1.10526e+64
-4.0029e+63
2.02563e+63
5.09253e+63
5.78207e+63
5.12856e+63
3.95027e+63
2.74335e+63
1.73883e+63
1.00293e+63
5.14378e+62
2.18752e+62
5.73522e+61
-1.91431e+61
-4.68409e+61
-4.96392e+61
-4.18529e+61
-3.12576e+61
-2.14736e+61
-1.38032e+61
-8.35974e+60
-4.77756e+60
-2.56543e+60
-1.27998e+60
-5.78506e+59
-2.22598e+59
-5.84324e+58
6.75749e+57
2.53061e+58
2.47603e+58
1.83433e+58
1.16625e+58
6.55112e+57
3.2165e+57
1.28845e+57
3.03844e+56
-1.20294e+56
-2.47824e+56
-2.39736e+56
-1.84121e+56
-1.23206e+56
-7.35337e+55
-3.86969e+55
-1.68484e+55
-4.54281e+54
1.51823e+54
3.87659e+54
4.26961e+54
3.7659e+54
2.96868e+54
2.1763e+54
1.51305e+54
1.00784e+54
6.47353e+53
4.02281e+53
2.4236e+53
1.41578e+53
8.01317e+52
4.38175e+52
2.3039e+52
1.15447e+52
5.42666e+51
2.31635e+51
8.27486e+50
1.75002e+50
-6.979e+49
-1.31005e+50
-1.201e+50
-8.83969e+49
-5.70732e+49
-3.28963e+49
-1.65615e+49
-6.57833e+48
-1.06993e+48
1.58088e+48
2.55747e+48
2.64446e+48
2.32347e+48
1.86587e+48
1.41152e+48
1.02072e+48
7.1143e+47
4.79863e+47
3.13836e+47
1.98907e+47
1.21878e+47
7.17955e+46
4.02556e+46
2.10795e+46
9.91042e+45
3.77158e+45
6.83825e+44
-6.34432e+44
-1.00683e+45
-9.68647e+44
-8.8426e+44
-9.58775e+44
-1.17647e+45
-7.84903e+44
-2.73396e+63
-4.57236e+63
-2.33569e+63
4.74825e+62
2.31334e+63
3.02309e+63
2.93608e+63
2.44294e+63
1.82819e+63
1.25725e+63
8.00443e+62
4.7085e+62
2.52295e+62
1.18445e+62
4.32911e+61
5.45704e+60
-1.04916e+61
-1.48424e+61
-1.38101e+61
-1.08757e+61
-7.74547e+60
-5.12718e+60
-3.19269e+60
-1.88033e+60
-1.04753e+60
-5.497e+59
-2.68851e+59
-1.19848e+59
-4.62993e+58
-1.32514e+58
-4.48004e+56
3.16856e+57
3.17852e+57
2.16151e+57
1.14289e+57
4.25811e+56
1.6996e+55
-1.67805e+56
-2.17924e+56
-2.0071e+56
-1.58117e+56
-1.12724e+56
-7.43533e+55
-4.57413e+55
-2.61946e+55
-1.37717e+55
-6.40675e+54
-2.35529e+54
-3.35526e+53
5.27735e+53
7.81766e+53
7.52178e+53
6.1505e+53
4.59293e+53
3.22277e+53
2.15778e+53
1.38921e+53
8.64479e+52
5.2108e+52
3.04615e+52
1.72573e+52
9.45716e+51
4.99244e+51
2.52107e+51
1.20284e+51
5.2965e+50
2.04534e+50
5.92388e+49
2.148e+48
-1.48501e+49
-1.56218e+49
-1.1297e+49
-6.49748e+48
-2.78747e+48
-4.04179e+47
8.93861e+47
1.44458e+48
1.54609e+48
1.41109e+48
1.17869e+48
9.27586e+47
6.9885e+47
5.08306e+47
3.59023e+47
2.46957e+47
1.65787e+47
1.08657e+47
6.95122e+46
4.33353e+46
2.62571e+46
1.53967e+46
8.68451e+45
4.67496e+45
2.37632e+45
1.12125e+45
4.63028e+44
1.10919e+44
-9.87161e+43
-1.83477e+44
-6.4479e+43
-1.06102e+63
-2.06476e+63
-1.2452e+63
9.19717e+61
1.12469e+63
1.631e+63
1.69825e+63
1.49851e+63
1.18647e+63
8.6461e+62
5.87219e+62
3.73376e+62
2.21888e+62
1.22076e+62
6.07093e+61
2.56821e+61
7.3954e+60
-9.89058e+59
-3.99555e+60
-4.37624e+60
-3.69116e+60
-2.73427e+60
-1.85998e+60
-1.1842e+60
-7.12147e+59
-4.05813e+59
-2.18969e+59
-1.11328e+59
-5.27702e+58
-2.28549e+58
-8.67061e+57
-2.58878e+57
-3.62016e+56
2.13873e+56
1.9869e+56
4.70718e+55
-7.85915e+55
-1.43242e+56
-1.57609e+56
-1.4216e+56
-1.14144e+56
-8.44439e+55
-5.85823e+55
-3.84534e+55
-2.39769e+55
-1.41975e+55
-7.94272e+54
-4.14654e+54
-1.96356e+54
-7.84857e+53
-1.97568e+53
6.0258e+52
1.47634e+53
1.5484e+53
1.3059e+53
9.86907e+52
6.9568e+52
4.65801e+52
2.99311e+52
1.85551e+52
1.11328e+52
6.47034e+51
3.64149e+51
1.98002e+51
1.03573e+51
5.17294e+50
2.4345e+50
1.05355e+50
3.97256e+49
1.11036e+49
2.95532e+47
-2.60746e+48
-2.46466e+48
-1.47244e+48
-5.07198e+47
1.67385e+47
5.42236e+47
6.89847e+47
6.93887e+47
6.20656e+47
5.16178e+47
4.0762e+47
3.09507e+47
2.27572e+47
1.62854e+47
1.1374e+47
7.76925e+46
5.19421e+46
3.40005e+46
2.17773e+46
1.3634e+46
8.3296e+45
4.95762e+45
2.87107e+45
1.61829e+45
8.93804e+44
4.93769e+44
2.84855e+44
1.9412e+44
1.21604e+44
-4.35212e+62
-9.70049e+62
-6.74151e+62
-3.35626e+61
5.34652e+62
8.66583e+62
9.63864e+62
8.97904e+62
7.46982e+62
5.71703e+62
4.08671e+62
2.75056e+62
1.74834e+62
1.04834e+62
5.89357e+61
3.06091e+61
1.42136e+61
5.39695e+60
1.09977e+60
-6.92565e+59
-1.21081e+60
-1.16126e+60
-9.14194e+59
-6.44856e+59
-4.21032e+59
-2.58288e+59
-1.49852e+59
-8.2377e+58
-4.28253e+58
-2.0934e+58
-9.52325e+57
-3.96345e+57
-1.47221e+57
-4.77001e+56
-1.47464e+56
-7.60684e+55
-8.17423e+55
-9.53028e+55
-9.75447e+55
-8.84501e+55
-7.30361e+55
-5.60816e+55
-4.05884e+55
-2.79355e+55
-1.83818e+55
-1.15967e+55
-7.01828e+54
-4.06634e+54
-2.2439e+54
-1.16632e+54
-5.58567e+53
-2.33865e+53
-7.23716e+52
-7.25231e+49
2.63297e+52
3.11808e+52
2.72663e+52
2.08905e+52
1.47787e+52
9.88353e+51
6.32049e+51
3.8902e+51
2.3111e+51
1.32639e+51
7.34376e+50
3.90819e+50
1.98514e+50
9.50209e+49
4.18372e+49
1.60546e+49
4.5514e+48
7.82341e+46
-1.19264e+48
-1.18146e+48
-7.83206e+47
-3.69369e+47
-6.24883e+46
1.23824e+47
2.13521e+47
2.38657e+47
2.26081e+47
1.95421e+47
1.58906e+47
1.23609e+47
9.2826e+46
6.77238e+46
4.81735e+46
3.34995e+46
2.28022e+46
1.52054e+46
9.93365e+45
6.35713e+45
3.98445e+45
2.44764e+45
1.47999e+45
8.95786e+44
5.65201e+44
3.89529e+44
2.91406e+44
1.51397e+44
-1.98732e+62
-4.93415e+62
-3.9034e+62
-7.72826e+61
2.36896e+62
4.46861e+62
5.34214e+62
5.24728e+62
4.57166e+62
3.65359e+62
2.72727e+62
1.92056e+62
1.28315e+62
8.15185e+61
4.92183e+61
2.81314e+61
1.50841e+61
7.44942e+60
3.24978e+60
1.1107e+60
1.32225e+59
-2.3726e+59
-3.17295e+59
-2.79369e+59
-2.08296e+59
-1.40483e+59
-8.80046e+58
-5.17963e+58
-2.87721e+58
-1.50794e+58
-7.42553e+57
-3.40771e+57
-1.44017e+57
-5.54621e+56
-1.98694e+56
-7.86895e+55
-5.0089e+55
-4.86504e+55
-4.99911e+55
-4.74925e+55
-4.13206e+55
-3.33523e+55
-2.53132e+55
-1.82417e+55
-1.2571e+55
-8.32201e+54
-5.30738e+54
-3.26457e+54
-1.93592e+54
-1.10428e+54
-6.0282e+53
-3.11993e+53
-1.50265e+53
-6.4721e+52
-2.2251e+52
-3.05855e+51
4.28807e+51
6.05499e+51
5.52481e+51
4.28484e+51
3.0332e+51
2.0154e+51
1.27432e+51
7.7152e+50
4.48335e+50
2.49724e+50
1.32676e+50
6.65155e+49
3.0792e+49
1.25303e+49
3.85412e+48
1.76907e+47
-1.06159e+48
-1.22244e+48
-9.87078e+47
-6.68867e+47
-3.91841e+47
-1.90507e+47
-6.08878e+46
1.31586e+46
4.92278e+46
6.15944e+46
6.07166e+46
5.33855e+46
4.37912e+46
3.42028e+46
2.57404e+46
1.87879e+46
1.33611e+46
9.28058e+45
6.30868e+45
4.20151e+45
2.74557e+45
1.76469e+45
1.12338e+45
7.22692e+44
4.89215e+44
3.57951e+44
2.6694e+44
1.26709e+44
-1.02253e+62
-2.77209e+62
-2.47646e+62
-9.07902e+61
8.53626e+61
2.17288e+62
2.85386e+62
2.97384e+62
2.71386e+62
2.26018e+62
1.75412e+62
1.28439e+62
8.93653e+61
5.93401e+61
3.76756e+61
2.28707e+61
1.32439e+61
7.27647e+60
3.75418e+60
1.78158e+60
7.42948e+59
2.37196e+59
1.80237e+58
-5.83665e+58
-7.0617e+58
-5.89736e+58
-4.20054e+58
-2.70725e+58
-1.61454e+58
-8.98619e+57
-4.66876e+57
-2.24988e+57
-9.91296e+56
-3.89172e+56
-1.30709e+56
-3.67275e+55
-1.24969e+55
-1.23727e+55
-1.69567e+55
-1.97033e+55
-1.95421e+55
-1.73034e+55
-1.40939e+55
-1.07669e+55
-7.80815e+54
-5.41962e+54
-3.61918e+54
-2.33339e+54
-1.45516e+54
-8.78354e+53
-5.1283e+53
-2.88956e+53
-1.56438e+53
-8.07147e+52
-3.91079e+52
-1.72576e+52
-6.43193e+51
-1.48731e+51
4.78522e+50
1.04486e+51
1.0235e+51
8.08284e+50
5.70682e+50
3.73727e+50
2.3038e+50
1.34363e+50
7.39426e+49
3.79717e+49
1.76991e+49
6.96583e+48
1.72785e+48
-5.19739e+47
-1.25061e+48
-1.28662e+48
-1.05858e+48
-7.7415e+47
-5.20899e+47
-3.25741e+47
-1.88415e+47
-9.83036e+46
-4.29948e+46
-1.14329e+46
4.83589e+45
1.1883e+46
1.37215e+46
1.29156e+46
1.09746e+46
8.75173e+45
6.66831e+45
4.90649e+45
3.50742e+45
2.44759e+45
1.67368e+45
1.12723e+45
7.54676e+44
5.13213e+44
3.66544e+44
2.77145e+44
2.0397e+44
9.07618e+43
-5.83431e+61
-1.6797e+62
-1.66993e+62
-8.7933e+61
1.19099e+61
9.4373e+61
1.4423e+62
1.61927e+62
1.55666e+62
1.3523e+62
1.09008e+62
8.27332e+61
5.96642e+61
4.11118e+61
2.71628e+61
1.72383e+61
1.05124e+61
6.15336e+60
3.44703e+60
1.83785e+60
9.23232e+59
4.28886e+59
1.76972e+59
5.80953e+58
7.95663e+57
-9.17356e+57
-1.20977e+58
-9.96417e+57
-6.81468e+57
-4.13429e+57
-2.26848e+57
-1.1217e+57
-4.86474e+56
-1.70488e+56
-3.38362e+55
1.24684e+55
1.92102e+55
1.24517e+55
3.84174e+54
-2.48694e+54
-5.88166e+54
-6.9646e+54
-6.62409e+54
-5.59386e+54
-4.36681e+54
-3.21505e+54
-2.25916e+54
-1.52587e+54
-9.95302e+53
-6.28732e+53
-3.85266e+53
-2.29103e+53
-1.32134e+53
-7.37737e+52
-3.97292e+52
-2.05103e+52
-1.00391e+52
-4.5658e+51
-1.84576e+51
-5.8457e+50
-5.84905e+49
1.19557e+50
1.48333e+50
1.2327e+50
8.67323e+49
5.47033e+49
3.13773e+49
1.61637e+49
7.08977e+48
2.14188e+48
-2.59983e+47
-1.21337e+48
-1.41472e+48
-1.27475e+48
-1.01714e+48
-7.52205e+47
-5.25999e+47
-3.5112e+47
-2.24526e+47
-1.37428e+47
-8.00278e+46
-4.37374e+46
-2.17474e+46
-9.08053e+45
-2.2395e+45
1.1008e+45
2.44918e+45
2.73307e+45
2.50904e+45
2.08793e+45
1.6357e+45
1.22898e+45
8.96767e+44
6.41936e+44
4.5671e+44
3.29643e+44
2.47715e+44
1.9248e+44
1.39695e+44
5.86561e+43
-3.6019e+61
-1.08148e+62
-1.17114e+62
-7.71635e+61
-1.99461e+61
3.1699e+61
6.68387e+61
8.37972e+61
8.58821e+61
7.82062e+61
6.55415e+61
5.15222e+61
3.84109e+61
2.7356e+61
1.86964e+61
1.23001e+61
7.8027e+60
4.77647e+60
2.82092e+60
1.60524e+60
8.77929e+59
4.59431e+59
2.28431e+59
1.06594e+59
4.56751e+58
1.71494e+58
4.95013e+57
4.27328e+56
-8.03967e+56
-8.26422e+56
-5.33729e+56
-2.55193e+56
-7.35638e+55
1.85584e+55
5.1504e+55
5.29211e+55
4.1473e+55
2.74895e+55
1.56043e+55
7.15765e+54
1.92987e+54
-8.65289e+53
-2.05413e+54
-2.30848e+54
-2.09318e+54
-1.69781e+54
-1.28045e+54
-9.15418e+53
-6.26991e+53
-4.14187e+53
-2.64959e+53
-1.64573e+53
-9.93914e+52
-5.83971e+52
-3.33696e+52
-1.85219e+52
-9.96341e+51
-5.17386e+51
-2.57812e+51
-1.2203e+51
-5.39442e+50
-2.15324e+50
-7.17116e+49
-1.46137e+49
3.80275e+48
6.78657e+48
4.79611e+48
2.08674e+48
4.13936e+46
-1.12522e+48
-1.60062e+48
-1.64003e+48
-1.45358e+48
-1.18158e+48
-9.04702e+47
-6.61933e+47
-4.66699e+47
-3.18682e+47
-2.1135e+47
-1.36281e+47
-8.54038e+46
-5.18933e+46
-3.0434e+46
-1.70761e+46
-9.02106e+45
-4.33602e+45
-1.73629e+45
-3.82947e+44
2.51237e+44
4.92157e+44
5.3207e+44
4.81663e+44
4.00196e+44
3.17575e+44
2.46769e+44
1.92379e+44
1.53181e+44
1.22248e+44
8.74743e+43
3.46932e+43
-2.33878e+61
-7.16312e+61
-8.27938e+61
-6.2959e+61
-3.00363e+61
2.17434e+60
2.62996e+61
4.02263e+61
4.51218e+61
4.35053e+61
3.8081e+61
3.10444e+61
2.39201e+61
1.75742e+61
1.23867e+61
8.40788e+60
5.51182e+60
3.49563e+60
2.14714e+60
1.27784e+60
7.36758e+59
4.11271e+59
2.21998e+59
1.15687e+59
5.80733e+58
2.80269e+58
1.29881e+58
5.79802e+57
2.52696e+57
1.11706e+57
5.38138e+56
3.05082e+56
2.03922e+56
1.49089e+56
1.10405e+56
7.93698e+55
5.43535e+55
3.51369e+55
2.1257e+55
1.18597e+55
5.90456e+54
2.39771e+54
5.095e+53
-3.80395e+53
-7.02208e+53
-7.31058e+53
-6.31651e+53
-4.93741e+53
-3.61359e+53
-2.51821e+53
-1.68741e+53
-1.09355e+53
-6.88081e+52
-4.2135e+52
-2.51493e+52
-1.46428e+52
-8.31849e+51
-4.60995e+51
-2.49051e+51
-1.31055e+51
-6.7099e+50
-3.34131e+50
-1.61982e+50
-7.6889e+49
-3.62686e+49
-1.75735e+49
-9.22192e+48
-5.52445e+48
-3.80178e+48
-2.87327e+48
-2.25493e+48
-1.77125e+48
-1.36793e+48
-1.03191e+48
-7.59315e+47
-5.4537e+47
-3.82852e+47
-2.63019e+47
-1.77014e+47
-1.1677e+47
-7.5509e+46
-4.78386e+46
-2.96556e+46
-1.79475e+46
-1.05632e+46
-6.00929e+45
-3.26899e+45
-1.66749e+45
-7.63751e+44
-2.77209e+44
-3.1923e+43
7.88928e+43
1.1883e+44
1.24054e+44
1.14568e+44
1.00542e+44
8.6309e+43
7.12365e+43
5.0328e+43
1.86183e+43
-1.55001e+61
-4.81457e+61
-5.84096e+61
-4.88483e+61
-2.98492e+61
-9.78493e+60
6.44536e+60
1.70367e+61
2.21892e+61
2.31293e+61
2.13265e+61
1.81038e+61
1.44332e+61
1.09377e+61
7.93714e+60
5.54448e+60
3.74126e+60
2.44506e+60
1.5504e+60
9.55158e+59
5.72243e+59
3.3363e+59
1.894e+59
1.0476e+59
5.65149e+58
2.97882e+58
1.53943e+58
7.84714e+57
3.98662e+57
2.04943e+57
1.08712e+57
6.05705e+56
3.5746e+56
2.21931e+56
1.42385e+56
9.24127e+55
5.95822e+55
3.76314e+55
2.30343e+55
1.35266e+55
7.52675e+54
3.88765e+54
1.78666e+54
6.47208e+53
8.20255e+52
-1.59442e+53
-2.30975e+53
-2.2266e+53
-1.83654e+53
-1.38776e+53
-9.88266e+52
-6.73198e+52
-4.42355e+52
-2.81925e+52
-1.74877e+52
-1.0584e+52
-6.2606e+51
-3.62403e+51
-2.05512e+51
-1.14289e+51
-6.24167e+50
-3.35437e+50
-1.78024e+50
-9.38336e+49
-4.958e+49
-2.66121e+49
-1.47607e+49
-8.60059e+48
-5.31755e+48
-3.48171e+48
-2.38476e+48
-1.68014e+48
-1.19903e+48
-8.56966e+47
-6.08926e+47
-4.28348e+47
-2.97601e+47
-2.03984e+47
-1.37854e+47
-9.18314e+46
-6.02804e+46
-3.89781e+46
-2.48107e+46
-1.55312e+46
-9.54687e+45
-5.7492e+45
-3.3803e+45
-1.92972e+45
-1.05994e+45
-5.50624e+44
-2.60859e+44
-1.01673e+44
-1.83096e+43
2.23767e+43
3.97659e+43
4.49337e+43
4.35632e+43
3.7575e+43
2.60317e+43
8.77262e+42
-1.03526e+61
-3.23101e+61
-4.0675e+61
-3.63352e+61
-2.54042e+61
-1.29856e+61
-2.2544e+60
5.3917e+60
9.81846e+60
1.15659e+61
1.14326e+61
1.01835e+61
8.43374e+60
6.60093e+60
4.9327e+60
3.54192e+60
2.45532e+60
1.64842e+60
1.07458e+60
6.8141e+59
4.20994e+59
2.53745e+59
1.49395e+59
8.60374e+58
4.85495e+58
2.69059e+58
1.46925e+58
7.94364e+57
4.27992e+57
2.31774e+57
1.27369e+57
7.16873e+56
4.15619e+56
2.48342e+56
1.521e+56
9.4598e+55
5.90992e+55
3.67095e+55
2.24663e+55
1.34394e+55
7.79576e+54
4.3441e+54
2.29348e+54
1.11971e+54
4.78872e+53
1.5101e+53
-1.04882e+51
-5.95995e+52
-7.22588e+52
-6.50833e+52
-5.15043e+52
-3.7744e+52
-2.62327e+52
-1.7509e+52
-1.131e+52
-7.10479e+51
-4.3557e+51
-2.61263e+51
-1.53656e+51
-8.87792e+50
-5.04971e+50
-2.83466e+50
-1.57555e+50
-8.71e+49
-4.81796e+49
-2.68777e+49
-1.52602e+49
-8.90101e+48
-5.37183e+48
-3.3644e+48
-2.18152e+48
-1.45489e+48
-9.89402e+47
-6.80303e+47
-4.69633e+47
-3.23761e+47
-2.22087e+47
-1.51205e+47
-1.02021e+47
-6.81422e+46
-4.50247e+46
-2.94105e+46
-1.89818e+46
-1.20955e+46
-7.60294e+45
-4.70817e+45
-2.86731e+45
-1.71281e+45
-9.99544e+44
-5.66048e+44
-3.07309e+44
-1.56055e+44
-6.97649e+43
-2.21149e+43
2.91864e+42
1.47114e+43
1.86294e+43
1.74362e+43
1.19863e+43
3.64074e+42
-6.86231e+60
-2.15743e+61
-2.79503e+61
-2.61927e+61
-1.99261e+61
-1.22731e+61
-5.27833e+60
5.95715e+58
3.50413e+60
5.27823e+60
5.79507e+60
5.49879e+60
4.76296e+60
3.86411e+60
2.97718e+60
2.19796e+60
1.56376e+60
1.07677e+60
7.19734e+59
4.68182e+59
2.96945e+59
1.83964e+59
1.115e+59
6.62281e+58
3.86239e+58
2.21676e+58
1.25575e+58
7.04738e+57
3.93685e+57
2.20136e+57
1.23978e+57
7.07339e+56
4.10632e+56
2.42964e+56
1.46312e+56
8.92816e+55
5.48674e+55
3.37231e+55
2.0591e+55
1.24114e+55
7.34164e+54
4.23594e+54
2.36725e+54
1.26899e+54
6.42614e+53
2.98536e+53
1.18727e+53
3.11194e+52
-6.93197e+51
-1.99315e+52
-2.13332e+52
-1.81825e+52
-1.38838e+52
-9.90782e+51
-6.73976e+51
-4.41977e+51
-2.81322e+51
-1.74644e+51
-1.06109e+51
-6.32829e+50
-3.71459e+50
-2.15201e+50
-1.23438e+50
-7.03667e+49
-4.0051e+49
-2.28867e+49
-1.32132e+49
-7.75614e+48
-4.6548e+48
-2.86596e+48
-1.81144e+48
-1.1726e+48
-7.73909e+47
-5.17916e+47
-3.49503e+47
-2.36706e+47
-1.60264e+47
-1.08171e+47
-7.26246e+46
-4.84323e+46
-3.20442e+46
-2.10181e+46
-1.36558e+46
-8.78317e+45
-5.58766e+45
-3.513e+45
-2.17993e+45
-1.33293e+45
-8.01079e+44
-4.71352e+44
-2.69727e+44
-1.48287e+44
-7.64148e+43
-3.4809e+43
-1.15551e+43
5.62215e+41
5.81626e+42
6.7209e+42
4.65887e+42
1.22665e+42
-4.51135e+60
-1.42454e+61
-1.89043e+61
-1.83701e+61
-1.48088e+61
-1.01274e+61
-5.62803e+60
-2.00298e+60
5.2497e+59
2.02289e+60
2.70373e+60
2.81552e+60
2.58536e+60
2.18799e+60
1.74428e+60
1.32583e+60
9.68571e+59
6.83592e+59
4.67984e+59
3.11653e+59
2.02399e+59
1.2844e+59
7.97988e+58
4.86276e+58
2.91231e+58
1.71796e+58
1.00082e+58
5.77586e+57
3.31427e+57
1.89885e+57
1.09105e+57
6.31403e+56
3.69264e+56
2.18665e+56
1.31099e+56
7.94229e+55
4.84451e+55
2.96178e+55
1.80603e+55
1.09314e+55
6.53736e+54
3.84565e+54
2.21494e+54
1.24249e+54
6.7414e+53
3.50227e+53
1.71229e+53
7.61483e+52
2.82233e+52
5.87467e+51
-3.25241e+51
-5.96894e+51
-5.88847e+51
-4.81244e+51
-3.57162e+51
-2.49312e+51
-1.66608e+51
-1.07666e+51
-6.77353e+50
-4.16807e+50
-2.51848e+50
-1.49929e+50
-8.82426e+49
-5.15313e+49
-2.99804e+49
-1.74559e+49
-1.02221e+49
-6.05067e+48
-3.6366e+48
-2.2267e+48
-1.39116e+48
-8.86385e+47
-5.74658e+47
-3.7774e+47
-2.50754e+47
-1.67432e+47
-1.12069e+47
-7.49757e+46
-5.00269e+46
-3.32317e+46
-2.19503e+46
-1.44008e+46
-9.37709e+45
-6.05506e+45
-3.87486e+45
-2.45517e+45
-1.53885e+45
-9.52783e+44
-5.81692e+44
-3.49167e+44
-2.0514e+44
-1.17028e+44
-6.38912e+43
-3.24246e+43
-1.43086e+43
-4.46084e+42
2.28733e+41
1.75242e+42
1.33809e+42
1.89921e+41
-2.91794e+60
-9.31021e+60
-1.26112e+61
-1.26151e+61
-1.06091e+61
-7.76256e+60
-4.89918e+60
-2.4848e+60
-7.01813e+59
4.54958e+59
1.0882e+60
1.33725e+60
1.33552e+60
1.19341e+60
9.90155e+59
7.77444e+59
5.83942e+59
4.22643e+59
2.96185e+59
2.01742e+59
1.33931e+59
8.6877e+58
5.51777e+58
3.43851e+58
2.10662e+58
1.27169e+58
7.58215e+57
4.47725e+57
2.62643e+57
1.53574e+57
8.98212e+56
5.27225e+56
3.11442e+56
1.85483e+56
1.11431e+56
6.7469e+55
4.10857e+55
2.50875e+55
1.53069e+55
9.29788e+54
5.60262e+54
3.33732e+54
1.95856e+54
1.12844e+54
6.35794e+53
3.4858e+53
1.84719e+53
9.36155e+52
4.45582e+52
1.9185e+52
6.76717e+51
1.16949e+51
-1.00598e+51
-1.58305e+51
-1.49382e+51
-1.18875e+51
-8.64564e+50
-5.93774e+50
-3.91475e+50
-2.5028e+50
-1.56193e+50
-9.56509e+49
-5.77257e+49
-3.44762e+49
-2.04601e+49
-1.21179e+49
-7.19447e+48
-4.30096e+48
-2.59933e+48
-1.59325e+48
-9.92246e+47
-6.28091e+47
-4.03601e+47
-2.6267e+47
-1.72607e+47
-1.14167e+47
-7.57717e+46
-5.03335e+46
-3.33893e+46
-2.20826e+46
-1.45396e+46
-9.52115e+45
-6.19487e+45
-4.00213e+45
-2.56507e+45
-1.62992e+45
-1.02576e+45
-6.3869e+44
-3.92797e+44
-2.38081e+44
-1.41697e+44
-8.23266e+43
-4.62161e+43
-2.4608e+43
-1.19978e+43
-4.98491e+42
-1.46447e+42
-6.84114e+40
9.0658e+40
-1.647e+41
-1.86441e+60
-6.00772e+60
-8.29677e+60
-8.50033e+60
-7.38693e+60
-5.66884e+60
-3.86557e+60
-2.28505e+60
-1.0631e+60
-2.18715e+59
2.96304e+59
5.57261e+59
6.42919e+59
6.20577e+59
5.41912e+59
4.41983e+59
3.4245e+59
2.54538e+59
1.82729e+59
1.27268e+59
8.63155e+58
5.71606e+58
3.70554e+58
2.35655e+58
1.47347e+58
9.0774e+57
5.52292e+57
3.32679e+57
1.98938e+57
1.18434e+57
7.04012e+56
4.19003e+56
2.50276e+56
1.5028e+56
9.07806e+55
5.5153e+55
3.3658e+55
2.05907e+55
1.25954e+55
7.68249e+54
4.65925e+54
2.80196e+54
1.66645e+54
9.77676e+53
5.64312e+53
3.1954e+53
1.76891e+53
9.531e+52
4.96623e+52
2.47794e+52
1.16344e+52
4.96391e+51
1.75643e+51
3.34984e+50
-2.10399e+50
-3.54726e+50
-3.36047e+50
-2.65852e+50
-1.91821e+50
-1.30654e+50
-8.55302e+49
-5.43867e+49
-3.38516e+49
-2.07447e+49
-1.25832e+49
-7.59124e+48
-4.57685e+48
-2.76994e+48
-1.68971e+48
-1.04221e+48
-6.51363e+47
-4.12731e+47
-2.64985e+47
-1.72055e+47
-1.1271e+47
-7.42783e+46
-4.91176e+46
-3.25082e+46
-2.14926e+46
-1.41695e+46
-9.30396e+45
-6.07744e+45
-3.94628e+45
-2.54503e+45
-1.62922e+45
-1.03436e+45
-6.5081e+44
-4.05332e+44
-2.49562e+44
-1.5157e+44
-9.05376e+43
-5.29216e+43
-3.00267e+43
-1.63037e+43
-8.26694e+42
-3.75641e+42
-1.43475e+42
-4.24467e+41
-1.62269e+41
-1.65247e+41
-1.16933e+60
-3.83526e+60
-5.3941e+60
-5.64329e+60
-5.0348e+60
-4.00494e+60
-2.87854e+60
-1.8571e+60
-1.03749e+60
-4.43195e+59
-5.42386e+58
1.70193e+59
2.75271e+59
3.02193e+59
2.83469e+59
2.42655e+59
1.9495e+59
1.49275e+59
1.09925e+59
7.8343e+58
5.42715e+58
3.66745e+58
2.42413e+58
1.57134e+58
1.00107e+58
6.28277e+57
3.89303e+57
2.38743e+57
1.45255e+57
8.79066e+56
5.30508e+56
3.20038e+56
1.9339e+56
1.17237e+56
7.13581e+55
4.36101e+55
2.67403e+55
1.64276e+55
1.00923e+55
6.18708e+54
3.77647e+54
2.29001e+54
1.37664e+54
8.18782e+53
4.80897e+53
2.78375e+53
1.58501e+53
8.85612e+52
4.84245e+52
2.58147e+52
1.33479e+52
6.64044e+51
3.1367e+51
1.37146e+51
5.23884e+50
1.43767e+50
-8.33962e+48
-5.60718e+49
-6.03849e+49
-4.98206e+49
-3.65621e+49
-2.51017e+49
-1.65066e+49
-1.05457e+49
-6.60823e+48
-4.09323e+48
-2.52208e+48
-1.55484e+48
-9.63566e+47
-6.02591e+47
-3.81136e+47
-2.4405e+47
-1.58091e+47
-1.03434e+47
-6.81774e+46
-4.51558e+46
-2.99703e+46
-1.98892e+46
-1.31701e+46
-8.68926e+45
-5.70437e+45
-3.72305e+45
-2.41356e+45
-1.55325e+45
-9.91542e+44
-6.27505e+44
-3.93317e+44
-2.43946e+44
-1.49485e+44
-9.03323e+43
-5.3663e+43
-3.1198e+43
-1.7612e+43
-9.52946e+42
-4.82839e+42
-2.19937e+42
-8.34315e+41
-2.16825e+41
-2.77275e+40
-3.46909e+40
-7.24308e+59
-2.41893e+60
-3.4668e+60
-3.69519e+60
-3.37082e+60
-2.75797e+60
-2.06042e+60
-1.40797e+60
-8.67678e+59
-4.60871e+59
-1.80507e+59
-5.33511e+57
9.06642e+58
1.3203e+59
1.39223e+59
1.27458e+59
1.07229e+59
8.50121e+58
6.44171e+58
4.70466e+58
3.33181e+58
2.29752e+58
1.54808e+58
1.02202e+58
6.62844e+57
4.2328e+57
2.66782e+57
1.66331e+57
1.02833e+57
6.31888e+56
3.86839e+56
2.36441e+56
1.44562e+56
8.85358e+55
5.43631e+55
3.3472e+55
2.06571e+55
1.2765e+55
7.88724e+54
4.86453e+54
2.98945e+54
1.8272e+54
1.10889e+54
6.67103e+53
3.97244e+53
2.3382e+53
1.35856e+53
7.78172e+52
4.38775e+52
2.43163e+52
1.32188e+52
7.03219e+51
3.64873e+51
1.8381e+51
8.92559e+50
4.12999e+50
1.78176e+50
6.83942e+49
2.02617e+49
1.25599e+48
-4.82222e+48
-5.66653e+48
-4.74837e+48
-3.49152e+48
-2.40064e+48
-1.58887e+48
-1.03056e+48
-6.62772e+47
-4.26439e+47
-2.76076e+47
-1.80499e+47
-1.19271e+47
-7.95982e+46
-5.35176e+46
-3.61517e+46
-2.44575e+46
-1.65286e+46
-1.11313e+46
-7.45821e+45
-4.96425e+45
-3.27969e+45
-2.14872e+45
-1.39539e+45
-8.97586e+44
-5.7166e+44
-3.60183e+44
-2.24346e+44
-1.37957e+44
-8.36277e+43
-4.9847e+43
-2.91161e+43
-1.65701e+43
-9.10308e+42
-4.74405e+42
-2.26487e+42
-9.08958e+41
-2.18046e+41
9.06407e+40
1.70986e+41
8.26826e+40
-4.39949e+59
-1.51008e+60
-2.20578e+60
-2.3928e+60
-2.22481e+60
-1.86308e+60
-1.43395e+60
-1.02111e+60
-6.69719e+59
-3.96803e+59
-2.01214e+59
-7.19946e+58
5.48772e+57
4.59144e+58
6.18339e+58
6.30547e+58
5.65213e+58
4.68268e+58
3.66867e+58
2.75399e+58
1.99665e+58
1.40618e+58
9.65904e+57
6.49383e+57
4.28478e+57
2.78219e+57
1.7819e+57
1.12845e+57
7.082e+56
4.415e+56
2.73988e+56
1.69615e+56
1.04921e+56
6.49431e+55
4.02555e+55
2.49969e+55
1.55448e+55
9.67432e+54
6.01849e+54
3.73773e+54
2.31378e+54
1.42559e+54
8.72947e+53
5.30565e+53
3.19684e+53
1.90755e+53
1.12614e+53
6.57195e+52
3.7883e+52
2.15532e+52
1.20947e+52
6.68881e+51
3.64303e+51
1.95228e+51
1.02852e+51
5.32059e+50
2.69954e+50
1.34111e+50
6.51185e+49
3.08145e+49
1.41589e+49
6.27409e+48
2.65027e+48
1.03887e+48
3.5246e+47
7.61743e+46
-2.45201e+46
-5.39827e+46
-5.62677e+46
-4.95315e+46
-4.06559e+46
-3.21791e+46
-2.48445e+46
-1.88104e+46
-1.39852e+46
-1.02226e+46
-7.34772e+45
-5.19725e+45
-3.61841e+45
-2.48136e+45
-1.67639e+45
-1.11635e+45
-7.32748e+44
-4.74147e+44
-3.02324e+44
-1.89864e+44
-1.17294e+44
-7.11735e+43
-4.2301e+43
-2.4531e+43
-1.37894e+43
-7.43421e+42
-3.76512e+42
-1.71112e+42
-6.04389e+41
-3.92096e+40
2.26091e+41
3.27717e+41
3.14256e+41
1.52545e+41
-2.64074e+59
-9.32039e+59
-1.38965e+60
-1.53271e+60
-1.4499e+60
-1.2381e+60
-9.76189e+59
-7.17228e+59
-4.91429e+59
-3.11392e+59
-1.78236e+59
-8.65715e+58
-2.8171e+58
5.56846e+57
2.23552e+58
2.83417e+58
2.80973e+58
2.47278e+58
2.02103e+58
1.56677e+58
1.1664e+58
8.40213e+57
5.88939e+57
4.03287e+57
2.70732e+57
1.78667e+57
1.1623e+57
7.47117e+56
4.75684e+56
3.00644e+56
1.89042e+56
1.18481e+56
7.41454e+55
4.63872e+55
2.90394e+55
1.81963e+55
1.14117e+55
7.15848e+54
4.48768e+54
2.80828e+54
1.75206e+54
1.08837e+54
6.7237e+53
4.12616e+53
2.51285e+53
1.51739e+53
9.07876e+52
5.379e+52
3.15442e+52
1.83035e+52
1.0506e+52
5.9647e+51
3.34954e+51
1.8609e+51
1.02315e+51
5.57103e+50
3.00659e+50
1.61049e+50
8.57614e+49
4.55069e+49
2.41205e+49
1.28095e+49
6.8338e+48
3.67162e+48
1.98853e+48
1.0854e+48
5.9541e+47
3.26799e+47
1.78133e+47
9.55143e+46
4.9651e+46
2.44779e+46
1.0952e+46
3.96634e+45
5.84421e+44
-8.60909e+44
-1.31829e+45
-1.30849e+45
-1.11172e+45
-8.67535e+44
-6.40338e+44
-4.53331e+44
-3.10349e+44
-2.06281e+44
-1.33434e+44
-8.40051e+43
-5.14138e+43
-3.0477e+43
-1.73869e+43
-9.4288e+42
-4.74751e+42
-2.0997e+42
-6.78823e+41
2.95549e+40
3.43731e+41
4.56406e+41
4.7685e+41
4.55235e+41
3.81245e+41
1.79151e+41
-1.5519e+59
-5.69484e+59
-8.67442e+59
-9.727e+59
-9.34653e+59
-8.11965e+59
-6.5312e+59
-4.91984e+59
-3.4829e+59
-2.31102e+59
-1.42143e+59
-7.88873e+58
-3.67991e+58
-1.08293e+58
3.66821e+57
1.05533e+58
1.27489e+58
1.23373e+58
1.06833e+58
8.62634e+57
6.62438e+57
4.89516e+57
3.50636e+57
2.44794e+57
1.67228e+57
1.12177e+57
7.40971e+56
4.83288e+56
3.11991e+56
1.9983e+56
1.27248e+56
8.07227e+55
5.1094e+55
3.23122e+55
2.04328e+55
1.29258e+55
8.17912e+54
5.17496e+54
3.27116e+54
2.06391e+54
1.29831e+54
8.13395e+53
5.06967e+53
3.14055e+53
1.93197e+53
1.17942e+53
7.14088e+52
4.28625e+52
2.54986e+52
1.50317e+52
8.78115e+51
5.08399e+51
2.91817e+51
1.66138e+51
9.38865e+50
5.27105e+50
2.94369e+50
1.63757e+50
9.09058e+49
5.04514e+49
2.80515e+49
1.56548e+49
8.78443e+48
4.96135e+48
2.82186e+48
1.61537e+48
9.2961e+47
5.36603e+47
3.09903e+47
1.7848e+47
1.02168e+47
5.79021e+46
3.23596e+46
1.77433e+46
9.48935e+45
4.90676e+45
2.42181e+45
1.11417e+45
4.54733e+44
1.41579e+44
7.08453e+42
-4.02662e+43
-4.83131e+43
-4.12096e+43
-3.01802e+43
-1.99537e+43
-1.2021e+43
-6.4929e+42
-2.94143e+42
-8.40491e+41
2.83894e+41
7.93902e+41
9.47631e+41
9.1556e+41
8.05837e+41
6.82462e+41
5.77866e+41
4.93117e+41
3.87809e+41
1.76333e+41
-9.01661e+58
-3.44043e+59
-5.36429e+59
-6.1137e+59
-5.96302e+59
-5.25983e+59
-4.30472e+59
-3.30972e+59
-2.4042e+59
-1.65047e+59
-1.06553e+59
-6.38508e+58
-3.44671e+58
-1.54839e+58
-4.10184e+57
2.05342e+57
4.84638e+57
5.63093e+57
5.33743e+57
4.55658e+57
3.63981e+57
2.7717e+57
2.03488e+57
1.45056e+57
1.00947e+57
6.88508e+56
4.61877e+56
3.0561e+56
2.00008e+56
1.29769e+56
8.36667e+55
5.37033e+55
3.43782e+55
2.19746e+55
1.4039e+55
8.96779e+54
5.72804e+54
3.65685e+54
2.33202e+54
1.48414e+54
9.41756e+53
5.95204e+53
3.74338e+53
2.34067e+53
1.45408e+53
8.96868e+52
5.49003e+52
3.33408e+52
2.00846e+52
1.20009e+52
7.11343e+51
4.18376e+51
2.44261e+51
1.41644e+51
8.1644e+50
4.68221e+50
2.67462e+50
1.52384e+50
8.67169e+49
4.93671e+49
2.81567e+49
1.61126e+49
9.26074e+48
5.35017e+48
3.1074e+48
1.814e+48
1.06338e+48
6.25244e+47
3.68122e+47
2.16666e+47
1.27233e+47
7.44164e+46
4.32699e+46
2.49737e+46
1.42835e+46
8.08519e+45
4.52302e+45
2.49839e+45
1.36137e+45
7.3179e+44
3.88302e+44
2.04013e+44
1.06755e+44
5.62996e+43
3.04705e+43
1.73496e+43
1.06258e+43
7.06498e+42
5.04123e+42
3.77116e+42
2.88576e+42
2.21935e+42
1.6978e+42
1.28782e+42
9.72647e+41
7.41807e+41
5.8321e+41
4.72556e+41
3.57797e+41
1.57823e+41
-5.11307e+58
-2.05618e+59
-3.28608e+59
-3.80847e+59
-3.76757e+59
-3.37083e+59
-2.80085e+59
-2.19155e+59
-1.62567e+59
-1.14601e+59
-7.66408e+58
-4.83111e+58
-2.82871e+58
-1.48914e+58
-6.45995e+57
-1.53444e+57
1.05115e+57
2.17305e+57
2.44522e+57
2.27657e+57
1.91914e+57
1.51831e+57
1.14756e+57
8.37706e+56
5.94743e+56
4.12885e+56
2.81383e+56
1.88925e+56
1.25324e+56
8.2364e+55
5.37492e+55
3.49047e+55
2.25932e+55
1.45975e+55
9.42211e+54
6.07901e+54
3.9203e+54
2.52646e+54
1.62598e+54
1.04428e+54
6.68649e+53
4.26466e+53
2.7069e+53
1.7086e+53
1.07171e+53
6.6769e+52
4.12989e+52
2.53556e+52
1.54497e+52
9.34319e+51
5.60871e+51
3.34318e+51
1.97959e+51
1.16511e+51
6.82111e+50
3.97582e+50
2.30959e+50
1.33865e+50
7.75128e+49
4.48938e+49
2.60405e+49
1.51432e+49
8.83649e+48
5.17682e+48
3.0456e+48
1.79891e+48
1.06625e+48
6.33635e+47
3.77146e+47
2.24559e+47
1.33595e+47
7.93136e+46
4.69407e+46
2.76661e+46
1.62268e+46
9.46503e+45
5.48918e+45
3.16474e+45
1.81474e+45
1.03574e+45
5.89315e+44
3.34994e+44
1.90899e+44
1.09518e+44
6.36066e+43
3.76181e+43
2.27895e+43
1.42008e+43
9.11756e+42
6.02136e+42
4.07286e+42
2.80483e+42
1.95555e+42
1.3755e+42
9.7782e+41
7.10417e+41
5.37723e+41
4.22481e+41
3.10714e+41
1.33348e+41
-2.86635e+58
-1.21399e+59
-1.99305e+59
-2.34919e+59
-2.35709e+59
-2.1369e+59
-1.80044e+59
-1.4304e+59
-1.08013e+59
-7.77948e+58
-5.34644e+58
-3.49528e+58
-2.15738e+58
-1.23738e+58
-6.36928e+57
-2.67708e+57
-5.70749e+56
5.04828e+56
9.51776e+56
1.04339e+57
9.56594e+56
7.97523e+56
6.25614e+56
4.69756e+56
3.41261e+56
2.41508e+56
1.67396e+56
1.14091e+56
7.6739e+55
5.10814e+55
3.37425e+55
2.21649e+55
1.45073e+55
9.47345e+54
6.1788e+54
4.02678e+54
2.62277e+54
1.70667e+54
1.10898e+54
7.18987e+53
4.64735e+53
2.99202e+53
1.91721e+53
1.22173e+53
7.73809e+52
4.86869e+52
3.04215e+52
1.88724e+52
1.16236e+52
7.10761e+51
4.31596e+51
2.60331e+51
1.56054e+51
9.30171e+50
5.51698e+50
3.2587e+50
1.91865e+50
1.12719e+50
6.61463e+49
3.88147e+49
2.27984e+49
1.34163e+49
7.91567e+48
4.68479e+48
2.78177e+48
1.65715e+48
9.90022e+47
5.92833e+47
3.55534e+47
2.13368e+47
1.28017e+47
7.67244e+46
4.58933e+46
2.73801e+46
1.62826e+46
9.64886e+45
5.69617e+45
3.35037e+45
1.96386e+45
1.14797e+45
6.69806e+44
3.90661e+44
2.28166e+44
1.33767e+44
7.89336e+43
4.70285e+43
2.83773e+43
1.73919e+43
1.08478e+43
6.89208e+42
4.4579e+42
2.93067e+42
1.95396e+42
1.31972e+42
9.05554e+41
6.38412e+41
4.70917e+41
3.61827e+41
2.60182e+41
1.08844e+41
-1.55926e+58
-7.0777e+58
-1.19583e+59
-1.43491e+59
-1.45992e+59
-1.34082e+59
-1.14427e+59
-9.21792e+58
-7.06879e+58
-5.18428e+58
-3.64177e+58
-2.44823e+58
-1.56883e+58
-9.50295e+57
-5.35055e+57
-2.69938e+57
-1.1033e+57
-2.12381e+56
2.31016e+56
4.07804e+56
4.37615e+56
3.95935e+56
3.26893e+56
2.54512e+56
1.9002e+56
1.37488e+56
9.70677e+55
6.72336e+55
4.58706e+55
3.0938e+55
2.06854e+55
1.37465e+55
9.09679e+54
6.00471e+54
3.95743e+54
2.60592e+54
1.71454e+54
1.12698e+54
7.39581e+53
4.84266e+53
3.16088e+53
2.05507e+53
1.3297e+53
8.55691e+52
5.47304e+52
3.47792e+52
2.19496e+52
1.3756e+52
8.56006e+51
5.28972e+51
3.24661e+51
1.97982e+51
1.20003e+51
7.23411e+50
4.33988e+50
2.59303e+50
1.54431e+50
9.17608e+49
5.44483e+49
3.22942e+49
1.91632e+49
1.13856e+49
6.77762e+48
4.04412e+48
2.41938e+48
1.45116e+48
8.72513e+47
5.25642e+47
3.1713e+47
1.91479e+47
1.15624e+47
6.97757e+46
4.20553e+46
2.53012e+46
1.51872e+46
9.09239e+45
5.42854e+45
3.23202e+45
1.91934e+45
1.13728e+45
6.72848e+44
3.97793e+44