/*--------------------------------*- C++ -*----------------------------------*\
  =========                 |
  \\      /  F ield         | OpenFOAM: The Open Source CFD Toolbox
   \\    /   O peration     | Website:  https://openfoam.org
    \\  /    A nd           | Version:  8
     \\/     M anipulation  |
\*---------------------------------------------------------------------------*/
FoamFile
{
    version     2.0;
    format      ascii;
    class       volScalarField;
    location    "0.9";
    object      nuTilda;
}
// * * * * * * * * * * * * * * * * * * * * * * * * * * * * * * * * * * * * * //

dimensions      [0 2 -1 0 0 0 0];

internalField   nonuniform List<scalar> 
248760
(
0.139974
0.139922
0.139869
0.139817
0.139764
0.139711
0.139658
0.139605
0.139552
0.139499
0.139446
0.139393
0.139341
0.139288
0.139235
0.139183
0.139131
0.139079
0.139028
0.138976
0.138925
0.138874
0.138824
0.138774
0.138724
0.138675
0.138627
0.138578
0.138531
0.138484
0.138437
0.138391
0.138346
0.138302
0.138258
0.138215
0.138173
0.138132
0.138092
0.138053
0.138014
0.137977
0.13794
0.137905
0.137871
0.137838
0.137806
0.137775
0.137746
0.137717
0.13769
0.137664
0.137639
0.137616
0.137594
0.137573
0.137553
0.137535
0.137518
0.137502
0.137488
0.137475
0.137463
0.137453
0.137444
0.137436
0.137429
0.137424
0.137421
0.137418
0.137417
0.137417
0.137419
0.137422
0.137426
0.137432
0.137439
0.137448
0.137458
0.137469
0.137482
0.137495
0.137511
0.137527
0.137546
0.137565
0.137586
0.137608
0.137631
0.137656
0.137681
0.137709
0.137737
0.137766
0.137797
0.137829
0.137862
0.137896
0.13793
0.137966
0.138003
0.138041
0.138079
0.138118
0.138159
0.1382
0.138241
0.138284
0.138328
0.138373
0.13842
0.138469
0.138521
0.138577
0.138638
0.138705
0.138781
0.138868
0.138971
0.139094
0.139974
0.139922
0.139869
0.139816
0.139763
0.13971
0.139657
0.139604
0.139551
0.139498
0.139445
0.139392
0.13934
0.139287
0.139234
0.139182
0.13913
0.139078
0.139026
0.138975
0.138924
0.138873
0.138823
0.138772
0.138723
0.138674
0.138625
0.138577
0.138529
0.138482
0.138435
0.138389
0.138344
0.1383
0.138256
0.138213
0.138171
0.13813
0.13809
0.138051
0.138012
0.137975
0.137939
0.137903
0.137869
0.137836
0.137804
0.137774
0.137744
0.137716
0.137689
0.137663
0.137638
0.137615
0.137593
0.137572
0.137553
0.137535
0.137518
0.137502
0.137488
0.137475
0.137463
0.137453
0.137444
0.137436
0.13743
0.137425
0.137421
0.137419
0.137418
0.137418
0.13742
0.137423
0.137428
0.137433
0.137441
0.137449
0.137459
0.13747
0.137483
0.137497
0.137512
0.137529
0.137547
0.137566
0.137587
0.137609
0.137633
0.137657
0.137683
0.13771
0.137739
0.137768
0.137799
0.137831
0.137863
0.137897
0.137932
0.137968
0.138005
0.138042
0.138081
0.13812
0.13816
0.138201
0.138243
0.138286
0.138329
0.138375
0.138421
0.138471
0.138522
0.138578
0.138638
0.138705
0.138781
0.138869
0.138971
0.139093
0.139974
0.139921
0.139869
0.139816
0.139763
0.13971
0.139657
0.139603
0.13955
0.139497
0.139444
0.139391
0.139338
0.139285
0.139233
0.13918
0.139128
0.139076
0.139024
0.138972
0.138921
0.13887
0.13882
0.138769
0.13872
0.13867
0.138621
0.138573
0.138525
0.138478
0.138432
0.138386
0.13834
0.138296
0.138252
0.138209
0.138167
0.138126
0.138086
0.138047
0.138008
0.137971
0.137935
0.1379
0.137866
0.137833
0.137801
0.13777
0.137741
0.137713
0.137686
0.13766
0.137635
0.137612
0.13759
0.137569
0.13755
0.137532
0.137515
0.1375
0.137485
0.137472
0.137461
0.137451
0.137442
0.137434
0.137428
0.137423
0.137419
0.137417
0.137416
0.137416
0.137418
0.137421
0.137425
0.137431
0.137438
0.137447
0.137457
0.137468
0.137481
0.137495
0.13751
0.137527
0.137545
0.137564
0.137585
0.137607
0.13763
0.137655
0.137681
0.137708
0.137736
0.137766
0.137797
0.137828
0.137861
0.137895
0.13793
0.137966
0.138002
0.13804
0.138078
0.138117
0.138157
0.138198
0.13824
0.138283
0.138327
0.138372
0.138418
0.138467
0.138519
0.138575
0.138635
0.138702
0.138778
0.138865
0.138968
0.13909
0.139974
0.139921
0.139868
0.139815
0.139762
0.139709
0.139655
0.139602
0.139549
0.139495
0.139442
0.139389
0.139336
0.139283
0.13923
0.139177
0.139125
0.139073
0.139021
0.138969
0.138917
0.138866
0.138816
0.138765
0.138715
0.138666
0.138617
0.138568
0.13852
0.138473
0.138426
0.13838
0.138335
0.138291
0.138247
0.138204
0.138162
0.138121
0.13808
0.138041
0.138003
0.137965
0.137929
0.137894
0.13786
0.137827
0.137795
0.137765
0.137736
0.137707
0.13768
0.137655
0.13763
0.137607
0.137585
0.137565
0.137545
0.137527
0.13751
0.137495
0.137481
0.137468
0.137456
0.137446
0.137437
0.13743
0.137423
0.137418
0.137415
0.137412
0.137411
0.137412
0.137413
0.137416
0.137421
0.137426
0.137433
0.137442
0.137452
0.137463
0.137476
0.137489
0.137505
0.137521
0.137539
0.137559
0.13758
0.137602
0.137625
0.137649
0.137675
0.137702
0.137731
0.13776
0.137791
0.137822
0.137855
0.137889
0.137924
0.13796
0.137996
0.138034
0.138072
0.138111
0.138151
0.138192
0.138234
0.138276
0.13832
0.138365
0.138412
0.138461
0.138513
0.138568
0.138628
0.138695
0.138771
0.138859
0.138961
0.139084
0.139974
0.139921
0.139868
0.139814
0.139761
0.139708
0.139654
0.139601
0.139547
0.139493
0.13944
0.139387
0.139333
0.13928
0.139227
0.139174
0.139121
0.139069
0.139017
0.138965
0.138913
0.138862
0.138811
0.13876
0.13871
0.13866
0.138611
0.138562
0.138514
0.138467
0.13842
0.138374
0.138328
0.138284
0.13824
0.138197
0.138155
0.138113
0.138073
0.138034
0.137996
0.137958
0.137922
0.137887
0.137853
0.13782
0.137789
0.137758
0.137729
0.137701
0.137674
0.137648
0.137624
0.137601
0.137579
0.137558
0.137539
0.137521
0.137504
0.137489
0.137475
0.137462
0.13745
0.13744
0.137431
0.137423
0.137417
0.137412
0.137408
0.137406
0.137405
0.137405
0.137407
0.13741
0.137414
0.13742
0.137426
0.137435
0.137445
0.137456
0.137468
0.137482
0.137497
0.137514
0.137531
0.137551
0.137571
0.137593
0.137616
0.137641
0.137667
0.137694
0.137722
0.137751
0.137782
0.137814
0.137846
0.13788
0.137915
0.137951
0.137987
0.138025
0.138063
0.138102
0.138142
0.138183
0.138224
0.138267
0.138311
0.138356
0.138402
0.138451
0.138503
0.138559
0.138619
0.138686
0.138762
0.13885
0.138953
0.139076
0.139974
0.13992
0.139867
0.139813
0.13976
0.139706
0.139652
0.139599
0.139545
0.139491
0.139437
0.139384
0.13933
0.139277
0.139223
0.13917
0.139117
0.139064
0.139012
0.13896
0.138908
0.138856
0.138805
0.138754
0.138704
0.138654
0.138604
0.138555
0.138507
0.138459
0.138412
0.138366
0.13832
0.138276
0.138232
0.138189
0.138146
0.138105
0.138065
0.138026
0.137987
0.13795
0.137914
0.137879
0.137845
0.137812
0.13778
0.13775
0.137721
0.137693
0.137666
0.137641
0.137616
0.137593
0.137571
0.137551
0.137532
0.137514
0.137497
0.137482
0.137468
0.137455
0.137443
0.137433
0.137424
0.137416
0.13741
0.137405
0.137401
0.137398
0.137397
0.137397
0.137399
0.137401
0.137406
0.137411
0.137418
0.137426
0.137435
0.137446
0.137459
0.137472
0.137487
0.137504
0.137521
0.13754
0.137561
0.137583
0.137606
0.13763
0.137656
0.137683
0.137711
0.13774
0.137771
0.137802
0.137835
0.137869
0.137903
0.137939
0.137976
0.138013
0.138051
0.13809
0.13813
0.138171
0.138212
0.138255
0.138299
0.138344
0.13839
0.138439
0.138491
0.138547
0.138608
0.138675
0.138751
0.13884
0.138943
0.139067
0.139973
0.13992
0.139866
0.139812
0.139759
0.139705
0.139651
0.139597
0.139543
0.139489
0.139435
0.139381
0.139327
0.139273
0.139219
0.139166
0.139113
0.139059
0.139007
0.138954
0.138902
0.13885
0.138798
0.138747
0.138696
0.138646
0.138597
0.138547
0.138499
0.138451
0.138404
0.138357
0.138312
0.138267
0.138223
0.13818
0.138137
0.138096
0.138056
0.138016
0.137978
0.137941
0.137905
0.13787
0.137836
0.137803
0.137771
0.137741
0.137712
0.137684
0.137657
0.137632
0.137608
0.137585
0.137563
0.137543
0.137523
0.137505
0.137489
0.137473
0.137459
0.137446
0.137435
0.137424
0.137415
0.137408
0.137401
0.137396
0.137392
0.137389
0.137388
0.137388
0.137389
0.137392
0.137396
0.137401
0.137408
0.137416
0.137425
0.137436
0.137448
0.137461
0.137476
0.137492
0.13751
0.137528
0.137549
0.13757
0.137593
0.137618
0.137643
0.13767
0.137698
0.137727
0.137757
0.137789
0.137822
0.137855
0.13789
0.137925
0.137962
0.137999
0.138037
0.138076
0.138116
0.138157
0.138198
0.138241
0.138285
0.13833
0.138377
0.138426
0.138478
0.138534
0.138595
0.138663
0.138739
0.138828
0.138932
0.139057
0.139973
0.139919
0.139866
0.139811
0.139757
0.139703
0.139649
0.139595
0.13954
0.139486
0.139432
0.139377
0.139323
0.139269
0.139215
0.139161
0.139108
0.139054
0.139001
0.138948
0.138895
0.138843
0.138791
0.13874
0.138689
0.138638
0.138588
0.138539
0.13849
0.138442
0.138395
0.138348
0.138302
0.138257
0.138213
0.13817
0.138127
0.138086
0.138046
0.138006
0.137968
0.137931
0.137895
0.13786
0.137826
0.137793
0.137762
0.137731
0.137702
0.137675
0.137648
0.137623
0.137598
0.137575
0.137554
0.137533
0.137514
0.137496
0.13748
0.137464
0.13745
0.137437
0.137425
0.137415
0.137406
0.137398
0.137391
0.137386
0.137382
0.137379
0.137378
0.137378
0.137379
0.137381
0.137385
0.13739
0.137396
0.137404
0.137413
0.137424
0.137435
0.137449
0.137463
0.137479
0.137496
0.137515
0.137535
0.137556
0.137579
0.137603
0.137629
0.137655
0.137683
0.137712
0.137742
0.137774
0.137806
0.13784
0.137874
0.13791
0.137946
0.137984
0.138022
0.138061
0.138101
0.138141
0.138183
0.138225
0.138269
0.138314
0.138361
0.138411
0.138463
0.138519
0.138581
0.138649
0.138727
0.138816
0.138922
0.139048
0.139973
0.139919
0.139865
0.13981
0.139756
0.139701
0.139647
0.139592
0.139538
0.139483
0.139428
0.139374
0.139319
0.139265
0.13921
0.139156
0.139102
0.139048
0.138995
0.138942
0.138889
0.138836
0.138784
0.138732
0.138681
0.13863
0.13858
0.13853
0.138481
0.138433
0.138385
0.138338
0.138292
0.138247
0.138203
0.138159
0.138117
0.138076
0.138035
0.137996
0.137958
0.13792
0.137884
0.137849
0.137816
0.137783
0.137752
0.137721
0.137692
0.137665
0.137638
0.137613
0.137588
0.137566
0.137544
0.137524
0.137504
0.137486
0.13747
0.137454
0.13744
0.137427
0.137415
0.137405
0.137396
0.137388
0.137381
0.137375
0.137371
0.137368
0.137367
0.137366
0.137367
0.137369
0.137373
0.137378
0.137384
0.137391
0.1374
0.13741
0.137422
0.137435
0.137449
0.137465
0.137482
0.1375
0.13752
0.137541
0.137564
0.137588
0.137613
0.137639
0.137667
0.137696
0.137726
0.137757
0.13779
0.137823
0.137858
0.137893
0.137929
0.137967
0.138005
0.138044
0.138084
0.138124
0.138166
0.138209
0.138253
0.138298
0.138345
0.138395
0.138447
0.138504
0.138566
0.138635
0.138713
0.138804
0.138911
0.139039
0.139973
0.139919
0.139864
0.139809
0.139755
0.1397
0.139645
0.13959
0.139535
0.13948
0.139425
0.13937
0.139315
0.13926
0.139205
0.139151
0.139097
0.139042
0.138988
0.138935
0.138881
0.138828
0.138776
0.138724
0.138672
0.138621
0.13857
0.138521
0.138471
0.138423
0.138375
0.138328
0.138282
0.138236
0.138192
0.138149
0.138106
0.138065
0.138024
0.137985
0.137947
0.137909
0.137873
0.137839
0.137805
0.137772
0.137741
0.137711
0.137682
0.137654
0.137628
0.137602
0.137578
0.137555
0.137534
0.137513
0.137494
0.137476
0.137459
0.137444
0.13743
0.137417
0.137405
0.137394
0.137385
0.137377
0.13737
0.137364
0.13736
0.137356
0.137355
0.137354
0.137355
0.137357
0.13736
0.137364
0.13737
0.137378
0.137386
0.137396
0.137407
0.13742
0.137434
0.13745
0.137466
0.137485
0.137504
0.137525
0.137547
0.137571
0.137596
0.137622
0.13765
0.137678
0.137708
0.13774
0.137772
0.137805
0.13784
0.137875
0.137911
0.137949
0.137987
0.138026
0.138066
0.138106
0.138148
0.138191
0.138235
0.138281
0.138328
0.138378
0.138431
0.138488
0.138551
0.13862
0.1387
0.138792
0.138901
0.139031
0.139973
0.139918
0.139863
0.139808
0.139753
0.139698
0.139643
0.139587
0.139532
0.139477
0.139421
0.139366
0.139311
0.139255
0.1392
0.139145
0.139091
0.139036
0.138982
0.138928
0.138874
0.138821
0.138768
0.138715
0.138663
0.138612
0.138561
0.138511
0.138461
0.138412
0.138365
0.138317
0.138271
0.138226
0.138181
0.138138
0.138095
0.138054
0.138013
0.137974
0.137935
0.137898
0.137862
0.137827
0.137794
0.137761
0.13773
0.1377
0.137671
0.137643
0.137617
0.137592
0.137568
0.137545
0.137523
0.137503
0.137483
0.137465
0.137449
0.137433
0.137419
0.137405
0.137393
0.137383
0.137373
0.137365
0.137358
0.137352
0.137347
0.137344
0.137342
0.137341
0.137341
0.137343
0.137346
0.13735
0.137356
0.137363
0.137371
0.137381
0.137392
0.137404
0.137418
0.137433
0.13745
0.137468
0.137487
0.137508
0.13753
0.137553
0.137578
0.137604
0.137631
0.13766
0.13769
0.137721
0.137753
0.137787
0.137821
0.137856
0.137893
0.13793
0.137968
0.138007
0.138047
0.138088
0.13813
0.138173
0.138217
0.138262
0.13831
0.13836
0.138414
0.138471
0.138535
0.138606
0.138686
0.13878
0.138891
0.139022
0.139973
0.139918
0.139862
0.139807
0.139752
0.139696
0.139641
0.139585
0.139529
0.139474
0.139418
0.139362
0.139306
0.139251
0.139195
0.13914
0.139085
0.13903
0.138975
0.13892
0.138866
0.138813
0.138759
0.138706
0.138654
0.138602
0.138551
0.138501
0.138451
0.138402
0.138354
0.138307
0.13826
0.138215
0.13817
0.138126
0.138084
0.138042
0.138002
0.137962
0.137924
0.137887
0.137851
0.137816
0.137783
0.13775
0.137719
0.137689
0.13766
0.137632
0.137606
0.137581
0.137557
0.137534
0.137512
0.137492
0.137472
0.137454
0.137437
0.137422
0.137407
0.137394
0.137382
0.137371
0.137361
0.137352
0.137345
0.137339
0.137334
0.137331
0.137328
0.137327
0.137327
0.137329
0.137331
0.137335
0.137341
0.137347
0.137355
0.137365
0.137376
0.137388
0.137401
0.137416
0.137432
0.13745
0.137469
0.13749
0.137512
0.137535
0.137559
0.137585
0.137612
0.137641
0.137671
0.137702
0.137734
0.137767
0.137801
0.137837
0.137873
0.13791
0.137948
0.137988
0.138028
0.138068
0.13811
0.138153
0.138198
0.138244
0.138292
0.138342
0.138396
0.138455
0.138519
0.13859
0.138672
0.138768
0.13888
0.139013
0.139972
0.139917
0.139862
0.139806
0.13975
0.139694
0.139639
0.139582
0.139526
0.13947
0.139414
0.139358
0.139302
0.139246
0.13919
0.139134
0.139078
0.139023
0.138968
0.138913
0.138858
0.138804
0.138751
0.138697
0.138645
0.138593
0.138541
0.138491
0.138441
0.138391
0.138343
0.138296
0.138249
0.138203
0.138159
0.138115
0.138072
0.138031
0.13799
0.137951
0.137913
0.137876
0.13784
0.137805
0.137772
0.137739
0.137708
0.137678
0.137649
0.137621
0.137595
0.13757
0.137546
0.137523
0.137501
0.13748
0.137461
0.137443
0.137426
0.13741
0.137395
0.137382
0.137369
0.137358
0.137348
0.13734
0.137332
0.137326
0.137321
0.137317
0.137314
0.137313
0.137312
0.137314
0.137316
0.13732
0.137325
0.137331
0.137339
0.137348
0.137359
0.13737
0.137384
0.137398
0.137414
0.137432
0.137451
0.137471
0.137493
0.137516
0.13754
0.137566
0.137593
0.137621
0.137651
0.137682
0.137714
0.137747
0.137781
0.137817
0.137853
0.13789
0.137928
0.137967
0.138008
0.138049
0.138091
0.138134
0.138179
0.138225
0.138273
0.138324
0.138378
0.138437
0.138502
0.138575
0.138658
0.138755
0.138869
0.139003
0.139972
0.139917
0.139861
0.139805
0.139749
0.139693
0.139636
0.13958
0.139523
0.139467
0.13941
0.139354
0.139297
0.139241
0.139184
0.139128
0.139072
0.139016
0.138961
0.138905
0.13885
0.138796
0.138742
0.138688
0.138635
0.138583
0.138531
0.13848
0.13843
0.138381
0.138332
0.138285
0.138238
0.138192
0.138147
0.138104
0.138061
0.13802
0.137979
0.13794
0.137902
0.137865
0.137829
0.137794
0.13776
0.137728
0.137697
0.137667
0.137638
0.13761
0.137584
0.137559
0.137534
0.137511
0.13749
0.137469
0.13745
0.137431
0.137414
0.137398
0.137383
0.137369
0.137357
0.137345
0.137335
0.137326
0.137318
0.137312
0.137306
0.137302
0.137299
0.137297
0.137297
0.137298
0.1373
0.137303
0.137308
0.137314
0.137322
0.137331
0.137341
0.137352
0.137365
0.13738
0.137396
0.137413
0.137431
0.137451
0.137473
0.137496
0.13752
0.137546
0.137572
0.137601
0.13763
0.137661
0.137693
0.137726
0.137761
0.137796
0.137832
0.137869
0.137908
0.137947
0.137987
0.138028
0.138071
0.138114
0.138159
0.138205
0.138254
0.138305
0.13836
0.13842
0.138485
0.138559
0.138643
0.138742
0.138857
0.138993
0.139972
0.139916
0.13986
0.139804
0.139747
0.139691
0.139634
0.139577
0.13952
0.139464
0.139407
0.13935
0.139293
0.139236
0.139179
0.139122
0.139066
0.139009
0.138953
0.138898
0.138842
0.138787
0.138733
0.138679
0.138626
0.138573
0.138521
0.13847
0.13842
0.13837
0.138321
0.138274
0.138227
0.138181
0.138136
0.138092
0.13805
0.138008
0.137968
0.137929
0.13789
0.137853
0.137818
0.137783
0.137749
0.137717
0.137686
0.137656
0.137627
0.137599
0.137573
0.137547
0.137523
0.1375
0.137478
0.137457
0.137438
0.137419
0.137402
0.137386
0.137371
0.137357
0.137344
0.137332
0.137322
0.137312
0.137304
0.137297
0.137292
0.137287
0.137284
0.137282
0.137281
0.137282
0.137283
0.137287
0.137291
0.137297
0.137304
0.137312
0.137322
0.137334
0.137346
0.137361
0.137376
0.137393
0.137412
0.137431
0.137453
0.137475
0.137499
0.137525
0.137552
0.13758
0.137609
0.13764
0.137672
0.137705
0.137739
0.137775
0.137811
0.137848
0.137887
0.137926
0.137966
0.138008
0.13805
0.138094
0.138139
0.138186
0.138235
0.138286
0.138342
0.138402
0.138468
0.138543
0.138629
0.138728
0.138845
0.138983
0.139972
0.139916
0.139859
0.139803
0.139746
0.139689
0.139632
0.139575
0.139517
0.13946
0.139403
0.139345
0.139288
0.139231
0.139173
0.139116
0.139059
0.139002
0.138946
0.13889
0.138834
0.138779
0.138724
0.13867
0.138616
0.138563
0.138511
0.13846
0.138409
0.138359
0.13831
0.138263
0.138216
0.13817
0.138125
0.138081
0.138039
0.137997
0.137957
0.137918
0.137879
0.137842
0.137807
0.137772
0.137738
0.137706
0.137675
0.137645
0.137616
0.137588
0.137562
0.137536
0.137512
0.137489
0.137467
0.137446
0.137426
0.137407
0.13739
0.137373
0.137358
0.137344
0.13733
0.137319
0.137308
0.137298
0.13729
0.137282
0.137276
0.137272
0.137268
0.137266
0.137265
0.137265
0.137266
0.137269
0.137273
0.137279
0.137286
0.137294
0.137303
0.137315
0.137327
0.137341
0.137356
0.137373
0.137391
0.137411
0.137432
0.137454
0.137478
0.137504
0.13753
0.137559
0.137588
0.137619
0.137651
0.137684
0.137718
0.137753
0.13779
0.137827
0.137865
0.137905
0.137945
0.137987
0.138029
0.138073
0.138118
0.138165
0.138215
0.138267
0.138323
0.138384
0.138451
0.138526
0.138613
0.138714
0.138833
0.138972
0.139972
0.139915
0.139859
0.139802
0.139745
0.139687
0.13963
0.139572
0.139514
0.139457
0.139399
0.139341
0.139283
0.139225
0.139168
0.13911
0.139053
0.138995
0.138939
0.138882
0.138826
0.13877
0.138715
0.13866
0.138607
0.138553
0.138501
0.138449
0.138399
0.138349
0.1383
0.138252
0.138205
0.138159
0.138114
0.138071
0.138028
0.137986
0.137946
0.137907
0.137869
0.137832
0.137796
0.137761
0.137728
0.137695
0.137664
0.137634
0.137605
0.137577
0.137551
0.137525
0.137501
0.137477
0.137455
0.137434
0.137414
0.137395
0.137377
0.13736
0.137345
0.13733
0.137317
0.137305
0.137293
0.137283
0.137275
0.137267
0.137261
0.137256
0.137252
0.137249
0.137247
0.137247
0.137249
0.137251
0.137255
0.13726
0.137267
0.137275
0.137284
0.137295
0.137307
0.137321
0.137336
0.137352
0.13737
0.13739
0.137411
0.137433
0.137457
0.137482
0.137509
0.137537
0.137566
0.137597
0.137629
0.137662
0.137696
0.137731
0.137768
0.137805
0.137844
0.137883
0.137924
0.137965
0.138008
0.138052
0.138098
0.138145
0.138195
0.138247
0.138304
0.138365
0.138433
0.13851
0.138598
0.1387
0.13882
0.13896
0.139972
0.139915
0.139858
0.139801
0.139743
0.139685
0.139627
0.13957
0.139511
0.139453
0.139395
0.139337
0.139278
0.13922
0.139162
0.139104
0.139046
0.138988
0.138931
0.138874
0.138818
0.138762
0.138706
0.138651
0.138597
0.138544
0.138491
0.138439
0.138388
0.138338
0.138289
0.138241
0.138194
0.138148
0.138104
0.13806
0.138017
0.137976
0.137935
0.137896
0.137858
0.137821
0.137785
0.137751
0.137717
0.137685
0.137654
0.137623
0.137594
0.137566
0.13754
0.137514
0.137489
0.137466
0.137443
0.137422
0.137402
0.137382
0.137364
0.137347
0.137331
0.137316
0.137303
0.13729
0.137279
0.137268
0.137259
0.137251
0.137245
0.137239
0.137235
0.137232
0.13723
0.13723
0.13723
0.137233
0.137236
0.137241
0.137247
0.137255
0.137264
0.137275
0.137287
0.1373
0.137315
0.137331
0.137349
0.137368
0.137389
0.137411
0.137435
0.13746
0.137487
0.137515
0.137544
0.137575
0.137606
0.137639
0.137674
0.137709
0.137745
0.137783
0.137822
0.137861
0.137902
0.137943
0.137986
0.138031
0.138076
0.138124
0.138174
0.138227
0.138284
0.138346
0.138415
0.138492
0.138582
0.138685
0.138806
0.138948
0.139972
0.139914
0.139857
0.139799
0.139742
0.139683
0.139625
0.139567
0.139508
0.13945
0.139391
0.139332
0.139274
0.139215
0.139156
0.139098
0.139039
0.138981
0.138924
0.138866
0.138809
0.138753
0.138697
0.138642
0.138588
0.138534
0.138481
0.138429
0.138378
0.138328
0.138279
0.138231
0.138184
0.138138
0.138093
0.13805
0.138007
0.137966
0.137925
0.137886
0.137848
0.137811
0.137775
0.13774
0.137707
0.137674
0.137643
0.137613
0.137584
0.137556
0.137529
0.137503
0.137478
0.137454
0.137431
0.13741
0.137389
0.13737
0.137351
0.137334
0.137318
0.137302
0.137288
0.137275
0.137264
0.137253
0.137243
0.137235
0.137228
0.137222
0.137218
0.137214
0.137212
0.137211
0.137212
0.137214
0.137217
0.137221
0.137227
0.137235
0.137244
0.137254
0.137266
0.137279
0.137294
0.13731
0.137327
0.137347
0.137367
0.137389
0.137413
0.137438
0.137464
0.137492
0.137521
0.137552
0.137584
0.137617
0.137651
0.137686
0.137723
0.13776
0.137799
0.137839
0.137879
0.137921
0.137964
0.138009
0.138055
0.138103
0.138153
0.138207
0.138264
0.138327
0.138396
0.138475
0.138565
0.13867
0.138793
0.138936
0.139971
0.139914
0.139856
0.139798
0.13974
0.139682
0.139623
0.139564
0.139505
0.139446
0.139387
0.139328
0.139269
0.13921
0.13915
0.139091
0.139033
0.138974
0.138916
0.138858
0.138801
0.138744
0.138688
0.138633
0.138578
0.138524
0.138471
0.138419
0.138368
0.138318
0.138269
0.138221
0.138174
0.138128
0.138083
0.13804
0.137997
0.137956
0.137915
0.137876
0.137838
0.137801
0.137765
0.13773
0.137697
0.137664
0.137633
0.137603
0.137573
0.137545
0.137518
0.137492
0.137467
0.137443
0.13742
0.137398
0.137377
0.137357
0.137338
0.13732
0.137304
0.137288
0.137274
0.13726
0.137248
0.137237
0.137227
0.137219
0.137211
0.137205
0.1372
0.137196
0.137194
0.137193
0.137193
0.137194
0.137197
0.137202
0.137207
0.137214
0.137223
0.137233
0.137245
0.137258
0.137272
0.137288
0.137305
0.137324
0.137345
0.137367
0.13739
0.137415
0.137442
0.137469
0.137499
0.137529
0.137561
0.137594
0.137628
0.137664
0.1377
0.137738
0.137776
0.137816
0.137857
0.137899
0.137942
0.137987
0.138033
0.138081
0.138132
0.138186
0.138244
0.138307
0.138378
0.138457
0.138549
0.138655
0.138779
0.138924
0.139971
0.139914
0.139855
0.139797
0.139739
0.13968
0.139621
0.139562
0.139502
0.139443
0.139383
0.139324
0.139264
0.139204
0.139145
0.139085
0.139026
0.138967
0.138909
0.138851
0.138793
0.138736
0.13868
0.138624
0.138569
0.138515
0.138462
0.13841
0.138359
0.138308
0.138259
0.138211
0.138164
0.138118
0.138074
0.13803
0.137987
0.137946
0.137906
0.137866
0.137828
0.137791
0.137756
0.137721
0.137687
0.137654
0.137623
0.137592
0.137563
0.137534
0.137507
0.137481
0.137455
0.137431
0.137408
0.137385
0.137364
0.137344
0.137325
0.137307
0.13729
0.137274
0.137259
0.137245
0.137232
0.137221
0.137211
0.137202
0.137194
0.137187
0.137182
0.137178
0.137175
0.137173
0.137173
0.137175
0.137177
0.137181
0.137187
0.137194
0.137202
0.137212
0.137223
0.137236
0.13725
0.137266
0.137283
0.137302
0.137322
0.137344
0.137367
0.137392
0.137419
0.137446
0.137476
0.137506
0.137538
0.137571
0.137605
0.13764
0.137677
0.137714
0.137753
0.137793
0.137834
0.137876
0.13792
0.137964
0.138011
0.138059
0.138111
0.138165
0.138223
0.138287
0.138358
0.138439
0.138531
0.138639
0.138764
0.138911
0.139971
0.139913
0.139855
0.139796
0.139737
0.139678
0.139619
0.139559
0.139499
0.139439
0.139379
0.139319
0.139259
0.139199
0.139139
0.139079
0.139019
0.13896
0.138901
0.138843
0.138785
0.138728
0.138671
0.138615
0.13856
0.138506
0.138453
0.1384
0.138349
0.138299
0.13825
0.138202
0.138155
0.138109
0.138064
0.138021
0.137978
0.137937
0.137896
0.137857
0.137819
0.137782
0.137746
0.137711
0.137677
0.137645
0.137613
0.137582
0.137552
0.137524
0.137496
0.137469
0.137444
0.137419
0.137395
0.137373
0.137351
0.137331
0.137311
0.137293
0.137275
0.137259
0.137244
0.137229
0.137216
0.137205
0.137194
0.137184
0.137176
0.137169
0.137163
0.137159
0.137156
0.137154
0.137154
0.137155
0.137157
0.137161
0.137166
0.137172
0.13718
0.13719
0.137201
0.137214
0.137228
0.137243
0.13726
0.137279
0.137299
0.137321
0.137344
0.137369
0.137395
0.137423
0.137452
0.137482
0.137514
0.137547
0.137581
0.137617
0.137653
0.137691
0.13773
0.13777
0.137811
0.137853
0.137897
0.137942
0.137988
0.138037
0.138089
0.138143
0.138202
0.138267
0.138339
0.13842
0.138514
0.138623
0.138749
0.138898
0.139971
0.139913
0.139854
0.139795
0.139736
0.139676
0.139616
0.139556
0.139496
0.139436
0.139375
0.139315
0.139254
0.139194
0.139133
0.139073
0.139013
0.138953
0.138894
0.138835
0.138777
0.138719
0.138662
0.138606
0.138551
0.138497
0.138444
0.138391
0.13834
0.13829
0.138241
0.138193
0.138146
0.1381
0.138055
0.138012
0.137969
0.137928
0.137887
0.137848
0.13781
0.137773
0.137737
0.137702
0.137668
0.137635
0.137603
0.137572
0.137542
0.137513
0.137485
0.137458
0.137432
0.137407
0.137383
0.13736
0.137338
0.137317
0.137297
0.137278
0.137261
0.137244
0.137228
0.137214
0.1372
0.137188
0.137177
0.137167
0.137158
0.137151
0.137145
0.13714
0.137137
0.137134
0.137134
0.137134
0.137136
0.13714
0.137145
0.137151
0.137159
0.137168
0.137179
0.137191
0.137205
0.137221
0.137238
0.137256
0.137276
0.137298
0.137321
0.137346
0.137372
0.137399
0.137428
0.137459
0.13749
0.137523
0.137557
0.137593
0.137629
0.137667
0.137706
0.137746
0.137787
0.137829
0.137873
0.137918
0.137965
0.138014
0.138066
0.138121
0.138181
0.138246
0.138319
0.138401
0.138496
0.138606
0.138734
0.138884
0.139971
0.139912
0.139853
0.139794
0.139734
0.139674
0.139614
0.139554
0.139493
0.139432
0.139371
0.13931
0.139249
0.139188
0.139127
0.139067
0.139006
0.138946
0.138887
0.138827
0.138769
0.138711
0.138654
0.138598
0.138543
0.138488
0.138435
0.138383
0.138331
0.138281
0.138232
0.138184
0.138137
0.138091
0.138047
0.138003
0.137961
0.137919
0.137879
0.13784
0.137801
0.137764
0.137728
0.137693
0.137659
0.137626
0.137593
0.137562
0.137532
0.137503
0.137474
0.137447
0.137421
0.137395
0.137371
0.137347
0.137325
0.137304
0.137283
0.137264
0.137246
0.137228
0.137212
0.137197
0.137184
0.137171
0.137159
0.137149
0.13714
0.137132
0.137126
0.137121
0.137117
0.137114
0.137113
0.137114
0.137115
0.137118
0.137123
0.137129
0.137137
0.137146
0.137156
0.137169
0.137182
0.137198
0.137214
0.137233
0.137253
0.137274
0.137297
0.137322
0.137348
0.137375
0.137404
0.137434
0.137466
0.137499
0.137533
0.137568
0.137605
0.137643
0.137682
0.137722
0.137763
0.137805
0.137849
0.137895
0.137942
0.137991
0.138043
0.138099
0.138159
0.138225
0.138298
0.138381
0.138477
0.138589
0.138719
0.13887
0.139971
0.139912
0.139852
0.139793
0.139733
0.139672
0.139612
0.139551
0.13949
0.139429
0.139367
0.139306
0.139244
0.139183
0.139122
0.139061
0.139
0.138939
0.138879
0.13882
0.138761
0.138703
0.138646
0.13859
0.138534
0.13848
0.138426
0.138374
0.138323
0.138273
0.138224
0.138176
0.138129
0.138083
0.138039
0.137995
0.137953
0.137911
0.137871
0.137831
0.137793
0.137756
0.137719
0.137684
0.13765
0.137616
0.137584
0.137552
0.137522
0.137492
0.137464
0.137436
0.137409
0.137383
0.137358
0.137335
0.137312
0.13729
0.137269
0.137249
0.137231
0.137213
0.137196
0.137181
0.137167
0.137154
0.137142
0.137131
0.137122
0.137113
0.137107
0.137101
0.137097
0.137094
0.137093
0.137093
0.137094
0.137097
0.137101
0.137107
0.137114
0.137123
0.137134
0.137146
0.137159
0.137174
0.137191
0.137209
0.137229
0.13725
0.137273
0.137298
0.137324
0.137351
0.13738
0.13741
0.137442
0.137474
0.137508
0.137544
0.13758
0.137618
0.137657
0.137697
0.137738
0.137781
0.137825
0.137871
0.137918
0.137968
0.13802
0.138076
0.138137
0.138203
0.138277
0.138361
0.138459
0.138571
0.138703
0.138856
0.139971
0.139911
0.139852
0.139792
0.139731
0.13967
0.13961
0.139548
0.139487
0.139425
0.139363
0.139302
0.13924
0.139178
0.139116
0.139054
0.138993
0.138932
0.138872
0.138813
0.138754
0.138695
0.138638
0.138582
0.138526
0.138472
0.138418
0.138366
0.138315
0.138265
0.138216
0.138168
0.138121
0.138075
0.138031
0.137987
0.137945
0.137903
0.137863
0.137823
0.137785
0.137748
0.137711
0.137676
0.137641
0.137607
0.137575
0.137543
0.137512
0.137482
0.137453
0.137425
0.137397
0.137371
0.137346
0.137322
0.137298
0.137276
0.137255
0.137234
0.137215
0.137197
0.13718
0.137164
0.13715
0.137136
0.137124
0.137113
0.137103
0.137094
0.137087
0.137081
0.137077
0.137074
0.137072
0.137072
0.137073
0.137075
0.137079
0.137085
0.137092
0.137101
0.137111
0.137123
0.137136
0.137151
0.137167
0.137185
0.137205
0.137226
0.137249
0.137273
0.137299
0.137326
0.137355
0.137385
0.137417
0.137449
0.137483
0.137519
0.137555
0.137593
0.137632
0.137672
0.137714
0.137756
0.1378
0.137846
0.137894
0.137944
0.137997
0.138053
0.138114
0.138181
0.138256
0.138341
0.138439
0.138554
0.138686
0.138842
0.13997
0.139911
0.139851
0.13979
0.13973
0.139669
0.139607
0.139546
0.139484
0.139422
0.139359
0.139297
0.139235
0.139172
0.13911
0.139048
0.138987
0.138926
0.138865
0.138805
0.138746
0.138688
0.13863
0.138574
0.138518
0.138464
0.13841
0.138358
0.138307
0.138257
0.138208
0.13816
0.138114
0.138068
0.138023
0.13798
0.137937
0.137896
0.137855
0.137816
0.137777
0.13774
0.137703
0.137667
0.137632
0.137598
0.137565
0.137533
0.137502
0.137471
0.137442
0.137413
0.137386
0.137359
0.137333
0.137308
0.137285
0.137262
0.13724
0.137219
0.1372
0.137181
0.137164
0.137147
0.137132
0.137118
0.137106
0.137094
0.137084
0.137075
0.137068
0.137061
0.137056
0.137053
0.137051
0.13705
0.137051
0.137053
0.137057
0.137062
0.137069
0.137078
0.137088
0.137099
0.137112
0.137127
0.137143
0.137161
0.137181
0.137202
0.137224
0.137249
0.137274
0.137301
0.13733
0.13736
0.137391
0.137424
0.137458
0.137493
0.13753
0.137568
0.137607
0.137647
0.137688
0.137731
0.137775
0.137821
0.137869
0.137919
0.137972
0.138029
0.138091
0.138158
0.138234
0.13832
0.13842
0.138535
0.138669
0.138827
0.13997
0.13991
0.13985
0.139789
0.139728
0.139667
0.139605
0.139543
0.139481
0.139418
0.139356
0.139293
0.13923
0.139167
0.139105
0.139042
0.13898
0.138919
0.138858
0.138798
0.138739
0.13868
0.138623
0.138566
0.138511
0.138456
0.138403
0.138351
0.1383
0.13825
0.138201
0.138153
0.138107
0.138061
0.138016
0.137973
0.13793
0.137889
0.137848
0.137808
0.13777
0.137732
0.137695
0.137659
0.137624
0.137589
0.137556
0.137523
0.137492
0.137461
0.137431
0.137402
0.137374
0.137347
0.13732