/*--------------------------------*- C++ -*----------------------------------*\
  =========                 |
  \\      /  F ield         | OpenFOAM: The Open Source CFD Toolbox
   \\    /   O peration     | Website:  https://openfoam.org
    \\  /    A nd           | Version:  8
     \\/     M anipulation  |
\*---------------------------------------------------------------------------*/
FoamFile
{
    version     2.0;
    format      ascii;
    class       volScalarField;
    location    "1.8";
    object      nut;
}
// * * * * * * * * * * * * * * * * * * * * * * * * * * * * * * * * * * * * * //

dimensions      [0 2 -1 0 0 0 0];

internalField   nonuniform List<scalar> 
10000
(
6.26269e+49
4.0819e+49
2.65959e+49
1.73253e+49
1.12849e+49
7.34999e+48
4.787e+48
3.1177e+48
2.03049e+48
1.32241e+48
8.61254e+47
5.60914e+47
3.65309e+47
2.37917e+47
1.54949e+47
1.00914e+47
6.5723e+46
4.28037e+46
2.7877e+46
1.81556e+46
1.18243e+46
7.70085e+45
5.01537e+45
3.26638e+45
2.12731e+45
1.38546e+45
9.02318e+44
5.87657e+44
3.82726e+44
2.4926e+44
1.62337e+44
1.05726e+44
6.88565e+43
4.48445e+43
2.92061e+43
1.90212e+43
1.2388e+43
8.06801e+42
5.25449e+42
3.42212e+42
2.22874e+42
1.45152e+42
9.45339e+41
6.15675e+41
4.00974e+41
2.61144e+41
1.70077e+41
1.10767e+41
7.21395e+40
4.69826e+40
3.05986e+40
1.99281e+40
1.29787e+40
8.45267e+39
5.50501e+39
3.58528e+39
2.335e+39
1.52073e+39
9.9041e+38
6.45029e+38
4.20091e+38
2.73595e+38
1.78185e+38
1.16048e+38
7.55789e+37
4.92226e+37
3.20575e+37
2.08782e+37
1.35975e+37
8.85568e+36
5.76748e+36
3.75621e+36
2.44633e+36
1.59323e+36
1.03763e+36
6.75783e+35
4.4012e+35
2.86639e+35
1.86681e+35
1.21581e+35
7.91824e+34
5.15695e+34
3.35859e+34
2.18736e+34
1.42458e+34
9.2779e+33
6.04246e+33
3.9353e+33
2.56296e+33
1.66919e+33
1.0871e+33
7.08003e+32
4.61104e+32
3.00306e+32
1.95581e+32
1.27373e+32
8.28738e+31
5.35404e+31
3.32405e+31
1.59954e+31
4.0819e+49
2.66047e+49
1.73343e+49
1.12919e+49
7.35495e+48
4.79035e+48
3.11992e+48
2.03195e+48
1.32336e+48
8.61874e+47
5.61318e+47
3.65572e+47
2.38088e+47
1.55061e+47
1.00987e+47
6.57703e+46
4.28345e+46
2.78971e+46
1.81686e+46
1.18328e+46
7.70639e+45
5.01898e+45
3.26873e+45
2.12884e+45
1.38646e+45
9.02968e+44
5.8808e+44
3.83002e+44
2.49439e+44
1.62454e+44
1.05802e+44
6.89061e+43
4.48768e+43
2.92271e+43
1.90349e+43
1.23969e+43
8.07382e+42
5.25827e+42
3.42458e+42
2.23034e+42
1.45257e+42
9.46019e+41
6.16119e+41
4.01262e+41
2.61332e+41
1.70199e+41
1.10846e+41
7.21914e+40
4.70164e+40
3.06206e+40
1.99424e+40
1.2988e+40
8.45876e+39
5.50898e+39
3.58786e+39
2.33668e+39
1.52182e+39
9.91124e+38
6.45494e+38
4.20394e+38
2.73792e+38
1.78314e+38
1.16131e+38
7.56333e+37
4.92581e+37
3.20805e+37
2.08932e+37
1.36072e+37
8.86205e+36
5.77163e+36
3.75892e+36
2.44809e+36
1.59438e+36
1.03838e+36
6.7627e+35
4.40437e+35
2.86846e+35
1.86815e+35
1.21668e+35
7.92394e+34
5.16066e+34
3.36101e+34
2.18894e+34
1.4256e+34
9.28458e+33
6.04681e+33
3.93814e+33
2.56481e+33
1.67039e+33
1.08789e+33
7.08513e+32
4.61436e+32
3.00522e+32
1.95722e+32
1.27469e+32
8.30143e+31
5.40202e+31
3.49859e+31
2.23822e+31
1.51977e+31
2.65959e+49
1.73343e+49
1.12939e+49
7.35696e+48
4.79186e+48
3.12095e+48
2.03263e+48
1.32381e+48
8.62165e+47
5.61506e+47
3.65694e+47
2.38167e+47
1.55112e+47
1.01021e+47
6.57922e+46
4.28488e+46
2.79063e+46
1.81747e+46
1.18367e+46
7.70896e+45
5.02065e+45
3.26982e+45
2.12955e+45
1.38692e+45
9.03268e+44
5.88276e+44
3.83129e+44
2.49522e+44
1.62508e+44
1.05837e+44
6.8929e+43
4.48917e+43
2.92369e+43
1.90412e+43
1.24011e+43
8.0765e+42
5.26002e+42
3.42572e+42
2.23108e+42
1.45305e+42
9.46334e+41
6.16323e+41
4.01396e+41
2.61419e+41
1.70256e+41
1.10883e+41
7.22154e+40
4.70321e+40
3.06308e+40
1.99491e+40
1.29923e+40
8.46157e+39
5.51081e+39
3.58905e+39
2.33746e+39
1.52233e+39
9.91453e+38
6.45708e+38
4.20534e+38
2.73883e+38
1.78373e+38
1.1617e+38
7.56585e+37
4.92745e+37
3.20912e+37
2.09002e+37
1.36118e+37
8.865e+36
5.77355e+36
3.76017e+36
2.4489e+36
1.59491e+36
1.03872e+36
6.76494e+35
4.40584e+35
2.86941e+35
1.86877e+35
1.21709e+35
7.92657e+34
5.16238e+34
3.36213e+34
2.18967e+34
1.42608e+34
9.28767e+33
6.04882e+33
3.93945e+33
2.56566e+33
1.67095e+33
1.08825e+33
7.08748e+32
4.6159e+32
3.00622e+32
1.95787e+32
1.27511e+32
8.3045e+31
5.40831e+31
3.52023e+31
2.28677e+31
1.49838e+31
1.14074e+31
1.73253e+49
1.12919e+49
7.35696e+48
4.79228e+48
3.12133e+48
2.0329e+48
1.32398e+48
8.62271e+47
5.61572e+47
3.65735e+47
2.38193e+47
1.55129e+47
1.01031e+47
6.5799e+46
4.28532e+46
2.79092e+46
1.81765e+46
1.18379e+46
7.70974e+45
5.02116e+45
3.27015e+45
2.12977e+45
1.38706e+45
9.03359e+44
5.88335e+44
3.83168e+44
2.49548e+44
1.62524e+44
1.05848e+44
6.8936e+43
4.48963e+43
2.92398e+43
1.90431e+43
1.24023e+43
8.07732e+42
5.26055e+42
3.42607e+42
2.23131e+42
1.4532e+42
9.4643e+41
6.16386e+41
4.01436e+41
2.61445e+41
1.70273e+41
1.10894e+41
7.22227e+40
4.70368e+40
3.06339e+40
1.99511e+40
1.29936e+40
8.46243e+39
5.51136e+39
3.58941e+39
2.33769e+39
1.52248e+39
9.91553e+38
6.45774e+38
4.20576e+38
2.73911e+38
1.78391e+38
1.16182e+38
7.56661e+37
4.92794e+37
3.20945e+37
2.09023e+37
1.36131e+37
8.8659e+36
5.77413e+36
3.76055e+36
2.44915e+36
1.59507e+36
1.03883e+36
6.76563e+35
4.40628e+35
2.8697e+35
1.86896e+35
1.21721e+35
7.92737e+34
5.1629e+34
3.36246e+34
2.18989e+34
1.42622e+34
9.2886e+33
6.04943e+33
3.93984e+33
2.56592e+33
1.67112e+33
1.08836e+33
7.0882e+32
4.61636e+32
3.00652e+32
1.95807e+32
1.27524e+32
8.30534e+31
5.40906e+31
3.52265e+31
2.29339e+31
1.49322e+31
9.9283e+30
7.92763e+30
1.12849e+49
7.35495e+48
4.79186e+48
3.12133e+48
2.03296e+48
1.32402e+48
8.62292e+47
5.61579e+47
3.65736e+47
2.38191e+47
1.55126e+47
1.01029e+47
6.57974e+46
4.28521e+46
2.79084e+46
1.8176e+46
1.18376e+46
7.7095e+45
5.021e+45
3.27005e+45
2.1297e+45
1.38702e+45
9.03332e+44
5.88317e+44
3.83156e+44
2.4954e+44
1.62519e+44
1.05845e+44
6.89339e+43
4.48949e+43
2.92389e+43
1.90426e+43
1.24019e+43
8.07707e+42
5.26039e+42
3.42596e+42
2.23124e+42
1.45315e+42
9.464e+41
6.16367e+41
4.01424e+41
2.61437e+41
1.70268e+41
1.10891e+41
7.22205e+40
4.70354e+40
3.06329e+40
1.99505e+40
1.29932e+40
8.46217e+39
5.51119e+39
3.5893e+39
2.33762e+39
1.52243e+39
9.91523e+38
6.45754e+38
4.20563e+38
2.73902e+38
1.78386e+38
1.16178e+38
7.56638e+37
4.92779e+37
3.20935e+37
2.09017e+37
1.36127e+37
8.86562e+36
5.77396e+36
3.76043e+36
2.44907e+36
1.59502e+36
1.0388e+36
6.76542e+35
4.40615e+35
2.86961e+35
1.86891e+35
1.21717e+35
7.92713e+34
5.16274e+34
3.36236e+34
2.18982e+34
1.42617e+34
9.28832e+33
6.04925e+33
3.93972e+33
2.56584e+33
1.67107e+33
1.08832e+33
7.08798e+32
4.61622e+32
3.00643e+32
1.95801e+32
1.2752e+32
8.30508e+31
5.40889e+31
3.52267e+31
2.29415e+31
1.49377e+31
9.74129e+30
6.55012e+30
5.43625e+30
7.34999e+48
4.79035e+48
3.12095e+48
2.0329e+48
1.32402e+48
8.62292e+47
5.61571e+47
3.65724e+47
2.3818e+47
1.55117e+47
1.01022e+47
6.5792e+46
4.28483e+46
2.79058e+46
1.81743e+46
1.18364e+46
7.70873e+45
5.0205e+45
3.26972e+45
2.12948e+45
1.38688e+45
9.03239e+44
5.88257e+44
3.83117e+44
2.49514e+44
1.62502e+44
1.05834e+44
6.89268e+43
4.48903e+43
2.92359e+43
1.90406e+43
1.24007e+43
8.07624e+42
5.25985e+42
3.42561e+42
2.23101e+42
1.453e+42
9.46303e+41
6.16303e+41
4.01383e+41
2.6141e+41
1.7025e+41
1.1088e+41
7.2213e+40
4.70305e+40
3.06298e+40
1.99484e+40
1.29919e+40
8.4613e+39
5.51063e+39
3.58893e+39
2.33738e+39
1.52228e+39
9.91421e+38
6.45687e+38
4.2052e+38
2.73874e+38
1.78367e+38
1.16166e+38
7.5656e+37
4.92728e+37
3.20902e+37
2.08995e+37
1.36113e+37
8.86471e+36
5.77336e+36
3.76005e+36
2.44882e+36
1.59486e+36
1.03869e+36
6.76472e+35
4.40569e+35
2.86932e+35
1.86871e+35
1.21705e+35
7.92631e+34
5.16221e+34
3.36202e+34
2.1896e+34
1.42603e+34
9.28736e+33
6.04862e+33
3.93932e+33
2.56558e+33
1.6709e+33
1.08821e+33
7.08725e+32
4.61575e+32
3.00612e+32
1.95781e+32
1.27507e+32
8.30422e+31
5.40833e+31
3.52231e+31
2.29399e+31
1.49395e+31
9.72819e+30
6.35961e+30
4.41704e+30
4.4267e+30
4.787e+48
3.11992e+48
2.03263e+48
1.32398e+48
8.62292e+47
5.61571e+47
3.65719e+47
2.38171e+47
1.55108e+47
1.01014e+47
6.57858e+46
4.28437e+46
2.79026e+46
1.8172e+46
1.18349e+46
7.70771e+45
5.01982e+45
3.26927e+45
2.12919e+45
1.38669e+45
9.03113e+44
5.88174e+44
3.83063e+44
2.49479e+44
1.62479e+44
1.05819e+44
6.89171e+43
4.48839e+43
2.92318e+43
1.90379e+43
1.23989e+43
8.0751e+42
5.25911e+42
3.42512e+42
2.2307e+42
1.4528e+42
9.4617e+41
6.16216e+41
4.01326e+41
2.61374e+41
1.70226e+41
1.10864e+41
7.22029e+40
4.70239e+40
3.06255e+40
1.99456e+40
1.29901e+40
8.4601e+39
5.50985e+39
3.58843e+39
2.33705e+39
1.52206e+39
9.91281e+38
6.45596e+38
4.20461e+38
2.73835e+38
1.78342e+38
1.1615e+38
7.56454e+37
4.92659e+37
3.20856e+37
2.08966e+37
1.36094e+37
8.86346e+36
5.77255e+36
3.75952e+36
2.44848e+36
1.59463e+36
1.03854e+36
6.76377e+35
4.40507e+35
2.86891e+35
1.86845e+35
1.21687e+35
7.9252e+34
5.16148e+34
3.36154e+34
2.18929e+34
1.42583e+34
9.28605e+33
6.04777e+33
3.93876e+33
2.56522e+33
1.67066e+33
1.08806e+33
7.08625e+32
4.6151e+32
3.0057e+32
1.95753e+32
1.27489e+32
8.30305e+31
5.40757e+31
3.52181e+31
2.29367e+31
1.49381e+31
9.72818e+30
6.33523e+30
4.15579e+30
2.99919e+30
3.32497e+30
3.1177e+48
2.03195e+48
1.32381e+48
8.62271e+47
5.61579e+47
3.65724e+47
2.38171e+47
1.55104e+47
1.01009e+47
6.57811e+46
4.28397e+46
2.78995e+46
1.81698e+46
1.18333e+46
7.70663e+45
5.01909e+45
3.26878e+45
2.12886e+45
1.38647e+45
9.02971e+44
5.88081e+44
3.83002e+44
2.49439e+44
1.62453e+44
1.05802e+44
6.8906e+43
4.48768e+43
2.92271e+43
1.90349e+43
1.23969e+43
8.07381e+42
5.25827e+42
3.42458e+42
2.23034e+42
1.45256e+42
9.46018e+41
6.16118e+41
4.01262e+41
2.61332e+41
1.70199e+41
1.10846e+41
7.21913e+40
4.70164e+40
3.06206e+40
1.99424e+40
1.2988e+40
8.45875e+39
5.50897e+39
3.58785e+39
2.33668e+39
1.52182e+39
9.91122e+38
6.45493e+38
4.20393e+38
2.73791e+38
1.78313e+38
1.16131e+38
7.56332e+37
4.9258e+37
3.20805e+37
2.08932e+37
1.36072e+37
8.86204e+36
5.77162e+36
3.75891e+36
2.44809e+36
1.59438e+36
1.03838e+36
6.76269e+35
4.40437e+35
2.86845e+35
1.86815e+35
1.21668e+35
7.92393e+34
5.16065e+34
3.361e+34
2.18894e+34
1.4256e+34
9.28457e+33
6.0468e+33
3.93813e+33
2.5648e+33
1.67039e+33
1.08788e+33
7.08512e+32
4.61436e+32
3.00521e+32
1.95722e+32
1.27469e+32
8.30172e+31
5.4067e+31
3.52125e+31
2.2933e+31
1.49357e+31
9.72725e+30
6.33453e+30
4.12569e+30
2.71777e+30
2.03748e+30
2.40564e+30
2.03049e+48
1.32336e+48
8.62165e+47
5.61572e+47
3.65736e+47
2.3818e+47
1.55108e+47
1.01009e+47
6.57793e+46
4.28375e+46
2.78974e+46
1.8168e+46
1.1832e+46
7.70565e+45
5.01839e+45
3.2683e+45
2.12854e+45
1.38625e+45
9.02826e+44
5.87985e+44
3.82939e+44
2.49398e+44
1.62426e+44
1.05784e+44
6.88944e+43
4.48692e+43
2.92221e+43
1.90316e+43
1.23948e+43
8.07243e+42
5.25737e+42
3.42399e+42
2.22996e+42
1.45232e+42
9.45857e+41
6.16013e+41
4.01194e+41
2.61287e+41
1.7017e+41
1.10827e+41
7.2179e+40
4.70084e+40
3.06154e+40
1.9939e+40
1.29858e+40
8.45731e+39
5.50803e+39
3.58724e+39
2.33628e+39
1.52156e+39
9.90954e+38
6.45383e+38
4.20322e+38
2.73745e+38
1.78283e+38
1.16111e+38
7.56204e+37
4.92496e+37
3.2075e+37
2.08897e+37
1.36049e+37
8.86054e+36
5.77064e+36
3.75827e+36
2.44767e+36
1.5941e+36
1.0382e+36
6.76154e+35
4.40362e+35
2.86796e+35
1.86783e+35
1.21647e+35
7.92258e+34
5.15978e+34
3.36043e+34
2.18856e+34
1.42536e+34
9.28299e+33
6.04577e+33
3.93746e+33
2.56437e+33
1.67011e+33
1.0877e+33
7.08391e+32
4.61357e+32
3.0047e+32
1.95689e+32
1.27447e+32
8.30031e+31
5.40578e+31
3.52065e+31
2.29291e+31
1.49331e+31
9.72559e+30
6.33403e+30
4.12469e+30
2.68685e+30
1.77832e+30
1.3817e+30
1.70387e+30
1.32241e+48
8.61874e+47
5.61506e+47
3.65735e+47
2.38191e+47
1.55117e+47
1.01014e+47
6.57811e+46
4.28375e+46
2.78966e+46
1.81671e+46
1.18311e+46
7.7049e+45
5.01782e+45
3.26788e+45
2.12824e+45
1.38605e+45
9.02686e+44
5.87891e+44
3.82876e+44
2.49356e+44
1.62399e+44
1.05766e+44
6.88825e+43
4.48614e+43
2.92171e+43
1.90283e+43
1.23927e+43
8.07103e+42
5.25646e+42
3.4234e+42
2.22957e+42
1.45206e+42
9.45692e+41
6.15905e+41
4.01124e+41
2.61242e+41
1.7014e+41
1.10808e+41
7.21664e+40
4.70002e+40
3.061e+40
1.99355e+40
1.29835e+40
8.45583e+39
5.50707e+39
3.58662e+39
2.33587e+39
1.52129e+39
9.90781e+38
6.4527e+38
4.20248e+38
2.73697e+38
1.78252e+38
1.16091e+38
7.56072e+37
4.9241e+37
3.20694e+37
2.0886e+37
1.36025e+37
8.85899e+36
5.76963e+36
3.75762e+36
2.44724e+36
1.59383e+36
1.03802e+36
6.76035e+35
4.40285e+35
2.86746e+35
1.86751e+35
1.21626e+35
7.92119e+34
5.15887e+34
3.35984e+34
2.18818e+34
1.42511e+34
9.28137e+33
6.04472e+33
3.93677e+33
2.56392e+33
1.66982e+33
1.08751e+33
7.08267e+32
4.61277e+32
3.00418e+32
1.95655e+32
1.27425e+32
8.29886e+31
5.40484e+31
3.52003e+31
2.29251e+31
1.49305e+31
9.72388e+30
6.33293e+30
4.12447e+30
2.68574e+30
1.74984e+30
1.1641e+30
9.35399e+29
1.19165e+30
8.61254e+47
5.61318e+47
3.65694e+47
2.38193e+47
1.55126e+47
1.01022e+47
6.57858e+46
4.28397e+46
2.78974e+46
1.81671e+46
1.18307e+46
7.7045e+45
5.01744e+45
3.26757e+45
2.128e+45
1.38587e+45
9.02561e+44
5.87804e+44
3.82816e+44
2.49316e+44
1.62372e+44
1.05748e+44
6.88708e+43
4.48537e+43
2.9212e+43
1.9025e+43
1.23905e+43
8.06961e+42
5.25553e+42
3.42279e+42
2.22918e+42
1.45181e+42
9.45525e+41
6.15796e+41
4.01053e+41
2.61195e+41
1.7011e+41
1.10788e+41
7.21537e+40
4.69918e+40
3.06046e+40
1.9932e+40
1.29812e+40
8.45434e+39
5.5061e+39
3.58598e+39
2.33546e+39
1.52103e+39
9.90605e+38
6.45156e+38
4.20174e+38
2.73649e+38
1.7822e+38
1.1607e+38
7.55938e+37
4.92323e+37
3.20638e+37
2.08823e+37
1.36001e+37
8.85742e+36
5.76861e+36
3.75695e+36
2.44681e+36
1.59354e+36
1.03784e+36
6.75916e+35
4.40207e+35
2.86696e+35
1.86718e+35
1.21604e+35
7.91979e+34
5.15796e+34
3.35925e+34
2.18779e+34
1.42486e+34
9.27972e+33
6.04365e+33
3.93608e+33
2.56347e+33
1.66952e+33
1.08732e+33
7.08142e+32
4.61195e+32
3.00365e+32
1.9562e+32
1.27402e+32
8.29739e+31
5.40388e+31
3.51941e+31
2.2921e+31
1.49279e+31
9.72216e+30
6.3318e+30
4.12374e+30
2.68567e+30
1.74876e+30
1.13967e+30
7.62779e+29
6.32798e+29
8.28638e+29
5.60914e+47
3.65572e+47
2.38167e+47
1.55129e+47
1.01029e+47
6.5792e+46
4.28437e+46
2.78995e+46
1.8168e+46
1.18311e+46
7.7045e+45
5.01731e+45
3.2674e+45
2.12784e+45
1.38574e+45
9.02461e+44
5.87731e+44
3.82764e+44
2.4928e+44
1.62347e+44
1.05731e+44
6.88595e+43
4.48461e+43
2.9207e+43
1.90217e+43
1.23883e+43
8.0682e+42
5.25461e+42
3.42219e+42
2.22878e+42
1.45155e+42
9.45357e+41
6.15687e+41
4.00981e+41
2.61149e+41
1.7008e+41
1.10769e+41
7.21408e+40
4.69835e+40
3.05992e+40
1.99285e+40
1.29789e+40
8.45283e+39
5.50512e+39
3.58534e+39
2.33504e+39
1.52075e+39
9.90429e+38
6.45041e+38
4.20099e+38
2.736e+38
1.78189e+38
1.1605e+38
7.55803e+37
4.92236e+37
3.20581e+37
2.08786e+37
1.35977e+37
8.85584e+36
5.76759e+36
3.75628e+36
2.44637e+36
1.59326e+36
1.03765e+36
6.75796e+35
4.40129e+35
2.86645e+35
1.86684e+35
1.21583e+35
7.91838e+34
5.15704e+34
3.35865e+34
2.18741e+34
1.4246e+34
9.27807e+33
6.04257e+33
3.93538e+33
2.56301e+33
1.66922e+33
1.08712e+33
7.08016e+32
4.61113e+32
3.00311e+32
1.95585e+32
1.2738e+32
8.29592e+31
5.40292e+31
3.51879e+31
2.2917e+31
1.49252e+31
9.72043e+30
6.33067e+30
4.12301e+30
2.68521e+30
1.74879e+30
1.13869e+30
7.42541e+29
4.99705e+29
4.18536e+29
5.48007e+29
3.65309e+47
2.38088e+47
1.55112e+47
1.01031e+47
6.57974e+46
4.28483e+46
2.79026e+46
1.81698e+46
1.1832e+46
7.7049e+45
5.01744e+45
3.2674e+45
2.12779e+45
1.38567e+45
9.02396e+44
5.87677e+44
3.82723e+44
2.49249e+44
1.62325e+44
1.05716e+44
6.8849e+43
4.48391e+43
2.92023e+43
1.90186e+43
1.23862e+43
8.06681e+42
5.25369e+42
3.42159e+42
2.22839e+42
1.45129e+42
9.4519e+41
6.15578e+41
4.0091e+41
2.61103e+41
1.70049e+41
1.10749e+41
7.2128e+40
4.69751e+40
3.05937e+40
1.99249e+40
1.29766e+40
8.45132e+39
5.50413e+39
3.5847e+39
2.33463e+39
1.52048e+39
9.90252e+38
6.44926e+38
4.20024e+38
2.73551e+38
1.78157e+38
1.16029e+38
7.55668e+37
4.92148e+37
3.20523e+37
2.08749e+37
1.35953e+37
8.85426e+36
5.76656e+36
3.75561e+36
2.44594e+36
1.59298e+36
1.03747e+36
6.75675e+35
4.4005e+35
2.86594e+35
1.86651e+35
1.21561e+35
7.91697e+34
5.15612e+34
3.35805e+34
2.18702e+34
1.42435e+34
9.27642e+33
6.0415e+33
3.93467e+33
2.56255e+33
1.66893e+33
1.08693e+33
7.0789e+32
4.61031e+32
3.00258e+32
1.9555e+32
1.27357e+32
8.29444e+31
5.40196e+31
3.51816e+31
2.29129e+31
1.49226e+31
9.7187e+30
6.32954e+30
4.12227e+30
2.68473e+30
1.7485e+30
1.13874e+30
7.41509e+29
4.83811e+29
3.25277e+29
2.62249e+29
3.05421e+29
2.37917e+47
1.55061e+47
1.01021e+47
6.5799e+46
4.28521e+46
2.79058e+46
1.8172e+46
1.18333e+46
7.70565e+45
5.01782e+45
3.26757e+45
2.12784e+45
1.38567e+45
9.02373e+44
5.87648e+44
3.82696e+44
2.49227e+44
1.62308e+44
1.05703e+44
6.884e+43
4.48327e+43
2.91979e+43
1.90156e+43
1.23842e+43
8.06547e+42
5.2528e+42
3.421e+42
2.22801e+42
1.45104e+42
9.45024e+41
6.15469e+41
4.00839e+41
2.61056e+41
1.70019e+41
1.10729e+41
7.21151e+40
4.69667e+40
3.05882e+40
1.99213e+40
1.29743e+40
8.44981e+39
5.50315e+39
3.58406e+39
2.33421e+39
1.52021e+39
9.90076e+38
6.44811e+38
4.19949e+38
2.73502e+38
1.78125e+38
1.16008e+38
7.55534e+37
4.9206e+37
3.20466e+37
2.08712e+37
1.35929e+37
8.85268e+36
5.76553e+36
3.75494e+36
2.4455e+36
1.59269e+36
1.03728e+36
6.75554e+35
4.39972e+35
2.86542e+35
1.86618e+35
1.21539e+35
7.91556e+34
5.1552e+34
3.35745e+34
2.18662e+34
1.42409e+34
9.27476e+33
6.04042e+33
3.93397e+33
2.5621e+33
1.66863e+33
1.08674e+33
7.07763e+32
4.60948e+32
3.00204e+32
1.95515e+32
1.27334e+32
8.29295e+31
5.40099e+31
3.51753e+31
2.29088e+31
1.49199e+31
9.71696e+30
6.32841e+30
4.12153e+30
2.68425e+30
1.74818e+30
1.13855e+30
7.41503e+29
4.82877e+29
3.15071e+29
2.10628e+29
1.61852e+29
1.70615e+29
1.54949e+47
1.00987e+47
6.57922e+46
4.28532e+46
2.79084e+46
1.81743e+46
1.18349e+46
7.70663e+45
5.01839e+45
3.26788e+45
2.128e+45
1.38574e+45
9.02396e+44
5.87648e+44
3.82687e+44
2.49215e+44
1.62297e+44
1.05694e+44
6.88329e+43
4.48274e+43
2.91941e+43
1.90129e+43
1.23824e+43
8.06422e+42
5.25196e+42
3.42044e+42
2.22763e+42
1.45079e+42
9.44861e+41
6.15362e+41
4.00769e+41
2.6101e+41
1.69989e+41
1.1071e+41
7.21023e+40
4.69584e+40
3.05828e+40
1.99178e+40
1.2972e+40
8.44831e+39
5.50217e+39
3.58342e+39
2.33379e+39
1.51994e+39
9.89899e+38
6.44696e+38
4.19874e+38
2.73453e+38
1.78093e+38
1.15988e+38
7.55399e+37
4.91972e+37
3.20409e+37
2.08674e+37
1.35904e+37
8.8511e+36
5.7645e+36
3.75427e+36
2.44506e+36
1.59241e+36
1.03709e+36
6.75434e+35
4.39893e+35
2.86491e+35
1.86584e+35
1.21518e+35
7.91414e+34
5.15428e+34
3.35685e+34
2.18623e+34
1.42384e+34
9.2731e+33
6.03934e+33
3.93327e+33
2.56164e+33
1.66833e+33
1.08654e+33
7.07637e+32
4.60866e+32
3.0015e+32
1.9548e+32
1.27311e+32
8.29147e+31
5.40003e+31
3.5169e+31
2.29047e+31
1.49172e+31
9.71522e+30
6.32728e+30
4.1208e+30
2.68377e+30
1.74787e+30
1.13835e+30
7.41376e+29
4.82839e+29
3.14444e+29
2.05097e+29
1.36206e+29
1.00529e+29
9.85196e+28
1.00914e+47
6.57703e+46
4.28488e+46
2.79092e+46
1.8176e+46
1.18364e+46
7.70771e+45
5.01909e+45
3.2683e+45
2.12824e+45
1.38587e+45
9.02461e+44
5.87677e+44
3.82696e+44
2.49215e+44
1.62293e+44
1.05689e+44
6.88283e+43
4.48237e+43
2.91912e+43
1.90107e+43
1.23808e+43
8.06312e+42
5.2512e+42
3.41992e+42
2.22728e+42
1.45056e+42
9.44703e+41
6.15258e+41
4.007e+41
2.60965e+41
1.69959e+41
1.1069e+41
7.20896e+40
4.69501e+40
3.05774e+40
1.99143e+40
1.29696e+40
8.4468e+39
5.50119e+39
3.58278e+39
2.33338e+39
1.51967e+39
9.89722e+38
6.44581e+38
4.19799e+38
2.73405e+38
1.78062e+38
1.15967e+38
7.55264e+37
4.91884e+37
3.20352e+37
2.08637e+37
1.3588e+37
8.84952e+36
5.76347e+36
3.7536e+36
2.44463e+36
1.59212e+36
1.03691e+36
6.75313e+35
4.39814e+35
2.8644e+35
1.86551e+35
1.21496e+35
7.91273e+34
5.15336e+34
3.35625e+34
2.18584e+34
1.42358e+34
9.27145e+33
6.03826e+33
3.93257e+33
2.56118e+33
1.66803e+33
1.08635e+33
7.0751e+32
4.60784e+32
3.00097e+32
1.95445e+32
1.27289e+32
8.28999e+31
5.39906e+31
3.51627e+31
2.29006e+31
1.49146e+31
9.71349e+30
6.32615e+30
4.12006e+30
2.68329e+30
1.74756e+30
1.13814e+30
7.41243e+29
4.82753e+29
3.14406e+29
2.04756e+29
1.33491e+29
8.81711e+28
6.3227e+28
5.89254e+28
6.5723e+46
4.28345e+46
2.79063e+46
1.81765e+46
1.18376e+46
7.70873e+45
5.01982e+45
3.26878e+45
2.12854e+45
1.38605e+45
9.02561e+44
5.87731e+44
3.82723e+44
2.49227e+44
1.62297e+44
1.05689e+44
6.88268e+43
4.48217e+43
2.91893e+43
1.90092e+43
1.23796e+43
8.06221e+42
5.25054e+42
3.41946e+42
2.22696e+42
1.45034e+42
9.44555e+41
6.15158e+41
4.00634e+41
2.60921e+41
1.6993e+41
1.10671e+41
7.2077e+40
4.69418e+40
3.0572e+40
1.99107e+40
1.29673e+40
8.4453e+39
5.50021e+39
3.58214e+39
2.33296e+39
1.5194e+39
9.89545e+38
6.44466e+38
4.19724e+38
2.73356e+38
1.7803e+38
1.15946e+38
7.55129e+37
4.91796e+37
3.20294e+37
2.086e+37
1.35856e+37
8.84794e+36
5.76244e+36
3.75293e+36
2.44419e+36
1.59184e+36
1.03672e+36
6.75192e+35
4.39736e+35
2.86389e+35
1.86518e+35
1.21474e+35
7.91131e+34
5.15244e+34
3.35565e+34
2.18545e+34
1.42333e+34
9.26979e+33
6.03718e+33
3.93186e+33
2.56072e+33
1.66773e+33
1.08615e+33
7.07384e+32
4.60701e+32
3.00043e+32
1.95411e+32
1.27266e+32
8.28851e+31
5.3981e+31
3.51564e+31
2.28965e+31
1.49119e+31
9.71175e+30
6.32502e+30
4.11933e+30
2.68281e+30
1.74725e+30
1.13794e+30
7.41111e+29
4.82667e+29
3.14349e+29
2.04728e+29
1.33328e+29
8.68895e+28
5.71727e+28
4.02194e+28
3.62286e+28
4.28037e+46
2.78971e+46
1.81747e+46
1.18379e+46
7.7095e+45
5.0205e+45
3.26927e+45
2.12886e+45
1.38625e+45
9.02686e+44
5.87804e+44
3.82764e+44
2.49249e+44
1.62308e+44
1.05694e+44
6.88283e+43
4.48217e+43
2.91887e+43
1.90084e+43
1.23788e+43
8.06156e+42
5.25004e+42
3.41908e+42
2.22668e+42
1.45014e+42
9.44421e+41
6.15066e+41
4.00571e+41
2.60879e+41
1.69902e+41
1.10652e+41
7.20647e+40
4.69337e+40
3.05667e+40
1.99072e+40
1.29651e+40
8.44381e+39
5.49923e+39
3.58151e+39
2.33254e+39
1.51913e+39
9.89369e+38
6.44351e+38
4.19649e+38
2.73307e+38
1.77998e+38
1.15926e+38
7.54994e+37
4.91708e+37
3.20237e+37
2.08562e+37
1.35831e+37
8.84636e+36
5.76141e+36
3.75226e+36
2.44375e+36
1.59155e+36
1.03654e+36
6.75072e+35
4.39657e+35
2.86338e+35
1.86484e+35
1.21453e+35
7.9099e+34
5.15152e+34
3.35505e+34
2.18506e+34
1.42308e+34
9.26813e+33
6.0361e+33
3.93116e+33
2.56026e+33
1.66744e+33
1.08596e+33
7.07258e+32
4.60619e+32
2.9999e+32
1.95376e+32
1.27243e+32
8.28703e+31
5.39713e+31
3.51502e+31
2.28924e+31
1.49092e+31
9.71002e+30
6.32389e+30
4.11859e+30
2.68233e+30
1.74694e+30
1.13774e+30
7.40978e+29
4.8258e+29
3.14292e+29
2.04691e+29
1.3331e+29
8.68172e+28
5.65635e+28
3.71273e+28
2.5794e+28
2.27005e+28
2.7877e+46
1.81686e+46
1.18367e+46
7.70974e+45
5.021e+45
3.26972e+45
2.12919e+45
1.38647e+45
9.02826e+44
5.87891e+44
3.82816e+44
2.4928e+44
1.62325e+44
1.05703e+44
6.88329e+43
4.48237e+43
2.91893e+43
1.90084e+43
1.23786e+43
8.06123e+42
5.24972e+42
3.41881e+42
2.22648e+42
1.44999e+42
9.44307e+41
6.14986e+41
4.00515e+41
2.60841e+41
1.69876e+41
1.10635e+41
7.2053e+40
4.69259e+40
3.05615e+40
1.99038e+40
1.29628e+40
8.44233e+39
5.49827e+39
3.58088e+39
2.33213e+39
1.51886e+39
9.89193e+38
6.44236e+38
4.19575e+38
2.73258e+38
1.77966e+38
1.15905e+38
7.54859e+37
4.9162e+37
3.2018e+37
2.08525e+37
1.35807e+37
8.84478e+36
5.76038e+36
3.75159e+36
2.44332e+36
1.59127e+36
1.03635e+36
6.74951e+35
4.39579e+35
2.86286e+35
1.86451e+35
1.21431e+35
7.90849e+34
5.1506e+34
3.35445e+34
2.18467e+34
1.42282e+34
9.26648e+33
6.03502e+33
3.93046e+33
2.55981e+33
1.66714e+33
1.08576e+33
7.07131e+32
4.60537e+32
2.99936e+32
1.95341e+32
1.2722e+32
8.28555e+31
5.39617e+31
3.51439e+31
2.28883e+31
1.49066e+31
9.70828e+30
6.32276e+30
4.11785e+30
2.68185e+30
1.74662e+30
1.13753e+30
7.40846e+29
4.82494e+29
3.14236e+29
2.04654e+29
1.33286e+29
8.68059e+28
5.65314e+28
3.68259e+28
2.41352e+28
1.66307e+28
1.44002e+28
1.81556e+46
1.18328e+46
7.70896e+45
5.02116e+45
3.27005e+45
2.12948e+45
1.38669e+45
9.02971e+44
5.87985e+44
3.82876e+44
2.49316e+44
1.62347e+44
1.05716e+44
6.884e+43
4.48274e+43
2.91912e+43
1.90092e+43
1.23788e+43
8.06123e+42
5.24961e+42
3.41867e+42
2.22634e+42
1.44988e+42
9.4422e+41
6.1492e+41
4.00468e+41
2.60807e+41
1.69853e+41
1.10619e+41
7.2042e+40
4.69185e+40
3.05565e+40
1.99005e+40
1.29606e+40
8.44089e+39
5.49732e+39
3.58025e+39
2.33172e+39
1.51859e+39
9.89018e+38
6.44122e+38
4.195e+38
2.7321e+38
1.77934e+38
1.15884e+38
7.54724e+37
4.91533e+37
3.20123e+37
2.08488e+37
1.35783e+37
8.8432e+36
5.75935e+36
3.75092e+36
2.44288e+36
1.59099e+36
1.03617e+36
6.7483e+35
4.395e+35
2.86235e+35
1.86418e+35
1.21409e+35
7.90707e+34
5.14968e+34
3.35385e+34
2.18428e+34
1.42257e+34
9.26482e+33
6.03394e+33
3.92975e+33
2.55935e+33
1.66684e+33
1.08557e+33
7.07005e+32
4.60454e+32
2.99882e+32
1.95306e+32
1.27198e+32
8.28407e+31
5.3952e+31
3.51376e+31
2.28842e+31
1.49039e+31
9.70655e+30
6.32163e+30
4.11712e+30
2.68137e+30
1.74631e+30
1.13733e+30
7.40713e+29
4.82408e+29
3.1418e+29
2.04618e+29
1.33262e+29
8.67904e+28
5.65243e+28
3.68108e+28
2.39774e+28
1.56996e+28
1.07583e+28
9.20767e+27
1.18243e+46
7.70639e+45
5.02065e+45
3.27015e+45
2.1297e+45
1.38688e+45
9.03113e+44
5.88081e+44
3.82939e+44
2.49356e+44
1.62372e+44
1.05731e+44
6.8849e+43
4.48327e+43
2.91941e+43
1.90107e+43
1.23796e+43
8.06156e+42
5.24972e+42
3.41867e+42
2.2263e+42
1.44982e+42
9.44165e+41
6.14874e+41
4.00432e+41
2.6078e+41
1.69833e+41
1.10605e+41
7.20322e+40
4.69117e+40
3.05519e+40
1.98974e+40
1.29585e+40
8.4395e+39
5.4964e+39
3.57965e+39
2.33132e+39
1.51833e+39
9.88845e+38
6.44009e+38
4.19426e+38
2.73161e+38
1.77903e+38
1.15864e+38
7.5459e+37
4.91445e+37
3.20066e+37
2.08451e+37
1.35759e+37
8.84162e+36
5.75832e+36
3.75025e+36
2.44244e+36
1.5907e+36
1.03598e+36
6.7471e+35
4.39421e+35
2.86184e+35
1.86384e+35
1.21387e+35
7.90566e+34
5.14876e+34
3.35326e+34
2.18389e+34
1.42231e+34
9.26316e+33
6.03286e+33
3.92905e+33
2.55889e+33
1.66654e+33
1.08538e+33
7.06878e+32
4.60372e+32
2.99829e+32
1.95271e+32
1.27175e+32
8.28259e+31
5.39424e+31
3.51313e+31
2.28801e+31
1.49013e+31
9.70481e+30
6.3205e+30
4.11638e+30
2.68089e+30
1.746e+30
1.13713e+30
7.40581e+29
4.82322e+29
3.14124e+29
2.04581e+29
1.33238e+29
8.67748e+28
5.65143e+28
3.68063e+28
2.39697e+28
1.56125e+28
1.02163e+28
6.97384e+27
5.9183e+27
7.70085e+45
5.01898e+45
3.26982e+45
2.12977e+45
1.38702e+45
9.03239e+44
5.88174e+44
3.83002e+44
2.49398e+44
1.62399e+44
1.05748e+44
6.88595e+43
4.48391e+43
2.91979e+43
1.90129e+43
1.23808e+43
8.06221e+42
5.25004e+42
3.41881e+42
2.22634e+42
1.44982e+42
9.44146e+41
6.1485e+41
4.00409e+41
2.6076e+41
1.69818e+41
1.10593e+41
7.20239e+40
4.69059e+40
3.05478e+40
1.98946e+40
1.29566e+40
8.43819e+39
5.49552e+39
3.57906e+39
2.33093e+39
1.51807e+39
9.88676e+38
6.43897e+38
4.19353e+38
2.73113e+38
1.77872e+38
1.15843e+38
7.54456e+37
4.91358e+37
3.20009e+37
2.08414e+37
1.35734e+37
8.84004e+36
5.75729e+36
3.74958e+36
2.44201e+36
1.59042e+36
1.0358e+36
6.74589e+35
4.39343e+35
2.86133e+35
1.86351e+35
1.21366e+35
7.90425e+34
5.14784e+34
3.35266e+34
2.1835e+34
1.42206e+34
9.26151e+33
6.03179e+33
3.92835e+33
2.55844e+33
1.66624e+33
1.08518e+33
7.06752e+32
4.6029e+32
2.99775e+32
1.95236e+32
1.27152e+32
8.2811e+31
5.39327e+31
3.5125e+31
2.2876e+31
1.48986e+31
9.70308e+30
6.31937e+30
4.11565e+30
2.68042e+30
1.74569e+30
1.13692e+30
7.40449e+29
4.82235e+29
3.14068e+29
2.04544e+29
1.33215e+29
8.67593e+28
5.65041e+28
3.67997e+28
2.39667e+28
1.56081e+28
1.0166e+28
6.64951e+27
4.52661e+27
3.81764e+27
5.01537e+45
3.26873e+45
2.12955e+45
1.38706e+45
9.03332e+44
5.88257e+44
3.83063e+44
2.49439e+44
1.62426e+44
1.05766e+44
6.88708e+43
4.48461e+43
2.92023e+43
1.90156e+43
1.23824e+43
8.06312e+42
5.25054e+42
3.41908e+42
2.22648e+42
1.44988e+42
9.44165e+41
6.1485e+41
4.00401e+41
2.60751e+41
1.69808e+41
1.10585e+41
7.20176e+40
4.69011e+40
3.05444e+40
1.98921e+40
1.29549e+40
8.437e+39
5.49471e+39
3.57851e+39
2.33056e+39
1.51782e+39
9.88512e+38
6.43789e+38
4.19281e+38
2.73066e+38
1.77841e+38
1.15823e+38
7.54323e+37
4.91271e+37
3.19952e+37
2.08377e+37
1.3571e+37
8.83847e+36
5.75627e+36
3.74891e+36
2.44157e+36
1.59013e+36
1.03561e+36
6.74469e+35
4.39264e+35
2.86082e+35
1.86318e+35
1.21344e+35
7.90283e+34
5.14692e+34
3.35206e+34
2.18311e+34
1.4218e+34
9.25985e+33
6.03071e+33
3.92765e+33
2.55798e+33
1.66595e+33
1.08499e+33
7.06626e+32
4.60208e+32
2.99722e+32
1.95201e+32
1.2713e+32
8.27962e+31
5.39231e+31
3.51188e+31
2.2872e+31
1.48959e+31
9.70134e+30
6.31824e+30
4.11491e+30
2.67994e+30
1.74538e+30
1.13672e+30
7.40316e+29
4.82149e+29
3.14012e+29
2.04508e+29
1.33191e+29
8.67438e+28
5.6494e+28
3.67931e+28
2.39625e+28
1.56061e+28
1.01634e+28
6.61964e+27
4.32855e+27
2.94075e+27
2.46886e+27
3.26638e+45
2.12884e+45
1.38692e+45
9.03359e+44
5.88317e+44
3.83117e+44
2.49479e+44
1.62453e+44
1.05784e+44
6.88825e+43
4.48537e+43
2.9207e+43
1.90186e+43
1.23842e+43
8.06422e+42
5.2512e+42
3.41946e+42
2.22668e+42
1.44999e+42
9.4422e+41
6.14874e+41
4.00409e+41
2.60751e+41
1.69805e+41
1.10581e+41
7.20136e+40
4.68978e+40
3.05417e+40
1.98901e+40
1.29534e+40
8.43597e+39
5.49398e+39
3.57801e+39
2.33022e+39
1.51759e+39
9.88356e+38
6.43685e+38
4.19212e+38
2.7302e+38
1.7781e+38
1.15803e+38
7.54193e+37
4.91185e+37
3.19896e+37
2.0834e+37
1.35686e+37
8.8369e+36
5.75524e+36
3.74824e+36
2.44114e+36
1.58985e+36
1.03543e+36
6.74348e+35
4.39186e+35
2.86031e+35
1.86285e+35
1.21322e+35
7.90142e+34
5.146e+34
3.35146e+34
2.18272e+34
1.42155e+34
9.2582e+33
6.02963e+33
3.92695e+33
2.55752e+33
1.66565e+33
1.08479e+33
7.06499e+32
4.60125e+32
2.99668e+32
1.95166e+32
1.27107e+32
8.27815e+31
5.39135e+31
3.51125e+31
2.28679e+31
1.48933e+31
9.69961e+30
6.31711e+30
4.11417e+30
2.67946e+30
1.74506e+30
1.13652e+30
7.40184e+29
4.82063e+29
3.13955e+29
2.04471e+29
1.33167e+29
8.67283e+28
5.64839e+28
3.67866e+28
2.39582e+28
1.56034e+28
1.01621e+28
6.61801e+27
4.31041e+27
2.81792e+27
1.91167e+27
1.59957e+27
2.12731e+45
1.38646e+45
9.03268e+44
5.88335e+44
3.83156e+44
2.49514e+44
1.62479e+44
1.05802e+44
6.88944e+43
4.48614e+43
2.9212e+43
1.90217e+43
1.23862e+43
8.06547e+42
5.25196e+42
3.41992e+42
2.22696e+42
1.45014e+42
9.44307e+41
6.1492e+41
4.00432e+41
2.6076e+41
1.69808e+41
1.10581e+41
7.20123e+40
4.68961e+40
3.05401e+40
1.98888e+40
1.29523e+40
8.43515e+39
5.49338e+39
3.57758e+39
2.32992e+39
1.51738e+39
9.88213e+38
6.43587e+38
4.19147e+38
2.72977e+38
1.77781e+38
1.15784e+38
7.54065e+37
4.91101e+37
3.19841e+37
2.08304e+37
1.35663e+37
8.83534e+36
5.75423e+36
3.74758e+36
2.4407e+36
1.58957e+36
1.03524e+36
6.74228e+35
4.39108e+35
2.8598e+35
1.86251e+35
1.21301e+35
7.90001e+34
5.14508e+34
3.35086e+34
2.18233e+34
1.4213e+34
9.25654e+33
6.02855e+33
3.92624e+33
2.55706e+33