/*--------------------------------*- C++ -*----------------------------------*\
  =========                 |
  \\      /  F ield         | OpenFOAM: The Open Source CFD Toolbox
   \\    /   O peration     | Website:  https://openfoam.org
    \\  /    A nd           | Version:  8
     \\/     M anipulation  |
\*---------------------------------------------------------------------------*/
FoamFile
{
    version     2.0;
    format      ascii;
    class       volScalarField;
    location    "32";
    object      nuTilda;
}
// * * * * * * * * * * * * * * * * * * * * * * * * * * * * * * * * * * * * * //

dimensions      [0 2 -1 0 0 0 0];

internalField   nonuniform List<scalar> 
277560
(
0.139976
0.139948
0.139932
0.139919
0.139908
0.139897
0.139884
0.13987
0.139853
0.139834
0.13981
0.139783
0.139752
0.139716
0.139675
0.139629
0.139576
0.139517
0.139452
0.139378
0.139297
0.139208
0.139109
0.139002
0.138885
0.138759
0.138623
0.138478
0.138324
0.138161
0.137991
0.137815
0.137633
0.137446
0.137256
0.137063
0.136868
0.136671
0.136474
0.136276
0.136078
0.135881
0.135683
0.135486
0.13529
0.135094
0.134899
0.134705
0.134512
0.13432
0.134129
0.13394
0.133753
0.133567
0.133384
0.133204
0.133026
0.132853
0.132684
0.132519
0.13236
0.132208
0.132062
0.131924
0.131795
0.131675
0.131565
0.131466
0.13138
0.131305
0.131245
0.131198
0.131166
0.131149
0.131147
0.131161
0.131191
0.131237
0.131299
0.131375
0.131467
0.131572
0.131689
0.131819
0.131959
0.132108
0.132265
0.13243
0.1326
0.132775
0.132953
0.133135
0.133319
0.133504
0.133689
0.133874
0.134059
0.134241
0.134421
0.134599
0.134774
0.134945
0.135112
0.135274
0.135431
0.135582
0.135726
0.135864
0.135994
0.136118
0.136235
0.136344
0.136447
0.136543
0.136633
0.136716
0.136793
0.136864
0.136928
0.136988
0.139989
0.139971
0.139958
0.139948
0.139938
0.139928
0.139917
0.139903
0.139887
0.139867
0.139844
0.139818
0.139786
0.13975
0.139709
0.139662
0.139609
0.139549
0.139483
0.139408
0.139326
0.139235
0.139135
0.139026
0.138907
0.138778
0.13864
0.138492
0.138335
0.13817
0.137997
0.137818
0.137633
0.137444
0.137252
0.137057
0.136861
0.136663
0.136465
0.136267
0.136069
0.135871
0.135674
0.135477
0.135281
0.135085
0.134891
0.134697
0.134504
0.134312
0.134122
0.133933
0.133746
0.133561
0.133378
0.133198
0.133021
0.132847
0.132678
0.132514
0.132356
0.132203
0.132058
0.13192
0.131791
0.131672
0.131563
0.131464
0.131378
0.131305
0.131245
0.131199
0.131168
0.131152
0.131152
0.131168
0.1312
0.131249
0.131314
0.131395
0.131491
0.131602
0.131727
0.131863
0.13201
0.132166
0.132329
0.132499
0.132674
0.132854
0.133038
0.133224
0.133412
0.133602
0.133791
0.13398
0.134167
0.134353
0.134536
0.134716
0.134892
0.135065
0.135232
0.135394
0.135551
0.135702
0.135846
0.135984
0.136115
0.13624
0.136357
0.136468
0.136572
0.136669
0.136759
0.136843
0.13692
0.136991
0.137056
0.137115
0.139997
0.139989
0.139981
0.139974
0.139967
0.139958
0.139948
0.139935
0.13992
0.139901
0.139878
0.139851
0.139819
0.139783
0.139741
0.139693
0.139639
0.139578
0.13951
0.139434
0.13935
0.139256
0.139154
0.139041
0.138919
0.138786
0.138644
0.138492
0.138331
0.138161
0.137985
0.137802
0.137614
0.137422
0.137228
0.137032
0.136835
0.136637
0.13644
0.136242
0.136045
0.135848
0.135651
0.135455
0.13526
0.135066
0.134872
0.134679
0.134487
0.134296
0.134106
0.133918
0.133731
0.133547
0.133364
0.133185
0.133008
0.132836
0.132667
0.132504
0.132346
0.132194
0.132049
0.131912
0.131784
0.131665
0.131556
0.131459
0.131373
0.131301
0.131242
0.131198
0.131169
0.131155
0.131158
0.131177
0.131213
0.131266
0.131336
0.131424
0.131527
0.131646
0.131779
0.131922
0.132076
0.132239
0.132409
0.132585
0.132766
0.132953
0.133142
0.133334
0.133529
0.133724
0.133919
0.134113
0.134306
0.134497
0.134685
0.13487
0.135051
0.135228
0.135399
0.135565
0.135726
0.13588
0.136028
0.136169
0.136303
0.13643
0.136551
0.136664
0.13677
0.136869
0.136961
0.137046
0.137124
0.137195
0.13726
0.137319
0.140002
0.140003
0.140001
0.139998
0.139994
0.139987
0.139978
0.139966
0.139952
0.139933
0.13991
0.139883
0.139851
0.139814
0.139771
0.139722
0.139666
0.139604
0.139534
0.139455
0.139368
0.139271
0.139165
0.139049
0.138922
0.138785
0.138637
0.13848
0.138313
0.138138
0.137957
0.13777
0.137579
0.137385
0.13719
0.136993
0.136797
0.1366
0.136404
0.136207
0.136011
0.135816
0.135621
0.135426
0.135232
0.135039
0.134846
0.134654
0.134463
0.134273
0.134084
0.133897
0.133711
0.133528
0.133346
0.133168
0.132992
0.13282
0.132652
0.13249
0.132332
0.132181
0.132037
0.131901
0.131773
0.131655
0.131548
0.131451
0.131367
0.131296
0.13124
0.131197
0.13117
0.13116
0.131166
0.131189
0.131229
0.131287
0.131364
0.131458
0.13157
0.131697
0.131837
0.131988
0.13215
0.132319
0.132496
0.13268
0.132868
0.133062
0.133259
0.133458
0.13366
0.133862
0.134064
0.134266
0.134466
0.134665
0.13486
0.135052
0.135239
0.135422
0.1356
0.135772
0.135939
0.136098
0.136251
0.136398
0.136537
0.136669
0.136793
0.13691
0.137019
0.137121
0.137215
0.137302
0.137381
0.137453
0.137518
0.137576
0.140006
0.140014
0.140018
0.140019
0.140018
0.140014
0.140006
0.139996
0.139981
0.139963
0.13994
0.139913
0.13988
0.139842
0.139798
0.139748
0.13969
0.139625
0.139553
0.139471
0.139381
0.13928
0.13917
0.139048
0.138916
0.138773
0.13862
0.138456
0.138284
0.138103
0.137917
0.137726
0.137533
0.137338
0.137143
0.136947
0.136752
0.136556
0.136361
0.136166
0.135972
0.135778
0.135584
0.135391
0.135199
0.135007
0.134816
0.134625
0.134435
0.134247
0.134059
0.133873
0.133689
0.133506
0.133326
0.133148
0.132973
0.132803
0.132636
0.132474
0.132317
0.132167
0.132024
0.131889
0.131762
0.131645
0.131539
0.131444
0.131361
0.131292
0.131237
0.131197
0.131173
0.131165
0.131175
0.131202
0.131248
0.131312
0.131394
0.131496
0.131616
0.131751
0.131899
0.132058
0.132226
0.132404
0.132588
0.132779
0.132976
0.133178
0.133383
0.133591
0.133801
0.134012
0.134223
0.134433
0.134642
0.134848
0.135052
0.135252
0.135448
0.135639
0.135825
0.136005
0.136178
0.136345
0.136505
0.136657
0.136802
0.136939
0.137069
0.13719
0.137303
0.137408
0.137505
0.137593
0.137674
0.137747
0.137811
0.137868
0.14001
0.140024
0.140033
0.140038
0.14004
0.140038
0.140032
0.140023
0.140009
0.139991
0.139968
0.13994
0.139907
0.139867
0.139822
0.139769
0.13971
0.139642
0.139566
0.139481
0.139387
0.139282
0.139166
0.13904
0.138902
0.138752
0.138592
0.138422
0.138243
0.138057
0.137867
0.137674
0.137479
0.137285
0.13709
0.136895
0.136701
0.136507
0.136314
0.136121
0.135928
0.135736
0.135544
0.135353
0.135162
0.134972
0.134782
0.134593
0.134405
0.134218
0.134032
0.133847
0.133664
0.133483
0.133304
0.133128
0.132954
0.132785
0.132619
0.132458
0.132303
0.132154
0.132012
0.131878
0.131752
0.131637
0.131531
0.131438
0.131357
0.13129
0.131237
0.131199
0.131178
0.131173
0.131186
0.131218
0.131268
0.131338
0.131427
0.131536
0.131664
0.131806
0.131962
0.132129
0.132305
0.13249
0.132683
0.132882
0.133088
0.133298
0.133512
0.133729
0.133948
0.134168
0.134389
0.134608
0.134827
0.135043
0.135256
0.135466
0.135671
0.135871
0.136065
0.136254
0.136436
0.13661
0.136778
0.136937
0.137089
0.137232
0.137367
0.137493
0.137611
0.137719
0.137819
0.13791
0.137992
0.138065
0.138129
0.138185
0.140012
0.140032
0.140046
0.140055
0.140059
0.14006
0.140056
0.140047
0.140034
0.140016
0.139993
0.139964
0.139929
0.139889
0.139841
0.139786
0.139724
0.139654
0.139574
0.139485
0.139386
0.139276
0.139155
0.139022
0.138877
0.138721
0.138554
0.138377
0.138193
0.138003
0.137809
0.137615
0.137421
0.137227
0.137033
0.13684
0.136648
0.136455
0.136264
0.136073
0.135882
0.135691
0.135502
0.135312
0.135123
0.134935
0.134747
0.13456
0.134374
0.134189
0.134005
0.133822
0.133641
0.133461
0.133284
0.133109
0.132937
0.132769
0.132605
0.132445
0.132291
0.132143
0.132002
0.131869
0.131745
0.131631
0.131527
0.131435
0.131355
0.13129
0.131239
0.131204
0.131185
0.131184
0.1312
0.131236
0.131291
0.131366
0.131462
0.131578
0.131712
0.131863
0.132026
0.1322
0.132384
0.132577
0.132778
0.132986
0.1332
0.13342
0.133643
0.13387
0.134098
0.134329
0.134559
0.134789
0.135017
0.135244
0.135467
0.135687
0.135902
0.136111
0.136316
0.136513
0.136704
0.136887
0.137063
0.13723
0.137389
0.137539
0.137679
0.137811
0.137933
0.138046
0.138148
0.138242
0.138325
0.138399
0.138463
0.138517
0.140015
0.140039
0.140057
0.140069
0.140077
0.140079
0.140076
0.140069
0.140056
0.140038
0.140014
0.139984
0.139948
0.139906
0.139856
0.139799
0.139733
0.139659
0.139576
0.139482
0.139378
0.139262
0.139135
0.138995
0.138844
0.13868
0.138506
0.138323
0.138134
0.137941
0.137746
0.137552
0.137359
0.137166
0.136974
0.136783
0.136592
0.136402
0.136212
0.136023
0.135834
0.135646
0.135459
0.135272
0.135085
0.134899
0.134713
0.134529
0.134345
0.134161
0.133979
0.133799
0.133619
0.133442
0.133266
0.133093
0.132923
0.132756
0.132594
0.132436
0.132283
0.132137
0.131997
0.131865
0.131742
0.131629
0.131527
0.131436
0.131358
0.131294
0.131245
0.131212
0.131196
0.131197
0.131217
0.131257
0.131316
0.131397
0.131498
0.13162
0.131762
0.131919
0.132089
0.13227
0.132462
0.132663
0.132873
0.13309
0.133313
0.133541
0.133774
0.134011
0.134249
0.13449
0.134731
0.134971
0.13521
0.135447
0.135681
0.135911
0.136136
0.136356
0.13657
0.136778
0.136978
0.13717
0.137354
0.13753
0.137696
0.137853
0.138
0.138137
0.138264
0.138381
0.138487
0.138583
0.138668
0.138743
0.138807
0.13886
0.140017
0.140045
0.140066
0.140082
0.140092
0.140096
0.140094
0.140087
0.140075
0.140056
0.140031
0.14
0.139963
0.139918
0.139865
0.139805
0.139736
0.139658
0.13957
0.139471
0.139361
0.13924
0.139106
0.138959
0.1388
0.138629
0.138449
0.13826
0.138068
0.137873
0.137679
0.137486
0.137295
0.137104
0.136914
0.136724
0.136536
0.136348
0.136161
0.135974
0.135788
0.135602
0.135417
0.135233
0.135048
0.134865
0.134682
0.1345
0.134318
0.134137
0.133958
0.133779
0.133602
0.133427
0.133253
0.133082
0.132914
0.132749
0.132588
0.132432
0.132281
0.132136
0.131998
0.131867
0.131745
0.131633
0.131532
0.131442
0.131366
0.131303
0.131256
0.131225
0.131211
0.131215
0.131238
0.131281
0.131344
0.131429
0.131535
0.131663
0.131811
0.131975
0.132152
0.13234
0.13254
0.132749
0.132966
0.133192
0.133424
0.133661
0.133904
0.13415
0.134399
0.13465
0.134901
0.135152
0.135402
0.135649
0.135894
0.136135
0.136371
0.136601
0.136826
0.137043
0.137253
0.137455
0.137648
0.137832
0.138006
0.13817
0.138324
0.138467
0.138599
0.138721
0.138831
0.138929
0.139016
0.139092
0.139156
0.139209
0.140019
0.14005
0.140075
0.140093
0.140104
0.14011
0.14011
0.140103
0.14009
0.140071
0.140045
0.140012
0.139972
0.139925
0.139869
0.139805
0.139732
0.13965
0.139557
0.139452
0.139336
0.139208
0.139067
0.138913
0.138746
0.138569
0.138383
0.138191
0.137997
0.137803
0.137611
0.13742
0.13723
0.137041
0.136854
0.136667
0.136481
0.136295
0.136111
0.135927
0.135744
0.135561
0.135379
0.135197
0.135016
0.134835
0.134655
0.134475
0.134297
0.134119
0.133942
0.133766
0.133591
0.133418
0.133247
0.133078
0.132912
0.132749
0.13259
0.132436
0.132286
0.132143
0.132006
0.131876
0.131756
0.131645
0.131545
0.131456
0.131381
0.131319
0.131273
0.131243
0.131231
0.131237
0.131262
0.131308
0.131375
0.131463
0.131574
0.131707
0.13186
0.13203
0.132214
0.132409
0.132616
0.132832
0.133058
0.133291
0.133532
0.133779
0.134031
0.134286
0.134545
0.134806
0.135068
0.135329
0.13559
0.135849
0.136104
0.136356
0.136603
0.136844
0.137079
0.137306
0.137526
0.137737
0.137939
0.138132
0.138314
0.138486
0.138647
0.138797
0.138935
0.139061
0.139175
0.139277
0.139366
0.139443
0.139508
0.13956
0.14002
0.140055
0.140082
0.140102
0.140115
0.140122
0.140122
0.140115
0.140101
0.140081
0.140054
0.140019
0.139976
0.139926
0.139867
0.139799
0.139722
0.139634
0.139535
0.139425
0.139302
0.139167
0.139018
0.138856
0.138683
0.1385
0.13831
0.138117
0.137924
0.137732
0.137542
0.137353
0.137166
0.13698
0.136795
0.136611
0.136428
0.136246
0.136065
0.135884
0.135704
0.135524
0.135345
0.135167
0.134989
0.134811
0.134634
0.134458
0.134282
0.134107
0.133933
0.13376
0.133588
0.133418
0.133249
0.133083
0.132919
0.132759
0.132602
0.132449
0.132301
0.132159
0.132023
0.131895
0.131776
0.131666
0.131566
0.131478
0.131403
0.131343
0.131297
0.131268
0.131257
0.131265
0.131292
0.13134
0.131409
0.1315
0.131614
0.131752
0.13191
0.132085
0.132275
0.132476
0.13269
0.132913
0.133146
0.133388
0.133637
0.133892
0.134153
0.134418
0.134687
0.134958
0.13523
0.135502
0.135773
0.136042
0.136309
0.136571
0.136829
0.137081
0.137326
0.137564
0.137794
0.138015
0.138227
0.138428
0.138619
0.138799
0.138967
0.139123
0.139267
0.139398
0.139517
0.139622
0.139714
0.139793
0.139859
0.139911
0.140021
0.140058
0.140087
0.140109
0.140124
0.140131
0.140131
0.140124
0.140109
0.140087
0.140058
0.14002
0.139975
0.139921
0.139858
0.139786
0.139704
0.13961
0.139505
0.139388
0.139258
0.139115
0.138959
0.13879
0.138611
0.138423
0.138232
0.13804
0.13785
0.137661
0.137474
0.137289
0.137105
0.136922
0.13674
0.13656
0.13638
0.136201
0.136023
0.135846
0.13567
0.135494
0.135318
0.135143
0.134969
0.134795
0.134622
0.134449
0.134277
0.134105
0.133934
0.133764
0.133596
0.133428
0.133262
0.133099
0.132938
0.132779
0.132624
0.132473
0.132327
0.132187
0.132052
0.131925
0.131807
0.131697
0.131598
0.131511
0.131436
0.131375
0.13133
0.131302
0.131291
0.131299
0.131327
0.131376
0.131447
0.131541
0.131658
0.131798
0.131961
0.132141
0.132335
0.132543
0.132762
0.132992
0.133232
0.133481
0.133738
0.134002
0.134271
0.134545
0.134823
0.135104
0.135386
0.135668
0.13595
0.136229
0.136506
0.13678
0.137048
0.137311
0.137566
0.137815
0.138055
0.138286
0.138507
0.138717
0.138917
0.139105
0.139281
0.139444
0.139594
0.139731
0.139854
0.139964
0.140059
0.14014
0.140207
0.140259
0.140023
0.140061
0.140092
0.140115
0.14013
0.140137
0.140137
0.140129
0.140113
0.140089
0.140057
0.140017
0.139968
0.13991
0.139843
0.139766
0.139677
0.139578
0.139467
0.139342
0.139205
0.139054
0.138891
0.138715
0.138531
0.138342
0.138152
0.137964
0.137777
0.137592
0.137409
0.137227
0.137047
0.136868
0.13669
0.136514
0.136338
0.136163
0.135989
0.135816
0.135644
0.135472
0.1353
0.13513
0.134959
0.134789
0.13462
0.134451
0.134282
0.134114
0.133947
0.133781
0.133615
0.133451
0.133288
0.133127
0.132969
0.132812
0.13266
0.13251
0.132366
0.132227
0.132093
0.131967
0.131849
0.13174
0.131641
0.131554
0.131479
0.131418
0.131373
0.131344
0.131333
0.131341
0.131369
0.131419
0.131491
0.131585
0.131704
0.131846
0.132012
0.132196
0.132395
0.132608
0.132832
0.133068
0.133315
0.13357
0.133834
0.134106
0.134383
0.134666
0.134953
0.135243
0.135534
0.135826
0.136118
0.136408
0.136696
0.136979
0.137258
0.137531
0.137798
0.138056
0.138307
0.138547
0.138778
0.138998
0.139206
0.139403
0.139586
0.139757
0.139914
0.140057
0.140185
0.140299
0.140398
0.140482
0.140551
0.140604
0.140024
0.140064
0.140096
0.140119
0.140134
0.140141
0.14014
0.14013
0.140112
0.140086
0.140051
0.140008
0.139955
0.139893
0.13982
0.139737
0.139643
0.139537
0.139419
0.139287
0.139142
0.138984
0.138813
0.138633
0.138448
0.13826
0.138074
0.13789
0.137708
0.137527
0.137348
0.137171
0.136995
0.136821
0.136647
0.136475
0.136304
0.136134
0.135964
0.135796
0.135628
0.13546
0.135293
0.135127
0.134961
0.134796
0.13463
0.134466
0.134301
0.134137
0.133974
0.133811
0.133649
0.133488
0.133328
0.13317
0.133014
0.13286
0.132709
0.132561
0.132418
0.13228
0.132148
0.132023
0.131905
0.131796
0.131697
0.131609
0.131534
0.131473
0.131426
0.131396
0.131384
0.131392
0.131419
0.131468
0.13154
0.131635
0.131754
0.131898
0.132066
0.132253
0.132455
0.132672
0.132901
0.133142
0.133394
0.133656
0.133927
0.134205
0.13449
0.134781
0.135076
0.135374
0.135675
0.135976
0.136278
0.136578
0.136875
0.137169
0.137458
0.137742
0.138019
0.138288
0.138548
0.138799
0.139039
0.139269
0.139486
0.139691
0.139883
0.140061
0.140225
0.140374
0.140508
0.140627
0.14073
0.140818
0.140889
0.140944
0.140024
0.140065
0.140098
0.140121
0.140136
0.140142
0.140139
0.140128
0.140107
0.140078
0.14004
0.139992
0.139935
0.139868
0.13979
0.139701
0.139601
0.139487
0.139361
0.139222
0.139069
0.138904
0.138729
0.138547
0.138363
0.138181
0.138
0.137821
0.137643
0.137468
0.137294
0.137122
0.136951
0.136781
0.136613
0.136446
0.13628
0.136115
0.13595
0.135787
0.135624
0.135461
0.1353
0.135138
0.134977
0.134817
0.134656
0.134496
0.134336
0.134176
0.134016
0.133857
0.133698
0.133541
0.133384
0.133228
0.133074
0.132923
0.132774
0.132628
0.132486
0.132349
0.132217
0.132092
0.131975
0.131866
0.131766
0.131678
0.131602
0.131539
0.131491
0.13146
0.131446
0.131452
0.131478
0.131526
0.131596
0.13169
0.131809
0.131952
0.132121
0.13231
0.132516
0.132736
0.132969
0.133214
0.133471
0.133738
0.134015
0.134299
0.134591
0.134889
0.135191
0.135498
0.135807
0.136117
0.136428
0.136737
0.137044
0.137348
0.137647
0.137941
0.138228
0.138507
0.138778
0.139038
0.139289
0.139527
0.139754
0.139968
0.140168
0.140354
0.140526
0.140682
0.140822
0.140946
0.141054
0.141145
0.14122
0.141276
0.140025
0.140066
0.140099
0.140122
0.140136
0.14014
0.140135
0.140121
0.140098
0.140065
0.140023
0.139971
0.139909
0.139836
0.139752
0.139657
0.139549
0.139429
0.139295
0.139148
0.138988
0.138818
0.138641
0.138461
0.138283
0.138106
0.137931
0.137757
0.137586
0.137416
0.137248
0.137081
0.136916
0.136752
0.13659
0.136428
0.136268
0.136108
0.13595
0.135792
0.135635
0.135478
0.135322
0.135166
0.13501
0.134854
0.134699
0.134543
0.134387
0.134231
0.134076
0.13392
0.133765
0.13361
0.133457
0.133304
0.133152
0.133002
0.132855
0.132711
0.13257
0.132434
0.132303
0.132178
0.13206
0.131951
0.131851
0.131761
0.131684
0.131619
0.13157
0.131536
0.13152
0.131523
0.131547
0.131592
0.13166
0.131753
0.13187
0.132012
0.13218
0.13237
0.132577
0.1328
0.133036
0.133285
0.133545
0.133817
0.134098
0.134388
0.134686
0.13499
0.1353
0.135614
0.13593
0.136249
0.136568
0.136886
0.137203
0.137516
0.137825
0.138128
0.138425
0.138714
0.138995
0.139265
0.139525
0.139774
0.14001
0.140233
0.140442
0.140636
0.140815
0.140978
0.141125
0.141256
0.141369
0.141464
0.141542
0.141602
0.140025
0.140067
0.140099
0.140121
0.140133
0.140135
0.140128
0.140111
0.140084
0.140048
0.140001
0.139944
0.139876
0.139797
0.139707
0.139604
0.139489
0.139361
0.13922
0.139066
0.138901
0.138729
0.138554
0.138381
0.138208
0.138038
0.137869
0.137702
0.137537
0.137374
0.137212
0.137052
0.136893
0.136736
0.13658
0.136425
0.136271
0.136118
0.135965
0.135814
0.135663
0.135512
0.135362
0.135211
0.135061
0.13491
0.13476
0.134609
0.134458
0.134306
0.134154
0.134003
0.133851
0.1337
0.133548
0.133398
0.133249
0.133101
0.132956
0.132813
0.132673
0.132537
0.132406
0.132281
0.132163
0.132053
0.131951
0.13186
0.131781
0.131714
0.131662
0.131626
0.131606
0.131606
0.131627
0.131669
0.131734
0.131823
0.131937
0.132077
0.132243
0.132433
0.132641
0.132865
0.133103
0.133354
0.133618
0.133893
0.134178
0.134472
0.134775
0.135085
0.135401
0.135721
0.136045
0.136371
0.136698
0.137025
0.13735
0.137672
0.13799
0.138303
0.138609
0.138908
0.139198
0.139479
0.139749
0.140007
0.140252
0.140484
0.140702
0.140905
0.141092
0.141263
0.141417
0.141554
0.141673
0.141773
0.141855
0.141919
0.140025
0.140066
0.140097
0.140118
0.140128
0.140128
0.140117
0.140097
0.140066
0.140024
0.139972
0.13991
0.139836
0.139751
0.139653
0.139544
0.139421
0.139285
0.139137
0.138978
0.138811
0.138642
0.138474
0.138307
0.138142
0.137979
0.137817
0.137658
0.1375
0.137344
0.137189
0.137036
0.136885
0.136734
0.136586
0.136438
0.136291
0.136145
0.136
0.135855
0.13571
0.135566
0.135421
0.135277
0.135132
0.134987
0.134841
0.134695
0.134549
0.134402
0.134254
0.134106
0.133958
0.13381
0.133661
0.133514
0.133367
0.133221
0.133076
0.132935
0.132796
0.13266
0.132529
0.132404
0.132284
0.132173
0.13207
0.131976
0.131895
0.131825
0.13177
0.13173
0.131707
0.131703
0.131719
0.131757
0.131817
0.131902
0.132012
0.132148
0.132311
0.132499
0.132707
0.132931
0.13317
0.133423
0.133688
0.133966
0.134254
0.134552
0.134859
0.135174
0.135495
0.135821
0.136151
0.136484
0.136818
0.137152
0.137485
0.137816
0.138143
0.138464
0.13878
0.139088
0.139388
0.139678
0.139958
0.140225
0.14048
0.140722
0.140949
0.14116
0.141356
0.141535
0.141696
0.14184
0.141965
0.142072
0.142159
0.142226
0.140025
0.140065
0.140094
0.140113
0.14012
0.140117
0.140103
0.140078
0.140042
0.139995
0.139938
0.139869
0.139789
0.139697
0.139592
0.139475
0.139345
0.139202
0.139049
0.138888
0.138725
0.138563
0.138402
0.138243
0.138086
0.137931
0.137777
0.137626
0.137476
0.137328
0.137181
0.137036
0.136893
0.136751
0.13661
0.13647
0.136331
0.136193
0.136054
0.135917
0.135779
0.135641
0.135503
0.135364
0.135226
0.135086
0.134946
0.134805
0.134663
0.13452
0.134377
0.134233
0.134088
0.133943
0.133797
0.133652
0.133507
0.133363
0.13322
0.133079
0.13294
0.132805
0.132673
0.132547
0.132426
0.132313
0.132208
0.132112
0.132027
0.131954
0.131895
0.13185
0.131823
0.131814
0.131825
0.131857
0.131913
0.131992
0.132097
0.132228
0.132386
0.132571
0.132777
0.133
0.133239
0.133492
0.133758
0.134037
0.134328
0.134628
0.134938
0.135257
0.135582
0.135913
0.136248
0.136587
0.136927
0.137269
0.137609
0.137947
0.138283
0.138613
0.138937
0.139255
0.139564
0.139863
0.140152
0.140429
0.140694
0.140945
0.141181
0.141401
0.141606
0.141793
0.141962
0.142114
0.142246
0.142358
0.142451
0.142523
0.140024
0.140063
0.14009
0.140106
0.14011
0.140103
0.140084
0.140054
0.140013
0.139961
0.139897
0.139822
0.139735
0.139636
0.139523
0.139399
0.139262
0.139115
0.13896
0.138803
0.138648
0.138494
0.138342
0.138192
0.138043
0.137897
0.137752
0.137609
0.137468
0.137329
0.137191
0.137056
0.136921
0.136788
0.136655
0.136524
0.136393
0.136262
0.136132
0.136001
0.135871
0.13574
0.135608
0.135476
0.135343
0.135209
0.135075
0.134939
0.134802
0.134664
0.134524
0.134384
0.134243
0.134101
0.133958
0.133815
0.133672
0.133529
0.133387
0.133247
0.133108
0.132973
0.13284
0.132713
0.13259
0.132475
0.132366
0.132267
0.132179
0.132102
0.132038
0.131989
0.131956
0.131941
0.131946
0.131972
0.132021
0.132094
0.132192
0.132317
0.132468
0.132648
0.132851
0.133072
0.133309
0.133562
0.133828
0.134108
0.134399
0.134701
0.135013
0.135334
0.135663
0.135998
0.136337
0.136681
0.137027
0.137375
0.137722
0.138067
0.13841
0.138748
0.139081
0.139407
0.139725
0.140034
0.140332
0.140618
0.140892
0.141152
0.141398
0.141628
0.141841
0.142037
0.142215
0.142374
0.142513
0.142633
0.142732
0.142809
0.140023
0.14006
0.140085
0.140097
0.140097
0.140085
0.140062
0.140026
0.13998
0.139921
0.139851
0.139769
0.139674
0.139567
0.139448
0.139317
0.139175
0.139027
0.138877
0.138729
0.138582
0.138438
0.138295
0.138154
0.138015
0.137878
0.137743
0.13761
0.137479
0.13735
0.137222
0.137096
0.136971
0.136847
0.136724
0.136601
0.136479
0.136357
0.136234
0.136111
0.135988
0.135864
0.13574
0.135614
0.135488
0.13536
0.135231
0.1351
0.134968
0.134834
0.1347
0.134563
0.134425
0.134286
0.134146
0.134006
0.133864
0.133723
0.133582
0.133441
0.133303
0.133166
0.133033
0.132903
0.132778
0.13266
0.132548
0.132445
0.132352
0.13227
0.132201
0.132146
0.132107
0.132085
0.132083
0.132102
0.132143
0.132208
0.132299
0.132416
0.13256
0.132732
0.13293
0.133148
0.133383
0.133634
0.133899
0.134177
0.134469
0.134771
0.135085
0.135407
0.135738
0.136076
0.136419
0.136767
0.137118
0.13747
0.137823
0.138175
0.138524
0.13887
0.139211
0.139545
0.139871
0.140189
0.140496
0.140792
0.141075
0.141345
0.141599
0.141839
0.142061
0.142266
0.142452
0.14262
0.142767
0.142894
0.143
0.143083
0.140022
0.140057
0.140078
0.140086
0.140081
0.140064
0.140035
0.139994
0.13994
0.139875
0.139798
0.139709
0.139607
0.139493
0.139367
0.139232
0.13909
0.138947
0.138807
0.138668
0.138531
0.138396
0.138263
0.138133
0.138004
0.137878
0.137754
0.137632
0.137512
0.137393
0.137276
0.13716
0.137046
0.136931
0.136818
0.136704
0.136591
0.136477
0.136363
0.136249
0.136133
0.136017
0.1359
0.135781
0.135661
0.135539
0.135416
0.135291
0.135164
0.135035
0.134904
0.134772
0.134638
0.134502
0.134364
0.134226
0.134086
0.133945
0.133805
0.133665
0.133525
0.133387
0.133252
0.13312
0.132992
0.13287
0.132754
0.132647
0.132548
0.132461
0.132385
0.132324
0.132278
0.132248
0.132238
0.132248
0.132281
0.132337
0.132419
0.132527
0.132662
0.132825
0.133017
0.13323
0.133461
0.133709
0.133971
0.134248
0.134538
0.13484
0.135153
0.135476
0.135808
0.136148
0.136493
0.136844
0.137199
0.137556
0.137914
0.138271
0.138627
0.138979
0.139327
0.139669
0.140003
0.140329
0.140645
0.14095
0.141242
0.141521
0.141785
0.142034
0.142266
0.14248
0.142675
0.142851
0.143007
0.143142
0.143255
0.143345
0.140021
0.140052
0.140069
0.140072
0.140062
0.14004
0.140004
0.139956
0.139896
0.139824
0.139739
0.139643
0.139534
0.139414
0.139284
0.139149
0.139014
0.138881
0.13875
0.138622
0.138495
0.138371
0.13825
0.138131
0.138014
0.1379
0.137787
0.137677
0.137569
0.137461
0.137355
0.13725
0.137146
0.137042
0.136939
0.136835
0.136731
0.136627
0.136522
0.136416
0.136309
0.1362
0.13609
0.135979
0.135866
0.13575
0.135633
0.135514
0.135392
0.135268
0.135142
0.135013
0.134883
0.13475
0.134615
0.134478
0.134339
0.1342
0.134059
0.133919
0.133778
0.133639
0.133501
0.133366
0.133234
0.133108
0.132987
0.132874
0.132769
0.132675
0.132592
0.132523
0.132469
0.132431
0.132412
0.132413
0.132435
0.132481
0.132553
0.13265
0.132775
0.132929
0.133111
0.133318
0.133544
0.133787
0.134046
0.13432
0.134607
0.134907
0.135219
0.135542
0.135874
0.136214
0.136561
0.136914
0.137272
0.137632
0.137994
0.138357
0.138718
0.139076
0.13943
0.139779
0.140121
0.140455
0.140779
0.141092
0.141394
0.141682
0.141955
0.142213
0.142454
0.142678
0.142882
0.143067
0.143232
0.143375
0.143496
0.143594
0.14002
0.140046
0.140059
0.140057
0.140041
0.140011
0.139969
0.139914
0.139847
0.139767
0.139675
0.139572
0.139457
0.139333
0.139205
0.139078
0.138953
0.13883
0.13871
0.138593
0.138478
0.138367
0.138257
0.138151
0.138047
0.137945
0.137845
0.137747
0.137651
0.137556
0.137462
0.137368
0.137275
0.137182
0.137089
0.136996
0.136902
0.136807
0.136712
0.136615
0.136516
0.136416
0.136314
0.13621
0.136104
0.135996
0.135885
0.135771
0.135655
0.135536
0.135414
0.135289
0.135162
0.135032
0.134899
0.134764
0.134627
0.134488
0.134347
0.134206
0.134064
0.133922
0.133781
0.133642
0.133506
0.133374
0.133248
0.133128
0.133016
0.132914
0.132823
0.132745
0.132682
0.132635
0.132606
0.132596
0.132608
0.132642
0.132702
0.132788
0.132902
0.133043
0.133214
0.133413
0.133633
0.13387
0.134124
0.134394
0.134677
0.134975
0.135284
0.135605
0.135936
0.136276
0.136624
0.136978
0.137337
0.1377
0.138065
0.138431
0.138797
0.13916
0.13952
0.139876
0.140224
0.140566
0.140898
0.141219
0.141529
0.141826
0.142109
0.142376
0.142627
0.14286
0.143074
0.143268
0.143442
0.143594
0.143723
0.143829
0.140018
0.14004
0.140046
0.140038
0.140015
0.139979
0.139929
0.139867
0.139792
0.139705
0.139606
0.139497
0.139379
0.139258
0.139139
0.139022
0.138908
0.138797
0.138689
0.138584
0.138482
0.138384
0.138288
0.138195
0.138105
0.138016
0.13793
0.137845
0.137761
0.137679
0.137597
0.137516
0.137434
0.137353
0.137271
0.137189
0.137106
0.137021
0.136935
0.136848
0.136759
0.136667
0.136574
0.136477
0.136378
0.136277
0.136172
0.136064
0.135953
0.135838
0.135721
0.1356
0.135476
0.135348
0.135218
0.135084
0.134948
0.134809
0.134669
0.134526
0.134382
0.134238
0.134094
0.13395
0.133809
0.133671
0.133537
0.13341
0.13329
0.133179
0.133079
0.132992
0.132918
0.13286
0.13282
0.132799
0.132798
0.132821
0.132868
0.132941
0.133042
0.133171
0.133329
0.133517
0.133728
0.133959
0.134207
0.134471
0.13475
0.135043
0.135349
0.135667
0.135995
0.136334
0.136681
0.137035
0.137395
0.137759
0.138127
0.138496
0.138865
0.139233
0.139598
0.139959
0.140314
0.140662
0.141002
0.141331
0.141649
0.141955
0.142247
0.142523
0.142783
0.143025
0.143249
0.143453
0.143636
0.143797
0.143935
0.14405
0.140015
0.140032
0.140032
0.140017
0.139987
0.139943
0.139886
0.139815
0.139733
0.139639
0.139535
0.139423
0.139309
0.139197
0.139089
0.138983
0.138882
0.138783
0.138689
0.138598
0.13851
0.138426
0.138345
0.138266
0.13819
0.138115
0.138043
0.137972
0.137902
0.137832
0.137764
0.137695
0.137627
0.137557
0.137488
0.137417
0.137345
0.137271
0.137195
0.137116
0.137035
0.136952
0.136865
0.136775
0.136682
0.136586
0.136486
0.136383
0.136277
0.136166
0.136052
0.135935
0.135813
0.135689
0.13556
0.135429
0.135294
0.135156
0.135016
0.134873
0.134728
0.134582
0.134435
0.134288
0.134142
0.133998
0.133857
0.133721
0.133592
0.133471
0.133361
0.133262
0.133177
0.133108
0.133055
0.133022
0.133009
0.133018
0.133051
0.13311
0.133197
0.133312
0.133456
0.133629
0.133831
0.134053
0.134294
0.134551
0.134824
0.135112
0.135413
0.135727
0.136053
0.136389
0.136734
0.137087
0.137447
0.137811
0.13818
0.138551
0.138923
0.139294
0.139664
0.140029
0.14039
0.140744
0.141091
0.141428
0.141754
0.142068
0.142368
0.142653
0.142923
0.143175
0.143408
0.143621
0.143814
0.143984
0.144132
0.144255
0.140013
0.140023
0.140016
0.139993
0.139955
0.139903
0.139837
0.13976
0.13967
0.139571
0.139464
0.139357
0.139254
0.139153
0.139057
0.138964
0.138876
0.138792
0.138712
0.138636
0.138563
0.138494
0.138428
0.138364
0.138303
0.138244
0.138186
0.138129
0.138074
0.138019
0.137964
0.137909
0.137853
0.137796
0.137737
0.137677
0.137614
0.137548
0.13748
0.137409
0.137335
0.137257
0.137176
0.137092
0.137004
0.136913
0.136818
0.136719
0.136616
0.136509
0.136399
0.136284
0.136166
0.136044
0.135918
0.135788
0.135655
0.135519
0.135379
0.135237
0.135092
0.134945
0.134796
0.134647
0.134498
0.134349
0.134202
0.134059
0.133921
0.13379
0.133668
0.133557
0.13346
0.133378
0.133312
0.133265
0.133238
0.133233
0.133252
0.133296
0.133367
0.133467
0.133595
0.133754
0.133943
0.134155
0.134387
0.134637
0.134903
0.135184
0.135479
0.135788
0.13611
0.136442
0.136784
0.137135
0.137493
0.137857
0.138226
0.138598
0.138972
0.139345
0.139718
0.140088
0.140453
0.140813
0.141166
0.141509
0.141843
0.142165
0.142473
0.142768
0.143046
0.143307
0.14355
0.143773
0.143976
0.144156
0.144313
0.144446
0.14001
0.140013
0.139998
0.139966
0.139919
0.139859
0.139786
0.139701
0.139606
0.139505
0.139404
0.139308
0.139216
0.139128
0.139045
0.138967
0.138893
0.138825
0.13876
0.1387
0.138644
0.138591
0.13854
0.138493
0.138447
0.138403
0.138361
0.13832
0.13828
0.138238
0.138196
0.138152
0.138106
0.138059
0.138009
0.137956
0.1379
0.137842
0.13778
0.137715
0.137647
0.137575
0.137499
0.13742
0.137337
0.13725
0.137159
0.137064
0.136965
0.136862
0.136755
0.136643
0.136528
0.136408