/*--------------------------------*- C++ -*----------------------------------*\
  =========                 |
  \\      /  F ield         | OpenFOAM: The Open Source CFD Toolbox
   \\    /   O peration     | Website:  https://openfoam.org
    \\  /    A nd           | Version:  10
     \\/     M anipulation  |
\*---------------------------------------------------------------------------*/
FoamFile
{
    format      ascii;
    class       volScalarField;
    location    "0.001";
    object      nut;
}
// * * * * * * * * * * * * * * * * * * * * * * * * * * * * * * * * * * * * * //

dimensions      [0 2 -1 0 0 0 0];

internalField   nonuniform List<scalar> 
8922
(
0.00076262
0.000752211
0.000740613
0.000727678
0.000713349
0.000697548
0.000680199
0.000661236
0.000640597
0.000618233
0.000594142
0.000568309
0.000540701
0.000511571
0.000481107
0.000449572
0.000417093
0.000383819
0.000349964
0.000315763
0.000281347
0.000247564
0.00021585
0.000186155
0.000159479
0.000137284
0.000111629
7.80468e-05
3.98358e-05
6.88173e-06
0.000781044
0.000765014
0.000747674
0.000728945
0.000708793
0.000687191
0.000664128
0.000639619
0.000613708
0.000586432
0.000558051
0.000528886
0.000499349
0.000469594
0.000439933
0.000410761
0.000382386
0.000354864
0.000328532
0.000304066
0.000281091
0.000258758
0.000239505
0.000222721
0.000205143
0.00018511
0.000160649
0.000128656
8.75637e-05
4.02971e-05
0.000775804
0.000754629
0.000732289
0.000708794
0.000684205
0.000658617
0.000632162
0.000605024
0.000577564
0.000550182
0.000523135
0.00049673
0.000471352
0.000447237
0.000424383
0.000403139
0.000384072
0.000365997
0.00034827
0.000333559
0.000321502
0.000309468
0.000296891
0.000282764
0.000266038
0.000245645
0.000220243
0.000188476
0.000150379
0.000106975
0.000753544
0.000728897
0.000703635
0.000677915
0.000651947
0.000626005
0.000600489
0.000575741
0.000551989
0.000529562
0.000508645
0.000489219
0.000471614
0.000456227
0.000441595
0.00042741
0.000417959
0.000410038
0.000402296
0.000394657
0.000386341
0.000376597
0.000364979
0.000350966
0.000333952
0.000313152
0.000287676
0.000256582
0.000221489
0.000183656
0.000724226
0.000699076
0.000674285
0.000650134
0.000626952
0.000605067
0.000584727
0.000566105
0.000549163
0.000534203
0.000521462
0.000509535
0.000498555
0.000493149
0.000488898
0.000485153
0.000481977
0.000478413
0.00047387
0.000468069
0.000460658
0.000451288
0.000439614
0.00042523
0.00040763
0.000386175
0.000360229
0.000329494
0.00029626
0.000261861
0.000699616
0.000677529
0.000656818
0.000637748
0.000620498
0.000605046
0.000591688
0.000580662
0.000570703
0.000562311
0.000559746
0.000558597
0.000558389
0.000559187
0.00055993
0.00056008
0.000559374
0.000557458
0.000554057
0.000548943
0.000541862
0.000532533
0.000520638
0.000505797
0.000487538
0.000465306
0.000438565
0.000408092
0.000375914
0.000342973
0.000689467
0.00067316
0.000658705
0.000646328
0.00063629
0.000627378
0.00062025
0.00061921
0.000620133
0.000622557
0.000626542
0.000630991
0.00063531
0.000639192
0.000642251
0.000644213
0.00064486
0.000643969
0.000641326
0.000636714
0.000629892
0.000620588
0.000608488
0.000593223
0.000574354
0.000551391
0.000523864
0.00049349
0.000461722
0.000429075
0.000697915
0.000688662
0.00068081
0.000674698
0.000674815
0.000677119
0.000681125
0.000686896
0.000693468
0.000700482
0.000707903
0.000715137
0.000721824
0.000727654
0.00073236
0.000735723
0.000737539
0.000737606
0.000735711
0.000731631
0.00072512
0.000715898
0.000703654
0.000688033
0.000668629
0.000645021
0.00061681
0.000586383
0.000554584
0.000521537
0.000723801
0.000724285
0.000727743
0.000733264
0.000740998
0.000749968
0.000759568
0.000769523
0.000779474
0.000789173
0.000798384
0.000807387
0.000815888
0.000823438
0.000829717
0.000834485
0.000837526
0.000838627
0.000837566
0.000834107
0.00082799
0.000818931
0.000806618
0.000790703
0.000770813
0.00074658
0.000717921
0.000687319
0.000655164
0.000621276
0.000777974
0.000786958
0.00079771
0.000809513
0.00082206
0.00083496
0.000847934
0.000860778
0.000873299
0.000885326
0.000896698
0.000907266
0.000917307
0.000926567
0.0009345
0.000940785
0.000945173
0.000947431
0.000947321
0.000944592
0.000938974
0.000930176
0.000917881
0.000901747
0.000881413
0.000856524
0.000827672
0.000796782
0.000764018
0.000728991
0.000850452
0.000864949
0.000880241
0.000895979
0.000911937
0.000927906
0.000943709
0.00095919
0.000974197
0.00098858
0.00100219
0.00101487
0.00102646
0.00103739
0.00104708
0.00105502
0.0010609
0.00106446
0.00106543
0.00106356
0.00105856
0.00105014
0.00103797
0.00102172
0.00100104
0.000975589
0.000946542
0.000915244
0.00088167
0.00084529
0.000933582
0.000951989
0.00097082
0.000989841
0.00100888
0.00102779
0.00104642
0.00106462
0.00108225
0.00109916
0.00111519
0.00113018
0.00114397
0.0011564
0.00116791
0.00117765
0.00118518
0.00119018
0.00119239
0.0011915
0.00118725
0.00117932
0.00116739
0.00115114
0.00113022
0.0011043
0.00107502
0.0010432
0.00100865
0.000970751
0.00102411
0.00104599
0.00106816
0.00109041
0.0011126
0.00113458
0.00115621
0.00117733
0.00119779
0.00121742
0.00123607
0.00125355
0.00126967
0.00128425
0.0012975
0.00130916
0.0013185
0.00132512
0.0013287
0.00132896
0.00132558
0.00131826
0.00130668
0.00129052
0.00126945
0.00124318
0.00121362
0.00118117
0.0011455
0.00110596
0.00112108
0.00114644
0.00117205
0.00119771
0.00122326
0.00124855
0.00127341
0.00129769
0.00132123
0.00134384
0.00136534
0.00138555
0.00140426
0.00142128
0.0014364
0.0014501
0.00146141
0.00146982
0.00147495
0.0014765
0.00147413
0.00146754
0.0014564
0.00144039
0.00141919
0.00139278
0.00136291
0.00132973
0.00129284
0.00125154
0.00122438
0.0012534
0.00128269
0.00131202
0.00134119
0.00137005
0.00139844
0.00142616
0.00145304
0.00147889
0.00150351
0.00152669
0.00154822
0.00156787
0.00158541
0.00160109
0.00161452
0.0016249
0.00163176
0.00163476
0.00163356
0.00162783
0.00161724
0.00160146
0.00158017
0.00155373
0.00152352
0.00148952
0.0014513
0.00140814
0.00133418
0.00136714
0.00140039
0.00143367
0.00146678
0.00149954
0.00153174
0.00156321
0.00159374
0.00162312
0.00165113
0.00167756
0.00170217
0.00172473
0.00174501
0.00176278
0.0017785
0.00179103
0.00179981
0.00180445
0.00180458
0.00179986
0.00178995
0.00177451
0.00175321
0.00172676
0.00169614
0.00166124
0.00162159
0.00157647
0.00145084
0.00148799
0.00152553
0.0015631
0.00160048
0.00163746
0.00167382
0.00170936
0.00174386
0.00177708
0.0018088
0.00183877
0.00186674
0.00189244
0.00191562
0.00193596
0.00195408
0.00196895
0.00197986
0.00198633
0.00198798
0.00198442
0.00197532
0.00196033
0.0019391
0.00191263
0.00188155
0.00184568
0.0018045
0.00175732
0.00157479
0.00161638
0.00165852
0.00170074
0.00174276
0.00178433
0.00182521
0.00186519
0.00190401
0.00194142
0.00197718
0.00201102
0.00204268
0.00207188
0.00209836
0.00212185
0.00214212
0.00215948
0.00217273
0.00218124
0.00218458
0.00218237
0.00217422
0.00215979
0.00213872
0.00211221
0.00208063
0.0020437
0.0020009
0.00195153
0.00170655
0.00175279
0.00179985
0.00184709
0.00189413
0.00194069
0.0019865
0.0020313
0.00207483
0.00211681
0.00215698
0.00219504
0.00223071
0.00226369
0.00229368
0.00232037
0.00234344
0.00236353
0.00237933
0.0023901
0.00239534
0.00239463
0.00238758
0.00237384
0.00235302
0.00232648
0.00229434
0.00225628
0.00221174
0.00216007
0.00184681
0.00189777
0.00195003
0.00200268
0.00205517
0.00210715
0.00215832
0.00220837
0.00225704
0.00230401
0.00234898
0.00239166
0.00243172
0.00246885
0.00250272
0.002533
0.00255935
0.00258215
0.0026007
0.00261396
0.0026213
0.00262226
0.00261643
0.00260342
0.00258307
0.00255652
0.00252378
0.00248449
0.0024381
0.00238397
0.00199632
0.00205198
0.00210967
0.00216809
0.00222648
0.00228436
0.00234136
0.00239715
0.00245142
0.00250384
0.00255408
0.00260181
0.0026467
0.00268839
0.00272655
0.00276084
0.00279092
0.00281649
0.00283801
0.00285399
0.00286368
0.00286652
0.00286207
0.00284992
0.00283012
0.00280356
0.00277016
0.00272955
0.00268118
0.00262444
0.00215588
0.0022162
0.00227944
0.002344
0.00240875
0.00247303
0.00253639
0.00259844
0.00265883
0.00271721
0.00277321
0.00282648
0.00287665
0.00292334
0.00296618
0.00300479
0.00303878
0.00306777
0.00309254
0.00311153
0.00312381
0.00312877
0.00312589
0.00311474
0.00309555
0.00306897
0.00303487
0.00299284
0.00294234
0.00288278
0.00232618
0.00239126
0.00246013
0.00253113
0.00260271
0.00267394
0.00274423
0.00281312
0.00288022
0.00294512
0.00300744
0.00306678
0.00312275
0.00317495
0.00322296
0.00326638
0.00330481
0.00333783
0.0033658
0.00338802
0.00340319
0.00341051
0.00340942
0.00339943
0.00338092
0.00335432
0.00331946
0.00327589
0.0032231
0.0031605
0.00250784
0.00257803
0.00265263
0.00273031
0.00280919
0.00288795
0.0029658
0.00304217
0.0031166
0.00318866
0.00325792
0.00332394
0.0033863
0.00344455
0.00349828
0.00354703
0.0035904
0.00362796
0.00365933
0.0036851
0.00370346
0.00371345
0.00371438
0.00370571
0.00368794
0.00366135
0.00362567
0.00358046
0.00352518
0.00345927
0.0027014
0.00277732
0.00285788
0.00294246
0.00302909
0.003116
0.00320208
0.00328663
0.00336911
0.00344903
0.00352591
0.00359928
0.00366867
0.00373361
0.00379362
0.00384822
0.00389695
0.00393932
0.00397487
0.00400455
0.00402646
0.00403944
0.00404275
0.0040355
0.00401859
0.00399203
0.00395549
0.00390849
0.00385052
0.00378102
0.00290744
0.00298985
0.00307687
0.00316861
0.00326342
0.0033591
0.00345416
0.00354768
0.00363899
0.00372755
0.00381282
0.00389429
0.00397145
0.00404377
0.00411074
0.00417185
0.00422658
0.00427443
0.00431489
0.00434844
0.00437416
0.00439043
0.0043963
0.00439093
0.00437505
0.00434858
0.00431113
0.00426222
0.00420132
0.00412791
0.00312658
0.00321637
0.00331058
0.00340987
0.00351328
0.00361839
0.00372322
0.00382656
0.00392758
0.00402565
0.00412018
0.0042106
0.00429633
0.00437683
0.00445153
0.00451987
0.00458131
0.00463531
0.00468137
0.00471902
0.00474892
0.00476887
0.00477765
0.00477445
0.00475978
0.00473348
0.00469511
0.00464415
0.00458009
0.0045024
0.0033595
0.00345761
0.00355994
0.00366741
0.00377987
0.00389509
0.00401056
0.00412465
0.00423636
0.00434492
0.00444967
0.00454997
0.00464521
0.00473477
0.00481803
0.00489438
0.00496322
0.00502395
0.00507598
0.00511872
0.00515334
0.00517741
0.00518951
0.0051888
0.00517557
0.00514955
0.00511025
0.00505713
0.00498965
0.0049073
0.00360692
0.0037144
0.00382589
0.00394241
0.00406452
0.00419055
0.00431757
0.00444346
0.00456693
0.00468706
0.00480311
0.00491436
0.00502014
0.00511977
0.00521256
0.00529787
0.00537501
0.00544333
0.00550219
0.00555093
0.0055904
0.00561903
0.00563489
0.00563703
0.00562552
0.00559993
0.00555974
0.00550434
0.00543319
0.00534577
0.00386963
0.00398759
0.0041094
0.00423605
0.0043686
0.00450621
0.00464578
0.00478461
0.00492104
0.00505396
0.00518252
0.00530591
0.0054234
0.00553423
0.00563766
0.00573297
0.00581944
0.00589637
0.00596307
0.00601891
0.00606331
0.00609695
0.00611709
0.00612253
0.00611306
0.00608814
0.00604712
0.00598937
0.00591431
0.00582141
0.00414844
0.00427811
0.00441152
0.00454956
0.00469356
0.00484363
0.00499683
0.00514985
0.00530057
0.00544764
0.00559006
0.00572693
0.00585743
0.00598073
0.00609602
0.0062025
0.00629937
0.00638585
0.00646117
0.00652457
0.00657533
0.00661479
0.0066398
0.00664905
0.00664205
0.00661807
0.00657638
0.00651625
0.00643707
0.00633827
0.00444425
0.00458696
0.00473335
0.00488419
0.00504093
0.0052045
0.00537252
0.00554111
0.00570759
0.00587031
0.00602809
0.00617994
0.00632492
0.00646212
0.00659065
0.00670964
0.00681819
0.00691545
0.00700055
0.00707265
0.00713087
0.00717684
0.00720713
0.00722076
0.00721673
0.00719409
0.00715193
0.00708946
0.00700598
0.0069009
0.00475798
0.0049152
0.00507609
0.00524129
0.00541227
0.00559059
0.00577475
0.00596043
0.00614431
0.00632436
0.0064992
0.00666769
0.00682879
0.0069815
0.00712484
0.00725785
0.00737956
0.00748903
0.00758535
0.00766764
0.0077351
0.00778699
0.00782343
0.00784221
0.0078418
0.00782098
0.00777868
0.00771398
0.0076261
0.00751439
0.00509061
0.00526396
0.00544103
0.00562231
0.00580923
0.00600381
0.00620558
0.00641004
0.00661314
0.0068124
0.00700617
0.00719316
0.00737222
0.00754223
0.00770212
0.00785082
0.00798725
0.00811038
0.00821918
0.00831265
0.00838982
0.00844975
0.00849357
0.00851844
0.00852242
0.00850404
0.00846202
0.00839532
0.00830302
0.00818439
0.00544318
0.00563444
0.00582953
0.00602878
0.00623356
0.00644617
0.00666724
0.00689235
0.00711669
0.00733723
0.00755203
0.00775961
0.00795868
0.00814802
0.00832641
0.00849268
0.00864565
0.00878417
0.00890708
0.00901327
0.0091016
0.00917097
0.00922312
0.00925502
0.00926428
0.00924908
0.00920791
0.00913953
0.00904289
0.00891715
0.00581678
0.00602792
0.00624307
0.00646239
0.00668715
0.00691984
0.0071621
0.00740996
0.00765778
0.00790191
0.00814007
0.00837057
0.00859196
0.00880287
0.00900197
0.00918797
0.00935957
0.00951549
0.00965449
0.00977535
0.00987688
0.00995796
0.0100183
0.0100581
0.0100736
0.0100625
0.0100228
0.00995326
0.00985249
0.00971954
0.00621255
0.00644578
0.00668324
0.00692494
0.00717203
0.0074271
0.00769273
0.00796565
0.00823945
0.00850975
0.00877388
0.00902989
0.00927615
0.00951116
0.00973344
0.00994155
0.0101341
0.0103096
0.0104667
0.0106041
0.0107205
0.0108146
0.010885
0.0109341
0.0109571
0.0109511
0.0109139
0.0108438
0.0107392
0.0105991
0.00663173
0.00688945
0.00715173
0.00741837
0.0076904
0.00797045
0.00826189
0.00856245
0.00886499
0.00916432
0.0094573
0.0097417
0.0100157
0.0102776
0.0105258
0.0107587
0.0109747
0.0111723
0.0113499
0.011506
0.0116391
0.0117477
0.0118304
0.0118904
0.0119223
0.0119227
0.011889
0.011819
0.0117112
0.011564
0.00707558
0.00736051
0.00765037
0.00794479
0.00824465
0.00855256
0.00887256
0.00920362
0.00953795
0.00986947
0.0101945
0.0105105
0.0108154
0.0111074
0.0113845
0.0116452
0.0118877
0.0121101
0.0123109
0.0124883
0.0126406
0.0127662
0.0128635
0.0129351
0.0129773
0.0129854
0.0129564
0.0128876
0.0127771
0.0126233
0.0075455
0.00786061
0.00818114
0.00850649
0.00883735
0.00917633
0.00952798
0.00989266
0.0102622
0.0106294
0.01099
0.0113411
0.0116805
0.0120059
0.0123155
0.0126073
0.0128794
0.0131299
0.0133569
0.0135586
0.0137332
0.0138782
0.013993
0.0140769
0.0141308
0.0141483
0.0141253
0.0140589
0.0139467
0.0137867
0.00804293
0.00839153
0.00874615
0.00910591
0.00947134
0.00984492
0.0102316
0.0106334
0.0110418
0.0114485
0.0118487
0.0122389
0.0126165
0.0129793
0.013325
0.0136516
0.0139569
0.0142387
0.0144952
0.0147241
0.0149234
0.0150905
0.0152245
0.0153242
0.0153922
0.015421
0.0154059
0.0153432
0.0152303
0.0150647
0.00856945
0.0089552
0.00934769
0.00974575
0.0101497
0.0105618
0.0109873
0.0114299
0.0118812
0.0123318
0.0127757
0.0132093
0.0136296
0.014034
0.01442
0.0147854
0.0151278
0.0154449
0.0157344
0.015994
0.0162214
0.0164137
0.0165699
0.0166883
0.0167724
0.0168145
0.016809
0.0167517
0.0166393
0.0164691
0.00912676
0.0095537
0.00998826
0.0104289
0.0108756
0.0113306
0.0117993
0.0122867
0.0127854
0.0132843
0.0137769
0.0142587
0.0147263
0.015177
0.015608
0.0160168
0.0164007
0.0167573
0.017084
0.0173783
0.0176377
0.0178591
0.0180414
0.0181828
0.0182832
0.0183404
0.0183465
0.0182964
0.0181861
0.0180123
0.00971672
0.0101893
0.0106705
0.0111586
0.0116529
0.0121556
0.012672
0.0132087
0.0137594
0.0143119
0.0148582
0.0153934
0.0159137
0.0164158
0.016897
0.0173541
0.0177845
0.0181854
0.0185538
0.0188872
0.0191827
0.0194369
0.0196486
0.0198157
0.019936
0.0200111
0.0200315
0.0199907
0.0198842
0.0197081
0.0103414
0.0108644
0.0113975
0.0119381
0.0124855
0.0130412
0.0136104
0.0142011
0.014809
0.0154204
0.0160262
0.0166206
0.0171993
0.0177587
0.0182955
0.0188067
0.019289
0.0197394
0.0201547
0.0205319
0.0208679
0.0211591
0.0214039
0.0215998
0.0217443
0.0218406
0.021878
0.0218491
0.0217484
0.0215716
0.0110029
0.0115817
0.0121723
0.0127714
0.0133777
0.0139922
0.0146199
0.0152697
0.01594
0.0166164
0.0172878
0.0179476
0.018591
0.0192139
0.0198127
0.020384
0.0209242
0.0214301
0.0218983
0.0223253
0.0227064
0.0230396
0.0233223
0.0235515
0.0237241
0.0238445
0.0239017
0.0238873
0.0237949
0.0236192
0.0117039
0.0123442
0.0129985
0.0136625
0.0143342
0.0150141
0.0157066
0.0164209
0.0171591
0.0179065
0.0186502
0.0193822
0.0200971
0.0207904
0.0214579
0.022096
0.0227007
0.0232685
0.0237956
0.0242782
0.0247112
0.0250924
0.025419
0.0256879
0.0258958
0.0260398
0.0261195
0.0261226
0.0260412
0.0258689
0.0124472
0.0131551
0.0138798
0.0146158
0.0153602
0.0161126
0.0168768
0.0176618
0.0184734
0.0192981
0.020121
0.0209325
0.0217262
0.0224971
0.0232408
0.0239529
0.0246293
0.025266
0.0258589
0.0264038
0.0268952
0.0273306
0.0277066
0.0280196
0.0282659
0.0284414
0.0285487
0.0285736
0.0285065
0.0283404
0.0132358
0.014018
0.0148206
0.0156364
0.0164613
0.0172943
0.0181379
0.0190003
0.0198906
0.0207989
0.021708
0.0226065
0.0234869
0.0243434
0.0251709
0.0259649
0.0267209
0.0274342
0.0281005
0.0287152
0.0292724
0.029769
0.0302013
0.0305651
0.0308558
0.031069
0.0312091
0.0312604
0.0312119
0.0310552
0.0140736
0.0149371
0.0158256
0.0167297
0.017644
0.0185662
0.0194977
0.0204454
0.0214198
0.0224172
0.0234195
0.0244128
0.0253879
0.0263381
0.0272579
0.0281421
0.0289859
0.0297843
0.0305323
0.031225
0.0318561
0.0324224
0.0329192
0.0333418
0.0336851
0.0339437
0.0341213
0.0342045
0.0341798
0.0340372
0.0149644
0.0159167
0.0168998
0.0179017
0.018915
0.0199361
0.0209651
0.022007
0.0230717
0.024163
0.0252646
0.0263599
0.0274377
0.02849
0.0295105
0.0304936
0.0314339
0.0323263
0.0331654
0.0339439
0.0346579
0.0353028
0.0358735
0.0363647
0.0367708
0.0370861
0.037305
0.0374267
0.0374328
0.0373104
0.0159131
0.0169619
0.0180493
0.0191591
0.0202821
0.0214129
0.0225501
0.0236963
0.0248596
0.0260484
0.0272539
0.0284575
0.0296452
0.0308075
0.0319368
0.033027
0.0340723
0.0350669
0.0360053
0.0368795
0.0376856
0.0384185
0.0390727
0.039642
0.0401199
0.0404997
0.0407745
0.0409462
0.0409935
0.0409008
0.0169249
0.0180785
0.0192803
0.0205095
0.021754
0.0230065
0.0242637
0.025526
0.0267986
0.0280902
0.0294015
0.0307173
0.0320208
0.0332996
0.0345451
0.0357499
0.0369077
0.0380125
0.0390582
0.0400368
0.040944
0.0417745
0.0425222
0.0431804
0.0437418
0.0441987
0.0445429
0.0447784
0.0448812
0.0448324
0.0180057
0.0192728
0.0206002
0.0219612
0.0233402
0.0247277
0.0261184
0.0275104
0.0289056
0.0303098
0.0317287
0.033157
0.0345785
0.0359783
0.0373451
0.0386703
0.0399468
0.0411681
0.0423279
0.0434178
0.0444338
0.0453701
0.0462207
0.0469784
0.0476357
0.0481843
0.0486148
0.0489281
0.0491047
0.0491211
0.0191619
0.0205516
0.0220168
0.0235232
0.0250511
0.0265885
0.0281278
0.0296647
0.0311982
0.0327303
0.0342652
0.0358049
0.0373421
0.0388623
0.040352
0.0418003
0.0431988
0.0445401
0.0458173
0.0470227
0.0481517
0.0491991
0.0501586
0.0510236
0.0517866
0.0524397
0.0529738
0.053379
0.0536515
0.0537619
0.0204005
0.0219226
0.0235384
0.025205
0.0268976
0.0286011
0.0303055
0.0320044
0.033694
0.0353729
0.0370414
0.0387011
0.0403514
0.0419862
0.0435939
0.0451624
0.0466812
0.048142
0.0495346
0.0508541
0.0520955
0.0532534
0.0543219
0.0552948
0.0561653
0.0569259
0.0575684
0.0580834
0.0584734
0.0587096
0.0217288
0.0233933
0.0251737
0.0270163
0.0288903
0.0307771
0.0326644
0.0345434
0.036408
0.0382539
0.0400783
0.0418793
0.0436554
0.0454044
0.0471218
0.0488001
0.0504295
0.0520004
0.0535009
0.0549268
0.0562728
0.0575334
0.058703
0.0597759
0.0607462
0.0616073
0.0623526
0.062974
0.0634798
0.0638448
0.0231539
0.0249715
0.026931
0.0289659
0.0310387
0.0331266
0.0352144
0.0372915
0.0393496
0.0413822
0.0433839
0.0453502
0.047277
0.0491605
0.0509969
0.0527819
0.0545106
0.0561764
0.0577678
0.0592827
0.0607161
0.0620623
0.0633157
0.0644708
0.0655224
0.066465
0.0672933
0.0680011
0.0685947
0.0690602
0.0246829
0.0266644
0.0288176
0.0310614
0.0333501
0.0356562
0.0379615
0.0402531
0.0425209
0.0447565
0.0469526
0.049103
0.0512017
0.0532433
0.0552228
0.0571356
0.0589775
0.0607348
0.0624075
0.0639945
0.0654933
0.0669003
0.0682109
0.0694205
0.0705244
0.0715182
0.0723979
0.0731596
0.0738002
0.0743287
0.0263219
0.0284781
0.0308395
0.0333082
0.035829
0.0383689
0.0409063
0.0434258
0.0459155
0.0483653
0.0507666
0.0531115
0.055393
0.0576045
0.0597399
0.0617937
0.0637607
0.0656287
0.0673976
0.0690661
0.0706319
0.0720924
0.0734448
0.074686
0.075813
0.0768229
0.0777127
0.0784791
0.0791196
0.0796542
0.0280758
0.0304176
0.0330008
0.0357091
0.0384762
0.0412629
0.0440437
0.0468005
0.0495193
0.0521886
0.0547983
0.0573395
0.0598043
0.0621852
0.0644757
0.0666695
0.0687611
0.0707409
0.072608
0.0743606
0.0759965
0.0775132
0.0789083
0.0801789
0.0813226
0.0823363
0.0832169
0.0839603
0.0845619
0.0850443
0.0299481
0.0324859
0.0353034
0.0382639
0.0412891
0.0443324
0.0473639
0.0503624
0.0533121
0.0561997
0.059014
0.0617453
0.0643849
0.0669251
0.0693592
0.0716813
0.0738823
0.0759591
0.0779095
0.0797315
0.0814229
0.0829817
0.0844058
0.0856929
0.0868407
0.0878467
0.0887076
0.0894194
0.0899775
0.0903934
0.0319407
0.0346841
0.0377468
0.0409698
0.0442616
0.0475674
0.0508525
0.0540925
0.0572693
0.0603683
0.0633771
0.0662854
0.0690841
0.0717655
0.0743229
0.0767504
0.0790405
0.0811914
0.0832012
0.0850684
0.0867917
0.0883696
0.0898012
0.0910853
0.0922206
0.0932058
0.094039
0.0947176
0.0952387
0.0956019
0.0340536
0.0370116
0.0403283
0.0438213
0.0473846
0.0509551
0.0544923
0.0579687
0.061364
0.0646621
0.06785
0.070917
0.0738541
0.0766539
0.0793104
0.0818163
0.0841688
0.0863664
0.0884082
0.0902936
0.0920228
0.0935958
0.0950133
0.0962758
0.0973839
0.098338
0.0991382
0.0997839
0.100274
0.100609
0.0362853
0.0394657
0.0430431
0.0468106
0.0506472
0.0544803
0.0582641
0.0619676
0.0655682
0.069049
0.0723965
0.0755998
0.0786506
0.0815421
0.0842692
0.0868264
0.0892128
0.0914286
0.0934744
0.0953515
0.0970618
0.0986076
0.0999917
0.101217
0.102286
0.103201
0.103965
0.104579
0.105045
0.105363
0.0386327
0.0420422
0.0458849
0.0499287
0.0540367
0.058127
0.062148
0.0660652
0.0698544
0.0734979
0.076982
0.0802965
0.0834341
0.0863894
0.0891571
0.0917362
0.0941277
0.0963333
0.098356
0.100199
0.101868
0.103366
0.104699
0.105872
0.106891
0.10776
0.108483
0.109065
0.109508
0.109815
0.041091
0.0447356
0.0488461
0.053165
0.0575396
0.0618782
0.0661235
0.0702379
0.0741958
0.0779789
0.0815742
0.0849724
0.0881676
0.0911563
0.0939356
0.0965074
0.098875
0.101043
0.103016
0.104802
0.106407
0.107838
0.109103
0.110211
0.111167
0.111979
0.112653
0.113194
0.113607
0.113896
0.0436551
0.0475395
0.0519183
0.0565086
0.061142
0.0657169
0.0701707
0.0744629
0.0785667
0.082464
0.0861429
0.0895957
0.0928188
0.0958096
0.0985702
0.101105
0.10342
0.105523
0.107423
0.109128
0.110648
0.111994
0.113175
0.114201
0.115082
0.115825
0.116439
0.11693
0.117302
0.117562
0.046319
0.0504467
0.0550926
0.0599485
0.06483
0.0696267
0.0742703
0.0787181
0.0829426
0.0869265
0.0906593
0.0941358
0.0973548
0.100317
0.103029
0.105497
0.107732
0.109744
0.111545
0.113147
0.114563
0.115805
0.116887
0.117818
0.118611
0.119276
0.11982
0.120252
0.120578
0.120803
0.0490761
0.0534498
0.0583601
0.0634733
0.0685902
0.0735912
0.0784035
0.0829822
0.0872999
0.0913406
0.0950962
0.0985646
0.101747
0.104649
0.107281
0.109654
0.111781
0.113676
0.115356
0.116835
0.118128
0.119251
0.120218
0.121043
0.121738
0.122314
0.122781
0.123148
0.123422
0.123609
0.0519184
0.056541
0.0617116
0.0670723
0.0724093
0.0775949
0.0825521
0.0872346
0.0916157
0.0956814
0.0994268
0.102853
0.105966
0.108777
0.111298
0.113547
0.11554
0.117296
0.118832
0.120169
0.121324
0.122313
0.123155
0.123863
0.12445
0.124931
0.125314
0.125609
0.125823
0.125965
0.0548406
0.0597133
0.0651388
0.0707349
0.0762746
0.0816226
0.0866984
0.0914551
0.0958676
0.0999248
0.103626
0.106976
0.109986
0.112673
0.115055
0.117152
0.118987
0.120581
0.121957
0.123136
0.124139
0.124986
0.125693
0.126277
0.126754
0.127134
0.127429
0.127649
0.1278
0.12789
0.057838
0.0629599
0.0686333
0.0744512
0.0801738
0.0856594
0.090825
0.0956241
0.100034
0.104047
0.107667
0.110907
0.113782
0.116314
0.118528
0.120449
0.122104
0.123519
0.12472
0.125731
0.126576
0.127274
0.127844
0.128305
0.128669
0.128951
0.12916
0.129306
0.129396
0.129436
0.0609031
0.0662739
0.0721872
0.0782111
0.0840946
0.0896907
0.0949148
0.0997219
0.104093
0.108025
0.111529
0.114623
0.11733
0.119679
0.121699
0.123424
0.124882
0.126106
0.127124
0.127963
0.128647
0.129198
0.129637
0.12998
0.130241
0.130433
0.130566
0.130647
0.130684
0.130681
0.0640313
0.0696489
0.0757928
0.0820053
0.0880254
0.093702
0.0989506
0.103729
0.108023
0.111836
0.115188
0.118102
0.120611
0.122751
0.124557
0.126069
0.127321
0.128347
0.129181
0.129851
0.130382
0.130797
0.131116
0.131356
0.131529
0.131648
0.131721
0.131754
0.131754
0.131725
0.0672144
0.0730784
0.0794428
0.0858246
0.0919542
0.0976787
0.102915
0.107626
0.111804
0.11546
0.118623
0.121326
0.12361
0.125519
0.127097
0.128386
0.129428
0.130261
0.130917
0.131429
0.131822
0.132119
0.132338
0.132496
0.132603
0.13267
0.132704
0.132709
0.13269
0.132649
0.0704442
0.0765567
0.0831305
0.0896599
0.0958692
0.101606
0.106791
0.111394
0.115415
0.118877
0.121816
0.12428
0.126317
0.127981
0.129321
0.130387
0.131225
0.131873
0.132369
0.132743
0.13302
0.133222
0.133366
0.133467
0.133533
0.133572
0.133591
0.13359
0.133574
0.133542
0.0737284
0.0800813
0.08685
0.0935024
0.0997587
0.105469
0.110562
0.115014
0.118837
0.122068
0.124754
0.126955
0.128729
0.130139
0.131242
0.132093
0.132739
0.133222
0.133579
0.133839
0.134027
0.134161
0.134257
0.134325
0.134373
0.134406
0.134427
0.134436
0.134434
0.134421
0.0770627
0.0836484
0.0905955
0.0973433
0.10361
0.109253
0.114209
0.118467
0.122054
0.125019
0.127426
0.129345
0.130849
0.132005
0.13288
0.13353
0.134005
0.134348
0.134593
0.134768
0.134893
0.134986
0.135056
0.135113
0.13516
0.1352
0.135235
0.135262
0.135282
0.135293
0.0804312
0.0872517
0.0943604
0.101173
0.107412
0.112943
0.117716
0.121737
0.125049
0.127719
0.129826
0.131454
0.132685
0.133598
0.13426
0.134732
0.135063
0.135294
0.135455
0.135572
0.13566
0.135732
0.135795
0.135855
0.135912
0.135967
0.13602
0.136067
0.136107
0.136137
0.083822
0.0908842
0.0981376
0.104983
0.11115
0.116521
0.121065
0.124807
0.127809
0.130159
0.131952
0.133287
0.134255
0.13494
0.135413
0.135735
0.135951
0.136099
0.136204
0.136286
0.136358
0.136427
0.136497
0.136569
0.136642
0.136716
0.136788
0.136854
0.136913
0.136961
0.0872408
0.0945423
0.10192
0.108761
0.11481
0.119972
0.12424
0.127662
0.130325
0.132336
0.13381
0.134858
0.135579
0.13606
0.136374
0.136575
0.136706
0.136798
0.136871
0.13694
0.13701
0.137087
0.137169
0.137257
0.137347
0.137437
0.137525
0.137605
0.137677
0.13774
0.0906969
0.0982247
0.105701
0.112497
0.118379
0.123281
0.127225
0.13029
0.132589
0.134251
0.13541
0.136185
0.136683
0.13699
0.137174
0.137286
0.13736
0.137419
0.13748
0.137547
0.137625
0.137713
0.137808
0.137908
0.13801
0.138111
0.138208
0.138298
0.138381
0.138455
0.0941914
0.10193
0.109476
0.11618
0.121841
0.12643
0.130006
0.132681
0.134598
0.135911
0.136765
0.137291
0.137595
0.13776
0.137847
0.137897
0.137937
0.137983
0.138042
0.138116
0.138204
0.138302
0.138408
0.138517
0.138628
0.138737
0.138845
0.138945
0.13904
0.139132
0.0977249
0.105657
0.113236
0.119798
0.125181
0.129404
0.132569
0.134828
0.136355
0.137325
0.137896
0.138202
0.138345
0.138401
0.13842
0.138433
0.138458
0.138502
0.138567
0.13865
0.138748
0.138855
0.138969
0.139087
0.139205
0.139323
0.139439
0.139551
0.139661
0.139767
0.101298
0.109403
0.116974
0.123339
0.128385
0.132188
0.134905
0.136729
0.137865
0.138509
0.138825
0.138945
0.138962
0.13894
0.138918
0.138914
0.138938
0.138989
0.139064
0.139159
0.139267
0.139386
0.13951
0.139638
0.139768
0.139898
0.140029
0.140159
0.140288
0.140417
0.104907
0.113166
0.120684
0.126789
0.131435
0.134769
0.137005
0.138383
0.13914
0.139483
0.139578
0.139549
0.139475
0.139405
0.139364
0.13936
0.139393
0.139459
0.139551
0.139663
0.139788
0.139923
0.140065
0.14021
0.140358
0.140507
0.140656
0.140804
0.14095
0.141098
0.108542
0.11694
0.124354
0.130134
0.134317
0.137133
0.138864
0.139798
0.140194
0.14027
0.140184
0.140044
0.139912
0.139821
0.139782
0.139794
0.13985
0.139942
0.140063
0.140204
0.140361
0.140529
0.140705
0.140885
0.141069
0.141252
0.141434
0.141611
0.141781
0.141946
0.112192
0.120716
0.127974
0.133359
0.137015
0.13927
0.140482
0.140982
0.141049
0.140898
0.140673
0.140461
0.140304
0.140218
0.140202
0.140248
0.140344
0.14048
0.140647
0.140838
0.141047
0.141268
0.141496
0.141729
0.141962
0.142191
0.142413
0.142621
0.142811
0.142979
0.11583
0.124486
0.131532
0.136448
0.139515
0.141175
0.141864
0.141952
0.141729
0.141397
0.141077
0.140832
0.140683
0.140629
0.14066
0.140761
0.140919
0.141123
0.141361
0.141626
0.141911
0.14221
0.142517
0.142826
0.143132
0.14343
0.143714
0.143976
0.144212
0.144417
0.119489
0.128245
0.135014
0.139386
0.141804
0.142844
0.143017
0.142728
0.142263
0.141801
0.141433
0.141193
0.141083
0.141089
0.141191
0.141371
0.141611
0.141898
0.14222
0.142565
0.142923
0.143284
0.14364
0.143985
0.144314
0.144626
0.144924
0.145214
0.145503
0.145788
0.123208
0.131996
0.13841
0.142156
0.143872
0.144277
0.143958
0.143337
0.142685
0.142144
0.141773
0.141577
0.141538
0.141629
0.141824
0.142099
0.142436
0.142817
0.143227
0.143655
0.14409
0.144527
0.14496
0.145387
0.145806
0.146212
0.1466
0.146963
0.147293
0.147587
0.126967
0.135731
0.141704
0.144745
0.145713
0.145482
0.144705
0.143808
0.143027
0.142463
0.142133
0.142014
0.14207
0.142264
0.142561
0.142932
0.143354
0.143803
0.144264
0.144719
0.145159
0.145573
0.145962
0.146337
0.146729
0.147112
0.147466
0.147789
0.14808
0.148345
0.130754
0.139443
0.144884
0.147139
0.147323
0.146469
0.145284
0.144174
0.143326
0.142788
0.142536
0.14252
0.142685
0.142984
0.143374
0.143821
0.144297
0.144781
0.145257
0.145715
0.146152
0.14657
0.146973
0.147365
0.147742
0.14809
0.148402
0.148675
0.148913
0.149135
0.134559
0.143119
0.147935
0.149326
0.148703
0.147255
0.145722
0.144467
0.143611
0.143142
0.142995
0.143091
0.143359
0.14374
0.144184
0.144652
0.145114
0.145545
0.145929
0.146258
0.14653
0.146763
0.146997
0.147184
0.147318
0.147401
0.14744
0.147449
0.147447
0.147456
0.138376
0.14675
0.15084
0.151298
0.149857
0.14786
0.146048
0.144717
0.143904
0.143535
0.143501
0.143698
0.144039
0.144454
0.14489
0.145305
0.14567
0.145967
0.146189
0.146342
0.146467
0.146588
0.146682
0.146742
0.14678
0.146797
0.146734
0.146628
0.146518
0.146416
0.142192
0.150323
0.153587
0.153047
0.150796
0.148308
0.146292
0.144946
0.144217
0.14396
0.144028
0.144293
0.144656
0.145044
0.145403
0.145698
0.145913