/*--------------------------------*- C++ -*----------------------------------*\
  =========                 |
  \\      /  F ield         | OpenFOAM: The Open Source CFD Toolbox
   \\    /   O peration     | Website:  https://openfoam.org
    \\  /    A nd           | Version:  10
     \\/     M anipulation  |
\*---------------------------------------------------------------------------*/
FoamFile
{
    format      ascii;
    class       volScalarField;
    location    "0.001";
    object      nuTilda;
}
// * * * * * * * * * * * * * * * * * * * * * * * * * * * * * * * * * * * * * //

dimensions      [0 2 -1 0 0 0 0];

internalField   nonuniform List<scalar> 
8922
(
0.000764924
0.000754579
0.000743054
0.000730206
0.000715979
0.000700297
0.000683089
0.000664292
0.000643851
0.000621724
0.000597918
0.000572429
0.000545242
0.000516627
0.000486799
0.00045605
0.000424554
0.000392519
0.000360241
0.000328058
0.000296242
0.00026574
0.000237941
0.000212798
0.000191032
0.00017352
0.00015386
0.000128557
9.79447e-05
5.68807e-05
0.000783245
0.000767308
0.000750075
0.000731471
0.000711464
0.000690031
0.000667168
0.000642895
0.000617263
0.00059032
0.000562336
0.000533645
0.000504668
0.00047558
0.000446709
0.000418466
0.000391177
0.000364922
0.000340049
0.000317206
0.00029604
0.00027578
0.000258613
0.0002439
0.000228772
0.000211924
0.000191951
0.000166813
0.000135783
9.85445e-05
0.000778039
0.000756992
0.000734798
0.000711472
0.000687078
0.000661716
0.000635524
0.00060869
0.000581581
0.000554601
0.00052801
0.000502119
0.000477312
0.000453822
0.000431651
0.000411135
0.000392811
0.000375531
0.000358684
0.000344791
0.000333468
0.000322232
0.000310566
0.000297566
0.000282336
0.000264039
0.000241726
0.0002147
0.000183784
0.000150418
0.000755918
0.000731434
0.000706358
0.000680847
0.000655117
0.00062944
0.000604218
0.000579793
0.000556389
0.000534332
0.000513803
0.000494779
0.000477578
0.00046258
0.000448351
0.000434593
0.000425448
0.000417797
0.000410332
0.000402979
0.000394991
0.000385654
0.000374558
0.000361233
0.000345147
0.000325648
0.000302055
0.000273798
0.000242817
0.000210738
0.000726801
0.000701839
0.000677254
0.000653326
0.000630382
0.000608747
0.000588663
0.000570299
0.000553614
0.000538901
0.000526385
0.000514684
0.000503925
0.000498633
0.000494474
0.000490812
0.000487708
0.000484226
0.000479789
0.000474127
0.0004669
0.000457775
0.000446426
0.000432476
0.000415463
0.00039482
0.000370022
0.000340944
0.000309969
0.000278564
0.000702378
0.000680473
0.00065995
0.000641068
0.000624003
0.00060873
0.000595538
0.000584658
0.000574837
0.000566567
0.000564042
0.000562912
0.000562708
0.000563494
0.000564227
0.000564376
0.00056368
0.000561793
0.000558444
0.000553409
0.00054644
0.000537266
0.00052558
0.000511019
0.000493139
0.000471423
0.0004454
0.000415903
0.00038499
0.000353657
0.000692313
0.000676146
0.000661822
0.000649565
0.00063963
0.000630812
0.000623764
0.000622737
0.000623651
0.000626049
0.000629992
0.000634394
0.000638669
0.000642512
0.000645541
0.000647484
0.000648125
0.000647242
0.000644625
0.00064006
0.000633309
0.000624105
0.000612142
0.000597062
0.000578441
0.000555813
0.000528743
0.00049896
0.000467928
0.000436195
0.000700696
0.000691518
0.000683733
0.000677675
0.000677792
0.000680077
0.00068405
0.000689774
0.000696293
0.000703253
0.000710618
0.000717799
0.000724438
0.000730227
0.000734901
0.000738241
0.000740046
0.000740112
0.00073823
0.000734178
0.000727711
0.000718555
0.000706403
0.000690905
0.000671667
0.00064828
0.000620366
0.000590307
0.000558955
0.000526457
0.00072639
0.000726872
0.000730306
0.000735791
0.000743474
0.000752387
0.000761928
0.000771823
0.000781717
0.000791363
0.000800524
0.000809482
0.000817939
0.000825453
0.000831702
0.000836447
0.000839475
0.000840571
0.000839515
0.000836072
0.000829983
0.000820969
0.000808717
0.000792887
0.000773109
0.000749024
0.000720562
0.000690196
0.000658324
0.000624781
0.000780219
0.000789153
0.000799848
0.000811591
0.000824076
0.000836916
0.000849831
0.000862621
0.00087509
0.000887069
0.000898398
0.000908927
0.000918932
0.000928161
0.000936067
0.000942332
0.000946706
0.000948956
0.000948847
0.000946126
0.000940527
0.000931758
0.000919506
0.00090343
0.000883173
0.000858387
0.000829665
0.000798931
0.000766353
0.000731552
0.000852334
0.00086677
0.000882
0.000897678
0.000913578
0.000929492
0.000945243
0.000960676
0.000975638
0.00098998
0.00100355
0.0010162
0.00102776
0.00103867
0.00104833
0.00105625
0.00106212
0.00106567
0.00106664
0.00106477
0.00105978
0.00105138
0.00103924
0.00102303
0.00100241
0.000977027
0.00094807
0.000916876
0.000883428
0.000847201
0.000935146
0.000953494
0.000972267
0.000991235
0.00101023
0.00102909
0.00104767
0.00106583
0.00108342
0.00110029
0.00111629
0.00113125
0.00114502
0.00115743
0.00116891
0.00117864
0.00118615
0.00119115
0.00119335
0.00119247
0.00118822
0.0011803
0.0011684
0.00115217
0.0011313
0.00110542
0.00107621
0.00104445
0.00100999
0.000972203
0.00102541
0.00104724
0.00106935
0.00109156
0.00111371
0.00113565
0.00115723
0.00117832
0.00119874
0.00121835
0.00123696
0.00125442
0.00127052
0.00128508
0.00129831
0.00130996
0.00131929
0.0013259
0.00132948
0.00132973
0.00132636
0.00131905
0.00130748
0.00129134
0.0012703
0.00124407
0.00121455
0.00118215
0.00114655
0.00110708
0.00112217
0.00114748
0.00117305
0.00119867
0.00122418
0.00124942
0.00127425
0.00129851
0.00132201
0.0013446
0.00136608
0.00138626
0.00140496
0.00142196
0.00143707
0.00145075
0.00146205
0.00147045
0.00147558
0.00147712
0.00147476
0.00146818
0.00145705
0.00144105
0.00141987
0.00139349
0.00136365
0.0013305
0.00129366
0.00125242
0.00122529
0.00125427
0.00128352
0.00131281
0.00134195
0.00137078
0.00139914
0.00142683
0.00145369
0.00147952
0.00150411
0.00152728
0.00154879
0.00156843
0.00158596
0.00160162
0.00161505
0.00162542
0.00163228
0.00163527
0.00163407
0.00162835
0.00161776
0.00160199
0.00158072
0.0015543
0.00152411
0.00149014
0.00145195
0.00140883
0.00133495
0.00136787
0.00140109
0.00143434
0.00146742
0.00150014
0.00153233
0.00156377
0.00159428
0.00162364
0.00165163
0.00167805
0.00170264
0.00172519
0.00174546
0.00176322
0.00177893
0.00179145
0.00180024
0.00180487
0.001805
0.00180029
0.00179038
0.00177494
0.00175365
0.00172722
0.00169662
0.00166174
0.00162211
0.00157702
0.00145149
0.00148861
0.00152611
0.00156366
0.00160102
0.00163797
0.00167431
0.00170983
0.00174431
0.00177752
0.00180922
0.00183917
0.00186713
0.00189283
0.00191599
0.00193633
0.00195443
0.0019693
0.00198021
0.00198668
0.00198832
0.00198477
0.00197567
0.00196068
0.00193947
0.001913
0.00188194
0.00184609
0.00180492
0.00175776
0.00157534
0.00161691
0.00165902
0.00170122
0.00174321
0.00178476
0.00182563
0.00186558
0.00190438
0.00194179
0.00197753
0.00201136
0.00204301
0.0020722
0.00209867
0.00212216
0.00214241
0.00215978
0.00217302
0.00218153
0.00218487
0.00218265
0.00217451
0.00216008
0.00213902
0.00211252
0.00208095
0.00204403
0.00200124
0.00195189
0.00170702
0.00175323
0.00180027
0.00184749
0.00189451
0.00194105
0.00198685
0.00203163
0.00207514
0.00211712
0.00215727
0.00219532
0.00223098
0.00226396
0.00229394
0.00232063
0.00234369
0.00236378
0.00237957
0.00239034
0.00239558
0.00239487
0.00238782
0.00237408
0.00235327
0.00232673
0.0022946
0.00225654
0.00221202
0.00216036
0.00184721
0.00189815
0.00195039
0.00200302
0.00205549
0.00210746
0.00215861
0.00220865
0.0022573
0.00230426
0.00234923
0.0023919
0.00243196
0.00246908
0.00250294
0.00253321
0.00255955
0.00258236
0.0026009
0.00261416
0.0026215
0.00262246
0.00261663
0.00260362
0.00258328
0.00255673
0.00252399
0.00248471
0.00243833
0.00238421
0.00199667
0.00205231
0.00210998
0.00216838
0.00222676
0.00228462
0.00234161
0.00239739
0.00245165
0.00250405
0.00255429
0.00260201
0.00264689
0.00268858
0.00272674
0.00276102
0.0027911
0.00281666
0.00283818
0.00285416
0.00286384
0.00286669
0.00286224
0.00285009
0.00283029
0.00280373
0.00277034
0.00272973
0.00268137
0.00262464
0.00215617
0.00221647
0.00227971
0.00234425
0.00240898
0.00247325
0.0025366
0.00259864
0.00265902
0.00271739
0.00277339
0.00282665
0.00287681
0.0029235
0.00296633
0.00300494
0.00303893
0.00306792
0.00309268
0.00311167
0.00312395
0.00312891
0.00312603
0.00311488
0.0030957
0.00306912
0.00303502
0.00299299
0.0029425
0.00288294
0.00232644
0.0023915
0.00246036
0.00253134
0.00260291
0.00267413
0.00274441
0.0028133
0.00288038
0.00294528
0.00300759
0.00306693
0.00312289
0.00317508
0.00322309
0.00326651
0.00330493
0.00333795
0.00336592
0.00338814
0.00340331
0.00341063
0.00340954
0.00339955
0.00338104
0.00335444
0.00331958
0.00327602
0.00322323
0.00316063
0.00250806
0.00257824
0.00265282
0.00273049
0.00280936
0.00288812
0.00296595
0.00304232
0.00311674
0.00318879
0.00325804
0.00332406
0.00338642
0.00344467
0.00349839
0.00354714
0.0035905
0.00362806
0.00365943
0.0036852
0.00370356
0.00371355
0.00371448
0.00370581
0.00368804
0.00366145
0.00362578
0.00358056
0.00352529
0.00345939
0.00270159
0.00277749
0.00285804
0.00294262
0.00302924
0.00311614
0.00320221
0.00328676
0.00336924
0.00344915
0.00352602
0.00359939
0.00366877
0.00373371
0.00379371
0.00384831
0.00389704
0.00393941
0.00397496
0.00400464
0.00402654
0.00403953
0.00404283
0.00403559
0.00401868
0.00399212
0.00395557
0.00390858
0.00385061
0.00378112
0.0029076
0.00299
0.00307702
0.00316875
0.00326354
0.00335922
0.00345427
0.00354779
0.0036391
0.00372765
0.00381292
0.00389438
0.00397153
0.00404385
0.00411082
0.00417192
0.00422665
0.0042745
0.00431496
0.00434852
0.00437423
0.00439051
0.00439637
0.004391
0.00437512
0.00434865
0.0043112
0.00426229
0.0042014
0.00412799
0.00312672
0.0032165
0.00331071
0.00340999
0.00351339
0.00361849
0.00372332
0.00382665
0.00392767
0.00402574
0.00412026
0.00421067
0.00429641
0.0043769
0.0044516
0.00451994
0.00458137
0.00463537
0.00468143
0.00471908
0.00474898
0.00476893
0.00477771
0.00477451
0.00475984
0.00473354
0.00469517
0.00464422
0.00458015
0.00450247
0.00335962
0.00345773
0.00356005
0.00366751
0.00377997
0.00389518
0.00401064
0.00412473
0.00423644
0.00434499
0.00444973
0.00455003
0.00464527
0.00473483
0.00481809
0.00489444
0.00496328
0.00502401
0.00507604
0.00511878
0.00515339
0.00517747
0.00518956
0.00518885
0.00517563
0.0051496
0.0051103
0.00505718
0.0049897
0.00490736
0.00360703
0.00371449
0.00382598
0.00394249
0.0040646
0.00419062
0.00431764
0.00444353
0.00456699
0.00468713
0.00480317
0.00491442
0.0050202
0.00511982
0.00521261
0.00529791
0.00537505
0.00544338
0.00550223
0.00555097
0.00559045
0.00561907
0.00563493
0.00563708
0.00562556
0.00559998
0.00555978
0.00550438
0.00543323
0.00534582
0.00386972
0.00398767
0.00410948
0.00423613
0.00436867
0.00450627
0.00464584
0.00478467
0.00492109
0.00505401
0.00518257
0.00530596
0.00542344
0.00553427
0.0056377
0.00573301
0.00581948
0.00589641
0.00596311
0.00601895
0.00606335
0.00609699
0.00611713
0.00612257
0.0061131
0.00608817
0.00604716
0.00598941
0.00591435
0.00582145
0.00414852
0.00427818
0.00441159
0.00454962
0.00469362
0.00484369
0.00499689
0.00514991
0.00530062
0.00544769
0.0055901
0.00572697
0.00585747
0.00598077
0.00609606
0.00620253
0.0062994
0.00638588
0.0064612
0.0065246
0.00657536
0.00661483
0.00663983
0.00664909
0.00664208
0.0066181
0.00657641
0.00651629
0.0064371
0.0063383
0.00444432
0.00458702
0.00473341
0.00488425
0.00504099
0.00520455
0.00537257
0.00554115
0.00570763
0.00587035
0.00602813
0.00617997
0.00632495
0.00646215
0.00659069
0.00670967
0.00681822
0.00691548
0.00700058
0.00707267
0.0071309
0.00717686
0.00720716
0.00722079
0.00721676
0.00719411
0.00715196
0.00708949
0.00700601
0.00690093
0.00475804
0.00491526
0.00507615
0.00524134
0.00541232
0.00559064
0.00577479
0.00596047
0.00614434
0.0063244
0.00649923
0.00666772
0.00682882
0.00698153
0.00712487
0.00725787
0.00737958
0.00748905
0.00758537
0.00766767
0.00773512
0.00778701
0.00782346
0.00784223
0.00784182
0.007821
0.0077787
0.00771401
0.00762613
0.00751441
0.00509066
0.00526401
0.00544107
0.00562235
0.00580927
0.00600385
0.00620562
0.00641008
0.00661317
0.00681242
0.00700619
0.00719319
0.00737224
0.00754226
0.00770215
0.00785084
0.00798727
0.0081104
0.0082192
0.00831267
0.00838984
0.00844977
0.00849359
0.00851845
0.00852244
0.00850405
0.00846204
0.00839534
0.00830304
0.00818441
0.00544323
0.00563448
0.00582957
0.00602882
0.0062336
0.00644621
0.00666727
0.00689238
0.00711672
0.00733725
0.00755205
0.00775963
0.0079587
0.00814804
0.00832643
0.0084927
0.00864567
0.00878419
0.0089071
0.00901328
0.00910162
0.00917099
0.00922313
0.00925503
0.0092643
0.00924909
0.00920793
0.00913955
0.00904291
0.00891717
0.00581682
0.00602796
0.00624311
0.00646242
0.00668718
0.00691986
0.00716212
0.00740998
0.0076578
0.00790193
0.00814009
0.00837059
0.00859198
0.00880289
0.00900199
0.00918799
0.00935958
0.00951551
0.00965451
0.00977536
0.00987689
0.00995797
0.0100183
0.0100581
0.0100736
0.0100625
0.0100229
0.00995328
0.00985251
0.00971956
0.00621259
0.00644581
0.00668327
0.00692497
0.00717206
0.00742713
0.00769275
0.00796567
0.00823947
0.00850977
0.0087739
0.00902991
0.00927617
0.00951117
0.00973345
0.00994156
0.0101341
0.0103096
0.0104668
0.0106042
0.0107205
0.0108146
0.010885
0.0109341
0.0109571
0.0109512
0.010914
0.0108438
0.0107392
0.0105991
0.00663176
0.00688948
0.00715175
0.00741839
0.00769042
0.00797047
0.00826191
0.00856247
0.00886501
0.00916434
0.00945731
0.00974172
0.0100157
0.0102776
0.0105258
0.0107587
0.0109747
0.0111723
0.0113499
0.011506
0.0116391
0.0117477
0.0118304
0.0118904
0.0119223
0.0119227
0.011889
0.011819
0.0117112
0.011564
0.00707561
0.00736054
0.0076504
0.00794481
0.00824467
0.00855258
0.00887258
0.00920363
0.00953796
0.00986949
0.0101945
0.0105105
0.0108154
0.0111074
0.0113846
0.0116452
0.0118877
0.0121101
0.0123109
0.0124883
0.0126406
0.0127662
0.0128635
0.0129351
0.0129773
0.0129854
0.0129564
0.0128876
0.0127771
0.0126233
0.00754552
0.00786063
0.00818116
0.0085065
0.00883737
0.00917635
0.00952799
0.00989268
0.0102622
0.0106294
0.01099
0.0113412
0.0116805
0.0120059
0.0123155
0.0126073
0.0128794
0.0131299
0.0133569
0.0135586
0.0137332
0.0138782
0.0139931
0.0140769
0.0141308
0.0141483
0.0141253
0.0140589
0.0139467
0.0137867
0.00804295
0.00839155
0.00874616
0.00910593
0.00947135
0.00984494
0.0102316
0.0106334
0.0110418
0.0114485
0.0118487
0.0122389
0.0126165
0.0129793
0.013325
0.0136516
0.0139569
0.0142387
0.0144952
0.0147241
0.0149235
0.0150905
0.0152245
0.0153242
0.0153922
0.015421
0.0154059
0.0153432
0.0152303
0.0150647
0.00856947
0.00895522
0.00934771
0.00974577
0.0101497
0.0105618
0.0109874
0.0114299
0.0118812
0.0123318
0.0127757
0.0132093
0.0136296
0.014034
0.01442
0.0147854
0.0151278
0.0154449
0.0157344
0.015994
0.0162214
0.0164137
0.0165699
0.0166883
0.0167724
0.0168145
0.016809
0.0167517
0.0166393
0.0164691
0.00912678
0.00955371
0.00998827
0.0104289
0.0108757
0.0113306
0.0117993
0.0122868
0.0127854
0.0132844
0.0137769
0.0142587
0.0147263
0.015177
0.015608
0.0160168
0.0164007
0.0167573
0.017084
0.0173783
0.0176377
0.0178591
0.0180414
0.0181828
0.0182832
0.0183404
0.0183465
0.0182964
0.0181861
0.0180123
0.00971673
0.0101893
0.0106706
0.0111586
0.0116529
0.0121556
0.012672
0.0132087
0.0137594
0.0143119
0.0148582
0.0153934
0.0159137
0.0164159
0.016897
0.0173541
0.0177845
0.0181854
0.0185538
0.0188872
0.0191827
0.0194369
0.0196486
0.0198157
0.019936
0.0200111
0.0200315
0.0199907
0.0198842
0.0197081
0.0103414
0.0108644
0.0113975
0.0119381
0.0124855
0.0130412
0.0136104
0.0142011
0.014809
0.0154204
0.0160262
0.0166206
0.0171993
0.0177587
0.0182955
0.0188067
0.019289
0.0197394
0.0201547
0.0205319
0.0208679
0.0211591
0.0214039
0.0215998
0.0217443
0.0218406
0.021878
0.0218491
0.0217484
0.0215716
0.0110029
0.0115817
0.0121723
0.0127714
0.0133777
0.0139922
0.0146199
0.0152697
0.01594
0.0166164
0.0172878
0.0179476
0.018591
0.0192139
0.0198127
0.020384
0.0209243
0.0214301
0.0218983
0.0223253
0.0227064
0.0230396
0.0233223
0.0235515
0.0237241
0.0238445
0.0239017
0.0238873
0.0237949
0.0236192
0.0117039
0.0123442
0.0129985
0.0136625
0.0143342
0.0150141
0.0157066
0.0164209
0.0171592
0.0179065
0.0186502
0.0193823
0.0200971
0.0207904
0.0214579
0.022096
0.0227008
0.0232685
0.0237956
0.0242782
0.0247112
0.0250924
0.025419
0.0256879
0.0258958
0.0260398
0.0261195
0.0261226
0.0260412
0.0258689
0.0124472
0.0131551
0.0138798
0.0146158
0.0153602
0.0161126
0.0168768
0.0176618
0.0184734
0.0192981
0.020121
0.0209325
0.0217262
0.0224971
0.0232408
0.0239529
0.0246293
0.025266
0.0258589
0.0264038
0.0268952
0.0273306
0.0277066
0.0280197
0.0282659
0.0284414
0.0285487
0.0285736
0.0285066
0.0283404
0.0132358
0.014018
0.0148206
0.0156364
0.0164613
0.0172943
0.0181379
0.0190003
0.0198906
0.0207989
0.021708
0.0226065
0.0234869
0.0243434
0.0251709
0.0259649
0.0267209
0.0274342
0.0281005
0.0287152
0.0292724
0.029769
0.0302014
0.0305651
0.0308558
0.031069
0.0312091
0.0312604
0.0312119
0.0310552
0.0140736
0.0149371
0.0158256
0.0167297
0.017644
0.0185662
0.0194977
0.0204454
0.0214198
0.0224172
0.0234195
0.0244128
0.0253879
0.0263381
0.0272579
0.0281421
0.0289859
0.0297843
0.0305323
0.031225
0.0318561
0.0324224
0.0329192
0.0333418
0.0336851
0.0339437
0.0341213
0.0342045
0.0341798
0.0340372
0.0149644
0.0159167
0.0168999
0.0179017
0.018915
0.0199361
0.0209651
0.022007
0.0230717
0.024163
0.0252646
0.0263599
0.0274377
0.02849
0.0295105
0.0304936
0.0314339
0.0323263
0.0331654
0.0339439
0.0346579
0.0353028
0.0358735
0.0363647
0.0367708
0.0370861
0.037305
0.0374267
0.0374328
0.0373104
0.0159131
0.0169619
0.0180493
0.0191591
0.0202821
0.0214129
0.0225501
0.0236963
0.0248596
0.0260484
0.0272539
0.0284575
0.0296452
0.0308075
0.0319368
0.033027
0.0340723
0.0350669
0.0360053
0.0368795
0.0376856
0.0384185
0.0390727
0.039642
0.0401199
0.0404997
0.0407745
0.0409462
0.0409935
0.0409008
0.0169249
0.0180785
0.0192803
0.0205095
0.021754
0.0230065
0.0242637
0.025526
0.0267986
0.0280902
0.0294015
0.0307173
0.0320208
0.0332996
0.0345451
0.0357499
0.0369077
0.0380125
0.0390582
0.0400368
0.040944
0.0417745
0.0425222
0.0431804
0.0437418
0.0441987
0.0445429
0.0447784
0.0448812
0.0448324
0.0180057
0.0192728
0.0206002
0.0219612
0.0233402
0.0247277
0.0261184
0.0275104
0.0289056
0.0303098
0.0317287
0.033157
0.0345785
0.0359783
0.0373451
0.0386703
0.0399468
0.0411681
0.0423279
0.0434178
0.0444338
0.0453701
0.0462207
0.0469784
0.0476357
0.0481843
0.0486148
0.0489281
0.0491047
0.0491211
0.0191619
0.0205516
0.0220168
0.0235232
0.0250511
0.0265885
0.0281278
0.0296647
0.0311982
0.0327303
0.0342652
0.0358049
0.0373421
0.0388623
0.040352
0.0418003
0.0431988
0.0445401
0.0458173
0.0470227
0.0481517
0.0491991
0.0501586
0.0510236
0.0517866
0.0524397
0.0529738
0.053379
0.0536515
0.0537619
0.0204005
0.0219226
0.0235384
0.025205
0.0268976
0.0286011
0.0303055
0.0320044
0.033694
0.0353729
0.0370414
0.0387011
0.0403514
0.0419862
0.0435939
0.0451624
0.0466812
0.048142
0.0495346
0.0508541
0.0520955
0.0532534
0.0543219
0.0552948
0.0561653
0.0569259
0.0575684
0.0580834
0.0584734
0.0587096
0.0217288
0.0233933
0.0251737
0.0270163
0.0288903
0.0307771
0.0326644
0.0345434
0.036408
0.0382539
0.0400783
0.0418793
0.0436554
0.0454044
0.0471218
0.0488001
0.0504295
0.0520004
0.0535009
0.0549268
0.0562728
0.0575334
0.058703
0.0597759
0.0607462
0.0616073
0.0623526
0.062974
0.0634798
0.0638448
0.023154
0.0249715
0.026931
0.0289659
0.0310387
0.0331266
0.0352144
0.0372915
0.0393496
0.0413822
0.0433839
0.0453502
0.047277
0.0491605
0.0509969
0.0527819
0.0545106
0.0561764
0.0577678
0.0592827
0.0607161
0.0620623
0.0633157
0.0644708
0.0655224
0.066465
0.0672933
0.0680011
0.0685947
0.0690602
0.0246829
0.0266644
0.0288176
0.0310614
0.0333502
0.0356562
0.0379615
0.0402531
0.0425209
0.0447565
0.0469526
0.049103
0.0512017
0.0532433
0.0552228
0.0571356
0.0589775
0.0607348
0.0624075
0.0639945
0.0654933
0.0669003
0.0682109
0.0694205
0.0705244
0.0715182
0.0723979
0.0731596
0.0738002
0.0743287
0.0263219
0.0284782
0.0308395
0.0333082
0.035829
0.0383689
0.0409063
0.0434258
0.0459155
0.0483653
0.0507666
0.0531115
0.055393
0.0576045
0.0597399
0.0617937
0.0637607
0.0656287
0.0673976
0.0690661
0.0706319
0.0720924
0.0734448
0.074686
0.075813
0.0768229
0.0777127
0.0784791
0.0791196
0.0796542
0.0280758
0.0304176
0.0330008
0.0357091
0.0384762
0.0412629
0.0440437
0.0468005
0.0495193
0.0521886
0.0547983
0.0573395
0.0598043
0.0621852
0.0644757
0.0666695
0.0687611
0.0707409
0.072608
0.0743606
0.0759965
0.0775132
0.0789083
0.0801789
0.0813226
0.0823363
0.0832169
0.0839603
0.0845619
0.0850443
0.0299481
0.0324859
0.0353034
0.0382639
0.0412891
0.0443324
0.0473639
0.0503625
0.0533121
0.0561997
0.059014
0.0617453
0.0643849
0.0669251
0.0693592
0.0716813
0.0738823
0.0759591
0.0779095
0.0797315
0.0814229
0.0829817
0.0844058
0.0856929
0.0868407
0.0878467
0.0887076
0.0894194
0.0899775
0.0903934
0.0319407
0.0346841
0.0377468
0.0409698
0.0442616
0.0475674
0.0508525
0.0540925
0.0572693
0.0603683
0.0633771
0.0662854
0.0690841
0.0717655
0.0743229
0.0767504
0.0790405
0.0811914
0.0832012
0.0850684
0.0867917
0.0883696
0.0898012
0.0910853
0.0922206
0.0932058
0.094039
0.0947176
0.0952387
0.0956019
0.0340536
0.0370116
0.0403283
0.0438213
0.0473846
0.0509551
0.0544923
0.0579687
0.061364
0.0646621
0.06785
0.070917
0.0738541
0.0766539
0.0793104
0.0818163
0.0841688
0.0863664
0.0884082
0.0902936
0.0920228
0.0935958
0.0950133
0.0962758
0.0973839
0.098338
0.0991382
0.0997839
0.100274
0.100609
0.0362853
0.0394657
0.0430431
0.0468106
0.0506472
0.0544804
0.0582641
0.0619676
0.0655682
0.069049
0.0723965
0.0755998
0.0786506
0.0815421
0.0842692
0.0868264
0.0892128
0.0914286
0.0934744
0.0953515
0.0970618
0.0986076
0.0999917
0.101217
0.102286
0.103201
0.103965
0.104579
0.105045
0.105363
0.0386327
0.0420422
0.0458849
0.0499287
0.0540367
0.058127
0.062148
0.0660652
0.0698544
0.0734979
0.076982
0.0802965
0.0834341
0.0863894
0.0891571
0.0917362
0.0941277
0.0963333
0.098356
0.100199
0.101868
0.103366
0.104699
0.105872
0.106891
0.10776
0.108483
0.109065
0.109508
0.109815
0.041091
0.0447356
0.0488461
0.053165
0.0575396
0.0618782
0.0661235
0.0702379
0.0741958
0.0779789
0.0815742
0.0849724
0.0881676
0.0911563
0.0939356
0.0965074
0.098875
0.101043
0.103016
0.104802
0.106407
0.107838
0.109103
0.110211
0.111167
0.111979
0.112653
0.113194
0.113607
0.113896
0.0436551
0.0475395
0.0519183
0.0565086
0.061142
0.0657169
0.0701707
0.0744629
0.0785667
0.082464
0.0861429
0.0895957
0.0928188
0.0958096
0.0985702
0.101105
0.10342
0.105523
0.107423
0.109128
0.110648
0.111994
0.113175
0.114201
0.115082
0.115825
0.116439
0.11693
0.117302
0.117562
0.046319
0.0504467
0.0550926
0.0599485
0.06483
0.0696267
0.0742703
0.0787181
0.0829426
0.0869265
0.0906593
0.0941358
0.0973548
0.100317
0.103029
0.105497
0.107732
0.109744
0.111545
0.113147
0.114563
0.115805
0.116887
0.117818
0.118611
0.119276
0.11982
0.120252
0.120578
0.120803
0.0490761
0.0534498
0.0583601
0.0634733
0.0685902
0.0735912
0.0784035
0.0829822
0.0872999
0.0913406
0.0950962
0.0985646
0.101747
0.104649
0.107281
0.109654
0.111781
0.113676
0.115356
0.116835
0.118128
0.119251
0.120218
0.121043
0.121738
0.122314
0.122781
0.123148
0.123422
0.123609
0.0519184
0.056541
0.0617116
0.0670723
0.0724093
0.0775949
0.0825521
0.0872346
0.0916157
0.0956814
0.0994268
0.102853
0.105966
0.108777
0.111298
0.113547
0.11554
0.117296
0.118832
0.120169
0.121324
0.122313
0.123155
0.123863
0.12445
0.124931
0.125314
0.125609
0.125823
0.125965
0.0548406
0.0597133
0.0651388
0.0707349
0.0762746
0.0816226
0.0866984
0.0914551
0.0958676
0.0999248
0.103626
0.106976
0.109986
0.112673
0.115055
0.117152
0.118987
0.120581
0.121957
0.123136
0.124139
0.124986
0.125693
0.126277
0.126754
0.127134
0.127429
0.127649
0.1278
0.12789
0.057838
0.0629599
0.0686333
0.0744512
0.0801738
0.0856594
0.090825
0.0956241
0.100034
0.104047
0.107667
0.110907
0.113782
0.116314
0.118528
0.120449
0.122104
0.123519
0.12472
0.125731
0.126576
0.127274
0.127844
0.128305
0.128669
0.128951
0.12916
0.129306
0.129396
0.129436
0.0609031
0.0662739
0.0721872
0.0782111
0.0840946
0.0896907
0.0949148
0.0997219
0.104093
0.108025
0.111529
0.114623
0.11733
0.119679
0.121699
0.123424
0.124882
0.126106
0.127124
0.127963
0.128647
0.129198
0.129637
0.12998
0.130241
0.130433
0.130566
0.130647
0.130684
0.130681
0.0640313
0.0696489
0.0757928
0.0820053
0.0880254
0.093702
0.0989506
0.103729
0.108023
0.111836
0.115188
0.118102
0.120611
0.122751
0.124557
0.126069
0.127321
0.128347
0.129181
0.129851
0.130382
0.130797
0.131116
0.131356
0.131529
0.131648
0.131721
0.131754
0.131754
0.131725
0.0672144
0.0730784
0.0794428
0.0858246
0.0919542
0.0976787
0.102915
0.107626
0.111804
0.11546
0.118623
0.121326
0.12361
0.125519
0.127097
0.128386
0.129428
0.130261
0.130917
0.131429
0.131822
0.132119
0.132338
0.132496
0.132603
0.13267
0.132704
0.132709
0.13269
0.132649
0.0704442
0.0765568
0.0831305
0.0896599
0.0958692
0.101606
0.106791
0.111394
0.115415
0.118877
0.121816
0.12428
0.126317
0.127981
0.129321
0.130387
0.131225
0.131873
0.132369
0.132743
0.13302
0.133222
0.133366
0.133467
0.133533
0.133572
0.133591
0.13359
0.133574
0.133542
0.0737284
0.0800813
0.08685
0.0935024
0.0997587
0.105469
0.110562
0.115014
0.118837
0.122068
0.124754
0.126955
0.128729
0.130139
0.131242
0.132093
0.132739
0.133222
0.133579
0.133839
0.134027
0.134161
0.134257
0.134325
0.134373
0.134406
0.134427
0.134436
0.134434
0.134421
0.0770627
0.0836484
0.0905955
0.0973433
0.10361
0.109253
0.114209
0.118467
0.122054
0.125019
0.127426
0.129345
0.130849
0.132005
0.13288
0.13353
0.134005
0.134348
0.134593
0.134768
0.134893
0.134986
0.135056
0.135113
0.13516
0.1352
0.135235
0.135262
0.135282
0.135293
0.0804312
0.0872517
0.0943604
0.101173
0.107412
0.112943
0.117716
0.121737
0.125049
0.127719
0.129826
0.131454
0.132685
0.133598
0.13426
0.134732
0.135063
0.135294
0.135455
0.135572
0.13566
0.135732
0.135795
0.135855
0.135912
0.135967
0.13602
0.136067
0.136107
0.136137
0.083822
0.0908842
0.0981376
0.104983
0.11115
0.116521
0.121065
0.124807
0.127809
0.130159
0.131952
0.133287
0.134255
0.13494
0.135413
0.135735
0.135951
0.136099
0.136204
0.136286
0.136358
0.136427
0.136497
0.136569
0.136642
0.136716
0.136788
0.136854
0.136913
0.136961
0.0872408
0.0945423
0.10192
0.108761
0.11481
0.119972
0.12424
0.127662
0.130325
0.132336
0.13381
0.134858
0.135579
0.13606
0.136374
0.136575
0.136706
0.136798
0.136871
0.13694
0.13701
0.137087
0.137169
0.137257
0.137347
0.137437
0.137525
0.137605
0.137677
0.13774
0.0906969
0.0982247
0.105701
0.112497
0.118379
0.123281
0.127225
0.13029
0.132589
0.134251
0.13541
0.136185
0.136683
0.13699
0.137174
0.137286
0.13736
0.137419
0.13748
0.137547
0.137625
0.137713
0.137808
0.137908
0.13801
0.138111
0.138208
0.138298
0.138381
0.138455
0.0941914
0.10193
0.109476
0.11618
0.121841
0.12643
0.130006
0.132681
0.134598
0.135911
0.136765
0.137291
0.137595
0.13776
0.137847
0.137897
0.137937
0.137983
0.138042
0.138116
0.138204
0.138302
0.138408
0.138517
0.138628
0.138737
0.138845
0.138945
0.13904
0.139132
0.0977249
0.105657
0.113236
0.119798
0.125181
0.129404
0.132569
0.134828
0.136355
0.137325
0.137896
0.138202
0.138345
0.138401
0.13842
0.138433
0.138458
0.138502
0.138567
0.13865
0.138748
0.138855
0.138969
0.139087
0.139205
0.139323
0.139439
0.139551
0.139661
0.139767
0.101298
0.109403
0.116974
0.123339
0.128385
0.132188
0.134905
0.136729
0.137865
0.138509
0.138825
0.138945
0.138962
0.13894
0.138918
0.138914
0.138938
0.138989
0.139064
0.139159
0.139267
0.139386
0.13951
0.139638
0.139768
0.139898
0.140029
0.140159
0.140288
0.140417
0.104907
0.113166
0.120684
0.126789
0.131435
0.134769
0.137005
0.138383
0.13914
0.139483
0.139578
0.139549
0.139475
0.139405
0.139364
0.13936
0.139393
0.139459
0.139551
0.139663
0.139788
0.139923
0.140065
0.14021
0.140358
0.140507
0.140656
0.140804
0.14095
0.141098
0.108542
0.11694
0.124354
0.130134
0.134317
0.137133
0.138864
0.139798
0.140194
0.14027
0.140184
0.140044
0.139912
0.139821
0.139782
0.139794
0.13985
0.139942
0.140063
0.140204
0.140361
0.140529
0.140705
0.140885
0.141069
0.141252
0.141434
0.141611
0.141781
0.141946
0.112192
0.120716
0.127974
0.133359
0.137015
0.13927
0.140482
0.140982
0.141049
0.140898
0.140673
0.140461
0.140304
0.140218
0.140202
0.140248
0.140344
0.14048
0.140647
0.140838
0.141047
0.141268
0.141496
0.141729
0.141962
0.142191
0.142413
0.142621
0.142811
0.142979
0.11583
0.124486
0.131532
0.136448
0.139515
0.141175
0.141864
0.141952
0.141729
0.141397
0.141077
0.140832
0.140683
0.140629
0.14066
0.140761
0.140919
0.141123
0.141361
0.141626
0.141911
0.14221
0.142517
0.142826
0.143132
0.14343
0.143714
0.143976
0.144212
0.144417
0.119489
0.128245
0.135014
0.139386
0.141804
0.142844
0.143017
0.142728
0.142263
0.141801
0.141433
0.141193
0.141083
0.141089
0.141191
0.141371
0.141611
0.141898
0.14222
0.142565
0.142923
0.143284
0.14364
0.143985
0.144314
0.144626
0.144924
0.145214
0.145503
0.145788
0.123208
0.131996
0.13841
0.142156
0.143872
0.144277
0.143958
0.143337
0.142685
0.142144
0.141773
0.141577
0.141538
0.141629
0.141824
0.142099
0.142436
0.142817
0.143227
0.143655
0.14409
0.144527
0.14496
0.145387
0.145806
0.146212
0.1466
0.146963
0.147293
0.147587
0.126967
0.135731
0.141704
0.144745
0.145713
0.145482
0.144705
0.143808
0.143027
0.142463
0.142133
0.142014
0.14207
0.142264
0.142561
0.142932
0.143354
0.143803
0.144264
0.144719
0.145159
0.145573
0.145962
0.146337
0.146729
0.147112
0.147466
0.147789
0.14808
0.148345
0.130754
0.139443
0.144884
0.147139
0.147323
0.146469
0.145284
0.144174
0.143326
0.142788
0.142536
0.14252
0.142685
0.142984
0.143374
0.143821
0.144297
0.144781
0.145257
0.145715
0.146152
0.14657
0.146973
0.147365
0.147742
0.14809
0.148402
0.148675
0.148913
0.149135
0.134559
0.143119
0.147935
0.149326
0.148703
0.147255
0.145722
0.144467
0.143611
0.143142
0.142995
0.143091
0.143359
0.14374
0.144184
0.144652
0.145114
0.145545
0.145929
0.146258
0.14653
0.146763
0.146997
0.147184
0.147318
0.147401
0.14744
0.147449
0.147447
0.147456
0.138376
0.14675
0.15084
0.151298
0.149857
0.14786
0.146048
0.144717
0.143904
0.143535
0.143501
0.143698
0.144039
0.144454
0.14489
0.145305
0.14567
0.145967
0.146189
0.146342
0.146467
0.146588
0.146682
0.146742
0.14678
0.146797
0.146734
0.146628
0.146518
0.146416
0.142192
0.150323
0.153587
0.153047
0.150796
0.148308
0.146292
0.144946
0.144217
0.14396
0.144028
0.144293
0.144656
0.145044
0.145403
0.145698
0.145913