/*--------------------------------*- C++ -*----------------------------------*\
  =========                 |
  \\      /  F ield         | OpenFOAM: The Open Source CFD Toolbox
   \\    /   O peration     | Website:  https://openfoam.org
    \\  /    A nd           | Version:  10
     \\/     M anipulation  |
\*---------------------------------------------------------------------------*/
FoamFile
{
    format      ascii;
    class       volScalarField;
    location    "0.001";
    object      p;
}
// * * * * * * * * * * * * * * * * * * * * * * * * * * * * * * * * * * * * * //

dimensions      [1 -1 -2 0 0 0 0];

internalField   nonuniform List<scalar> 
8922
(
99383.8
99376.4
99369.1
99361.9
99355
99348.5
99342.4
99337.2
99332.8
99329.2
99326.4
99324.6
99323.7
99323.9
99325.3
99327.9
99331.7
99337.1
99344.7
99355
99368.5
99384.7
99404
99427
99452.8
99476.2
99503.8
99558.7
99524.7
99159.9
99454.7
99445.3
99435.8
99426.3
99417
99407.8
99399
99390.9
99383.4
99376.7
99370.9
99366.1
99362.4
99359.9
99358.8
99359
99360.9
99364.6
99370.5
99379
99390.5
99404.9
99422.3
99442.9
99464.6
99483.3
99508.7
99546.8
99491.7
99311
99507.3
99495.9
99484.4
99472.9
99461.4
99450.2
99439.4
99429.2
99419.7
99411.1
99403.5
99397.1
99391.9
99388
99385.7
99385
99386
99388.9
99394
99401.7
99411.9
99424.7
99440.2
99458.3
99476.4
99492.1
99514.3
99536.6
99484.5
99397.2
99546.3
99533.5
99520.5
99507.6
99494.9
99482.4
99470.5
99459.2
99448.8
99439.3
99430.9
99423.7
99417.9
99413.5
99410.7
99409.6
99410.1
99412.6
99417.1
99424
99433.1
99444.4
99458.1
99473.7
99488.7
99502.6
99520.9
99532.5
99495.1
99454.2
99576.3
99562.6
99549
99535.4
99522
99509.1
99496.8
99485.1
99474.4
99464.7
99456.1
99448.7
99442.7
99438.2
99435.2
99433.7
99434
99436
99440
99446
99454
99464
99475.9
99489.1
99501.7
99514
99528.7
99534.1
99511
99494.1
99600.7
99586.8
99572.9
99559.2
99545.9
99533
99520.7
99509.1
99498.5
99488.9
99480.4
99473.1
99467.1
99462.5
99459.3
99457.6
99457.6
99459.1
99462.5
99467.7
99474.6
99483.3
99493.6
99504.7
99515.4
99526.2
99537.7
99541.1
99528.7
99523.8
99621.9
99608.1
99594.4
99581
99567.9
99555.4
99543.4
99532.2
99521.9
99512.5
99504.2
99497
99491
99486.4
99483.1
99481.2
99480.8
99481.9
99484.7
99489
99495
99502.4
99511.2
99520.6
99529.8
99539.1
99548.2
99551.3
99546.4
99547.6
99641.2
99627.8
99614.6
99601.7
99589.1
99577
99565.5
99554.7
99544.7
99535.6
99527.5
99520.5
99514.5
99509.8
99506.4
99504.3
99503.5
99504.2
99506.4
99510
99515
99521.3
99528.6
99536.6
99544.5
99552.6
99560.1
99563.6
99563.5
99567.7
99659.5
99646.7
99634
99621.7
99609.7
99598.1
99587
99576.7
99567
99558.2
99550.3
99543.4
99537.5
99532.8
99529.2
99526.9
99525.8
99526.1
99527.6
99530.5
99534.6
99539.9
99546
99552.7
99559.6
99566.6
99573
99577.2
99579.8
99585.5
99677
99664.9
99652.8
99641.1
99629.6
99618.5
99608
99598
99588.7
99580.2
99572.5
99565.7
99559.9
99555.1
99551.4
99548.9
99547.5
99547.3
99548.4
99550.5
99553.9
99558.2
99563.3
99568.9
99574.9
99580.9
99586.7
99591.2
99595.4
99601.6
99694
99682.4
99671
99659.8
99648.9
99638.3
99628.2
99618.6
99609.7
99601.4
99594
99587.3
99581.6
99576.8
99573
99570.3
99568.6
99568
99568.5
99570.1
99572.7
99576.2
99580.4
99585.1
99590.2
99595.5
99600.7
99605.5
99610.4
99616.7
99710.2
99699.3
99688.5
99677.8
99667.4
99657.4
99647.7
99638.5
99629.9
99622
99614.7
99608.2
99602.5
99597.7
99593.9
99591
99589
99588.1
99588.1
99589.1
99591.1
99593.8
99597.2
99601.2
99605.6
99610.2
99615
99619.7
99624.8
99630.9
99725.9
99715.5
99705.3
99695.2
99685.3
99675.7
99666.5
99657.7
99649.4
99641.7
99634.7
99628.3
99622.7
99618
99614
99610.9
99608.8
99607.5
99607.1
99607.6
99608.9
99611
99613.8
99617.1
99620.8
99624.9
99629.2
99633.7
99638.7
99644.4
99740.8
99731
99721.3
99711.7
99702.3
99693.2
99684.4
99676
99668.1
99660.7
99653.8
99647.6
99642.1
99637.4
99633.4
99630.2
99627.8
99626.2
99625.5
99625.5
99626.3
99627.8
99630
99632.6
99635.8
99639.3
99643.2
99647.5
99652.1
99657.4
99755
99745.8
99736.6
99727.5
99718.6
99709.9
99701.6
99693.5
99685.9
99678.8
99672.2
99666.1
99660.7
99656
99651.9
99648.6
99646
99644.2
99643.1
99642.8
99643.1
99644.1
99645.7
99647.9
99650.5
99653.6
99657
99660.9
99665.1
99670
99768.5
99759.8
99751.1
99742.5
99734.1
99725.9
99717.9
99710.2
99702.9
99696
99689.6
99683.8
99678.5
99673.8
99669.7
99666.3
99663.5
99661.5
99660.1
99659.4
99659.4
99659.9
99661.1
99662.7
99664.9
99667.5
99670.5
99673.9
99677.8
99682.1
99781.3
99773.1
99764.9
99756.8
99748.8
99741
99733.4
99726
99719.1
99712.4
99706.3
99700.6
99695.4
99690.7
99686.6
99683.1
99680.3
99678
99676.4
99675.4
99675
99675.2
99675.9
99677.1
99678.8
99681
99683.6
99686.6
99690
99693.8
99793.3
99785.6
99777.9
99770.2
99762.7
99755.3
99748
99741
99734.3
99728
99722
99716.5
99711.4
99706.8
99702.7
99699.2
99696.2
99693.8
99692
99690.8
99690
99689.9
99690.2
99691.1
99692.3
99694.1
99696.3
99698.9
99701.8
99705.1
99804.7
99797.5
99790.2
99783
99775.8
99768.7
99761.9
99755.2
99748.8
99742.7
99737
99731.6
99726.6
99722.1
99718.1
99714.5
99711.4
99708.9
99706.9
99705.4
99704.4
99704
99704
99704.5
99705.4
99706.7
99708.5
99710.7
99713.2
99716
99815.4
99808.6
99801.7
99794.9
99788.1
99781.5
99774.9
99768.6
99762.5
99756.6
99751.1
99745.8
99741
99736.6
99732.6
99729
99725.9
99723.2
99721.1
99719.4
99718.2
99717.4
99717.2
99717.3
99717.9
99718.9
99720.3
99722.1
99724.2
99726.6
99825.5
99819.1
99812.6
99806.2
99799.7
99793.4
99787.2
99781.1
99775.3
99769.7
99764.3
99759.3
99754.6
99750.2
99746.3
99742.7
99739.5
99736.8
99734.5
99732.7
99731.3
99730.3
99729.8
99729.7
99729.9
99730.6
99731.7
99733.1
99734.8
99736.8
99834.9
99828.9
99822.8
99816.7
99810.6
99804.6
99798.7
99793
99787.4
99782
99776.8
99772
99767.4
99763.1
99759.2
99755.7
99752.5
99749.7
99747.3
99745.3
99743.8
99742.6
99741.8
99741.4
99741.4
99741.8
99742.6
99743.6
99745
99746.6
99843.7
99838.1
99832.3
99826.6
99820.8
99815.1
99809.5
99804
99798.7
99793.5
99788.6
99783.9
99779.4
99775.3
99771.4
99767.9
99764.7
99761.9
99759.4
99757.3
99755.6
99754.3
99753.3
99752.7
99752.4
99752.5
99753
99753.8
99754.8
99756.1
99852
99846.7
99841.3
99835.8
99830.4
99825
99819.7
99814.4
99809.3
99804.4
99799.6
99795
99790.7
99786.7
99782.9
99779.4
99776.2
99773.4
99770.8
99768.7
99766.8
99765.3
99764.2
99763.4
99762.9
99762.8
99763
99763.4
99764.2
99765.2
99859.7
99854.7
99849.6
99844.5
99839.3
99834.2
99829.1
99824.1
99819.2
99814.5
99809.9
99805.5
99801.3
99797.4
99793.7
99790.2
99787.1
99784.2
99781.6
99779.4
99777.4
99775.8
99774.5
99773.5
99772.9
99772.5
99772.5
99772.7
99773.2
99773.9
99866.9
99862.2
99857.4
99852.5
99847.7
99842.8
99838
99833.2
99828.5
99824
99819.6
99815.3
99811.3
99807.4
99803.8
99800.4
99797.3
99794.4
99791.8
99789.5
99787.5
99785.7
99784.3
99783.2
99782.3
99781.8
99781.5
99781.6
99781.8
99782.2
99873.7
99869.2
99864.7
99860.1
99855.4
99850.8
99846.2
99841.7
99837.2
99832.8
99828.6
99824.5
99820.6
99816.8
99813.3
99809.9
99806.8
99804
99801.4
99799
99796.9
99795.1
99793.6
99792.3
99791.3
99790.6
99790.2
99790
99790
99790.2
99880
99875.8
99871.5
99867.1
99862.7
99858.3
99853.9
99849.6
99845.3
99841.1
99837
99833.1
99829.3
99825.6
99822.1
99818.9
99815.8
99813
99810.4
99808
99805.8
99804
99802.3
99801
99799.8
99799
99798.4
99798
99797.8
99797.8
99885.9
99881.9
99877.8
99873.7
99869.5
99865.3
99861.1
99857
99852.9
99848.8
99844.9
99841.1
99837.4
99833.8
99830.5
99827.3
99824.2
99821.4
99818.8
99816.4
99814.2
99812.3
99810.6
99809.1
99807.9
99806.9
99806.1
99805.6
99805.2
99805.1
99891.4
99887.6
99883.7
99879.8
99875.8
99871.8
99867.8
99863.8
99859.9
99856
99852.2
99848.6
99845
99841.5
99838.2
99835.1
99832.1
99829.3
99826.7
99824.3
99822.1
99820.1
99818.4
99816.8
99815.5
99814.4
99813.5
99812.8
99812.3
99812
99896.5
99892.9
99889.2
99885.5
99881.7
99877.9
99874
99870.2
99866.5
99862.7
99859.1
99855.5
99852.1
99848.7
99845.5
99842.4
99839.5
99836.7
99834.1
99831.7
99829.5
99827.5
99825.7
99824.1
99822.6
99821.4
99820.4
99819.6
99819
99818.5
99901.3
99897.9
99894.4
99890.8
99887.2
99883.5
99879.9
99876.2
99872.6
99869
99865.5
99862
99858.7
99855.4
99852.3
99849.3
99846.4
99843.7
99841.1
99838.7
99836.5
99834.4
99832.5
99830.9
99829.4
99828.1
99827
99826.1
99825.3
99824.7
99905.8
99902.5
99899.2
99895.7
99892.3
99888.8
99885.3
99881.8
99878.3
99874.8
99871.4
99868.1
99864.8
99861.7
99858.6
99855.6
99852.8
99850.1
99847.6
99845.2
99843
99840.9
99839
99837.3
99835.7
99834.4
99833.2
99832.2
99831.3
99830.6
99910
99906.8
99903.6
99900.3
99897
99893.7
99890.3
99886.9
99883.5
99880.2
99876.9
99873.7
99870.5
99867.5
99864.5
99861.6
99858.8
99856.2
99853.7
99851.3
99849.1
99847
99845.1
99843.3
99841.7
99840.3
99839
99837.9
99836.9
99836.1
99913.9
99910.8
99907.8
99904.6
99901.4
99898.2
99895
99891.7
99888.5
99885.2
99882.1
99878.9
99875.9
99872.9
99870
99867.2
99864.4
99861.8
99859.4
99857
99854.8
99852.7
99850.7
99848.9
99847.3
99845.8
99844.5
99843.3
99842.3
99841.3
99917.5
99914.6
99911.6
99908.6
99905.5
99902.4
99899.3
99896.2
99893
99889.9
99886.8
99883.8
99880.8
99877.9
99875.1
99872.3
99869.7
99867.1
99864.6
99862.3
99860.1
99858
99856
99854.2
99852.5
99851
99849.6
99848.4
99847.2
99846.2
99920.8
99918.1
99915.2
99912.3
99909.3
99906.3
99903.3
99900.3
99897.3
99894.3
99891.3
99888.3
99885.4
99882.6
99879.8
99877.1
99874.5
99872
99869.6
99867.3
99865.1
99863
99861
99859.1
99857.4
99855.9
99854.4
99853.2
99851.9
99850.8
99923.9
99921.3
99918.5
99915.7
99912.9
99910
99907.1
99904.1
99901.2
99898.3
99895.4
99892.5
99889.7
99886.9
99884.2
99881.6
99879
99876.6
99874.2
99871.9
99869.7
99867.6
99865.6
99863.7
99862
99860.4
99858.9
99857.6
99856.3
99855
99926.8
99924.2
99921.6
99918.9
99916.1
99913.3
99910.5
99907.7
99904.8
99902
99899.2
99896.4
99893.7
99891
99888.3
99885.8
99883.2
99880.8
99878.4
99876.2
99874
99871.9
99869.9
99868
99866.3
99864.6
99863.1
99861.8
99860.4
99859
99929.5
99927
99924.4
99921.8
99919.1
99916.4
99913.7
99911
99908.2
99905.5
99902.7
99900
99897.4
99894.7
99892.1
99889.6
99887.1
99884.7
99882.4
99880.2
99878
99875.9
99873.9
99872
99870.3
99868.6
99867
99865.6
99864.2
99862.7
99931.9
99929.5
99927
99924.5
99921.9
99919.3
99916.6
99914
99911.3
99908.7
99906
99903.4
99900.8
99898.2
99895.7
99893.2
99890.8
99888.4
99886.1
99883.9
99881.7
99879.6
99877.7
99875.8
99873.9
99872.2
99870.7
99869.2
99867.7
99866.2
99934.2
99931.8
99929.4
99927
99924.5
99921.9
99919.4
99916.8
99914.2
99911.6
99909
99906.4
99903.9
99901.4
99898.9
99896.5
99894.1
99891.8
99889.5
99887.3
99885.2
99883.1
99881.1
99879.2
99877.4
99875.6
99874
99872.6
99870.9
99869.3
99936.2
99934
99931.6
99929.2
99926.8
99924.3
99921.9
99919.4
99916.8
99914.3
99911.8
99909.3
99906.8
99904.4
99901.9
99899.5
99897.2
99894.9
99892.7
99890.5
99888.4
99886.3
99884.3
99882.4
99880.5
99878.8
99877.2
99875.6
99874
99872.3
99938.1
99935.9
99933.6
99931.3
99929
99926.6
99924.2
99921.7
99919.3
99916.8
99914.4
99911.9
99909.5
99907.1
99904.7
99902.4
99900.1
99897.8
99895.6
99893.4
99891.3
99889.3
99887.3
99885.3
99883.5
99881.7
99880
99878.5
99876.7
99874.9
99939.8
99937.6
99935.4
99933.2
99930.9
99928.6
99926.3
99923.9
99921.5
99919.1
99916.7
99914.3
99912
99909.6
99907.3
99905
99902.7
99900.5
99898.3
99896.2
99894.1
99892
99890
99888.1
99886.2
99884.4
99882.7
99881.1
99879.3
99877.4
99941.3
99939.2
99937.1
99934.9
99932.7
99930.5
99928.2
99925.9
99923.6
99921.2
99918.9
99916.6
99914.3
99912
99909.7
99907.4
99905.2
99903
99900.8
99898.7
99896.6
99894.5
99892.5
99890.6
99888.7
99886.9
99885.2
99883.5
99881.6
99879.6
99942.7
99940.6
99938.6
99936.5
99934.3
99932.1
99929.9
99927.7
99925.4
99923.2
99920.9
99918.6
99916.4
99914.1
99911.9
99909.6
99907.4
99905.3
99903.1
99901
99898.9
99896.9
99894.9
99892.9
99891
99889.1
99887.4
99885.7
99883.7
99881.6
99943.9
99941.9
99939.9
99937.9
99935.8
99933.7
99931.5
99929.4
99927.2
99925
99922.7
99920.5
99918.3
99916.1
99913.9
99911.7
99909.5
99907.4
99905.3
99903.1
99901.1
99899
99897
99895.1
99893.1
99891.2
99889.5
99887.7
99885.7
99883.5
99944.9
99943
99941.1
99939.1
99937.1
99935.1
99933
99930.9
99928.7
99926.6
99924.4
99922.3
99920.1
99917.9
99915.8
99913.6
99911.5
99909.3
99907.2
99905.1
99903.1
99901
99899
99897
99895.1
99893.2
99891.3
99889.6
99887.4
99885.1
99945.8
99944
99942.2
99940.3
99938.3
99936.3
99934.3
99932.3
99930.2
99928.1
99926
99923.9
99921.8
99919.6
99917.5
99915.4
99913.3
99911.2
99909.1
99907
99904.9
99902.9
99900.8
99898.8
99896.9
99894.9
99893.1
99891.3
99889.1
99886.7
99946.7
99944.9
99943.1
99941.3
99939.4
99937.5
99935.5
99933.5
99931.5
99929.5
99927.4
99925.4
99923.3
99921.2
99919.1
99917
99914.9
99912.8
99910.8
99908.7
99906.6
99904.6
99902.5
99900.5
99898.5
99896.5
99894.6
99892.8
99890.6
99888
99947.3
99945.7
99944
99942.2
99940.4
99938.5
99936.6
99934.7
99932.7
99930.8
99928.8
99926.7
99924.7
99922.7
99920.6
99918.5
99916.5
99914.4
99912.3
99910.3
99908.2
99906.2
99904.1
99902.1
99900
99898
99896.1
99894.2
99891.9
99889.2
99947.9
99946.3
99944.7
99943
99941.2
99939.4
99937.6
99935.7
99933.9
99931.9
99930
99928
99926
99924
99922
99920
99917.9
99915.9
99913.8
99911.8
99909.7
99907.6
99905.6
99903.5
99901.5
99899.4
99897.4
99895.5
99893
99890.2
99948.4
99946.9
99945.3
99943.7
99942
99940.3
99938.5
99936.7
99934.9
99933
99931.1
99929.2
99927.3
99925.3
99923.3
99921.3
99919.3
99917.2
99915.2
99913.1
99911.1
99909
99906.9
99904.9
99902.8
99900.7
99898.7
99896.7
99894.1
99891.1
99948.9
99947.4
99945.9
99944.3
99942.7
99941.1
99939.4
99937.6
99935.8
99934
99932.2
99930.3
99928.4
99926.5
99924.5
99922.6
99920.6
99918.5
99916.5
99914.5
99912.4
99910.3
99908.2
99906.1
99904
99901.8
99899.8
99897.8
99895.1
99891.9
99949.3
99947.9
99946.4
99944.9
99943.4
99941.8
99940.2
99938.5
99936.8
99935
99933.2
99931.4
99929.5
99927.6
99925.7
99923.8
99921.8
99919.8
99917.7
99915.7
99913.6
99911.5
99909.4
99907.3
99905.1
99902.9
99900.8
99898.8
99895.9
99892.6
99949.6
99948.3
99946.9
99945.5
99944
99942.5
99940.9
99939.3
99937.6
99935.9
99934.2
99932.4
99930.6
99928.7
99926.8
99924.9
99923
99921
99918.9
99916.9
99914.8
99912.7
99910.6
99908.4
99906.2
99904
99901.8
99899.7
99896.7
99893.2
99949.9
99948.6
99947.4
99946
99944.6
99943.1
99941.6
99940
99938.4
99936.8
99935.1
99933.4
99931.6
99929.8
99927.9
99926
99924.1
99922.1
99920.1
99918.1
99916
99913.9
99911.7
99909.5
99907.3
99905
99902.8
99900.6
99897.5
99893.8
99950.1
99949
99947.8
99946.5
99945.1
99943.7
99942.3
99940.8
99939.3
99937.7
99936
99934.3
99932.6
99930.8
99929
99927.1
99925.2
99923.3
99921.3
99919.2
99917.1
99915
99912.8
99910.6
99908.3
99906
99903.7
99901.5
99898.2
99894.3
99950.4
99949.3
99948.2
99947
99945.7
99944.4
99943
99941.5
99940.1
99938.5
99936.9
99935.3
99933.6
99931.8
99930.1
99928.2
99926.3
99924.4
99922.4
99920.4
99918.3
99916.1
99913.9
99911.7
99909.3
99906.9
99904.7
99902.3
99898.9
99894.8
99950.6
99949.7
99948.6
99947.4
99946.2
99945
99943.7
99942.3
99940.8
99939.4
99937.8
99936.2
99934.6
99932.9
99931.1
99929.3
99927.4
99925.5
99923.5
99921.5
99919.4
99917.3
99915
99912.8
99910.4
99908
99905.6
99903.2
99899.7
99895.3
99950.9
99950
99949
99947.9
99946.8
99945.6
99944.3
99943
99941.7
99940.2
99938.7
99937.2
99935.6
99933.9
99932.2
99930.4
99928.6
99926.7
99924.7
99922.7
99920.6
99918.4
99916.2
99913.9
99911.5
99909
99906.6
99904.2
99900.5
99895.9
99951.2
99950.4
99949.5
99948.5
99947.4
99946.3
99945.1
99943.8
99942.5
99941.1
99939.7
99938.2
99936.6
99935
99933.3
99931.5
99929.7
99927.9
99925.9
99923.9
99921.8
99919.7
99917.4
99915.1
99912.7
99910.2
99907.7
99905.2
99901.3
99896.5
99951.5
99950.8
99949.9
99949
99948
99946.9
99945.8
99944.6
99943.3
99942
99940.6
99939.2
99937.6
99936.1
99934.4
99932.7
99930.9
99929.1
99927.2
99925.2
99923.1
99920.9
99918.7
99916.4
99913.9
99911.4
99908.9
99906.4
99902.4
99897.3
99951.9
99951.2
99950.4
99949.6
99948.6
99947.6
99946.5
99945.4
99944.2
99942.9
99941.6
99940.2
99938.7
99937.2
99935.6
99933.9
99932.2
99930.3
99928.5
99926.5
99924.4
99922.3
99920.1
99917.8
99915.3
99912.7
99910.3
99907.7
99903.5
99898.3
99952.3
99951.7
99951
99950.2
99949.3
99948.4
99947.3
99946.3
99945.1
99943.9
99942.6
99941.2
99939.8
99938.3
99936.8
99935.2
99933.5
99931.7
99929.8
99927.9
99925.9
99923.8
99921.6
99919.3
99916.8
99914.3
99911.8
99909.3
99905
99899.6
99952.8
99952.3
99951.6
99950.9
99950
99949.2
99948.2
99947.2
99946.1
99944.9
99943.7
99942.4
99941
99939.6
99938
99936.5
99934.8
99933.1
99931.3
99929.4
99927.4
99925.4
99923.2
99921
99918.5
99916
99913.6
99911.1
99906.7
99901.2
99953.4
99952.9
99952.3
99951.6
99950.8
99950
99949.1
99948.1
99947.1
99946
99944.8
99943.5
99942.2
99940.8
99939.4
99937.9
99936.3
99934.6
99932.8
99931
99929.1
99927.1
99925
99922.8
99920.4
99918
99915.6
99913.2
99908.8
99903.2
99954
99953.5
99953
99952.4
99951.7
99950.9
99950
99949.1
99948.1
99947.1
99945.9
99944.7
99943.5
99942.2
99940.8
99939.3
99937.8
99936.2
99934.5
99932.7
99930.9
99929
99927
99924.8
99922.6
99920.2
99917.9
99915.6
99911.2
99905.7
99954.7
99954.3
99953.8
99953.2
99952.6
99951.8
99951
99950.2
99949.2
99948.2
99947.2
99946
99944.8
99943.6
99942.2
99940.8
99939.4
99937.9
99936.3
99934.6
99932.8
99931
99929.1
99927.1
99924.9
99922.6
99920.5
99918.3
99914
99908.7
99955.5
99955.1
99954.7
99954.1
99953.5
99952.8
99952.1
99951.3
99950.4
99949.4
99948.4
99947.4
99946.2
99945
99943.8
99942.5
99941.1
99939.7
99938.1
99936.6
99934.9
99933.2
99931.4
99929.5
99927.5
99925.4
99923.4
99921.4
99917.3
99912.2
99956.3
99956
99955.6
99955.1
99954.5
99953.9
99953.2
99952.4
99951.6
99950.7
99949.8
99948.8
99947.7
99946.6
99945.4
99944.2
99942.9
99941.5
99940.1
99938.7
99937.1
99935.5
99933.9
99932.1
99930.3
99928.3
99926.6
99924.7
99920.9
99916.1
99957.2
99956.9
99956.6
99956.1
99955.6
99955
99954.4
99953.7
99952.9
99952.1
99951.2
99950.2
99949.2
99948.2
99947.1
99946
99944.8
99943.5
99942.2
99940.9
99939.5
99938
99936.5
99935
99933.3
99931.5
99930
99928.4
99924.8
99920.4
99958.2
99958
99957.6
99957.2
99956.8
99956.2
99955.6
99955
99954.2
99953.5
99952.6
99951.8
99950.8
99949.9
99948.9
99947.8
99946.7
99945.6
99944.4
99943.2
99942
99940.7
99939.3
99937.9
99936.4
99934.9
99933.6
99932.3
99929
99925
99959.3
99959.1
99958.8
99958.4
99958
99957.5
99956.9
99956.3
99955.6
99954.9
99954.2
99953.4
99952.5
99951.6
99950.7
99949.8
99948.8
99947.8
99946.7
99945.6
99944.5
99943.4
99942.2
99941
99939.7
99938.4
99937.4
99936.3
99933.4
99929.8
99960.4
99960.2
99960
99959.6
99959.2
99958.8
99958.3
99957.7
99957.1
99956.4
99955.7
99955
99954.2
99953.4
99952.6
99951.8
99950.9
99950
99949.1
99948.1
99947.2
99946.2
99945.2
99944.2
99943.1
99942
99941.2
99940.4
99937.9
99934.8
99961.6
99961.4
99961.2
99960.9
99960.5
99960.1
99959.7
99959.1
99958.6
99958
99957.4
99956.7
99956
99955.3
99954.6
99953.8
99953.1
99952.3
99951.5
99950.7
99949.9
99949.1
99948.2
99947.4
99946.5
99945.7
99945.1
99944.6
99942.4
99939.7
99962.9
99962.7
99962.5
99962.2
99961.9
99961.5
99961.1
99960.6
99960.1
99959.6
99959
99958.4
99957.8
99957.2
99956.6
99955.9
99955.3
99954.6
99954
99953.3
99952.6
99952
99951.3
99950.7
99950
99949.4
99949
99948.7
99946.9
99944.6
99964.2
99964
99963.8
99963.6
99963.3
99963
99962.6
99962.2
99961.7
99961.2
99960.7
99960.2
99959.7
99959.2
99958.6
99958.1
99957.5
99957
99956.5
99955.9
99955.4
99954.9
99954.4
99953.9
99953.4
99953
99952.9
99952.7
99951.2
99949.4
99965.5
99965.4
99965.2
99965
99964.8
99964.5
99964.1
99963.8
99963.4
99962.9
99962.5
99962.1
99961.6
99961.2
99960.7
99960.3
99959.8
99959.4
99959
99958.6
99958.2
99957.8
99957.5
99957.1
99956.8
99956.5
99956.6
99956.6
99955.5
99954.1
99967
99966.9
99966.7
99966.5
99966.3
99966
99965.7
99965.4
99965
99964.7
99964.3
99963.9
99963.5
99963.2
99962.8
99962.5
99962.1
99961.8
99961.5
99961.2
99960.9
99960.7
99960.5
99960.3
99960.1
99960
99960.2
99960.4
99959.6
99958.5
99968.5
99968.4
99968.2
99968
99967.8
99967.6
99967.3
99967
99966.7
99966.4
99966.1
99965.8
99965.5
99965.2
99964.9
99964.7
99964.4
99964.2
99964
99963.8
99963.6
99963.5
99963.4
99963.3
99963.3
99963.3
99963.7
99964
99963.4
99962.5
99970
99969.9
99969.8
99969.6
99969.4
99969.2
99969
99968.7
99968.5
99968.2
99968
99967.7
99967.5
99967.3
99967.1
99966.9
99966.7
99966.5
99966.4
99966.3
99966.3
99966.2
99966.2
99966.3
99966.4
99966.5
99967
99967.4
99966.9
99966.3
99971.5
99971.4
99971.3
99971.2
99971
99970.8
99970.6
99970.4
99970.2
99970
99969.8
99969.6
99969.5
99969.3
99969.2
99969
99968.9
99968.9
99968.8
99968.8
99968.8
99968.9
99969
99969.1
99969.3
99969.6
99970.1
99970.7
99970.3
99969.8
99973.1
99973
99972.9
99972.8
99972.6
99972.5
99972.3
99972.1
99972
99971.8
99971.7
99971.6
99971.4
99971.3
99971.3
99971.2
99971.2
99971.2
99971.2
99971.2
99971.3
99971.4
99971.6
99971.8
99972.1
99972.4
99973
99973.6
99973.4
99973.1
99974.7
99974.6
99974.5
99974.4
99974.3
99974.2
99974
99973.9
99973.8
99973.7
99973.6
99973.5
99973.4
99973.4
99973.3
99973.3
99973.4
99973.4
99973.5
99973.6
99973.7
99973.9
99974.1
99974.4
99974.7
99975.1
99975.7
99976.4
99976.2
99976.1
99976.3
99976.2
99976.1
99976
99976
99975.8
99975.7
99975.6
99975.6
99975.5
99975.4
99975.4
99975.4
99975.4
99975.4
99975.4
99975.5
99975.6
99975.7
99975.8
99976
99976.2
99976.5
99976.8
99977.1
99977.6
99978.2
99978.9
99978.8
99978.7
99977.9
99977.8
99977.8
99977.7
99977.6
99977.6
99977.5
99977.4
99977.4
99977.3
99977.3
99977.3
99977.3
99977.4
99977.4
99977.5
99977.6
99977.7
99977.9
99978
99978.2
99978.5
99978.8
99979.1
99979.5
99979.9
99980.6
99981.2
99981.2
99981.1
99979.5
99979.5
99979.5
99979.4
99979.3
99979.3
99979.2
99979.2
99979.2
99979.2
99979.2
99979.2
99979.3
99979.3
99979.4
99979.5
99979.6
99979.8
99979.9
99980.1
99980.4
99980.6
99980.9
99981.3
99981.6
99982
99982.7
99983.3
99983.3
99983.2
99981.2
99981.2
99981.1
99981.1
99981.1
99981
99981
99981
99981
99981
99981.1
99981.1
99981.2
99981.3
99981.4
99981.5
99981.6
99981.8
99982
99982.2
99982.4
99982.7
99983
99983.4
99983.7
99984.1
99984.8
99985.4
99985.5
99985.5
99982.9
99982.9
99982.9
99982.8
99982.8
99982.8
99982.8
99982.8
99982.8
99982.9
99982.9
99983
99983.1
99983.2
99983.3
99983.4
99983.6
99983.7
99983.9
99984.1
99984.4
99984.6
99984.9
99985.3
99985.6
99986
99986.5
99987
99987
99986.9
99984.6
99984.6
99984.6
99984.6
99984.5
99984.5
99984.6
99984.6
99984.6
99984.7
99984.8
99984.8
99984.9
99985.1
99985.2
99985.3
99985.5
99985.6
99985.8
99986
99986.3
99986.5
99986.8
99987.2
99987.5
99987.9
99988.5
99989
99989
99988.9
99986.4
99986.3
99986.3
99986.3
99986.3
99986.3
99986.3
99986.4
99986.4
99986.5
99986.6
99986.7
99986.8
99986.9
99987
99987.2
99987.3
99987.5
99987.7
99987.9
99988.1
99988.3
99988.6
99988.9
99989.2
99989.5
99990
99990.4
99990.2
99990
99988.1
99988.1
99988.1
99988.1
99988.1
99988.1
99988.1
99988.2
99988.3
99988.3
99988.4
99988.5
99988.6
99988.7
99988.8
99989
99989.1
99989.3
99989.5
99989.7
99989.9
99990.1
99990.4
99990.7
99991
99991.4
99991.9
99992.4
99992.5
99992.5
99989.8
99989.8
99989.8
99989.8
99989.8
99989.9
99989.9
99990
99990.1
99990.1
99990.2
99990.3
99990.4
99990.5
99990.6
99990.8
99990.9
99991
99991.2
99991.3
99991.5
99991.7
99992
99992.2
99992.4
99992.8
99993.2
99993.6
99993.4
99993.2
99991.6
99991.6
99991.6
99991.6
99991.6
99991.7
99991.7
99991.8
99991.9
99991.9
99992
99992.1
99992.2
99992.3
99992.4
99992.5
99992.6
99992.8
99992.9
99993.1
99993.3
99993.4
99993.7
99993.9
99994.1
99994.4
99995
99995.5
99995.6
99995.5
99993.4
99993.3
99993.3
99993.4
99993.4
99993.4
99993.5
99993.6
99993.7
99993.7
99993.8
99993.9
99994
99994
99994.1
99994.2
99994.3
99994.4
99994.5
99994.6
99994.7
99994.8
99995
99995.1
99995.2
99995.5
99995.9
99996.4
99996.1
99995.7
99995.2
99995.2
99995.2
99995.2
99995.2
99995.3
99995.3
99995.4
99995.5
99995.5
99995.6
99995.7
99995.7
99995.8
99995.9
99996
99996.1
99996.2
99996.3
99996.4
99996.5
99996.6
99996.8
99997
99997.3
99997.5
99997.8
99998.3
99999.3
99999.6
99997
99996.8
99996.7
99996.7
99996.8
99996.9
99997.1
99997.2
99997.3
99997.4
99997.4
99997.5
99997.5
99997.5
99997.5
99997.5
99997.6
99997.6
99997.6
99997.6
99997.6
99997.6
99997.5
99997.4
99997.4
99997.3
99997
99996.9
99997.8
100001
99999.3
99999.4
99999.5
99999.6
99999.5
99999.3
99999.2
99999.1
99999
99999
99999
99999.1
99999.1
99999.2
99999.3
99999.4
99999.6
99999.8
99999.9
100000
100000
100001
100001
100001
100001
100001
100001
100001
100009
100015
99403.9
99498.3
99562.3
99603.9
99636
99661.5
99683.4
99702.5
99719.4
99734.7
99748.5
99761.1
99772.8
99783.6
99793.7
99803.2
99812.1
99820.6
99828.6
99836.3
99843.9
99851.2
99857.5
99865.8
99881.3
99441.3
99506.4
99565.6
99605.4
99636.9
99662
99683.8
99702.7
99719.6
99734.8
99748.6
99761.2
99772.9
99783.7
99793.8
99803.2
99812.1
99820.6
99828.6
99836.3
99843.9
99851.2
99857.5
99865.8
99881.2
99473.5
99521.3
99571
99607.9
99638.2
99662.9
99684.3
99703.1
99719.9
99735
99748.7
99761.3
99772.9
99783.7
99793.8
99803.3
99812.2
99820.6
99828.6
99836.3
99843.9
99851.2
99857.5
99865.8
99881
99499.2
99536.5
99578
99611.5
99640.1
99664.1
99685.1
99703.7
99720.3
99735.3
99748.9
99761.5
99773.1
99783.8
99793.9
99803.3
99812.2
99820.6
99828.6
99836.3
99843.9
99851.2
99857.5
99865.7
99880.7
99522.5
99551.8
99586
99615.9
99642.7
99665.7
99686.1
99704.3
99720.7
99735.6
99749.1
99761.6
99773.2
99783.9
99793.9
99803.3
99812.2
99820.6
99828.6
99836.3
99843.9
99851.2
99857.5
99865.6
99880.3
99543.6
99566.9
99594.9
99621.4
99645.9
99667.8
99687.5
99705.2
99721.3
99736
99749.4
99761.8
99773.3
99784
99794
99803.4
99812.2
99820.7
99828.6
99836.3
99843.9
99851.1
99857.5
99865.5
99879.9
99562.6
99581.4
99604.5
99627.7
99649.9
99670.4
99689.2
99706.4
99722.1
99736.5
99749.8
99762.1
99773.5
99784.1
99794.1
99803.4
99812.3
99820.7
99828.6
99836.3
99843.8
99851.1
99857.4
99865.4
99879.4
99580
99595.4
99614.5
99634.6
99654.6
99673.6
99691.4
99707.9
99723.2
99737.3
99750.3
99762.4
99773.7
99784.3
99794.2
99803.5
99812.3
99820.7
99828.6
99836.3
99843.8
99851
99857.4
99865.3
99878.8
99596
99608.8
99624.7
99642.1
99659.9
99677.3
99694
99709.7
99724.4
99738.2
99751
99762.9
99774.1
99784.5
99794.4
99803.6
99812.4
99820.7
99828.7
99836.3
99843.8
99851
99857.4
99865.2
99878.2
99610.9
99621.6
99635
99650
99665.7
99681.6
99697.1
99711.9
99726
99739.3
99751.8
99763.5
99774.5
99784.8
99794.6
99803.8
99812.5
99820.8
99828.7
99836.3
99843.8
99851
99857.3
99865.1
99877.6
99624.9
99634
99645.3
99658.2
99672.1
99686.3
99700.6
99714.5
99727.9
99740.7
99752.8
99764.2
99775
99785.2
99794.9
99804
99812.7
99820.9
99828.8
99836.3
99843.7
99850.9
99857.3
99865
99876.9
99638.2
99646
99655.6
99666.6
99678.8
99691.5
99704.6
99717.5
99730.1
99742.3
99754
99765.1
99775.7
99785.7
99795.2
99804.2
99812.8
99821
99828.8
99836.4
99843.7
99850.9
99857.2
99864.8
99876.2
99651
99657.6
99665.8
99675.3
99685.9
99697.2
99709
99720.9
99732.7
99744.3
99755.5
99766.2
99776.5
99786.3
99795.6
99804.6
99813.1
99821.2
99828.9
99836.4
99843.7
99850.8
99857.2
99864.7
99875.5
99663.3
99669
99675.9
99684
99693.2
99703.2
99713.8
99724.7
99735.6
99746.5
99757.2
99767.5
99777.5
99787
99796.2
99804.9
99813.3
99821.4
99829.1
99836.5
99843.7
99850.8
99857.1
99864.5
99874.7
99675.1
99680
99685.9
99692.9
99700.8
99709.6
99719
99728.8
99738.9
99749.1
99759.1
99769
99778.6
99787.9
99796.8
99805.4
99813.7
99821.6
99829.2
99836.6
99843.8
99850.7
99857
99864.3
99873.9
99686.6
99690.7
99695.8
99701.7
99708.6
99716.2
99724.5
99733.4
99742.6
99752
99761.4
99770.8
99779.9
99788.9
99797.6
99806
99814.1
99821.9
99829.4
99836.7
99843.8
99850.7
99856.9
99864.1
99873.1
99697.7
99701.3
99705.5
99710.6
99716.4
99723.1
99730.4
99738.3
99746.6
99755.2
99764
99772.8
99781.5
99790.1
99798.5
99806.7
99814.6
99822.2
99829.6
99836.8
99843.8
99850.6
99856.9
99863.9
99872.3
99708.5
99711.5
99715.1
99719.4
99724.4
99730.1
99736.5
99743.5
99750.9
99758.8
99766.9
99775.1
99783.3
99791.5
99799.6
99807.5
99815.2
99822.7
99829.9
99837
99843.9
99850.6
99856.8
99863.7
99871.5
99719
99721.5
99724.6
99728.2
99732.4
99737.3
99742.8
99749
99755.6
99762.7
99770
99777.6
99785.4
99793.1
99800.8
99808.4
99815.9
99823.2
99830.3
99837.2
99844
99850.6
99856.7
99863.4
99870.7
99729.1
99731.3
99733.8
99736.9
99740.4
99744.6
99749.4
99754.7
99760.5
99766.8
99773.5
99780.5
99787.7
99795
99802.3
99809.5
99816.7
99823.8
99830.7
99837.5
99844.2
99850.6
99856.6
99863.2
99869.9
99739
99740.7
99742.9
99745.4
99748.4
99752
99756
99760.6
99765.7
99771.3
99777.3
99783.7
99790.3
99797
99803.9
99810.8
99817.7
99824.5
99831.3
99837.9
99844.4
99850.6
99856.5
99862.9
99869.1
99748.5
99749.9
99751.7
99753.8
99756.3
99759.3
99762.8
99766.7
99771.1
99776
99781.4
99787.1
99793.1
99799.4
99805.8
99812.3
99818.9
99825.4
99831.9
99838.3
99844.6
99850.7
99856.5
99862.6
99868.4
99757.6
99758.8
99760.3
99762.1
99764.2
99766.6
99769.6
99772.9
99776.7
99781
99785.7
99790.8
99796.2
99802
99807.9
99814
99820.2
99826.4
99832.6
99838.8
99844.9
99850.8
99856.5
99862.3
99867.8
99766.4
99767.4
99768.7
99770.1
99771.9
99773.9
99776.4
99779.2
99782.4
99786.1
99790.2
99794.7
99799.6
99804.8
99810.2
99815.9
99821.7
99827.6
99833.5
99839.4
99845.3
99851
99856.4
99862.1
99867.2
99774.9
99775.8
99776.8
99778
99779.4
99781.1
99783.1
99785.5
99788.2
99791.4
99794.9
99798.9
99803.2
99807.9
99812.8
99818
99823.4
99828.9
99834.5
99840.1
99845.7
99851.2
99856.5
99861.9
99866.6
99783.1
99783.8
99784.6
99785.6
99786.8
99788.2
99789.8
99791.8
99794.1
99796.8
99799.8
99803.2
99807
99811.2
99815.6
99820.3
99825.3
99830.4
99835.6
99841
99846.3
99851.5
99856.6
99861.7
99866.1
99790.9
99791.5
99792.2
99793
99793.9
99795.1
99796.4
99798.1
99800
99802.2
99804.8
99807.7
99811
99814.7
99818.6
99822.9
99827.4
99832.1
99837
99841.9
99847
99851.9
99856.7
99861.6
99865.8
99798.4
99798.8
99799.4
99800.1
99800.9
99801.8
99802.9
99804.3
99805.9
99807.7
99809.9
99812.4
99815.2
99818.3
99821.8
99825.6
99829.7
99834
99838.5
99843.1
99847.8
99852.4
99857
99861.5
99865.5
99805.5
99805.9
99806.4
99807
99807.6
99808.4
99809.3
99810.4
99811.7
99813.2
99815
99817.1
99819.5
99822.2
99825.2
99828.6
99832.2
99836
99840.1
99844.4
99848.7
99853
99857.3
99861.6
99865.3
99812.3
99812.6
99813.1
99813.5
99814.1
99814.7
99815.4
99816.3
99817.4
99818.6
99820.1
99821.9
99823.9
99826.2
99828.8
99831.7
99834.9
99838.3
99842
99845.8
99849.8
99853.8
99857.8
99861.7
99865.2
99818.7
99819.1
99819.5
99819.9
99820.3
99820.8
99821.4
99822.1
99823
99824
99825.2
99826.7
99828.3
99830.3
99832.5
99834.9
99837.7
99840.7