/*--------------------------------*- C++ -*----------------------------------*\
  =========                 |
  \\      /  F ield         | OpenFOAM: The Open Source CFD Toolbox
   \\    /   O peration     | Website:  https://openfoam.org
    \\  /    A nd           | Version:  10
     \\/     M anipulation  |
\*---------------------------------------------------------------------------*/
FoamFile
{
    format      ascii;
    class       surfaceScalarField;
    location    "0.001";
    object      phi;
}
// * * * * * * * * * * * * * * * * * * * * * * * * * * * * * * * * * * * * * //

dimensions      [1 0 -1 0 0 0 0];

internalField   nonuniform List<scalar> 
17568
(
-0.00093294
5.34131e-05
-6.17871e-05
-0.000923338
5.08523e-05
-6.04543e-05
-0.000912439
4.7881e-05
-5.87794e-05
-0.000900163
4.45228e-05
-5.67993e-05
-0.000886412
4.07697e-05
-5.45205e-05
-0.000871124
3.65451e-05
-5.1832e-05
-0.00085427
3.18521e-05
-4.87052e-05
-0.000835766
2.6725e-05
-4.5228e-05
-0.000815662
2.09277e-05
-4.10311e-05
-0.000794094
1.44113e-05
-3.59785e-05
-0.000771194
7.24775e-06
-3.01467e-05
-0.000747138
-5.39768e-07
-2.35153e-05
-0.000722178
-8.92275e-06
-1.60359e-05
-0.00069659
-1.77849e-05
-7.80263e-06
-0.000670687
-2.70134e-05
1.11226e-06
-0.000644756
-3.64662e-05
1.05361e-05
-0.000619042
-4.59444e-05
2.02324e-05
-0.000593799
-5.52344e-05
2.99925e-05
-0.000569306
-6.4192e-05
3.97009e-05
-0.000545967
-7.29074e-05
4.95713e-05
-0.000524299
-8.16912e-05
6.00243e-05
-0.000504661
-9.11278e-05
7.1493e-05
-0.000486994
-0.000102045
8.43793e-05
-0.000470667
-0.000115266
9.89409e-05
-0.000454106
-0.000132542
0.000115983
-0.000435626
-0.000158965
0.000140487
-0.000420153
-0.000197574
0.000182102
-0.000411522
-0.000244048
0.000235417
-0.000383392
-0.000336209
0.000308079
-0.000434385
-0.000488712
0.000539708
-0.000857792
4.14422e-05
-0.000844776
3.78367e-05
-0.000830714
3.38192e-05
-0.000815606
2.94153e-05
-0.000799462
2.4625e-05
-0.000782335
1.94194e-05
-0.000764314
1.38312e-05
-0.000745476
7.88818e-06
-0.000726024
1.47584e-06
-0.000706221
-5.39055e-06
-0.00068634
-1.26328e-05
-0.00066668
-2.0198e-05
-0.000647572
-2.80308e-05
-0.000629318
-3.60371e-05
-0.000612188
-4.41426e-05
-0.000596392
-5.22603e-05
-0.000582045
-6.02902e-05
-0.000569127
-6.81507e-05
-0.000557464
-7.5853e-05
-0.00054674
-8.36291e-05
-0.000536486
-9.19433e-05
-0.000526169
-0.000101442
-0.000515336
-0.000112877
-0.000503528
-0.000127072
-0.000490129
-0.00014594
-0.000476511
-0.000172582
-0.000467942
-0.000206141
-0.000461662
-0.000250328
-0.000466037
-0.000331834
-0.00036571
-0.000534712
-0.000782493
2.81295e-05
-0.000768626
2.3969e-05
-0.000754289
1.94825e-05
-0.000739581
1.47078e-05
-0.000724621
9.66551e-06
-0.000709572
4.37104e-06
-0.000694619
-1.12247e-06
-0.000679938
-6.79238e-06
-0.000665776
-1.26858e-05
-0.000652386
-1.87806e-05
-0.000639979
-2.50397e-05
-0.000628724
-3.14531e-05
-0.000618739
-3.80158e-05
-0.000610043
-4.47327e-05
-0.000602557
-5.16285e-05
-0.000596106
-5.87109e-05
-0.000590415
-6.59808e-05
-0.00058511
-7.34538e-05
-0.000579745
-8.12169e-05
-0.000573858
-8.95149e-05
-0.000567032
-9.87681e-05
-0.000558955
-0.000109517
-0.000549484
-0.000122347
-0.000538484
-0.000138071
-0.000525994
-0.00015843
-0.000513824
-0.000184751
-0.000504591
-0.000215373
-0.000497545
-0.000257373
-0.000509608
-0.000319772
-0.000330339
-0.00054498
-0.000716425
1.62527e-05
-0.000704712
1.22566e-05
-0.000693315
8.08538e-06
-0.000682389
3.78198e-06
-0.000672094
-6.29068e-07
-0.000662589
-5.1329e-06
-0.000654012
-9.69886e-06
-0.000646463
-1.43405e-05
-0.000640035
-1.91135e-05
-0.000634765
-2.40498e-05
-0.000630607
-2.91967e-05
-0.000627438
-3.4621e-05
-0.000625077
-4.03758e-05
-0.00062329
-4.65181e-05
-0.000621812
-5.31053e-05
-0.00062035
-6.01719e-05
-0.000618584
-6.77445e-05
-0.00061619
-7.58464e-05
-0.000612851
-8.45536e-05
-0.000608288
-9.40753e-05
-0.000602298
-0.000104757
-0.000594789
-0.000117024
-0.000585791
-0.000131344
-0.000575369
-0.000148493
-0.000564008
-0.000169789
-0.000553275
-0.000195484
-0.000543922
-0.000224725
-0.000537905
-0.000263389
-0.000548254
-0.000309423
-0.000313927
-0.000564666
-0.000667477
8.52067e-06
-0.00066063
5.41004e-06
-0.000654792
2.24784e-06
-0.000650059
-9.5158e-07
-0.000646481
-4.20658e-06
-0.000644072
-7.54066e-06
-0.000642797
-1.09743e-05
-0.000642552
-1.4584e-05
-0.000643195
-1.84708e-05
-0.000644536
-2.2708e-05
-0.000646355
-2.73772e-05
-0.000648414
-3.25621e-05
-0.000650462
-3.83265e-05
-0.00065225
-4.47297e-05
-0.000653548
-5.18064e-05
-0.000654147
-5.95722e-05
-0.00065384
-6.80499e-05
-0.000652427
-7.72584e-05
-0.000649718
-8.72613e-05
-0.000645559
-9.8233e-05
-0.000639862
-0.000110452
-0.000632632
-0.000124252
-0.000623949
-0.000140025
-0.000613981
-0.00015846
-0.000603386
-0.000180384
-0.000593393
-0.000205475
-0.000584596
-0.000233522
-0.000579527
-0.000268457
-0.0005853
-0.000303649
-0.00030891
-0.000590318
-0.000639903
6.73754e-06
-0.000639401
4.90809e-06
-0.000640167
3.01417e-06
-0.000642141
1.02207e-06
-0.000645207
-1.13981e-06
-0.000649199
-3.54754e-06
-0.000653908
-6.26454e-06
-0.000659106
-9.38514e-06
-0.000664564
-1.30115e-05
-0.000670047
-1.7224e-05
-0.000675321
-2.2102e-05
-0.000680179
-2.77029e-05
-0.000684435
-3.40691e-05
-0.000687917
-4.12464e-05
-0.000690473
-4.92487e-05
-0.000691967
-5.80761e-05
-0.000692276
-6.77394e-05
-0.000691279
-7.82535e-05
-0.000688861
-8.96777e-05
-0.000684934
-0.000102158
-0.000679468
-0.000115916
-0.000672508
-0.000131211
-0.00066416
-0.000148371
-0.000654682
-0.000167936
-0.00064475
-0.000190315
-0.000635191
-0.000215033
-0.000626457
-0.000242254
-0.000621151
-0.000273762
-0.000622541
-0.000302259
-0.00031071
-0.00062074
-0.000633038
1.12293e-05
-0.000638734
1.06041e-05
-0.000645469
9.74964e-06
-0.000653045
8.59739e-06
-0.000661243
7.05884e-06
-0.000669836
5.04586e-06
-0.000678581
2.48189e-06
-0.00068724
-7.25731e-07
-0.0006956
-4.6505e-06
-0.000703471
-9.35214e-06
-0.00071068
-1.48923e-05
-0.000717075
-2.13064e-05
-0.000722527
-2.86159e-05
-0.000726929
-3.68437e-05
-0.000730186
-4.59903e-05
-0.00073221
-5.60506e-05
-0.000732919
-6.70288e-05
-0.000732232
-7.89396e-05
-0.00073007
-9.18376e-05
-0.000726384
-0.000105842
-0.000721174
-0.000121125
-0.000714502
-0.000137882
-0.000706496
-0.000156376
-0.000697453
-0.000176978
-0.000687961
-0.000199806
-0.000678571
-0.000224421
-0.000669806
-0.000251019
-0.000663714
-0.000279852
-0.000661166
-0.000304807
-0.000316838
-0.000655038
-0.000642436
2.10914e-05
-0.000653106
2.12743e-05
-0.000664365
2.10084e-05
-0.000675979
2.02121e-05
-0.000687714
1.87935e-05
-0.00069935
1.66826e-05
-0.000710682
1.38146e-05
-0.000721517
1.01109e-05
-0.000731688
5.52173e-06
-0.000741049
1.01174e-08
-0.000749477
-6.46291e-06
-0.000756872
-1.39103e-05
-0.000763145
-2.23408e-05
-0.000768224
-3.1763e-05
-0.000772041
-4.21719e-05
-0.000774529
-5.35607e-05
-0.000775626
-6.59304e-05
-0.000775269
-7.9295e-05
-0.000773403
-9.37012e-05
-0.000770002
-0.000109242
-0.000765083
-0.000126042
-0.000758719
-0.000144245
-0.00075105
-0.000164043
-0.000742377
-0.00018565
-0.000733166
-0.000209015
-0.000723806
-0.00023378
-0.000714833
-0.00025999
-0.000707607
-0.000287077
-0.000701833
-0.00031058
-0.000325898
-0.000692773
-0.000662759
3.50486e-05
-0.000677087
3.56017e-05
-0.000691566
3.5487e-05
-0.000705986
3.46324e-05
-0.000720145
3.29531e-05
-0.000733857
3.0395e-05
-0.000746952
2.69104e-05
-0.000759289
2.24483e-05
-0.000770744
1.69785e-05
-0.000781212
1.0479e-05
-0.000790602
2.92837e-06
-0.000798835
-5.67597e-06
-0.000805842
-1.53321e-05
-0.000811565
-2.60383e-05
-0.000815947
-3.77889e-05
-0.00081893
-5.05761e-05
-0.000820461
-6.43981e-05
-0.000820489
-7.92653e-05
-0.000818976
-9.52131e-05
-0.000815909
-0.000112307
-0.000811316
-0.000130633
-0.000805275
-0.000150286
-0.000797931
-0.000171386
-0.000789556
-0.000194023
-0.000780507
-0.000218064
-0.000771077
-0.000243209
-0.000761734
-0.000269331
-0.000753245
-0.000295565
-0.00074491
-0.000318914
-0.000337097
-0.00073371
-0.000689889
5.20337e-05
-0.000706893
5.26051e-05
-0.000723717
5.23107e-05
-0.000740178
5.10931e-05
-0.000756115
4.88906e-05
-0.000771384
4.56642e-05
-0.000785854
4.13811e-05
-0.000799415
3.60105e-05
-0.00081197
2.95354e-05
-0.000823434
2.1944e-05
-0.000833733
1.3229e-05
-0.000842799
3.39073e-06
-0.000850563
-7.56558e-06
-0.000856973
-1.96269e-05
-0.000861974
-3.2786e-05
-0.000865515
-4.70344e-05
-0.000867545
-6.23661e-05
-0.000868024
-7.87851e-05
-0.000866922
-9.63129e-05
-0.000864238
-0.00011499
-0.000860006
-0.000134864
-0.0008543
-0.000155989
-0.000847263
-0.000178422
-0.000839123
-0.000202161
-0.000830146
-0.000227039
-0.000820564
-0.00025279
-0.00081073
-0.000279164
-0.000800996
-0.000305298
-0.000790633
-0.000329275
-0.000349968
-0.000777761
-0.000721207
7.13263e-05
-0.00074026
7.16572e-05
-0.000758909
7.09597e-05
-0.000777007
6.91913e-05
-0.000794426
6.63093e-05
-0.000811047
6.22861e-05
-0.000826765
5.70996e-05
-0.000841485
5.07321e-05
-0.000855123
4.31745e-05
-0.000867601
3.44224e-05
-0.000878846
2.44758e-05
-0.000888795
1.3341e-05
-0.000897384
1.02502e-06
-0.000904552
-1.24578e-05
-0.000910247
-2.70896e-05
-0.000914418
-4.2861e-05
-0.000917022
-5.97613e-05
-0.00091802
-7.77856e-05
-0.000917391
-9.694e-05
-0.000915139
-0.00011724
-0.000911298
-0.000138704
-0.00090594
-0.000161346
-0.00089919
-0.00018517
-0.000891234
-0.000210116
-0.000882267
-0.000236005
-0.000872467
-0.000262589
-0.00086207
-0.000289559
-0.000851183
-0.000316183
-0.000839192
-0.000341265
-0.000364226
-0.000824934
-0.000755163
9.2504e-05
-0.000775941
9.24347e-05
-0.000796183
9.12015e-05
-0.000815767
8.87743e-05
-0.00083458
8.5123e-05
-0.000852521
8.02275e-05
-0.000869494
7.40727e-05
-0.000885409
6.66489e-05
-0.000900186
5.79522e-05
-0.000913746
4.79836e-05
-0.000926017
3.67481e-05
-0.000936931
2.42562e-05
-0.000946426
1.05211e-05
-0.000954438
-4.44438e-06
-0.000960911
-2.0615e-05
-0.000965796
-3.79738e-05
-0.000969051
-5.65055e-05
-0.00097064
-7.61945e-05
-0.000970547
-9.70314e-05
-0.000968777
-0.00011901
-0.000965359
-0.00014212
-0.00096036
-0.000166344
-0.000953884
-0.000191644
-0.000946073
-0.000217925
-0.000937071
-0.000245006
-0.000927009
-0.00027265
-0.000916025
-0.000300542
-0.0009041
-0.000328106
-0.000890767
-0.000354597
-0.000379684
-0.000875307
-0.00079096
0.00011538
-0.000813347
0.000114821
-0.000835125
0.000112979
-0.000856183
0.000109832
-0.000876418
0.000105358
-0.000895731
9.9541e-05
-0.000914029
9.23716e-05
-0.000931224
8.38445e-05
-0.000947231
7.39601e-05
-0.00096197
6.27235e-05
-0.000975365
5.01441e-05
-0.000987343
3.62362e-05
-0.000997839
2.10177e-05
-0.00100679
4.50808e-06
-0.00101413
-1.32696e-05
-0.00101982
-3.22843e-05
-0.00102381
-5.25153e-05
-0.00102607
-7.39364e-05
-0.00102657
-9.65226e-05
-0.00102534
-0.000120247
-0.00102238
-0.000145077
-0.00101775
-0.000170969
-0.00101154
-0.000197852
-0.00100385
-0.000225611
-0.000994791
-0.000254067
-0.000984442
-0.000282997
-0.000972876
-0.000312107
-0.000960024
-0.000340957
-0.000945552
-0.000369068
-0.000396221
-0.000929013
-0.000828234
0.000139917
-0.000852237
0.000138824
-0.000875591
0.000136333
-0.000898189
0.00013243
-0.000919928
0.000127097
-0.00094071
0.000120323
-0.000960439
0.000112101
-0.000979022
0.000102428
-0.000996371
9.13101e-05
-0.0010124
7.87546e-05
-0.00102703
6.47756e-05
-0.00104019
4.93913e-05
-0.00105179
3.26247e-05
-0.00106178
1.45017e-05
-0.0010701
-4.95179e-06
-0.00107669
-2.56973e-05
-0.0010815
-4.77022e-05
-0.0010845
-7.09316e-05
-0.00108568
-9.5345e-05
-0.00108502
-0.000120898
-0.00108256
-0.000147539
-0.00107833
-0.0001752
-0.00107239
-0.000203791
-0.00106482
-0.000233182
-0.00105568
-0.000263201
-0.00104504
-0.000293637
-0.00103292
-0.000324227
-0.00101924
-0.000354636
-0.00100377
-0.000384538
-0.000413757
-0.000986229
-0.000866846
0.000166165
-0.000892539
0.000164516
-0.000917563
0.000161355
-0.000941808
0.000156674
-0.000965168
0.000150458
-0.000987541
0.000142697
-0.00100883
0.000133386
-0.00102893
0.000122528
-0.00104774
0.00011013
-0.00106519
9.62038e-05
-0.00108118
8.07676e-05
-0.00109563
6.38442e-05
-0.00110847
4.54613e-05
-0.00111962
2.5651e-05
-0.00112902
4.44769e-06
-0.0011366
-1.81094e-05
-0.00114233
-4.19711e-05
-0.00114617
-6.70946e-05
-0.00114809
-9.34255e-05
-0.00114808
-0.000120904
-0.00114616
-0.00014946
-0.00114235
-0.000179009
-0.00113669
-0.000209446
-0.00112924
-0.000240634
-0.00112003
-0.000272404
-0.00110911
-0.000304559
-0.00109646
-0.000336868
-0.00108203
-0.000369066
-0.00106566
-0.000400911
-0.000432241
-0.00104717
-0.000906765
0.000194224
-0.000934264
0.000192014
-0.000961082
0.000188174
-0.000987108
0.0001827
-0.00101223
0.000175578
-0.00103633
0.000166802
-0.00105932
0.00015637
-0.00108108
0.000144287
-0.00110151
0.000130562
-0.00112051
0.000115211
-0.001138
9.82581e-05
-0.00115389
7.97294e-05
-0.00116808
5.96582e-05
-0.00118051
3.80829e-05
-0.00119111
1.50463e-05
-0.00119981
-9.40801e-06
-0.00120656
-3.5219e-05
-0.00121132
-6.23329e-05
-0.00121406
-9.06837e-05
-0.00121477
-0.000120197
-0.00121344
-0.000150789
-0.00121008
-0.000182361
-0.00120474
-0.000214795
-0.00119742
-0.00024795
-0.00118816
-0.000281662
-0.00117697
-0.000315744
-0.00116384
-0.000349992
-0.00114872
-0.000384184
-0.00113151
-0.000418122
-0.000451646
-0.00111211
-0.000948011
0.000224228
-0.000977457
0.00022146
-0.00100622
0.000216937
-0.00103418
0.000210659
-0.00106122
0.000202615
-0.00108721
0.0001928
-0.00111206
0.000181214
-0.00113563
0.000167863
-0.00115783
0.000152763
-0.00117855
0.000135933
-0.00119769
0.0001174
-0.00121516
9.71953e-05
-0.00123086
7.53589e-05
-0.00124471
5.19351e-05
-0.00125664
2.69744e-05
-0.00126657
5.30271e-07
-0.00127446
-2.73334e-05
-0.00128024
-5.6545e-05
-0.0012839
-8.70306e-05
-0.00128539
-0.000118703
-0.00128471
-0.000151465
-0.00128186
-0.000185206
-0.00127686
-0.000219801
-0.0012697
-0.000255103
-0.00126041
-0.00029095
-0.00124899
-0.000327166
-0.00123541
-0.000363563
-0.00121965
-0.000399943
-0.00120164
-0.000436131
-0.000471961
-0.00118133
-0.000990629
0.000256334
-0.00102219
0.000253018
-0.00105306
0.000247814
-0.00108313
0.000240726
-0.00111226
0.000231744
-0.00114033
0.000220865
-0.0011672
0.000208092
-0.00119277
0.000193434
-0.00121692
0.000176909
-0.00123952
0.00015854
-0.00126048
0.00013836
-0.00127969
0.000116405
-0.00129705
9.27211e-05
-0.00131248
6.73588e-05
-0.00132588
4.03762e-05
-0.00133718
1.18376e-05
-0.00134632
-1.81899e-05
-0.00135325
-4.96189e-05
-0.00135791
-8.23673e-05
-0.00136028
-0.000116336
-0.00136032
-0.000151416
-0.00135804
-0.000187488
-0.00135342
-0.000224417
-0.00134647
-0.000262054
-0.00133718
-0.000300236
-0.00132555
-0.000338793
-0.00131156
-0.000377545
-0.0012952
-0.000416309
-0.00127641
-0.000454915
-0.000493189
-0.00125518
-0.00103468
0.000290717
-0.00106853
0.00028687
-0.00110171
0.000280993
-0.00113408
0.000273092
-0.00116549
0.00026316
-0.00119582
0.000251194
-0.00122493
0.000237201
-0.00125269
0.000221193
-0.00127897
0.000203191
-0.00130365
0.000183222
-0.00132661
0.000161324
-0.00134775
0.000137539
-0.00136694
0.000111919
-0.0013841
8.45204e-05
-0.00139914
5.541e-05
-0.00141196
2.46606e-05
-0.00142249
-7.6512e-06
-0.00143068
-4.14309e-05
-0.00143646
-7.65828e-05
-0.0014398
-0.000112999
-0.00144065
-0.000150561
-0.001439
-0.000189137
-0.00143483
-0.000228587
-0.00142813
-0.000268756
-0.00141888
-0.00030948
-0.00140708
-0.00035059
-0.00139272
-0.000391909
-0.00137577
-0.000433257
-0.00135621
-0.000474464
-0.000515348
-0.00133405
-0.00108023
0.000327573
-0.00111658
0.000323221
-0.00115227
0.000316683
-0.00118715
0.000307969
-0.00122107
0.000297076
-0.00125387
0.000284002
-0.00128543
0.000268757
-0.00131559
0.000251355
-0.00134422
0.000231821
-0.00137118
0.000210188
-0.00139635
0.000186496
-0.00141961
0.000160796
-0.00144083
0.000133143
-0.00145991
0.000103603
-0.00147675
7.22491e-05
-0.00149125
3.91635e-05
-0.00150334
4.43348e-06
-0.00151292
-3.18425e-05
-0.00151995
-6.95527e-05
-0.00152437
-0.000108582
-0.00152612
-0.000148802
-0.00152519
-0.000190071
-0.00152153
-0.000232241
-0.00151514
-0.000275151
-0.00150598
-0.000318634
-0.00149405
-0.000362518
-0.00147933
-0.000406623
-0.00146182
-0.000450769
-0.0014415
-0.000494779
-0.000538461
-0.00141839
-0.00112736
0.00036712
-0.00116643
0.000362293
-0.00120486
0.000355113
-0.00124248
0.000345591
-0.00127914
0.000333729
-0.00131466
0.000319527
-0.0013489
0.000302997
-0.0013817
0.000284156
-0.00141291
0.000263034
-0.00144239
0.000239667
-0.00147
0.000214102
-0.00149559
0.000186393
-0.00151905
0.000156604
-0.00154026
0.000124808
-0.00155909
9.10855e-05
-0.00157546
5.55265e-05
-0.00158925
1.82306e-05
-0.00160039
-2.06993e-05
-0.00160881
-6.11373e-05
-0.00161443
-0.000102961
-0.0016172
-0.00014603
-0.00161707
-0.000190195
-0.00161402
-0.000235299
-0.00160799
-0.000281173
-0.00159898
-0.000327644
-0.00158696
-0.000374535
-0.00157192
-0.000421661
-0.00155385
-0.000468833
-0.00153276
-0.000515868
-0.000562561
-0.00150866
-0.00117613
0.000409594
-0.00121817
0.000404334
-0.0012596
0.000396536
-0.00130022
0.000386217
-0.00133987
0.000373381
-0.00137838
0.000358032
-0.00141556
0.000340183
-0.00145127
0.000319857
-0.00148532
0.000297087
-0.00151757
0.000271913
-0.00154785
0.000244388
-0.00157603
0.000214572
-0.00160196
0.000182536
-0.00162552
0.00014836
-0.00164656
0.000112131
-0.00166499
7.39512e-05
-0.00168068
3.39265e-05
-0.00169355
-7.82773e-06
-0.00170351
-5.11801e-05
-0.00171048
-9.59935e-05
-0.00171439
-0.00014212
-0.00171518
-0.000189401
-0.00171281
-0.000237668
-0.00170724
-0.000286744
-0.00169843
-0.000336448
-0.00168637
-0.000386596
-0.00167104
-0.000436993
-0.00165243
-0.000487441
-0.00163055
-0.000537744
-0.000587688
-0.00160542
-0.00122662
0.000455261
-0.00127191
0.000449616
-0.0013166
0.000441233
-0.00136052
0.000430132
-0.00140346
0.000416321
-0.00144523
0.000399807
-0.00148566
0.000380608
-0.00152455
0.000358748
-0.00156173
0.000334267
-0.00159702
0.000307208
-0.00163026
0.000277631
-0.00166129
0.000245602
-0.00168995
0.000211197
-0.0017161
0.000174505
-0.00173959
0.000135624
-0.0017603
9.46596e-05
-0.0017781
5.17313e-05
-0.00179289
6.96485e-06
-0.00180457
-3.95031e-05
-0.00181304
-8.75197e-05
-0.00181823
-0.00013693
-0.00182007
-0.000187563
-0.0018185
-0.00023924
-0.00181346
-0.000291775
-0.00180493
-0.000344977
-0.00179288
-0.00039865
-0.00177728
-0.000452589
-0.00175814
-0.000506583
-0.00173546
-0.000560424
-0.000613886
-0.00170926
-0.00127891
0.000504414
-0.00132773
0.000498441
-0.00137601
0.000489511
-0.00142353
0.00047765
-0.00147007
0.000462867
-0.00151544
0.000445173
-0.00155942
0.000424589
-0.00160182
0.000401147
-0.00164244
0.000374887
-0.00168109
0.000345862
-0.00171759
0.000314133
-0.00175176
0.000279775
-0.00178344
0.000242872
-0.00181245
0.000203519
-0.00183865
0.000161823
-0.00186189
0.000117899
-0.00188203
7.18767e-05
-0.00189896
2.38926e-05
-0.00191255
-2.59082e-05
-0.00192271
-7.736e-05
-0.00192934
-0.000130298
-0.00193236
-0.000184539
-0.00193171
-0.000239895
-0.00192731
-0.000296166
-0.00191914
-0.00035315
-0.00190715
-0.000410639
-0.00189132
-0.000468415
-0.00187166
-0.000526251
-0.00184815
-0.000583926
-0.000641202
-0.00182084
-0.00133305
0.000557375
-0.00138575
0.000551141
-0.00143795
0.000541712
-0.00148942
0.000529117
-0.00153992
0.000513368
-0.00158923
0.000494481
-0.00163712
0.000472481
-0.00168337
0.000447404
-0.00172778
0.000419296
-0.00177013
0.000388215
-0.00181022
0.000354228
-0.00184787
0.000317418
-0.00188287
0.000277875
-0.00191505
0.000235703
-0.00194424
0.000191017
-0.00197029
0.000143944
-0.00199303
9.46201e-05
-0.00201233
4.31953e-05
-0.00202806
-1.01742e-05
-0.00204011
-6.53141e-05
-0.00204836
-0.000122044
-0.00205273
-0.000180172
-0.00205312
-0.000239495
-0.00204949
-0.000299802
-0.00204176
-0.000360877
-0.0020299
-0.000422498
-0.00201388
-0.000484431
-0.0019937
-0.000546434
-0.00196936
-0.000608269
-0.000669686
-0.00194087
-0.00138911
0.000614501
-0.00144606
0.000608084
-0.00150255
0.00059821
-0.00155835
0.000584914
-0.00161319
0.000568211
-0.00166683
0.000548119
-0.00171902
0.00052467
-0.00176952
0.000497904
-0.0018181
0.000467874
-0.00186452
0.000434642
-0.00190858
0.000398285
-0.00195005
0.000358888
-0.00198872
0.000316553
-0.00202441
0.000271391
-0.00205692
0.000223527
-0.00208607
0.000173096
-0.0021117
0.000120247
-0.00213364
6.51401e-05
-0.00215176
7.94521e-06
-0.00216591
-5.11562e-05
-0.00217599
-0.000111965
-0.00218188
-0.000174281
-0.00218349
-0.000237885
-0.00218073
-0.000302553
-0.00217355
-0.000368054
-0.0021619
-0.00043415
-0.00214574
-0.00050059
-0.00212506
-0.000567114
-0.00209986
-0.000633467
-0.000699387
-0.00207016
-0.00144715
0.000676189
-0.00150874
0.000669676
-0.00156995
0.000659421
-0.0016305
0.000645462
-0.0016901
0.00062782
-0.0017485
0.000606516
-0.00180541
0.000581585
-0.00186058
0.000553074
-0.00191375
0.000521042
-0.00196467
0.00048556
-0.00201309
0.000446708
-0.00205878
0.000404582
-0.00210152
0.00035929
-0.00214108
0.000310953
-0.00217725
0.000259705
-0.00220985
0.000205693
-0.00223868
0.000149075
-0.00226356
9.00242e-05
-0.00228433
2.87239e-05
-0.00230086
-3.46336e-05
-0.00231298
-9.98345e-05
-0.0023206
-0.000166664
-0.00232359
-0.00023489
-0.00232187
-0.000304272
-0.00231536
-0.000374563
-0.002304
-0.000445507
-0.00228775
-0.000516837
-0.0022666
-0.000588271
-0.00224053
-0.000659536
-0.000730356
-0.00220956
-0.00150719
0.000742874
-0.00157388
0.000736364
-0.00164026
0.000725799
-0.00170602
0.000711225
-0.00177086
0.000692665
-0.00183449
0.000670141
-0.0018966
0.000643695
-0.0019569
0.000613381
-0.00201513
0.000579265
-0.00207099
0.000541423
-0.00212422
0.000499945
-0.00217457
0.000454935
-0.00222179
0.000406508
-0.00226563
0.000354796
-0.00230587
0.000299943
-0.00234228
0.000242106
-0.00237466
0.000181456
-0.00240281
0.000118178
-0.00242656
5.24689e-05
-0.00244573
-1.54646e-05
-0.00246016
-8.53966e-05
-0.00246973
-0.000157095
-0.00247431
-0.000230312
-0.00247378
-0.000304792
-0.00246808
-0.000380269
-0.00245711
-0.000456469
-0.00244085
-0.000533104
-0.00241924
-0.000609873
-0.0023923
-0.000686482
-0.00076264
-0.00236001
-0.00156928
0.000815037
-0.00164156
0.000808643
-0.00171361
0.00079785
-0.0017851
0.000782713
-0.00185569
0.000763259
-0.00192506
0.000739512
-0.00199288
0.000711519
-0.00205884
0.00067934
-0.00212263
0.00064305
-0.00218394
0.000602734
-0.00224248
0.000558489
-0.00229797
0.000510427
-0.00235013
0.000458674
-0.00239871
0.000403371
-0.00244344
0.000344673
-0.00248408
0.000282748
-0.0025204
0.000217781
-0.00255219
0.000149968
-0.00257924
7.95218e-05
-0.00260137
6.66475e-06
-0.0026184
-6.83664e-05
-0.00263017
-0.000145317
-0.00263655
-0.000223928
-0.00263742
-0.000303922
-0.00263267
-0.000385016
-0.00262223
-0.000466916
-0.00260602
-0.000549312
-0.00258401
-0.000631881
-0.00255618
-0.000714306
-0.000796283
-0.00252254
-0.00163343
0.000893206
-0.00171184
0.000887054
-0.00179012
0.000876127
-0.00186789
0.000860487
-0.0019448
0.000840169
-0.00202048
0.000815198
-0.00209459
0.000785624
-0.00216677
0.000751517
-0.00223667
0.00071296
-0.00230398
0.000670045
-0.00236838
0.000622881
-0.00242954
0.000571588
-0.00248716
0.000516302
-0.00254096
0.000457174
-0.00259066
0.000394371
-0.00263599
0.000328074
-0.00267669
0.00025848
-0.00271252
0.000185801
-0.00274325
0.000110261
-0.00276869
3.21027e-05
-0.00278863
-4.84242e-05
-0.0028029
-0.000131046
-0.00281134
-0.000215485
-0.00281381
-0.000301447
-0.0028102
-0.000388628
-0.00280041
-0.000476711
-0.00278435
-0.000565364
-0.002762
-0.000654239
-0.0027333
-0.000742998
-0.00083132
-0.00269826
-0.00169964
0.000977963
-0.00178478
0.000972195
-0.00186989
0.000961239
-0.00195457
0.000945166
-0.00203842
0.000924018
-0.00212104
0.000897824
-0.00220205
0.000866637
-0.00228107
0.000830535
-0.00235772
0.000789609
-0.00243164
0.000743965
-0.00250247
0.000693718
-0.00256988
0.000639001
-0.00263354
0.000579958
-0.00269312
0.000516753
-0.00274831
0.000449565
-0.00279882
0.000378588
-0.00284437
0.000304033
-0.0028847
0.000226126
-0.00291954
0.000145108
-0.00294868
6.12387e-05
-0.00297188
-2.52145e-05
-0.00298897
-0.000113961
-0.00299975
-0.000204702
-0.00300407
-0.000297124
-0.0030018
-0.000390901
-0.00299281
-0.000485693
-0.00297703
-0.000581144
-0.00295439
-0.00067688
-0.00292485
-0.000772537
-0.000867782
-0.00288839
-0.00176789
0.00106995
-0.00186042
0.00106472
-0.00195304
0.00105386
-0.0020453
0.00103743
-0.00213677
0.00101549
-0.00222702
0.000988076
-0.00231562
0.000955243
-0.00240216
0.000917075
-0.00248623
0.000873675
-0.00256742
0.00082516
-0.00264536
0.000771656
-0.00271966
0.000713305
-0.00278996
0.000650265
-0.00285592
0.000582711
-0.00291719
0.000510835
-0.00297344
0.000434845
-0.00302438
0.000354967
-0.00306969
0.000271442
-0.00310911
0.00018453
-0.00314238
9.45061e-05
-0.00316925
1.65889e-06
-0.0031895
-9.37055e-05
-0.00320294
-0.000191262
-0.00320939
-0.000290678
-0.00320868
-0.000391605
-0.00320069
-0.000493678
-0.00318532
-0.000596516
-0.00316248
-0.000699717
-0.00313213
-0.00080289
-0.000905688
-0.00309422
-0.00183816
0.00116986
-0.00193879
0.00116536
-0.00203965
0.00115471
-0.00214023
0.00113802
-0.00224008
0.00111533
-0.00233871
0.00108671
-0.00243566
0.0010522
-0.00253047
0.00101189
-0.00262269
0.0009659
-0.00271189
0.000914362
-0.00279765
0.000857412
-0.00287955
0.000795204
-0.00295719
0.000727908
-0.00303019
0.000655712
-0.00309817
0.000578821
-0.00316078
0.000497458
-0.00321768
0.000411866
-0.00326854
0.000322302
-0.00331305
0.000229044
-0.00335093
0.000132385
-0.0033819
3.26358e-05
-0.00340573
-6.98781e-05
-0.00342218
-0.000174807
-0.00343106
-0.000281798
-0.00343219
-0.000390477
-0.00342541
-0.000500455
-0.0034106
-0.000611321
-0.00338768
-0.000722643
-0.00335656
-0.000834007
-0.000945047
-0.0033172
-0.00191038
0.00127847
-0.00201991
0.00127489
-0.00212981
0.00126461
-0.00223954
0.00124775
-0.00234858
0.00122438
-0.00245641
0.00119455
-0.00256254
0.00115832
-0.00266644
0.00111579
-0.00276764
0.0010671
-0.00286565
0.00101238
-0.00296001
0.000951779
-0.00305028
0.000885473
-0.00313601
0.000813641
-0.00321679
0.000736486
-0.00329219
0.000654227
-0.00336183
0.000567104
-0.00342534
0.000475375
-0.00348235
0.000379316
-0.00353253
0.000279222
-0.00357555
0.000175409
-0.00361112
6.82087e-05
-0.00363897
-4.20312e-05
-0.00365883
-0.000154939
-0.0036705
-0.000270135
-0.00367375
-0.00038722
-0.00366843
-0.000505778
-0.00365438
-0.000625369
-0.00363149
-0.00074553
-0.00359968
-0.000865818
-0.000985851
-0.00355887
-0.00198449
0.00139663
-0.00210378
0.00139418
-0.0022236
0.00138443
-0.00234337
0.00136752
-0.00246251
0.00134352
-0.00258045
0.00131249
-0.00269665
0.00127452
-0.00281055
0.00122969
-0.00292161
0.00117816
-0.00302931
0.00112008
-0.00313316
0.00105562
-0.00323264
0.000984959
-0.00332729
0.000908291
-0.00341664
0.000825837
-0.00350024
0.00073783
-0.00357766
0.000644528
-0.00364849
0.000546205
-0.00371233
0.000443158
-0.00376881
0.000335702
-0.00381757
0.000224173
-0.00385829
0.000108926
-0.00389065
-9.66613e-06
-0.00391438
-0.00013121
-0.00392922
-0.000255295
-0.00393494
-0.000381497
-0.00393134
-0.00050937
-0.00391827
-0.000638444
-0.00389558
-0.000768221
-0.00386316
-0.000898229
-0.00102807
-0.00382094
-0.00206038
0.00152525
-0.00219038
0.00152418
-0.0023211
0.00151515
-0.00245188
0.0014983
-0.0025821
0.00147374
-0.00271115
0.00144154
-0.00283841
0.00140178
-0.00296329
0.00135457
-0.00308519
0.00130007
-0.00320356
0.00123845
-0.00331783
0.00116989
-0.00342746
0.00109459
-0.00353194
0.00101277
-0.00363075
0.000924648
-0.0037234
0.000830485
-0.00380942
0.000730552
-0.00388836
0.000625144
-0.00395978
0.000514577
-0.00402326
0.000399188
-0.00407842
0.000279335
-0.00412489
0.000155397
-0.00416233
2.77733e-05
-0.00419042
-0.000103118
-0.00420888
-0.000236833
-0.00421745
-0.000372923
-0.00421591
-0.00051091
-0.00420406
-0.000650292
-0.00418174
-0.000790532
-0.00414884
-0.000931128
-0.00107168
-0.00410524
-0.00213795
0.00166535
-0.00227969
0.00166593
-0.00242236
0.00165782
-0.00256523
0.00164117
-0.00270761
0.00161613
-0.00284884
0.00158277
-0.00298825
0.00154119
-0.00312519
0.00149151
-0.00325901
0.00143389
-0.00338909
0.00136853
-0.00351483
0.00129563
-0.00363564
0.0012154
-0.00375094
0.00112807
-0.00386018
0.00103389
-0.00396283
0.000933133
-0.00405836
0.000826083
-0.00414627
0.00071306
-0.00422609
0.000594399
-0.00429736
0.00047046
-0.00435965
0.000341625
-0.00441255
0.000208299
-0.00445568
7.09096e-05
-0.0044887
-7.00973e-05
-0.00451128
-0.000214249
-0.00452314
-0.000361064
-0.00452402
-0.000510034
-0.00451369
-0.000660619
-0.00449197
-0.000812244
-0.00445872
-0.000964374
-0.0011166
-0.0044138
-0.00221705
0.00181804
-0.00237168
0.00182056
-0.00252745
0.00181359
-0.00268357
0.0017973
-0.0028393
0.00177186
-0.0029939
0.00173737
-0.00314664
0.00169393
-0.00329681
0.00164168
-0.00344372
0.0015808
-0.00358668
0.00151149
-0.00372503
0.00143399
-0.00385813
0.00134851
-0.00398536
0.0012553
-0.00410611
0.00115464
-0.00421978
0.00104681
-0.00432582
0.000932121
-0.00442367
0.00081091
-0.0045128
0.000683537
-0.00459272
0.000550383
-0.00466295
0.000411857
-0.00472304
0.000268391
-0.00477257
0.00012044
-0.00481115
-3.15185e-05
-0.00483841
-0.000186981
-0.00485404
-0.00034543
-0.00485775
-0.000506325
-0.00484928
-0.000669087
-0.00482842
-0.0008331
-0.004795
-0.000997795
-0.00116276
-0.00474884
-0.00229754
0.00198452
-0.00246628
0.00198931
-0.00263641
0.00198372
-0.00280707
0.00196796
-0.00297743
0.00194222
-0.00314669
0.00190663
-0.00331406
0.0018613
-0.00347876
0.00180639
-0.00364003
0.00174208
-0.00379714
0.0016686
-0.00394936
0.00158621
-0.00409599
0.00149514
-0.00423635
0.00139566
-0.00436977
0.00128807
-0.00449562
0.00117266
-0.00461326
0.00104977
-0.0047221
0.000919755
-0.00482157
0.000783002
-0.0049111
0.000639917
-0.00499017
0.000490934
-0.00505829
0.000336512
-0.00511499
0.000177139
-0.00515983
1.33252e-05
-0.00519241
-0.000154396
-0.00521238
-0.000325465
-0.00521939
-0.000499307
-0.00521317
-0.000675305
-0.00519348
-0.000852796
-0.00516009
-0.00103118
-0.00121005
-0.0051128
-0.00237924
0.00216611
-0.00256345
0.00217353
-0.00274932
0.00216959
-0.0029359
0.00215454
-0.0031223
0.00212862
-0.00330763
0.00209196
-0.00349104
0.00204471
-0.00367168
0.00198703
-0.00384872
0.00191912
-0.00402137
0.00184125
-0.00418882
0.00175367