/*--------------------------------*- C++ -*----------------------------------*\
  =========                 |
  \\      /  F ield         | OpenFOAM: The Open Source CFD Toolbox
   \\    /   O peration     | Website:  https://openfoam.org
    \\  /    A nd           | Version:  10
     \\/     M anipulation  |
\*---------------------------------------------------------------------------*/
FoamFile
{
    format      ascii;
    class       volScalarField;
    location    "176";
    object      alphat;
}
// * * * * * * * * * * * * * * * * * * * * * * * * * * * * * * * * * * * * * //

dimensions      [1 -1 -1 0 0 0 0];

internalField   nonuniform List<scalar> 
7100
(
0.000974358
0.000898459
0.000928813
0.000875368
0.000815434
0.000770039
0.000737713
0.000715873
0.000701078
0.000691269
0.000685048
0.000681119
0.000678708
0.000677437
0.000677139
0.000678103
0.000680976
0.000685306
0.000689873
0.000693664
0.000696184
0.000697613
0.000698371
0.000698671
0.00069855
0.000697989
0.000696979
0.000695518
0.000693608
0.000691247
0.000688437
0.000685176
0.000681453
0.000677238
0.000672484
0.000667065
0.000660908
0.000653425
0.000644841
0.000630225
0.00325978
0.0029483
0.00242774
0.00192717
0.001545
0.00127583
0.00109602
0.000974428
0.000881736
0.000808341
0.000749356
0.000698806
0.000654526
0.000615172
0.00058036
0.000553086
0.000539375
0.00053691
0.000539432
0.000544228
0.000550384
0.000556076
0.000561546
0.000566765
0.000571596
0.000575932
0.000579732
0.000583005
0.000585792
0.000588139
0.000590097
0.000591714
0.000593033
0.000594093
0.000594926
0.000595571
0.00059605
0.000596377
0.000597114
0.000595522
0.00548731
0.00522777
0.0046422
0.00392312
0.00329643
0.00281955
0.00248071
0.00223507
0.0020208
0.00184561
0.00170497
0.00157935
0.00146675
0.00136407
0.00127056
0.00119349
0.00114109
0.00110181
0.00106625
0.00103602
0.00101966
0.00101185
0.00100713
0.0010043
0.00100266
0.00100161
0.00100076
0.000999921
0.000998987
0.000997893
0.0009966
0.000995057
0.000993205
0.00099097
0.00098824
0.000984868
0.000980562
0.000975013
0.000967148
0.000957139
0.00744926
0.00719891
0.0065544
0.00576403
0.00498279
0.00429756
0.00374372
0.00331897
0.00300127
0.00276763
0.00259462
0.00242237
0.00226844
0.00212614
0.0019935
0.00186894
0.00175307
0.00164488
0.00154386
0.00146495
0.00142572
0.00140377
0.00138918
0.00138029
0.00137447
0.00137033
0.00136696
0.00136399
0.00136125
0.00135863
0.001356
0.00135325
0.00135025
0.00134688
0.00134297
0.00133834
0.0013327
0.00132579
0.00131688
0.00130653
0.00912535
0.00890053
0.0083595
0.00764377
0.00685527
0.00608065
0.00538208
0.00478249
0.00428653
0.00388986
0.00358237
0.00334584
0.00316462
0.00299136
0.0028273
0.00266855
0.00251604
0.00236881
0.00222609
0.00208946
0.00197607
0.00189277
0.00183992
0.00181112
0.00179268
0.00177813
0.00176603
0.00175593
0.00174754
0.00174045
0.00173423
0.00172848
0.00172288
0.00171715
0.00171106
0.00170438
0.00169687
0.00168833
0.00167838
0.00166778
0.0105207
0.0103454
0.00993229
0.00934855
0.00863798
0.00787575
0.00714388
0.00646387
0.00585317
0.00532244
0.00487009
0.00449582
0.00419607
0.00395844
0.00377016
0.0035817
0.00339907
0.00321916
0.00304154
0.0028664
0.00271367
0.00259403
0.00249896
0.00242253
0.00235974
0.00230711
0.00226425
0.00223198
0.00220846
0.00219081
0.00217665
0.00216447
0.00215335
0.00214267
0.00213207
0.00212131
0.00211021
0.00209864
0.00208645
0.00207456
0.0116583
0.0115328
0.0112332
0.0107811
0.0101914
0.00951646
0.0088103
0.00812111
0.00748534
0.00690707
0.00637213
0.00589336
0.00547658
0.00512427
0.0048358
0.00459988
0.00439507
0.00418734
0.00397903
0.00377042
0.00358526
0.00343759
0.00331707
0.00321672
0.00313152
0.00305791
0.00299271
0.00293594
0.00288609
0.00284195
0.00280248
0.00276691
0.00273458
0.00270449
0.00267677
0.00265139
0.00262839
0.00260762
0.00258864
0.00257222
0.0125724
0.0124866
0.0122768
0.0119431
0.0114991
0.0109615
0.010356
0.00971752
0.0090836
0.00848101
0.00792866
0.00741287
0.00693172
0.0064936
0.00610723
0.00577635
0.00549868
0.0052632
0.00502944
0.00479268
0.00457937
0.00440686
0.00426414
0.00414384
0.00404021
0.00394963
0.00386952
0.00379728
0.00373192
0.00367287
0.00361942
0.00357081
0.00352624
0.00348502
0.00344656
0.00341041
0.00337637
0.00334419
0.00331392
0.00328691
0.0133006
0.0132436
0.0130996
0.012863
0.0125452
0.0121401
0.0116607
0.0111289
0.0105749
0.0100045
0.00944701
0.00892056
0.0084354
0.00796479
0.00752312
0.00711963
0.00676106
0.00644927
0.00617654
0.00591916
0.00568275
0.00548817
0.00532433
0.0051847
0.00506157
0.00495257
0.00485641
0.00477036
0.00469397
0.00462589
0.00456461
0.00450895
0.00445792
0.0044107
0.00436667
0.00432533
0.00428649
0.00424989
0.00421561
0.00418511
0.013879
0.0138417
0.0137438
0.0135793
0.0133572
0.0130651
0.0127105
0.0122975
0.01184
0.0113548
0.0108611
0.01036
0.00987437
0.00941609
0.00897244
0.00854361
0.00813933
0.00776719
0.00743091
0.00712815
0.0068714
0.00665562
0.00646783
0.00630704
0.00616926
0.00605042
0.00594694
0.00585576
0.00577339
0.00569994
0.00563372
0.00557348
0.00551818
0.00546704
0.00541943
0.00537491
0.00533331
0.00529434
0.00525812
0.00522615
0.0143387
0.0143146
0.0142482
0.0141346
0.0139785
0.0137758
0.0135246
0.0132205
0.0128717
0.012486
0.0120712
0.0116421
0.011206
0.0107709
0.0103498
0.0099416
0.00953711
0.00914466
0.00877149
0.00842267
0.0081273
0.0078882
0.00768753
0.00751876
0.00737557
0.00725267
0.00714582
0.00705168
0.0069663
0.00688943
0.0068199
0.00675649
0.00669824
0.0066444
0.00659441
0.00654781
0.00650448
0.0064641
0.00642677
0.00639394
0.0147053
0.0146898
0.0146448
0.0145666
0.0144582
0.0143181
0.0141405
0.0139248
0.0136706
0.01338
0.0130584
0.0127122
0.0123485
0.011977
0.0115976
0.0112219
0.0108549
0.010483
0.0101127
0.00975062
0.00943636
0.00918501
0.00897855
0.00880686
0.00866195
0.00853775
0.0084297
0.00833441
0.00824902
0.00817015
0.00809864
0.00803337
0.00797341
0.00791808
0.00786683
0.00781921
0.00777507
0.00773408
0.00769631
0.00766309
0.0149991
0.0149893
0.0149587
0.0149047
0.0148294
0.0147327
0.0146089
0.0144583
0.0142782
0.0140676
0.0138276
0.0135623
0.0132779
0.0129758
0.0126654
0.0123422
0.0120163
0.0116941
0.0113609
0.0110218
0.0107186
0.0104745
0.0102745
0.0101081
0.0099674
0.00984645
0.00974093
0.0096476
0.00956391
0.00948696
0.00941608
0.0093513
0.00929179
0.00923693
0.00918619
0.00913913
0.00909558
0.00905521
0.00901806
0.00898541
0.0152358
0.0152297
0.0152088
0.0151713
0.0151188
0.0150517
0.0149654
0.0148602
0.014732
0.0145815
0.014408
0.0142141
0.0139989
0.0137687
0.0135218
0.0132648
0.0129967
0.0127218
0.0124458
0.0121554
0.0118883
0.0116701
0.0114899
0.0113388
0.0112099
0.0110983
0.0110005
0.0109128
0.0108339
0.0107624
0.0106953
0.0106339
0.0105776
0.0105258
0.0104779
0.0104336
0.0103928
0.0103549
0.0103201
0.0102893
0.0154274
0.0154239
0.0154096
0.0153833
0.0153465
0.0152995
0.0152389
0.0151643
0.0150748
0.0149688
0.0148452
0.0147039
0.0145458
0.0143734
0.0141873
0.0139892
0.0137813
0.0135631
0.013336
0.0131029
0.0128856
0.0127049
0.0125535
0.0124251
0.0123129
0.0122147
0.0121282
0.0120513
0.0119822
0.0119197
0.0118626
0.0118087
0.0117591
0.0117134
0.011671
0.0116318
0.0115956
0.0115619
0.011531
0.0115033
0.0155833
0.0155817
0.0155717
0.0155532
0.0155272
0.015494
0.0154512
0.0153985
0.0153355
0.0152601
0.015172
0.0150708
0.0149573
0.0148307
0.0146934
0.0145452
0.0143878
0.0142216
0.0140465
0.0138622
0.0136913
0.0135483
0.0134264
0.0133214
0.0132303
0.0131505
0.01308
0.0130172
0.0129608
0.0129096
0.0128628
0.0128194
0.0127785
0.0127407
0.0127056
0.0126728
0.0126424
0.012614
0.012588
0.0125646
0.0157108
0.0157107
0.0157034
0.0156903
0.0156719
0.0156482
0.0156177
0.0155801
0.0155355
0.015482
0.0154196
0.0153476
0.0152655
0.0151737
0.0150731
0.0149646
0.0148477
0.0147237
0.0145924
0.0144537
0.0143227
0.0142122
0.0141181
0.0140372
0.0139668
0.0139051
0.0138503
0.0138014
0.0137573
0.0137172
0.0136806
0.0136469
0.0136151
0.0135852
0.0135574
0.0135313
0.0135069
0.0134841
0.013463
0.0134442
0.0158155
0.0158158
0.0158109
0.0158017
0.0157886
0.0157715
0.0157495
0.0157225
0.0156906
0.0156524
0.015608
0.0155567
0.015498
0.0154318
0.0153584
0.0152788
0.0151935
0.0151019
0.0150049
0.0149022
0.0148054
0.0147231
0.0146529
0.0145924
0.0145397
0.0144928
0.014451
0.0144135
0.0143797
0.014349
0.0143208
0.014295
0.014271
0.0142482
0.0142268
0.0142068
0.014188
0.0141704
0.014154
0.0141393
0.0159018
0.0159023
0.0158991
0.0158927
0.0158836
0.015871
0.0158549
0.0158353
0.0158122
0.0157847
0.0157528
0.0157156
0.0156732
0.0156254
0.0155727
0.0155147
0.0154522
0.0153856
0.0153144
0.0152392
0.015168
0.0151081
0.0150568
0.0150117
0.0149722
0.0149373
0.0149063
0.0148785
0.0148534
0.0148305
0.0148095
0.0147901
0.0147722
0.0147555
0.0147394
0.0147243
0.0147101
0.0146968
0.0146843
0.0146731
0.0159732
0.0159739
0.0159719
0.0159675
0.0159609
0.0159515
0.0159397
0.0159256
0.0159086
0.0158885
0.0158654
0.0158385
0.015808
0.0157736
0.0157352
0.0156933
0.0156476
0.0155987
0.015547
0.015492
0.0154401
0.0153957
0.0153577
0.0153247
0.0152958
0.0152703
0.0152476
0.0152272
0.0152087
0.0151918
0.0151763
0.0151619
0.0151485
0.015136
0.0151242
0.015113
0.0151023
0.0150923
0.0150829
0.0150745
0.0160326
0.0160333
0.0160322
0.0160293
0.0160243
0.0160173
0.0160086
0.0159981
0.0159855
0.0159708
0.0159539
0.0159343
0.0159122
0.0158873
0.0158595
0.0158289
0.0157958
0.01576
0.0157221
0.0156822
0.0156443
0.0156121
0.0155843
0.0155602
0.0155391
0.0155202
0.0155033
0.0154881
0.0154743
0.0154616
0.0154502
0.0154395
0.0154295
0.0154201
0.0154114
0.015403
0.0153951
0.0153876
0.0153805
0.0153742
0.016082
0.0160828
0.0160823
0.0160801
0.0160764
0.0160713
0.0160649
0.016057
0.0160476
0.0160368
0.0160242
0.0160099
0.0159936
0.0159754
0.0159552
0.0159329
0.0159086
0.0158827
0.0158552
0.015826
0.0157984
0.0157746
0.0157542
0.0157363
0.0157207
0.0157068
0.0156944
0.0156832
0.015673
0.0156636
0.015655
0.015647
0.0156395
0.0156325
0.0156259
0.0156197
0.0156137
0.015608
0.0156027
0.0155979
0.0161232
0.016124
0.0161238
0.0161223
0.0161197
0.0161159
0.016111
0.0161049
0.016098
0.0160898
0.0160803
0.0160697
0.0160577
0.0160443
0.0160295
0.0160133
0.0159955
0.0159767
0.0159564
0.0159352
0.015915
0.0158977
0.0158826
0.0158695
0.015858
0.0158478
0.0158386
0.0158303
0.0158227
0.0158157
0.0158093
0.0158033
0.0157977
0.0157923
0.0157873
0.0157825
0.015778
0.0157737
0.0157696
0.015766
0.0161577
0.0161584
0.0161584
0.0161574
0.0161554
0.0161525
0.0161489
0.0161443
0.016139
0.0161327
0.0161257
0.0161177
0.0161088
0.0160989
0.0160879
0.016076
0.016063
0.016049
0.0160343
0.0160187
0.016004
0.0159912
0.0159802
0.0159706
0.0159619
0.0159542
0.0159473
0.015941
0.0159353
0.01593
0.0159252
0.0159206
0.0159163
0.0159122
0.0159084
0.0159048
0.0159013
0.015898
0.0158949
0.0158921
0.0161866
0.0161873
0.0161873
0.0161866
0.0161851
0.016183
0.0161801
0.0161766
0.0161726
0.0161679
0.0161625
0.0161565
0.0161498
0.0161424
0.0161344
0.0161255
0.0161159
0.0161056
0.0160948
0.0160834
0.0160727
0.0160633
0.016055
0.0160478
0.0160413
0.0160356
0.0160304
0.0160256
0.0160211
0.0160171
0.0160134
0.0160099
0.0160066
0.0160035
0.0160005
0.0159977
0.015995
0.0159924
0.01599
0.0159879
0.0162108
0.0162115
0.0162115
0.016211
0.0162099
0.0162082
0.0162061
0.0162034
0.0162002
0.0161967
0.0161926
0.016188
0.0161829
0.0161774
0.0161713
0.0161647
0.0161576
0.0161501
0.0161421
0.0161337
0.0161258
0.0161188
0.0161127
0.0161073
0.0161024
0.0160981
0.0160941
0.0160905
0.0160871
0.0160839
0.016081
0.0160782
0.0160757
0.0160733
0.016071
0.0160688
0.0160667
0.0160647
0.0160628
0.0160611
0.0162312
0.0162318
0.0162318
0.0162314
0.0162306
0.0162293
0.0162277
0.0162256
0.0162231
0.0162203
0.0162172
0.0162136
0.0162097
0.0162055
0.0162009
0.016196
0.0161906
0.016185
0.0161791
0.0161729
0.0161671
0.0161619
0.0161573
0.0161533
0.0161496
0.0161463
0.0161433
0.0161405
0.0161379
0.0161354
0.0161331
0.016131
0.016129
0.016127
0.0161252
0.0161235
0.0161218
0.0161203
0.0161188
0.0161174
0.0162483
0.0162488
0.0162489
0.0162486
0.0162479
0.0162468
0.0162455
0.0162439
0.016242
0.0162398
0.0162374
0.0162346
0.0162317
0.0162284
0.0162249
0.0162211
0.0162171
0.0162129
0.0162085
0.016204
0.0161996
0.0161958
0.0161923
0.0161892
0.0161864
0.0161839
0.0161816
0.0161794
0.0161774
0.0161754
0.0161736
0.0161719
0.0161703
0.0161688
0.0161674
0.016166
0.0161647
0.0161634
0.0161622
0.0161612
0.0162627
0.0162631
0.0162632
0.0162629
0.0162624
0.0162616
0.0162605
0.0162592
0.0162577
0.016256
0.0162541
0.0162519
0.0162496
0.0162471
0.0162444
0.0162415
0.0162385
0.0162353
0.016232
0.0162286
0.0162253
0.0162224
0.0162198
0.0162175
0.0162153
0.0162134
0.0162116
0.0162099
0.0162083
0.0162068
0.0162053
0.016204
0.0162027
0.0162015
0.0162003
0.0161992
0.0161982
0.0161972
0.0161962
0.0161954
0.0162748
0.0162752
0.0162752
0.016275
0.0162746
0.0162739
0.016273
0.016272
0.0162707
0.0162694
0.0162678
0.0162662
0.0162644
0.0162624
0.0162603
0.0162581
0.0162558
0.0162534
0.0162509
0.0162484
0.0162459
0.0162438
0.0162418
0.01624
0.0162383
0.0162368
0.0162354
0.016234
0.0162328
0.0162316
0.0162304
0.0162294
0.0162284
0.0162274
0.0162264
0.0162256
0.0162247
0.0162239
0.0162231
0.0162224
0.016285
0.0162853
0.0162854
0.0162852
0.0162848
0.0162843
0.0162835
0.0162827
0.0162817
0.0162806
0.0162793
0.016278
0.0162766
0.0162751
0.0162734
0.0162717
0.01627
0.0162681
0.0162662
0.0162643
0.0162625
0.0162608
0.0162593
0.0162579
0.0162566
0.0162555
0.0162543
0.0162533
0.0162523
0.0162513
0.0162504
0.0162495
0.0162487
0.0162479
0.0162471
0.0162464
0.0162457
0.0162451
0.0162445
0.0162439
0.0162936
0.0162938
0.0162939
0.0162937
0.0162934
0.016293
0.0162924
0.0162917
0.0162908
0.0162899
0.0162889
0.0162879
0.0162867
0.0162855
0.0162843
0.0162829
0.0162816
0.0162801
0.0162787
0.0162773
0.0162759
0.0162746
0.0162734
0.0162723
0.0162713
0.0162704
0.0162695
0.0162687
0.0162678
0.0162671
0.0162663
0.0162656
0.016265
0.0162643
0.0162637
0.0162631
0.0162626
0.016262
0.0162615
0.016261
0.0163008
0.016301
0.016301
0.0163009
0.0163007
0.0163003
0.0162998
0.0162992
0.0162985
0.0162978
0.016297
0.0162961
0.0162952
0.0162942
0.0162932
0.0162922
0.0162911
0.0162901
0.016289
0.0162878
0.0162868
0.0162858
0.0162849
0.016284
0.0162832
0.0162825
0.0162818
0.0162811
0.0162804
0.0162798
0.0162792
0.0162787
0.0162781
0.0162776
0.0162771
0.0162766
0.0162762
0.0162757
0.0162753
0.0162749
0.0163069
0.0163071
0.0163071
0.016307
0.0163068
0.0163064
0.016306
0.0163056
0.016305
0.0163044
0.0163038
0.0163031
0.0163023
0.0163016
0.0163007
0.0162999
0.0162991
0.0162982
0.0162974
0.0162965
0.0162957
0.016295
0.0162942
0.0162936
0.0162929
0.0162923
0.0162917
0.0162912
0.0162907
0.0162902
0.0162897
0.0162892
0.0162888
0.0162884
0.0162879
0.0162876
0.0162872
0.0162868
0.0162865
0.0162861
0.016312
0.0163121
0.0163122
0.0163121
0.0163119
0.0163116
0.0163113
0.0163109
0.0163105
0.01631
0.0163095
0.0163089
0.0163083
0.0163077
0.016307
0.0163064
0.0163057
0.0163051
0.0163044
0.0163037
0.0163031
0.0163025
0.0163019
0.0163014
0.0163009
0.0163004
0.0162999
0.0162995
0.0162991
0.0162986
0.0162983
0.0162979
0.0162975
0.0162972
0.0162968
0.0162965
0.0162962
0.0162959
0.0162956
0.0162953
0.0163163
0.0163164
0.0163164
0.0163164
0.0163162
0.016316
0.0163157
0.0163154
0.0163151
0.0163147
0.0163143
0.0163138
0.0163133
0.0163128
0.0163123
0.0163118
0.0163113
0.0163108
0.0163103
0.0163097
0.0163092
0.0163088
0.0163083
0.0163079
0.0163075
0.0163071
0.0163067
0.0163064
0.016306
0.0163057
0.0163053
0.016305
0.0163047
0.0163044
0.0163042
0.0163039
0.0163036
0.0163034
0.0163032
0.0163029
0.01632
0.01632
0.01632
0.01632
0.0163199
0.0163197
0.0163195
0.0163192
0.016319
0.0163186
0.0163183
0.016318
0.0163176
0.0163172
0.0163168
0.0163164
0.016316
0.0163156
0.0163152
0.0163148
0.0163144
0.016314
0.0163137
0.0163133
0.016313
0.0163127
0.0163124
0.0163121
0.0163118
0.0163115
0.0163113
0.016311
0.0163108
0.0163105
0.0163103
0.0163101
0.0163099
0.0163097
0.0163095
0.0163093
0.016323
0.0163231
0.0163231
0.016323
0.0163229
0.0163228
0.0163226
0.0163225
0.0163222
0.016322
0.0163218
0.0163215
0.0163212
0.0163209
0.0163206
0.0163203
0.01632
0.0163197
0.0163194
0.0163191
0.0163188
0.0163185
0.0163182
0.016318
0.0163177
0.0163175
0.0163172
0.016317
0.0163167
0.0163165
0.0163163
0.0163161
0.0163159
0.0163157
0.0163155
0.0163153
0.0163151
0.016315
0.0163148
0.0163147
0.0163256
0.0163256
0.0163256
0.0163256
0.0163255
0.0163254
0.0163253
0.0163252
0.0163251
0.0163249
0.0163247
0.0163245
0.0163243
0.0163241
0.0163239
0.0163237
0.0163235
0.0163233
0.0163231
0.0163228
0.0163226
0.0163224
0.0163222
0.016322
0.0163218
0.0163216
0.0163214
0.0163212
0.016321
0.0163208
0.0163207
0.0163205
0.0163203
0.0163202
0.01632
0.0163199
0.0163197
0.0163196
0.0163194
0.0163193
0.0163278
0.0163278
0.0163278
0.0163278
0.0163277
0.0163277
0.0163276
0.0163275
0.0163275
0.0163274
0.0163273
0.0163272
0.0163271
0.016327
0.0163268
0.0163267
0.0163266
0.0163265
0.0163263
0.0163262
0.0163261
0.0163259
0.0163258
0.0163256
0.0163255
0.0163254
0.0163252
0.0163251
0.016325
0.0163249
0.0163247
0.0163246
0.0163245
0.0163244
0.0163242
0.0163241
0.016324
0.0163239
0.0163238
0.0163237
0.000622778
0.000633626
0.000650065
0.00066185
0.000670886
0.000678611
0.000685472
0.000691693
0.000697575
0.000703407
0.000709462
0.000716044
0.000723578
0.00073292
0.000745713
0.000622659
0.000631979
0.000630248
0.000630716
0.00063029
0.000629321
0.000628291
0.000627511
0.000627103
0.000627229
0.000628072
0.000630032
0.00063314
0.000639986
0.000643461
0.000990199
0.00100992
0.00102174
0.00103152
0.00103885
0.00104455
0.00104932
0.00105361
0.00105775
0.00106207
0.0010669
0.00107263
0.00107967
0.00108872
0.00109834
0.00133826
0.0013601
0.00137524
0.00138774
0.00139796
0.00140651
0.00141403
0.00142098
0.00142767
0.00143441
0.00144149
0.00144919
0.00145778
0.00146758
0.0014772
0.00169862
0.00172148
0.00173852
0.00175243
0.00176424
0.00177432
0.00178328
0.00179153
0.00179939
0.00180714
0.00181502
0.00182321
0.00183189
0.00184111
0.00185001
0.00210473
0.00212802
0.00214581
0.00216008
0.00217213
0.00218225
0.00219103
0.00219894
0.00220634
0.00221351
0.00222064
0.0022279
0.00223535
0.00224303
0.00224973
0.00260232
0.00262509
0.00264202
0.00265512
0.00266579
0.00267465
0.00268225
0.00268917
0.00269578
0.00270238
0.00270915
0.00271623
0.00272368
0.00273142
0.00273835
0.00330968
0.003329
0.00334428
0.00335668
0.00336705
0.00337601
0.00338401
0.00339142
0.00339849
0.00340542
0.00341233
0.00341929
0.00342632
0.00343328
0.00343879
0.00420289
0.00421889
0.00423172
0.00424219
0.00425092
0.00425838
0.00426495
0.00427089
0.00427643
0.0042817
0.0042868
0.00429179
0.00429667
0.00430124
0.00430394
0.00523834
0.00525016
0.00525962
0.00526726
0.00527349
0.00527865
0.00528303
0.00528682
0.00529018
0.00529323
0.00529603
0.00529864
0.00530105
0.00530301
0.00530277
0.00639979
0.00640644
0.00641147
0.00641522
0.00641797
0.00641995
0.00642132
0.00642225
0.00642283
0.00642317
0.0064233
0.00642326
0.00642303
0.00642228
0.00641915
0.00766207
0.00766277
0.00766257
0.00766164
0.00766016
0.00765826
0.00765604
0.0076536
0.007651
0.00764829
0.00764551
0.00764268
0.00763973
0.00763628
0.00763036
0.00897786
0.00897267
0.00896719
0.00896152
0.00895574
0.0089499
0.00894407
0.00893828
0.00893255
0.00892692
0.0089214
0.00891598
0.00891056
0.00890469
0.00889639
0.010277
0.0102673
0.0102578
0.0102486
0.0102395
0.0102307
0.0102221
0.0102138
0.0102058
0.010198
0.0101905
0.0101832
0.010176
0.0101685
0.0101586
0.0114886
0.0114765
0.0114648
0.0114536
0.0114428
0.0114324
0.0114225
0.0114129
0.0114037
0.0113949
0.0113864
0.0113783
0.0113703
0.011362
0.0113517
0.0125499
0.0125376
0.0125257
0.0125144
0.0125036
0.0124932
0.0124833
0.0124739
0.0124648
0.0124562
0.0124479
0.01244
0.0124322
0.0124242
0.0124144
0.0134311
0.0134199
0.0134093
0.0133991
0.0133894
0.0133802
0.0133714
0.0133629
0.0133549
0.0133473
0.01334
0.0133329
0.0133261
0.013319
0.0133105
0.0141285
0.0141193
0.0141105
0.0141022
0.0140942
0.0140866
0.0140793
0.0140724
0.0140658
0.0140596
0.0140536
0.0140478
0.0140422
0.0140364
0.0140295
0.0146647
0.0146575
0.0146506
0.0146441
0.0146378
0.0146319
0.0146262
0.0146208
0.0146157
0.0146108
0.0146061
0.0146016
0.0145972
0.0145927
0.0145874
0.0150681
0.0150626
0.0150574
0.0150525
0.0150478
0.0150433
0.015039
0.015035
0.0150311
0.0150274
0.0150239
0.0150205
0.0150172
0.0150138
0.0150098
0.0153694
0.0153654
0.0153615
0.0153579
0.0153544
0.0153511
0.0153479
0.0153449
0.0153421
0.0153394
0.0153368
0.0153343
0.0153318
0.0153293
0.0153264
0.0155944
0.0155915
0.0155887
0.015586
0.0155835
0.0155811
0.0155788
0.0155766
0.0155745
0.0155725
0.0155706
0.0155688
0.015567
0.0155652
0.0155631
0.0157635
0.0157613
0.0157593
0.0157574
0.0157556
0.0157539
0.0157522
0.0157507
0.0157492
0.0157478
0.0157464
0.0157451
0.0157438
0.0157425
0.015741
0.0158903
0.0158887
0.0158873
0.0158859
0.0158846
0.0158834
0.0158822
0.0158811
0.01588
0.015879
0.015878
0.0158771
0.0158761
0.0158752
0.0158741
0.0159865
0.0159854
0.0159844
0.0159834
0.0159825
0.0159816
0.0159807
0.0159799
0.0159791
0.0159784
0.0159777
0.015977
0.0159764
0.0159757
0.0159749
0.0160601
0.0160593
0.0160586
0.0160579
0.0160572
0.0160566
0.016056
0.0160554
0.0160548
0.0160543
0.0160538
0.0160533
0.0160528
0.0160524
0.0160518
0.0161167
0.0161162
0.0161156
0.0161151
0.0161147
0.0161142
0.0161138
0.0161133
0.016113
0.0161126
0.0161122
0.0161119
0.0161115
0.0161112
0.0161108
0.0161607
0.0161603
0.0161599
0.0161595
0.0161592
0.0161589
0.0161585
0.0161583
0.016158
0.0161577
0.0161574
0.0161572
0.016157
0.0161567
0.0161564
0.016195
0.0161947
0.0161944
0.0161942
0.0161939
0.0161937
0.0161935
0.0161933
0.0161931
0.0161929
0.0161927
0.0161925
0.0161924
0.0161922
0.016192
0.0162222
0.016222
0.0162218
0.0162216
0.0162214
0.0162212
0.0162211
0.0162209
0.0162208
0.0162207
0.0162205
0.0162204
0.0162203
0.0162202
0.01622
0.0162437
0.0162435
0.0162434
0.0162433
0.0162432
0.016243
0.0162429
0.0162428
0.0162427
0.0162426
0.0162425
0.0162425
0.0162424
0.0162423
0.0162422
0.0162609
0.0162608
0.0162607
0.0162606
0.0162605
0.0162605
0.0162604
0.0162603
0.0162602
0.0162602
0.0162601
0.01626
0.01626
0.0162599
0.0162598
0.0162748
0.0162747
0.0162747
0.0162746
0.0162745
0.0162745
0.0162744
0.0162744
0.0162743
0.0162743
0.0162742
0.0162742
0.0162741
0.0162741
0.016274
0.0162861
0.016286
0.016286
0.0162859
0.0162859
0.0162858
0.0162858
0.0162858
0.0162857
0.0162857
0.0162857
0.0162856
0.0162856
0.0162856
0.0162855
0.0162953
0.0162953
0.0162952
0.0162952
0.0162952
0.0162951
0.0162951
0.0162951
0.0162951
0.016295
0.016295
0.016295
0.016295
0.0162949
0.0162949
0.0163029
0.0163029
0.0163028
0.0163028
0.0163028
0.0163028
0.0163028
0.0163027
0.0163027
0.0163027
0.0163027
0.0163027
0.0163027
0.0163026
0.0163026
0.0163093
0.0163092
0.0163092
0.0163092
0.0163092
0.0163092
0.0163092
0.0163091
0.0163091
0.0163091
0.0163091
0.0163091
0.0163091
0.0163091
0.0163091
0.0163146
0.0163146
0.0163146
0.0163146
0.0163146
0.0163146
0.0163146
0.0163146
0.0163146
0.0163145
0.0163145
0.0163145
0.0163145
0.0163145
0.0163145
0.0163193
0.0163193
0.0163193
0.0163193
0.0163193
0.0163193
0.0163193
0.0163192
0.0163192
0.0163192
0.0163192
0.0163192
0.0163192
0.0163192
0.0163192
0.0163237
0.0163237
0.0163237
0.0163237
0.0163237
0.0163236
0.0163236
0.0163236
0.0163236
0.0163236
0.0163236
0.0163236
0.0163236
0.0163236
0.0163236
0.000736347
0.000739089
0.000744803
0.000752326
0.000760198
0.000767979
0.000775451
0.000782627
0.00079041
0.000800425
0.000814188
0.000832936
0.000858155
0.000892067
0.000937006
0.000991618
0.0010475
0.00108833
0.00109547
0.00105986
0.000992069
0.000929017
0.000890671
0.0008804
0.000889761
0.000894895
0.000889131
0.000891213
0.000891965
0.00088759
0.000887581
0.000891859
0.000891036
0.000889145
0.000894838
0.000889461
0.000880138
0.000890928
0.000929835
0.00099318
0.00106072
0.00109548
0.00108751
0.00104618
0.000990187
0.000935715
0.000891037
0.000857359
0.000832323
0.000813723
0.00080008
0.000790156
0.000782421
0.00077526
0.000767793
0.000760019
0.000752154
0.000744627
0.000738897
0.000736138
0.000646117
0.000647298
0.000650922
0.000656415
0.000663414
0.000671607
0.000680715
0.000690718
0.000701654
0.000713668
0.000727069
0.000742362
0.000760303
0.000781982
0.000808754
0.000841713
0.000880896
0.000925103
0.000973523
0.00102872
0.00109852
0.0011923
0.00130902
0.00143015
0.0015273
0.00159169
0.00162493
0.00162856
0.00160198
0.00154915
0.00154928
0.00160215
0.00162829
0.00162417
0.00159041
0.00152544
0.00142779
0.00130644
0.00119003
0.00109676
0.00102735
0.000972342
0.000924018
0.000879904
0.000840845
0.000808027
0.000781385
0.000759808
0.000741941
0.000726703
0.000713341
0.000701356
0.000690445
0.000680462
0.000671375
0.000663205
0.000656229
0.000650761
0.000647165
0.000646002
0.00110178
0.00110018
0.00109482
0.00108611
0.0010745
0.00106043
0.00104432
0.00102664
0.00100803
0.000989186
0.000970839
0.00095374
0.000938704
0.000926667
0.000918735
0.000916157
0.000920176
0.000931893
0.000952512
0.000984351
0.00103215
0.00110355
0.00120674
0.00134412
0.00150507
0.00166558
0.00179466
0.00187253
0.00190076
0.00189574
0.00189605
0.00190045
0.00187126
0.0017923
0.00166236
0.0015016
0.00134095
0.00120419
0.00110166
0.00103078
0.000983342
0.000951741
0.000931294
0.000919721
0.000915822
0.000918497
0.000926499
0.000938582
0.000953643
0.000970748
0.000989085
0.0010079
0.00102647
0.00104411
0.00106016
0.00107415
0.00108569
0.00109432
0.00109959
0.00110108
0.00148088
0.00147962
0.00147454
0.00146572
0.00145322
0.00143711
0.00141747
0.00139428
0.00136781
0.00133846
0.00130672
0.00127319
0.0012386
0.00120384
0.00117001
0.0011384
0.00111052
0.00108809
0.00107313
0.00106826
0.00107747
0.00110704
0.00116592
0.00126388
0.00140522
0.00157889
0.00175378
0.00189141
0.00196621
0.00198301
0.00198297
0.00196512
0.00188898
0.00175035
0.00157515
0.00140187
0.00126131
0.00116416
0.0011059
0.00107678
0.00106786
0.00107293
0.00108804
0.00111057
0.00113852
0.00117017
0.00120402
0.00123877
0.00127334
0.00130684
0.00133854
0.00136784
0.00139424
0.00141737
0.00143694
0.00145298
0.00146539
0.00147413
0.00147913
0.00148033
0.0018537
0.00185195
0.00184617
0.0018365
0.00182302
0.00180574
0.00178463
0.00175959
0.00173056
0.00169758
0.00166078
0.00162036
0.0015767
0.00153028
0.00148179
0.00143216
0.00138261
0.00133473
0.00129053
0.00125267
0.00122487
0.00121271
0.00122473
0.00127294
0.00137016
0.00152008
0.00170224
0.00186983
0.00197582
0.00200801
0.00200782
0.00197425
0.00186683
0.00169851
0.0015166
0.00136755
0.00127131
0.00122388
0.0012124
0.00122491
0.00125294
0.00129097
0.00133528
0.00138324
0.00143283
0.00148249
0.001531
0.00157743
0.00162109
0.0016615
0.00169829
0.00173125
0.00176026
0.00178527
0.00180634
0.00182358
0.00183701
0.00184662
0.00185233
0.00185399
0.00225289
0.00224977
0.00224211
0.00223026
0.00221433
0.00219435
0.00217028
0.00214205
0.00210947
0.00207252
0.00203118
0.00198546
0.00193542
0.00188123
0.00182318
0.00176175
0.00169767
0.00163199
0.00156624
0.00150256
0.00144414
0.00139578
0.00136514
0.00136433
0.00141026
0.00151839
0.00168402
0.00186324
0.00199001
0.00203126
0.00203102
0.00198816
0.00185999
0.00168046
0.0015156
0.00140863
0.0013637
0.00136522
0.00139631
0.00144495
0.00150358
0.00156739
0.00163326
0.00169902
0.00176317
0.00182465
0.00188275
0.00193698
0.00198706
0.00203282
0.00207419
0.00211116
0.00214375
0.00217199
0.00219604
0.002216
0.00223189
0.00224369
0.00225127
0.00225436
0.0027421
0.00273674
0.00272555
0.00270859
0.0026863
0.00265921
0.00262778
0.00259208
0.00255167
0.00250646
0.00245638
0.0024014
0.00234151
0.00227675
0.00220721
0.00213312
0.00205481
0.00197286
0.00188821
0.00180235
0.00171761
0.0016378
0.00156931
0.0015231
0.00151707
0.00157423
0.00170582
0.00187994
0.0020184
0.00206432
0.00206408
0.00201643
0.00187673
0.00170278
0.00157238
0.00151652
0.00152348
0.00157029
0.00163915
0.0017192
0.00180411
0.0018901
0.00197485
0.00205687
0.00213524
0.00220939
0.00227895
0.00234374
0.00240364
0.00245862
0.00250867
0.00255384
0.0025942
0.00262981
0.00266113
0.00268808
0.00271025
0.00272712
0.00273832
0.00274362
0.00344242
0.00343426
0.0034174
0.00339197
0.00335836
0.00331696
0.00326821
0.00321269
0.00315095
0.00308409
0.00301291
0.00293714
0.00285648
0.00277085
0.00268026
0.00258482
0.00248473
0.0023803
0.00227204
0.00216083
0.0020482
0.00193687
0.00183174
0.00174197
0.00168438
0.00168546
0.0017699
0.00192304
0.00206322
0.00210935
0.00210918
0.00206124
0.00192011
0.00176766
0.00168469
0.00168489
0.00174332
0.00183358
0.00193901
0.00205053
0.00216328
0.00227457
0.00238289
0.00248736
0.00258745
0.00268288
0.00277343
0.00285901
0.00293958
0.00301523
0.00308624
0.00315287
0.00321444
0.00326982
0.00331842
0.00335969
0.00339317
0.00341846
0.00343525
0.00344329
0.00430625
0.00429443
0.00427156
0.00423786
0.00419348
0.00413884
0.00407431
0.00400034
0.00391728
0.00382577
0.00372657
0.0036206
0.00350964
0.00339438
0.0032741
0.00314852
0.00301775
0.00288205
0.00274185
0.00259779
0.00245091
0.00230311
0.00215799
0.0020228
0.00191218
0.00185304
0.00187963
0.0019964
0.00212683
0.0021677
0.00216763
0.00212499
0.00199399
0.00187837
0.00185339
0.00191372
0.00202504
0.00216062
0.00230596
0.00245388
0.00260083
0.00274492
0.00288511
0.00302078
0.00315149
0.00327699
0.00339715
0.00351222
0.00362292
0.00372868
0.00382773
0.00391908
0.004002
0.00407583
0.00414023
0.00419474
0.00423898
0.00427264
0.00429543
0.00430712
0.00530311
0.00528717
0.00525816
0.0052163
0.0051618
0.00509478
0.00501563
0.00492473
0.00482226
0.00470864
0.0045844
0.00445018
0.00430687
0.00415569
0.0039989
0.00383719
0.0036695
0.00349569
0.0033161
0.00313137
0.00294243
0.0027508
0.00255924
0.00237343
0.00220564
0.00208124
0.00204019
0.00210536
0.00221289
0.00224131
0.0022414
0.00221133
0.00210366
0.00204001
0.0020827
0.00220816
0.0023765
0.00256259
0.00275428
0.00294597
0.0031349
0.00331959
0.00349911
0.00367283
0.00384038
0.00400189
0.00415836
0.0043093
0.00445242
0.00458648
0.00471057
0.00482404
0.00492637
0.00501713
0.00509613
0.00516302
0.0052175
0.00525932
0.00528823
0.00530402
0.00641683
0.00639626
0.0063608
0.00631066
0.00624604
0.006167
0.00607388
0.00596694
0.00584626
0.00571209
0.00556476
0.00540465
0.00523228
0.00504836
0.004854
0.00465091
0.00444202