/*--------------------------------*- C++ -*----------------------------------*\
  =========                 |
  \\      /  F ield         | OpenFOAM: The Open Source CFD Toolbox
   \\    /   O peration     | Website:  https://openfoam.org
    \\  /    A nd           | Version:  10
     \\/     M anipulation  |
\*---------------------------------------------------------------------------*/
FoamFile
{
    format      ascii;
    class       volScalarField;
    location    "176";
    object      nut;
}
// * * * * * * * * * * * * * * * * * * * * * * * * * * * * * * * * * * * * * //

dimensions      [0 2 -1 0 0 0 0];

internalField   nonuniform List<scalar> 
7100
(
0.000832055
0.000767973
0.000795118
0.00075034
0.000699535
0.000660882
0.000633283
0.000614604
0.000601934
0.000593526
0.000588189
0.000584813
0.000582739
0.00058164
0.000581376
0.000582193
0.000584648
0.000588348
0.000592243
0.000595456
0.000597561
0.000598717
0.000599298
0.000599491
0.000599327
0.000598792
0.000597876
0.000596578
0.000594898
0.000592835
0.000590388
0.000587557
0.000584332
0.000580684
0.000576576
0.000571897
0.000566583
0.000560131
0.000552724
0.000540152
0.0027847
0.00252005
0.00207711
0.00165056
0.00132439
0.00109434
0.000940473
0.000836343
0.000756895
0.000693949
0.00064334
0.000599955
0.000561942
0.000528153
0.000498261
0.00047484
0.000463059
0.000460932
0.000463077
0.000467165
0.000472405
0.000477237
0.000481877
0.000486305
0.000490402
0.000494078
0.000497297
0.000500068
0.000502423
0.000504404
0.000506053
0.00050741
0.000508512
0.000509394
0.00051008
0.000510604
0.000510984
0.000511232
0.000511824
0.000510427
0.00468951
0.00446923
0.00397124
0.00335907
0.00282493
0.00241789
0.00212827
0.00191806
0.00173447
0.00158427
0.00146362
0.00135583
0.00125918
0.00117104
0.00109076
0.00102458
0.000979588
0.000945842
0.000915284
0.000889279
0.000875158
0.000868357
0.000864214
0.000861697
0.00086021
0.000859232
0.000858438
0.000857655
0.000856796
0.000855804
0.000854644
0.000853272
0.000851638
0.000849676
0.00084729
0.000844353
0.000840613
0.000835809
0.000829012
0.000820397
0.00636864
0.00615586
0.00560704
0.00493411
0.0042686
0.00368413
0.003211
0.00284767
0.00257564
0.00237545
0.00222714
0.00207938
0.00194729
0.00182516
0.00171129
0.00160435
0.00150487
0.00141196
0.0013252
0.00125739
0.00122361
0.00120465
0.00119201
0.00118425
0.00117916
0.00117551
0.00117252
0.00116989
0.00116747
0.00116514
0.00116282
0.0011604
0.00115777
0.00115481
0.0011514
0.00114737
0.00114248
0.00113651
0.00112881
0.0011199
0.00780429
0.007613
0.007152
0.00654251
0.00587114
0.00521106
0.00461495
0.00410251
0.00367806
0.00333827
0.00307471
0.00287188
0.00271642
0.00256775
0.00242693
0.00229065
0.00215972
0.0020333
0.00191072
0.00179335
0.00169587
0.00162422
0.0015787
0.00155384
0.00153788
0.00152527
0.00151478
0.001506
0.00149871
0.00149254
0.00148712
0.00148211
0.00147723
0.00147225
0.00146696
0.00146116
0.00145466
0.00144728
0.0014387
0.00142958
0.00900039
0.00885127
0.00849904
0.00800173
0.00739672
0.00674764
0.0061239
0.00554348
0.00502139
0.00456708
0.00417951
0.00385864
0.00360155
0.00339769
0.00323612
0.00307436
0.00291757
0.00276309
0.00261055
0.00246008
0.0023288
0.0022259
0.0021441
0.00207832
0.00202427
0.00197896
0.00194204
0.00191423
0.00189395
0.0018787
0.00186645
0.00185591
0.00184628
0.00183704
0.00182787
0.00181857
0.00180899
0.00179901
0.00178851
0.00177829
0.00997643
0.0098696
0.00961412
0.00922874
0.0087264
0.00815181
0.00755046
0.00696296
0.00642023
0.00592584
0.00546789
0.00505764
0.00470029
0.00439811
0.0041506
0.00394813
0.00377233
0.00359396
0.00341506
0.00323584
0.00307668
0.00294966
0.00284596
0.00275959
0.00268626
0.0026229
0.00256678
0.00251792
0.00247501
0.00243701
0.00240304
0.00237242
0.00234458
0.00231869
0.00229483
0.00227299
0.0022532
0.00223533
0.00221901
0.00220491
0.0107613
0.0106884
0.0105093
0.0102247
0.00984638
0.0093887
0.0088734
0.00832972
0.00778929
0.00727479
0.00680252
0.00636095
0.00594866
0.005573
0.00524158
0.00495768
0.00471936
0.00451719
0.00431644
0.00411302
0.00392965
0.00378125
0.00365843
0.00355488
0.00346567
0.0033877
0.00331874
0.00325656
0.00320031
0.0031495
0.0031035
0.00306166
0.00302332
0.00298786
0.00295478
0.00292369
0.00289443
0.00286678
0.00284079
0.0028176
0.0113871
0.0113387
0.0112159
0.011014
0.0107431
0.0103981
0.00999012
0.00953771
0.00906615
0.00857981
0.00810381
0.00765365
0.00723831
0.00683505
0.00645635
0.00611023
0.00580254
0.00553491
0.00530071
0.00507958
0.00487633
0.00470893
0.00456791
0.00444771
0.00434171
0.00424787
0.0041651
0.00409103
0.00402527
0.00396667
0.00391393
0.00386603
0.00382211
0.00378149
0.00374362
0.00370807
0.0036747
0.00364325
0.00361382
0.00358764
0.0118846
0.0118531
0.0117695
0.0116292
0.0114397
0.0111909
0.0108891
0.0105379
0.0101489
0.00973588
0.00931511
0.00888726
0.00847202
0.0080797
0.00769955
0.00733185
0.00698504
0.00666567
0.00637695
0.00611686
0.00589613
0.00571047
0.00554884
0.00541041
0.00529178
0.00518944
0.00510033
0.00502182
0.00495089
0.00488764
0.00483064
0.00477878
0.00473118
0.00468717
0.00464623
0.00460795
0.00457219
0.00453872
0.00450761
0.00448017
0.0122804
0.0122601
0.0122035
0.0121065
0.0119734
0.0118006
0.0115868
0.0113283
0.0110318
0.010704
0.0103511
0.00998546
0.00961317
0.00924119
0.00888068
0.00853092
0.00818407
0.00784736
0.00752704
0.00722744
0.00697354
0.00676783
0.00659509
0.00644975
0.00632642
0.00622054
0.00612849
0.00604738
0.00597382
0.00590762
0.00584773
0.00579314
0.00574299
0.00569666
0.00565365
0.00561358
0.00557634
0.00554164
0.00550958
0.0054814
0.0125964
0.0125834
0.012545
0.0124782
0.0123858
0.0122663
0.0121152
0.0119317
0.0117158
0.011469
0.0111959
0.0109015
0.0105917
0.0102746
0.00995026
0.00962868
0.00931421
0.00899528
0.0086775
0.00836657
0.00809646
0.00788021
0.00770245
0.00755456
0.0074297
0.00732266
0.00722952
0.00714739
0.00707379
0.00700583
0.00694423
0.00688801
0.00683638
0.00678876
0.00674466
0.00670371
0.00666576
0.00663053
0.00659809
0.00656955
0.0128498
0.0128416
0.0128155
0.0127695
0.0127053
0.0126228
0.0125174
0.0123892
0.0122363
0.0120576
0.011854
0.0116288
0.0113872
0.0111299
0.0108651
0.0105888
0.0103099
0.0100338
0.00974802
0.00945688
0.00919622
0.00898616
0.00881394
0.00867059
0.00854929
0.008445
0.008354
0.00827352
0.00820134
0.00813501
0.00807392
0.00801811
0.00796686
0.00791963
0.00787595
0.00783547
0.00779802
0.00776331
0.00773139
0.00770333
0.013054
0.0130491
0.0130313
0.0129994
0.0129546
0.0128974
0.0128238
0.0127343
0.0126254
0.0124977
0.0123507
0.0121864
0.0120039
0.0118084
0.0115983
0.0113791
0.0111501
0.0109147
0.0106781
0.0104289
0.0101993
0.0100115
0.00985629
0.00972602
0.00961485
0.00951859
0.00943413
0.00935845
0.00929042
0.0092287
0.00917083
0.00911796
0.00906945
0.0090248
0.00898358
0.00894543
0.00891035
0.0088778
0.00884782
0.00882131
0.0132196
0.0132168
0.0132046
0.0131823
0.0131509
0.0131108
0.0130593
0.0129958
0.0129197
0.0128298
0.0127251
0.0126054
0.0124716
0.0123256
0.0121676
0.0119992
0.0118219
0.0116355
0.011441
0.0112411
0.0110544
0.0108988
0.0107684
0.0106575
0.0105607
0.0104759
0.0104012
0.0103348
0.0102751
0.0102212
0.0101719
0.0101253
0.0100826
0.0100432
0.0100067
0.00997291
0.00994176
0.0099128
0.00988617
0.00986236
0.0133544
0.0133532
0.0133447
0.013329
0.0133069
0.0132786
0.0132421
0.0131973
0.0131438
0.0130797
0.0130051
0.0129194
0.0128235
0.0127165
0.0126003
0.0124746
0.0123408
0.0121992
0.0120495
0.0118916
0.0117449
0.0116218
0.0115166
0.011426
0.0113472
0.0112783
0.0112174
0.0111631
0.0111142
0.01107
0.0110296
0.0109921
0.0109568
0.0109242
0.0108939
0.0108657
0.0108394
0.010815
0.0107926
0.0107724
0.0134647
0.0134647
0.0134586
0.0134475
0.0134318
0.0134116
0.0133857
0.0133537
0.0133158
0.0132704
0.0132175
0.0131566
0.0130873
0.0130097
0.0129248
0.0128331
0.012734
0.0126286
0.0125167
0.0123981
0.0122857
0.0121906
0.0121095
0.0120395
0.0119787
0.0119252
0.0118778
0.0118355
0.0117973
0.0117626
0.0117308
0.0117017
0.0116742
0.0116484
0.0116244
0.0116019
0.0115808
0.0115612
0.011543
0.0115268
0.0135552
0.0135556
0.0135515
0.0135438
0.0135327
0.0135181
0.0134994
0.0134765
0.0134494
0.013417
0.0133793
0.0133359
0.0132863
0.0132305
0.0131686
0.0131014
0.0130294
0.0129518
0.0128693
0.0127817
0.0126989
0.0126281
0.0125676
0.0125153
0.0124696
0.0124289
0.0123927
0.0123602
0.0123309
0.0123042
0.0122798
0.0122574
0.0122367
0.0122169
0.0121984
0.0121811
0.0121649
0.0121497
0.0121356
0.0121229
0.01363
0.0136306
0.0136279
0.0136225
0.0136148
0.0136041
0.0135904
0.0135738
0.0135542
0.0135308
0.0135038
0.0134723
0.0134364
0.0133961
0.0133518
0.0133029
0.0132502
0.013194
0.0131336
0.0130697
0.0130089
0.0129575
0.0129133
0.0128743
0.01284
0.0128098
0.0127829
0.0127587
0.0127369
0.012717
0.0126988
0.012682
0.0126665
0.012652
0.012638
0.012625
0.0126127
0.0126012
0.0125904
0.0125807
0.0136918
0.0136925
0.0136909
0.0136872
0.0136816
0.0136737
0.0136636
0.0136517
0.0136373
0.0136202
0.0136006
0.0135779
0.0135521
0.013523
0.0134907
0.0134555
0.013417
0.0133758
0.0133321
0.0132855
0.0132413
0.0132033
0.0131706
0.0131421
0.0131171
0.013095
0.0130752
0.0130575
0.0130414
0.0130267
0.0130132
0.0130007
0.0129891
0.0129782
0.012968
0.0129582
0.0129491
0.0129404
0.0129322
0.012925
0.0137432
0.013744
0.0137431
0.0137406
0.0137364
0.0137305
0.0137231
0.0137142
0.0137036
0.0136911
0.0136767
0.0136602
0.0136415
0.0136205
0.0135971
0.0135713
0.0135435
0.0135134
0.0134814
0.0134478
0.0134156
0.013388
0.0133642
0.0133434
0.0133252
0.0133087
0.0132941
0.0132808
0.0132688
0.0132579
0.0132479
0.0132386
0.0132299
0.0132218
0.0132142
0.0132069
0.0132
0.0131935
0.0131874
0.0131819
0.013786
0.0137868
0.0137864
0.0137846
0.0137815
0.0137772
0.0137718
0.013765
0.0137571
0.0137479
0.0137372
0.0137252
0.0137114
0.0136961
0.0136791
0.0136603
0.0136399
0.013618
0.0135949
0.0135703
0.0135469
0.0135267
0.0135092
0.0134938
0.0134803
0.0134683
0.0134575
0.0134478
0.0134389
0.0134308
0.0134233
0.0134163
0.0134098
0.0134037
0.013398
0.0133926
0.0133874
0.0133825
0.0133778
0.0133737
0.0138217
0.0138225
0.0138223
0.0138211
0.0138189
0.0138157
0.0138115
0.0138064
0.0138005
0.0137936
0.0137856
0.0137766
0.0137665
0.0137552
0.0137427
0.013729
0.0137141
0.0136983
0.0136812
0.0136634
0.0136463
0.0136316
0.0136187
0.0136075
0.0135976
0.0135887
0.0135808
0.0135736
0.013567
0.0135609
0.0135554
0.0135501
0.0135452
0.0135406
0.0135362
0.0135321
0.0135282
0.0135244
0.0135209
0.0135177
0.0138516
0.0138523
0.0138522
0.0138515
0.0138498
0.0138473
0.0138443
0.0138404
0.0138359
0.0138306
0.0138247
0.0138179
0.0138104
0.013802
0.0137928
0.0137827
0.0137718
0.01376
0.0137477
0.0137345
0.0137221
0.0137113
0.0137019
0.0136937
0.0136862
0.0136796
0.0136736
0.0136682
0.0136632
0.0136586
0.0136544
0.0136505
0.0136467
0.0136432
0.0136399
0.0136367
0.0136337
0.0136309
0.0136281
0.0136257
0.0138766
0.0138772
0.0138772
0.0138767
0.0138754
0.0138736
0.0138713
0.0138683
0.0138649
0.0138609
0.0138563
0.0138513
0.0138456
0.0138394
0.0138326
0.0138251
0.013817
0.0138083
0.0137993
0.0137897
0.0137806
0.0137727
0.0137657
0.0137595
0.0137539
0.013749
0.0137445
0.0137403
0.0137365
0.013733
0.0137298
0.0137268
0.0137239
0.0137212
0.0137187
0.0137162
0.0137139
0.0137117
0.0137096
0.0137077
0.0138976
0.0138981
0.0138982
0.0138978
0.0138969
0.0138954
0.0138937
0.0138914
0.0138887
0.0138857
0.0138822
0.0138784
0.0138741
0.0138694
0.0138642
0.0138587
0.0138527
0.0138464
0.0138396
0.0138326
0.0138259
0.01382
0.0138148
0.0138102
0.013806
0.0138023
0.0137989
0.0137958
0.0137928
0.0137901
0.0137876
0.0137852
0.013783
0.0137809
0.0137789
0.013777
0.0137752
0.0137735
0.0137718
0.0137704
0.0139152
0.0139157
0.0139157
0.0139154
0.0139147
0.0139136
0.0139123
0.0139105
0.0139084
0.0139061
0.0139034
0.0139004
0.0138971
0.0138935
0.0138896
0.0138855
0.013881
0.0138762
0.0138712
0.013866
0.0138611
0.0138567
0.0138529
0.0138494
0.0138463
0.0138435
0.0138409
0.0138384
0.0138362
0.0138341
0.0138321
0.0138302
0.0138285
0.0138268
0.0138253
0.0138238
0.0138224
0.013821
0.0138197
0.0138186
0.0139299
0.0139304
0.0139305
0.0139302
0.0139296
0.0139288
0.0139277
0.0139263
0.0139247
0.0139229
0.0139208
0.0139184
0.0139159
0.0139132
0.0139102
0.013907
0.0139037
0.0139001
0.0138964
0.0138926
0.0138889
0.0138856
0.0138827
0.0138801
0.0138777
0.0138755
0.0138735
0.0138717
0.0138699
0.0138682
0.0138667
0.0138652
0.0138638
0.0138625
0.0138613
0.0138601
0.013859
0.0138579
0.0138569
0.013856
0.0139424
0.0139427
0.0139428
0.0139426
0.0139421
0.0139414
0.0139405
0.0139394
0.0139382
0.0139367
0.0139351
0.0139333
0.0139313
0.0139292
0.0139269
0.0139245
0.013922
0.0139193
0.0139165
0.0139136
0.0139108
0.0139084
0.0139062
0.0139042
0.0139023
0.0139007
0.0138991
0.0138977
0.0138963
0.013895
0.0138938
0.0138926
0.0138915
0.0138904
0.0138895
0.0138885
0.0138876
0.0138868
0.0138859
0.0138852
0.0139528
0.0139531
0.0139532
0.013953
0.0139527
0.0139521
0.0139513
0.0139504
0.0139494
0.0139482
0.013947
0.0139455
0.013944
0.0139424
0.0139406
0.0139387
0.0139368
0.0139347
0.0139326
0.0139305
0.0139284
0.0139266
0.0139249
0.0139234
0.013922
0.0139207
0.0139195
0.0139183
0.0139172
0.0139162
0.0139152
0.0139143
0.0139134
0.0139126
0.0139118
0.013911
0.0139103
0.0139096
0.0139089
0.0139083
0.0139616
0.0139619
0.0139619
0.0139618
0.0139615
0.013961
0.0139604
0.0139597
0.0139588
0.0139579
0.0139568
0.0139557
0.0139545
0.0139532
0.0139519
0.0139504
0.0139489
0.0139473
0.0139457
0.0139441
0.0139426
0.0139412
0.0139399
0.0139387
0.0139376
0.0139366
0.0139356
0.0139347
0.0139338
0.013933
0.0139322
0.0139315
0.0139308
0.0139301
0.0139295
0.0139289
0.0139283
0.0139277
0.0139272
0.0139267
0.013969
0.0139692
0.0139693
0.0139691
0.0139689
0.0139685
0.013968
0.0139674
0.0139667
0.0139659
0.0139651
0.0139642
0.0139632
0.0139622
0.0139611
0.01396
0.0139588
0.0139576
0.0139564
0.0139552
0.013954
0.0139529
0.0139519
0.013951
0.0139502
0.0139494
0.0139486
0.0139479
0.0139472
0.0139465
0.0139459
0.0139453
0.0139447
0.0139442
0.0139436
0.0139431
0.0139426
0.0139422
0.0139417
0.0139413
0.0139752
0.0139754
0.0139754
0.0139753
0.0139751
0.0139748
0.0139744
0.0139739
0.0139733
0.0139727
0.013972
0.0139713
0.0139705
0.0139697
0.0139688
0.013968
0.013967
0.0139661
0.0139652
0.0139643
0.0139633
0.0139625
0.0139617
0.013961
0.0139603
0.0139597
0.0139591
0.0139585
0.0139579
0.0139574
0.0139569
0.0139564
0.0139559
0.0139555
0.0139551
0.0139547
0.0139543
0.0139539
0.0139535
0.0139532
0.0139805
0.0139806
0.0139806
0.0139805
0.0139804
0.0139801
0.0139798
0.0139794
0.0139789
0.0139784
0.0139778
0.0139772
0.0139766
0.013976
0.0139753
0.0139746
0.0139739
0.0139731
0.0139724
0.0139717
0.013971
0.0139703
0.0139697
0.0139692
0.0139686
0.0139681
0.0139676
0.0139671
0.0139667
0.0139662
0.0139658
0.0139654
0.0139651
0.0139647
0.0139644
0.013964
0.0139637
0.0139634
0.0139631
0.0139628
0.0139849
0.013985
0.013985
0.0139849
0.0139848
0.0139846
0.0139843
0.013984
0.0139836
0.0139832
0.0139827
0.0139822
0.0139817
0.0139812
0.0139807
0.0139801
0.0139795
0.013979
0.0139784
0.0139778
0.0139773
0.0139768
0.0139763
0.0139758
0.0139754
0.013975
0.0139746
0.0139742
0.0139739
0.0139735
0.0139732
0.0139729
0.0139725
0.0139722
0.013972
0.0139717
0.0139714
0.0139712
0.0139709
0.0139707
0.0139886
0.0139887
0.0139887
0.0139886
0.0139885
0.0139883
0.0139881
0.0139878
0.0139875
0.0139872
0.0139868
0.0139865
0.0139861
0.0139856
0.0139852
0.0139848
0.0139843
0.0139839
0.0139834
0.013983
0.0139826
0.0139822
0.0139818
0.0139814
0.0139811
0.0139807
0.0139804
0.0139801
0.0139798
0.0139795
0.0139792
0.013979
0.0139787
0.0139785
0.0139782
0.013978
0.0139778
0.0139776
0.0139774
0.0139772
0.0139917
0.0139918
0.0139918
0.0139917
0.0139916
0.0139915
0.0139913
0.0139911
0.0139909
0.0139906
0.0139903
0.01399
0.0139897
0.0139894
0.013989
0.0139887
0.0139884
0.013988
0.0139877
0.0139873
0.013987
0.0139867
0.0139864
0.0139861
0.0139858
0.0139855
0.0139853
0.013985
0.0139848
0.0139845
0.0139843
0.0139841
0.0139839
0.0139837
0.0139835
0.0139833
0.0139831
0.0139829
0.0139828
0.0139826
0.0139943
0.0139944
0.0139944
0.0139943
0.0139943
0.0139942
0.013994
0.0139939
0.0139937
0.0139935
0.0139933
0.0139931
0.0139928
0.0139926
0.0139923
0.0139921
0.0139918
0.0139915
0.0139913
0.013991
0.0139908
0.0139905
0.0139903
0.0139901
0.0139898
0.0139896
0.0139894
0.0139892
0.013989
0.0139888
0.0139886
0.0139884
0.0139883
0.0139881
0.0139879
0.0139878
0.0139876
0.0139875
0.0139873
0.0139872
0.0139966
0.0139966
0.0139966
0.0139966
0.0139965
0.0139964
0.0139963
0.0139962
0.0139961
0.013996
0.0139958
0.0139957
0.0139955
0.0139953
0.0139951
0.013995
0.0139948
0.0139946
0.0139944
0.0139942
0.013994
0.0139938
0.0139937
0.0139935
0.0139933
0.0139931
0.013993
0.0139928
0.0139927
0.0139925
0.0139924
0.0139922
0.0139921
0.0139919
0.0139918
0.0139917
0.0139915
0.0139914
0.0139913
0.0139912
0.0139984
0.0139984
0.0139984
0.0139984
0.0139984
0.0139983
0.0139983
0.0139982
0.0139982
0.0139981
0.013998
0.0139979
0.0139978
0.0139978
0.0139976
0.0139975
0.0139974
0.0139973
0.0139972
0.0139971
0.013997
0.0139969
0.0139967
0.0139966
0.0139965
0.0139964
0.0139963
0.0139962
0.0139961
0.013996
0.0139958
0.0139957
0.0139956
0.0139955
0.0139954
0.0139953
0.0139952
0.0139951
0.013995
0.0139949
0.00053365
0.000543098
0.000557284
0.000567412
0.00057518
0.000581832
0.00058774
0.000593099
0.000598169
0.000603197
0.000608422
0.000614106
0.000620618
0.000628704
0.000639793
0.000533618
0.000541707
0.000540298
0.000540723
0.000540377
0.00053957
0.00053871
0.000538063
0.000537735
0.000537868
0.000538618
0.000540331
0.000543036
0.000548958
0.000551998
0.000848659
0.000865649
0.000875882
0.000884309
0.000890628
0.00089556
0.000899689
0.000903398
0.000906984
0.000910725
0.00091491
0.000919876
0.000925966
0.000933782
0.000942088
0.00114703
0.00116583
0.00117891
0.00118969
0.0011985
0.00120587
0.00121236
0.00121836
0.00122415
0.00122997
0.00123609
0.00124274
0.00125016
0.0012586
0.00126689
0.00145597
0.00147561
0.0014903
0.0015023
0.00151247
0.00152117
0.0015289
0.00153602
0.00154281
0.0015495
0.0015563
0.00156337
0.00157085
0.00157878
0.00158642
0.00180412
0.00182411
0.00183943
0.00185173
0.00186212
0.00187085
0.00187843
0.00188526
0.00189165
0.00189784
0.001904
0.00191025
0.00191666
0.00192326
0.001929
0.00223069
0.00225023
0.00226479
0.00227608
0.00228528
0.00229293
0.00229949
0.00230547
0.00231118
0.00231687
0.00232271
0.0023288
0.0023352
0.00234184
0.00234777
0.0028371
0.00285367
0.0028668
0.00287748
0.00288642
0.00289414
0.00290105
0.00290744
0.00291354
0.00291951
0.00292545
0.00293143
0.00293746
0.00294342
0.00294812
0.00360285
0.00361657
0.0036276
0.0036366
0.00364412
0.00365055
0.0036562
0.00366133
0.0036661
0.00367064
0.00367502
0.0036793
0.00368348
0.00368738
0.00368968
0.00449058
0.0045007
0.00450882
0.00451538
0.00452073
0.00452518
0.00452895
0.00453221
0.0045351
0.00453772
0.00454012
0.00454235
0.0045444
0.00454606
0.00454584
0.00548637
0.00549203
0.00549634
0.00549955
0.0055019
0.00550359
0.00550477
0.00550556
0.00550606
0.00550634
0.00550644
0.00550639
0.00550617
0.00550551
0.0055028
0.00656862
0.00656918
0.00656897
0.00656815
0.00656686
0.00656521
0.00656329
0.00656118
0.00655893
0.00655659
0.00655419
0.00655174
0.00654919
0.00654621
0.00654111
0.0076968
0.00769229
0.00768754
0.00768264
0.00767764
0.00767261
0.00766757
0.00766257
0.00765764
0.00765278
0.00764802
0.00764334
0.00763867
0.00763361
0.00762647
0.00881071
0.00880237
0.00879418
0.00878617
0.00877836
0.00877075
0.00876337
0.00875621
0.00874928
0.00874258
0.0087361
0.00872983
0.00872365
0.00871714
0.00870866
0.00984968
0.00983923
0.00982916
0.00981946
0.00981015
0.0098012
0.0097926
0.00978435
0.00977643
0.00976884
0.00976155
0.00975453
0.00974766
0.00974051
0.0097316
0.0107598
0.0107491
0.0107389
0.0107291
0.0107198
0.0107109
0.0107023
0.0106942
0.0106864
0.0106789
0.0106718
0.0106649
0.0106583
0.0106513
0.0106429
0.0115155
0.0115058
0.0114966
0.0114878
0.0114795
0.0114715
0.0114639
0.0114566
0.0114497
0.0114431
0.0114368
0.0114307
0.0114248
0.0114187
0.0114114
0.0121136
0.0121056
0.012098
0.0120908
0.0120839
0.0120773
0.0120711
0.0120651
0.0120594
0.012054
0.0120488
0.0120439
0.012039
0.012034
0.0120281
0.0125735
0.0125672
0.0125613
0.0125556
0.0125502
0.012545
0.0125402
0.0125355
0.012531
0.0125268
0.0125228
0.0125189
0.0125151
0.0125112
0.0125066
0.0129194
0.0129147
0.0129102
0.0129059
0.0129018
0.0128979
0.0128942
0.0128907
0.0128874
0.0128842
0.0128811
0.0128782
0.0128754
0.0128724
0.012869
0.0131778
0.0131743
0.013171
0.0131678
0.0131648
0.0131619
0.0131592
0.0131566
0.0131541
0.0131517
0.0131495
0.0131473
0.0131452
0.0131431
0.0131405
0.0133707
0.0133681
0.0133657
0.0133634
0.0133612
0.0133591
0.0133571
0.0133552
0.0133534
0.0133517
0.0133501
0.0133485
0.013347
0.0133454
0.0133435
0.0135155
0.0135137
0.013512
0.0135103
0.0135087
0.0135072
0.0135058
0.0135045
0.0135032
0.0135019
0.0135008
0.0134996
0.0134985
0.0134974
0.0134961
0.0136241
0.0136228
0.0136216
0.0136204
0.0136193
0.0136182
0.0136172
0.0136162
0.0136152
0.0136144
0.0136135
0.0136127
0.0136119
0.0136111
0.0136101
0.0137066
0.0137056
0.0137047
0.0137038
0.013703
0.0137023
0.0137015
0.0137008
0.0137002
0.0136995
0.0136989
0.0136983
0.0136978
0.0136972
0.0136965
0.0137695
0.0137688
0.0137682
0.0137676
0.013767
0.0137665
0.0137659
0.0137654
0.013765
0.0137645
0.0137641
0.0137637
0.0137632
0.0137628
0.0137623
0.013818
0.0138175
0.013817
0.0138166
0.0138162
0.0138158
0.0138154
0.013815
0.0138147
0.0138144
0.0138141
0.0138138
0.0138135
0.0138132
0.0138128
0.0138555
0.0138552
0.0138548
0.0138545
0.0138542
0.013854
0.0138537
0.0138534
0.0138532
0.013853
0.0138527
0.0138525
0.0138523
0.0138521
0.0138519
0.0138849
0.0138846
0.0138844
0.0138842
0.013884
0.0138838
0.0138836
0.0138834
0.0138832
0.0138831
0.0138829
0.0138828
0.0138826
0.0138825
0.0138823
0.0139081
0.0139079
0.0139078
0.0139076
0.0139074
0.0139073
0.0139072
0.013907
0.0139069
0.0139068
0.0139067
0.0139066
0.0139065
0.0139064
0.0139063
0.0139265
0.0139264
0.0139263
0.0139261
0.013926
0.0139259
0.0139258
0.0139258
0.0139257
0.0139256
0.0139255
0.0139254
0.0139254
0.0139253
0.0139252
0.0139412
0.0139411
0.0139411
0.013941
0.0139409
0.0139408
0.0139408
0.0139407
0.0139406
0.0139406
0.0139405
0.0139405
0.0139404
0.0139404
0.0139403
0.0139531
0.013953
0.013953
0.0139529
0.0139529
0.0139528
0.0139528
0.0139527
0.0139527
0.0139527
0.0139526
0.0139526
0.0139525
0.0139525
0.0139525
0.0139627
0.0139627
0.0139627
0.0139626
0.0139626
0.0139626
0.0139625
0.0139625
0.0139625
0.0139624
0.0139624
0.0139624
0.0139623
0.0139623
0.0139623
0.0139706
0.0139706
0.0139706
0.0139706
0.0139705
0.0139705
0.0139705
0.0139705
0.0139704
0.0139704
0.0139704
0.0139704
0.0139704
0.0139703
0.0139703
0.0139771
0.0139771
0.0139771
0.0139771
0.0139771
0.013977
0.013977
0.013977
0.013977
0.013977
0.013977
0.013977
0.0139769
0.0139769
0.0139769
0.0139826
0.0139826
0.0139826
0.0139825
0.0139825
0.0139825
0.0139825
0.0139825
0.0139825
0.0139825
0.0139825
0.0139825
0.0139824
0.0139824
0.0139824
0.0139872
0.0139872
0.0139872
0.0139872
0.0139872
0.0139872
0.0139871
0.0139871
0.0139871
0.0139871
0.0139871
0.0139871
0.0139871
0.0139871
0.0139871
0.0139912
0.0139912
0.0139912
0.0139912
0.0139912
0.0139912
0.0139911
0.0139911
0.0139911
0.0139911
0.0139911
0.0139911
0.0139911
0.0139911
0.0139911
0.0139949
0.0139949
0.0139949
0.0139949
0.0139949
0.0139949
0.0139949
0.0139949
0.0139949
0.0139949
0.0139949
0.0139949
0.0139949
0.0139949
0.0139949
0.000631904
0.000634313
0.00063928
0.000645778
0.000652553
0.00065924
0.000665658
0.000671827
0.000678529
0.000687152
0.000698983
0.000715074
0.000736706
0.000765794
0.000804353
0.000851227
0.000899201
0.000934253
0.000940377
0.000909791
0.000851591
0.000797461
0.000764538
0.000755711
0.000763731
0.000768118
0.00076315
0.000764917
0.000765547
0.000761784
0.000761776
0.000765456
0.000764765
0.000763162
0.000768069
0.000763473
0.000755486
0.000764758
0.000798162
0.000852544
0.000910531
0.00094038
0.000933547
0.000898064
0.000849997
0.000803244
0.000764909
0.000736022
0.000714547
0.000698582
0.000686855
0.000678309
0.000671649
0.000665493
0.00065908
0.000652399
0.000645629
0.000639129
0.000634148
0.000631725
0.000554309
0.000555331
0.000558439
0.000563146
0.000569143
0.000576162
0.000583968
0.000592543
0.000601921
0.000612228
0.000623729
0.000636858
0.000652267
0.00067089
0.000693891
0.000722208
0.000755869
0.000793838
0.000835416
0.000882814
0.000942746
0.00102326
0.00112347
0.00122744
0.0013108
0.00136604
0.00139454
0.00139762
0.00137479
0.00132943
0.00132954
0.00137493
0.00139739
0.00139388
0.00136495
0.0013092
0.00122541
0.00112126
0.00102131
0.000941232
0.000881634
0.000834403
0.000792908
0.000755018
0.000721464
0.000693268
0.000670379
0.000651843
0.000636498
0.000623416
0.000611948
0.000601667
0.00059231
0.000583752
0.000575965
0.000568964
0.000562988
0.000558302
0.000555218
0.000554212
0.000945067
0.000943697
0.000939097
0.000931631
0.000921666
0.000909596
0.000895769
0.00088059
0.000864614
0.000848439
0.000832687
0.000818004
0.000805091
0.000794752
0.000787938
0.00078572
0.000789169
0.000799228
0.000816935
0.000844279
0.000885332
0.000946642
0.00103524
0.00115316
0.00129129
0.00142902
0.00153974
0.00160651
0.00163069
0.00162635
0.00162662
0.00163042
0.00160541
0.00153771
0.00142626
0.00128832
0.00115044
0.00103305
0.000945017
0.000884158
0.000843414
0.000816274
0.000798715
0.000788779
0.000785435
0.000787735
0.00079461
0.000804988
0.000817922
0.00083261
0.000848354
0.000864508
0.000880452
0.000895589
0.000909364
0.000921375
0.000931274
0.000938669
0.000943192
0.000944461
0.00127003
0.00126894
0.00126458
0.001257
0.00124627
0.00123244
0.00121558
0.00119567
0.00117296
0.00114777
0.00112053
0.00109175
0.00106207
0.00103225
0.00100323
0.000976105
0.000952184
0.000932943
0.000920106
0.000915934
0.000923847
0.000949229
0.00099977
0.00108383
0.00120513
0.00135414
0.00150416
0.00162219
0.00168632
0.0017007
0.00170067
0.00168538
0.00162011
0.00150122
0.00135093
0.00120226
0.00108164
0.00099826
0.00094826
0.000923255
0.000915595
0.00091994
0.0009329
0.000952229
0.000976211
0.00100337
0.00103241
0.00106223
0.00109189
0.00112064
0.00114784
0.00117299
0.00119565
0.0012155
0.0012323
0.00124607
0.00125673
0.00126423
0.00126853
0.00126956
0.00158957
0.00158807
0.0015831
0.00157479
0.00156322
0.00154838
0.00153026
0.00150878
0.00148386
0.00145556
0.00142397
0.00138929
0.00135183
0.00131199
0.00127039
0.00122781
0.0011853
0.00114423
0.00110631
0.00107384
0.00105
0.00103958
0.0010499
0.00109127
0.00117468
0.0013033
0.00145955
0.00160329
0.00169416
0.00172175
0.00172158
0.00169282
0.00160072
0.00145636
0.00130031
0.00117244
0.00108987
0.00104917
0.00103931
0.00105004
0.00107408
0.00110669
0.0011447
0.00118584
0.00122839
0.001271
0.00131262
0.00135246
0.00138992
0.00142459
0.00145617
0.00148445
0.00150935
0.00153081
0.00154891
0.0015637
0.00157523
0.00158349
0.0015884
0.00158983
0.00193169
0.00192899
0.00192241
0.00191223
0.00189855
0.0018814
0.00186074
0.00183651
0.00180855
0.00177684
0.00174137
0.00170213
0.0016592
0.00161271
0.00156291
0.00151022
0.00145526
0.00139892
0.00134252
0.00128792
0.00123782
0.00119635
0.00117009
0.00116941
0.00120882
0.00130159
0.00144367
0.0015974
0.0017061
0.00174146
0.00174125
0.00170452
0.00159461
0.00144062
0.0012992
0.00120743
0.00116888
0.00117016
0.0011968
0.00123852
0.00128879
0.00134352
0.00140001
0.00145641
0.00151144
0.00156418
0.00161402
0.00166055
0.00170351
0.00174278
0.00177827
0.00181
0.00183797
0.00186221
0.00188286
0.00189999
0.00191364
0.00192377
0.00193028
0.00193295
0.00235096
0.00234634
0.00233673
0.00232217
0.00230304
0.00227979
0.00225281
0.00222218
0.0021875
0.00214871
0.00210575
0.00205858
0.0020072
0.00195165
0.00189201
0.00182845
0.00176129
0.00169101
0.00161842
0.00154479
0.00147213
0.00140371
0.00134499
0.00130539
0.00130026
0.00134931
0.00146221
0.00161159
0.00173035
0.00176972
0.00176951
0.00172866
0.00160884
0.00145962
0.00134774
0.00129979
0.00130572
0.00134584
0.00140487
0.00147351
0.00154631
0.00162005
0.00169272
0.00176307
0.00183028
0.00189388
0.00195355
0.00200912
0.00206051
0.00210767
0.00215062
0.00218937
0.002224
0.00225456
0.00228143
0.00230457
0.0023236
0.00233808
0.00234771
0.00235227
0.00295121
0.00294419
0.00292971
0.00290789
0.00287905
0.00284352
0.0028017
0.00275407
0.0027011
0.00264376
0.0025827
0.00251771
0.00244853
0.00237509
0.0022974
0.00221556
0.00212973
0.00204018
0.00194735
0.001852
0.00175544
0.00166
0.00156988
0.00149294
0.0014436
0.00144459
0.00151707
0.00164848
0.00176874
0.00180831
0.00180816
0.00176705
0.00164597
0.00151516
0.00144393
0.00144405
0.0014941
0.00157146
0.00166183
0.00175744
0.00185411
0.00194953
0.00204241
0.00213198
0.00221782
0.00229965
0.00237731
0.00245071
0.00251981
0.0025847
0.00264561
0.00270277
0.00275558
0.00280308
0.00284478
0.00288019
0.00290892
0.00293063
0.00294506
0.00295197
0.00369163
0.00368147
0.00366183
0.00363291
0.00359484
0.00354797
0.00349261
0.00342916
0.00335793
0.00327944
0.00319436
0.00310349
0.00300833
0.0029095
0.00280636
0.00269868
0.00258655
0.0024702
0.00235001
0.0022265
0.00210059
0.00197389
0.0018495
0.00173363
0.00163884
0.0015882
0.0016111
0.00171134
0.00182328
0.00185835
0.00185829
0.00182171
0.00170928
0.00161003
0.00158851
0.00164017
0.00173556
0.00185176
0.00197634
0.00210314
0.00222911
0.00235264
0.00247284
0.00258916
0.00270124
0.00280884
0.00291188
0.00301056
0.00310549
0.00319619
0.00328113
0.00335948
0.00343059
0.00349393
0.00354917
0.00359593
0.00363389
0.00366277
0.00368234
0.00369238
0.0045461
0.00453241
0.00450751
0.00447159
0.00442484
0.00436734
0.00429946
0.00422149
0.00413361
0.00403618
0.00392963
0.00381453
0.00369165
0.00356203
0.00342759
0.00328894
0.00314518
0.00299616
0.0028422
0.00268384
0.00252188
0.00235762
0.00219343
0.00203417
0.00189038
0.00178381
0.00174872
0.00180474
0.00189708
0.00192149
0.00192157
0.00189574
0.00180329
0.00174857
0.00178506
0.00189254
0.00203681
0.0021963
0.00236061
0.00252492
0.00268688
0.0028452
0.00299911
0.00314804
0.00329169
0.00343016
0.00356432
0.00369375
0.00381647
0.00393143
0.00403784
0.00413515
0.00422291
0.00430076
0.00436852
0.00442589
0.00447263
0.00450852
0.00453334
0.0045469
0.00550078
0.00548312