/*--------------------------------*- C++ -*----------------------------------*\
  =========                 |
  \\      /  F ield         | OpenFOAM: The Open Source CFD Toolbox
   \\    /   O peration     | Website:  https://openfoam.org
    \\  /    A nd           | Version:  10
     \\/     M anipulation  |
\*---------------------------------------------------------------------------*/
FoamFile
{
    format      ascii;
    class       surfaceScalarField;
    location    "176";
    object      phi;
}
// * * * * * * * * * * * * * * * * * * * * * * * * * * * * * * * * * * * * * //

dimensions      [1 0 -1 0 0 0 0];

internalField   nonuniform List<scalar> 
14025
(
0.00181426
-0.00175514
-5.91251e-05
0.00318623
-0.00137197
0.00391513
-0.000728899
0.00417401
-0.000258873
0.00420722
-3.32151e-05
0.00414951
5.77052e-05
0.00407422
7.52954e-05
0.00401469
5.95283e-05
0.00397886
3.58352e-05
0.00396351
1.53413e-05
0.00396299
5.26208e-07
0.00397245
-9.46574e-06
0.00398857
-1.61177e-05
0.00400925
-2.0681e-05
0.00403297
-2.37206e-05
0.00405855
-2.55786e-05
0.00408448
-2.5923e-05
0.0041084
-2.39198e-05
0.00412634
-1.79473e-05
0.00413406
-7.71274e-06
0.00413387
1.87365e-07
0.00413097
2.89974e-06
0.00412583
5.13905e-06
0.0041185
7.33364e-06
0.00410906
9.43062e-06
0.0040974
1.1661e-05
0.00408334
1.40604e-05
0.00406674
1.66075e-05
0.00404744
1.9296e-05
0.00402526
2.21777e-05
0.0040001
2.51572e-05
0.00397174
2.8362e-05
0.00393983
3.1913e-05
0.00390385
3.59819e-05
0.00386286
4.09877e-05
0.00381552
4.7338e-05
0.00375866
5.68579e-05
0.00368917
6.94943e-05
0.0035848
0.000104375
0.000147583
0.00343721
0.00150635
-0.00321435
-4.71353e-05
0.00278046
-0.00264608
0.0036345
-0.00158293
0.00409831
-0.000722682
0.00433636
-0.000271274
0.00447393
-7.9864e-05
0.00456773
-1.84996e-05
0.00463968
-1.24276e-05
0.00469976
-2.42374e-05
0.00475318
-3.80792e-05
0.00480284
-4.91395e-05
0.0048503
-5.69199e-05
0.00489642
-6.22367e-05
0.00494196
-6.62264e-05
0.00498717
-6.89295e-05
0.00503185
-7.02559e-05
0.00507497
-6.90479e-05
0.00511409
-6.30361e-05
0.00514566
-4.95195e-05
0.00516583
-2.78799e-05
0.00517551
-9.4918e-06
0.00518002
-1.61543e-06
0.00518086
4.29977e-06
0.00517807
1.01282e-05
0.00517175
1.5746e-05
0.00516192
2.14913e-05
0.00514856
2.74199e-05
0.00513167
3.3498e-05
0.0051112
3.9766e-05
0.00508706
4.63153e-05
0.00505922
5.30018e-05
0.00502752
6.0061e-05
0.00499167
6.77634e-05
0.0049512
7.64511e-05
0.00490527
8.6922e-05
0.00485261
9.9998e-05
0.00479115
0.00011831
0.00471841
0.000142241
0.00463199
0.000190788
0.000231373
0.0045482
0.00140098
-0.0045753
-4.00295e-05
0.0027528
-0.0039979
0.00390912
-0.00273926
0.00472067
-0.00153423
0.00520529
-0.000755885
0.00547152
-0.000346103
0.00561791
-0.000164888
0.00570603
-0.000100541
0.00576893
-8.71381e-05
0.00582276
-9.19096e-05
0.00587483
-0.000101215
0.00592828
-0.000110372
0.00598416
-0.000118111
0.00604286
-0.000124932
0.00610421
-0.000130275
0.00616732
-0.000133363
0.00623029
-0.000132024
0.00629005
-0.000122795
0.00634244
-0.000101913
0.00638259
-6.80214e-05
0.00640922
-3.61238e-05
0.00642683
-1.92286e-05
0.00643785
-6.72068e-06
0.00644305
4.93153e-06
0.00644296
1.58329e-05
0.00643784
2.66173e-05
0.00642781
3.74463e-05
0.00641301
4.82942e-05
0.0063935
5.92785e-05
0.0063693
7.05125e-05
0.00634048
8.18289e-05
0.00630701
9.35309e-05
0.00626872
0.000106045
0.00622534
0.000119839
0.0061763
0.000135954
0.00612092
0.000155385
0.00605891
0.000180321
0.00599038
0.000210768
0.00592276
0.00025841
0.000297857
0.00585627
0.00135274
-0.00589455
-3.34967e-05
0.00271678
-0.00536193
0.00401531
-0.00403779
0.0050701
-0.00258903
0.0058011
-0.00148688
0.00625647
-0.000801479
0.00653191
-0.000440325
0.00670692
-0.000275544
0.00682994
-0.000210164
0.00692713
-0.000189101
0.00701226
-0.000186337
0.00709267
-0.000190782
0.00717212
-0.000197564
0.00725281
-0.000205619
0.00733572
-0.000213193
0.00742084
-0.000218479
0.00750683
-0.000218011
0.00759071
-0.000206679
0.00766804
-0.000179246
0.00773327
-0.000133252
0.00778226
-8.51133e-05
0.00781806
-5.50254e-05
0.00784421
-3.28709e-05
0.00786197
-1.28244e-05
0.00787214
5.65897e-06
0.00787526
2.34937e-05
0.00787169
4.10199e-05
0.00786175
5.82326e-05
0.00784567
7.53576e-05
0.00782367
9.25106e-05
0.00779598
0.000109518
0.00776281
0.000126702
0.00772424
0.000144618
0.00768031
0.000163767
0.00763106
0.000185204
0.00757668
0.000209768
0.00751864
0.000238361
0.00745868
0.000270733
0.00740495
0.000312134
0.00034619
0.00735662
0.00136172
-0.00722893
-2.73412e-05
0.00274626
-0.00674647
0.00414032
-0.00543184
0.00540819
-0.00385691
0.00641761
-0.00249629
0.00712572
-0.0015096
0.00758361
-0.000898213
0.00787658
-0.000568511
0.0080748
-0.000408385
0.00822206
-0.000336364
0.00834311
-0.000307387
0.00845186
-0.000299527
0.00855588
-0.000301588
0.00865948
-0.00030922
0.00876492
-0.000318636
0.00887299
-0.000326541
0.00898286
-0.000327886
0.00909173
-0.00031555
0.00919504
-0.000282548
0.00928699
-0.000225203
0.00936113
-0.000159257
0.00941845
-0.000112349
0.00946298
-7.73975e-05
0.00949619
-4.60349e-05
0.00951903
-1.718e-05
0.00953246
1.00674e-05
0.00953711
3.63704e-05
0.00953357
6.17662e-05
0.0095223
8.66269e-05
0.00950377
0.000111047
0.00947843
0.000134852
0.00944682
0.000158315
0.00940938
0.000182059
0.00936665
0.000206492
0.00931941
0.000232449
0.00926879
0.000260384
0.00921749
0.00028966
0.00916812
0.000320104
0.00912787
0.000352391
0.00037727
0.00909678
0.00141933
-0.0086269
-2.13598e-05
0.00284912
-0.00817626
0.00431257
-0.0068953
0.00573613
-0.00528046
0.00699747
-0.00375763
0.00799249
-0.00250462
0.00869831
-0.00160403
0.00917087
-0.00104108
0.00948861
-0.000726122
0.00971477
-0.00056252
0.0098901
-0.000482716
0.010039
-0.000448438
0.0101755
-0.000438128
0.0103078
-0.00044148
0.0104403
-0.000451091
0.0105749
-0.000461214
0.0107118
-0.000464708
0.0108482
-0.000451987
0.0109796
-0.000413969
0.0111001
-0.000345665
0.0112008
-0.000260018
0.011281
-0.000192532
0.0113452
-0.000141585
0.0113953
-9.61746e-05
0.0114324
-5.4259e-05
0.0114576
-1.51466e-05
0.0114719
2.21109e-05
0.0114761
5.76063e-05
0.0114708
9.18785e-05
0.0114569
0.000124946
0.0114352
0.000156605
0.0114065
0.000187
0.0113718
0.000216734
0.0113323
0.000246012
0.0112894
0.000275314
0.0112451
0.000304661
0.0112026
0.00033217
0.0111646
0.000358132
0.011136
0.000380995
0.000396494
0.0111168
0.00152534
-0.0101366
-1.5677e-05
0.00304041
-0.00969133
0.00457884
-0.00843373
0.00611887
-0.00682049
0.00758275
-0.00522151
0.00885671
-0.00377857
0.00985703
-0.00260435
0.0105783
-0.00176236
0.0110779
-0.00122575
0.0114284
-0.000912995
0.0116882
-0.000742499
0.0118967
-0.000656901
0.0120783
-0.000619743
0.0122478
-0.000611018
0.0124138
-0.000617079
0.0125805
-0.000627939
0.0127492
-0.00063334
0.0129177
-0.00062051
0.0130815
-0.000577741
0.0132342
-0.000498421
0.0133645
-0.000390276
0.0134695
-0.000297577
0.0135547
-0.000226762
0.0136228
-0.000164254
0.013675
-0.000106479
0.0137127
-5.28343e-05
0.0137371
-2.35555e-06
0.0137496
4.5184e-05
0.0137509
9.05101e-05
0.0137424
0.000133505
0.0137251
0.000173901
0.0137004
0.000211627
0.01367
0.000247207
0.0136354
0.000280591
0.0135988
0.000311943
0.0135624
0.000341005
0.0135294
0.000365207
0.0135019
0.000385643
0.0134827
0.000400124
0.000407403
0.0134718
0.00168023
-0.0118065
-1.03237e-05
0.00332747
-0.0113386
0.00497099
-0.0100773
0.00661774
-0.00846724
0.00823899
-0.00684277
0.00975193
-0.00529151
0.0110518
-0.00390424
0.0120745
-0.00278507
0.0128266
-0.00197782
0.0133649
-0.00145125
0.013757
-0.00113459
0.0140584
-0.000958341
0.0143077
-0.000869073
0.0145299
-0.000833191
0.0147403
-0.000827489
0.0149475
-0.000835176
0.0151552
-0.000841033
0.0153625
-0.000827819
0.0155651
-0.000780297
0.0157564
-0.00068971
0.0159216
-0.000555466
0.0160556
-0.00043164
0.016165
-0.000336067
0.0162532
-0.000252466
0.0163222
-0.000175478
0.0163735
-0.000104213
0.0164091
-3.79496e-05
0.0164306
2.37556e-05
0.0164392
8.1831e-05
0.0164368
0.000135982
0.0164248
0.000185853
0.0164053
0.00023111
0.0163803
0.000272202
0.016352
0.00030889
0.0163228
0.000341213
0.0162949
0.000368914
0.0162708
0.000389269
0.016252
0.000404411
0.01624
0.000412203
0.000413332
0.016234
0.00188753
-0.0136886
-5.3586e-06
0.00371858
-0.0131696
0.00551279
-0.0118715
0.00728719
-0.0102416
0.00904698
-0.00860255
0.0107532
-0.00699777
0.0123213
-0.0054723
0.0136602
-0.00412399
0.0147212
-0.00303877
0.0155183
-0.00224834
0.0161068
-0.00172308
0.0165508
-0.0014024
0.0169039
-0.00122221
0.0172044
-0.00113365
0.0174776
-0.00110065
0.0177389
-0.00109656
0.0179967
-0.00109875
0.0182524
-0.00108358
0.0185029
-0.00103078
0.0187417
-0.000928506
0.0189499
-0.000763645
0.0191194
-0.000601132
0.019258
-0.000474679
0.0193703
-0.00036481
0.0194593
-0.000264491
0.0195272
-0.000172023
0.0195761
-8.6883e-05
0.0196084
-8.56005e-06
0.0196261
6.41529e-05
0.0196313
0.000130775
0.0196263
0.000190875
0.0196135
0.000243876
0.0195954
0.000290262
0.0195746
0.000329772
0.0195532
0.000362599
0.0195333
0.000388763
0.0195168
0.000405742
0.0195044
0.000416821
0.0194966
0.000420018
0.000417206
0.0194927
0.00215259
-0.0158404
-8.12437e-07
0.00422389
-0.0152409
0.0062232
-0.0138708
0.00816829
-0.0121867
0.01008
-0.0105143
0.0119558
-0.00887359
0.0137488
-0.00726528
0.0153797
-0.00575492
0.0167712
-0.00443027
0.0178861
-0.00336318
0.0187426
-0.00257962
0.0193944
-0.00205423
0.019903
-0.00173082
0.0203206
-0.0015512
0.0206852
-0.00146529
0.0210223
-0.00143365
0.0213469
-0.00142335
0.0216653
-0.00140196
0.0219766
-0.00134209
0.0222754
-0.00122727
0.0225378
-0.001026
0.0227517
-0.000815117
0.022927
-0.000649924
0.0230695
-0.000507315
0.0231834
-0.00037842
0.0232718
-0.000260454
0.0233377
-0.000152731
0.0233841
-5.49372e-05
0.0234136
3.45886e-05
0.0234292
0.000115203
0.0234336
0.00018648
0.0234298
0.00024771
0.0234204
0.000299603
0.0234081
0.000342093
0.0233949
0.000375819
0.0233824
0.000401299
0.0233718
0.000416308
0.0233635
0.000425101
0.0233576
0.000425964
0.000421291
0.0233535
0.00248263
-0.0183264
3.31596e-06
0.00485726
-0.0176155
0.00712333
-0.0161368
0.00929584
-0.0143592
0.0113998
-0.0126183
0.0134531
-0.0109269
0.0154454
-0.00925756
0.0173292
-0.00763875
0.019033
-0.00613404
0.0204914
-0.00482156
0.0216761
-0.00376435
0.0226078
-0.00298592
0.0233384
-0.00246142
0.0239272
-0.00213999
0.0244252
-0.00196331
0.0248702
-0.00187863
0.0252869
-0.0018401
0.0256887
-0.00180371
0.0260791
-0.00173246
0.0264549
-0.00160315
0.0267867
-0.00135772
0.0270575
-0.00108592
0.0272793
-0.000871763
0.0274603
-0.00068832
0.027606
-0.00052408
0.0277209
-0.000375366
0.0278089
-0.000240768
0.0278739
-0.000119946
0.0279194
-1.09366e-05
0.027949
8.56303e-05
0.027966
0.000169503
0.0279737
0.00024004
0.0279748
0.000298421
0.0279719
0.00034501
0.0279667
0.000381012
0.0279606
0.00040746
0.0279544
0.000422501
0.0279483
0.000431164
0.0279423
0.000432007
0.000427589
0.027936
0.00288725
-0.0212206
7.01566e-06
0.00563656
-0.0203649
0.00823863
-0.0187389
0.0107049
-0.0168255
0.0130596
-0.0149729
0.0153284
-0.0131957
0.0175248
-0.011454
0.0196362
-0.00975016
0.0216181
-0.00811597
0.0234074
-0.00661083
0.0249487
-0.00530563
0.0262206
-0.00425788
0.0272455
-0.00348634
0.0280737
-0.00296818
0.0287622
-0.0026518
0.0293607
-0.00247705
0.0299058
-0.0023852
0.0304206
-0.00231852
0.0309156
-0.00222751
0.0313922
-0.0020797
0.0318137
-0.0017793
0.0321578
-0.00143
0.0324398
-0.00115369
0.0326704
-0.000918922
0.0328572
-0.000710929
0.0330065
-0.000524651
0.0331236
-0.000357876
0.0332134
-0.000209772
0.0332802
-7.77583e-05
0.0333283
3.75553e-05
0.0333615
0.000136331
0.0333833
0.000218205
0.0333967
0.000285031
0.033404
0.000337755
0.0334067
0.000378252
0.0334061
0.000408084
0.0334029
0.000425675
0.0333974
0.000436696
0.0333896
0.000439763
0.000437605
0.0333796
0.0033783
-0.0246092
1.02779e-05
0.0065843
-0.0235709
0.00960099
-0.0217556
0.0124365
-0.0196611
0.0151125
-0.0176489
0.0176566
-0.0157398
0.0200939
-0.0138913
0.022437
-0.0120932
0.0246737
-0.0103527
0.0267645
-0.00870165
0.0286546
-0.00719574
0.030297
-0.00590029
0.0316765
-0.00486583
0.0328167
-0.00410833
0.0337657
-0.00360085
0.0345782
-0.00328955
0.0353018
-0.00310878
0.0359711
-0.0029878
0.0366062
-0.00286265
0.0372155
-0.00268897
0.0377545
-0.00231828
0.0381938
-0.00186937
0.0385538
-0.00151367
0.0388489
-0.001214
0.0390894
-0.000951446
0.0392837
-0.000718927
0.0394388
-0.000512993
0.039561
-0.000332017
0.0396557
-0.00017242
0.0397277
-3.44386e-05
0.0397813
8.26953e-05
0.0398204
0.000179104
0.0398479
0.000257507
0.0398662
0.000319494
0.0398769
0.000367604
0.0398811
0.000403877
0.0398799
0.000426872
0.0398737
0.000442888
0.039863
0.0004504
0.000452386
0.0398483
0.00397028
-0.0285926
1.30979e-05
0.00772819
-0.0273288
0.0112499
-0.0252773
0.0145406
-0.0229518
0.0176196
-0.0207278
0.0205139
-0.0186341
0.0232534
-0.0166308
0.0258647
-0.0147045
0.0283614
-0.0128493
0.0307338
-0.0110741
0.0329484
-0.00941028
0.0349578
-0.00790974
0.0367234
-0.00663143
0.0382355
-0.00562043
0.0395181
-0.00488343
0.0406171
-0.00438856
0.041584
-0.00407566
0.0424635
-0.00386729
0.0432869
-0.00368602
0.0440721
-0.00347418
0.0447652
-0.00301142
0.045329
-0.00243321
0.0457908
-0.00197542
0.04617
-0.00159319
0.0464806
-0.00126207
0.0467338
-0.000972074
0.0469386
-0.00071786
0.0471031
-0.000496498
0.0472336
-0.000302959
0.047336
-0.000136781
0.047415
3.70876e-06
0.0474748
0.000119292
0.0475187
0.000213645
0.0475491
0.000289049
0.047568
0.000348669
0.0475769
0.000394969
0.0475773
0.000426526
0.0475699
0.000450296
0.0475558
0.000464522
0.000472517
0.0475356
0.00468074
-0.0332888
1.54762e-05
0.00910198
-0.03175
0.0132336
-0.0294089
0.0170785
-0.0267967
0.0206538
-0.0243031
0.0239859
-0.0219662
0.0271065
-0.0197514
0.0300494
-0.0176474
0.0328439
-0.0156439
0.035506
-0.0137362
0.0380299
-0.0119341
0.0403874
-0.0102673
0.0425399
-0.00878384
0.0444567
-0.00753724
0.0461327
-0.00655943
0.047592
-0.00584789
0.0488777
-0.00536132
0.0500376
-0.00502719
0.0511122
-0.00476064
0.0521305
-0.00449246
0.0530263
-0.00390725
0.0537529
-0.00315987
0.0543476
-0.00257012
0.0548367
-0.00208222
0.0552388
-0.00166424
0.0555688
-0.00130203
0.0558384
-0.000987438
0.0560574
-0.000715571
0.0562339
-0.00047939
0.0563744
-0.000277366
0.0564848
-0.00010664
0.0565697
3.439e-05
0.0566329
0.000150428
0.0566775
0.000244463
0.0567059
0.000320262
0.0567202
0.000380706
0.0567223
0.000424346
0.0567138
0.000458854
0.0566961
0.000482238
0.00049822
0.0566704
0.00553092
-0.0388372
1.74211e-05
0.0107465
-0.0369656
0.0156109
-0.0342733
0.0201249
-0.0313107
0.0243042
-0.0284825
0.0281751
-0.025837
0.0317704
-0.0233468
0.0351281
-0.0210051
0.0382865
-0.0188023
0.0412787
-0.0167284
0.0441239
-0.0147793
0.0468205
-0.0129639
0.0493471
-0.0113105
0.0516738
-0.00986393
0.0537777
-0.00866329
0.0556578
-0.00772796
0.0573376
-0.00704116
0.0588575
-0.00654704
0.0602604
-0.0061636
0.0615844
-0.0058164
0.0627454
-0.00506833
0.0636847
-0.00409912
0.0644527
-0.00333815
0.0650849
-0.00271436
0.0656062
-0.00218558
0.0660359
-0.00173176
0.0663892
-0.00134074
0.0666785
-0.0010048
0.0669133
-0.000714278
0.0671021
-0.000466143
0.0672516
-0.000256073
0.0673674
-8.14799e-05
0.0674544
6.34634e-05
0.0675164
0.000182494
0.0675566
0.000280026
0.0675779
0.000359391
0.0675831
0.000419152
0.0675742
0.000467779
0.0675533
0.000503098
0.000529327
0.0675222
0.00654639
-0.0454025
1.89497e-05
0.0127112
-0.0431305
0.018453
-0.0400151
0.0237707
-0.0366283
0.0286793
-0.0333911
0.0332056
-0.0303633
0.0373843
-0.0275255
0.0412565
-0.0248774
0.0448668
-0.0224125
0.0482588
-0.0201204
0.0514699
-0.0179904
0.0545232
-0.0160171
0.0574221
-0.0142094
0.0601534
-0.0125952
0.0626956
-0.0112055
0.0650334
-0.0100658
0.0671695
-0.00917725
0.0691276
-0.0085051
0.0709442
-0.00798019
0.0726599
-0.00753212
0.0741634
-0.00657184
0.0753779
-0.00531364
0.0763706
-0.00433085
0.0771882
-0.00353199
0.0778639
-0.00286123
0.0784225
-0.00229038
0.0788836
-0.00180178
0.0792626
-0.00138386
0.0795719
-0.00102356
0.0798216
-0.000715893
0.0800203
-0.000454734
0.0801751
-0.000236297
0.0802921
-5.34764e-05
0.0803762
9.83187e-05
0.080432
0.000224257
0.0804632
0.000328222
0.0804734
0.000408889
0.0804656
0.000475632
0.0804425
0.000526198
0.000565385
0.0804064
0.00775797
-0.0531806
2.00879e-05
0.0150556
-0.0504281
0.0218459
-0.0468054
0.028126
-0.0429084
0.0339107
-0.0391758
0.0392283
-0.0356809
0.0441164
-0.0324136
0.0486198
-0.0293808
0.0527883
-0.026581
0.0566734
-0.0240056
0.060325
-0.0216421
0.063785
-0.0194771
0.0670812
-0.0175056
0.0702238
-0.0157379
0.0732077
-0.0141893
0.0760204
-0.0128785
0.0786541
-0.0118109
0.0811157
-0.0109668
0.0834291
-0.0102935
0.0856296
-0.00973267
0.0875644
-0.00850665
0.0891293
-0.00687844
0.0904094
-0.00561096
0.0914648
-0.00458745
0.0923384
-0.00373483
0.0930622
-0.00301417
0.093661
-0.00240056
0.0941545
-0.00187739
0.0945584
-0.0014274
0.0948855
-0.00104301
0.0951466
-0.000715878
0.095351
-0.00044073
0.0955065
-0.000208938
0.0956197
-1.48568e-05
0.0956963
0.000147612
0.0957415
0.000283065
0.0957599
0.00039045
0.0957554
0.000480175
0.0957315
0.000550046
0.000605541
0.0956914
0.00920281
-0.0624042
2.08693e-05
0.0178516
-0.0590769
0.0258935
-0.0548473
0.0333238
-0.0503387
0.0401581
-0.0460101
0.0464267
-0.0419495
0.0521713
-0.0381582
0.0574417
-0.0346512
0.0622934
-0.0314327
0.0667854
-0.0284975
0.0709772
-0.0258338
0.0749246
-0.0234246
0.0786753
-0.0212562
0.0822631
-0.0193257
0.0857059
-0.0176322
0.0890074
-0.01618
0.0921645
-0.0149679
0.0951775
-0.0139799
0.098059
-0.013175
0.100835
-0.0125084
0.103295
-0.0109667
0.105294
-0.00887733
0.106934
-0.00725101
0.108289
-0.00594246
0.109412
-0.00485846
0.110345
-0.00394679
0.111118
-0.00317351
0.111756
-0.00251562
0.11228
-0.00195074
0.112705
-0.00146801
0.113045
-0.00105632
0.113313
-0.000708489
0.113518
-0.000414033
0.113669
-0.000165967
0.113774
4.29954e-05
0.113838
0.000218375
0.113869
0.000359622
0.113871
0.000478319
0.113848
0.00057252
0.000648492
0.113805
0.0109258
-0.0733513
2.13332e-05
0.0211858
-0.0693369
0.0307213
-0.0643828
0.0395254
-0.0591429
0.0476147
-0.0540993
0.0550231
-0.0493579
0.0617974
-0.0449325
0.0679938
-0.0408476
0.0736752
-0.037114
0.0789083
-0.0337307
0.0837622
-0.0306877
0.0883044
-0.0279668
0.092598
-0.0255498
0.0966974
-0.0234251
0.100644
-0.0215786
0.104464
-0.0200001
0.108171
-0.0186751
0.111773
-0.0175814
0.11528
-0.0166819
0.118711
-0.0159399
0.121788
-0.0140434
0.124308
-0.0113971
0.126386
-0.0093293
0.128109
-0.00766565
0.129542
-0.00629121
0.130734
-0.00513857
0.131723
-0.00416312
0.132542
-0.00333422
0.133214
-0.00262341
0.133762
-0.0020157
0.134202
-0.00149661
0.13455
-0.0010565
0.134819
-0.000682609
0.135019
-0.000366248
0.135161
-9.8602e-05
0.135252
0.000127045
0.135301
0.000310932
0.135313
0.00046598
0.135295
0.000590721
0.000692341
0.135251
0.0129811
-0.0863539
2.15227e-05
0.0251634
-0.0815192
0.0364812
-0.0757006
0.0469259
-0.0695875
0.0565151
-0.0636886
0.0652874
-0.0581302
0.0732964
-0.0529415
0.0806064
-0.0481576
0.0872892
-0.0437968
0.0934214
-0.0398629
0.099082
-0.0363483
0.10435
-0.0332352
0.109303
-0.0305028
0.114012
-0.0281342
0.11854
-0.0261063
0.122937
-0.0243966
0.127239
-0.022977
0.131471
-0.0218141
0.135655
-0.0208658
0.139813
-0.0200978
0.143591
-0.0178215
0.146716
-0.0145224
0.149313
-0.0119254
0.151476
-0.00982883
0.153281
-0.00809638
0.154787
-0.00664442
0.15604
-0.00541651
0.157079
-0.00437327
0.157935
-0.00347929
0.158634
-0.00271456
0.159198
-0.00206056
0.159646
-0.00150453
0.159994
-0.00103096
0.160257
-0.000629001
0.160446
-0.000287924
0.160573
5.39753e-07
0.160646
0.000237735
0.160674
0.000438133
0.160664
0.000601001
0.00073462
0.160621
0.0154345
-0.10181
2.1481e-05
0.0299115
-0.0959963
0.0433576
-0.0891467
0.0557616
-0.0819915
0.0671434
-0.0750704
0.0775472
-0.068534
0.0870348
-0.0624292
0.0956809
-0.0568036
0.103568
-0.0516842
0.110785
-0.0470798
0.117423
-0.0429862
0.123574
-0.0393861
0.129329
-0.0362575
0.134775
-0.0335803
0.139994
-0.0313252
0.145058
-0.0294607
0.150028
-0.0279474
0.154954
-0.0267401
0.159876
-0.0257876
0.16483
-0.0250518
0.16939
-0.0223813
0.173202
-0.0183346
0.176394
-0.0151172
0.179069
-0.012504
0.181311
-0.0103387
0.183188
-0.00852144
0.184755
-0.00698342
0.186058
-0.00567563
0.187133
-0.00455503
0.188014
-0.0035957
0.188728
-0.00277437
0.189298
-0.00207449
0.189745
-0.00147728
0.190085
-0.000969149
0.190334
-0.000537078
0.190505
-0.000170816
0.19061
0.000132458
0.19066
0.000389009
0.190661
0.000599131
0.000772424
0.190624
0.0183658
-0.120197
2.12488e-05
0.0355846
-0.113215
0.051574
-0.105136
0.0663199
-0.0967374
0.079845
-0.0885955
0.0922005
-0.0808895
0.103458
-0.0736872
0.113706
-0.067051
0.123039
-0.0610174
0.131561
-0.0556017
0.139377
-0.0508026
0.146595
-0.0466041
0.153321
-0.0429836
0.159659
-0.0399185
0.16571
-0.0373752
0.171565
-0.0353162
0.177311
-0.0336931
0.183022
-0.0324512
0.188764
-0.0315301
0.194596
-0.0308838
0.200022
-0.027807
0.204603
-0.0229154
0.208468
-0.0189822
0.211727
-0.0157628
0.214471
-0.013083
0.216777
-0.0108274
0.218708
-0.00891458
0.220318
-0.00728543
0.221651
-0.00588861
0.222747
-0.00469156
0.223638
-0.00366554
0.224353
-0.00278948
0.224917
-0.00204075
0.22535
-0.00140248
0.225672
-0.000858882
0.225898
-0.000397264
0.226044
-1.29037e-05
0.22612
0.000312533
0.226139
0.000580691
0.000802748
0.226108
0.0218722
-0.14209
2.08624e-05
0.042371
-0.133714
0.0614028
-0.124168
0.0789507
-0.114285
0.0950407
-0.104685
0.109732
-0.0955812
0.12311
-0.0870652
0.135277
-0.0792171
0.146344
-0.0720847
0.156432
-0.0656901
0.165666
-0.0600359
0.174169
-0.0551074
0.182067
-0.0508812
0.189481
-0.047333
0.196532
-0.0444259
0.203333
-0.0421176
0.209994
-0.0403536
0.216615
-0.039072
0.223289
-0.0382047
0.230105
-0.037699
0.236494
-0.0341966
0.241933
-0.0283538
0.246552
-0.0236015
0.250468
-0.0196787
0.25378
-0.0163953
0.256573
-0.0136208
0.25892
-0.0112615
0.260882
-0.00924744
0.262512
-0.0075187
0.263856
-0.00603519
0.264953
-0.00476209
0.265836
-0.00367301
0.266536
-0.00274092
0.267079
-0.00194504
0.267486
-0.0012663
0.267778
-0.000689076
0.267971
-0.000206293
0.268081
0.000202774
0.26812
0.000541485
0.000822872
0.2681
0.0260727
-0.168183
2.03515e-05
0.0505004
-0.158142
0.0731768
-0.146844
0.0940814
-0.13519
0.113244
-0.123848
0.130735
-0.113072
0.146654
-0.102984
0.161121
-0.0936836
0.174268
-0.0852315
0.186236
-0.0776582
0.19717
-0.0709703
0.207217
-0.0651545
0.216523
-0.0601869
0.225231
-0.0560412
0.233483
-0.0526776
0.241415
-0.0500501
0.249161
-0.0480996
0.256848
-0.0467589
0.264598
-0.0459548
0.272529
-0.0456297
0.280001
-0.0416689
0.286399
-0.0347523
0.291863
-0.0290651
0.296515
-0.0243311
0.300466
-0.0203453
0.303808
-0.0169629
0.306624
-0.0140773
0.308984
-0.0116078
0.31095
-0.00948485
0.312575
-0.0076603
0.313905
-0.00609244
0.314981
-0.00474885
0.315838
-0.00359741
0.316506
-0.00261278
0.317011
-0.0017721
0.317379
-0.00105624
0.317628
-0.000455283
0.317776
5.4242e-05
0.31784
0.000477831
0.000830642
0.317832
0.0311129
-0.199316
1.97384e-05
0.0602547
-0.187283
0.0873039
-0.173893
0.112236
-0.160122
0.135086
-0.146698
0.155936
-0.133922
0.174903
-0.121952
0.19213
-0.11091
0.207772
-0.100873
0.221995
-0.0918813
0.23497
-0.0839451
0.246868
-0.077053
0.257862
-0.0711803
0.268119
-0.0662986
0.277807
-0.062365
0.287087
-0.0593302
0.296118
-0.0571313
0.305057
-0.0556977
0.314055
-0.0549525
0.323261
-0.0548357
0.331958
-0.0503657
0.339437
-0.0422312
0.345847
-0.0354758
0.351325
-0.0298087
0.355989
-0.0250098
0.359946
-0.0209197
0.363288
-0.0174191
0.366095
-0.0144151
0.368439
-0.0118285
0.370381
-0.00960189
0.371974
-0.00768592
0.373266
-0.00604129
0.374299
-0.0046301
0.375108
-0.00342175
0.375725
-0.00238893
0.376177
-0.00150848
0.376489
-0.000767036
0.376681
-0.000138043
0.376772
0.000386635
0.000824554
0.376778
0.0371724
-0.236507
1.90381e-05
0.0719811
-0.222092
0.104287
-0.206199
0.134059
-0.189895
0.16134
-0.173979
0.186227
-0.158809
0.208859
-0.144583
0.229401
-0.131453
0.24804
-0.119512
0.26497
-0.108811
0.280393
-0.0993676
0.29451
-0.0911702
0.307523
-0.0841935
0.319631
-0.0784063
0.331028
-0.0737624
0.341907
-0.070209
0.352455
-0.0676799
0.362859
-0.0661016
0.373302
-0.0653954
0.383967
-0.0655003
0.39405
-0.0604493
0.402747
-0.0509274
0.410221
-0.0429499
0.416623
-0.0362105
0.422086
-0.0304733
0.42673
-0.0255637
0.430659
-0.0213483
0.433966
-0.0177219
0.436731
-0.0145938
0.439026
-0.011897
0.440914
-0.0095733
0.442448
-0.00757569
0.443678
-0.00585955
0.444644
-0.00438835
0.445385
-0.00312957
0.445932
-0.00205545
0.446313
-0.00114852
0.446554
-0.000378745
0.446675
0.000265216
0.000803606
0.446696
0.0444734
-0.280999
1.82585e-05
0.0861092
-0.263728
0.124746
-0.244836
0.160349
-0.225498
0.192967
-0.206597
0.222715
-0.188558
0.249758
-0.171626
0.274291
-0.155986
0.296534
-0.141755
0.316718
-0.128995
0.335078
-0.117728
0.351854
-0.107946
0.367281
-0.099621
0.381594
-0.092719
0.395021
-0.0871896
0.407788
-0.0829757
0.420116
-0.0800076
0.432224
-0.0782096
0.44433
-0.0775018
0.456653
-0.0778235
0.4683
-0.072096
0.478363
-0.0609904
0.487027
-0.0516145
0.494462
-0.0436447
0.500816
-0.0368278
0.506225
-0.0309729
0.510808
-0.0259312
0.51467
-0.0215839
0.517904
-0.0178278
0.520592
-0.0145849
0.522806
-0.0117871
0.524609
-0.00937862
0.526056
-0.00730723
0.527198
-0.00552962
0.528075
-0.00400724
0.528727
-0.00270708
0.529185
-0.0016068
0.529479
-0.000672495
0.529633
0.000111027
0.00076701
0.52967
0.0532927
-0.334309
1.74009e-05
0.103174
-0.313609
0.149456
-0.291118
0.192099
-0.268141
0.23116
-0.245658
0.266775
-0.224173
0.299139
-0.20399
0.328486
-0.185332
0.355072
-0.168341
0.37917
-0.153093
0.40106
-0.139618
0.421023
-0.127908
0.439335
-0.117934
0.456272
-0.109656
0.472101
-0.103019
0.487087
-0.0979617
0.501489
-0.0944096
0.515564
-0.0922842
0.529567
-0.0915048
0.543756
-0.092012
0.557145
-0.0854855
0.568729
-0.072574
0.578715
-0.0616006
0.587293
-0.052223
0.594634
-0.0441683
0.600889
-0.0372281
0.606194
-0.0312363
0.610669
-0.0260589
0.61442
-0.0215789
0.617541
-0.017706
0.620115
-0.0143606
0.622214
-0.0114774
0.623902
-0.00899522
0.625235
-0.00686312
0.626263
-0.00503553
0.62703
-0.00347356
0.627572
-0.00214918
0.627924
-0.0010241
0.628114
-7.86349e-05
0.000713868
0.628167
0.0639767
-0.398302
1.64616e-05
0.123844
-0.373476
0.179384
-0.346659
0.23055
-0.319306
0.27741
-0.292518
0.320126
-0.266889
0.358928
-0.242792
0.394092
-0.220496
0.425922
-0.200172
0.454742
-0.181913
0.480879
-0.165755
0.504664
-0.151693
0.526424
-0.139693
0.546479
-0.129711
0.565145
-0.121685
0.582728
-0.115545
0.599531
-0.111213
0.615854
-0.108607
0.631992
-0.107644
0.648246
-0.108265
0.663547
-0.100786
0.676796
-0.0858229
0.688228
-0.0730327
0.698056
-0.0620518
0.706474
-0.0525858
0.713652
-0.0444068
0.719745
-0.0373292
0.724889
-0.0312025
0.729204
-0.0258939
0.732797
-0.0212993
0.735763
-0.0173263
0.738184
-0.0138987
0.740134
-0.0109451
0.741677
-0.00840604
0.742869
-0.00622792
0.743761
-0.00436513
0.744395
-0.0027831
0.744809
-0.00143863
0.745038
-0.000306808
0.000642876
0.745109
0.076962
-0.475279
1.54328e-05
0.148963
-0.445477
0.21575
-0.413446
0.277267
-0.380824
0.333597
-0.348848
0.384932
-0.318223
0.431544
-0.289404
0.473761
-0.262713
0.511941
-0.238353
0.546466
-0.216438
0.577723
-0.197012
0.606099
-0.180069
0.631979
-0.165573
0.655738
-0.15347
0.677742
-0.143689
0.698351
-0.136153
0.717913
-0.130776
0.736775
-0.127469
0.75528
-0.126148
0.77377
-0.126755
0.791115
-0.118131
0.806146
-0.100853
0.819124
-0.0860112
0.83029
-0.0732178
0.839859
-0.0621549
0.848025
-0.0525727
0.85496
-0.0442645
0.860819
-0.037061
0.865737
-0.030812
0.869836
-0.0253978
0.873221
-0.0207118
0.875988
-0.0166653
0.878218
-0.0131756
0.879986
-0.0101736
0.881354
-0.00759647
0.88238
-0.00539116
0.883113
-0.00351566
0.883595
-0.00192118
0.883866
-0.000576913
0.000552074
0.883956
0.0928029
-0.568097
1.43031e-05
0.1796
-0.532274
0.260099
-0.493945
0.334234
-0.454959
0.402104
-0.416718
0.463937
-0.380057
0.520058
-0.345524
0.570851
-0.313506
0.616743
-0.284245
0.658182
-0.257877
0.695623
-0.234453
0.729523
-0.213969
0.760331
-0.19638
0.788484
-0.181623
0.814409
-0.169614
0.838521
-0.160266
0.861225
-0.153479
0.882915
-0.14916
0.903985
-0.147218
0.924822
-0.147593
0.944277
-0.137586
0.961147
-0.117723
0.975723
-0.100588
0.988272
-0.0857662
0.999032
-0.0729153
1.00822
-0.0617606
1.01603
-0.0520726
1.02263
-0.0436608
1.02817
-0.036356
1.0328
-0.0300211
1.03662
-0.0245339
1.03974
-0.0197916
1.04227
-0.0156989
1.04427
-0.0121759
1.04582
-0.00914974
1.04699
-0.00655874
1.04783
-0.00435265
1.04838
-0.00247641
1.0487
-0.00089261
0.000438646
1.04881
0.112208
-0.680317
1.30598e-05
0.217124
-0.637191
0.314408
-0.591228
0.403985
-0.544536
0.485973
-0.498706
0.560645
-0.454729
0.628384
-0.413263
0.689646
-0.374769
0.744936
-0.339535
0.79478
-0.30772
0.839713
-0.279387
0.880271
-0.254527
0.916976
-0.233086
0.95034
-0.214987
0.980856
-0.200131
1.009
-0.188411
1.03524
-0.179717
1.06002
-0.173941
1.08379
-0.170984
1.10697
-0.17078
1.12848
-0.159094
1.14715
-0.136388
1.16329
-0.116726
1.17719
-0.0996685
1.18912
-0.0848443
1.19931
-0.0719528
1.20798
-0.0607396
1.21531
-0.0509914
1.22147
-0.0425183
1.22661
-0.0351641
1.23087
-0.0287893
1.23435
-0.0232758
1.23717
-0.0185147
1.23941
-0.0144138
1.24114
-0.0108894
1.24246
-0.00787017
1.2434
-0.00529694
1.24403
-0.0031076
1.2444
-0.00125754
0.000298723
1.24454
0.136088
-0.816417
1.16919e-05
0.263293
-0.764396
0.381218
-0.709153
0.489778
-0.653096
0.589117
-0.598045
0.679558
-0.54517
0.761556
-0.495261
0.835652
-0.448865
0.902438
-0.406321
0.962536
-0.367818
1.01657
-0.333424
1.06517
-0.303128
1.10895
-0.276861
1.14849
-0.254527
1.18436
-0.236004
1.21711
-0.221164
1.24727
-0.209874
1.27534
-0.20201
1.30181
-0.197457
1.32717
-0.196139
1.35048
-0.182403
1.37073
-0.156633
1.38825
-0.134247
1.40335
-0.114774
1.41632
-0.0978156
1.42742
-0.0830439
1.43685
-0.0701784
1.44484
-0.0589812
1.45157
-0.0492406
1.45718
-0.0407797
1.46183
-0.0334409
1.46565
-0.0270893
1.46873
-0.0216014
1.47119
-0.0168716
1.47311
-0.0128049
1.47456
-0.00931936
1.47561
-0.00634608
1.47631
-0.00381532
1.47673
-0.00167482
0.000127144
1.4769
0.165626
-0.982053
1.01821e-05
0.320387
-0.919157
0.463822
-0.852589
0.595837
-0.785111
0.716603
-0.718812
0.826509
-0.655075
0.926092
-0.594844
1.01599
-0.538764
1.09691