/*--------------------------------*- C++ -*----------------------------------*\
  =========                 |
  \\      /  F ield         | OpenFOAM: The Open Source CFD Toolbox
   \\    /   O peration     | Website:  https://openfoam.org
    \\  /    A nd           | Version:  10
     \\/     M anipulation  |
\*---------------------------------------------------------------------------*/
FoamFile
{
    format      ascii;
    class       volVectorField;
    location    "176";
    object      U;
}
// * * * * * * * * * * * * * * * * * * * * * * * * * * * * * * * * * * * * * //

dimensions      [0 1 -1 0 0 0 0];

internalField   nonuniform List<vector> 
7100
(
(5.6037 5.05311 9.0917e-17)
(8.88444 14.1293 -5.87953e-17)
(14.5183 19.3337 -5.9172e-19)
(19.7234 20.116 -7.14611e-19)
(23.755 18.5336 -1.8399e-16)
(26.6737 15.9977 1.83969e-16)
(28.6253 13.3756 2.96798e-15)
(29.871 11.0424 1.87269e-16)
(30.6374 9.08591 -3.19815e-15)
(31.0837 7.47367 -3.0026e-15)
(31.3128 6.14097 0)
(31.3932 5.0226 -2.93007e-15)
(31.3686 4.06764 -2.69666e-15)
(31.2679 3.23572 -1.76031e-16)
(31.1105 2.4926 -2.92367e-15)
(30.9065 1.80938 1.6753e-16)
(30.6588 1.15943 -1.62542e-16)
(30.3577 0.518785 1.57092e-16)
(29.9779 -0.12545 7.93773e-21)
(29.4771 -0.785096 4.67612e-15)
(28.8631 -1.41348 1.46982e-16)
(28.2207 -1.91623 -1.53721e-16)
(27.6036 -2.27505 0)
(27.0307 -2.5232 5.40425e-15)
(26.5064 -2.69132 1.24782e-20)
(26.028 -2.80251 -5.85365e-15)
(25.5907 -2.87306 -2.73655e-15)
(25.1888 -2.91448 1.03992e-20)
(24.816 -2.93476 -9.58418e-17)
(24.4663 -2.93961 0)
(24.134 -2.93277 1.60005e-15)
(23.8138 -2.9169 0)
(23.5003 -2.89366 0)
(23.1873 -2.86387 5.28679e-17)
(22.8687 -2.82755 8.33765e-16)
(22.5321 -2.78378 -2.73638e-17)
(22.1737 -2.72973 0)
(21.7399 -2.65966 1.42018e-17)
(21.2913 -2.55012 -2.46726e-16)
(20.432 -2.3642 8.2112e-21)
(8.58802 3.57366 0)
(11.5672 9.70895 5.77535e-16)
(16.8573 13.3852 1.11549e-15)
(22.4818 14.2301 1.13006e-15)
(26.9274 13.2645 0)
(29.762 11.6884 -2.27467e-15)
(31.3913 10.0922 2.24793e-15)
(32.2874 8.64967 0)
(32.7634 7.38105 1.90886e-15)
(32.9951 6.26769 2.68055e-15)
(33.0791 5.28325 -7.47921e-21)
(33.0685 4.40518 -2.31169e-15)
(32.9937 3.61028 2.00706e-15)
(32.8719 2.88104 -1.95856e-15)
(32.7119 2.19955 0)
(32.516 1.54865 -1.85433e-15)
(32.2797 0.911194 0)
(31.9875 0.271981 8.60149e-16)
(31.6112 -0.380269 -8.24894e-16)
(31.1087 -1.03725 0)
(30.4823 -1.638 -9.97587e-17)
(29.8196 -2.10516 6.87823e-15)
(29.1895 -2.43203 -1.11631e-16)
(28.6082 -2.65557 -3.74923e-15)
(28.0776 -2.80554 1.22418e-16)
(27.5942 -2.90306 4.07754e-15)
(27.1527 -2.96277 4.22925e-15)
(26.7474 -2.99506 6.83389e-17)
(26.3721 -3.00699 -7.04517e-17)
(26.0208 -3.00372 0)
(25.688 -2.98831 1.11553e-15)
(25.3685 -2.96291 7.61903e-17)
(25.0573 -2.92853 -3.89694e-17)
(24.7486 -2.88513 3.98022e-17)
(24.4369 -2.83137 -1.29943e-15)
(24.1119 -2.76462 0)
(23.771 -2.67689 0)
(23.3801 -2.56131 -3.43329e-16)
(22.9915 -2.35457 1.79665e-16)
(22.4421 -2.11926 1.71801e-16)
(11.8355 2.55541 0)
(13.4169 7.34775 0)
(16.5863 11.2579 7.01845e-16)
(20.7229 13.4525 1.02003e-16)
(24.7856 13.8366 2.06588e-16)
(28.0397 12.954 1.66505e-15)
(30.3148 11.4877 -1.87455e-15)
(31.7771 9.90283 0)
(32.6722 8.414 -2.05629e-16)
(33.1989 7.08589 2.03368e-16)
(33.4899 5.92036 0)
(33.6286 4.89873 1.57628e-15)
(33.6668 3.99473 -1.54943e-15)
(33.6364 3.18312 2.85242e-15)
(33.5562 2.43901 1.86527e-16)
(33.4344 1.73923 1.45991e-15)
(33.2678 1.06169 0)
(33.0417 0.387171 -6.89972e-16)
(32.7297 -0.296053 -5.02246e-16)
(32.2915 -0.984681 1.62238e-16)
(31.723 -1.61682 -1.6478e-16)
(31.1036 -2.11109 -1.10231e-14)
(30.5037 -2.46215 0)
(29.9444 -2.7066 3.09293e-15)
(29.4306 -2.87374 3.22254e-15)
(28.9607 -2.98491 -3.34344e-15)
(28.5304 -3.05513 -1.83619e-15)
(28.1348 -3.09519 -1.22262e-20)
(27.7684 -3.1125 1.94443e-15)
(27.4255 -3.11237 -5.86221e-17)
(27.1012 -3.09798 -1.79867e-15)
(26.7907 -3.07139 -1.04067e-15)
(26.4896 -3.03332 6.24005e-17)
(26.1929 -2.98331 -6.35064e-17)
(25.8964 -2.91916 1.03277e-15)
(25.5927 -2.83711 3.27613e-17)
(25.2829 -2.72752 2.49123e-16)
(24.948 -2.58165 2.35411e-16)
(24.6444 -2.35374 1.69596e-17)
(24.271 -2.08507 0)
(14.6313 1.84526 4.34839e-17)
(15.5212 5.47672 -2.79494e-16)
(17.4581 8.85067 -4.73234e-16)
(20.451 11.3039 -1.60307e-16)
(23.9287 12.3581 -1.30212e-15)
(27.1328 12.1216 0)
(29.6196 11.0929 0)
(31.3379 9.75731 0)
(32.4483 8.40041 1.31358e-15)
(33.1394 7.13978 0)
(33.5536 6.00646 0)
(33.7862 4.99713 -9.41256e-16)
(33.898 4.09404 6.15075e-16)
(33.9278 3.27734 -2.10879e-15)
(33.8992 2.52538 -2.94887e-16)
(33.8243 1.81681 2.88365e-16)
(33.7038 1.1307 1.40824e-15)
(33.5265 0.448124 -2.75011e-16)
(33.2684 -0.243642 1.34445e-16)
(32.8906 -0.942615 -2.23279e-15)
(32.3845 -1.588 0)
(31.8188 -2.09771 4.73586e-15)
(31.2624 -2.46252 2.53057e-20)
(30.7391 -2.71768 -1.59266e-16)
(30.2552 -2.89261 -2.65613e-15)
(29.8108 -3.00911 -1.08722e-21)
(29.4029 -3.08254 1.4205e-15)
(29.0273 -3.12392 0)
(28.6793 -3.14086 -4.35408e-21)
(28.354 -3.13867 -9.58267e-17)
(28.047 -3.12056 9.77992e-16)
(27.7542 -3.08842 5.97797e-16)
(27.472 -3.04274 1.51977e-16)
(27.1966 -2.98276 -5.1432e-17)
(26.9253 -2.90593 -4.17096e-16)
(26.6541 -2.80832 -2.11061e-16)
(26.3869 -2.68133 -6.18923e-21)
(26.1168 -2.51975 -2.15162e-16)
(25.8856 -2.29706 0)
(25.6382 -2.05288 0)
(16.9735 1.35631 -1.4338e-16)
(17.4861 4.11247 9.96879e-16)
(18.6133 6.87102 -2.61322e-16)
(20.5836 9.2715 1.31767e-16)
(23.2668 10.8149 -3.71572e-19)
(26.1469 11.2526 0)
(28.6904 10.7602 0)
(30.6303 9.7312 1.0827e-15)
(31.9718 8.51147 -2.16142e-15)
(32.8487 7.2979 -1.07386e-15)
(33.4025 6.16982 -1.32652e-15)
(33.7381 5.14826 2.61176e-15)
(33.927 4.22768 -2.56025e-16)
(34.0157 3.39305 1.25236e-15)
(34.0336 2.62497 -2.44621e-16)
(33.9972 1.90294 9.55473e-16)
(33.9112 1.20622 -9.33157e-16)
(33.7682 0.515624 0)
(33.5472 -0.182339 2.23393e-16)
(33.2125 -0.886888 1.75301e-15)
(32.755 -1.53847 0)
(32.237 -2.05494 -2.41981e-16)
(31.7218 -2.42674 5.12739e-16)
(31.2345 -2.68792 -2.6915e-16)
(30.7811 -2.86805 0)
(30.3632 -2.98859 4.64931e-15)
(29.9787 -3.06484 -1.49613e-16)
(29.6245 -3.1078 -1.07442e-15)
(29.2964 -3.12506 -1.25559e-15)
(28.9903 -3.12185 0)
(28.7022 -3.10136 6.51479e-16)
(28.429 -3.06532 0)
(28.1678 -3.01414 0)
(27.9162 -2.947 -2.54647e-16)
(27.673 -2.86156 2.57343e-16)
(27.4372 -2.75466 1.7309e-16)
(27.214 -2.62065 -1.74374e-16)
(27.0034 -2.45793 8.48713e-21)
(26.8328 -2.25538 1.09902e-17)
(26.675 -2.03982 7.75389e-17)
(18.9461 1.00938 -6.12857e-17)
(19.2651 3.11409 -5.14253e-16)
(19.9137 5.27851 1.11751e-16)
(21.1359 7.39384 8.93662e-16)
(23.0245 9.09527 8.97063e-16)
(25.3861 10.0366 0)
(27.7769 10.1021 0)
(29.8237 9.48512 -1.80844e-15)
(31.3655 8.49602 9.02998e-16)
(32.4322 7.38688 1.79892e-15)
(33.1338 6.29627 1.33907e-15)
(33.5783 5.2806 4.41443e-16)
(33.8472 4.35239 0)
(33.9952 3.50545 0)
(34.0581 2.72472 -4.15974e-16)
(34.0568 1.99156 -4.0582e-16)
(33.9997 1.28619 0)
(33.8827 0.589759 0)
(33.688 -0.111564 9.4504e-17)
(33.3831 -0.81795 -9.26868e-16)
(32.9598 -1.47129 0)
(32.4762 -1.99087 0)
(31.9924 -2.36686 -2.17079e-16)
(31.5333 -2.63212 -1.36772e-15)
(31.1058 -2.8157 -4.75418e-16)
(30.7109 -2.93895 -1.47805e-15)
(30.3476 -3.01688 -2.28089e-15)
(30.0131 -3.06038 2.07544e-15)
(29.7039 -3.07702 0)
(29.4162 -3.07197 0)
(29.147 -3.0484 -5.4636e-16)
(28.8936 -3.00806 5.53429e-16)
(28.6542 -2.95146 0)
(28.4275 -2.87813 2.82443e-16)
(28.2136 -2.78659 -2.84642e-16)
(28.0134 -2.6752 1.07385e-16)
(27.8319 -2.54179 7.19221e-17)
(27.6716 -2.38774 1.26203e-16)
(27.5484 -2.21157 5.41243e-17)
(27.4471 -2.0303 -7.26636e-17)
(20.6165 0.758946 -1.07035e-16)
(20.8289 2.38749 -3.00217e-16)
(21.209 4.05854 3.89977e-16)
(21.936 5.79767 -7.74754e-16)
(23.1783 7.41585 -7.72905e-16)
(24.9353 8.61151 3.86383e-16)
(26.986 9.14735 7.7245e-16)
(28.9767 8.99353 1.15632e-15)
(30.6444 8.33062 -3.84109e-16)
(31.8921 7.40118 -3.82024e-16)
(32.7571 6.39132 1.51822e-15)
(33.3271 5.40327 -1.1278e-15)
(33.687 4.47767 -3.71373e-16)
(33.9008 3.62283 3.65428e-16)
(34.0118 2.83115 1.07451e-15)
(34.0465 2.08773 0)
(34.0175 1.37442 0)
(33.924 0.673154 -3.32912e-16)
(33.7514 -0.0299664 4.06648e-16)
(33.4703 -0.736077 6.37421e-16)
(33.0733 -1.38892 0)
(32.6157 -1.90961 3.49718e-16)
(32.1552 -2.28793 1.47767e-15)
(31.7164 -2.55569 -1.93532e-15)
(31.3083 -2.7411 -2.01434e-16)
(30.9309 -2.86564 4.16945e-16)
(30.584 -2.94408 -2.14504e-16)
(30.2653 -2.98718 -1.09556e-15)
(29.9717 -3.00251 2.22993e-16)
(29.7 -2.99524 1.13181e-16)
(29.4477 -2.96862 2.29215e-16)
(29.2128 -2.92457 -6.95033e-16)
(28.9942 -2.86397 -2.33736e-16)
(28.7915 -2.78706 1.17704e-16)
(28.6056 -2.69361 -5.91791e-17)
(28.4379 -2.58371 -5.9405e-17)
(28.2923 -2.45804 -1.19076e-16)
(28.1708 -2.31982 -1.19128e-16)
(28.0814 -2.17179 4.46147e-17)
(28.0144 -2.0246 7.48221e-17)
(22.039 0.574702 -9.46117e-17)
(22.1908 1.85199 4.43251e-16)
(22.4247 3.13978 -3.44445e-16)
(22.8534 4.51385 6.80418e-16)
(23.6285 5.91053 3.37632e-16)
(24.8399 7.13804 4.01933e-20)
(26.4359 7.9629 -3.34676e-16)
(28.2016 8.22793 -1.3329e-15)
(29.8647 7.94891 1.32627e-15)
(31.239 7.28289 -2.58941e-19)
(32.265 6.41818 -1.96052e-15)
(32.9774 5.49628 0)
(33.4465 4.59394 0)
(33.7395 3.74156 -6.30661e-16)
(33.9072 2.94379 6.20177e-16)
(33.9828 2.19215 0)
(33.9844 1.47198 1.18802e-15)
(33.9151 0.766792 -5.79852e-16)
(33.7643 0.0630027 -2.8327e-16)
(33.5056 -0.641291 2.77289e-16)
(33.1326 -1.29183 8.51797e-16)
(32.698 -1.81194 1.20541e-15)
(32.2576 -2.1913 -1.26709e-15)
(31.8359 -2.46061 1.32211e-15)
(31.4432 -2.64723 -1.7138e-15)
(31.0798 -2.77246 7.07248e-16)
(30.746 -2.85094 1.08988e-15)
(30.4401 -2.89333 -1.85311e-16)
(30.1594 -2.9072 1.88059e-16)
(29.9014 -2.89779 -3.80774e-16)
(29.6641 -2.86861 -3.84622e-16)
(29.446 -2.82192 3.8778e-16)
(29.2465 -2.75923 -1.95124e-16)
(29.0657 -2.68167 -2.94065e-16)
(28.9045 -2.59032 -5.18262e-21)
(28.7642 -2.48677 1.47678e-16)
(28.6468 -2.37346 4.92273e-17)
(28.553 -2.25419 5.48043e-21)
(28.4858 -2.1327 -9.79431e-17)
(28.438 -2.01575 -4.92529e-17)
(23.2547 0.437489 0)
(23.3702 1.45291 -3.02629e-20)
(23.5239 2.45056 3.0592e-16)
(23.7827 3.51874 -9.02912e-16)
(24.2543 4.65413 -2.97138e-16)
(25.0435 5.76694 0)
(26.187 6.68745 -5.8466e-16)
(27.6121 7.24106 5.81397e-16)
(29.126 7.32631 5.77286e-16)
(30.522 6.97934 -5.73267e-16)
(31.6665 6.33129 0)
(32.5202 5.52989 -1.12449e-15)
(33.1136 4.68398 0)
(33.5028 3.85265 -5.47702e-16)
(33.7408 3.05859 -1.61727e-15)
(33.867 2.30369 1.05887e-15)
(33.9052 1.57907 -1.03763e-15)
(33.8641 0.871344 1.52286e-15)
(33.7372 0.168156 2.48262e-16)
(33.5022 -0.532897 0)
(33.1539 -1.17955 -9.91579e-16)
(32.7425 -1.69773 -1.04558e-15)
(32.322 -2.07721 1.09295e-15)
(31.9173 -2.34737 1.41853e-15)
(31.5389 -2.53489 1.75756e-15)
(31.189 -2.66039 3.01035e-16)
(30.8675 -2.73872 -6.16377e-16)
(30.5736 -2.7804 0)
(30.3052 -2.79306 0)
(30.0602 -2.78215 6.41533e-16)
(29.8371 -2.75149 -3.2304e-16)
(29.6349 -2.70389 0)
(29.4532 -2.64157 3.25948e-16)
(29.292 -2.5666 7.01548e-21)
(29.1519 -2.4811 0)
(29.0331 -2.38761 0)
(28.9363 -2.28927 0)
(28.8606 -2.18949 1.2152e-16)
(28.8065 -2.09184 -4.02684e-17)
(28.7679 -1.9997 4.0472e-17)
(24.2966 0.334163 -1.50305e-16)
(24.3893 1.15167 -1.40925e-16)
(24.4978 1.92972 0)
(24.6622 2.75807 0)
(24.9513 3.65283 1.05074e-15)
(25.4484 4.58485 -1.55599e-15)
(26.222 5.46178 0)
(27.2757 6.14231 2.63628e-19)
(28.5328 6.49793 1.01134e-15)
(29.8283 6.46466 1.0024e-15)
(31.0063 6.08413 -9.93266e-16)
(31.9667 5.46418 1.96465e-15)
(32.6829 4.72116 -1.92087e-19)
(33.1803 3.93993 -1.9139e-15)
(33.5032 3.1664 9.41902e-16)
(33.6924 2.41762 7.12322e-20)
(33.7768 1.69364 3.27594e-20)
(33.7703 0.986264 2.54173e-20)
(33.672 0.285629 0)
(33.4639 -0.410416 -4.00838e-16)
(33.1428 -1.05154 8.69172e-16)
(32.7568 -1.56638 4.55162e-16)
(32.3577 -1.94509 -9.45729e-16)
(31.9713 -2.21552 -9.76742e-16)
(31.6082 -2.40365 -1.0037e-15)
(31.2725 -2.52941 5.13556e-16)
(30.9641 -2.60771 5.23662e-16)
(30.6828 -2.64903 -5.32343e-16)
(30.4272 -2.66116 -2.68853e-16)
(30.1957 -2.64981 -2.70412e-16)
(29.9871 -2.61923 2.71488e-16)
(29.8005 -2.5728 -2.72131e-16)
(29.6355 -2.51346 4.08479e-16)
(29.4918 -2.44399 1.3606e-16)
(29.3692 -2.36716 5.48504e-21)
(29.267 -2.28582 -1.35213e-16)
(29.1847 -2.20302 0)
(29.1202 -2.12124 3.33885e-17)
(29.0731 -2.04366 3.31056e-17)
(29.0383 -1.97227 -3.32427e-17)
(25.1908 0.255771 0)
(25.2679 0.920723 7.54472e-16)
(25.3504 1.53273 -4.84895e-16)
(25.4622 2.17741 0)
(25.6461 2.87402 9.29372e-16)
(25.9582 3.62036 9.15005e-16)
(26.4614 4.37767 9.03899e-16)
(27.197 5.05979 -1.79017e-15)
(28.1519 5.55396 8.87118e-16)
(29.2506 5.7647 0)
(30.3595 5.65319 -8.70437e-16)
(31.3569 5.25934 -2.10468e-19)
(32.1669 4.67091 -1.70056e-15)
(32.7702 3.97976 8.38527e-16)
(33.1871 3.25256 1.18843e-19)
(33.4512 2.52528 0)
(33.5925 1.81092 -7.96444e-16)
(33.6294 1.10914 0)
(33.5661 0.414407 -1.53379e-15)
(33.3899 -0.274114 -2.35794e-17)
(33.0999 -0.907564 7.62477e-16)
(32.7423 -1.41745 -7.9304e-16)
(32.3674 -1.79425 0)
(32.0013 -2.06441 0)
(31.6559 -2.25281 0)
(31.3356 -2.37908 -4.38023e-16)
(31.042 -2.4576 -4.44844e-16)
(30.7748 -2.4992 4.50535e-16)
(30.5332 -2.51179 4.54662e-16)
(30.3161 -2.50141 -2.27955e-16)
(30.1223 -2.47275 -2.28145e-16)
(29.951 -2.42972 2.27989e-16)
(29.8016 -2.37575 -1.1376e-16)
(29.6731 -2.31404 0)
(29.5646 -2.24746 0)
(29.4747 -2.17877 0)
(29.4021 -2.11072 -5.55841e-17)
(29.3446 -2.04526 -5.50521e-17)
(29.3007 -1.98408 0)
(29.2669 -1.92892 0)
(25.9584 0.195889 5.99237e-17)
(26.0244 0.741514 -4.48416e-16)
(26.091 1.22653 8.62039e-16)
(26.1731 1.73139 8.39531e-16)
(26.2967 2.27276 -2.46381e-15)
(26.4976 2.85755 -1.61273e-15)
(26.8217 3.47464 1.03836e-19)
(27.3143 4.08221 3.14302e-15)
(27.998 4.60501 -4.66783e-15)
(28.8522 4.95437 1.54137e-15)
(29.8078 5.05887 2.28821e-15)
(30.7562 4.89526 -7.54841e-16)
(31.6019 4.49951 -2.98111e-15)
(32.286 3.94224 1.47036e-15)
(32.7938 3.29593 1.44776e-15)
(33.1395 2.6132 -1.42366e-15)
(33.3472 1.92271 -1.39815e-15)
(33.4365 1.23518 2.84876e-20)
(33.4157 0.551777 1.34743e-15)
(33.2776 -0.125461 0)
(33.0236 -0.748382 0)
(32.6984 -1.25115 0)
(32.351 -1.62466 7.08154e-16)
(32.0082 -1.89375 -1.08487e-15)
(31.6828 -2.08221 7.36026e-16)
(31.3804 -2.20902 -1.49313e-15)
(31.1032 -2.28841 1.1328e-15)
(30.8519 -2.33111 0)
(30.6257 -2.34536 0)
(30.4237 -2.33749 0)
(30.245 -2.31259 1.91672e-16)
(30.0885 -2.27488 0)
(29.9531 -2.22806 0)
(29.8375 -2.1754 -1.88914e-16)
(29.7403 -2.11972 -6.00886e-21)
(29.6596 -2.06349 2.78687e-16)
(29.5936 -2.00868 -9.19217e-17)
(29.5403 -1.95685 0)
(29.4978 -1.90873 0)
(29.4636 -1.86588 2.24152e-17)
(26.6167 0.149904 -4.80608e-16)
(26.6742 0.600818 3.98916e-16)
(26.7305 0.987641 -7.64535e-16)
(26.795 1.3856 7.42214e-16)
(26.8838 1.80761 1.44828e-15)
(27.0191 2.26214 1.03795e-19)
(27.2313 2.74963 6.9773e-16)
(27.5563 3.25376 -1.37724e-15)
(28.026 3.73413 6.81021e-16)
(28.651 4.12724 -1.3484e-15)
(29.4079 4.36348 -1.33487e-15)
(30.2352 4.38915 -1.32021e-15)
(31.0448 4.19069 2.60933e-15)
(31.7609 3.79903 -2.42771e-19)
(32.3373 3.27057 -1.26827e-15)
(32.7606 2.66242 0)
(33.0395 2.01649 -5.58981e-20)
(33.1886 1.35644 6.01932e-16)
(33.2179 0.692788 -1.18234e-15)
(33.1244 0.0324522 -6.63589e-20)
(32.9119 -0.575974 2.33721e-15)
(32.6234 -1.06884 -2.39752e-15)
(32.3073 -1.4372 1.2226e-15)
(31.9911 -1.70417 9.31799e-16)
(31.6887 -1.89223 -1.25841e-15)
(31.4068 -2.01969 9.53438e-16)
(31.1482 -2.10049 6.40659e-16)
(30.9142 -2.1453 -6.44231e-16)
(30.7045 -2.16249 0)
(30.5184 -2.15866 0)
(30.3547 -2.13909 1.61077e-16)
(30.2122 -2.10821 -3.20145e-16)
(30.0896 -2.0697 0)
(29.9851 -2.02672 0)
(29.8969 -1.98173 0)
(29.8231 -1.93681 1.54196e-16)
(29.7618 -1.89335 -1.14167e-16)
(29.7111 -1.85259 0)
(29.6693 -1.81475 -9.07122e-22)
(29.6347 -1.78117 1.84348e-17)
(27.1804 0.114467 0)
(27.2311 0.489111 1.76929e-16)
(27.2798 0.799145 -6.7612e-16)
(27.3333 1.11472 -1.03262e-19)
(27.4013 1.44525 6.36745e-16)
(27.4976 1.79817 6.22344e-16)
(27.6416 2.17771 -6.11063e-16)
(27.8583 2.57965 6.02028e-16)
(28.1752 2.98558 -1.18912e-15)
(28.6142 3.3587 3.52964e-15)
(29.1782 3.64627 -1.1642e-15)
(29.8435 3.79338 5.6637e-19)
(30.5559 3.75974 -1.13819e-15)
(31.2441 3.53768 3.37202e-15)
(31.8477 3.15303 -2.21545e-15)
(32.3287 2.65041 3.12589e-19)
(32.674 2.07507 2.14407e-15)
(32.8861 1.46111 0)
(32.9713 0.829572 0)
(32.9285 0.194323 -1.01655e-15)
(32.7629 -0.394081 1.01921e-15)
(32.5158 -0.873273 -1.03888e-15)
(32.2348 -1.23401 9.21909e-16)
(31.9488 -1.49738 0)
(31.6726 -1.68439 -1.07475e-15)
(31.4138 -1.81248 8.1116e-16)
(31.176 -1.89517 -2.71593e-16)
(30.961 -1.94299 5.44568e-16)
(30.7689 -1.96433 -5.4489e-16)
(30.5991 -1.96583 0)
(30.4502 -1.95285 0)
(30.321 -1.92975 6.71492e-17)
(30.2098 -1.90003 2.66012e-16)
(30.1149 -1.86657 -2.63136e-16)
(30.0343 -1.83148 0)
(29.9661 -1.79646 3.20641e-17)
(29.9085 -1.76257 0)
(29.8601 -1.73074 -3.10747e-17)
(29.819 -1.70105 -3.05181e-17)
(29.7843 -1.67457 0)
(27.6618 0.0871236 -6.72818e-16)
(27.7066 0.399492 2.19e-15)
(27.7494 0.648851 5.78316e-21)
(27.7953 0.900304 -1.15075e-15)
(27.8503 1.16044 0)
(27.9227 1.43504 -1.0893e-15)
(28.0251 1.72892 2.13445e-15)
(28.1737 2.04272 -2.09949e-15)
(28.3887 2.36944 1.03532e-15)
(28.6909 2.69056 -2.04685e-15)
(29.0946 2.97358 0)
(29.5979 3.17489 1.00159e-15)
(30.1775 3.25123 2.97043e-15)
(30.7869 3.17243 -1.95594e-15)
(31.368 2.93438 0)
(31.8715 2.5581 9.49617e-16)
(32.2652 2.07904 0)
(32.5348 1.53354 9.18087e-16)
(32.6774 0.950743 0)
(32.6898 0.352036 -8.86474e-16)
(32.576 -0.208731 0)
(32.3746 -0.669216 1.79572e-15)
(32.1327 -1.01904 -1.69897e-15)
(31.8802 -1.27681 -9.12433e-16)
(31.6333 -1.4617 -1.14685e-16)
(31.4001 -1.59011 1.03458e-15)
(31.1852 -1.67496 1.15118e-16)
(30.9908 -1.72645 9.20741e-16)
(30.8173 -1.75279 5.36963e-20)
(30.6639 -1.76051 -9.15809e-16)
(30.5297 -1.7548 1.1389e-16)
(30.4132 -1.73981 -5.64325e-17)
(30.3126 -1.71879 0)
(30.2263 -1.69428 0)
(30.1524 -1.66811 -5.43236e-17)
(30.0893 -1.64168 -2.67564e-17)
(30.0353 -1.61585 -1.0528e-16)
(29.9892 -1.59135 1.55103e-16)
(29.9494 -1.56829 0)
(29.9154 -1.54748 0)
(28.0714 0.0660472 -2.97011e-16)
(28.1111 0.32691 8.27014e-16)
(28.1488 0.527883 -1.57155e-15)
(28.1889 0.728936 -1.51253e-15)
(28.235 0.93449 9.76523e-16)
(28.2922 1.14879 -9.50338e-16)
(28.3685 1.37612 2.78841e-15)
(28.4744 1.61863 1.82528e-15)
(28.6236 1.87449 -3.59618e-15)
(28.8319 2.13538 -8.87511e-16)
(29.1147 2.38367 -8.77344e-16)
(29.4808 2.59099 -8.67673e-16)
(29.9249 2.72156 0)
(30.425 2.74148 -8.47456e-16)
(30.9412 2.6282 -4.17969e-15)
(31.426 2.37967 2.47106e-15)
(31.8382 2.01315 0)
(32.1491 1.55701 -2.39023e-15)
(32.3434 1.04194 1.56666e-15)
(32.4113 0.494405 2.30847e-15)
(32.352 -0.0286547 -1.53398e-15)
(32.1997 -0.463796 0)
(32.0002 -0.798361 0)
(31.7844 -1.04776 0)
(31.5696 -1.22893 7.32432e-17)
(31.3645 -1.35691 -1.66069e-15)
(31.1743 -1.44375 1.36597e-15)
(31.0018 -1.49911 9.73266e-17)
(30.8475 -1.53081 -7.7559e-16)
(30.711 -1.54506 8.19662e-16)
(30.5912 -1.54677 -9.57826e-17)
(30.487 -1.53975 0)
(30.3967 -1.52697 0)
(30.3187 -1.51066 0)
(30.2514 -1.49243 -3.18905e-16)
(30.1934 -1.47347 5.15472e-16)
(30.1432 -1.45455 -1.7618e-16)
(30.0999 -1.43628 -6.43253e-22)
(30.0621 -1.41883 2.11707e-17)
(30.0294 -1.4028 -2.09697e-17)
(28.4184 0.0498533 2.61292e-16)
(28.4534 0.26764 2.42027e-16)
(28.4866 0.429732 0)
(28.5219 0.590806 0)
(28.5613 0.753686 8.51169e-16)
(28.6082 0.921364 7.94315e-20)
(28.6674 1.09733 -4.03655e-15)
(28.746 1.28393 3.16592e-15)
(28.8528 1.48134 1.55692e-15)
(28.9989 1.68625 7.67619e-16)
(29.1966 1.88985 -7.58055e-16)
(29.4569 2.07575 0)
(29.7842 2.21954 -1.4813e-15)
(30.1711 2.29225 7.31567e-16)
(30.5972 2.26739 7.21848e-16)
(31.0286 2.12813 -1.42251e-15)
(31.4252 1.8741 2.80097e-15)
(31.7521 1.51951 -1.37723e-15)
(31.9832 1.08878 2.70765e-15)
(32.1003 0.608141 -2.65951e-15)
(32.0947 0.134813 2.64487e-15)
(31.9929 -0.266709 -2.65699e-15)
(31.8379 -0.580444 -3.32706e-16)
(31.6612 -0.817799 -1.49759e-15)
(31.4805 -0.992903 1.35066e-15)
(31.3054 -1.11903 0)
(31.1415 -1.20708 8.26887e-17)
(30.9918 -1.2659 1.23504e-15)
(30.8574 -1.3027 -1.31012e-15)
(30.738 -1.32322 -8.13391e-17)
(30.6329 -1.33196 0)
(30.5409 -1.33236 -5.9959e-16)
(30.4607 -1.32709 1.26459e-15)
(30.3911 -1.31814 -6.2322e-16)
(30.3305 -1.30694 0)
(30.2779 -1.29455 1.88476e-17)
(30.232 -1.28167 1.85089e-17)
(30.192 -1.26885 -1.8153e-17)
(30.157 -1.25634 -3.55571e-17)
(30.1264 -1.24457 1.75509e-17)
(28.7108 0.0374746 0)
(28.7415 0.218915 1.48197e-15)
(28.7706 0.34958 1.60119e-15)
(28.8017 0.478693 -6.13491e-15)
(28.8358 0.607939 4.43765e-15)
(28.8749 0.739357 -7.1727e-16)
(28.9225 0.875692 1.39862e-15)
(28.9828 1.01901 2.73819e-15)
(29.0618 1.1701 -2.61294e-19)
(29.1669 1.32789 -5.29766e-15)
(29.3069 1.48821 -5.22619e-15)
(29.491 1.64219 1.03232e-14)
(29.7265 1.77491 -3.82477e-15)
(30.0146 1.86579 3.77669e-15)
(30.3467 1.89159 -9.93831e-15)
(30.7038 1.83178 8.57061e-15)
(31.0567 1.67427 -1.20589e-15)
(31.3714 1.41979 -1.18576e-15)
(31.6176 1.08188 -2.33025e-15)
(31.7705 0.680878 2.28771e-15)
(31.8121 0.269223 1.02271e-20)
(31.7587 -0.0895688 -1.70593e-15)
(31.6483 -0.37591 -2.27264e-15)
(31.5115 -0.596626 2.12614e-15)
(31.3661 -0.762481 -2.26139e-15)
(31.2221 -0.884557 2.18234e-15)
(31.0853 -0.972277 -1.08613e-15)
(30.9592 -1.03341 1.11484e-15)
(30.845 -1.07439 -1.11191e-15)
(30.743 -1.10032 2.23269e-15)
(30.6526 -1.11521 -1.08961e-15)
(30.573 -1.12214 -3.37148e-17)
(30.5032 -1.12346 0)
(30.4421 -1.12095 0)
(30.3887 -1.1159 -5.17933e-16)
(30.3418 -1.10925 5.09087e-16)
(30.3008 -1.10169 2.3432e-16)
(30.2647 -1.0937 -1.22561e-16)
(30.233 -1.0856 -1.2005e-16)
(30.205 -1.07768 0)
(28.9557 0.0280754 -7.99356e-16)
(28.9824 0.178663 1.84496e-16)
(29.0077 0.283823 2.78487e-15)
(29.0349 0.387232 -5.32402e-15)
(29.0645 0.489787 1.28151e-15)
(29.0977 0.592837 6.20588e-15)
(29.1366 0.698503 -4.83311e-15)
(29.1843 0.80846 0)
(29.2444 0.923574 2.3176e-15)
(29.322 1.04365 -3.41964e-15)
(29.423 1.16679 -4.49318e-15)
(29.5544 1.28831 3.32531e-15)
(29.7225 1.39961 0)
(29.9316 1.48754 2.16031e-15)
(30.1806 1.53499 -5.32762e-15)
(30.4602 1.52358 3.15046e-15)
(30.7526 1.43789 -3.1009e-15)
(31.0326 1.26943 4.06608e-15)
(31.2709 1.02145 0)
(31.4407 0.705458 9.80211e-16)
(31.5173 0.364079 0)
(31.5059 0.0561018 -4.85482e-16)
(31.4371 -0.19624 2.17861e-15)
(31.3388 -0.395226 -1.92931e-15)
(31.2282 -0.547996 2.40112e-16)
(31.1151 -0.663097 1.79173e-16)
(31.0055 -0.748199 -2.96902e-17)
(30.903 -0.809805 -1.88793e-15)
(30.8091 -0.853364 1.90711e-15)
(30.7244 -0.883286 -9.36774e-16)
(30.6488 -0.903024 9.2107e-16)
(30.5817 -0.915255 0)
(30.5225 -0.922028 1.40869e-17)
(30.4702 -0.924899 0)
(30.4242 -0.925043 4.24879e-16)
(30.3835 -0.923313 -4.446e-16)
(30.3477 -0.920333 1.9848e-16)
(30.3161 -0.916566 -2.07709e-16)
(30.2881 -0.912353 1.68562e-22)
(30.2632 -0.907877 0)
(29.1595 0.0209912 6.95153e-16)
(29.1825 0.145315 -1.00414e-20)
(29.2043 0.229733 0)
(29.228 0.312387 -4.60556e-15)
(29.2535 0.393655 9.96282e-15)
(29.2817 0.474399 -5.35377e-15)
(29.314 0.556248 3.12344e-15)
(29.3523 0.640511 0)
(29.3992 0.727932 9.96282e-16)
(29.4579 0.81862 -2.93654e-15)
(29.5323 0.911719 -9.63611e-16)
(29.6273 1.00475 -6.64951e-15)
(29.7478 1.09283 9.37099e-15)
(29.8981 1.168 -2.7733e-15)
(30.0799 1.21891 9.11522e-16)
(30.2903 1.23165 8.98029e-16)
(30.5196 1.19211 -1.76751e-15)
(30.7516 1.08904 5.21387e-15)
(30.9638 0.918123 1.70719e-15)
(31.1314 0.683139 8.37222e-16)
(31.2274 0.414369 -3.31516e-15)
(31.2475 0.161926 3.30858e-15)
(31.214 -0.0513393 -4.11873e-16)
(31.1503 -0.223993 -2.04944e-16)
(31.0719 -0.359783 3.26111e-15)
(30.988 -0.464645 -3.34309e-15)
(30.9044 -0.544361 -1.7112e-15)
(30.8245 -0.604059 1.59921e-15)
(30.7504 -0.648112 -2.47971e-17)
(30.6826 -0.680159 1.60457e-15)
(30.6215 -0.703056 -1.5716e-15)
(30.5668 -0.719067 0)
(30.518 -0.729917 -1.34189e-17)
(30.4747 -0.736961 0)
(30.4362 -0.741207 1.16276e-17)
(30.4021 -0.743442 3.77558e-16)
(30.3718 -0.744212 -3.48504e-16)
(30.3448 -0.743962 1.65555e-16)
(30.3209 -0.74301 -6.49487e-17)
(30.2994 -0.741485 -8.46329e-17)
(29.3279 0.0156919 -2.40898e-15)
(29.3475 0.117667 1.94054e-15)
(29.3661 0.185209 -4.16935e-15)
(29.3865 0.251073 -9.92867e-16)
(29.4084 0.315312 2.86017e-15)
(29.4323 0.378461 9.21224e-16)
(29.4592 0.441763 -3.5793e-15)
(29.4904 0.506222 0)
(29.5275 0.572422 0)
(29.5726 0.64054 1.67762e-15)
(29.6285 0.710181 8.24972e-15)
(29.6983 0.779989 -1.4625e-14)
(29.7854 0.847165 4.80511e-15)
(29.8934 0.906957 1.57894e-15)
(30.0245 0.952226 1.55606e-15)
(30.1785 0.973487 1.5324e-15)
(30.3513 0.959786 -3.0152e-15)
(30.533 0.900748 1.0594e-19)
(30.7089 0.789233 -1.45471e-15)
(30.8594 0.623464 4.27745e-15)
(30.9595 0.422495 -1.12841e-14)
(30.9988 0.225366 7.03273e-16)
(30.9917 0.0532022 5.94791e-15)
(30.9563 -0.0902158 -2.43549e-15)
(30.9055 -0.20598 2.24786e-15)
(30.8474 -0.297676 0)
(30.7872 -0.369282 -2.64507e-15)
(30.7281 -0.424565 2.71058e-15)
(30.6722 -0.466825 2.68969e-15)
(30.6203 -0.498911 -4.0635e-15)
(30.5729 -0.523073 1.37331e-15)
(30.5299 -0.541152 -1.30881e-15)
(30.4913 -0.554543 1.30631e-15)
(30.4567 -0.564389 0)
(30.4257 -0.571524 -6.32099e-16)
(30.398 -0.57665 1.25125e-15)
(30.3733 -0.580225 -9.19175e-16)
(30.351 -0.582666 3.10465e-16)
(30.3313 -0.584251 1.29314e-16)
(30.3134 -0.585065 -1.34997e-16)
(29.4659 0.0117546 -2.07976e-15)
(29.4825 0.0947764 5.97604e-15)
(29.4982 0.148607 3.58972e-15)
(29.5155 0.200888 -7.68293e-15)
(29.5341 0.251494 1.63752e-15)
(29.5543 0.300741 0)
(29.5767 0.34958 -4.60258e-15)
(29.6022 0.39877 1.79455e-14)
(29.6318 0.448749 -2.34033e-14)
(29.667 0.499679 1.14762e-14)
(29.7096 0.551363 -1.12774e-14)
(29.7615 0.603019 1.38722e-14)
(29.8252 0.652991 0)
(29.9032 0.698423 9.42085e-15)
(29.9973 0.734908 -1.32554e-14)
(30.1084 0.756308 2.8567e-20)
(30.2349 0.754999 1.28299e-15)
(30.3716 0.72276 5.04156e-15)
(30.5091 0.652815 -6.18456e-15)
(30.6344 0.540831 0)
(30.7267 0.397357 5.9887e-15)
(30.7738 0.250446 -6.56566e-15)
(30.7835 0.117726 -5.34346e-15)
(30.7688 0.00389596 9.44325e-15)
(30.7396 -0.0904722 -8.79752e-15)
(30.7026 -0.167134 4.66121e-15)
(30.662 -0.228566 -2.89335e-16)
(30.6208 -0.277309 1.43623e-16)
(30.5807 -0.315712 1.42531e-16)
(30.5429 -0.345859 3.5344e-17)
(30.5078 -0.369449 -3.5039e-17)
(30.4756 -0.38789 0)
(30.4463 -0.402276 -2.57745e-17)
(30.4198 -0.413515 -8.49884e-18)
(30.3958 -0.422285 1.07733e-15)
(30.3742 -0.429158 -1.06592e-15)
(30.3548 -0.43453 0)
(30.3372 -0.438757 0)
(30.3215 -0.442087 -5.56578e-23)
(30.3072 -0.444536 -1.53498e-17)
(29.5782 0.00884483 -3.5791e-15)
(29.592 0.0758882 3.28728e-15)
(29.6051 0.118608 -7.70288e-16)
(29.6197 0.159921 5.8544e-15)
(29.6354 0.199626 -1.96337e-14)
(29.6523 0.237896 6.72726e-20)
(29.6709 0.275457 1.04956e-14)
(29.6917 0.312882 1.02233e-14)
(29.7154 0.35049 -1.24906e-14)
(29.7431 0.388405 0)
(29.7758 0.426516 -1.20202e-14)
(29.8148 0.464344 1.0638e-14)
(29.8619 0.500869 6.97946e-15)
(29.9185 0.534338 -1.03065e-14)
(29.9862 0.562025 1.12716e-15)
(30.0657 0.580056 -3.3265e-15)
(30.1567 0.583407 1.08987e-14)
(30.2565 0.566286 -9.63147e-15)
(30.3598 0.523144 1.04957e-15)
(30.4577 0.449834 8.2193e-15)
(30.5357 0.351135 -9.13765e-15)
(30.5819 0.246055 -6.4387e-20)
(30.5999 0.148019 5.03152e-16)
(30.5985 0.061546 4.00151e-15)
(30.5846 -0.0120411 -8.20153e-15)
(30.5633 -0.0732936 3.95073e-15)
(30.5379 -0.123592 2.45257e-16)
(30.511 -0.164494 1.21781e-16)
(30.4839 -0.19758 -4.11015e-15)
(30.4578 -0.224269 3.71869e-15)
(30.4331 -0.245788 -5.94914e-17)
(30.4101 -0.263145 1.88714e-15)
(30.3888 -0.277173 -3.72446e-15)
(30.3694 -0.28854 1.85807e-15)
(30.3517 -0.297792 -9.17318e-16)
(30.3355 -0.305356 -4.90523e-21)
(30.3209 -0.311576 1.34003e-15)
(30.3076 -0.316708 -4.3983e-16)
(30.2956 -0.321011 -2.09657e-16)
(30.2846 -0.324389 2.16386e-16)
(29.6687 0.00670141 1.53497e-15)
(29.6801 0.0603821 -8.80236e-17)
(29.691 0.0941331 -6.59201e-16)
(29.7031 0.12662 1.25115e-15)
(29.7162 0.157637 1.07803e-14)
(29.7303 0.187254 2.30913e-15)
(29.7455 0.216038 -8.95294e-15)
(29.7624 0.244415 0)
(29.7815 0.272613 4.34784e-20)
(29.8033 0.300721 -2.0847e-15)
(29.8285 0.328668 2.04588e-15)
(29.8581 0.356141 1.60839e-14)
(29.8931 0.382488 -1.58193e-14)
(29.9345 0.406605 -1.36181e-14)
(29.9833 0.426787 3.0621e-14)
(30.0401 0.440603 1.88138e-15)
(30.105 0.444845 -1.6638e-14)
(30.1764 0.435664 0)
(30.2515 0.409082 -1.77854e-15)
(30.3248 0.361753 0)
(30.3864 0.295626 0)
(30.4268 0.222891 2.56926e-15)
(30.447 0.153058 -8.52006e-16)
(30.4526 0.0898821 8.47135e-16)
(30.4483 0.0347865 0)
(30.4377 -0.0121152 6.69453e-15)
(30.4232 -0.0515174 -6.65176e-15)
(30.4068 -0.0842651 3.09745e-15)
(30.3897 -0.111382 -6.6652e-15)
(30.3726 -0.133752 6.61751e-15)
(30.3561 -0.152244 -3.18275e-15)
(30.3404 -0.167513 0)
(30.3258 -0.180191 -4.96871e-17)
(30.3122 -0.190718 -1.57547e-15)
(30.2997 -0.199541 1.54795e-15)
(30.2882 -0.206931 0)
(30.2776 -0.213204 0)
(30.268 -0.218496 2.94112e-18)
(30.2592 -0.223104 0)
(30.2512 -0.226797 0)
(29.7412 0.00512391 -6.5636e-15)
(29.7505 0.0477351 4.88816e-15)
(29.7593 0.0742808 1.12518e-15)
(29.7693 0.0996983 1.06663e-14)
(29.7802 0.123828 -1.02039e-14)
(29.7917 0.14664 -3.76262e-20)
(29.8042 0.168617 -1.52368e-14)
(29.8179 0.190057 1.48261e-14)
(29.8331 0.211122 -1.80946e-15)
(29.8502 0.231875 1.77145e-15)
(29.8698 0.252266 -1.73755e-15)
(29.8923 0.272081 -1.36532e-14)
(29.9185 0.290892 1.34216e-14)
(29.9489 0.307986 -1.3198e-14)
(29.9841 0.322282 1.29772e-14)
(30.0248 0.332251 1.59421e-15)
(30.0707 0.335874 1.25241e-14)
(30.1213 0.330684 -1.07505e-14)
(30.1748 0.314033 -7.5238e-15)
(30.228 0.283481 1.17717e-14)
(30.2743 0.239858 -1.1625e-14)
(30.3068 0.190669 -1.44819e-15)
(30.3255 0.142307 1.22509e-14)
(30.3339 0.097609 -7.16769e-16)
(30.3348 0.0577583 0)
(30.3308 0.0231559 0)
(30.3235 -0.00652835 -3.52234e-16)
(30.3143 -0.0316695 3.50088e-16)
(30.3041 -0.0529308 1.73938e-16)
(30.2936 -0.0707971 0)
(30.2832 -0.0858873 2.74588e-15)
(30.2731 -0.0985742 -5.36667e-15)
(30.2634 -0.109346 2.74715e-15)
(30.2544 -0.118444 -1.34135e-15)
(30.2459 -0.12625 1.36079e-15)
(30.2381 -0.132886 1.02908e-17)
(30.2308 -0.138662 -6.5456e-16)
(30.2242 -0.143584 1.28667e-15)
(30.218 -0.147998 -3.17966e-16)
(30.2123 -0.151557 -3.07374e-16)
(29.7987 0.00396098 -6.71697e-15)