/*--------------------------------*- C++ -*----------------------------------*\
  =========                 |
  \\      /  F ield         | OpenFOAM: The Open Source CFD Toolbox
   \\    /   O peration     | Website:  https://openfoam.org
    \\  /    A nd           | Version:  8
     \\/     M anipulation  |
\*---------------------------------------------------------------------------*/
FoamFile
{
    version     2.0;
    format      ascii;
    class       volScalarField;
    location    "7.2";
    object      p;
}
// * * * * * * * * * * * * * * * * * * * * * * * * * * * * * * * * * * * * * //

dimensions      [0 2 -2 0 0 0 0];

internalField   nonuniform List<scalar> 
262620
(
-1.35565
-1.35587
-1.35654
-1.35756
-1.3589
-1.36054
-1.36248
-1.36469
-1.36715
-1.36985
-1.37277
-1.3759
-1.37922
-1.38272
-1.38638
-1.39019
-1.39414
-1.39821
-1.40239
-1.40668
-1.41106
-1.41552
-1.42005
-1.42465
-1.4293
-1.43399
-1.43873
-1.44349
-1.44828
-1.45309
-1.45791
-1.46274
-1.46756
-1.47238
-1.4772
-1.482
-1.48678
-1.49154
-1.49628
-1.50099
-1.50567
-1.51031
-1.51492
-1.51949
-1.52402
-1.52851
-1.53295
-1.53735
-1.5417
-1.546
-1.55025
-1.55445
-1.55859
-1.56269
-1.56673
-1.57072
-1.57465
-1.57853
-1.58236
-1.58613
-1.58984
-1.5935
-1.5971
-1.60065
-1.60415
-1.60759
-1.61097
-1.6143
-1.61758
-1.62081
-1.62398
-1.62709
-1.63016
-1.63317
-1.63614
-1.63905
-1.64191
-1.64473
-1.64749
-1.6502
-1.65287
-1.65549
-1.65807
-1.6606
-1.66308
-1.66552
-1.66791
-1.67026
-1.67257
-1.67484
-1.67706
-1.67925
-1.68139
-1.6835
-1.68556
-1.68759
-1.68958
-1.69153
-1.69345
-1.69533
-1.69718
-1.69899
-1.70077
-1.70252
-1.70423
-1.70591
-1.70756
-1.70918
-1.71077
-1.71232
-1.71385
-1.71535
-1.71683
-1.71827
-1.71969
-1.72108
-1.72244
-1.72378
-1.7251
-1.72639
-1.35552
-1.35574
-1.35641
-1.35743
-1.35876
-1.3604
-1.36234
-1.36454
-1.367
-1.3697
-1.37263
-1.37576
-1.37908
-1.38257
-1.38623
-1.39005
-1.39399
-1.39807
-1.40225
-1.40654
-1.41092
-1.41538
-1.41992
-1.42451
-1.42916
-1.43386
-1.4386
-1.44336
-1.44816
-1.45296
-1.45779
-1.46261
-1.46744
-1.47227
-1.47708
-1.48189
-1.48667
-1.49144
-1.49618
-1.50089
-1.50557
-1.51022
-1.51483
-1.5194
-1.52393
-1.52842
-1.53287
-1.53727
-1.54162
-1.54592
-1.55018
-1.55438
-1.55853
-1.56263
-1.56667
-1.57066
-1.5746
-1.57848
-1.58231
-1.58608
-1.5898
-1.59346
-1.59707
-1.60062
-1.60412
-1.60756
-1.61095
-1.61428
-1.61756
-1.62079
-1.62397
-1.62709
-1.63015
-1.63317
-1.63614
-1.63905
-1.64192
-1.64473
-1.6475
-1.65022
-1.65289
-1.65551
-1.65809
-1.66062
-1.66311
-1.66555
-1.66794
-1.6703
-1.67261
-1.67488
-1.67711
-1.67929
-1.68144
-1.68355
-1.68561
-1.68765
-1.68964
-1.69159
-1.69351
-1.6954
-1.69725
-1.69906
-1.70084
-1.70259
-1.7043
-1.70599
-1.70764
-1.70926
-1.71085
-1.71241
-1.71394
-1.71544
-1.71692
-1.71836
-1.71978
-1.72117
-1.72254
-1.72388
-1.72519
-1.72648
-1.35529
-1.3555
-1.35617
-1.35718
-1.35851
-1.36015
-1.36209
-1.36429
-1.36675
-1.36945
-1.37237
-1.3755
-1.37882
-1.38232
-1.38598
-1.38979
-1.39374
-1.39782
-1.402
-1.40629
-1.41068
-1.41514
-1.41968
-1.42428
-1.42893
-1.43363
-1.43837
-1.44314
-1.44793
-1.45275
-1.45757
-1.46241
-1.46724
-1.47207
-1.47689
-1.48169
-1.48648
-1.49125
-1.496
-1.50071
-1.5054
-1.51005
-1.51467
-1.51925
-1.52378
-1.52828
-1.53273
-1.53713
-1.54149
-1.5458
-1.55006
-1.55427
-1.55842
-1.56252
-1.56657
-1.57057
-1.57451
-1.5784
-1.58223
-1.58601
-1.58973
-1.5934
-1.59701
-1.60057
-1.60407
-1.60752
-1.61091
-1.61425
-1.61754
-1.62077
-1.62395
-1.62707
-1.63015
-1.63317
-1.63614
-1.63906
-1.64193
-1.64475
-1.64752
-1.65024
-1.65291
-1.65554
-1.65812
-1.66066
-1.66315
-1.66559
-1.66799
-1.67035
-1.67266
-1.67494
-1.67717
-1.67936
-1.68151
-1.68362
-1.68569
-1.68772
-1.68972
-1.69168
-1.6936
-1.69549
-1.69734
-1.69916
-1.70094
-1.70269
-1.70441
-1.7061
-1.70775
-1.70937
-1.71096
-1.71253
-1.71406
-1.71557
-1.71704
-1.71849
-1.71991
-1.72131
-1.72268
-1.72402
-1.72534
-1.72663
-1.35494
-1.35515
-1.35581
-1.35682
-1.35815
-1.35978
-1.36171
-1.36392
-1.36638
-1.36907
-1.37199
-1.37512
-1.37844
-1.38194
-1.3856
-1.38942
-1.39337
-1.39744
-1.40163
-1.40592
-1.41031
-1.41478
-1.41932
-1.42392
-1.42858
-1.43328
-1.43803
-1.4428
-1.4476
-1.45242
-1.45725
-1.46209
-1.46693
-1.47176
-1.47659
-1.4814
-1.4862
-1.49098
-1.49573
-1.50045
-1.50515
-1.50981
-1.51443
-1.51901
-1.52356
-1.52806
-1.53252
-1.53693
-1.5413
-1.54561
-1.54988
-1.55409
-1.55826
-1.56237
-1.56643
-1.57043
-1.57438
-1.57827
-1.58212
-1.5859
-1.58963
-1.59331
-1.59693
-1.60049
-1.604
-1.60746
-1.61086
-1.6142
-1.61749
-1.62073
-1.62392
-1.62705
-1.63013
-1.63316
-1.63614
-1.63906
-1.64194
-1.64477
-1.64754
-1.65027
-1.65295
-1.65559
-1.65818
-1.66072
-1.66321
-1.66566
-1.66807
-1.67043
-1.67275
-1.67503
-1.67727
-1.67947
-1.68162
-1.68374
-1.68582
-1.68785
-1.68986
-1.69182
-1.69375
-1.69564
-1.6975
-1.69932
-1.70111
-1.70286
-1.70459
-1.70628
-1.70794
-1.70956
-1.71116
-1.71273
-1.71427
-1.71577
-1.71726
-1.71871
-1.72013
-1.72153
-1.7229
-1.72425
-1.72557
-1.72687
-1.35448
-1.35468
-1.35534
-1.35634
-1.35766
-1.3593
-1.36122
-1.36342
-1.36588
-1.36857
-1.37149
-1.37462
-1.37794
-1.38144
-1.3851
-1.38892
-1.39287
-1.39695
-1.40114
-1.40544
-1.40983
-1.4143
-1.41884
-1.42345
-1.42811
-1.43282
-1.43757
-1.44236
-1.44716
-1.45199
-1.45683
-1.46167
-1.46652
-1.47136
-1.4762
-1.48102
-1.48583
-1.49061
-1.49537
-1.50011
-1.50481
-1.50948
-1.51411
-1.51871
-1.52326
-1.52777
-1.53224
-1.53666
-1.54104
-1.54537
-1.54964
-1.55387
-1.55804
-1.56216
-1.56623
-1.57024
-1.57421
-1.57811
-1.58196
-1.58576
-1.5895
-1.59318
-1.59681
-1.60039
-1.60391
-1.60737
-1.61078
-1.61414
-1.61744
-1.62069
-1.62388
-1.62702
-1.63011
-1.63315
-1.63614
-1.63907
-1.64196
-1.64479
-1.64758
-1.65032
-1.65301
-1.65565
-1.65824
-1.66079
-1.6633
-1.66576
-1.66817
-1.67054
-1.67287
-1.67516
-1.6774
-1.6796
-1.68177
-1.68389
-1.68597
-1.68802
-1.69003
-1.692
-1.69393
-1.69583
-1.6977
-1.69953
-1.70132
-1.70308
-1.70481
-1.70651
-1.70817
-1.7098
-1.71141
-1.71298
-1.71452
-1.71604
-1.71752
-1.71898
-1.72041
-1.72182
-1.72319
-1.72455
-1.72587
-1.72717
-1.35391
-1.3541
-1.35475
-1.35575
-1.35706
-1.35869
-1.36061
-1.36281
-1.36526
-1.36796
-1.37087
-1.374
-1.37732
-1.38082
-1.38448
-1.3883
-1.39225
-1.39634
-1.40053
-1.40483
-1.40923
-1.4137
-1.41825
-1.42287
-1.42754
-1.43226
-1.43701
-1.44181
-1.44662
-1.45146
-1.4563
-1.46116
-1.46602
-1.47087
-1.47572
-1.48055
-1.48537
-1.49016
-1.49493
-1.49968
-1.50439
-1.50907
-1.51372
-1.51833
-1.52289
-1.52742
-1.5319
-1.53633
-1.54072
-1.54506
-1.54935
-1.55359
-1.55777
-1.56191
-1.56599
-1.57002
-1.57399
-1.57791
-1.58177
-1.58558
-1.58933
-1.59303
-1.59667
-1.60026
-1.60379
-1.60727
-1.61069
-1.61406
-1.61737
-1.62063
-1.62384
-1.62699
-1.63009
-1.63314
-1.63614
-1.63908
-1.64198
-1.64483
-1.64762
-1.65037
-1.65307
-1.65572
-1.65833
-1.66089
-1.6634
-1.66587
-1.6683
-1.67068
-1.67301
-1.67531
-1.67756
-1.67978
-1.68195
-1.68408
-1.68617
-1.68823
-1.69025
-1.69223
-1.69417
-1.69608
-1.69795
-1.69978
-1.70159
-1.70336
-1.70509
-1.7068
-1.70847
-1.71011
-1.71172
-1.7133
-1.71485
-1.71637
-1.71786
-1.71933
-1.72077
-1.72218
-1.72356
-1.72492
-1.72625
-1.72755
-1.35323
-1.35341
-1.35405
-1.35504
-1.35635
-1.35797
-1.35989
-1.36208
-1.36453
-1.36722
-1.37014
-1.37326
-1.37658
-1.38008
-1.38375
-1.38756
-1.39152
-1.39561
-1.39981
-1.40411
-1.40851
-1.413
-1.41755
-1.42218
-1.42686
-1.43158
-1.43635
-1.44115
-1.44598
-1.45082
-1.45568
-1.46055
-1.46542
-1.47028
-1.47514
-1.47999
-1.48482
-1.48962
-1.49441
-1.49917
-1.5039
-1.50859
-1.51325
-1.51787
-1.52246
-1.527
-1.53149
-1.53594
-1.54034
-1.5447
-1.549
-1.55325
-1.55746
-1.5616
-1.5657
-1.56974
-1.57373
-1.57766
-1.58154
-1.58536
-1.58913
-1.59284
-1.5965
-1.6001
-1.60365
-1.60714
-1.61058
-1.61396
-1.61729
-1.62056
-1.62378
-1.62695
-1.63006
-1.63313
-1.63614
-1.6391
-1.64201
-1.64487
-1.64768
-1.65044
-1.65315
-1.65581
-1.65843
-1.661
-1.66353
-1.66601
-1.66845
-1.67084
-1.67319
-1.67549
-1.67776
-1.67998
-1.68216
-1.68431
-1.68641
-1.68848
-1.6905
-1.69249
-1.69445
-1.69636
-1.69824
-1.70009
-1.7019
-1.70368
-1.70542
-1.70714
-1.70882
-1.71047
-1.71209
-1.71367
-1.71523
-1.71676
-1.71826
-1.71974
-1.72118
-1.7226
-1.72399
-1.72536
-1.7267
-1.72801
-1.35245
-1.35262
-1.35325
-1.35423
-1.35553
-1.35714
-1.35905
-1.36124
-1.36368
-1.36637
-1.36928
-1.37241
-1.37573
-1.37923
-1.3829
-1.38672
-1.39068
-1.39477
-1.39897
-1.40328
-1.40769
-1.41218
-1.41675
-1.42138
-1.42607
-1.4308
-1.43558
-1.44039
-1.44523
-1.45009
-1.45496
-1.45984
-1.46472
-1.4696
-1.47447
-1.47933
-1.48418
-1.489
-1.49381
-1.49858
-1.50332
-1.50804
-1.51271
-1.51735
-1.52195
-1.52651
-1.53102
-1.53549
-1.53991
-1.54428
-1.5486
-1.55287
-1.55709
-1.56125
-1.56537
-1.56943
-1.57343
-1.57738
-1.58128
-1.58512
-1.5889
-1.59263
-1.59631
-1.59993
-1.60349
-1.607
-1.61045
-1.61385
-1.61719
-1.62048
-1.62372
-1.6269
-1.63003
-1.63311
-1.63614
-1.63911
-1.64204
-1.64491
-1.64774
-1.65051
-1.65324
-1.65592
-1.65855
-1.66113
-1.66367
-1.66617
-1.66862
-1.67102
-1.67339
-1.67571
-1.67798
-1.68022
-1.68241
-1.68457
-1.68669
-1.68876
-1.6908
-1.6928
-1.69477
-1.69669
-1.69859
-1.70044
-1.70227
-1.70406
-1.70581
-1.70753
-1.70923
-1.71089
-1.71251
-1.71411
-1.71568
-1.71722
-1.71873
-1.72021
-1.72166
-1.72309
-1.72449
-1.72587
-1.72721
-1.72853
-1.35157
-1.35172
-1.35234
-1.35331
-1.3546
-1.3562
-1.35811
-1.36029
-1.36273
-1.36541
-1.36832
-1.37144
-1.37476
-1.37826
-1.38193
-1.38576
-1.38972
-1.39381
-1.39803
-1.40234
-1.40676
-1.41126
-1.41583
-1.42047
-1.42517
-1.42992
-1.43471
-1.43953
-1.44439
-1.44926
-1.45414
-1.45904
-1.46394
-1.46883
-1.47372
-1.4786
-1.48346
-1.4883
-1.49312
-1.49791
-1.50268
-1.50741
-1.5121
-1.51676
-1.52138
-1.52595
-1.53048
-1.53497
-1.53941
-1.5438
-1.54814
-1.55243
-1.55667
-1.56086
-1.56499
-1.56907
-1.57309
-1.57706
-1.58098
-1.58484
-1.58864
-1.59239
-1.59609
-1.59972
-1.60331
-1.60683
-1.6103
-1.61372
-1.61708
-1.62039
-1.62365
-1.62685
-1.63
-1.63309
-1.63614
-1.63913
-1.64207
-1.64496
-1.6478
-1.6506
-1.65334
-1.65603
-1.65868
-1.66128
-1.66384
-1.66635
-1.66881
-1.67123
-1.67361
-1.67595
-1.67824
-1.68049
-1.6827
-1.68487
-1.687
-1.68909
-1.69114
-1.69315
-1.69513
-1.69707
-1.69898
-1.70085
-1.70268
-1.70448
-1.70625
-1.70798
-1.70969
-1.71136
-1.713
-1.71461
-1.71618
-1.71773
-1.71925
-1.72075
-1.72221
-1.72365
-1.72506
-1.72644
-1.7278
-1.72912
-1.35058
-1.35072
-1.35132
-1.35228
-1.35356
-1.35516
-1.35705
-1.35922
-1.36166
-1.36434
-1.36725
-1.37037
-1.37369
-1.37719
-1.38086
-1.38468
-1.38865
-1.39275
-1.39697
-1.4013
-1.40572
-1.41023
-1.41481
-1.41946
-1.42417
-1.42894
-1.43374
-1.43858
-1.44344
-1.44833
-1.45323
-1.45814
-1.46306
-1.46797
-1.47288
-1.47778
-1.48266
-1.48752
-1.49236
-1.49717
-1.50195
-1.5067
-1.51142
-1.5161
-1.52074
-1.52533
-1.52989
-1.5344
-1.53886
-1.54327
-1.54763
-1.55195
-1.55621
-1.56041
-1.56457
-1.56867
-1.57272
-1.57671
-1.58065
-1.58453
-1.58835
-1.59212
-1.59584
-1.5995
-1.6031
-1.60665
-1.61014
-1.61358
-1.61696
-1.62029
-1.62357
-1.62679
-1.62996
-1.63307
-1.63614
-1.63915
-1.64211
-1.64502
-1.64788
-1.65069
-1.65345
-1.65617
-1.65883
-1.66145
-1.66402
-1.66655
-1.66903
-1.67147
-1.67386
-1.67621
-1.67852
-1.68079
-1.68301
-1.6852
-1.68734
-1.68945
-1.69152
-1.69354
-1.69554
-1.69749
-1.69941
-1.70129
-1.70314
-1.70496
-1.70674
-1.70849
-1.7102
-1.71188
-1.71354
-1.71516
-1.71675
-1.71831
-1.71984
-1.72135
-1.72282
-1.72427
-1.72569
-1.72709
-1.72845
-1.72979
-1.3495
-1.34962
-1.35021
-1.35115
-1.35242
-1.354
-1.35589
-1.35805
-1.36048
-1.36316
-1.36606
-1.36918
-1.3725
-1.376
-1.37968
-1.38351
-1.38748
-1.39158
-1.39581
-1.40014
-1.40457
-1.40909
-1.41369
-1.41835
-1.42308
-1.42785
-1.43267
-1.43752
-1.44241
-1.44731
-1.45223
-1.45716
-1.46209
-1.46703
-1.47195
-1.47687
-1.48177
-1.48665
-1.49151
-1.49635
-1.50116
-1.50593
-1.51067
-1.51537
-1.52003
-1.52465
-1.52923
-1.53376
-1.53825
-1.54268
-1.54707
-1.55141
-1.55569
-1.55993
-1.56411
-1.56823
-1.5723
-1.57632
-1.58028
-1.58419
-1.58804
-1.59183
-1.59557
-1.59925
-1.60288
-1.60645
-1.60996
-1.61343
-1.61683
-1.62018
-1.62348
-1.62672
-1.62991
-1.63305
-1.63614
-1.63917
-1.64215
-1.64508
-1.64796
-1.65079
-1.65358
-1.65631
-1.659
-1.66163
-1.66423
-1.66677
-1.66927
-1.67173
-1.67414
-1.67651
-1.67884
-1.68112
-1.68336
-1.68556
-1.68773
-1.68985
-1.69193
-1.69398
-1.69598
-1.69795
-1.69989
-1.70179
-1.70365
-1.70548
-1.70728
-1.70904
-1.71077
-1.71247
-1.71413
-1.71577
-1.71737
-1.71894
-1.72049
-1.72201
-1.72349
-1.72495
-1.72639
-1.72779
-1.72917
-1.73052
-1.34832
-1.34842
-1.34899
-1.34992
-1.35117
-1.35275
-1.35462
-1.35678
-1.3592
-1.36187
-1.36477
-1.36789
-1.37121
-1.37471
-1.37839
-1.38222
-1.3862
-1.39031
-1.39454
-1.39889
-1.40333
-1.40786
-1.41246
-1.41714
-1.42188
-1.42667
-1.4315
-1.43637
-1.44127
-1.4462
-1.45114
-1.45609
-1.46104
-1.46599
-1.47094
-1.47588
-1.48081
-1.48571
-1.4906
-1.49546
-1.50029
-1.50508
-1.50985
-1.51458
-1.51926
-1.52391
-1.52851
-1.53307
-1.53758
-1.54205
-1.54646
-1.55082
-1.55513
-1.55939
-1.5636
-1.56775
-1.57185
-1.57589
-1.57988
-1.58381
-1.58769
-1.59151
-1.59527
-1.59898
-1.60263
-1.60623
-1.60977
-1.61326
-1.61669
-1.62006
-1.62338
-1.62665
-1.62987
-1.63303
-1.63614
-1.63919
-1.6422
-1.64515
-1.64805
-1.65091
-1.65371
-1.65647
-1.65917
-1.66183
-1.66445
-1.66701
-1.66954
-1.67201
-1.67444
-1.67683
-1.67918
-1.68148
-1.68374
-1.68596
-1.68814
-1.69028
-1.69239
-1.69445
-1.69647
-1.69846
-1.70041
-1.70233
-1.70421
-1.70605
-1.70787
-1.70964
-1.71139
-1.7131
-1.71478
-1.71643
-1.71805
-1.71964
-1.7212
-1.72273
-1.72423
-1.7257
-1.72715
-1.72857
-1.72996
-1.73132
-1.34704
-1.34712
-1.34767
-1.34859
-1.34983
-1.35139
-1.35325
-1.3554
-1.35782
-1.36048
-1.36338
-1.36649
-1.36981
-1.37331
-1.37699
-1.38083
-1.38481
-1.38893
-1.39317
-1.39752
-1.40198
-1.40652
-1.41114
-1.41583
-1.42058
-1.42539
-1.43024
-1.43513
-1.44005
-1.44499
-1.44995
-1.45492
-1.4599
-1.46488
-1.46985
-1.47481
-1.47976
-1.48469
-1.4896
-1.49449
-1.49934
-1.50417
-1.50896
-1.51372
-1.51843
-1.52311
-1.52774
-1.53232
-1.53686
-1.54135
-1.5458
-1.55019
-1.55453
-1.55882
-1.56305
-1.56723
-1.57136
-1.57543
-1.57945
-1.58341
-1.58731
-1.59116
-1.59495
-1.59869
-1.60237
-1.60599
-1.60956
-1.61307
-1.61653
-1.61993
-1.62328
-1.62657
-1.62982
-1.633
-1.63614
-1.63922
-1.64225
-1.64523
-1.64815
-1.65103
-1.65386
-1.65664
-1.65937
-1.66205
-1.66469
-1.66728
-1.66982
-1.67232
-1.67477
-1.67718
-1.67955
-1.68187
-1.68415
-1.6864
-1.6886
-1.69076
-1.69288
-1.69496
-1.697
-1.69901
-1.70098
-1.70291
-1.70481
-1.70667
-1.7085
-1.7103
-1.71206
-1.71379
-1.71548
-1.71715
-1.71879
-1.72039
-1.72196
-1.72351
-1.72503
-1.72651
-1.72798
-1.72941
-1.73081
-1.73218
-1.34567
-1.34573
-1.34626
-1.34716
-1.34838
-1.34993
-1.35178
-1.35392
-1.35633
-1.35899
-1.36188
-1.36499
-1.36831
-1.37181
-1.37549
-1.37934
-1.38333
-1.38745
-1.3917
-1.39606
-1.40053
-1.40508
-1.40972
-1.41442
-1.41919
-1.42402
-1.42889
-1.43379
-1.43873
-1.4437
-1.44868
-1.45367
-1.45867
-1.46368
-1.46867
-1.47366
-1.47864
-1.4836
-1.48853
-1.49345
-1.49833
-1.50319
-1.50801
-1.51279
-1.51754
-1.52224
-1.5269
-1.53152
-1.53609
-1.54061
-1.54508
-1.54951
-1.55388
-1.5582
-1.56246
-1.56667
-1.57083
-1.57493
-1.57898
-1.58297
-1.5869
-1.59078
-1.59461
-1.59837
-1.60208
-1.60573
-1.60933
-1.61287
-1.61636
-1.61979
-1.62317
-1.62649
-1.62976
-1.63297
-1.63614
-1.63924
-1.6423
-1.64531
-1.64826
-1.65116
-1.65402
-1.65682
-1.65958
-1.66229
-1.66495
-1.66756
-1.67013
-1.67265
-1.67513
-1.67756
-1.67995
-1.68229
-1.6846
-1.68686
-1.68908
-1.69126
-1.69341
-1.69551
-1.69757
-1.6996
-1.70159
-1.70354
-1.70546
-1.70734
-1.70919
-1.711
-1.71278
-1.71453
-1.71624
-1.71793
-1.71958
-1.7212
-1.72279
-1.72435
-1.72588
-1.72739
-1.72886
-1.73031
-1.73173
-1.73311
-1.3442
-1.34424
-1.34475
-1.34563
-1.34684
-1.34837
-1.35021
-1.35234
-1.35474
-1.35739
-1.36028
-1.36339
-1.36671
-1.37021
-1.3739
-1.37774
-1.38174
-1.38587
-1.39013
-1.3945
-1.39898
-1.40355
-1.4082
-1.41292
-1.41771
-1.42255
-1.42744
-1.43237
-1.43733
-1.44231
-1.44732
-1.45234
-1.45737
-1.46239
-1.46742
-1.47243
-1.47744
-1.48243
-1.48739
-1.49233
-1.49725
-1.50213
-1.50699
-1.5118
-1.51658
-1.52132
-1.52601
-1.53066
-1.53526
-1.53982
-1.54432
-1.54878
-1.55318
-1.55753
-1.56183
-1.56608
-1.57027
-1.5744
-1.57848
-1.5825
-1.58647
-1.59038
-1.59424
-1.59803
-1.60178
-1.60546
-1.60909
-1.61266
-1.61618
-1.61964
-1.62305
-1.6264
-1.6297
-1.63294
-1.63614
-1.63927
-1.64236
-1.64539
-1.64837
-1.65131
-1.65419
-1.65702
-1.6598
-1.66254
-1.66522
-1.66786
-1.67045
-1.673
-1.6755
-1.67796
-1.68038
-1.68275
-1.68507
-1.68736
-1.6896
-1.69181
-1.69397
-1.6961
-1.69818
-1.70023
-1.70224
-1.70422
-1.70615
-1.70805
-1.70992
-1.71175
-1.71355
-1.71532
-1.71705
-1.71875
-1.72042
-1.72206
-1.72367
-1.72525
-1.7268
-1.72832
-1.72981
-1.73128
-1.73271
-1.73411
-1.34265
-1.34266
-1.34315
-1.34401
-1.3452
-1.34672
-1.34855
-1.35066
-1.35305
-1.3557
-1.35858
-1.36169
-1.365
-1.36851
-1.3722
-1.37605
-1.38005
-1.38419
-1.38846
-1.39284
-1.39733
-1.40191
-1.40658
-1.41132
-1.41612
-1.42099
-1.4259
-1.43085
-1.43583
-1.44084
-1.44588
-1.45092
-1.45597
-1.46103
-1.46608
-1.47113
-1.47616
-1.48118
-1.48618
-1.49115
-1.4961
-1.50102
-1.5059
-1.51075
-1.51556
-1.52033
-1.52506
-1.52974
-1.53438
-1.53897
-1.54351
-1.548
-1.55244
-1.55683
-1.56116
-1.56544
-1.56967
-1.57384
-1.57795
-1.58201
-1.58601
-1.58995
-1.59384
-1.59768
-1.60145
-1.60517
-1.60883
-1.61244
-1.61599
-1.61948
-1.62292
-1.62631
-1.62964
-1.63291
-1.63614
-1.6393
-1.64242
-1.64548
-1.6485
-1.65146
-1.65437
-1.65723
-1.66004
-1.6628
-1.66552
-1.66818
-1.6708
-1.67338
-1.67591
-1.67839
-1.68083
-1.68323
-1.68558
-1.68789
-1.69016
-1.69239
-1.69457
-1.69672
-1.69883
-1.7009
-1.70294
-1.70493
-1.70689
-1.70881
-1.7107
-1.71256
-1.71438
-1.71616
-1.71792
-1.71964
-1.72133
-1.72298
-1.72461
-1.72621
-1.72778
-1.72931
-1.73083
-1.73231
-1.73376
-1.73517
-1.341
-1.34099
-1.34146
-1.3423
-1.34347
-1.34497
-1.34678
-1.34889
-1.35127
-1.35391
-1.35678
-1.35989
-1.3632
-1.36671
-1.3704
-1.37426
-1.37826
-1.38241
-1.38669
-1.39109
-1.39559
-1.40019
-1.40487
-1.40963
-1.41445
-1.41934
-1.42427
-1.42924
-1.43425
-1.43929
-1.44435
-1.44942
-1.4545
-1.45958
-1.46467
-1.46974
-1.47481
-1.47986
-1.48489
-1.4899
-1.49488
-1.49983
-1.50475
-1.50964
-1.51448
-1.51929
-1.52405
-1.52877
-1.53345
-1.53808
-1.54265
-1.54718
-1.55166
-1.55608
-1.56045
-1.56477
-1.56903
-1.57324
-1.57739
-1.58148
-1.58552
-1.5895
-1.59343
-1.59729
-1.60111
-1.60486
-1.60856
-1.6122
-1.61579
-1.61932
-1.62279
-1.62621
-1.62957
-1.63288
-1.63614
-1.63934
-1.64249
-1.64558
-1.64862
-1.65162
-1.65456
-1.65745
-1.66029
-1.66308
-1.66583
-1.66852
-1.67117
-1.67378
-1.67633
-1.67884
-1.68131
-1.68373
-1.68611
-1.68845
-1.69075
-1.693
-1.69521
-1.69739
-1.69952
-1.70162
-1.70367
-1.70569
-1.70767
-1.70962
-1.71153
-1.71341
-1.71525
-1.71706
-1.71883
-1.72057
-1.72228
-1.72396
-1.72561
-1.72722
-1.72881
-1.73037
-1.7319
-1.7334
-1.73487
-1.73629
-1.33927
-1.33923
-1.33968
-1.34049
-1.34164
-1.34313
-1.34492
-1.34702
-1.34939
-1.35202
-1.35489
-1.35799
-1.3613
-1.36481
-1.36851
-1.37237
-1.37638
-1.38054
-1.38483
-1.38924
-1.39375
-1.39837
-1.40307
-1.40784
-1.41269
-1.41759
-1.42255
-1.42755
-1.43258
-1.43765
-1.44273
-1.44783
-1.45295
-1.45806
-1.46318
-1.46829
-1.47338
-1.47847
-1.48353
-1.48858
-1.4936
-1.49858
-1.50354
-1.50846
-1.51335
-1.51819
-1.52299
-1.52775
-1.53246
-1.53713
-1.54175
-1.54631
-1.55083
-1.55529
-1.5597
-1.56406
-1.56836
-1.5726
-1.57679
-1.58093
-1.585
-1.58902
-1.59299
-1.59689
-1.60074
-1.60453
-1.60827
-1.61195
-1.61557
-1.61914
-1.62265
-1.6261
-1.6295
-1.63284
-1.63613
-1.63937
-1.64255
-1.64568
-1.64876
-1.65179
-1.65476
-1.65768
-1.66056
-1.66338
-1.66616
-1.66889
-1.67156
-1.6742
-1.67678
-1.67932
-1.68182
-1.68427
-1.68668
-1.68905
-1.69137
-1.69365
-1.69589
-1.69809
-1.70025
-1.70237
-1.70445
-1.70649
-1.7085
-1.71047
-1.71241
-1.71431
-1.71617
-1.718
-1.7198
-1.72156
-1.72329
-1.72499
-1.72666
-1.7283
-1.7299
-1.73148
-1.73303
-1.73455
-1.73604
-1.73748
-1.33745
-1.33738
-1.3378
-1.33859
-1.33972
-1.34119
-1.34297
-1.34505
-1.34741
-1.35004
-1.3529
-1.356
-1.35931
-1.36282
-1.36652
-1.37038
-1.37441
-1.37857
-1.38287
-1.38729
-1.39182
-1.39645
-1.40117
-1.40597
-1.41084
-1.41576
-1.42074
-1.42577
-1.43083
-1.43592
-1.44104
-1.44617
-1.45131
-1.45646
-1.46161
-1.46675
-1.47189
-1.47701
-1.48211
-1.48719
-1.49224
-1.49727
-1.50227
-1.50723
-1.51215
-1.51703
-1.52188
-1.52668
-1.53143
-1.53614
-1.54079
-1.5454
-1.54996
-1.55446
-1.55891
-1.56331
-1.56765
-1.57194
-1.57617
-1.58034
-1.58446
-1.58852
-1.59252
-1.59647
-1.60036
-1.60419
-1.60797
-1.61168
-1.61534
-1.61895
-1.6225
-1.62599
-1.62943
-1.63281
-1.63613
-1.63941
-1.64263
-1.64579
-1.6489
-1.65196
-1.65497
-1.65793
-1.66084
-1.6637
-1.6665
-1.66926
-1.67198
-1.67464
-1.67726
-1.67983
-1.68236
-1.68484
-1.68728
-1.68967
-1.69202
-1.69433
-1.6966
-1.69883
-1.70101
-1.70316
-1.70527
-1.70734
-1.70937
-1.71137
-1.71333
-1.71525
-1.71714
-1.71899
-1.72082
-1.7226
-1.72436
-1.72608
-1.72777
-1.72943
-1.73106
-1.73266
-1.73423
-1.73577
-1.73727
-1.73873
-1.33555
-1.33545
-1.33584
-1.33661
-1.33772
-1.33917
-1.34093
-1.343
-1.34535
-1.34796
-1.35082
-1.35391
-1.35722
-1.36074
-1.36443
-1.3683
-1.37233
-1.37651
-1.38082
-1.38526
-1.3898
-1.39445
-1.39919
-1.40401
-1.40889
-1.41385
-1.41885
-1.4239
-1.42899
-1.43411
-1.43926
-1.44442
-1.4496
-1.45478
-1.45996
-1.46514
-1.47031
-1.47547
-1.48061
-1.48573
-1.49083
-1.49589
-1.50093
-1.50593
-1.5109
-1.51582
-1.52071
-1.52555
-1.53034
-1.53509
-1.53979
-1.54444
-1.54904
-1.55359
-1.55808
-1.56252
-1.56691
-1.57124
-1.57551
-1.57973
-1.58389
-1.58799
-1.59204
-1.59603
-1.59996
-1.60383
-1.60765
-1.61141
-1.61511
-1.61875
-1.62234
-1.62587
-1.62935
-1.63277
-1.63613
-1.63945
-1.6427
-1.6459
-1.64905
-1.65215
-1.6552
-1.65819
-1.66113
-1.66403
-1.66687
-1.66966
-1.67241
-1.67511
-1.67776
-1.68036
-1.68292
-1.68543
-1.6879
-1.69033
-1.69271
-1.69505
-1.69735
-1.6996
-1.70182
-1.70399
-1.70613
-1.70823
-1.71029
-1.71231
-1.7143
-1.71625
-1.71816
-1.72004
-1.72188
-1.72369
-1.72547
-1.72722
-1.72893
-1.73061
-1.73227
-1.73389
-1.73548
-1.73704
-1.73857
-1.74004
-1.33356
-1.33343
-1.3338
-1.33454
-1.33562
-1.33705
-1.3388
-1.34085
-1.34319
-1.34579
-1.34865
-1.35174
-1.35504
-1.35856
-1.36226
-1.36613
-1.37017
-1.37436
-1.37868
-1.38313
-1.38769
-1.39236
-1.39711
-1.40195
-1.40687
-1.41184
-1.41687
-1.42195
-1.42707
-1.43222
-1.4374
-1.4426
-1.44781
-1.45303
-1.45825
-1.46346
-1.46867
-1.47387
-1.47905
-1.48421
-1.48934
-1.49445
-1.49953
-1.50457
-1.50958
-1.51455
-1.51948
-1.52437
-1.52921
-1.534
-1.53875
-1.54344
-1.54809
-1.55268
-1.55722
-1.5617
-1.56613
-1.57051
-1.57483
-1.57909
-1.58329
-1.58744
-1.59153
-1.59556
-1.59954
-1.60345
-1.60731
-1.61111
-1.61486
-1.61855
-1.62218
-1.62575
-1.62927
-1.63273
-1.63613
-1.63948
-1.64278
-1.64602
-1.64921
-1.65235
-1.65543
-1.65846
-1.66144
-1.66437
-1.66725
-1.67008
-1.67286
-1.67559
-1.67828
-1.68092
-1.68351
-1.68605
-1.68856
-1.69101
-1.69343
-1.6958
-1.69813
-1.70041
-1.70266
-1.70486
-1.70703
-1.70916
-1.71124
-1.7133
-1.71531
-1.71729
-1.71923
-1.72113
-1.723
-1.72484
-1.72664
-1.72841
-1.73015
-1.73186
-1.73353
-1.73518
-1.73679
-1.73838
-1.73992
-1.74142
-1.33149
-1.33133
-1.33166
-1.33238
-1.33344
-1.33485
-1.33658
-1.33862
-1.34094
-1.34354
-1.34638
-1.34947
-1.35277
-1.35629
-1.35999
-1.36387
-1.36792
-1.37211
-1.37645
-1.38091
-1.38549
-1.39018
-1.39495
-1.39981
-1.40475
-1.40975
-1.41481
-1.41992
-1.42507
-1.43025
-1.43546
-1.44069
-1.44594
-1.45119
-1.45645
-1.46171
-1.46696
-1.47219
-1.47742
-1.48262
-1.4878
-1.49295
-1.49807
-1.50316
-1.50821
-1.51323
-1.5182
-1.52313
-1.52802
-1.53286
-1.53765
-1.5424
-1.54709
-1.55173
-1.55631
-1.56085
-1.56532
-1.56974
-1.57411
-1.57842
-1.58267
-1.58686
-1.591
-1.59508
-1.5991
-1.60306
-1.60696
-1.61081
-1.6146
-1.61833
-1.622
-1.62562
-1.62918
-1.63268
-1.63613
-1.63953
-1.64286
-1.64615
-1.64938
-1.65255
-1.65567
-1.65874
-1.66176
-1.66473
-1.66765
-1.67051
-1.67333
-1.6761
-1.67882
-1.6815
-1.68412
-1.6867
-1.68924
-1.69173
-1.69418
-1.69658
-1.69894
-1.70126
-1.70354
-1.70577
-1.70797
-1.71013
-1.71225
-1.71432
-1.71637
-1.71837
-1.72034
-1.72227
-1.72417
-1.72604
-1.72786
-1.72966
-1.73142
-1.73316
-1.73485
-1.73652
-1.73816
-1.73977
-1.74134
-1.74285
-1.32934
-1.32914
-1.32945
-1.33014
-1.33118
-1.33256
-1.33427
-1.33629
-1.3386
-1.34119
-1.34403
-1.34711
-1.35041
-1.35393
-1.35763
-1.36152
-1.36557
-1.36978
-1.37413
-1.37861
-1.3832
-1.38791
-1.3927
-1.39759
-1.40255
-1.40758
-1.41266
-1.4178
-1.42298
-1.4282
-1.43345
-1.43871
-1.444
-1.44929
-1.45459
-1.45988
-1.46517
-1.47045
-1.47572
-1.48096
-1.48618
-1.49138
-1.49655
-1.50169
-1.50679
-1.51185
-1.51687
-1.52185
-1.52678
-1.53167
-1.53651
-1.54131
-1.54605
-1.55074
-1.55537
-1.55995
-1.56448
-1.56895
-1.57336
-1.57772
-1.58202
-1.58626
-1.59045
-1.59457
-1.59864
-1.60265
-1.6066
-1.61049
-1.61433
-1.6181
-1.62182
-1.62549
-1.62909
-1.63264
-1.63613
-1.63957
-1.64295
-1.64627
-1.64955
-1.65276
-1.65593
-1.65904
-1.6621
-1.66511
-1.66806
-1.67097
-1.67382
-1.67663
-1.67939
-1.6821
-1.68476
-1.68738
-1.68995
-1.69248
-1.69496
-1.6974
-1.69979
-1.70214
-1.70445
-1.70672
-1.70895
-1.71114
-1.71329
-1.7154
-1.71747
-1.7195
-1.7215
-1.72346
-1.72539
-1.72728
-1.72914
-1.73096
-1.73275
-1.73451
-1.73623
-1.73793
-1.73959
-1.74123
-1.74282
-1.74435
-1.32711
-1.32688
-1.32715
-1.32781
-1.32882
-1.33019
-1.33188
-1.33388
-1.33618
-1.33875
-1.34159
-1.34466
-1.34796
-1.35148
-1.35519
-1.35908
-1.36314
-1.36736
-1.37172
-1.37621
-1.38083
-1.38555
-1.39037
-1.39528
-1.40026
-1.40532
-1.41044
-1.41561
-1.42082
-1.42607
-1.43135
-1.43665
-1.44198
-1.44731
-1.45265
-1.45798
-1.46332
-1.46864
-1.47395
-1.47924
-1.48451
-1.48975
-1.49497
-1.50015
-1.5053
-1.51041
-1.51548
-1.52051
-1.5255
-1.53044
-1.53533
-1.54017
-1.54496
-1.5497
-1.55439
-1.55902
-1.5636
-1.56812
-1.57258
-1.57699
-1.58134
-1.58563
-1.58987
-1.59404
-1.59816
-1.60222
-1.60622
-1.61016
-1.61405
-1.61787
-1.62164
-1.62535
-1.629
-1.63259
-1.63613
-1.63961
-1.64304
-1.64641
-1.64972
-1.65298
-1.65619
-1.65934
-1.66245
-1.6655
-1.66849
-1.67144
-1.67434
-1.67718
-1.67998
-1.68273
-1.68543
-1.68809
-1.69069
-1.69326
-1.69577
-1.69825
-1.70068
-1.70306
-1.70541
-1.70771
-1.70997
-1.71219
-1.71437
-1.71651
-1.71862
-1.72068
-1.72271
-1.7247
-1.72666
-1.72858
-1.73046
-1.73232
-1.73413
-1.73592
-1.73767
-1.73939
-1.74108
-1.74274
-1.74436
-1.74591
-1.32481
-1.32453
-1.32478
-1.32541
-1.32639
-1.32773
-1.3294
-1.33139
-1.33367
-1.33623
-1.33906
-1.34213
-1.34543
-1.34894
-1.35265
-1.35655
-1.36062
-1.36485
-1.36923
-1.37373
-1.37837
-1.38311
-1.38795
-1.39288
-1.39789
-1.40298
-1.40813
-1.41333
-1.41857
-1.42386
-1.42918
-1.43452
-1.43988
-1.44525
-1.45063
-1.45602
-1.46139
-1.46676
-1.47212
-1.47745
-1.48277
-1.48806
-1.49333
-1.49856
-1.50376
-1.50892
-1.51405
-1.51913
-1.52417
-1.52916
-1.5341
-1.539
-1.54384
-1.54863
-1.55337
-1.55806
-1.56269
-1.56726
-1.57178
-1.57624
-1.58064
-1.58498
-1.58927
-1.5935
-1.59767
-1.60178
-1.60583
-1.60982
-1.61375
-1.61763
-1.62144
-1.6252
-1.6289
-1.63254
-1.63613
-1.63966
-1.64313
-1.64655
-1.64991
-1.65321
-1.65646
-1.65966
-1.66281
-1.6659
-1.66894
-1.67193
-1.67487
-1.67775
-1.68059
-1.68338
-1.68612
-1.68882
-1.69146
-1.69407
-1.69662
-1.69913
-1.7016
-1.70402
-1.7064
-1.70874
-1.71103
-1.71329
-1.7155
-1.71767
-1.71981
-1.72191
-1.72397
-1.72599
-1.72798
-1.72993
-1.73184
-1.73372
-1.73557
-1.73738
-1.73916
-1.74091
-1.74263
-1.74431
-1.74595
-1.74753
-1.32242
-1.32211
-1.32232
-1.32292
-1.32388
-1.32519
-1.32684
-1.32881
-1.33108
-1.33363
-1.33644
-1.33951
-1.3428
-1.34632
-1.35003
-1.35394
-1.35802
-1.36226
-1.36664
-1.37117
-1.37582
-1.38058
-1.38545
-1.3904
-1.39544
-1.40056
-1.40574
-1.41097
-1.41625
-1.42157
-1.42693
-1.43231
-1.43771
-1.44313
-1.44855
-1.45398
-1.4594
-1.46481
-1.47022
-1.47561
-1.48097
-1.48631
-1.49163
-1.49692
-1.50217
-1.50738
-1.51256
-1.51769
-1.52278
-1.52783
-1.53283
-1.53778
-1.54267
-1.54752
-1.55231
-1.55705
-1.56174
-1.56637
-1.57094
-1.57545
-1.57991
-1.58431
-1.58865
-1.59293
-1.59715
-1.60131
-1.60542
-1.60946
-1.61345
-1.61737
-1.62124
-1.62505
-1.6288
-1.63249
-1.63613
-1.6397
-1.64322
-1.64669
-1.6501
-1.65345
-1.65675
-1.65999
-1.66318
-1.66632
-1.6694
-1.67244
-1.67542
-1.67835
-1.68123
-1.68406
-1.68684
-1.68958
-1.69226
-1.6949
-1.6975
-1.70005
-1.70255
-1.70501
-1.70743
-1.7098
-1.71213
-1.71442
-1.71667
-1.71888
-1.72105
-1.72318
-1.72527
-1.72733
-1.72934
-1.73132
-1.73327
-1.73518
-1.73706
-1.7389
-1.74071
-1.74248
-1.74423
-1.74594
-1.74761
-1.74921
-1.31996
-1.31961
-1.31979
-1.32035
-1.32128
-1.32257
-1.3242
-1.32615
-1.3284
-1.33094
-1.33374
-1.3368
-1.34009
-1.34361
-1.34733
-1.35124
-1.35532
-1.35958
-1.36398
-1.36852
-1.37319
-1.37797
-1.38286
-1.38784
-1.39291
-1.39805
-1.40326
-1.40853
-1.41385
-1.41921
-1.4246
-1.43003
-1.43547
-1.44093
-1.4464
-1.45187
-1.45734
-1.4628
-1.46825
-1.47369
-1.47911
-1.4845
-1.48987
-1.49521
-1.50052
-1.50578
-1.51101
-1.5162
-1.52135
-1.52645
-1.53151
-1.53651
-1.54147
-1.54637
-1.55122
-1.55602
-1.56076
-1.56544
-1.57007
-1.57464
-1.57915
-1.58361
-1.588
-1.59234
-1.59662
-1.60083
-1.60499
-1.60909
-1.61313
-1.61711
-1.62103
-1.62489
-1.62869
-1.63244
-1.63612
-1.63975
-1.64332
-1.64683
-1.65029
-1.65369
-1.65704
-1.66033
-1.66357
-1.66675
-1.66988
-1.67296
-1.67599
-1.67896
-1.68189
-1.68476
-1.68759
-1.69036
-1.69309
-1.69577
-1.6984
-1.70099
-1.70354
-1.70603
-1.70849
-1.7109
-1.71327
-1.7156
-1.71788
-1.72012
-1.72233
-1.72449
-1.72662
-1.72871
-1.73076
-1.73277
-1.73475
-1.73669
-1.7386
-1.74047
-1.74231
-1.74412
-1.74589
-1.74763
-1.74933
-1.75095
-1.31743
-1.31703
-1.31717
-1.31771
-1.3186
-1.31987
-1.32147
-1.3234
-1.32564
-1.32816
-1.33096
-1.33401
-1.3373
-1.34081
-1.34454
-1.34845
-1.35255
-1.35681
-1.36123
-1.36579
-1.37047
-1.37528
-1.38019
-1.3852
-1.3903
-1.39547
-1.40071
-1.40602
-1.41137
-1.41677
-1.4222
-1.42767
-1.43316
-1.43866
-1.44417
-1.44969
-1.45521
-1.46072
-1.46623
-1.47172
-1.47719
-1.48263
-1.48806
-1.49345
-1.49881
-1.50413
-1.50942
-1.51467
-1.51987
-1.52503
-1.53014
-1.53521
-1.54022
-1.54518
-1.55009