/*--------------------------------*- C++ -*---------------------------------*\ 
| ========                 |                                                 | 
| \      /  F ield         | OpenFOAM: The Open Source CFD Toolbox           | 
|  \    /   O peration     | Version:  v1812                                 | 
|   \  /    A nd           | Web:      www.OpenFOAM.com                      | 
|    \/     M anipulation  |                                                 | 
\*--------------------------------------------------------------------------*/ 
FoamFile
{
    version     2.0;
    format      ascii;
    class       volVectorField;
    location    "/home/james/dafoam/myRuns/bezier_coanda_opt/0.00000000001/";
    object      sens_CL_shapey;
}
// * * * * * * * * * * * * * * * * * * * * * * * * * * * * * * * * * * * * * //

dimensions      [0 0 0 0 0 0 0];
internalField   uniform (0 0 0);
boundaryField
{
    allWalls
    {
        type  wall;
        value nonuniform List<vector>
188
(
(0.029309 0.004033 0.000154)
(-0.041708 0.022289 0.000154)
(-0.097844 0.049727 0.000142)
(-0.085972 0.054822 0.000147)
(-0.044788 0.040128 0.000159)
(-0.024798 0.047310 0.000154)
(-0.019539 0.043934 0.000154)
(-0.006312 0.019412 0.000154)
(-0.006307 0.021230 0.000154)
(-0.007038 0.023042 0.000374)
(-0.005785 0.023533 0.000629)
(-0.006512 0.027961 0.000701)
(-0.006459 0.030421 0.000729)
(-0.006854 0.035874 0.000817)
(-0.006915 0.040969 0.000950)
(-0.006163 0.042398 0.001060)
(-0.005478 0.045019 0.001197)
(-0.005013 0.049983 0.001318)
(-0.004333 0.054186 0.001525)
(-0.003566 0.058273 0.001686)
(-0.002745 0.064916 0.001742)
(-0.001775 0.074026 0.001876)
(-0.000446 0.088048 0.002211)
(0.001318 0.102034 0.002042)
(0.003936 0.122584 0.001625)
(0.006352 0.130595 0.001548)
(0.008839 0.131845 0.001373)
(0.011514 0.141097 0.001175)
(0.013282 0.139846 0.001000)
(0.014429 0.135231 0.000517)
(0.016575 0.140989 0.000114)
(0.018376 0.145273 0.000114)
(0.019903 0.147251 0.000114)
(0.021242 0.149365 0.000114)
(0.021976 0.147508 0.000114)
(0.023635 0.152971 -0.000040)
(0.025526 0.158719 -0.000195)
(0.026428 0.158445 -0.000195)
(0.026705 0.156107 -0.000195)
(0.027332 0.156533 -0.000195)
(0.027628 0.155301 -0.000195)
(0.027729 0.153368 -0.000128)
(0.027618 0.150614 -0.000062)
(0.027626 0.148729 -0.000062)
(0.027088 0.143950 -0.000062)
(0.024286 0.127632 -0.000062)
(0.022379 0.116485 -0.000062)
(0.029438 0.155944 -0.000109)
(0.037201 0.198838 -0.000157)
(0.000805 -0.038205 -0.000157)
(-0.004461 0.025107 -0.000157)
(-0.006220 0.026394 -0.000157)
(-0.005784 0.026385 -0.000109)
(-0.005421 0.024349 -0.000062)
(-0.005151 0.023809 -0.000062)
(-0.003023 0.017125 -0.000062)
(-0.002078 0.012472 -0.000062)
(-0.000774 0.006663 -0.000062)
(-0.000283 0.003649 -0.000128)
(-0.001161 0.007208 -0.000195)
(-0.002742 0.014457 -0.000195)
(-0.003647 0.019515 -0.000195)
(-0.004159 0.022885 -0.000195)
(-0.004847 0.027824 -0.000195)
(-0.005681 0.033187 -0.000040)
(-0.006332 0.038284 0.000114)
(-0.006595 0.043050 0.000114)
(-0.006676 0.047447 0.000114)
(-0.006575 0.051433 0.000114)
(-0.006303 0.055065 0.000114)
(-0.005873 0.058420 0.000279)
(-0.005282 0.061315 0.000462)
(-0.004569 0.064232 0.000503)
(-0.003680 0.066355 0.000545)
(-0.002668 0.069291 0.000574)
(-0.001640 0.075502 0.000567)
(-0.000422 0.063277 0.000484)
(0.000606 0.046061 0.000369)
(0.001292 0.043784 0.000281)
(0.002022 0.043177 0.000255)
(0.002592 0.040642 0.000246)
(0.002766 0.034122 0.000154)
(0.002988 0.030060 0.000066)
(0.003483 0.028977 0.000035)
(0.003717 0.026339 0.000071)
(0.004070 0.024838 0.000159)
(0.004240 0.022999 0.000198)
(0.004029 0.019656 0.000198)
(0.004124 0.017450 0.000199)
(0.004466 0.015855 0.000201)
(0.006279 0.016937 0.000203)
(0.007107 0.014001 0.000135)
(0.006275 0.005858 0.000064)
(0.002801 -0.005278 -0.000008)
(0.004410 -0.004051 0.000038)
(0.010166 0.011931 0.000154)
(0.004516 0.012486 0.000105)
(0.004945 -0.004342 0.000105)
(0.025488 -0.005653 0.000154)
(0.043821 0.003411 0.000154)
(-0.010343 -0.017637 -0.000157)
(0.012308 0.244933 -0.000157)
(0.006488 0.193342 -0.000157)
(0.005017 0.166797 -0.000157)
(0.007242 0.230820 -0.000157)
(0.009498 0.286366 -0.000157)
(0.011296 0.331584 -0.000157)
(0.014401 0.418926 -0.000157)
(0.019922 0.580793 -0.000157)
(0.024952 0.743760 -0.000127)
(0.026399 0.744874 -0.000097)
(0.039985 1.115174 -0.000097)
(0.164183 3.896369 -0.000097)
(0.280877 7.506256 -0.000097)
(-9.952533 -28.823836 -0.000097)
(119.634945 -251.285217 -0.000097)
(-20.076119 -14.009261 -0.000097)
(-15.069271 -7.164595 -0.000097)
(-16.056317 -28.786914 -0.000097)
(-94.226423 247.591159 -0.000097)
(7.035340 77.547131 -0.000045)
(5.280628 36.812269 0.000008)
(1.857489 14.574163 0.000008)
(0.872553 1.897229 0.000008)
(2.465835 7.407850 0.000008)
(-1.433436 -3.214935 0.000008)
(-0.594944 -2.254644 0.000008)
(-1.240064 -2.022540 0.000008)
(-2.335223 -3.972408 0.000008)
(2.861357 3.564620 0.000008)
(3.721703 4.513127 0.000008)
(4.667358 4.706276 0.000008)
(7.930672 7.346363 0.000008)
(12.343802 10.088146 0.000008)
(26.019084 18.292577 0.000008)
(29.010094 18.357486 0.000008)
(18.478027 10.374360 0.000008)
(21.387802 9.747029 0.000008)
(61.774626 18.057868 0.000008)
(-70.754306 -24.300324 0.000008)
(-233.725456 -54.610798 0.000008)
(-118.312325 -13.557180 0.000008)
(8.883046 6.581681 0.000008)
(69.557446 -0.767677 0.000008)
(77.594306 -6.498211 0.000008)
(36.067688 -5.543827 0.000008)
(17.172831 -2.724469 0.000008)
(1.058001 -1.946914 0.000008)
(1.708091 -2.614688 0.000008)
(5.543454 -3.836333 0.000008)
(3.945831 -2.609103 0.000008)
(0.156655 0.424516 0.000008)
(0.760738 0.655183 0.000008)
(1.471273 0.106568 0.000008)
(0.922984 0.021094 0.000008)
(0.554752 -0.035974 0.000008)
(0.372863 -0.080505 0.000008)
(0.207512 -0.063258 0.000008)
(0.091595 -0.022405 0.000008)
(0.028588 0.003635 0.000008)
(0.000143 0.014058 0.000008)
(-0.011166 0.017625 0.000008)
(-0.014423 0.018409 0.000008)
(-0.014686 0.019502 0.000008)
(-0.013615 0.019428 0.000008)
(-0.011670 0.016387 0.000008)
(-0.010007 0.013983 0.000008)
(-0.006886 0.010773 -0.000045)
(-59.803216 0.005357 -0.000097)
(59.799738 0.000894 -0.000097)
(-0.002950 0.005182 -0.000097)
(0.004779 0.001809 -0.000097)
(0.005903 -0.032335 -0.000097)
(-0.006841 -0.004411 -0.000097)
(-0.007614 0.034779 -0.000097)
(-0.003677 0.017020 -0.000097)
(-0.002334 0.017073 -0.000097)
(-0.001619 0.017571 -0.000097)
(-0.001258 0.015428 -0.000127)
(-0.001100 0.014982 -0.000157)
(-0.000969 0.015041 -0.000157)
(-0.000897 0.014762 -0.000157)
(-0.000849 0.014422 -0.000157)
(-0.000817 0.014095 -0.000157)
(-0.000740 0.014679 -0.000157)
(-0.000727 0.015037 -0.000157)
(-0.000822 0.018963 -0.000157)
(-0.002598 0.026583 -0.000157)
)
;
    }
}
