/*--------------------------------*- C++ -*---------------------------------*\ 
| ========                 |                                                 | 
| \      /  F ield         | OpenFOAM: The Open Source CFD Toolbox           | 
|  \    /   O peration     | Version:  v1812                                 | 
|   \  /    A nd           | Web:      www.OpenFOAM.com                      | 
|    \/     M anipulation  |                                                 | 
\*--------------------------------------------------------------------------*/ 
FoamFile
{
    version     2.0;
    format      ascii;
    class       volVectorField;
    location    "/home/james/dafoam/myRuns/bezier_coanda_opt/0.00000000001/";
    object      sens_CL_shapey;
}
// * * * * * * * * * * * * * * * * * * * * * * * * * * * * * * * * * * * * * //

dimensions      [0 0 0 0 0 0 0];
internalField   uniform (0 0 0);
boundaryField
{
    allWalls
    {
        type  wall;
        value nonuniform List<vector>
188
(
(0.021419 0.004326 0.000153)
(-0.042135 0.021468 0.000153)
(-0.089855 0.045954 0.000140)
(-0.081706 0.052117 0.000145)
(-0.045433 0.040476 0.000158)
(-0.024316 0.045823 0.000153)
(-0.018314 0.041555 0.000153)
(-0.007873 0.021882 0.000153)
(-0.006956 0.022054 0.000153)
(-0.007091 0.023184 0.000373)
(-0.006278 0.024592 0.000628)
(-0.006527 0.027917 0.000700)
(-0.006663 0.030976 0.000727)
(-0.006843 0.035715 0.000815)
(-0.006977 0.041140 0.000948)
(-0.006177 0.042393 0.001058)
(-0.005505 0.045065 0.001195)
(-0.005017 0.049889 0.001315)
(-0.004349 0.054201 0.001521)
(-0.003572 0.058199 0.001684)
(-0.002752 0.064831 0.001739)
(-0.001779 0.073891 0.001873)
(-0.000452 0.087853 0.002210)
(0.001311 0.101769 0.002043)
(0.003922 0.122198 0.001628)
(0.006338 0.130231 0.001549)
(0.008818 0.131413 0.001374)
(0.011484 0.140523 0.001178)
(0.013254 0.139321 0.001003)
(0.014405 0.134762 0.000519)
(0.016543 0.140446 0.000117)
(0.018340 0.144685 0.000117)
(0.019868 0.146682 0.000117)
(0.021196 0.148724 0.000117)
(0.021929 0.146857 0.000117)
(0.023590 0.152320 -0.000038)
(0.025481 0.158046 -0.000193)
(0.026380 0.157737 -0.000193)
(0.026657 0.155414 -0.000193)
(0.027281 0.155821 -0.000193)
(0.027575 0.154580 -0.000193)
(0.027676 0.152655 -0.000127)
(0.027559 0.149878 -0.000060)
(0.027553 0.147921 -0.000060)
(0.027019 0.143173 -0.000060)
(0.024284 0.127233 -0.000060)
(0.022386 0.116092 -0.000060)
(0.029144 0.153757 -0.000108)
(0.036591 0.194705 -0.000156)
(0.001308 -0.034342 -0.000156)
(-0.004475 0.025273 -0.000156)
(-0.006239 0.026531 -0.000156)
(-0.005787 0.026419 -0.000108)
(-0.005392 0.024281 -0.000060)
(-0.005103 0.023645 -0.000060)
(-0.002980 0.016970 -0.000060)
(-0.002079 0.012484 -0.000060)
(-0.000781 0.006696 -0.000060)
(-0.000315 0.003836 -0.000127)
(-0.001237 0.007650 -0.000193)
(-0.002792 0.014774 -0.000193)
(-0.003659 0.019637 -0.000193)
(-0.004175 0.023043 -0.000193)
(-0.004864 0.028007 -0.000193)
(-0.005694 0.033351 -0.000038)
(-0.006343 0.038433 0.000117)
(-0.006601 0.043175 0.000117)
(-0.006676 0.047547 0.000117)
(-0.006572 0.051521 0.000117)
(-0.006298 0.055138 0.000117)
(-0.005866 0.058474 0.000281)
(-0.005275 0.061361 0.000465)
(-0.004562 0.064272 0.000505)
(-0.003673 0.066377 0.000547)
(-0.002662 0.069313 0.000577)
(-0.001636 0.075550 0.000569)
(-0.000419 0.063303 0.000485)
(0.000608 0.046062 0.000370)
(0.001292 0.043788 0.000282)
(0.002021 0.043192 0.000255)
(0.002590 0.040673 0.000247)
(0.002764 0.034149 0.000154)
(0.002983 0.030066 0.000065)
(0.003482 0.029022 0.000035)
(0.003716 0.026385 0.000070)
(0.004064 0.024852 0.000158)
(0.004242 0.023053 0.000198)
(0.004027 0.019698 0.000198)
(0.004122 0.017478 0.000199)
(0.004473 0.015900 0.000201)
(0.006292 0.017005 0.000203)
(0.007131 0.014099 0.000134)
(0.006322 0.005981 0.000062)
(0.002821 -0.005259 -0.000010)
(0.004398 -0.004125 0.000037)
(0.010236 0.011971 0.000153)
(0.004616 0.012967 0.000103)
(0.005113 -0.003605 0.000103)
(0.026166 -0.004955 0.000153)
(0.040902 0.003711 0.000153)
(-0.009790 -0.013838 -0.000156)
(0.011836 0.240139 -0.000156)
(0.006270 0.190117 -0.000156)
(0.004983 0.165954 -0.000156)
(0.007211 0.229916 -0.000156)
(0.009432 0.284448 -0.000156)
(0.011222 0.329149 -0.000156)
(0.014321 0.415804 -0.000156)
(0.019841 0.577049 -0.000156)
(0.024885 0.739317 -0.000126)
(0.026301 0.736534 -0.000097)
(0.039922 1.097518 -0.000097)
(0.164345 3.875772 -0.000097)
(0.284125 7.519182 -0.000097)
(-9.987312 -28.746005 -0.000097)
(117.899635 -249.930311 -0.000097)
(-19.990769 -13.906504 -0.000097)
(-14.935761 -7.101503 -0.000097)
(-16.032883 -28.792731 -0.000097)
(-92.632543 246.360526 -0.000097)
(6.976185 76.906007 -0.000044)
(5.218030 36.511953 0.000008)
(1.838352 14.462095 0.000008)
(0.866468 1.883767 0.000008)
(2.447128 7.348041 0.000008)
(-1.411860 -3.162034 0.000008)
(-0.582618 -2.212340 0.000008)
(-1.223817 -1.991156 0.000008)
(-2.307833 -3.922889 0.000008)
(2.830404 3.529181 0.000008)
(3.680636 4.465430 0.000008)
(4.610122 4.651114 0.000008)
(7.838863 7.262203 0.000008)
(12.199041 9.971644 0.000008)
(25.698314 18.068219 0.000008)
(28.717540 18.168459 0.000008)
(18.428801 10.341226 0.000008)
(21.185586 9.673616 0.000008)
(61.372197 17.946647 0.000008)
(-69.448549 -23.905643 0.000008)
(-230.728710 -53.935293 0.000008)
(-117.309455 -13.457054 0.000008)
(8.176347 6.406284 0.000008)
(68.555585 -0.780153 0.000008)
(76.594212 -6.466997 0.000008)
(35.726379 -5.523925 0.000008)
(17.006302 -2.718750 0.000008)
(1.004484 -1.931125 0.000008)
(1.642571 -2.605529 0.000008)
(5.459713 -3.835007 0.000008)
(3.891657 -2.622972 0.000008)
(0.147857 0.397878 0.000008)
(0.745121 0.640316 0.000008)
(1.457681 0.099248 0.000008)
(0.915806 0.016879 0.000008)
(0.551002 -0.037896 0.000008)
(0.371237 -0.081396 0.000008)
(0.207166 -0.063927 0.000008)
(0.091673 -0.022999 0.000008)
(0.028753 0.003088 0.000008)
(0.000310 0.013561 0.000008)
(-0.011017 0.017191 0.000008)
(-0.014304 0.018047 0.000008)
(-0.014598 0.019209 0.000008)
(-0.013557 0.019216 0.000008)
(-0.011645 0.016261 0.000008)
(-0.010012 0.013932 0.000008)
(-0.006908 0.010746 -0.000044)
(-59.803279 0.005324 -0.000097)
(59.799779 0.000881 -0.000097)
(-0.002944 0.005153 -0.000097)
(0.004737 0.001816 -0.000097)
(0.006015 -0.032814 -0.000097)
(-0.006714 -0.004957 -0.000097)
(-0.007674 0.034769 -0.000097)
(-0.003716 0.017100 -0.000097)
(-0.002370 0.017520 -0.000097)
(-0.001666 0.018727 -0.000097)
(-0.001254 0.015489 -0.000126)
(-0.001055 0.013852 -0.000156)
(-0.000953 0.014533 -0.000156)
(-0.000896 0.014684 -0.000156)
(-0.000852 0.014431 -0.000156)
(-0.000821 0.014111 -0.000156)
(-0.000742 0.014707 -0.000156)
(-0.000728 0.015086 -0.000156)
(-0.000825 0.019035 -0.000156)
(-0.002617 0.026731 -0.000156)
)
;
    }
}
