/*--------------------------------*- C++ -*---------------------------------*\ 
| ========                 |                                                 | 
| \      /  F ield         | OpenFOAM: The Open Source CFD Toolbox           | 
|  \    /   O peration     | Version:  v1812                                 | 
|   \  /    A nd           | Web:      www.OpenFOAM.com                      | 
|    \/     M anipulation  |                                                 | 
\*--------------------------------------------------------------------------*/ 
FoamFile
{
    version     2.0;
    format      ascii;
    class       volVectorField;
    location    "/home/james/dafoam/myRuns/bezier_coanda_opt/0.00000000001/";
    object      sens_CL_shapey;
}
// * * * * * * * * * * * * * * * * * * * * * * * * * * * * * * * * * * * * * //

dimensions      [0 0 0 0 0 0 0];
internalField   uniform (0 0 0);
boundaryField
{
    allWalls
    {
        type  wall;
        value nonuniform List<vector>
188
(
(0.032565 0.004336 0.000239)
(-0.042123 0.023164 0.000252)
(-0.091447 0.044402 0.000251)
(-0.115111 0.081928 0.000251)
(-0.065229 0.054319 0.000250)
(-0.005600 0.025949 0.000249)
(-0.019038 0.046836 0.000249)
(-0.008441 0.024321 0.000248)
(-0.005038 0.019661 0.000248)
(-0.006222 0.021728 0.000248)
(-0.005174 0.022337 0.000247)
(-0.005990 0.026767 0.000247)
(-0.006152 0.029447 0.000397)
(-0.006664 0.035163 0.000546)
(-0.006992 0.041305 0.000546)
(-0.006223 0.042642 0.000546)
(-0.005533 0.045183 0.000546)
(-0.005069 0.050286 0.000546)
(-0.004419 0.054892 0.001054)
(-0.003623 0.058805 0.001654)
(-0.002792 0.065628 0.001840)
(-0.001809 0.074968 0.002030)
(-0.000455 0.089484 0.002218)
(0.001343 0.103640 0.002576)
(0.004061 0.125025 0.002340)
(0.006546 0.133182 0.001675)
(0.009127 0.134587 0.001324)
(0.011929 0.144744 0.000978)
(0.013739 0.143227 0.000688)
(0.014903 0.138301 0.000450)
(0.017172 0.144628 0.000258)
(0.019071 0.149326 0.000106)
(0.020564 0.150715 -0.000212)
(0.021746 0.151471 -0.000448)
(0.022545 0.149937 -0.000414)
(0.025247 0.161939 -0.000299)
(0.026502 0.163333 -0.000239)
(0.026812 0.159173 -0.000272)
(0.027708 0.160719 -0.000264)
(0.028185 0.160040 -0.000249)
(0.028540 0.159101 -0.000233)
(0.028600 0.156875 -0.000216)
(0.028487 0.154053 -0.000197)
(0.028531 0.152359 -0.000178)
(0.027939 0.147293 -0.000182)
(0.024683 0.128785 -0.000190)
(0.022631 0.117342 -0.000178)
(0.031361 0.165856 -0.000167)
(0.040916 0.218980 -0.000161)
(-0.001941 -0.058974 -0.000161)
(-0.004321 0.024699 -0.000161)
(-0.006074 0.025822 -0.000161)
(-0.005676 0.026024 -0.000017)
(-0.005649 0.025898 0.000123)
(-0.005803 0.027611 0.000018)
(-0.002870 0.016881 -0.000082)
(-0.001397 0.009282 -0.000046)
(-0.000391 0.004714 -0.000010)
(-0.000270 0.003541 0.000039)
(-0.001287 0.007931 0.000084)
(-0.002730 0.014440 0.000052)
(-0.003484 0.018696 0.000050)
(-0.004021 0.022234 0.000070)
(-0.004737 0.027365 0.000072)
(-0.005556 0.032705 0.000084)
(-0.006207 0.037792 0.000091)
(-0.006480 0.042584 0.000102)
(-0.006564 0.047001 0.000112)
(-0.006464 0.051025 0.000192)
(-0.006196 0.054684 0.000317)
(-0.005776 0.058041 0.000412)
(-0.005195 0.060932 0.000506)
(-0.004491 0.063857 0.000512)
(-0.003615 0.065990 0.000550)
(-0.002622 0.068963 0.000741)
(-0.001605 0.075038 0.000649)
(-0.000410 0.062853 0.000409)
(0.000587 0.045552 0.000337)
(0.001281 0.043710 0.000276)
(0.002057 0.043967 0.000226)
(0.002464 0.039416 0.000185)
(0.002643 0.033012 0.000152)
(0.002957 0.030219 0.000341)
(0.003417 0.028728 0.000546)
(0.003642 0.026156 0.000546)
(0.003961 0.024448 0.000546)
(0.004177 0.022903 0.000546)
(0.003872 0.019212 0.000546)
(0.004033 0.017198 0.000366)
(0.004387 0.015731 0.000187)
(0.006093 0.016728 0.000192)
(0.006963 0.014219 0.000196)
(0.006226 0.006210 0.000200)
(0.002694 -0.005255 0.000204)
(0.004048 -0.004530 0.000208)
(0.009681 0.010879 0.000212)
(0.004061 0.010828 0.000215)
(0.007040 -0.006467 0.000219)
(0.033879 -0.005875 0.000222)
(0.052703 0.004799 0.000224)
(-0.013495 -0.038399 -0.000161)
(0.014926 0.268200 -0.000161)
(0.007583 0.207882 -0.000161)
(0.005049 0.168507 -0.000161)
(0.007283 0.233271 -0.000161)
(0.009731 0.293984 -0.000161)
(0.011557 0.341349 -0.000161)
(0.014679 0.431547 -0.000161)
(0.020177 0.595528 -0.000161)
(0.025082 0.761139 -0.000130)
(0.026619 0.781432 -0.000099)
(0.040011 1.195859 -0.000099)
(0.162156 3.979434 -0.000099)
(0.265513 7.411262 -0.000099)
(-9.607993 -29.311311 -0.000099)
(124.986391 -256.697432 -0.000099)
(-21.018338 -14.600328 -0.000099)
(-16.031484 -7.617609 -0.000099)
(-16.178185 -28.907620 -0.000099)
(-98.627678 253.071736 -0.000099)
(7.227549 79.290830 -0.000046)
(5.501240 37.830261 0.000007)
(1.925964 14.976353 0.000007)
(0.899876 1.939717 0.000007)
(2.518271 7.584303 0.000007)
(-1.583683 -3.585349 0.000007)
(-0.657502 -2.490057 0.000007)
(-1.349248 -2.231378 0.000007)
(-2.457331 -4.206497 0.000007)
(3.162782 3.942892 0.000007)
(4.135728 4.997817 0.000007)
(5.364175 5.398660 0.000007)
(9.005890 8.339119 0.000007)
(13.783394 11.265980 0.000007)
(29.213668 20.518101 0.000007)
(31.685003 20.077721 0.000007)
(19.309601 10.843564 0.000007)
(14.766023 6.401508 0.000007)
(50.287483 13.786409 0.000007)
(-80.507888 -25.184839 0.000007)
(-233.893003 -52.973475 0.000007)
(-114.860362 -12.554871 0.000007)
(9.860726 5.724019 0.000007)
(75.166098 -0.906993 0.000007)
(81.497345 -6.818956 0.000007)
(37.761513 -5.764406 0.000007)
(17.982177 -2.815176 0.000007)
(1.207733 -2.046548 0.000007)
(1.760331 -2.719398 0.000007)
(5.675861 -3.968590 0.000007)
(4.014167 -2.708794 0.000007)
(0.061907 0.443907 0.000007)
(0.711439 0.682127 0.000007)
(1.478265 0.113041 0.000007)
(0.924531 0.027244 0.000007)
(0.551928 -0.030878 0.000007)
(0.370301 -0.078460 0.000007)
(0.203290 -0.061866 0.000007)
(0.086765 -0.020393 0.000007)
(0.024454 0.006028 0.000007)
(-0.002806 0.016275 0.000007)
(-0.013099 0.019492 0.000007)
(-0.015656 0.019933 0.000007)
(-0.015472 0.020721 0.000007)
(-0.014136 0.020400 0.000007)
(-0.012069 0.017125 0.000007)
(-0.010382 0.014634 0.000007)
(-0.007117 0.011295 -0.000046)
(-59.803396 0.005592 -0.000099)
(59.799871 0.000937 -0.000099)
(-0.003015 0.005398 -0.000099)
(0.004990 0.001933 -0.000099)
(0.006153 -0.032737 -0.000099)
(-0.006935 -0.004164 -0.000099)
(-0.007748 0.035356 -0.000099)
(-0.003817 0.017015 -0.000099)
(-0.002488 0.017890 -0.000099)
(-0.001745 0.018354 -0.000099)
(-0.001283 0.014309 -0.000130)
(-0.001099 0.013465 -0.000161)
(-0.000997 0.014533 -0.000161)
(-0.000919 0.014622 -0.000161)
(-0.000869 0.014325 -0.000161)
(-0.000832 0.013962 -0.000161)
(-0.000762 0.014451 -0.000161)
(-0.000770 0.014792 -0.000161)
(-0.000870 0.018990 -0.000161)
(-0.002725 0.027329 -0.000161)
)
;
    }
}
