/*--------------------------------*- C++ -*---------------------------------*\ 
| ========                 |                                                 | 
| \      /  F ield         | OpenFOAM: The Open Source CFD Toolbox           | 
|  \    /   O peration     | Version:  v1812                                 | 
|   \  /    A nd           | Web:      www.OpenFOAM.com                      | 
|    \/     M anipulation  |                                                 | 
\*--------------------------------------------------------------------------*/ 
FoamFile
{
    version     2.0;
    format      ascii;
    class       volVectorField;
    location    "/home/james/dafoam/myRuns/bezier_coanda_opt/0.00000000001/";
    object      sens_CL_shapey;
}
// * * * * * * * * * * * * * * * * * * * * * * * * * * * * * * * * * * * * * //

dimensions      [0 0 0 0 0 0 0];
internalField   uniform (0 0 0);
boundaryField
{
    allWalls
    {
        type  wall;
        value nonuniform List<vector>
188
(
(0.020305 0.004219 0.000153)
(-0.041030 0.020792 0.000153)
(-0.087324 0.044585 0.000142)
(-0.080159 0.051068 0.000149)
(-0.044722 0.039442 0.000160)
(-0.024177 0.045114 0.000153)
(-0.018795 0.041686 0.000153)
(-0.008134 0.022079 0.000153)
(-0.007278 0.022504 0.000153)
(-0.007355 0.023654 0.000373)
(-0.006460 0.024940 0.000627)
(-0.006654 0.028194 0.000699)
(-0.006726 0.031092 0.000726)
(-0.006878 0.035738 0.000814)
(-0.007004 0.041153 0.000946)
(-0.006210 0.042484 0.001056)
(-0.005523 0.045053 0.001192)
(-0.005029 0.049846 0.001312)
(-0.004368 0.054229 0.001520)
(-0.003583 0.058170 0.001680)
(-0.002760 0.064784 0.001735)
(-0.001787 0.073824 0.001868)
(-0.000458 0.087752 0.002205)
(0.001307 0.101627 0.002038)
(0.003917 0.121985 0.001624)
(0.006337 0.130051 0.001551)
(0.008819 0.131192 0.001377)
(0.011484 0.140214 0.001180)
(0.013257 0.139036 0.001005)
(0.014413 0.134505 0.000521)
(0.016569 0.140297 0.000119)
(0.018395 0.144727 0.000119)
(0.019840 0.146088 0.000119)
(0.020957 0.146590 0.000119)
(0.021748 0.145245 0.000119)
(0.024348 0.156867 -0.000036)
(0.025579 0.158236 -0.000191)
(0.025906 0.154191 -0.000192)
(0.026780 0.155717 -0.000192)
(0.027240 0.155069 -0.000192)
(0.027597 0.154216 -0.000192)
(0.027673 0.152142 -0.000126)
(0.027556 0.149373 -0.000060)
(0.027538 0.147357 -0.000060)
(0.027007 0.142633 -0.000060)
(0.024310 0.126931 -0.000060)
(0.022415 0.115801 -0.000060)
(0.028999 0.152371 -0.000108)
(0.036258 0.192130 -0.000156)
(0.001603 -0.032086 -0.000156)
(-0.004495 0.025480 -0.000156)
(-0.006237 0.026774 -0.000156)
(-0.005790 0.026507 -0.000108)
(-0.005373 0.024240 -0.000060)
(-0.005048 0.023436 -0.000060)
(-0.002924 0.016735 -0.000060)
(-0.002071 0.012446 -0.000060)
(-0.000769 0.006630 -0.000060)
(-0.000326 0.003911 -0.000126)
(-0.001301 0.008040 -0.000192)
(-0.002831 0.015030 -0.000192)
(-0.003647 0.019629 -0.000192)
(-0.004165 0.023059 -0.000192)
(-0.004863 0.028085 -0.000192)
(-0.005690 0.033420 -0.000036)
(-0.006335 0.038477 0.000119)
(-0.006590 0.043213 0.000119)
(-0.006665 0.047585 0.000119)
(-0.006557 0.051537 0.000119)
(-0.006282 0.055147 0.000119)
(-0.005851 0.058485 0.000283)
(-0.005259 0.061355 0.000467)
(-0.004548 0.064261 0.000508)
(-0.003661 0.066362 0.000549)
(-0.002653 0.069307 0.000579)
(-0.001630 0.075556 0.000571)
(-0.000416 0.063265 0.000487)
(0.000610 0.046064 0.000371)
(0.001289 0.043748 0.000282)
(0.002019 0.043183 0.000254)
(0.002584 0.040675 0.000244)
(0.002763 0.034184 0.000152)
(0.002963 0.029975 0.000065)
(0.003486 0.029087 0.000034)
(0.003707 0.026421 0.000070)
(0.004037 0.024738 0.000159)
(0.004266 0.023235 0.000198)
(0.003969 0.019547 0.000198)
(0.004128 0.017489 0.000199)
(0.004488 0.015975 0.000201)
(0.006255 0.017002 0.000203)
(0.007207 0.014497 0.000135)
(0.006388 0.006170 0.000065)
(0.002817 -0.005409 -0.000008)
(0.004309 -0.004319 0.000036)
(0.010218 0.011890 0.000153)
(0.004789 0.013353 0.000105)
(0.004898 -0.003091 0.000105)
(0.024989 -0.004897 0.000153)
(0.039026 0.003614 0.000153)
(-0.009476 -0.011641 -0.000156)
(0.011555 0.237126 -0.000156)
(0.006133 0.188047 -0.000156)
(0.004953 0.165302 -0.000156)
(0.007181 0.229212 -0.000156)
(0.009381 0.283120 -0.000156)
(0.011166 0.327482 -0.000156)
(0.014259 0.413675 -0.000156)
(0.019776 0.574449 -0.000156)
(0.024820 0.736205 -0.000126)
(0.026209 0.731093 -0.000096)
(0.039840 1.086273 -0.000096)
(0.164310 3.861225 -0.000096)
(0.285911 7.522834 -0.000096)
(-10.001612 -28.700759 -0.000096)
(116.619728 -248.912304 -0.000096)
(-19.944246 -13.842742 -0.000096)
(-14.854272 -7.062518 -0.000096)
(-16.010975 -28.796247 -0.000096)
(-91.443931 245.454638 -0.000096)
(6.933857 76.429721 -0.000044)
(5.174232 36.294230 0.000008)
(1.826056 14.385145 0.000008)
(0.862630 1.874252 0.000008)
(2.433337 7.303228 0.000008)
(-1.398436 -3.128977 0.000008)
(-0.574615 -2.185180 0.000008)
(-1.214872 -1.973715 0.000008)
(-2.291999 -3.894109 0.000008)
(2.811594 3.507665 0.000008)
(3.655431 4.436146 0.000008)
(4.576043 4.618034 0.000008)
(7.787889 7.214962 0.000008)
(12.117852 9.906226 0.000008)
(25.520088 17.943019 0.000008)
(28.585343 18.080002 0.000008)
(18.481528 10.365076 0.000008)
(21.069551 9.642961 0.000008)
(61.341142 17.940031 0.000008)
(-68.533450 -23.656069 0.000008)
(-229.167307 -53.607329 0.000008)
(-117.178090 -13.475078 0.000008)
(7.418857 6.247258 0.000008)
(67.921977 -0.812435 0.000008)
(76.096540 -6.471696 0.000008)
(36.034121 -5.482049 0.000008)
(16.929180 -2.617141 0.000008)
(0.680363 -1.836222 0.000008)
(1.750678 -2.621971 0.000008)
(5.548825 -3.885403 0.000008)
(3.877715 -2.657295 0.000008)
(0.115401 0.375740 0.000008)
(0.715743 0.627700 0.000008)
(1.443085 0.090720 0.000008)
(0.907323 0.012768 0.000008)
(0.545607 -0.038986 0.000008)
(0.368866 -0.081879 0.000008)
(0.206517 -0.064436 0.000008)
(0.091491 -0.023436 0.000008)
(0.028661 0.002688 0.000008)
(0.000254 0.013175 0.000008)
(-0.011051 0.016836 0.000008)
(-0.014328 0.017740 0.000008)
(-0.014622 0.018955 0.000008)
(-0.013588 0.019034 0.000008)
(-0.011693 0.016154 0.000008)
(-0.010077 0.013902 0.000008)
(-0.006981 0.010736 -0.000044)
(-59.803379 0.005292 -0.000096)
(59.799820 0.000866 -0.000096)
(-0.002950 0.005131 -0.000096)
(0.004696 0.001826 -0.000096)
(0.006081 -0.033370 -0.000096)
(-0.006690 -0.005563 -0.000096)
(-0.007807 0.034743 -0.000096)
(-0.003795 0.017076 -0.000096)
(-0.002418 0.017523 -0.000096)
(-0.001695 0.018718 -0.000096)
(-0.001266 0.015464 -0.000126)
(-0.001064 0.013900 -0.000156)
(-0.000962 0.014578 -0.000156)
(-0.000901 0.014690 -0.000156)
(-0.000859 0.014434 -0.000156)
(-0.000831 0.014113 -0.000156)
(-0.000750 0.014728 -0.000156)
(-0.000731 0.015123 -0.000156)
(-0.000829 0.019129 -0.000156)
(-0.002657 0.026889 -0.000156)
)
;
    }
}
