/*--------------------------------*- C++ -*---------------------------------*\ 
| ========                 |                                                 | 
| \      /  F ield         | OpenFOAM: The Open Source CFD Toolbox           | 
|  \    /   O peration     | Version:  v1812                                 | 
|   \  /    A nd           | Web:      www.OpenFOAM.com                      | 
|    \/     M anipulation  |                                                 | 
\*--------------------------------------------------------------------------*/ 
FoamFile
{
    version     2.0;
    format      ascii;
    class       volVectorField;
    location    "/home/james/dafoam/myRuns/bezier_coanda_opt/0.00000000001/";
    object      sens_CL_shapey;
}
// * * * * * * * * * * * * * * * * * * * * * * * * * * * * * * * * * * * * * //

dimensions      [0 0 0 0 0 0 0];
internalField   uniform (0 0 0);
boundaryField
{
    allWalls
    {
        type  wall;
        value nonuniform List<vector>
188
(
(0.021046 0.004302 0.000153)
(-0.041902 0.021303 0.000153)
(-0.089165 0.045592 0.000143)
(-0.081228 0.051813 0.000150)
(-0.045204 0.040199 0.000160)
(-0.024230 0.045567 0.000153)
(-0.018387 0.041511 0.000153)
(-0.007950 0.021943 0.000153)
(-0.007041 0.022168 0.000153)
(-0.007159 0.023306 0.000373)
(-0.006330 0.024697 0.000627)
(-0.006563 0.027999 0.000699)
(-0.006680 0.031012 0.000726)
(-0.006854 0.035737 0.000814)
(-0.006982 0.041138 0.000947)
(-0.006182 0.042404 0.001057)
(-0.005509 0.045067 0.001194)
(-0.005018 0.049875 0.001313)
(-0.004352 0.054196 0.001521)
(-0.003574 0.058185 0.001681)
(-0.002753 0.064813 0.001736)
(-0.001780 0.073863 0.001868)
(-0.000453 0.087809 0.002205)
(0.001310 0.101716 0.002038)
(0.003919 0.122116 0.001623)
(0.006335 0.130154 0.001549)
(0.008814 0.131323 0.001375)
(0.011478 0.140402 0.001178)
(0.013248 0.139215 0.001003)
(0.014400 0.134662 0.000520)
(0.016536 0.140328 0.000118)
(0.018332 0.144567 0.000118)
(0.019860 0.146560 0.000118)
(0.021186 0.148582 0.000118)
(0.021919 0.146724 0.000118)
(0.023580 0.152187 -0.000037)
(0.025472 0.157908 -0.000192)
(0.026371 0.157595 -0.000192)
(0.026645 0.155261 -0.000192)
(0.027269 0.155669 -0.000192)
(0.027564 0.154436 -0.000192)
(0.027663 0.152503 -0.000126)
(0.027546 0.149723 -0.000060)
(0.027537 0.147754 -0.000060)
(0.027003 0.143009 -0.000060)
(0.024282 0.127147 -0.000060)
(0.022387 0.116013 -0.000060)
(0.029084 0.153309 -0.000108)
(0.036465 0.193853 -0.000156)
(0.001411 -0.033548 -0.000156)
(-0.004478 0.025305 -0.000156)
(-0.006243 0.026557 -0.000156)
(-0.005788 0.026424 -0.000108)
(-0.005386 0.024266 -0.000060)
(-0.005093 0.023609 -0.000060)
(-0.002971 0.016932 -0.000060)
(-0.002079 0.012482 -0.000060)
(-0.000783 0.006705 -0.000060)
(-0.000322 0.003873 -0.000126)
(-0.001251 0.007733 -0.000192)
(-0.002803 0.014843 -0.000192)
(-0.003662 0.019662 -0.000192)
(-0.004177 0.023069 -0.000192)
(-0.004869 0.028054 -0.000192)
(-0.005697 0.033384 -0.000037)
(-0.006344 0.038451 0.000118)
(-0.006603 0.043209 0.000118)
(-0.006678 0.047576 0.000118)
(-0.006570 0.051530 0.000118)
(-0.006297 0.055153 0.000118)
(-0.005866 0.058493 0.000282)
(-0.005273 0.061367 0.000466)
(-0.004560 0.064278 0.000506)
(-0.003672 0.066384 0.000548)
(-0.002661 0.069319 0.000577)
(-0.001635 0.075559 0.000569)
(-0.000419 0.063305 0.000486)
(0.000608 0.046064 0.000370)
(0.001292 0.043789 0.000282)
(0.002021 0.043192 0.000253)
(0.002590 0.040682 0.000243)
(0.002764 0.034153 0.000152)
(0.002982 0.030064 0.000065)
(0.003482 0.029032 0.000035)
(0.003716 0.026393 0.000070)
(0.004063 0.024855 0.000159)
(0.004242 0.023062 0.000197)
(0.004027 0.019706 0.000198)
(0.004123 0.017489 0.000199)
(0.004475 0.015909 0.000201)
(0.006292 0.017010 0.000203)
(0.007137 0.014119 0.000136)
(0.006330 0.006004 0.000066)
(0.002826 -0.005256 -0.000007)
(0.004395 -0.004141 0.000037)
(0.010244 0.011972 0.000153)
(0.004653 0.013073 0.000106)
(0.005043 -0.003463 0.000106)
(0.025825 -0.004931 0.000153)
(0.040367 0.003674 0.000153)
(-0.009676 -0.013057 -0.000156)
(0.011739 0.239152 -0.000156)
(0.006224 0.189453 -0.000156)
(0.004976 0.165779 -0.000156)
(0.007204 0.229727 -0.000156)
(0.009418 0.284051 -0.000156)
(0.011207 0.328644 -0.000156)
(0.014304 0.415157 -0.000156)
(0.019823 0.576272 -0.000156)
(0.024870 0.738394 -0.000126)
(0.026279 0.734808 -0.000096)
(0.039908 1.093870 -0.000096)
(0.164375 3.871488 -0.000096)
(0.284790 7.521768 -0.000096)
(-9.994403 -28.729739 -0.000096)
(117.538302 -249.647962 -0.000096)
(-19.973234 -13.885226 -0.000096)
(-14.908167 -7.088455 -0.000096)
(-16.027927 -28.793698 -0.000096)
(-92.300483 246.104142 -0.000096)
(6.963884 76.772367 -0.000044)
(5.205015 36.449453 0.000008)
(1.834343 14.438722 0.000008)
(0.865201 1.881029 0.000008)
(2.443242 7.335676 0.000008)
(-1.407426 -3.151185 0.000008)
(-0.580071 -2.203635 0.000008)
(-1.220452 -1.984670 0.000008)
(-2.302158 -3.912642 0.000008)
(2.824033 3.521884 0.000008)
(3.672197 4.455621 0.000008)
(4.598384 4.639801 0.000008)
(7.820022 7.244929 0.000008)
(12.169465 9.947831 0.000008)
(25.632705 18.022326 0.000008)
(28.657426 18.129652 0.000008)
(18.418658 10.334401 0.000008)
(21.145509 9.659107 0.000008)
(61.289930 17.924171 0.000008)
(-69.179901 -23.824543 0.000008)
(-230.117951 -53.798392 0.000008)
(-117.105635 -13.437806 0.000008)
(8.034353 6.370866 0.000008)
(68.350205 -0.782611 0.000008)
(76.389800 -6.460307 0.000008)
(35.655961 -5.519429 0.000008)
(16.971768 -2.717287 0.000008)
(0.993577 -1.928048 0.000008)
(1.629395 -2.603678 0.000008)
(5.442565 -3.834534 0.000008)
(3.880618 -2.625603 0.000008)
(0.146131 0.392528 0.000008)
(0.742010 0.637294 0.000008)
(1.454903 0.097769 0.000008)
(0.914331 0.016023 0.000008)
(0.550229 -0.038291 0.000008)
(0.370895 -0.081580 0.000008)
(0.207086 -0.064066 0.000008)
(0.091684 -0.023123 0.000008)
(0.028784 0.002972 0.000008)
(0.000343 0.013456 0.000008)
(-0.010988 0.017099 0.000008)
(-0.014281 0.017970 0.000008)
(-0.014581 0.019147 0.000008)
(-0.013546 0.019170 0.000008)
(-0.011641 0.016232 0.000008)
(-0.010014 0.013919 0.000008)
(-0.006913 0.010738 -0.000044)
(-59.803292 0.005315 -0.000096)
(59.799787 0.000878 -0.000096)
(-0.002943 0.005146 -0.000096)
(0.004728 0.001817 -0.000096)
(0.006035 -0.032912 -0.000096)
(-0.006692 -0.005074 -0.000096)
(-0.007690 0.034756 -0.000096)
(-0.003726 0.017098 -0.000096)
(-0.002376 0.017523 -0.000096)
(-0.001670 0.018728 -0.000096)
(-0.001255 0.015486 -0.000126)
(-0.001057 0.013857 -0.000156)
(-0.000955 0.014537 -0.000156)
(-0.000896 0.014684 -0.000156)
(-0.000853 0.014431 -0.000156)
(-0.000823 0.014111 -0.000156)
(-0.000743 0.014709 -0.000156)
(-0.000728 0.015093 -0.000156)
(-0.000826 0.019048 -0.000156)
(-0.002621 0.026759 -0.000156)
)
;
    }
}
