/*--------------------------------*- C++ -*---------------------------------*\ 
| ========                 |                                                 | 
| \      /  F ield         | OpenFOAM: The Open Source CFD Toolbox           | 
|  \    /   O peration     | Version:  v1812                                 | 
|   \  /    A nd           | Web:      www.OpenFOAM.com                      | 
|    \/     M anipulation  |                                                 | 
\*--------------------------------------------------------------------------*/ 
FoamFile
{
    version     2.0;
    format      ascii;
    class       volVectorField;
    location    "/home/james/dafoam/myRuns/bezier_coanda_opt/0.00000000001/";
    object      sens_CL_shapey;
}
// * * * * * * * * * * * * * * * * * * * * * * * * * * * * * * * * * * * * * //

dimensions      [0 0 0 0 0 0 0];
internalField   uniform (0 0 0);
boundaryField
{
    allWalls
    {
        type  wall;
        value nonuniform List<vector>
188
(
(0.022372 0.004427 0.000154)
(-0.042864 0.021965 0.000154)
(-0.091659 0.046902 0.000141)
(-0.082930 0.052894 0.000146)
(-0.046244 0.041419 0.000159)
(-0.024937 0.047078 0.000154)
(-0.018381 0.042212 0.000154)
(-0.007240 0.020923 0.000154)
(-0.006493 0.021390 0.000154)
(-0.006985 0.022972 0.000374)
(-0.006089 0.024233 0.000628)
(-0.006458 0.027779 0.000700)
(-0.006577 0.030784 0.000728)
(-0.006833 0.035753 0.000816)
(-0.006949 0.041085 0.000949)
(-0.006165 0.042378 0.001059)
(-0.005491 0.045056 0.001196)
(-0.005014 0.049945 0.001316)
(-0.004340 0.054198 0.001523)
(-0.003568 0.058243 0.001685)
(-0.002748 0.064888 0.001741)
(-0.001777 0.073974 0.001875)
(-0.000449 0.087974 0.002210)
(0.001315 0.101932 0.002042)
(0.003930 0.122434 0.001625)
(0.006346 0.130456 0.001547)
(0.008831 0.131677 0.001372)
(0.011503 0.140872 0.001175)
(0.013272 0.139646 0.001000)
(0.014420 0.135048 0.000518)
(0.016563 0.140777 0.000117)
(0.018363 0.145051 0.000117)
(0.019893 0.147052 0.000117)
(0.021226 0.149130 0.000117)
(0.021957 0.147245 0.000117)
(0.023616 0.152698 -0.000039)
(0.025509 0.158454 -0.000194)
(0.026410 0.158169 -0.000194)
(0.026687 0.155839 -0.000194)
(0.027314 0.156262 -0.000194)
(0.027607 0.155018 -0.000194)
(0.027711 0.153103 -0.000128)
(0.027596 0.150329 -0.000061)
(0.027598 0.148409 -0.000061)
(0.027062 0.143648 -0.000061)
(0.024286 0.127479 -0.000061)
(0.022383 0.116335 -0.000061)
(0.029324 0.155087 -0.000109)
(0.036963 0.197213 -0.000157)
(0.001003 -0.036685 -0.000157)
(-0.004466 0.025175 -0.000157)
(-0.006228 0.026452 -0.000157)
(-0.005785 0.026402 -0.000109)
(-0.005410 0.024326 -0.000061)
(-0.005131 0.023746 -0.000061)
(-0.003005 0.017062 -0.000061)
(-0.002077 0.012474 -0.000061)
(-0.000775 0.006674 -0.000061)
(-0.000294 0.003717 -0.000128)
(-0.001189 0.007373 -0.000194)
(-0.002761 0.014579 -0.000194)
(-0.003650 0.019552 -0.000194)
(-0.004163 0.022939 -0.000194)
(-0.004853 0.027897 -0.000194)
(-0.005684 0.033240 -0.000039)
(-0.006334 0.038334 0.000117)
(-0.006597 0.043099 0.000117)
(-0.006675 0.047481 0.000117)
(-0.006573 0.051464 0.000117)
(-0.006300 0.055090 0.000117)
(-0.005870 0.058441 0.000280)
(-0.005279 0.061333 0.000462)
(-0.004566 0.064244 0.000503)
(-0.003677 0.066365 0.000544)
(-0.002666 0.069300 0.000574)
(-0.001638 0.075522 0.000566)
(-0.000421 0.063287 0.000484)
(0.000607 0.046062 0.000369)
(0.001292 0.043785 0.000281)
(0.002022 0.043184 0.000255)
(0.002591 0.040656 0.000246)
(0.002765 0.034135 0.000153)
(0.002986 0.030061 0.000066)
(0.003483 0.028997 0.000035)
(0.003717 0.026359 0.000071)
(0.004068 0.024844 0.000159)
(0.004242 0.023024 0.000198)
(0.004027 0.019672 0.000198)
(0.004121 0.017456 0.000199)
(0.004470 0.015876 0.000201)
(0.006288 0.016975 0.000203)
(0.007114 0.014034 0.000134)
(0.006301 0.005920 0.000063)
(0.002804 -0.005277 -0.000009)
(0.004404 -0.004083 0.000037)
(0.010210 0.011967 0.000154)
(0.004503 0.012653 0.000104)
(0.005336 -0.004023 0.000104)
(0.027204 -0.005019 0.000154)
(0.042450 0.003828 0.000154)
(-0.010126 -0.016142 -0.000157)
(0.012123 0.243049 -0.000157)
(0.006403 0.192076 -0.000157)
(0.005004 0.166469 -0.000157)
(0.007230 0.230469 -0.000157)
(0.009473 0.285618 -0.000157)
(0.011268 0.330633 -0.000157)
(0.014371 0.417707 -0.000157)
(0.019891 0.579333 -0.000157)
(0.024927 0.742029 -0.000127)
(0.026362 0.741609 -0.000097)
(0.039963 1.108249 -0.000097)
(0.164252 3.888350 -0.000097)
(0.282162 7.511511 -0.000097)
(-9.966421 -28.793791 -0.000097)
(118.957849 -250.758021 -0.000097)
(-20.042711 -13.969086 -0.000097)
(-15.016981 -7.139892 -0.000097)
(-16.047415 -28.789792 -0.000097)
(-93.604563 247.112494 -0.000097)
(7.012252 77.297223 -0.000044)
(5.256168 36.695111 0.000008)
(1.850046 14.530509 0.000008)
(0.870182 1.891917 0.000008)
(2.458533 7.384434 0.000008)
(-1.424946 -3.194093 0.000008)
(-0.590106 -2.238001 0.000008)
(-1.233701 -2.010227 0.000008)
(-2.324502 -3.953008 0.000008)
(2.849200 3.550704 0.000008)
(3.705558 4.494385 0.000008)
(4.644824 4.684561 0.000008)
(7.894547 7.313252 0.000008)
(12.286705 10.042208 0.000008)
(25.892615 18.204125 0.000008)
(28.895119 18.283156 0.000008)
(18.458921 10.361467 0.000008)
(21.306808 9.717613 0.000008)
(61.616396 18.013883 0.000008)
(-70.240505 -24.144964 0.000008)
(-232.541537 -54.343157 0.000008)
(-117.916333 -13.516533 0.000008)
(8.600898 6.511876 0.000008)
(69.162793 -0.772748 0.000008)
(77.199919 -6.486325 0.000008)
(35.934082 -5.536305 0.000008)
(17.107653 -2.722351 0.000008)
(1.036770 -1.940690 0.000008)
(1.682041 -2.611167 0.000008)
(5.510364 -3.836067 0.000008)
(3.924405 -2.614864 0.000008)
(0.153085 0.413879 0.000008)
(0.754477 0.649289 0.000008)
(1.465912 0.103655 0.000008)
(0.920162 0.019421 0.000008)
(0.553282 -0.036732 0.000008)
(0.372235 -0.080856 0.000008)
(0.207388 -0.063521 0.000008)
(0.091633 -0.022636 0.000008)
(0.028657 0.003423 0.000008)
(0.000211 0.013866 0.000008)
(-0.011106 0.017457 0.000008)
(-0.014375 0.018270 0.000008)
(-0.014651 0.019390 0.000008)
(-0.013591 0.019348 0.000008)
(-0.011659 0.016341 0.000008)
(-0.010009 0.013966 0.000008)
(-0.006894 0.010765 -0.000044)
(-59.803241 0.005346 -0.000097)
(59.799755 0.000889 -0.000097)
(-0.002948 0.005172 -0.000097)
(0.004763 0.001813 -0.000097)
(0.005949 -0.032521 -0.000097)
(-0.006787 -0.004616 -0.000097)
(-0.007634 0.034783 -0.000097)
(-0.003689 0.017036 -0.000097)
(-0.002340 0.017093 -0.000097)
(-0.001621 0.017586 -0.000097)
(-0.001257 0.015434 -0.000127)
(-0.001099 0.015002 -0.000157)
(-0.000969 0.015059 -0.000157)
(-0.000895 0.014771 -0.000157)
(-0.000848 0.014429 -0.000157)
(-0.000818 0.014101 -0.000157)
(-0.000739 0.014691 -0.000157)
(-0.000727 0.015057 -0.000157)
(-0.000823 0.018993 -0.000157)
(-0.002606 0.026644 -0.000157)
)
;
    }
}
