/*--------------------------------*- C++ -*---------------------------------*\ 
| ========                 |                                                 | 
| \      /  F ield         | OpenFOAM: The Open Source CFD Toolbox           | 
|  \    /   O peration     | Version:  v1812                                 | 
|   \  /    A nd           | Web:      www.OpenFOAM.com                      | 
|    \/     M anipulation  |                                                 | 
\*--------------------------------------------------------------------------*/ 
FoamFile
{
    version     2.0;
    format      ascii;
    class       volVectorField;
    location    "/home/james/dafoam/myRuns/bezier_coanda_opt/0.00000000001/";
    object      sens_CL_shapey;
}
// * * * * * * * * * * * * * * * * * * * * * * * * * * * * * * * * * * * * * //

dimensions      [0 0 0 0 0 0 0];
internalField   uniform (0 0 0);
boundaryField
{
    allWalls
    {
        type  wall;
        value nonuniform List<vector>
188
(
(0.016899 0.003986 0.000231)
(-0.039155 0.019514 0.000245)
(-0.073575 0.036239 0.000244)
(-0.089919 0.064245 0.000243)
(-0.051804 0.043414 0.000243)
(-0.006211 0.021406 0.000242)
(-0.017955 0.040416 0.000241)
(-0.010853 0.025807 0.000240)
(-0.007572 0.022732 0.000240)
(-0.008473 0.025874 0.000239)
(-0.006814 0.025637 0.000239)
(-0.007072 0.029249 0.000238)
(-0.006898 0.031530 0.000384)
(-0.007008 0.036031 0.000531)
(-0.007039 0.041082 0.000531)
(-0.006268 0.042592 0.000531)
(-0.005550 0.044985 0.000531)
(-0.005042 0.049688 0.000531)
(-0.004382 0.054085 0.001033)
(-0.003595 0.057988 0.001624)
(-0.002768 0.064510 0.001803)
(-0.001797 0.073461 0.001987)
(-0.000476 0.087197 0.002168)
(0.001161 0.100950 0.002340)
(0.003746 0.120964 0.002046)
(0.006284 0.129060 0.001355)
(0.008740 0.130076 0.001051)
(0.011366 0.138716 0.000923)
(0.013139 0.137685 0.000674)
(0.014300 0.133288 0.000470)
(0.016426 0.138883 0.000307)
(0.018238 0.143247 0.000180)
(0.019665 0.144570 -0.000147)
(0.020750 0.144907 -0.000404)
(0.021545 0.143653 -0.000373)
(0.024139 0.155210 -0.000263)
(0.025377 0.156551 -0.000206)
(0.025700 0.152477 -0.000241)
(0.026560 0.153965 -0.000233)
(0.027008 0.153312 -0.000225)
(0.027359 0.152470 -0.000210)
(0.027444 0.150425 -0.000188)
(0.027326 0.147641 -0.000169)
(0.027277 0.145485 -0.000150)
(0.026759 0.140878 -0.000165)
(0.024235 0.126114 -0.000185)
(0.022370 0.115023 -0.000175)
(0.028230 0.147433 -0.000162)
(0.034744 0.182735 -0.000154)
(0.002816 -0.022780 -0.000154)
(-0.004496 0.025944 -0.000154)
(-0.006292 0.027282 -0.000154)
(-0.005634 0.025954 -0.000010)
(-0.005622 0.025843 0.000130)
(-0.005867 0.027942 0.000022)
(-0.002933 0.017258 -0.000080)
(-0.001460 0.009702 -0.000033)
(-0.000484 0.005351 0.000014)
(-0.000393 0.004310 0.000058)
(-0.001398 0.008638 0.000100)
(-0.002852 0.015256 0.000072)
(-0.003638 0.019706 0.000073)
(-0.004174 0.023268 0.000093)
(-0.004877 0.028360 0.000098)
(-0.005716 0.033686 0.000107)
(-0.006372 0.038719 0.000116)
(-0.006620 0.043430 0.000135)
(-0.006688 0.047788 0.000148)
(-0.006574 0.051739 0.000225)
(-0.006289 0.055326 0.000371)
(-0.005855 0.058637 0.000478)
(-0.005264 0.061486 0.000541)
(-0.004435 0.064388 0.000593)
(-0.003547 0.066463 0.000659)
(-0.002656 0.069402 0.000720)
(-0.001638 0.075659 0.000605)
(-0.000424 0.063433 0.000416)
(0.000596 0.045851 0.000325)
(0.001299 0.044064 0.000268)
(0.002089 0.044444 0.000222)
(0.002499 0.039815 0.000185)
(0.002677 0.033315 0.000155)
(0.003004 0.030564 0.000336)
(0.003484 0.029164 0.000531)
(0.003709 0.026528 0.000531)
(0.004042 0.024839 0.000531)
(0.004273 0.023339 0.000531)
(0.003996 0.019694 0.000531)
(0.004165 0.017634 0.000355)
(0.004506 0.016011 0.000181)
(0.006294 0.017084 0.000185)
(0.007283 0.014654 0.000189)
(0.006452 0.006261 0.000193)
(0.002857 -0.005435 0.000197)
(0.004324 -0.004404 0.000201)
(0.010346 0.012056 0.000205)
(0.005112 0.014432 0.000208)
(0.004118 -0.001637 0.000211)
(0.021659 -0.004580 0.000214)
(0.034254 0.003179 0.000216)
(-0.008114 -0.002447 -0.000154)
(0.010448 0.226294 -0.000154)
(0.005626 0.180743 -0.000154)
(0.004884 0.163538 -0.000154)
(0.007123 0.227415 -0.000154)
(0.009244 0.278962 -0.000154)
(0.011011 0.322102 -0.000154)
(0.014092 0.406728 -0.000154)
(0.019614 0.566161 -0.000154)
(0.024691 0.726366 -0.000124)
(0.026001 0.711829 -0.000095)
(0.039737 1.044934 -0.000095)
(0.164796 3.815220 -0.000095)
(0.294258 7.561686 -0.000095)
(-10.088060 -28.495082 -0.000095)
(112.817073 -246.057390 -0.000095)
(-19.754906 -13.602355 -0.000095)
(-14.551932 -6.921364 -0.000095)
(-15.971117 -28.801308 -0.000095)
(-87.953657 242.836756 -0.000095)
(6.800688 75.017860 -0.000043)
(5.030673 35.631328 0.000008)
(1.776176 14.121637 0.000008)
(0.847709 1.850706 0.000008)
(2.393598 7.185228 0.000008)
(-1.353205 -3.020683 0.000008)
(-0.547906 -2.098534 0.000008)
(-1.175303 -1.899623 0.000008)
(-2.223757 -3.772246 0.000008)
(2.744794 3.433537 0.000008)
(3.566356 4.333203 0.000008)
(4.453218 4.501249 0.000008)
(7.582290 7.027759 0.000008)
(11.801275 9.651778 0.000008)
(24.816051 17.451348 0.000008)
(27.880004 17.630911 0.000008)
(18.229087 10.215620 0.000008)
(20.654597 9.473634 0.000008)
(60.144481 17.613316 0.000008)
(-65.922510 -22.829755 0.000008)
(-222.541667 -52.105462 0.000008)
(-114.459623 -13.201896 0.000008)
(6.490608 5.966928 0.000008)
(65.780440 -0.819542 0.000008)
(73.890719 -6.353458 0.000008)
(35.115091 -5.404539 0.000008)
(16.448275 -2.596476 0.000008)
(0.529559 -1.821049 0.000008)
(1.563379 -2.635107 0.000008)
(5.305510 -3.897289 0.000008)
(3.729173 -2.676209 0.000008)
(0.089563 0.323409 0.000008)
(0.685045 0.593699 0.000008)
(1.408815 0.075016 0.000008)
(0.888125 0.002548 0.000008)
(0.535071 -0.045224 0.000008)
(0.362515 -0.085379 0.000008)
(0.203256 -0.067054 0.000008)
(0.090036 -0.025840 0.000008)
(0.028061 0.000520 0.000008)
(0.000009 0.011334 0.000008)
(-0.011166 0.015331 0.000008)
(-0.014414 0.016544 0.000008)
(-0.014711 0.018016 0.000008)
(-0.013691 0.018335 0.000008)
(-0.011818 0.015682 0.000008)
(-0.010216 0.013604 0.000008)
(-0.007137 0.010525 -0.000043)
(-59.803543 0.005144 -0.000095)
(59.799842 0.000828 -0.000095)
(-0.002950 0.005030 -0.000095)
(0.004555 0.001801 -0.000095)
(0.006053 -0.034195 -0.000095)
(-0.006742 -0.006664 -0.000095)
(-0.008081 0.034555 -0.000095)
(-0.003947 0.017467 -0.000095)
(-0.002522 0.018548 -0.000095)
(-0.001731 0.018836 -0.000095)
(-0.001233 0.014562 -0.000124)
(-0.001037 0.013525 -0.000154)
(-0.000954 0.014556 -0.000154)
(-0.000894 0.014700 -0.000154)
(-0.000859 0.014432 -0.000154)
(-0.000834 0.014068 -0.000154)
(-0.000751 0.014564 -0.000154)
(-0.000736 0.014836 -0.000154)
(-0.000837 0.019046 -0.000154)
(-0.002685 0.027309 -0.000154)
)
;
    }
}
