/*--------------------------------*- C++ -*---------------------------------*\ 
| ========                 |                                                 | 
| \      /  F ield         | OpenFOAM: The Open Source CFD Toolbox           | 
|  \    /   O peration     | Version:  v1812                                 | 
|   \  /    A nd           | Web:      www.OpenFOAM.com                      | 
|    \/     M anipulation  |                                                 | 
\*--------------------------------------------------------------------------*/ 
FoamFile
{
    version     2.0;
    format      ascii;
    class       volVectorField;
    location    "/home/james/dafoam/myRuns/bezier_coanda_opt/0.00000000001/";
    object      sens_CL_shapey;
}
// * * * * * * * * * * * * * * * * * * * * * * * * * * * * * * * * * * * * * //

dimensions      [0 0 0 0 0 0 0];
internalField   uniform (0 0 0);
boundaryField
{
    allWalls
    {
        type  wall;
        value nonuniform List<vector>
188
(
(0.019218 0.004049 0.000231)
(-0.039434 0.019975 0.000245)
(-0.076060 0.037323 0.000244)
(-0.093664 0.066818 0.000243)
(-0.053833 0.044978 0.000243)
(-0.006155 0.022097 0.000242)
(-0.018183 0.041408 0.000241)
(-0.010502 0.025558 0.000241)
(-0.007249 0.022358 0.000241)
(-0.008160 0.025268 0.000240)
(-0.006588 0.025173 0.000240)
(-0.006939 0.028936 0.000240)
(-0.006791 0.031209 0.000386)
(-0.006965 0.035905 0.000532)
(-0.007039 0.041117 0.000532)
(-0.006274 0.042641 0.000532)
(-0.005553 0.045011 0.000532)
(-0.005050 0.049771 0.000532)
(-0.004393 0.054233 0.001036)
(-0.003602 0.058114 0.001629)
(-0.002774 0.064684 0.001810)
(-0.001800 0.073695 0.001995)
(-0.000473 0.087547 0.002179)
(0.001289 0.101348 0.002528)
(0.003894 0.121563 0.002311)
(0.006324 0.129701 0.001675)
(0.008800 0.130751 0.001330)
(0.011459 0.139613 0.000989)
(0.013240 0.138518 0.000702)
(0.014401 0.134013 0.000466)
(0.016547 0.139702 0.000274)
(0.018373 0.144119 0.000122)
(0.019810 0.145452 -0.000187)
(0.020905 0.145812 -0.000416)
(0.021700 0.144509 -0.000385)
(0.024326 0.156193 -0.000274)
(0.025559 0.157518 -0.000217)
(0.025865 0.153386 -0.000251)
(0.026732 0.154890 -0.000245)
(0.027190 0.154214 -0.000232)
(0.027540 0.153348 -0.000217)
(0.027608 0.151257 -0.000202)
(0.027490 0.148466 -0.000185)
(0.027454 0.146377 -0.000167)
(0.026928 0.141679 -0.000171)
(0.024290 0.126309 -0.000179)
(0.022385 0.115121 -0.000169)
(0.028720 0.150195 -0.000159)
(0.035794 0.188784 -0.000155)
(0.002023 -0.028584 -0.000155)
(-0.004294 0.024688 -0.000155)
(-0.006061 0.025781 -0.000155)
(-0.005659 0.025968 -0.000014)
(-0.005664 0.025961 0.000123)
(-0.005863 0.027887 0.000022)
(-0.002953 0.017272 -0.000073)
(-0.001522 0.009899 -0.000037)
(-0.000554 0.005547 -0.000002)
(-0.000453 0.004497 0.000047)
(-0.001456 0.008856 0.000092)
(-0.002906 0.015449 0.000062)
(-0.003684 0.019867 0.000063)
(-0.004219 0.023446 0.000084)
(-0.004921 0.028547 0.000088)
(-0.005740 0.033833 0.000102)
(-0.006386 0.038839 0.000111)
(-0.006637 0.043556 0.000125)
(-0.006699 0.047882 0.000138)
(-0.006574 0.051799 0.000215)
(-0.006287 0.055377 0.000333)
(-0.005853 0.058669 0.000425)
(-0.005258 0.061499 0.000519)
(-0.004541 0.064370 0.000525)
(-0.003655 0.066439 0.000566)
(-0.002653 0.069366 0.000753)
(-0.001629 0.075545 0.000652)
(-0.000417 0.063346 0.000403)
(0.000596 0.045839 0.000326)
(0.001298 0.044022 0.000268)
(0.002082 0.044335 0.000220)
(0.002489 0.039706 0.000182)
(0.002670 0.033261 0.000151)
(0.002994 0.030503 0.000335)
(0.003469 0.029078 0.000532)
(0.003693 0.026453 0.000532)
(0.004023 0.024762 0.000532)
(0.004252 0.023256 0.000532)
(0.003978 0.019627 0.000532)
(0.004148 0.017586 0.000355)
(0.004483 0.015960 0.000181)
(0.006252 0.017013 0.000186)
(0.007225 0.014591 0.000190)
(0.006413 0.006287 0.000194)
(0.002845 -0.005333 0.000198)
(0.004278 -0.004377 0.000202)
(0.010203 0.011826 0.000205)
(0.004944 0.013829 0.000209)
(0.004585 -0.002366 0.000212)
(0.023468 -0.004745 0.000215)
(0.036891 0.003464 0.000217)
(-0.008992 -0.008280 -0.000155)
(0.011273 0.233431 -0.000155)
(0.005947 0.184805 -0.000155)
(0.004857 0.163534 -0.000155)
(0.007113 0.228011 -0.000155)
(0.009298 0.281092 -0.000155)
(0.011067 0.324661 -0.000155)
(0.014151 0.410028 -0.000155)
(0.019670 0.570027 -0.000155)
(0.024717 0.730869 -0.000125)
(0.026048 0.721041 -0.000095)
(0.039806 1.066293 -0.000095)
(0.164228 3.840618 -0.000095)
(0.292006 7.544127 -0.000095)
(-9.959439 -28.728331 -0.000095)
(112.712597 -247.657902 -0.000095)
(-20.451432 -13.837238 -0.000095)
(-15.038253 -7.142297 -0.000095)
(-16.087721 -28.973577 -0.000095)
(-87.331706 244.807513 -0.000095)
(6.807308 74.736620 -0.000044)
(5.039274 35.715221 0.000008)
(1.758191 14.119175 0.000008)
(0.850463 1.876336 0.000008)
(2.392676 7.222781 0.000008)
(-1.434249 -3.232466 0.000008)
(-0.566811 -2.201229 0.000008)
(-1.195469 -1.948135 0.000008)
(-2.208052 -3.769064 0.000008)
(2.935024 3.685552 0.000008)
(3.726177 4.525459 0.000008)
(4.818738 4.863708 0.000008)
(8.703746 8.031291 0.000008)
(13.551834 11.027942 0.000008)
(24.927864 17.670073 0.000008)
(29.064342 18.234794 0.000008)
(15.908530 8.893769 0.000008)
(11.785445 5.541762 0.000008)
(54.038913 16.103610 0.000008)
(-65.978699 -21.653268 0.000008)
(-211.292383 -48.369086 0.000008)
(-110.048329 -12.407494 0.000008)
(2.396213 4.055580 0.000008)
(66.541126 -1.076829 0.000008)
(73.621527 -6.561470 0.000008)
(35.463379 -5.517901 0.000008)
(16.425835 -2.618399 0.000008)
(0.599205 -1.895060 0.000008)
(1.799801 -2.704800 0.000008)
(5.136237 -3.873096 0.000008)
(3.550599 -2.696153 0.000008)
(0.044212 0.290430 0.000008)
(0.656329 0.578441 0.000008)
(1.397780 0.068771 0.000008)
(0.880222 0.004624 0.000008)
(0.534513 -0.043740 0.000008)
(0.369404 -0.087011 0.000008)
(0.205741 -0.064472 0.000008)
(0.090913 -0.023391 0.000008)
(0.028423 0.001680 0.000008)
(-0.000299 0.012153 0.000008)
(-0.011716 0.015849 0.000008)
(-0.014970 0.016784 0.000008)
(-0.015221 0.018095 0.000008)
(-0.014139 0.018301 0.000008)
(-0.012201 0.015558 0.000008)
(-0.010545 0.013441 0.000008)
(-0.007393 0.010378 -0.000044)
(-59.803737 0.005058 -0.000095)
(59.799859 0.000824 -0.000095)
(-0.003006 0.005033 -0.000095)
(0.004524 0.001734 -0.000095)
(0.005596 -0.034150 -0.000095)
(-0.007468 -0.006815 -0.000095)
(-0.008477 0.034104 -0.000095)
(-0.004161 0.017141 -0.000095)
(-0.002657 0.018282 -0.000095)
(-0.001821 0.018559 -0.000095)
(-0.001290 0.014344 -0.000125)
(-0.001078 0.013414 -0.000155)
(-0.000987 0.014440 -0.000155)
(-0.000921 0.014558 -0.000155)
(-0.000882 0.014287 -0.000155)
(-0.000855 0.013933 -0.000155)
(-0.000765 0.014422 -0.000155)
(-0.000746 0.014753 -0.000155)
(-0.000849 0.018853 -0.000155)
(-0.002701 0.027271 -0.000155)
)
;
    }
}
