/*--------------------------------*- C++ -*---------------------------------*\ 
| ========                 |                                                 | 
| \      /  F ield         | OpenFOAM: The Open Source CFD Toolbox           | 
|  \    /   O peration     | Version:  v1812                                 | 
|   \  /    A nd           | Web:      www.OpenFOAM.com                      | 
|    \/     M anipulation  |                                                 | 
\*--------------------------------------------------------------------------*/ 
FoamFile
{
    version     2.0;
    format      ascii;
    class       volVectorField;
    location    "/home/james/dafoam/myRuns/bezier_coanda_opt/0.00000000001/";
    object      sens_CL_shapey;
}
// * * * * * * * * * * * * * * * * * * * * * * * * * * * * * * * * * * * * * //

dimensions      [0 0 0 0 0 0 0];
internalField   uniform (0 0 0);
boundaryField
{
    allWalls
    {
        type  wall;
        value nonuniform List<vector>
188
(
(0.021421 0.004295 0.000153)
(-0.041712 0.021275 0.000153)
(-0.089342 0.045642 0.000143)
(-0.081650 0.052026 0.000150)
(-0.045430 0.040265 0.000160)
(-0.024435 0.045902 0.000153)
(-0.018612 0.041866 0.000153)
(-0.007884 0.021873 0.000153)
(-0.007024 0.022165 0.000153)
(-0.007141 0.023269 0.000373)
(-0.006312 0.024651 0.000628)
(-0.006547 0.027951 0.000700)
(-0.006669 0.030964 0.000727)
(-0.006849 0.035701 0.000815)
(-0.006988 0.041152 0.000948)
(-0.006192 0.042442 0.001058)
(-0.005513 0.045067 0.001195)
(-0.005024 0.049891 0.001315)
(-0.004360 0.054246 0.001522)
(-0.003578 0.058214 0.001682)
(-0.002757 0.064853 0.001737)
(-0.001783 0.073914 0.001870)
(-0.000454 0.087887 0.002207)
(0.001311 0.101800 0.002039)
(0.003926 0.122242 0.001623)
(0.006347 0.130294 0.001550)
(0.008832 0.131466 0.001375)
(0.011504 0.140588 0.001178)
(0.013278 0.139392 0.001004)
(0.014432 0.134827 0.000520)
(0.016573 0.140509 0.000117)
(0.018375 0.144759 0.000117)
(0.019906 0.146754 0.000117)
(0.021235 0.148779 0.000117)
(0.021971 0.146923 0.000117)
(0.023636 0.152392 -0.000038)
(0.025530 0.158109 -0.000193)
(0.026429 0.157789 -0.000193)
(0.026704 0.155446 -0.000193)
(0.027329 0.155850 -0.000193)
(0.027620 0.154590 -0.000193)
(0.027714 0.152621 -0.000127)
(0.027594 0.149827 -0.000060)
(0.027587 0.147870 -0.000060)
(0.027053 0.143123 -0.000060)
(0.024313 0.127183 -0.000060)
(0.022412 0.116044 -0.000060)
(0.029184 0.153733 -0.000108)
(0.036643 0.194709 -0.000156)
(0.001288 -0.034490 -0.000156)
(-0.004487 0.025376 -0.000156)
(-0.006227 0.026687 -0.000156)
(-0.005789 0.026486 -0.000108)
(-0.005392 0.024285 -0.000060)
(-0.005080 0.023545 -0.000060)
(-0.002952 0.016840 -0.000060)
(-0.002073 0.012448 -0.000060)
(-0.000768 0.006622 -0.000060)
(-0.000310 0.003813 -0.000127)
(-0.001257 0.007776 -0.000193)
(-0.002800 0.014832 -0.000193)
(-0.003643 0.019567 -0.000193)
(-0.004160 0.022986 -0.000193)
(-0.004855 0.027988 -0.000193)
(-0.005683 0.033326 -0.000038)
(-0.006330 0.038396 0.000117)
(-0.006590 0.043151 0.000117)
(-0.006665 0.047526 0.000117)
(-0.006560 0.051493 0.000117)
(-0.006288 0.055116 0.000117)
(-0.005856 0.058455 0.000282)
(-0.005265 0.061335 0.000466)
(-0.004553 0.064246 0.000506)
(-0.003666 0.066357 0.000548)
(-0.002657 0.069297 0.000578)
(-0.001632 0.075533 0.000569)
(-0.000418 0.063276 0.000486)
(0.000608 0.046037 0.000371)
(0.001291 0.043770 0.000283)
(0.002019 0.043178 0.000254)
(0.002587 0.040661 0.000244)
(0.002760 0.034136 0.000153)
(0.002977 0.030048 0.000066)
(0.003477 0.029020 0.000035)
(0.003710 0.026382 0.000071)
(0.004054 0.024831 0.000159)
(0.004235 0.023052 0.000198)
(0.004018 0.019693 0.000198)
(0.004113 0.017477 0.000199)
(0.004465 0.015904 0.000201)
(0.006278 0.017009 0.000203)
(0.007124 0.014137 0.000136)
(0.006323 0.006041 0.000067)
(0.002820 -0.005230 -0.000007)
(0.004367 -0.004173 0.000037)
(0.010221 0.011900 0.000153)
(0.004664 0.013020 0.000106)
(0.005115 -0.003538 0.000106)
(0.026021 -0.004969 0.000153)
(0.040624 0.003730 0.000153)
(-0.009824 -0.014006 -0.000156)
(0.011850 0.240118 -0.000156)
(0.006269 0.190060 -0.000156)
(0.004973 0.165833 -0.000156)
(0.007199 0.229787 -0.000156)
(0.009421 0.284329 -0.000156)
(0.011210 0.329016 -0.000156)
(0.014307 0.415642 -0.000156)
(0.019825 0.576817 -0.000156)
(0.024861 0.739025 -0.000126)
(0.026269 0.736326 -0.000097)
(0.039878 1.097310 -0.000097)
(0.164222 3.874380 -0.000097)
(0.283928 7.515708 -0.000097)
(-9.980678 -28.750915 -0.000097)
(117.738140 -249.792145 -0.000097)
(-19.997919 -13.907958 -0.000097)
(-14.938766 -7.102525 -0.000097)
(-16.027079 -28.794616 -0.000097)
(-92.472172 246.253204 -0.000097)
(6.971810 76.843902 -0.000044)
(5.214240 36.487524 0.000008)
(1.838340 14.457225 0.000008)
(0.866506 1.882622 0.000008)
(2.445371 7.341509 0.000008)
(-1.412016 -3.162210 0.000008)
(-0.582465 -2.212009 0.000008)
(-1.225173 -1.993590 0.000008)
(-2.309265 -3.925268 0.000008)
(2.831073 3.530064 0.000008)
(3.681122 4.466058 0.000008)
(4.611737 4.652486 0.000008)
(7.845118 7.267467 0.000008)
(12.207290 9.978297 0.000008)
(25.718830 18.082053 0.000008)
(28.767669 18.197649 0.000008)
(18.510364 10.384753 0.000008)
(21.185786 9.684550 0.000008)
(61.585790 18.005773 0.000008)
(-69.357471 -23.904021 0.000008)
(-231.010372 -54.017345 0.000008)
(-117.785198 -13.528069 0.000008)
(7.847151 6.354312 0.000008)
(68.546832 -0.804984 0.000008)
(76.715160 -6.493814 0.000008)
(36.250417 -5.496141 0.000008)
(17.035143 -2.620828 0.000008)
(0.711605 -1.845387 0.000008)
(1.790894 -2.627505 0.000008)
(5.601793 -3.887154 0.000008)
(3.911034 -2.649543 0.000008)
(0.120322 0.391793 0.000008)
(0.724908 0.636785 0.000008)
(1.451391 0.095149 0.000008)
(0.911727 0.015331 0.000008)
(0.547905 -0.037809 0.000008)
(0.369879 -0.081339 0.000008)
(0.206743 -0.064034 0.000008)
(0.091443 -0.023072 0.000008)
(0.028555 0.003025 0.000008)
(0.000143 0.013482 0.000008)
(-0.011149 0.017102 0.000008)
(-0.014407 0.017960 0.000008)
(-0.014680 0.019132 0.000008)
(-0.013626 0.019160 0.000008)
(-0.011710 0.016228 0.000008)
(-0.010077 0.013927 0.000008)
(-0.006970 0.010744 -0.000044)
(-59.803346 0.005307 -0.000097)
(59.799799 0.000875 -0.000097)
(-0.002955 0.005149 -0.000097)
(0.004721 0.001821 -0.000097)
(0.006008 -0.033094 -0.000097)
(-0.006782 -0.005257 -0.000097)
(-0.007787 0.034734 -0.000097)
(-0.003782 0.017045 -0.000097)
(-0.002412 0.017482 -0.000097)
(-0.001695 0.018693 -0.000097)
(-0.001270 0.015457 -0.000126)
(-0.001067 0.013865 -0.000156)
(-0.000964 0.014548 -0.000156)
(-0.000903 0.014681 -0.000156)
(-0.000860 0.014426 -0.000156)
(-0.000830 0.014106 -0.000156)
(-0.000750 0.014714 -0.000156)
(-0.000732 0.015093 -0.000156)
(-0.000828 0.019082 -0.000156)
(-0.002646 0.026798 -0.000156)
)
;
    }
}
