/*--------------------------------*- C++ -*---------------------------------*\ 
| ========                 |                                                 | 
| \      /  F ield         | OpenFOAM: The Open Source CFD Toolbox           | 
|  \    /   O peration     | Version:  v1812                                 | 
|   \  /    A nd           | Web:      www.OpenFOAM.com                      | 
|    \/     M anipulation  |                                                 | 
\*--------------------------------------------------------------------------*/ 
FoamFile
{
    version     2.0;
    format      ascii;
    class       volVectorField;
    location    "/home/james/dafoam/myRuns/bezier_coanda_opt/0.00000000001/";
    object      sens_CL_shapey;
}
// * * * * * * * * * * * * * * * * * * * * * * * * * * * * * * * * * * * * * //

dimensions      [0 0 0 0 0 0 0];
internalField   uniform (0 0 0);
boundaryField
{
    allWalls
    {
        type  wall;
        value nonuniform List<vector>
188
(
(0.019943 0.004202 0.000235)
(-0.040811 0.020646 0.000249)
(-0.086646 0.044241 0.000248)
(-0.079640 0.050748 0.000247)
(-0.044495 0.039194 0.000246)
(-0.024092 0.044866 0.000246)
(-0.018832 0.041610 0.000245)
(-0.008206 0.022143 0.000244)
(-0.007364 0.022629 0.000244)
(-0.007424 0.023794 0.000243)
(-0.006496 0.025036 0.000243)
(-0.006676 0.028283 0.000242)
(-0.006740 0.031136 0.000387)
(-0.006891 0.035740 0.000533)
(-0.007018 0.041144 0.000533)
(-0.006228 0.042496 0.000533)
(-0.005536 0.045040 0.000533)
(-0.005037 0.049817 0.000533)
(-0.004377 0.054223 0.001036)
(-0.003592 0.058154 0.001628)
(-0.002767 0.064755 0.001809)
(-0.001795 0.073792 0.001993)
(-0.000469 0.087705 0.002176)
(0.001178 0.101559 0.002349)
(0.003788 0.121890 0.002049)
(0.006334 0.129963 0.001345)
(0.008814 0.131092 0.001039)
(0.011474 0.140089 0.000917)
(0.013248 0.138925 0.000667)
(0.014407 0.134416 0.000463)
(0.016564 0.140199 0.000300)
(0.018390 0.144626 0.000172)
(0.019829 0.145971 -0.000155)
(0.020936 0.146433 -0.000411)
(0.021729 0.145101 -0.000377)
(0.024338 0.156742 -0.000265)
(0.025579 0.158102 -0.000211)
(0.025908 0.154053 -0.000248)
(0.026777 0.155568 -0.000239)
(0.027229 0.154913 -0.000226)
(0.027584 0.154072 -0.000210)
(0.027668 0.151999 -0.000190)
(0.027553 0.149214 -0.000171)
(0.027528 0.147178 -0.000151)
(0.027005 0.142498 -0.000075)
(0.024316 0.126872 -0.000090)
(0.022408 0.115712 -0.000166)
(0.028932 0.151912 -0.000159)
(0.036131 0.191277 -0.000157)
(0.001709 -0.031280 -0.000157)
(-0.004498 0.025516 -0.000157)
(-0.006240 0.026805 -0.000157)
(-0.005784 0.026525 -0.000006)
(-0.005363 0.024231 0.000035)
(-0.005042 0.023394 -0.000075)
(-0.002915 0.016699 -0.000072)
(-0.002065 0.012439 -0.000029)
(-0.000757 0.006619 0.000013)
(-0.000321 0.003941 0.000063)
(-0.001311 0.008138 0.000110)
(-0.002835 0.015099 0.000076)
(-0.003641 0.019653 0.000076)
(-0.004157 0.023096 0.000095)
(-0.004854 0.028132 0.000100)
(-0.005690 0.033450 0.000110)
(-0.006346 0.038495 0.000120)
(-0.006601 0.043227 0.000145)
(-0.006672 0.047589 0.000158)
(-0.006562 0.051560 0.000225)
(-0.006282 0.055175 0.000363)
(-0.005850 0.058499 0.000471)
(-0.005260 0.061360 0.000535)
(-0.004437 0.064278 0.000573)
(-0.003551 0.066378 0.000639)
(-0.002656 0.069305 0.000714)
(-0.001638 0.075572 0.000592)
(-0.000427 0.063276 0.000405)
(0.000601 0.046055 0.000326)
(0.001280 0.043738 0.000268)
(0.002009 0.043179 0.000221)
(0.002574 0.040675 0.000183)
(0.002751 0.034180 0.000152)
(0.002953 0.029971 0.000336)
(0.003477 0.029093 0.000533)
(0.003698 0.026422 0.000533)
(0.004029 0.024736 0.000533)
(0.004260 0.023234 0.000533)
(0.003966 0.019556 0.000533)
(0.004133 0.017506 0.000358)
(0.004496 0.015979 0.000184)
(0.006266 0.017017 0.000189)
(0.007221 0.014526 0.000193)
(0.006401 0.006195 0.000197)
(0.002829 -0.005398 0.000201)
(0.004313 -0.004330 0.000205)
(0.010235 0.011898 0.000208)
(0.004835 0.013471 0.000212)
(0.004836 -0.002936 0.000215)
(0.024659 -0.004865 0.000218)
(0.038506 0.003583 0.000220)
(-0.009360 -0.010851 -0.000157)
(0.011457 0.236134 -0.000157)
(0.006088 0.187382 -0.000157)
(0.004947 0.165132 -0.000157)
(0.007176 0.229028 -0.000157)
(0.009369 0.282726 -0.000157)
(0.011152 0.326982 -0.000157)
(0.014244 0.413033 -0.000157)
(0.019760 0.573679 -0.000157)
(0.024808 0.735291 -0.000126)
(0.026191 0.729373 -0.000095)
(0.039829 1.082630 -0.000095)
(0.164346 3.856971 -0.000095)
(0.286583 7.525462 -0.000095)
(-10.008991 -28.685132 -0.000095)
(116.250847 -248.626134 -0.000095)
(-19.927140 -13.821452 -0.000095)
(-14.826570 -7.049397 -0.000095)
(-16.006170 -28.797899 -0.000095)
(-91.104260 245.195815 -0.000095)
(6.921401 76.293406 -0.000043)
(5.161004 36.230697 0.000008)
(1.822004 14.361503 0.000008)
(0.861365 1.871533 0.000008)
(2.429388 7.290657 0.000008)
(-1.393944 -3.117973 0.000008)
(-0.572002 -2.176260 0.000008)
(-1.211468 -1.967129 0.000008)
(-2.286316 -3.883845 0.000008)
(2.805185 3.500297 0.000008)
(3.646989 4.426321 0.000008)
(4.564303 4.606707 0.000008)
(7.769098 7.197720 0.000008)
(12.088536 9.882598 0.000008)
(25.454850 17.897378 0.000008)
(28.525651 18.041478 0.000008)
(18.472873 10.359041 0.000008)
(21.032377 9.629801 0.000008)
(61.262552 17.919130 0.000008)
(-68.259769 -23.573939 0.000008)
(-228.562958 -53.473431 0.000008)
(-116.981948 -13.458742 0.000008)
(7.276832 6.212031 0.000008)
(67.715949 -0.814815 0.000008)
(75.893303 -6.464526 0.000008)
(35.963188 -5.477660 0.000008)
(16.894408 -2.616071 0.000008)
(0.669891 -1.833293 0.000008)
(1.737288 -2.620243 0.000008)
(5.531381 -3.884903 0.000008)
(3.866765 -2.659912 0.000008)
(0.113800 0.370444 0.000008)
(0.712769 0.624713 0.000008)
(1.440393 0.089255 0.000008)
(0.905904 0.011914 0.000008)
(0.544871 -0.039384 0.000008)
(0.368546 -0.082065 0.000008)
(0.206450 -0.064575 0.000008)
(0.091511 -0.023558 0.000008)
(0.028698 0.002576 0.000008)
(0.000291 0.013075 0.000008)
(-0.011019 0.016749 0.000008)
(-0.014302 0.017668 0.000008)
(-0.014603 0.018898 0.000008)
(-0.013575 0.018994 0.000008)
(-0.011687 0.016131 0.000008)
(-0.010077 0.013895 0.000008)
(-0.006984 0.010734 -0.000043)
(-59.803391 0.005287 -0.000095)
(59.799828 0.000864 -0.000095)
(-0.002949 0.005125 -0.000095)
(0.004687 0.001828 -0.000095)
(0.006107 -0.033463 -0.000095)
(-0.006659 -0.005662 -0.000095)
(-0.007814 0.034753 -0.000095)
(-0.003798 0.017091 -0.000095)
(-0.002418 0.017540 -0.000095)
(-0.001695 0.018729 -0.000095)
(-0.001264 0.015468 -0.000126)
(-0.001063 0.013915 -0.000157)
(-0.000961 0.014591 -0.000157)
(-0.000899 0.014695 -0.000157)
(-0.000859 0.014439 -0.000157)
(-0.000831 0.014117 -0.000157)
(-0.000749 0.014734 -0.000157)
(-0.000730 0.015134 -0.000157)
(-0.000829 0.019147 -0.000157)
(-0.002661 0.026922 -0.000157)
)
;
    }
}
