/*--------------------------------*- C++ -*----------------------------------*\
  =========                 |
  \\      /  F ield         | OpenFOAM: The Open Source CFD Toolbox
   \\    /   O peration     | Website:  https://openfoam.org
    \\  /    A nd           | Version:  8
     \\/     M anipulation  |
\*---------------------------------------------------------------------------*/
FoamFile
{
    version     2.0;
    format      ascii;
    class       volScalarField;
    location    "4.7";
    object      p;
}
// * * * * * * * * * * * * * * * * * * * * * * * * * * * * * * * * * * * * * //

dimensions      [0 2 -2 0 0 0 0];

internalField   nonuniform List<scalar> 
262620
(
-1.36411
-1.36432
-1.365
-1.36602
-1.36735
-1.369
-1.37093
-1.37314
-1.37561
-1.37831
-1.38123
-1.38436
-1.38768
-1.39118
-1.39485
-1.39866
-1.40261
-1.40668
-1.41087
-1.41516
-1.41954
-1.424
-1.42854
-1.43314
-1.43779
-1.44249
-1.44723
-1.452
-1.45679
-1.4616
-1.46643
-1.47126
-1.47609
-1.48091
-1.48573
-1.49054
-1.49532
-1.50009
-1.50483
-1.50955
-1.51423
-1.51888
-1.5235
-1.52807
-1.53261
-1.5371
-1.54155
-1.54595
-1.5503
-1.55461
-1.55887
-1.56307
-1.56723
-1.57133
-1.57538
-1.57937
-1.58331
-1.5872
-1.59103
-1.59481
-1.59853
-1.60219
-1.60581
-1.60936
-1.61286
-1.61631
-1.6197
-1.62304
-1.62633
-1.62956
-1.63273
-1.63586
-1.63893
-1.64195
-1.64493
-1.64784
-1.65071
-1.65353
-1.65631
-1.65903
-1.6617
-1.66433
-1.66691
-1.66945
-1.67194
-1.67439
-1.67679
-1.67915
-1.68146
-1.68374
-1.68597
-1.68816
-1.69031
-1.69243
-1.6945
-1.69654
-1.69854
-1.7005
-1.70242
-1.70431
-1.70617
-1.70799
-1.70977
-1.71153
-1.71325
-1.71494
-1.71659
-1.71822
-1.71982
-1.72138
-1.72292
-1.72443
-1.72591
-1.72736
-1.72879
-1.73019
-1.73156
-1.73291
-1.73423
-1.73553
-1.36397
-1.36419
-1.36486
-1.36588
-1.36721
-1.36886
-1.37079
-1.373
-1.37546
-1.37816
-1.38109
-1.38422
-1.38754
-1.39104
-1.3947
-1.39851
-1.40246
-1.40654
-1.41073
-1.41502
-1.4194
-1.42387
-1.4284
-1.433
-1.43766
-1.44236
-1.4471
-1.45187
-1.45666
-1.46148
-1.4663
-1.47113
-1.47597
-1.4808
-1.48562
-1.49042
-1.49522
-1.49998
-1.50473
-1.50945
-1.51413
-1.51879
-1.5234
-1.52798
-1.53252
-1.53701
-1.54147
-1.54587
-1.55023
-1.55454
-1.5588
-1.56301
-1.56716
-1.57127
-1.57532
-1.57932
-1.58326
-1.58715
-1.59098
-1.59476
-1.59849
-1.60216
-1.60577
-1.60933
-1.61283
-1.61628
-1.61968
-1.62302
-1.62631
-1.62954
-1.63272
-1.63585
-1.63893
-1.64195
-1.64492
-1.64785
-1.65072
-1.65354
-1.65632
-1.65904
-1.66172
-1.66435
-1.66694
-1.66947
-1.67197
-1.67442
-1.67682
-1.67918
-1.6815
-1.68378
-1.68601
-1.68821
-1.69036
-1.69248
-1.69455
-1.69659
-1.69859
-1.70056
-1.70248
-1.70437
-1.70623
-1.70805
-1.70984
-1.7116
-1.71332
-1.71501
-1.71667
-1.7183
-1.7199
-1.72147
-1.72301
-1.72452
-1.726
-1.72745
-1.72888
-1.73028
-1.73166
-1.733
-1.73433
-1.73563
-1.36374
-1.36395
-1.36462
-1.36564
-1.36697
-1.36861
-1.37054
-1.37275
-1.37521
-1.37791
-1.38083
-1.38396
-1.38729
-1.39079
-1.39445
-1.39826
-1.40221
-1.40629
-1.41048
-1.41477
-1.41916
-1.42362
-1.42816
-1.43277
-1.43742
-1.44213
-1.44687
-1.45164
-1.45644
-1.46126
-1.46609
-1.47093
-1.47576
-1.4806
-1.48542
-1.49023
-1.49503
-1.4998
-1.50455
-1.50927
-1.51396
-1.51862
-1.52324
-1.52783
-1.53237
-1.53687
-1.54133
-1.54574
-1.5501
-1.55441
-1.55868
-1.56289
-1.56705
-1.57116
-1.57522
-1.57922
-1.58317
-1.58707
-1.59091
-1.59469
-1.59842
-1.60209
-1.60571
-1.60928
-1.61279
-1.61624
-1.61964
-1.62299
-1.62628
-1.62952
-1.6327
-1.63584
-1.63892
-1.64195
-1.64492
-1.64785
-1.65073
-1.65355
-1.65633
-1.65906
-1.66174
-1.66438
-1.66697
-1.66951
-1.67201
-1.67446
-1.67687
-1.67923
-1.68155
-1.68383
-1.68607
-1.68827
-1.69043
-1.69255
-1.69463
-1.69667
-1.69867
-1.70064
-1.70257
-1.70446
-1.70632
-1.70815
-1.70994
-1.7117
-1.71343
-1.71512
-1.71678
-1.71841
-1.72001
-1.72158
-1.72313
-1.72464
-1.72612
-1.72758
-1.72901
-1.73042
-1.73179
-1.73314
-1.73447
-1.73577
-1.36339
-1.3636
-1.36426
-1.36527
-1.3666
-1.36824
-1.37017
-1.37237
-1.37483
-1.37753
-1.38045
-1.38358
-1.38691
-1.39041
-1.39407
-1.39788
-1.40184
-1.40592
-1.41011
-1.4144
-1.41879
-1.42326
-1.4278
-1.43241
-1.43707
-1.44178
-1.44653
-1.45131
-1.45611
-1.46093
-1.46577
-1.47061
-1.47545
-1.48029
-1.48512
-1.48994
-1.49474
-1.49952
-1.50428
-1.50901
-1.51371
-1.51837
-1.523
-1.52759
-1.53214
-1.53665
-1.54111
-1.54553
-1.5499
-1.55423
-1.5585
-1.56272
-1.56689
-1.57101
-1.57507
-1.57908
-1.58304
-1.58694
-1.59079
-1.59458
-1.59832
-1.602
-1.60562
-1.6092
-1.61271
-1.61618
-1.61958
-1.62294
-1.62624
-1.62948
-1.63267
-1.63581
-1.6389
-1.64194
-1.64492
-1.64786
-1.65074
-1.65357
-1.65636
-1.65909
-1.66178
-1.66442
-1.66702
-1.66957
-1.67207
-1.67453
-1.67694
-1.67932
-1.68164
-1.68393
-1.68617
-1.68838
-1.69054
-1.69267
-1.69475
-1.6968
-1.69881
-1.70078
-1.70272
-1.70462
-1.70648
-1.70831
-1.71011
-1.71187
-1.7136
-1.7153
-1.71697
-1.7186
-1.72021
-1.72178
-1.72333
-1.72485
-1.72634
-1.7278
-1.72923
-1.73064
-1.73202
-1.73337
-1.7347
-1.73601
-1.36293
-1.36313
-1.36379
-1.3648
-1.36612
-1.36775
-1.36968
-1.37188
-1.37434
-1.37703
-1.37995
-1.38308
-1.3864
-1.3899
-1.39357
-1.39739
-1.40134
-1.40542
-1.40962
-1.41391
-1.41831
-1.42278
-1.42733
-1.43194
-1.43661
-1.44132
-1.44607
-1.45086
-1.45567
-1.4605
-1.46534
-1.47019
-1.47504
-1.47989
-1.48473
-1.48956
-1.49437
-1.49916
-1.50392
-1.50866
-1.51337
-1.51805
-1.52268
-1.52728
-1.53184
-1.53636
-1.54084
-1.54526
-1.54965
-1.55398
-1.55826
-1.56249
-1.56667
-1.5708
-1.57487
-1.57889
-1.58286
-1.58677
-1.59063
-1.59443
-1.59818
-1.60187
-1.60551
-1.60909
-1.61262
-1.61609
-1.61951
-1.62287
-1.62618
-1.62943
-1.63264
-1.63578
-1.63888
-1.64193
-1.64492
-1.64786
-1.65076
-1.6536
-1.65639
-1.65914
-1.66183
-1.66448
-1.66709
-1.66964
-1.67215
-1.67462
-1.67704
-1.67942
-1.68176
-1.68405
-1.6863
-1.68851
-1.69068
-1.69282
-1.69491
-1.69696
-1.69898
-1.70096
-1.7029
-1.70481
-1.70668
-1.70851
-1.71032
-1.71209
-1.71382
-1.71553
-1.7172
-1.71884
-1.72045
-1.72203
-1.72359
-1.72511
-1.7266
-1.72807
-1.72951
-1.73092
-1.73231
-1.73367
-1.735
-1.73631
-1.36236
-1.36255
-1.3632
-1.3642
-1.36552
-1.36715
-1.36907
-1.37126
-1.37372
-1.37641
-1.37933
-1.38246
-1.38578
-1.38928
-1.39295
-1.39677
-1.40072
-1.40481
-1.40901
-1.41331
-1.41771
-1.42219
-1.42674
-1.43136
-1.43603
-1.44075
-1.44551
-1.45031
-1.45513
-1.45997
-1.46482
-1.46968
-1.47454
-1.4794
-1.48425
-1.48908
-1.49391
-1.49871
-1.50348
-1.50823
-1.51295
-1.51764
-1.52229
-1.5269
-1.53148
-1.53601
-1.54049
-1.54493
-1.54933
-1.55367
-1.55797
-1.56221
-1.5664
-1.57054
-1.57463
-1.57866
-1.58264
-1.58657
-1.59044
-1.59425
-1.59801
-1.60172
-1.60536
-1.60896
-1.6125
-1.61598
-1.61941
-1.62279
-1.62611
-1.62937
-1.63259
-1.63575
-1.63886
-1.64191
-1.64492
-1.64787
-1.65077
-1.65363
-1.65643
-1.65919
-1.6619
-1.66456
-1.66717
-1.66974
-1.67226
-1.67473
-1.67717
-1.67955
-1.6819
-1.6842
-1.68646
-1.68868
-1.69086
-1.693
-1.69511
-1.69717
-1.69919
-1.70118
-1.70313
-1.70505
-1.70693
-1.70877
-1.71058
-1.71236
-1.7141
-1.71581
-1.71749
-1.71914
-1.72076
-1.72235
-1.72391
-1.72544
-1.72694
-1.72841
-1.72986
-1.73128
-1.73267
-1.73404
-1.73538
-1.73669
-1.36169
-1.36187
-1.36251
-1.3635
-1.36481
-1.36643
-1.36834
-1.37054
-1.37299
-1.37568
-1.3786
-1.38172
-1.38504
-1.38854
-1.39221
-1.39603
-1.39999
-1.40408
-1.40828
-1.41259
-1.41699
-1.42148
-1.42604
-1.43066
-1.43535
-1.44008
-1.44485
-1.44965
-1.45448
-1.45933
-1.46419
-1.46906
-1.47394
-1.47881
-1.48367
-1.48852
-1.49335
-1.49817
-1.50296
-1.50772
-1.51246
-1.51716
-1.52182
-1.52645
-1.53104
-1.53558
-1.54008
-1.54454
-1.54894
-1.5533
-1.55761
-1.56187
-1.56608
-1.57024
-1.57434
-1.57839
-1.58238
-1.58632
-1.59021
-1.59404
-1.59781
-1.60153
-1.60519
-1.6088
-1.61236
-1.61585
-1.6193
-1.62269
-1.62602
-1.6293
-1.63253
-1.6357
-1.63883
-1.6419
-1.64491
-1.64788
-1.6508
-1.65366
-1.65648
-1.65925
-1.66197
-1.66464
-1.66727
-1.66985
-1.67238
-1.67487
-1.67731
-1.67971
-1.68207
-1.68438
-1.68665
-1.68889
-1.69108
-1.69323
-1.69534
-1.69741
-1.69945
-1.70144
-1.7034
-1.70533
-1.70722
-1.70907
-1.71089
-1.71268
-1.71443
-1.71615
-1.71784
-1.7195
-1.72113
-1.72272
-1.72429
-1.72583
-1.72734
-1.72882
-1.73027
-1.7317
-1.7331
-1.73447
-1.73582
-1.73714
-1.36091
-1.36107
-1.3617
-1.36268
-1.36398
-1.3656
-1.36751
-1.36969
-1.37214
-1.37483
-1.37774
-1.38087
-1.38419
-1.38769
-1.39136
-1.39518
-1.39915
-1.40324
-1.40745
-1.41176
-1.41617
-1.42066
-1.42523
-1.42986
-1.43456
-1.4393
-1.44408
-1.44889
-1.45373
-1.45859
-1.46347
-1.46835
-1.47324
-1.47812
-1.483
-1.48787
-1.49272
-1.49755
-1.50235
-1.50713
-1.51188
-1.5166
-1.52128
-1.52592
-1.53053
-1.53509
-1.53961
-1.54408
-1.5485
-1.55288
-1.55721
-1.56149
-1.56571
-1.56988
-1.574
-1.57807
-1.58208
-1.58604
-1.58994
-1.59379
-1.59758
-1.60131
-1.605
-1.60862
-1.61219
-1.61571
-1.61917
-1.62257
-1.62592
-1.62922
-1.63246
-1.63565
-1.63879
-1.64188
-1.64491
-1.64789
-1.65082
-1.65371
-1.65654
-1.65932
-1.66205
-1.66474
-1.66738
-1.66997
-1.67252
-1.67502
-1.67748
-1.67989
-1.68226
-1.68459
-1.68688
-1.68912
-1.69132
-1.69349
-1.69561
-1.69769
-1.69974
-1.70175
-1.70372
-1.70566
-1.70756
-1.70942
-1.71125
-1.71305
-1.71481
-1.71655
-1.71825
-1.71991
-1.72155
-1.72316
-1.72473
-1.72628
-1.7278
-1.72929
-1.73075
-1.73219
-1.7336
-1.73498
-1.73633
-1.73766
-1.36002
-1.36017
-1.36079
-1.36176
-1.36305
-1.36466
-1.36656
-1.36874
-1.37118
-1.37387
-1.37678
-1.3799
-1.38322
-1.38673
-1.3904
-1.39422
-1.39819
-1.40228
-1.4065
-1.41082
-1.41524
-1.41974
-1.42431
-1.42896
-1.43366
-1.43841
-1.4432
-1.44803
-1.45289
-1.45776
-1.46265
-1.46755
-1.47245
-1.47735
-1.48225
-1.48713
-1.49199
-1.49684
-1.50166
-1.50646
-1.51123
-1.51597
-1.52067
-1.52533
-1.52995
-1.53453
-1.53907
-1.54356
-1.54801
-1.5524
-1.55675
-1.56105
-1.56529
-1.56948
-1.57362
-1.57771
-1.58174
-1.58572
-1.58964
-1.5935
-1.59732
-1.60107
-1.60477
-1.60842
-1.612
-1.61554
-1.61902
-1.62244
-1.62581
-1.62913
-1.63239
-1.6356
-1.63875
-1.64185
-1.64491
-1.64791
-1.65085
-1.65375
-1.6566
-1.6594
-1.66215
-1.66485
-1.66751
-1.67012
-1.67268
-1.6752
-1.67767
-1.6801
-1.68248
-1.68483
-1.68713
-1.68938
-1.6916
-1.69378
-1.69592
-1.69801
-1.70007
-1.7021
-1.70408
-1.70603
-1.70794
-1.70982
-1.71166
-1.71347
-1.71525
-1.71699
-1.7187
-1.72038
-1.72203
-1.72365
-1.72523
-1.72679
-1.72832
-1.72982
-1.73129
-1.73274
-1.73416
-1.73555
-1.73692
-1.73825
-1.35903
-1.35917
-1.35978
-1.36073
-1.36201
-1.36361
-1.3655
-1.36768
-1.37011
-1.37279
-1.3757
-1.37883
-1.38215
-1.38565
-1.38932
-1.39315
-1.39712
-1.40122
-1.40544
-1.40977
-1.41419
-1.41871
-1.42329
-1.42795
-1.43266
-1.43743
-1.44223
-1.44707
-1.45194
-1.45683
-1.46174
-1.46666
-1.47157
-1.47649
-1.4814
-1.4863
-1.49119
-1.49605
-1.5009
-1.50572
-1.5105
-1.51526
-1.51998
-1.52466
-1.52931
-1.53391
-1.53847
-1.54298
-1.54745
-1.55187
-1.55624
-1.56056
-1.56482
-1.56904
-1.5732
-1.57731
-1.58136
-1.58536
-1.5893
-1.59319
-1.59702
-1.6008
-1.60452
-1.60819
-1.6118
-1.61535
-1.61885
-1.6223
-1.62569
-1.62902
-1.6323
-1.63553
-1.63871
-1.64183
-1.6449
-1.64792
-1.65089
-1.65381
-1.65667
-1.65949
-1.66226
-1.66498
-1.66765
-1.67028
-1.67286
-1.6754
-1.67789
-1.68033
-1.68273
-1.68509
-1.68741
-1.68968
-1.69191
-1.69411
-1.69626
-1.69837
-1.70045
-1.70248
-1.70448
-1.70645
-1.70837
-1.71026
-1.71212
-1.71394
-1.71573
-1.71749
-1.71921
-1.7209
-1.72256
-1.72419
-1.72579
-1.72736
-1.7289
-1.73042
-1.7319
-1.73336
-1.73479
-1.73619
-1.73757
-1.73891
-1.35795
-1.35807
-1.35866
-1.3596
-1.36087
-1.36246
-1.36434
-1.36651
-1.36894
-1.37161
-1.37452
-1.37764
-1.38096
-1.38446
-1.38814
-1.39197
-1.39595
-1.40005
-1.40428
-1.40862
-1.41305
-1.41757
-1.42217
-1.42684
-1.43156
-1.43634
-1.44116
-1.44602
-1.4509
-1.45581
-1.46073
-1.46567
-1.47061
-1.47554
-1.48047
-1.48539
-1.4903
-1.49519
-1.50005
-1.50489
-1.5097
-1.51448
-1.51923
-1.52393
-1.5286
-1.53323
-1.53781
-1.54235
-1.54684
-1.55128
-1.55567
-1.56002
-1.56431
-1.56855
-1.57273
-1.57686
-1.58094
-1.58496
-1.58893
-1.59284
-1.5967
-1.6005
-1.60424
-1.60793
-1.61157
-1.61515
-1.61867
-1.62214
-1.62555
-1.62891
-1.63221
-1.63546
-1.63866
-1.6418
-1.6449
-1.64794
-1.65093
-1.65386
-1.65675
-1.65959
-1.66238
-1.66512
-1.66781
-1.67046
-1.67306
-1.67561
-1.67812
-1.68058
-1.683
-1.68538
-1.68771
-1.69001
-1.69226
-1.69447
-1.69663
-1.69877
-1.70086
-1.70291
-1.70493
-1.7069
-1.70885
-1.71075
-1.71263
-1.71446
-1.71627
-1.71804
-1.71977
-1.72148
-1.72315
-1.7248
-1.72641
-1.72799
-1.72955
-1.73107
-1.73257
-1.73404
-1.73548
-1.7369
-1.73828
-1.73964
-1.35677
-1.35687
-1.35744
-1.35837
-1.35962
-1.3612
-1.36307
-1.36523
-1.36765
-1.37033
-1.37323
-1.37635
-1.37967
-1.38317
-1.38685
-1.39068
-1.39466
-1.39878
-1.40301
-1.40736
-1.4118
-1.41633
-1.42094
-1.42562
-1.43036
-1.43516
-1.43999
-1.44487
-1.44977
-1.4547
-1.45964
-1.46459
-1.46955
-1.47451
-1.47946
-1.4844
-1.48933
-1.49424
-1.49913
-1.504
-1.50883
-1.51363
-1.5184
-1.52313
-1.52783
-1.53248
-1.53709
-1.54165
-1.54617
-1.55064
-1.55506
-1.55943
-1.56374
-1.56801
-1.57222
-1.57638
-1.58048
-1.58453
-1.58853
-1.59246
-1.59635
-1.60017
-1.60394
-1.60766
-1.61132
-1.61492
-1.61847
-1.62196
-1.6254
-1.62878
-1.63211
-1.63539
-1.63861
-1.64177
-1.64489
-1.64795
-1.65097
-1.65393
-1.65684
-1.6597
-1.66251
-1.66527
-1.66799
-1.67065
-1.67327
-1.67585
-1.67838
-1.68086
-1.6833
-1.6857
-1.68805
-1.69036
-1.69263
-1.69486
-1.69705
-1.6992
-1.7013
-1.70338
-1.70541
-1.7074
-1.70936
-1.71129
-1.71318
-1.71503
-1.71685
-1.71863
-1.72039
-1.72211
-1.7238
-1.72546
-1.72708
-1.72868
-1.73025
-1.73179
-1.7333
-1.73478
-1.73624
-1.73767
-1.73906
-1.74043
-1.35549
-1.35557
-1.35612
-1.35704
-1.35828
-1.35984
-1.3617
-1.36385
-1.36627
-1.36893
-1.37183
-1.37495
-1.37827
-1.38177
-1.38545
-1.38929
-1.39328
-1.3974
-1.40164
-1.40599
-1.41045
-1.41499
-1.41962
-1.42431
-1.42907
-1.43387
-1.43873
-1.44362
-1.44854
-1.45349
-1.45845
-1.46343
-1.46841
-1.47339
-1.47836
-1.48333
-1.48828
-1.49322
-1.49813
-1.50302
-1.50789
-1.51272
-1.51751
-1.52227
-1.52699
-1.53167
-1.53631
-1.5409
-1.54544
-1.54994
-1.55439
-1.55879
-1.56313
-1.56743
-1.57167
-1.57585
-1.57999
-1.58406
-1.58809
-1.59205
-1.59596
-1.59982
-1.60362
-1.60736
-1.61105
-1.61468
-1.61825
-1.62177
-1.62524
-1.62865
-1.632
-1.6353
-1.63855
-1.64174
-1.64488
-1.64797
-1.65101
-1.654
-1.65693
-1.65982
-1.66265
-1.66544
-1.66818
-1.67087
-1.67351
-1.67611
-1.67866
-1.68116
-1.68362
-1.68604
-1.68842
-1.69075
-1.69304
-1.69529
-1.69749
-1.69966
-1.70179
-1.70388
-1.70593
-1.70795
-1.70992
-1.71187
-1.71377
-1.71564
-1.71748
-1.71928
-1.72105
-1.72279
-1.7245
-1.72617
-1.72781
-1.72943
-1.73101
-1.73256
-1.73409
-1.73559
-1.73706
-1.7385
-1.73991
-1.74129
-1.35412
-1.35418
-1.35471
-1.35561
-1.35683
-1.35838
-1.36023
-1.36237
-1.36478
-1.36744
-1.37033
-1.37345
-1.37677
-1.38027
-1.38395
-1.3878
-1.39179
-1.39592
-1.40017
-1.40453
-1.409
-1.41355
-1.41819
-1.4229
-1.42767
-1.4325
-1.43737
-1.44228
-1.44722
-1.45219
-1.45718
-1.46218
-1.46718
-1.47218
-1.47719
-1.48218
-1.48716
-1.49212
-1.49706
-1.50198
-1.50687
-1.51173
-1.51655
-1.52134
-1.52609
-1.5308
-1.53547
-1.54009
-1.54467
-1.54919
-1.55367
-1.5581
-1.56248
-1.5668
-1.57107
-1.57529
-1.57945
-1.58356
-1.58761
-1.59161
-1.59555
-1.59944
-1.60327
-1.60704
-1.61075
-1.61442
-1.61802
-1.62157
-1.62506
-1.6285
-1.63188
-1.63521
-1.63849
-1.64171
-1.64488
-1.64799
-1.65106
-1.65407
-1.65703
-1.65994
-1.6628
-1.66561
-1.66838
-1.67109
-1.67376
-1.67638
-1.67896
-1.68149
-1.68397
-1.68641
-1.68881
-1.69116
-1.69347
-1.69574
-1.69797
-1.70016
-1.70231
-1.70442
-1.7065
-1.70853
-1.71053
-1.71249
-1.71441
-1.7163
-1.71816
-1.71998
-1.72177
-1.72352
-1.72525
-1.72694
-1.7286
-1.73023
-1.73183
-1.7334
-1.73494
-1.73645
-1.73794
-1.7394
-1.74082
-1.74221
-1.35265
-1.35269
-1.3532
-1.35408
-1.35529
-1.35682
-1.35866
-1.36079
-1.36319
-1.36584
-1.36873
-1.37185
-1.37516
-1.37867
-1.38235
-1.3862
-1.3902
-1.39433
-1.39859
-1.40297
-1.40745
-1.41202
-1.41667
-1.42139
-1.42618
-1.43103
-1.43592
-1.44085
-1.44582
-1.45081
-1.45582
-1.46084
-1.46587
-1.4709
-1.47593
-1.48095
-1.48595
-1.49095
-1.49592
-1.50086
-1.50578
-1.51067
-1.51553
-1.52035
-1.52513
-1.52987
-1.53457
-1.53923
-1.54383
-1.54839
-1.55291
-1.55737
-1.56178
-1.56613
-1.57044
-1.57469
-1.57888
-1.58302
-1.58711
-1.59114
-1.59511
-1.59903
-1.60289
-1.6067
-1.61044
-1.61414
-1.61777
-1.62135
-1.62487
-1.62834
-1.63176
-1.63512
-1.63842
-1.64167
-1.64487
-1.64802
-1.65111
-1.65415
-1.65714
-1.66008
-1.66297
-1.6658
-1.66859
-1.67134
-1.67403
-1.67668
-1.67928
-1.68183
-1.68434
-1.68681
-1.68923
-1.69161
-1.69394
-1.69623
-1.69849
-1.7007
-1.70287
-1.705
-1.7071
-1.70915
-1.71117
-1.71315
-1.7151
-1.71701
-1.71889
-1.72073
-1.72254
-1.72431
-1.72605
-1.72776
-1.72944
-1.73109
-1.7327
-1.73429
-1.73585
-1.73738
-1.73888
-1.74036
-1.7418
-1.7432
-1.35109
-1.35111
-1.3516
-1.35246
-1.35365
-1.35517
-1.357
-1.35911
-1.3615
-1.36415
-1.36703
-1.37014
-1.37346
-1.37697
-1.38065
-1.38451
-1.38851
-1.39265
-1.39692
-1.40131
-1.4058
-1.41038
-1.41505
-1.41979
-1.4246
-1.42946
-1.43438
-1.43933
-1.44432
-1.44933
-1.45437
-1.45942
-1.46447
-1.46953
-1.47459
-1.47964
-1.48468
-1.4897
-1.4947
-1.49968
-1.50463
-1.50955
-1.51444
-1.51929
-1.52411
-1.52888
-1.53362
-1.53831
-1.54295
-1.54754
-1.55209
-1.55659
-1.56103
-1.56542
-1.56976
-1.57405
-1.57828
-1.58245
-1.58657
-1.59064
-1.59464
-1.5986
-1.60249
-1.60633
-1.61011
-1.61384
-1.61751
-1.62112
-1.62468
-1.62818
-1.63162
-1.63502
-1.63835
-1.64163
-1.64486
-1.64804
-1.65116
-1.65423
-1.65725
-1.66022
-1.66314
-1.66601
-1.66882
-1.67159
-1.67432
-1.67699
-1.67962
-1.6822
-1.68474
-1.68723
-1.68967
-1.69208
-1.69444
-1.69676
-1.69903
-1.70127
-1.70347
-1.70562
-1.70774
-1.70982
-1.71186
-1.71386
-1.71583
-1.71776
-1.71966
-1.72152
-1.72335
-1.72515
-1.72691
-1.72864
-1.73033
-1.732
-1.73364
-1.73524
-1.73682
-1.73837
-1.73989
-1.74138
-1.74284
-1.74426
-1.34945
-1.34943
-1.34991
-1.35074
-1.35192
-1.35342
-1.35523
-1.35734
-1.35972
-1.36236
-1.36524
-1.36834
-1.37166
-1.37517
-1.37886
-1.38271
-1.38672
-1.39087
-1.39515
-1.39955
-1.40405
-1.40865
-1.41334
-1.4181
-1.42293
-1.42781
-1.43275
-1.43772
-1.44273
-1.44777
-1.45283
-1.45791
-1.463
-1.46808
-1.47317
-1.47825
-1.48332
-1.48837
-1.49341
-1.49842
-1.50341
-1.50836
-1.51329
-1.51818
-1.52303
-1.52784
-1.53261
-1.53733
-1.54201
-1.54664
-1.55123
-1.55576
-1.56024
-1.56467
-1.56905
-1.57337
-1.57764
-1.58185
-1.586
-1.5901
-1.59415
-1.59814
-1.60207
-1.60594
-1.60976
-1.61352
-1.61723
-1.62087
-1.62447
-1.628
-1.63148
-1.63491
-1.63828
-1.64159
-1.64486
-1.64806
-1.65122
-1.65432
-1.65737
-1.66037
-1.66332
-1.66622
-1.66907
-1.67187
-1.67462
-1.67732
-1.67998
-1.68259
-1.68515
-1.68767
-1.69015
-1.69258
-1.69497
-1.69731
-1.69961
-1.70188
-1.7041
-1.70628
-1.70842
-1.71052
-1.71259
-1.71462
-1.71661
-1.71856
-1.72048
-1.72237
-1.72422
-1.72603
-1.72781
-1.72956
-1.73128
-1.73297
-1.73463
-1.73625
-1.73785
-1.73942
-1.74095
-1.74246
-1.74394
-1.74537
-1.34772
-1.34767
-1.34812
-1.34894
-1.35009
-1.35157
-1.35337
-1.35547
-1.35784
-1.36047
-1.36334
-1.36644
-1.36976
-1.37327
-1.37696
-1.38082
-1.38484
-1.389
-1.39329
-1.3977
-1.40222
-1.40683
-1.41153
-1.41631
-1.42116
-1.42607
-1.43102
-1.43603
-1.44106
-1.44613
-1.45122
-1.45632
-1.46144
-1.46656
-1.47167
-1.47679
-1.48189
-1.48698
-1.49205
-1.4971
-1.50212
-1.50711
-1.51207
-1.517
-1.52188
-1.52673
-1.53154
-1.5363
-1.54102
-1.54569
-1.55031
-1.55489
-1.55941
-1.56387
-1.56829
-1.57265
-1.57696
-1.58121
-1.5854
-1.58954
-1.59363
-1.59765
-1.60162
-1.60553
-1.60939
-1.61319
-1.61693
-1.62061
-1.62424
-1.62782
-1.63133
-1.63479
-1.6382
-1.64155
-1.64485
-1.64809
-1.65128
-1.65442
-1.6575
-1.66053
-1.66352
-1.66645
-1.66933
-1.67216
-1.67494
-1.67768
-1.68036
-1.683
-1.6856
-1.68815
-1.69065
-1.69311
-1.69552
-1.6979
-1.70023
-1.70252
-1.70476
-1.70697
-1.70914
-1.71127
-1.71336
-1.71541
-1.71743
-1.7194
-1.72135
-1.72326
-1.72513
-1.72697
-1.72877
-1.73055
-1.73229
-1.73399
-1.73567
-1.73732
-1.73893
-1.74052
-1.74208
-1.74361
-1.74511
-1.74655
-1.3459
-1.34583
-1.34625
-1.34704
-1.34817
-1.34964
-1.35142
-1.3535
-1.35586
-1.35848
-1.36135
-1.36445
-1.36776
-1.37127
-1.37497
-1.37884
-1.38286
-1.38703
-1.39133
-1.39575
-1.40029
-1.40492
-1.40964
-1.41444
-1.4193
-1.42423
-1.42922
-1.43424
-1.43931
-1.4444
-1.44952
-1.45465
-1.4598
-1.46495
-1.4701
-1.47525
-1.48039
-1.48551
-1.49062
-1.4957
-1.50076
-1.50579
-1.51079
-1.51575
-1.52068
-1.52557
-1.53042
-1.53522
-1.53998
-1.54469
-1.54935
-1.55397
-1.55853
-1.56304
-1.56749
-1.5719
-1.57624
-1.58054
-1.58477
-1.58895
-1.59308
-1.59714
-1.60115
-1.6051
-1.609
-1.61284
-1.61662
-1.62034
-1.62401
-1.62762
-1.63117
-1.63467
-1.63812
-1.6415
-1.64484
-1.64812
-1.65134
-1.65452
-1.65764
-1.6607
-1.66372
-1.66668
-1.6696
-1.67246
-1.67528
-1.67805
-1.68077
-1.68344
-1.68606
-1.68864
-1.69118
-1.69367
-1.69611
-1.69851
-1.70087
-1.70319
-1.70547
-1.7077
-1.7099
-1.71205
-1.71417
-1.71625
-1.71829
-1.72029
-1.72226
-1.72419
-1.72609
-1.72795
-1.72978
-1.73158
-1.73334
-1.73507
-1.73677
-1.73844
-1.74008
-1.74169
-1.74327
-1.74482
-1.74633
-1.7478
-1.34399
-1.34389
-1.34429
-1.34506
-1.34616
-1.34761
-1.34938
-1.35145
-1.35379
-1.35641
-1.35927
-1.36236
-1.36567
-1.36919
-1.37288
-1.37676
-1.38079
-1.38497
-1.38928
-1.39372
-1.39826
-1.40291
-1.40765
-1.41247
-1.41736
-1.42231
-1.42732
-1.43237
-1.43747
-1.44259
-1.44774
-1.4529
-1.45808
-1.46327
-1.46845
-1.47364
-1.47881
-1.48397
-1.48912
-1.49424
-1.49934
-1.50441
-1.50945
-1.51445
-1.51942
-1.52435
-1.52924
-1.53409
-1.53889
-1.54364
-1.54835
-1.553
-1.55761
-1.56216
-1.56666
-1.5711
-1.57549
-1.57983
-1.58411
-1.58833
-1.5925
-1.59661
-1.60066
-1.60465
-1.60859
-1.61247
-1.61629
-1.62006
-1.62376
-1.62741
-1.63101
-1.63455
-1.63803
-1.64146
-1.64483
-1.64815
-1.65141
-1.65462
-1.65778
-1.66088
-1.66393
-1.66693
-1.66988
-1.67278
-1.67563
-1.67844
-1.68119
-1.68389
-1.68655
-1.68916
-1.69173
-1.69425
-1.69673
-1.69916
-1.70155
-1.7039
-1.7062
-1.70847
-1.71069
-1.71287
-1.71502
-1.71712
-1.71919
-1.72122
-1.72322
-1.72518
-1.7271
-1.72899
-1.73084
-1.73266
-1.73445
-1.7362
-1.73793
-1.73962
-1.74128
-1.74291
-1.74451
-1.74608
-1.74762
-1.7491
-1.34201
-1.34187
-1.34224
-1.34298
-1.34407
-1.3455
-1.34725
-1.3493
-1.35164
-1.35424
-1.3571
-1.36018
-1.36349
-1.36701
-1.37071
-1.37458
-1.37862
-1.38281
-1.38714
-1.39159
-1.39615
-1.40082
-1.40557
-1.41041
-1.41533
-1.42031
-1.42534
-1.43042
-1.43554
-1.4407
-1.44588
-1.45108
-1.45629
-1.46151
-1.46673
-1.47195
-1.47716
-1.48236
-1.48755
-1.49271
-1.49785
-1.50296
-1.50804
-1.51309
-1.5181
-1.52308
-1.52801
-1.5329
-1.53775
-1.54254
-1.54729
-1.55199
-1.55664
-1.56124
-1.56579
-1.57028
-1.57471
-1.57909
-1.58341
-1.58768
-1.59189
-1.59605
-1.60014
-1.60418
-1.60816
-1.61208
-1.61595
-1.61976
-1.62351
-1.6272
-1.63084
-1.63442
-1.63794
-1.64141
-1.64482
-1.64818
-1.65148
-1.65473
-1.65792
-1.66107
-1.66416
-1.6672
-1.67018
-1.67312
-1.676
-1.67884
-1.68163
-1.68437
-1.68706
-1.68971
-1.69231
-1.69486
-1.69737
-1.69984
-1.70226
-1.70464
-1.70697
-1.70927
-1.71152
-1.71374
-1.71591
-1.71804
-1.72014
-1.7222
-1.72422
-1.72621
-1.72816
-1.73007
-1.73195
-1.7338
-1.73561
-1.73739
-1.73914
-1.74085
-1.74254
-1.74419
-1.74581
-1.74741
-1.74897
-1.75047
-1.33994
-1.33977
-1.34011
-1.34083
-1.34189
-1.34329
-1.34503
-1.34706
-1.34939
-1.35198
-1.35483
-1.35791
-1.36122
-1.36473
-1.36844
-1.37232
-1.37637
-1.38057
-1.3849
-1.38937
-1.39395
-1.39863
-1.40341
-1.40827
-1.41321
-1.41821
-1.42327
-1.42838
-1.43354
-1.43872
-1.44393
-1.44917
-1.45442
-1.45967
-1.46493
-1.47019
-1.47544
-1.48068
-1.48591
-1.49111
-1.4963
-1.50145
-1.50658
-1.51167
-1.51673
-1.52175
-1.52672
-1.53166
-1.53655
-1.5414
-1.54619
-1.55094
-1.55564
-1.56028
-1.56487
-1.56941
-1.57389
-1.57832
-1.58269
-1.587
-1.59126
-1.59546
-1.5996
-1.60368
-1.60771
-1.61168
-1.61559
-1.61944
-1.62324
-1.62697
-1.63065
-1.63428
-1.63784
-1.64135
-1.64481
-1.64821
-1.65155
-1.65484
-1.65808
-1.66126
-1.66439
-1.66747
-1.67049
-1.67347
-1.67639
-1.67927
-1.68209
-1.68487
-1.6876
-1.69028
-1.69291
-1.6955
-1.69805
-1.70054
-1.703
-1.70541
-1.70778
-1.71011
-1.71239
-1.71464
-1.71684
-1.719
-1.72113
-1.72322
-1.72527
-1.72728
-1.72926
-1.7312
-1.73311
-1.73498
-1.73682
-1.73863
-1.7404
-1.74214
-1.74385
-1.74553
-1.74718
-1.74879
-1.75037
-1.7519
-1.33779
-1.33759
-1.33789
-1.33858
-1.33962
-1.341
-1.34272
-1.34474
-1.34705
-1.34963
-1.35247
-1.35555
-1.35886
-1.36237
-1.36608
-1.36997
-1.37402
-1.37823
-1.38258
-1.38706
-1.39166
-1.39636
-1.40116
-1.40604
-1.41101
-1.41604
-1.42113
-1.42626
-1.43145
-1.43667
-1.44191
-1.44718
-1.45247
-1.45776
-1.46306
-1.46836
-1.47365
-1.47894
-1.4842
-1.48945
-1.49468
-1.49988
-1.50505
-1.51019
-1.51529
-1.52036
-1.52539
-1.53037
-1.53531
-1.5402
-1.54505
-1.54984
-1.55459
-1.55928
-1.56392
-1.56851
-1.57304
-1.57751
-1.58193
-1.5863
-1.5906
-1.59485
-1.59904
-1.60317
-1.60724
-1.61126
-1.61522
-1.61911
-1.62296
-1.62674
-1.63046
-1.63413
-1.63774
-1.6413
-1.6448
-1.64824
-1.65163
-1.65496
-1.65824
-1.66146
-1.66463
-1.66775
-1.67082
-1.67383
-1.6768
-1.67971
-1.68257
-1.68539
-1.68815
-1.69087
-1.69354
-1.69617
-1.69875
-1.70128
-1.70377
-1.70622
-1.70862
-1.71098
-1.7133
-1.71557
-1.71781
-1.72001
-1.72216
-1.72428
-1.72636
-1.72841
-1.73041
-1.73238
-1.73432
-1.73622
-1.73809
-1.73992
-1.74172
-1.74348
-1.74522
-1.74692
-1.7486
-1.75024
-1.75184
-1.75339
-1.33556
-1.33532
-1.3356
-1.33626
-1.33727
-1.33863
-1.34032
-1.34233
-1.34462
-1.3472
-1.35003
-1.35311
-1.35641
-1.35992
-1.36363
-1.36753
-1.37159
-1.37581
-1.38017
-1.38466
-1.38928
-1.394
-1.39882
-1.40373
-1.40872
-1.41378
-1.41889
-1.42406
-1.42928
-1.43453
-1.43981
-1.44512
-1.45044
-1.45578
-1.46112
-1.46646
-1.47179
-1.47712
-1.48243
-1.48773
-1.493
-1.49825
-1.50346
-1.50865
-1.5138
-1.51892
-1.52399
-1.52903
-1.53402
-1.53896
-1.54386
-1.5487
-1.5535
-1.55824
-1.56293
-1.56757
-1.57215
-1.57668
-1.58115
-1.58556
-1.58992
-1.59421
-1.59845
-1.60263
-1.60676
-1.61082
-1.61483
-1.61877
-1.62266
-1.62649
-1.63027
-1.63398
-1.63764
-1.64124
-1.64478
-1.64827
-1.65171
-1.65508
-1.6584
-1.66167
-1.66489
-1.66805
-1.67115
-1.67421
-1.67722
-1.68017
-1.68307
-1.68593
-1.68873
-1.69149
-1.6942
-1.69686
-1.69948
-1.70205
-1.70457
-1.70705
-1.70949
-1.71189
-1.71424
-1.71655
-1.71882
-1.72105
-1.72324
-1.72539
-1.7275
-1.72957
-1.73161
-1.73361
-1.73558
-1.73751
-1.7394
-1.74126
-1.74309
-1.74488
-1.74664
-1.74837
-1.75007
-1.75174
-1.75337
-1.75493
-1.33325
-1.33297
-1.33322
-1.33385
-1.33483
-1.33617
-1.33784
-1.33983
-1.34211
-1.34468
-1.3475
-1.35057
-1.35387
-1.35738
-1.3611
-1.365
-1.36907
-1.3733
-1.37767
-1.38218
-1.38681
-1.39156
-1.3964
-1.40133
-1.40635
-1.41143
-1.41658
-1.42178
-1.42703
-1.43232
-1.43764
-1.44298
-1.44834
-1.45372
-1.4591
-1.46449
-1.46986
-1.47524
-1.48059
-1.48593
-1.49126
-1.49655
-1.50182
-1.50705
-1.51226
-1.51742
-1.52255
-1.52763
-1.53267
-1.53767
-1.54262
-1.54752
-1.55237
-1.55716
-1.56191
-1.56659
-1.57123
-1.57581
-1.58033
-1.58479
-1.5892
-1.59355
-1.59784
-1.60208
-1.60625
-1.61037
-1.61442
-1.61842
-1.62236
-1.62624
-1.63006
-1.63382
-1.63753
-1.64118
-1.64477
-1.64831
-1.65179
-1.65521
-1.65858
-1.66189
-1.66515
-1.66835
-1.6715
-1.6746
-1.67765
-1.68065
-1.68359
-1.68649
-1.68933
-1.69213
-1.69488
-1.69758
-1.70024
-1.70284
-1.70541
-1.70793
-1.7104
-1.71283
-1.71522
-1.71756
-1.71987
-1.72213
-1.72435
-1.72654
-1.72868
-1.73079
-1.73286
-1.73489
-1.73688
-1.73884
-1.74077
-1.74266
-1.74451
-1.74634
-1.74813
-1.74988
-1.75161
-1.75331
-1.75496
-1.75654
-1.33086
-1.33055
-1.33076
-1.33136
-1.33232
-1.33363
-1.33528
-1.33725
-1.33952
-1.34207
-1.34488
-1.34795
-1.35124
-1.35476
-1.35847
-1.36238
-1.36646
-1.3707
-1.37509
-1.37961
-1.38426
-1.38903
-1.39389
-1.39885
-1.40389
-1.40901
-1.41419
-1.41942
-1.4247
-1.43003
-1.43538
-1.44077
-1.44617
-1.45159
-1.45701
-1.46244
-1.46787
-1.47328
-1.47869
-1.48408
-1.48945
-1.49479
-1.50011
-1.5054
-1.51065
-1.51587
-1.52105
-1.52619
-1.53128
-1.53633
-1.54134
-1.54629
-1.55119
-1.55604
-1.56084
-1.56558
-1.57027
-1.57491
-1.57948
-1.584
-1.58846
-1.59287
-1.59721
-1.6015
-1.60572
-1.60989
-1.614
-1.61805
-1.62204
-1.62597
-1.62985
-1.63366
-1.63742
-1.64112
-1.64476
-1.64834
-1.65187
-1.65534
-1.65875
-1.66211
-1.66542
-1.66867
-1.67187
-1.67501
-1.6781
-1.68114
-1.68413
-1.68707
-1.68996
-1.6928
-1.69559
-1.69833
-1.70102
-1.70367
-1.70627
-1.70883
-1.71134
-1.71381
-1.71623
-1.71861
-1.72095
-1.72325
-1.72551
-1.72773
-1.72991
-1.73205
-1.73415
-1.73621
-1.73824
-1.74023
-1.74218
-1.74411
-1.74599
-1.74784
-1.74966
-1.75145
-1.7532
-1.75493
-1.75661
-1.75821
-1.3284
-1.32805
-1.32823
-1.32879
-1.32972
-1.33101
-1.33264
-1.33459
-1.33684
-1.33938
-1.34218
-1.34524
-1.34853
-1.35205
-1.35577
-1.35968
-1.36376
-1.36802
-1.37242
-1.37696
-1.38163
-1.38641
-1.3913
-1.39629
-1.40136
-1.4065
-1.41171
-1.41698
-1.4223
-1.42766
-1.43306
-1.43848
-1.44392
-1.44938
-1.45485
-1.46033
-1.4658
-1.47127
-1.47672
-1.48216
-1.48758
-1.49298
-1.49835
-1.50369
-1.509
-1.51427
-1.5195
-1.52469
-1.52984
-1.53495
-1.54001
-1.54502
-1.54998
-1.55488
-1.55974
-1.56454
-1.56928
-1.57397
-1.5786
-1.58318
-1.5877
-1.59216
-1.59656
-1.6009
-1.60518
-1.6094
-1.61357
-1.61767
-1.62171
-1.6257
-1.62963
-1.63349
-1.6373
-1.64105
-1.64474
-1.64838
-1.65195
-1.65547
-1.65894
-1.66235
-1.6657
-1.669
-1.67224
-1.67543
-1.67857
-1.68165
-1.68469
-1.68767
-1.6906
-1.69348
-1.69632
-1.6991
-1.70184
-1.70452
-1.70717
-1.70976
-1.71231
-1.71482
-1.71728
-1.7197
-1.72208
-1.72442
-1.72671
-1.72896
-1.73118
-1.73335
-1.73549
-1.73758
-1.73964
-1.74167
-1.74365
-1.7456
-1.74752
-1.7494
-1.75125
-1.75307
-1.75485
-1.75661
-1.75831
-1.75994
-1.32587
-1.32547
-1.32561
-1.32615
-1.32704
-1.32831
-1.32991
-1.33184
-1.33408
-1.3366
-1.3394
-1.34245
-1.34574
-1.34925
-1.35298
-1.35689
-1.36099
-1.36525
-1.36967
-1.37422
-1.37891
-1.38372
-1.38863
-1.39364
-1.39874
-1.40391
-1.40916
-1.41446
-1.41982
-1.42522
-1.43065
-1.43612
-1.4416
-1.44711
-1.45262
-1.45815
-1.46367
-1.46918
-1.47469
-1.48018
-1.48565
-1.4911
-1.49652
-1.50192
-1.50728
-1.51261
-1.5179
-1.52315
-1.52836
-1.53352
-1.53863
-1.5437
-1.54872
-1.55368
-1.5586
-1.56346
-1.56826
-1.57301