/*--------------------------------*- C++ -*----------------------------------*\
  =========                 |
  \\      /  F ield         | OpenFOAM: The Open Source CFD Toolbox
   \\    /   O peration     | Website:  https://openfoam.org
    \\  /    A nd           | Version:  9
     \\/     M anipulation  |
\*---------------------------------------------------------------------------*/
FoamFile
{
    format      ascii;
    class       surfaceScalarField;
    location    "0.025";
    object      phi;
}
// * * * * * * * * * * * * * * * * * * * * * * * * * * * * * * * * * * * * * //

dimensions      [1 0 -1 0 0 0 0];

internalField   nonuniform List<scalar> 
12023
(
-0.0556287
-0.0338834
-0.059122
-0.0338881
-0.0626109
-0.0338928
-0.0660952
-0.0338974
-0.0695754
-0.0339018
-0.0730518
-0.0339059
-0.0765248
-0.0339098
-0.0799947
-0.0339135
-0.0834621
-0.033917
-0.0869271
-0.0339203
-0.0903903
-0.0339235
-0.093852
-0.0339266
-0.0973125
-0.0339295
-0.100772
-0.0339323
-0.104231
-0.0339349
-0.107691
-0.0339374
-0.11115
-0.0339398
-0.11461
-0.0339421
-0.11807
-0.0339443
-0.121532
-0.0339464
-0.124996
-0.0339484
-0.128461
-0.0339503
-0.131927
-0.0339522
-0.135397
-0.033954
-0.138868
-0.0339557
-0.142342
-0.0339573
-0.14582
-0.0339587
-0.1493
-0.0339604
-0.0339618
-0.152787
-0.0510604
-0.0306994
-0.0542419
-0.0307066
-0.0574211
-0.0307135
-0.0605985
-0.0307201
-0.063774
-0.0307262
-0.0669481
-0.0307318
-0.0701209
-0.030737
-0.0732927
-0.0307417
-0.0764636
-0.0307461
-0.0796338
-0.0307501
-0.0828037
-0.0307537
-0.0859733
-0.030757
-0.0891428
-0.0307599
-0.0923125
-0.0307626
-0.0954825
-0.0307649
-0.0986529
-0.0307669
-0.101824
-0.0307687
-0.104996
-0.0307702
-0.108169
-0.0307714
-0.111343
-0.0307724
-0.114518
-0.0307732
-0.117694
-0.0307737
-0.120873
-0.0307741
-0.124052
-0.0307743
-0.127234
-0.0307743
-0.130417
-0.0307742
-0.133601
-0.030774
-0.136788
-0.0307737
-0.0307741
-0.139976
-0.0465573
-0.0278158
-0.0494388
-0.0278252
-0.0523186
-0.0278337
-0.0551973
-0.0278414
-0.0580751
-0.0278484
-0.0609521
-0.0278548
-0.0638287
-0.0278604
-0.066705
-0.0278654
-0.0695813
-0.0278699
-0.0724576
-0.0278737
-0.0753343
-0.027877
-0.0782114
-0.0278798
-0.0810893
-0.0278821
-0.0839679
-0.0278839
-0.0868476
-0.0278852
-0.0897284
-0.0278861
-0.0926105
-0.0278866
-0.095494
-0.0278867
-0.0983791
-0.0278864
-0.101266
-0.0278857
-0.104154
-0.0278847
-0.107045
-0.0278833
-0.109937
-0.0278817
-0.112832
-0.0278798
-0.115728
-0.0278776
-0.118627
-0.0278752
-0.121529
-0.0278726
-0.124433
-0.0278699
-0.0278669
-0.12734
-0.042858
-0.0252024
-0.0454707
-0.0252125
-0.0480827
-0.0252217
-0.0506942
-0.0252299
-0.0533054
-0.0252372
-0.0559165
-0.0252437
-0.0585275
-0.0252493
-0.0611388
-0.0252542
-0.0637504
-0.0252583
-0.0663625
-0.0252616
-0.0689753
-0.0252642
-0.071589
-0.0252662
-0.0742035
-0.0252675
-0.0768192
-0.0252682
-0.0794362
-0.0252683
-0.0820544
-0.0252679
-0.0846742
-0.0252669
-0.0872955
-0.0252654
-0.0899184
-0.0252635
-0.092543
-0.0252611
-0.0951694
-0.0252583
-0.0977976
-0.0252551
-0.100428
-0.0252516
-0.10306
-0.0252478
-0.105694
-0.0252436
-0.10833
-0.0252392
-0.110968
-0.0252346
-0.113608
-0.0252298
-0.025225
-0.11625
-0.0395305
-0.0228366
-0.0418959
-0.0228471
-0.044261
-0.0228565
-0.0466262
-0.0228648
-0.0489914
-0.022872
-0.0513569
-0.0228782
-0.0537228
-0.0228835
-0.0560892
-0.0228878
-0.0584563
-0.0228912
-0.0608242
-0.0228937
-0.0631931
-0.0228954
-0.065563
-0.0228962
-0.0679342
-0.0228963
-0.0703068
-0.0228957
-0.0726807
-0.0228943
-0.0750563
-0.0228923
-0.0774335
-0.0228897
-0.0798124
-0.0228864
-0.0821932
-0.0228827
-0.084576
-0.0228784
-0.0869606
-0.0228736
-0.0893474
-0.0228684
-0.0917361
-0.0228628
-0.094127
-0.0228569
-0.0965199
-0.0228507
-0.098915
-0.0228442
-0.101312
-0.0228375
-0.103711
-0.0228306
-0.0228235
-0.106113
-0.0366263
-0.020695
-0.0387679
-0.0207055
-0.0409096
-0.0207148
-0.0430516
-0.0207228
-0.0451939
-0.0207297
-0.0473368
-0.0207354
-0.0494802
-0.02074
-0.0516244
-0.0207436
-0.0537695
-0.0207461
-0.0559156
-0.0207476
-0.0580627
-0.0207482
-0.060211
-0.0207479
-0.0623607
-0.0207467
-0.0645117
-0.0207446
-0.0666642
-0.0207418
-0.0688183
-0.0207382
-0.0709741
-0.0207339
-0.0731316
-0.0207289
-0.0752909
-0.0207234
-0.0774521
-0.0207172
-0.0796152
-0.0207105
-0.0817803
-0.0207033
-0.0839474
-0.0206957
-0.0861165
-0.0206878
-0.0882878
-0.0206794
-0.0904611
-0.0206709
-0.0926365
-0.0206621
-0.094814
-0.0206531
-0.020644
-0.0969935
-0.0340277
-0.0187571
-0.0359658
-0.0187674
-0.0379043
-0.0187763
-0.0398433
-0.0187839
-0.0417828
-0.0187901
-0.043723
-0.0187952
-0.045664
-0.018799
-0.047606
-0.0188016
-0.0495489
-0.0188032
-0.0514929
-0.0188036
-0.0534382
-0.018803
-0.0553847
-0.0188013
-0.0573327
-0.0187988
-0.0592821
-0.0187953
-0.061233
-0.0187909
-0.0631856
-0.0187857
-0.0651398
-0.0187797
-0.0670958
-0.0187729
-0.0690536
-0.0187655
-0.0710133
-0.0187575
-0.0729749
-0.0187489
-0.0749384
-0.0187398
-0.0769039
-0.0187302
-0.0788714
-0.0187203
-0.0808409
-0.0187099
-0.0828124
-0.0186993
-0.084786
-0.0186885
-0.0867616
-0.0186775
-0.0186663
-0.0887392
-0.0317101
-0.0170036
-0.033464
-0.0170135
-0.0352184
-0.0170219
-0.0369734
-0.0170289
-0.0387291
-0.0170344
-0.0404856
-0.0170386
-0.042243
-0.0170416
-0.0440015
-0.0170432
-0.045761
-0.0170436
-0.0475217
-0.0170429
-0.0492836
-0.017041
-0.0510469
-0.0170381
-0.0528116
-0.0170341
-0.0545778
-0.0170291
-0.0563455
-0.0170232
-0.0581148
-0.0170164
-0.0598857
-0.0170087
-0.0616584
-0.0170003
-0.0634328
-0.0169911
-0.065209
-0.0169813
-0.0669871
-0.0169709
-0.068767
-0.0169599
-0.0705489
-0.0169484
-0.0723327
-0.0169365
-0.0741184
-0.0169242
-0.075906
-0.0169117
-0.0776957
-0.0168989
-0.0794873
-0.0168859
-0.0168728
-0.0812808
-0.0296239
-0.0154173
-0.0312108
-0.0154266
-0.0327983
-0.0154344
-0.0343866
-0.0154406
-0.0359756
-0.0154454
-0.0375655
-0.0154487
-0.0391564
-0.0154506
-0.0407484
-0.0154512
-0.0423415
-0.0154505
-0.0439359
-0.0154485
-0.0455315
-0.0154454
-0.0471285
-0.0154411
-0.0487269
-0.0154357
-0.0503268
-0.0154292
-0.0519282
-0.0154217
-0.0535312
-0.0154133
-0.0551359
-0.015404
-0.0567423
-0.0153939
-0.0583503
-0.015383
-0.0599602
-0.0153715
-0.0615718
-0.0153592
-0.0631853
-0.0153464
-0.0648005
-0.0153331
-0.0664176
-0.0153194
-0.0680366
-0.0153053
-0.0696574
-0.0152909
-0.07128
-0.0152762
-0.0729045
-0.0152614
-0.0152465
-0.0745308
-0.0277414
-0.0139823
-0.0291771
-0.013991
-0.0306135
-0.013998
-0.0320506
-0.0140035
-0.0334887
-0.0140074
-0.0349276
-0.0140097
-0.0363676
-0.0140106
-0.0378088
-0.0140101
-0.039251
-0.0140082
-0.0406946
-0.014005
-0.0421394
-0.0140005
-0.0435856
-0.0139949
-0.0450332
-0.013988
-0.0464823
-0.0139801
-0.047933
-0.0139711
-0.0493852
-0.0139611
-0.050839
-0.0139502
-0.0522945
-0.0139385
-0.0537516
-0.0139259
-0.0552105
-0.0139126
-0.0566711
-0.0138986
-0.0581335
-0.0138841
-0.0595976
-0.013869
-0.0610634
-0.0138535
-0.0625311
-0.0138376
-0.0640005
-0.0138215
-0.0654716
-0.0138051
-0.0669445
-0.0137885
-0.0137719
-0.0684191
-0.0260344
-0.0273331
-0.0126922
-0.0286326
-0.0126985
-0.029933
-0.0127031
-0.0312343
-0.0127061
-0.0325365
-0.0127075
-0.0338399
-0.0127073
-0.0351443
-0.0127057
-0.0364499
-0.0127026
-0.0377568
-0.0126981
-0.039065
-0.0126923
-0.0403746
-0.0126853
-0.0416856
-0.0126771
-0.042998
-0.0126677
-0.044312
-0.0126572
-0.0456275
-0.0126456
-0.0469445
-0.0126331
-0.0482632
-0.0126198
-0.0495835
-0.0126056
-0.0509055
-0.0125906
-0.0522292
-0.012575
-0.0535545
-0.0125587
-0.0548815
-0.012542
-0.0562102
-0.0125248
-0.0575406
-0.0125072
-0.0588727
-0.0124894
-0.0602065
-0.0124713
-0.0615419
-0.0124531
-0.0124348
-0.062879
-0.0256561
-0.0115174
-0.0268317
-0.0115229
-0.0280082
-0.0115266
-0.0291857
-0.0115286
-0.0303641
-0.011529
-0.0315437
-0.0115278
-0.0327243
-0.011525
-0.0339062
-0.0115207
-0.0350893
-0.011515
-0.0362737
-0.0115079
-0.0374595
-0.0114995
-0.0386467
-0.0114899
-0.0398353
-0.011479
-0.0410254
-0.0114671
-0.042217
-0.011454
-0.0434101
-0.01144
-0.0446048
-0.0114251
-0.0458011
-0.0114093
-0.046999
-0.0113927
-0.0481984
-0.0113755
-0.0493996
-0.0113576
-0.0506023
-0.0113393
-0.0518067
-0.0113204
-0.0530127
-0.0113012
-0.0542202
-0.0112818
-0.0554294
-0.0112621
-0.0566402
-0.0112423
-0.0112224
-0.0578525
-0.0241261
-0.0104549
-0.0251895
-0.0104595
-0.0262538
-0.0104623
-0.0273191
-0.0104633
-0.0283855
-0.0104627
-0.0294529
-0.0104603
-0.0305215
-0.0104564
-0.0315912
-0.010451
-0.0326623
-0.010444
-0.0337345
-0.0104357
-0.0348081
-0.0104259
-0.0358831
-0.0104149
-0.0369596
-0.0104026
-0.0380375
-0.0103892
-0.0391168
-0.0103747
-0.0401977
-0.0103592
-0.04128
-0.0103427
-0.0423639
-0.0103254
-0.0434493
-0.0103073
-0.0445363
-0.0102885
-0.0456248
-0.0102691
-0.0467149
-0.0102492
-0.0478066
-0.0102288
-0.0488998
-0.010208
-0.0499945
-0.010187
-0.0510908
-0.0101659
-0.0521886
-0.0101446
-0.0101232
-0.0532878
-0.0227259
-0.00949401
-0.0236877
-0.00949767
-0.0246505
-0.0094995
-0.0256143
-0.00949953
-0.0265791
-0.00949782
-0.027545
-0.00949441
-0.0285121
-0.00948936
-0.0294804
-0.00948272
-0.0304499
-0.00947454
-0.0314206
-0.0094649
-0.0323927
-0.00945386
-0.0333661
-0.00944148
-0.0343409
-0.00942783
-0.035317
-0.009413
-0.0362947
-0.00939705
-0.0372738
-0.00938006
-0.0382544
-0.00936213
-0.0392365
-0.00934333
-0.04022
-0.00932375
-0.0412051
-0.00930346
-0.0421916
-0.00928255
-0.0431797
-0.00926112
-0.0441692
-0.00923924
-0.0451602
-0.00921703
-0.0461527
-0.00919456
-0.0471466
-0.00917193
-0.0481419
-0.00914921
-0.00912645
-0.0491387
-0.0214409
-0.00862516
-0.0223107
-0.00862787
-0.0231815
-0.00862871
-0.0240533
-0.00862771
-0.0249262
-0.00862492
-0.0258002
-0.0086204
-0.0266754
-0.0086142
-0.0275518
-0.00860636
-0.0284293
-0.00859697
-0.0293082
-0.00858607
-0.0301883
-0.00857374
-0.0310697
-0.00856004
-0.0319525
-0.00854506
-0.0328366
-0.00852886
-0.0337221
-0.00851152
-0.0346091
-0.00849313
-0.0354974
-0.00847377
-0.0363872
-0.00845353
-0.0372785
-0.00843249
-0.0381712
-0.00841074
-0.0390654
-0.00838838
-0.039961
-0.00836552
-0.040858
-0.00834222
-0.0417564
-0.00831859
-0.0426563
-0.00829472
-0.0435575
-0.00827072
-0.04446
-0.00824664
-0.00822255
-0.0453639
-0.0202582
-0.00783968
-0.0210447
-0.00784141
-0.0218322
-0.00784122
-0.0226207
-0.00783916
-0.0234104
-0.00783528
-0.0242011
-0.00782963
-0.0249931
-0.00782226
-0.0257862
-0.00781324
-0.0265805
-0.00780263
-0.0273761
-0.00779048
-0.028173
-0.00777688
-0.0289711
-0.00776188
-0.0297706
-0.00774558
-0.0305714
-0.00772804
-0.0313736
-0.00770936
-0.0321771
-0.0076896
-0.032982
-0.00766887
-0.0337883
-0.00764725
-0.034596
-0.00762482
-0.035405
-0.00760169
-0.0362155
-0.00757795
-0.0370273
-0.00755369
-0.0378405
-0.00752901
-0.0386551
-0.00750401
-0.039471
-0.0074788
-0.0402883
-0.00745346
-0.0411068
-0.0074281
-0.00740277
-0.0419266
-0.0191665
-0.0198775
-0.00713042
-0.0205896
-0.00712918
-0.0213027
-0.00712603
-0.0220169
-0.00712104
-0.0227323
-0.00711424
-0.0234489
-0.00710571
-0.0241666
-0.00709549
-0.0248856
-0.00708365
-0.0256058
-0.00707026
-0.0263273
-0.00705539
-0.0270501
-0.00703911
-0.0277742
-0.00702151
-0.0284996
-0.00700266
-0.0292263
-0.00698265
-0.0299543
-0.00696157
-0.0306837
-0.0069395
-0.0314144
-0.00691653
-0.0321464
-0.00689277
-0.0328798
-0.0068683
-0.0336145
-0.00684323
-0.0343506
-0.00681765
-0.0350879
-0.00679167
-0.0358266
-0.00676538
-0.0365665
-0.00673888
-0.0373076
-0.00671229
-0.03805
-0.00668571
-0.00665918
-0.0387936
-0.0187985
-0.00648778
-0.0194422
-0.00648546
-0.020087
-0.0064812
-0.020733
-0.00647507
-0.0213801
-0.00646711
-0.0220284
-0.00645739
-0.022678
-0.00644596
-0.0233287
-0.0064329
-0.0239807
-0.00641826
-0.024634
-0.00640213
-0.0252885
-0.00638458
-0.0259443
-0.0063657
-0.0266014
-0.00634555
-0.0272598
-0.00632424
-0.0279195
-0.00630185
-0.0285806
-0.00627848
-0.0292429
-0.00625421
-0.0299065
-0.00622914
-0.0305714
-0.00620338
-0.0312376
-0.00617703
-0.0319051
-0.00615018
-0.0325738
-0.00612293
-0.0332438
-0.00609541
-0.033915
-0.0060677
-0.0345874
-0.00603991
-0.0352609
-0.00601216
-0.0059845
-0.0359356
-0.017798
-0.00590701
-0.0183799
-0.00590358
-0.0189629
-0.00589819
-0.0195471
-0.0058909
-0.0201324
-0.00588176
-0.020719
-0.00587084
-0.0213068
-0.00585819
-0.0218958
-0.00584389
-0.022486
-0.00582801
-0.0230775
-0.00581062
-0.0236703
-0.0057918
-0.0242644
-0.00577164
-0.0248597
-0.00575022
-0.0254563
-0.00572762
-0.0260542
-0.00570395
-0.0266534
-0.00567929
-0.0272539
-0.00565375
-0.0278556
-0.00562742
-0.0284586
-0.0056004
-0.0290628
-0.00557279
-0.0296683
-0.00554471
-0.0302749
-0.00551626
-0.0308828
-0.00548754
-0.0314918
-0.00545866
-0.032102
-0.00542974
-0.0327133
-0.00540087
-0.00537214
-0.0333257
-0.0168676
-0.00538218
-0.0173935
-0.00537763
-0.0179206
-0.00537109
-0.0184489
-0.00536262
-0.0189784
-0.00535229
-0.019509
-0.00534016
-0.0200409
-0.00532628
-0.0205741
-0.00531074
-0.0211085
-0.00529361
-0.0216442
-0.00527496
-0.0221811
-0.00525487
-0.0227193
-0.00523344
-0.0232588
-0.00521074
-0.0237995
-0.00518688
-0.0243415
-0.00516194
-0.0248848
-0.00513602
-0.0254293
-0.00510922
-0.0259751
-0.00508165
-0.0265221
-0.0050534
-0.0270703
-0.00502458
-0.0276197
-0.00499531
-0.0281703
-0.00496568
-0.028722
-0.00493581
-0.0292749
-0.00490581
-0.0298288
-0.00487579
-0.0303838
-0.00484586
-0.0048161
-0.0309399
-0.0159995
-0.0164749
-0.00490221
-0.0169515
-0.00489451
-0.0174293
-0.00488486
-0.0179082
-0.00487333
-0.0183884
-0.00485997
-0.0188698
-0.00484487
-0.0193525
-0.00482808
-0.0198364
-0.00480969
-0.0203216
-0.00478978
-0.020808
-0.00476843
-0.0212958
-0.00474572
-0.0217847
-0.00472176
-0.022275
-0.00469664
-0.0227665
-0.00467044
-0.0232592
-0.00464328
-0.0237532
-0.00461524
-0.0242484
-0.00458645
-0.0247448
-0.004557
-0.0252424
-0.00452699
-0.0257411
-0.00449655
-0.026241
-0.00446579
-0.0267421
-0.0044348
-0.0272442
-0.00440371
-0.0277473
-0.00437264
-0.0282515
-0.00434168
-0.00431093
-0.0287567
-0.0156168
-0.00447237
-0.0160478
-0.00446352
-0.01648
-0.00445269
-0.0169133
-0.00443995
-0.0173479
-0.00442538
-0.0177838
-0.00440903
-0.0182209
-0.004391
-0.0186592
-0.00437136
-0.0190988
-0.00435019
-0.0195396
-0.00432757
-0.0199817
-0.00430361
-0.0204251
-0.00427839
-0.0208698
-0.00425201
-0.0213156
-0.00422457
-0.0217627
-0.00419617
-0.0222111
-0.00416692
-0.0226606
-0.00413692
-0.0231113
-0.00410628
-0.0235632
-0.00407511
-0.0240162
-0.00404353
-0.0244703
-0.00401165
-0.0249256
-0.00397958
-0.0253818
-0.00394744
-0.0258391
-0.00391534
-0.0262974
-0.0038834
-0.0038517
-0.0267567
-0.0148126
-0.00408359
-0.0152025
-0.00407358
-0.0155936
-0.00406158
-0.0159859
-0.00404765
-0.0163795
-0.00403186
-0.0167742
-0.00401429
-0.0171702
-0.00399502
-0.0175674
-0.00397413
-0.0179659
-0.00395171
-0.0183656
-0.00392784
-0.0187666
-0.00390263
-0.0191688
-0.00387616
-0.0195723
-0.00384853
-0.019977
-0.00381986
-0.0203829
-0.00379024
-0.0207901
-0.00375978
-0.0211984
-0.00372859
-0.0216079
-0.00369679
-0.0220185
-0.00366448
-0.0224303
-0.00363178
-0.0228431
-0.00359881
-0.023257
-0.00356567
-0.023672
-0.0035325
-0.0240879
-0.00349941
-0.0245048
-0.00346651
-0.00343391
-0.0249226
-0.0140564
-0.0144094
-0.00372055
-0.0147636
-0.00370739
-0.015119
-0.00369228
-0.0154756
-0.00367529
-0.0158334
-0.00365651
-0.0161924
-0.00363602
-0.0165526
-0.0036139
-0.0169141
-0.00359024
-0.0172768
-0.00356514
-0.0176407
-0.00353869
-0.0180059
-0.00351098
-0.0183723
-0.00348213
-0.0187399
-0.00345224
-0.0191087
-0.00342141
-0.0194787
-0.00338976
-0.0198499
-0.00335741
-0.0202222
-0.00332445
-0.0205957
-0.00329101
-0.0209703
-0.00325721
-0.0213459
-0.00322317
-0.0217226
-0.003189
-0.0221003
-0.00315483
-0.0224789
-0.00312076
-0.0228585
-0.00308694
-0.00305345
-0.0232389
-0.013663
-0.0034006
-0.0139841
-0.0033863
-0.0143063
-0.00337003
-0.0146297
-0.00335188
-0.0149543
-0.00333191
-0.0152801
-0.00331022
-0.0156071
-0.0032869
-0.0159353
-0.00326203
-0.0162648
-0.00323571
-0.0165954
-0.00320804
-0.0169273
-0.00317912
-0.0172603
-0.00314907
-0.0175946
-0.00311798
-0.01793
-0.00308597
-0.0182667
-0.00305315
-0.0186044
-0.00301963
-0.0189433
-0.00298555
-0.0192833
-0.002951
-0.0196244
-0.00291612
-0.0199666
-0.00288103
-0.0203097
-0.00284584
-0.0206539
-0.00281068
-0.020999
-0.00277568
-0.021345
-0.00274094
-0.00270659
-0.0216918
-0.0129581
-0.0132496
-0.00309485
-0.0135422
-0.00307745
-0.0138359
-0.00305814
-0.0141308
-0.00303702
-0.0144269
-0.00301416
-0.0147241
-0.00298965
-0.0150225
-0.0029636
-0.0153221
-0.00293609
-0.0156229
-0.00290724
-0.0159249
-0.00287714
-0.0162281
-0.0028459
-0.0165324
-0.00281364
-0.0168379
-0.00278047
-0.0171446
-0.00274651
-0.0174523
-0.00271187
-0.0177612
-0.00267667
-0.0180712
-0.00264104
-0.0183822
-0.0026051
-0.0186942
-0.00256898
-0.0190073
-0.0025328
-0.0193213
-0.00249668
-0.0196362
-0.00246075
-0.019952
-0.00242513
-0.00238993
-0.0202687
-0.0125556
-0.00282987
-0.0128217
-0.00281137
-0.0130889
-0.00279094
-0.0133572
-0.00276868
-0.0136267
-0.00274468
-0.0138974
-0.00271902
-0.0141691
-0.00269181
-0.0144421
-0.00266314
-0.0147162
-0.00263313
-0.0149915
-0.00260188
-0.0152679
-0.00256949
-0.0155454
-0.00253609
-0.0158241
-0.00250179
-0.0161039
-0.00246671
-0.0163848
-0.00243096
-0.0166668
-0.00239469
-0.0169499
-0.002358
-0.0172339
-0.00232103
-0.017519
-0.0022839
-0.0178051
-0.00224674
-0.0180921
-0.00220968
-0.01838
-0.00217285
-0.0186687
-0.00213637
-0.00210035
-0.0189583
-0.0118981
-0.00258855
-0.0121406
-0.00256895
-0.0123841
-0.00254742
-0.0126287
-0.00252405
-0.0128745
-0.00249892
-0.0131214
-0.00247214
-0.0133694
-0.0024438
-0.0136185
-0.002414
-0.0138688
-0.00238286
-0.0141202
-0.00235047
-0.0143727
-0.00231696
-0.0146264
-0.00228245
-0.0148811
-0.00224704
-0.0151369
-0.00221087
-0.0153938
-0.00217405
-0.0156518
-0.00213672
-0.0159108
-0.002099
-0.0161708
-0.00206102
-0.0164318
-0.00202291
-0.0166937
-0.0019848
-0.0169566
-0.00194683
-0.0172203
-0.00190911
-0.0174849
-0.00187179
-0.00183498
-0.0177503
-0.0112739
-0.0114952
-0.00234767
-0.0117175
-0.00232504
-0.011941
-0.00230057
-0.0121656
-0.00227434
-0.0123913
-0.00224645
-0.0126181
-0.002217
-0.012846
-0.00218609
-0.013075
-0.00215384
-0.0133051
-0.00212035
-0.0135363
-0.00208574
-0.0137687
-0.00205013
-0.0140021
-0.00201364
-0.0142365
-0.0019764
-0.014472
-0.00193853
-0.0147086
-0.00190017
-0.0149462
-0.00186143
-0.0151847
-0.00182246
-0.0154242
-0.00178339
-0.0156647
-0.00174435
-0.015906
-0.00170548
-0.0161483
-0.0016669
-0.0163913
-0.00162875
-0.00159115
-0.0166351
-0.0108825
-0.00214529
-0.011086
-0.00212157
-0.0112906
-0.002096
-0.0114962
-0.00206868
-0.011703
-0.00203969
-0.0119109
-0.00200914
-0.0121198
-0.00197714
-0.0123299
-0.00194379
-0.012541
-0.00190921
-0.0127532
-0.00187351
-0.0129665
-0.00183683
-0.0131809
-0.00179927
-0.0133963
-0.00176098
-0.0136128
-0.00172207
-0.0138303
-0.00168269
-0.0140488
-0.00164295
-0.0142682
-0.00160301
-0.0144886
-0.00156298
-0.0147099
-0.00152302
-0.0149322
-0.00148327
-0.0151552
-0.00144384
-0.0153791
-0.00140486
-0.00136648
-0.0156038
-0.0103005
-0.010487
-0.00193504
-0.0106746
-0.00190838
-0.0108634
-0.00187995
-0.0110532
-0.00184987
-0.0112441
-0.00181823
-0.0114361
-0.00178513
-0.0116292
-0.00175069
-0.0118234
-0.00171503
-0.0120186
-0.00167826
-0.0122149
-0.00164051
-0.0124123
-0.00160189
-0.0126108
-0.00156255
-0.0128102
-0.00152261
-0.0130107
-0.00148221
-0.0132122
-0.00144148
-0.0134146
-0.00140057
-0.013618
-0.0013596
-0.0138223
-0.00131872
-0.0140275
-0.00127808
-0.0142335
-0.0012378
-0.0144404
-0.00119801
-0.00115884
-0.014648
-0.00991871
-0.00176377
-0.0100911
-0.00173599
-0.0102646
-0.00170647
-0.0104392
-0.00167528
-0.0106149
-0.00164254
-0.0107917
-0.00160835
-0.0109695
-0.00157282
-0.0111485
-0.00153607
-0.0113285
-0.00149822
-0.0115096
-0.0014594
-0.0116918
-0.00141972
-0.011875
-0.00137933
-0.0120593
-0.00133836
-0.0122445
-0.00129694
-0.0124308
-0.00125522
-0.0126181
-0.00121333
-0.0128062
-0.0011714
-0.0129954
-0.0011296
-0.0131854
-0.00108807
-0.0133762
-0.00104694
-0.013568
-0.0010063
-0.000966327
-0.0137605
-0.0093799
-0.00953852
-0.00157737
-0.00969826
-0.00154673
-0.00985911
-0.00151443
-0.0100211
-0.00148058
-0.0101841
-0.00144529
-0.0103483
-0.00140866
-0.0105135
-0.00137082
-0.0106799
-0.00133188
-0.0108473
-0.00129198
-0.0110158
-0.00125124
-0.0111853
-0.0012098
-0.0113559
-0.00116778
-0.0115275
-0.00112533
-0.0117001
-0.0010826
-0.0118737
-0.00103971
-0.0120483
-0.000996826
-0.0122238
-0.000954082
-0.0124003
-0.000911639
-0.0125776
-0.000869629
-0.0127557
-0.000828132
-0.000787317
-0.0129347
-0.00901597
-0.00916326
-0.00139944
-0.00931166
-0.00136603
-0.00946118
-0.00133106
-0.00961181
-0.00129466
-0.00976354
-0.00125693
-0.00991638
-0.00121798
-0.0100703
-0.00117795
-0.0102253
-0.00113696
-0.0103814
-0.00109514
-0.0105386
-0.00105263
-0.0106968
-0.00100955
-0.0108561
-0.00096606
-0.0110164
-0.000922294
-0.0111777
-0.000878398
-0.01134
-0.000834518
-0.0115033
-0.000790807
-0.0116675
-0.000747428
-0.0118326
-0.000704512
-0.0119986
-0.000662112
-0.000620406
-0.0121656
-0.00865878
-0.00126345
-0.00879589
-0.00122891
-0.00893412
-0.00119283
-0.00907346
-0.00115532
-0.00921392
-0.00111647
-0.00935547
-0.00107643
-0.00949813
-0.00103529
-0.00964189
-0.000993207
-0.00978674
-0.000950295
-0.00993267
-0.000906694
-0.0100797
-0.000862544
-0.0102277
-0.000817988
-0.0103769
-0.000773169
-0.010527
-0.000728235
-0.0106782
-0.000683333
-0.0108304
-0.00063862
-0.0109836
-0.000594268
-0.0111377
-0.000550408
-0.0112927
-0.000507053
-0.000464392
-0.0114487
-0.00818412
-0.00831098
-0.00110205
-0.00843895
-0.00106486
-0.00856804
-0.00102623
-0.00869824
-0.000986274
-0.00882955
-0.000945117
-0.00896197
-0.000902878
-0.00909549
-0.000859686
-0.00923011
-0.000815673
-0.00936583
-0.000770976
-0.00950264
-0.000725734
-0.00964053
-0.000680093
-0.0097795
-0.000634199
-0.00991954
-0.000588199
-0.0100606
-0.000542243
-0.0102028
-0.000496493
-0.0103459
-0.000451134
-0.01049
-0.000406287
-0.0106352
-0.000361914
-0.000318209
-0.0107813
-0.00785616
-0.00797479
-0.000946224
-0.00809454
-0.000906482
-0.00821539
-0.000865418
-0.00833736
-0.000823149
-0.00846044
-0.000779799
-0.00858463
-0.000735496
-0.00870993
-0.000690372
-0.00883634
-0.000644565
-0.00896386
-0.000598215
-0.00909248
-0.00055147
-0.0092222
-0.000504477
-0.00935302
-0.000457386
-0.00948491
-0.000410345
-0.00961789
-0.000363521
-0.00975192
-0.000317105
-0.00988699
-0.000271211
-0.0100232
-0.000225745
-0.000180915
-0.0101605
-0.0075407
-0.000836132
-0.00765189
-0.000795292
-0.00776419
-0.000753127
-0.00787758
-0.000709753
-0.00799209
-0.000665294
-0.00810771
-0.000619877
-0.00822444
-0.000573637
-0.00834229
-0.00052671
-0.00846127
-0.000479239
-0.00858137
-0.000431371
-0.00870259
-0.000383258
-0.00882493
-0.000335049
-0.0089484
-0.000286873
-0.00907305
-0.000238875
-0.00919883
-0.000191317
-0.00932566
-0.00014438
-0.00945365
-9.77595e-05
-5.17369e-05
-0.00958283
-0.00713596
-0.00723935
-0.000691907
-0.00734381
-0.000648661
-0.00744937
-0.000604198
-0.00755602
-0.000558642
-0.00766378
-0.000512119
-0.00777265
-0.000464764
-0.00788264
-0.000416718
-0.00799376
-0.000368125
-0.008106
-0.000319124
-0.00821942
-0.000269837
-0.00833403
-0.000220447
-0.00844981
-0.000171093
-0.00856679
-0.000121894
-0.00868496
-7.31408e-05
-0.00880425
-2.50913e-05
-0.00892486
2.28492e-05
7.0002e-05
-0.0090466
-0.00685558
-0.0069529
-0.000551336
-0.00705129
-0.000505809
-0.00715076
-0.000459176
-0.00725131
-0.000411568
-0.00735294
-0.000363127
-0.00745568
-0.000313977
-0.00755958
-0.000264228
-0.00766466
-0.000214044
-0.00777092
-0.000163582
-0.00787836
-0.000113001
-0.00798702
-6.24411e-05
-0.0080969
-1.2008e-05
-0.00820801
3.79698e-05
-0.0083203
8.72002e-05
-0.00843403
0.000136573
0.000184953
-0.00854898
-0.00658961
-0.000460582
-0.00668138
-0.000414031
-0.00677419
-0.000366373
-0.00686803
-0.000317722
-0.00696298
-0.000268179
-0.00705905
-0.000217911
-0.00715623
-0.000167043
-0.00725458
-0.000115695
-0.00735411
-6.4048e-05
-0.00745484
-1.22745e-05
-0.00755679
3.95062e-05
-0.00765999
9.11908e-05
-0.00776444
0.000142421
-0.00787015
0.000192912
-0.00797743
0.000243852
0.00029353
-0.00808601
-0.00625215
-0.00633771
-0.000328477
-0.00642427
-0.000279807
-0.00651186
-0.000230131
-0.00660046
-0.000179576
-0.00669015
-0.000128229
-0.00678094
-7.62518e-05
-0.00687285
-2.37813e-05
-0.00696592
2.90199e-05
-0.00706016
8.19655e-05
-0.00715561
0.000134954
-0.00725234
0.000187926
-0.00735036
0.00024044
-0.00744978
0.000292326
-0.00755075
0.000344823
0.000395869
-0.00765308
-0.00601858
-0.00609914
-0.000199241
-0.00618064
-0.00014863
-0.00626314
-9.7082e-05
-0.00634664
-4.47307e-05
-0.00643117
8.28215e-06
-0.00651677
6.18143e-05
-0.00660344
0.000115696
-0.00669126
0.000169783
-0.0067803
0.000223994
-0.00687061
0.000278238
-0.00696218
0.000332005
-0.00705517
0.000385324
-0.00714978
0.000439429
0.000491909
-0.00724582
-0.00579698
-0.000124518
-0.00587254
-7.30685e-05
-0.00594898
-2.06434e-05
-0.00602631
3.26029e-05
-0.00610456
8.65308e-05
-0.00618377
0.000141028
-0.00626403
0.000195951
-0.00634536
0.000251109
-0.00642782
0.000306462
-0.00651152
0.000361939
-0.00659646
0.000416939
-0.0066828
0.000471668
-0.00677076
0.000527388
0.00058132
-0.00686017
-0.00551561
-0.00558524
-3.43747e-06
-0.00565558
4.96976e-05
-0.00572665
0.000103671
-0.00579852
0.000158394
-0.00587124
0.000213753
-0.00594485
0.000269564
-0.00601942
0.000325671
-0.00609505
0.000382097
-0.00617183
0.000438715
-0.00624972
0.000494833
-0.00632894
0.000550884
-0.00640965
0.000608105
0.00066342
-0.00649175
-0.0053162
-0.00538032
0.000113813
-0.00544498
0.000168335
-0.00551024
0.000223655
-0.00557614
0.000279649
-0.00564273
0.000336156
-0.00571009
0.000393026
-0.00577831
0.000450325
-0.00584746
0.000507863
-0.00591746
0.000564837
-0.00598855
0.000621971
-0.00606085
0.000680402
0.000736859
-0.00613429
-0.00511841
-0.00517622
0.000226149
-0.00523431
0.000281739
-0.00529272
0.000338061
-0.00535147
0.000394911
-0.00541063
0.000452182
-0.00547029
0.000509982
-0.00553043
0.000568001
-0.00559097
0.000625385
-0.00565215
0.000683142
-0.00571458
0.000742833
0.00079925
-0.00577697
-0.00491452
-0.00496451
0.000331726
-0.00501431
0.000387863
-0.00506393
0.00044453
-0.00511342
0.000501677
-0.00516285
0.000559404
-0.00521208
0.000617234
-0.00526109
0.000674394
-0.0053103
0.000732358
-0.00535994
0.000792468
0.000847671
-0.00540836
-0.00469588
-0.00473573
0.000427719
-0.00477477
0.000483565
-0.00481301
0.00053992
-0.00485036
0.000596752
-0.00488665
0.000653523
-0.00492208
0.000709831
-0.00495713
0.000767409
-0.00499122
0.000826552
0.000879122
-0.00502267
-0.00445595
-0.00448307
0.000510679
-0.00450851
0.000565361
-0.00453201
0.000620258
-0.0045536
0.000675104
-0.00457393
0.000730161
-0.00459281
0.000786293
-0.00460798
0.000841725
0.000891449
-0.00462031
-0.00418761
0.000524267
-0.00419848
0.000576234
-0.00420652
0.000628297
-0.00421205
0.000680636
-0.00421555
0.000733663
-0.00421554
0.000786281
-0.00421045
0.000836634
0.000883181
-0.00420218
-0.0038864
-0.00388159
-0.00387327
0.00061998
-0.00386167
0.000669031
-0.00384613
0.00071812
-0.00382622
0.000766377
-0.00380027
0.00081068
0.0008551
-0.00377219
-0.00352996
-0.00349862
0.000637692
-0.0034646
0.000684103
-0.00342629
0.000728064
-0.00337736
0.000761757
0.000808438
-0.0033307
-0.00312694
-0.00307254
0.000629708
-0.00301303
0.000668551
-0.00294911
0.00069784
0.000748142
-0.00288882
-0.00267154
-0.00259115
-0.00251747
0.000660576
-0.0024299
-0.001853
-0.152822
-0.000392109
-0.152857
-0.00039211
-0.152892
-0.000392111
-0.152926
-0.000392112
-0.152961
-0.000392114
-0.152996
-0.000392115
-0.153031
-0.000392116
-0.153065
-0.000392117
-0.1531
-0.000392118
-0.153135
-0.000392119
-0.15317
-0.000392121
-0.153204
-0.000392121
-0.153239
-0.000392122
-0.153274
-0.000392123
-0.000392124
-0.153309
-0.140007
-0.00036083
-0.140038
-0.000360831
-0.14007
-0.000360832
-0.140101
-0.000360833
-0.140132
-0.000360834
-0.140164
-0.000360835
-0.140195
-0.000360836
-0.140226
-0.000360837
-0.140257
-0.000360838
-0.140289
-0.000360839
-0.14032
-0.00036084
-0.140351
-0.000360841
-0.140383
-0.000360842
-0.140414
-0.000360843
-0.000360844
-0.140445
-0.127369
-0.000332026
-0.127397
-0.000332027
-0.127426
-0.000332028
-0.127455
-0.000332029
-0.127484
-0.000332031
-0.127513
-0.000332032
-0.127541
-0.000332033
-0.12757
-0.000332034
-0.127599
-0.000332036
-0.127628
-0.000332037
-0.127657
-0.000332038
-0.127685
-0.00033204
-0.127714
-0.00033204
-0.127743
-0.000332042
-0.000332043
-0.127772
-0.116276
-0.000305979
-0.116302
-0.000305981
-0.116328
-0.000305982
-0.116354
-0.000305984
-0.11638
-0.000305985
-0.116406
-0.000305986
-0.116432
-0.000305988
-0.116458
-0.000305989
-0.116484
-0.00030599
-0.11651
-0.000305992
-0.116536
-0.000305993
-0.116562
-0.000305994
-0.116588
-0.000305996
-0.116614
-0.000305997
-0.000305999
-0.11664
-0.106137
-0.000282258
-0.10616
-0.00028226
-0.106184
-0.000282262
-0.106208
-0.000282263
-0.106231
-0.000282265
-0.106255
-0.000282266
-0.106279
-0.000282268
-0.106303
-0.00028227
-0.106326
-0.000282271
-0.10635
-0.000282273
-0.106374
-0.000282274
-0.106398
-0.000282276
-0.106421
-0.000282278
-0.106445
-0.000282279
-0.000282281
-0.106469
-0.097015
-0.000260761
-0.0970365
-0.000260762
-0.097058
-0.000260765
-0.0970795
-0.000260766
-0.097101
-0.000260768
-0.0971225
-0.00026077
-0.097144
-0.000260772
-0.0971655
-0.000260773
-0.097187
-0.000260775
-0.0972085
-0.000260777
-0.09723
-0.000260778
-0.0972515
-0.000260781
-0.097273
-0.000260782
-0.0972945
-0.000260784
-0.000260785
-0.097316
-0.0887587
-0.000241258
-0.0887782
-0.000241261
-0.0887977
-0.000241263
-0.0888172
-0.000241265
-0.0888367
-0.000241266
-0.0888562
-0.000241268
-0.0888757
-0.00024127
-0.0888952
-0.000241272
-0.0889147
-0.000241274
-0.0889342
-0.000241276
-0.0889537
-0.000241278
-0.0889732
-0.000241279
-0.0889927
-0.000241282
-0.0890122
-0.000241284
-0.000241285
-0.0890317
-0.0812985
-0.00022359
-0.0813161
-0.000223592
-0.0813338
-0.000223594
-0.0813515
-0.000223596
-0.0813691
-0.000223598
-0.0813868
-0.0002236
-0.0814045
-0.000223602
-0.0814221
-0.000223604
-0.0814398
-0.000223606
-0.0814575
-0.000223608
-0.0814751
-0.00022361
-0.0814928
-0.000223612
-0.0815105
-0.000223614
-0.0815281
-0.000223617
-0.000223618
-0.0815458
-0.0745468
-0.000207582
-0.0745628