/*--------------------------------*- C++ -*----------------------------------*\
  =========                 |
  \\      /  F ield         | OpenFOAM: The Open Source CFD Toolbox
   \\    /   O peration     | Website:  https://openfoam.org
    \\  /    A nd           | Version:  8
     \\/     M anipulation  |
\*---------------------------------------------------------------------------*/
FoamFile
{
    version     2.0;
    format      ascii;
    class       volVectorField;
    location    "0.02346";
    object      U;
}
// * * * * * * * * * * * * * * * * * * * * * * * * * * * * * * * * * * * * * //

dimensions      [0 1 -1 0 0 0 0];

internalField   nonuniform List<vector> 
114957
(
(14.9999 3.59936e-06 -2.89115e-24)
(15 5.89843e-07 -6.70414e-23)
(14.9999 3.57484e-06 -3.56527e-22)
(14.9998 1.00773e-05 1.0722e-22)
(14.9998 1.74397e-05 1.90274e-21)
(14.9997 2.42362e-05 -1.9845e-21)
(14.9997 3.00317e-05 -7.71657e-23)
(14.9997 3.59199e-05 8.16825e-22)
(14.9997 4.22388e-05 2.64232e-21)
(14.9997 4.91023e-05 -4.45394e-21)
(14.9997 5.5734e-05 -1.20849e-22)
(14.9997 6.2389e-05 8.13467e-21)
(14.9997 6.9382e-05 5.48317e-21)
(14.9997 7.62123e-05 5.93541e-21)
(14.9997 8.32331e-05 5.46109e-21)
(14.9996 9.0186e-05 9.38033e-21)
(14.9996 9.71369e-05 -7.19188e-21)
(14.9996 0.000104435 1.30371e-20)
(14.9996 0.000111473 -9.88921e-21)
(14.9996 0.000118473 -1.50132e-20)
(14.9996 0.000125548 -2.75904e-20)
(14.9996 0.000132788 -1.2003e-20)
(14.9996 0.00013976 -1.26359e-20)
(14.9996 0.00014698 -7.39292e-21)
(14.9996 0.00015398 6.43686e-21)
(14.9996 0.000161258 1.44393e-20)
(14.9996 0.000168375 -2.30095e-20)
(14.9996 0.000175358 3.11385e-20)
(14.9996 0.000182481 -2.17862e-22)
(14.9996 0.000189603 1.65848e-20)
(14.9996 0.00019676 1.65726e-20)
(14.9996 0.000203671 2.05485e-22)
(14.9996 0.000210625 1.72714e-20)
(14.9996 0.000217611 1.79665e-20)
(14.9996 0.000224248 -1.82191e-20)
(14.9996 0.000231126 2.05729e-22)
(14.9996 0.000237817 -2.87559e-20)
(14.9996 0.000244534 1.86168e-20)
(14.9996 0.000251461 -8.08103e-21)
(14.9996 0.000257913 3.79599e-20)
(14.9996 0.000264591 -3.81342e-20)
(14.9996 0.000271044 3.06592e-20)
(14.9996 0.000277289 7.36127e-21)
(14.9997 0.000283605 -1.8477e-22)
(14.9997 0.000289963 1.92208e-20)
(14.9997 0.000296031 6.43726e-21)
(14.9997 0.000302374 1.89509e-20)
(14.9997 0.00030847 -3.17123e-20)
(14.9997 0.000314216 -1.89597e-20)
(14.9997 0.000320218 4.53072e-20)
(14.9997 0.000325898 1.35893e-20)
(14.9997 0.000331714 3.67477e-20)
(14.9997 0.000337268 3.64286e-20)
(14.9997 0.000343007 -1.40005e-20)
(14.9997 0.00034841 -1.43262e-20)
(14.9997 0.000353708 -1.76098e-20)
(14.9997 0.000358973 -3.47773e-20)
(14.9997 0.000364266 1.46643e-20)
(14.9997 0.000369201 1.70333e-20)
(14.9997 0.000374314 -1.67635e-20)
(14.9997 0.000379261 1.64951e-20)
(14.9997 0.000383858 -1.22513e-22)
(14.9997 0.000388663 1.58924e-20)
(14.9997 0.000393201 -1.24806e-22)
(14.9998 0.00039778 1.52521e-20)
(14.9998 0.000402242 -3.07539e-20)
(14.9998 0.000406417 0)
(14.9998 0.000410871 -1.41371e-20)
(14.9998 0.000414986 1.37923e-20)
(14.9998 0.000418939 1.34256e-20)
(14.9998 0.000422812 2.94813e-20)
(14.9998 0.000426582 -1.64279e-20)
(14.9998 0.000430187 -2.47739e-20)
(14.9998 0.000433723 2.88171e-20)
(14.9998 0.000437358 -3.37867e-20)
(14.9998 0.000440763 1.68358e-20)
(14.9998 0.00044381 3.86115e-20)
(14.9998 0.000447188 -6.91515e-21)
(14.9998 0.000450173 0)
(14.9998 0.0004531 0)
(14.9999 0.000455752 0)
(14.9999 0.000458571 -8.60565e-21)
(14.9999 0.000461193 0)
(14.9999 0.000463791 -9.9055e-21)
(14.9999 0.000466063 3.53303e-20)
(14.9999 0.000468206 1.38271e-20)
(14.9999 0.000470533 -6.00612e-20)
(14.9999 0.000472509 1.19696e-20)
(14.9999 0.000474427 1.25336e-20)
(14.9999 0.000476234 -1.80299e-20)
(14.9999 0.000478017 -4.58271e-21)
(14.9999 0.00047969 4.11846e-21)
(14.9999 0.000481121 3.59781e-21)
(15 0.000482453 3.34113e-20)
(15 0.000483604 3.93151e-20)
(15 0.000484749 -1.61583e-20)
(15 0.000485708 -3.68251e-20)
(15 0.00048667 0)
(15 0.000487369 7.30777e-22)
(15 0.000488007 1.8527e-20)
(15 0.000488548 -2.3298e-22)
(15 0.000488993 -1.78183e-20)
(15 0.000489374 0)
(15 0.000489492 3.71112e-20)
(15 0.000489611 -8.79169e-21)
(15 0.000489542 -1.58349e-20)
(15.0001 0.000489465 -6.3725e-21)
(15.0001 0.000489202 -1.85238e-20)
(15.0001 0.000488837 -2.26879e-20)
(15.0001 0.000488222 9.31341e-21)
(15.0001 0.000487493 5.08202e-21)
(15.0001 0.000486735 1.85175e-20)
(15.0001 0.000485861 -6.18335e-21)
(15.0001 0.000484924 1.85437e-20)
(15.0001 0.000483619 -1.42562e-20)
(15.0001 0.000482502 -1.06676e-20)
(15.0001 0.000481247 -2.64917e-20)
(15.0001 0.000479647 8.66631e-21)
(15.0001 0.000478017 4.56796e-20)
(15.0002 0.000476177 -2.76639e-20)
(15.0002 0.000474507 -1.81192e-20)
(15.0002 0.00047254 2.07421e-20)
(15.0002 0.000470508 1.8113e-20)
(15.0002 0.000468054 6.67554e-21)
(15.0002 0.000465942 -5.94994e-20)
(15.0002 0.000463444 1.23714e-20)
(15.0002 0.000460694 5.04516e-21)
(15.0002 0.000458042 -3.55153e-20)
(15.0002 0.000455307 4.49212e-20)
(15.0002 0.000452386 3.51086e-21)
(15.0002 0.000449346 -1.74951e-20)
(15.0002 0.000446211 -1.21111e-20)
(15.0002 0.000442891 3.25702e-20)
(15.0003 0.000439193 -3.29883e-20)
(15.0003 0.000435787 1.4959e-20)
(15.0003 0.000432056 1.71689e-20)
(15.0003 0.000428188 1.69334e-20)
(15.0003 0.00042435 -3.4186e-20)
(15.0003 0.000420207 -5.11608e-20)
(15.0003 0.00041628 1.6282e-22)
(15.0003 0.000411954 1.65037e-20)
(15.0003 0.00040743 0)
(15.0003 0.000403088 1.89742e-20)
(15.0003 0.000398333 0)
(15.0003 0.000393593 -1.61271e-20)
(15.0003 0.0003888 2.00855e-20)
(15.0003 0.000383872 -4.51372e-21)
(15.0003 0.000378549 2.04539e-20)
(15.0004 0.000373414 1.55276e-20)
(15.0004 0.000367964 -4.20254e-20)
(15.0004 0.000362649 -9.03482e-21)
(15.0004 0.000356946 6.54537e-21)
(15.0004 0.000351514 3.63712e-20)
(15.0004 0.000345659 -7.24522e-21)
(15.0004 0.000339498 0)
(15.0004 0.000333627 7.70742e-21)
(15.0004 0.000327398 3.62354e-20)
(15.0004 0.00032119 3.53991e-20)
(15.0004 0.000315038 -3.54635e-20)
(15.0004 0.000308617 8.83019e-21)
(15.0004 0.000301903 2.28716e-22)
(15.0004 0.000295422 1.25666e-20)
(15.0004 0.000288352 -1.25085e-20)
(15.0004 0.000281496 2.47227e-20)
(15.0004 0.000274635 1.46076e-21)
(15.0004 0.000267517 -4.45739e-20)
(15.0004 0.00026065 -1.10941e-20)
(15.0004 0.000253327 -1.00428e-20)
(15.0005 0.000246001 -2.48707e-22)
(15.0005 0.000238687 2.67258e-22)
(15.0005 0.000231029 9.74392e-21)
(15.0005 0.000223366 4.17686e-25)
(15.0005 0.000215653 -5.66236e-20)
(15.0005 0.000208065 2.87731e-20)
(15.0005 0.000200257 -2.77595e-20)
(15.0005 0.000192194 2.54188e-20)
(15.0005 0.00018442 -2.46221e-20)
(15.0005 0.000176309 2.05588e-21)
(15.0005 0.000168447 2.21047e-20)
(15.0005 0.000160179 -1.97539e-21)
(15.0005 0.00015205 -1.39086e-20)
(15.0005 0.000143942 1.30752e-20)
(15.0005 0.000135707 4.83869e-21)
(15.0005 0.000127049 -6.39421e-21)
(15.0005 0.000118755 -2.45354e-20)
(15.0005 0.000110365 1.11894e-20)
(15.0005 0.000101785 -8.19813e-21)
(15.0005 9.33515e-05 4.32734e-21)
(15.0004 8.45862e-05 8.99666e-21)
(15.0004 7.61645e-05 -3.5976e-21)
(15.0004 6.76403e-05 1.12278e-21)
(15.0004 5.86602e-05 3.87666e-21)
(15.0004 5.03205e-05 -4.27839e-21)
(15.0004 4.24841e-05 2.51269e-21)
(15.0004 3.46258e-05 1.12521e-21)
(15.0003 2.50998e-05 1.60002e-21)
(15.0003 1.44719e-05 -7.85644e-22)
(15.0001 5.16414e-06 -5.46352e-22)
(14.9999 5.58765e-07 3.06243e-22)
(15.0002 5.56595e-06 -4.06223e-23)
(14.9984 8.46625e-06 2.86413e-23)
(14.9994 2.4573e-05 -3.35884e-22)
(14.9997 8.11252e-06 -7.69726e-23)
(14.9996 1.3551e-05 -1.30978e-21)
(14.9994 3.25854e-05 1.84145e-21)
(14.9992 5.59411e-05 -1.3957e-21)
(14.9992 7.66644e-05 -3.09433e-21)
(14.9991 9.47868e-05 1.20532e-22)
(14.9991 0.000112596 1.12769e-21)
(14.9991 0.000132074 2.75984e-22)
(14.999 0.000152073 -4.08897e-21)
(14.999 0.000172121 2.2688e-21)
(14.999 0.000192562 7.12373e-21)
(14.999 0.000212972 -4.98092e-21)
(14.999 0.000233891 2.11989e-20)
(14.9989 0.000254908 1.9476e-21)
(14.9989 0.000275876 -1.48731e-20)
(14.9989 0.000297333 -2.1589e-21)
(14.9989 0.000318666 1.03917e-20)
(14.9989 0.000340054 -4.66746e-23)
(14.9989 0.000361498 -5.85541e-21)
(14.9989 0.000383228 -2.10172e-20)
(14.9989 0.000404641 -1.52797e-20)
(14.9989 0.000426381 -4.83587e-23)
(14.9989 0.000447834 -7.36757e-21)
(14.9989 0.000469595 1.5307e-20)
(14.9989 0.000491393 6.54056e-22)
(14.9989 0.000512901 5.24895e-22)
(14.9989 0.000534375 -9.5086e-21)
(14.9989 0.000555949 -9.13964e-21)
(14.9989 0.000577413 9.28521e-21)
(14.9989 0.000598685 4.8817e-22)
(14.9989 0.000619985 -3.05319e-20)
(14.9989 0.000641218 8.19091e-20)
(14.9989 0.000661998 1.09588e-20)
(14.9989 0.000682905 2.0671e-20)
(14.9989 0.000703447 -2.27176e-20)
(14.9989 0.000723974 -4.07697e-22)
(14.9989 0.000744786 2.14861e-20)
(14.9989 0.000764815 5.39642e-20)
(14.9989 0.000785054 3.41846e-20)
(14.9989 0.000804911 -4.4903e-21)
(14.9989 0.00082439 2.12038e-20)
(14.999 0.000843798 0)
(14.999 0.000863157 7.77314e-21)
(14.999 0.000882036 -1.37382e-20)
(14.999 0.000901164 4.84596e-20)
(14.999 0.000919665 -2.71944e-20)
(14.999 0.000937664 -4.91999e-20)
(14.999 0.000955886 1.42086e-20)
(14.999 0.000973738 2.06506e-20)
(14.999 0.000991336 1.03864e-20)
(14.9991 0.00100848 6.9661e-20)
(14.9991 0.00102586 3.51272e-20)
(14.9991 0.00104254 -1.64833e-22)
(14.9991 0.00105901 1.1869e-20)
(14.9991 0.00107531 -1.54915e-20)
(14.9991 0.00109127 -3.18609e-20)
(14.9991 0.00110677 5.26099e-20)
(14.9992 0.00112232 3.61928e-20)
(14.9992 0.00113737 1.37364e-21)
(14.9992 0.00115195 0)
(14.9992 0.00116658 1.70775e-20)
(14.9992 0.00118069 -1.67162e-20)
(14.9992 0.0011946 3.31262e-20)
(14.9993 0.00120815 9.59091e-23)
(14.9993 0.00122141 -1.22973e-22)
(14.9993 0.00123461 -3.22531e-20)
(14.9993 0.00124724 -3.47192e-20)
(14.9993 0.00125948 7.30559e-24)
(14.9994 0.00127139 3.49571e-20)
(14.9994 0.00128314 3.53853e-20)
(14.9994 0.00129443 -1.77368e-20)
(14.9994 0.0013053 7.72767e-21)
(14.9994 0.00131622 -1.78968e-20)
(14.9995 0.00132662 -3.00399e-20)
(14.9995 0.00133645 1.15373e-20)
(14.9995 0.00134647 1.81978e-20)
(14.9995 0.00135577 2.89847e-20)
(14.9995 0.00136476 -1.01661e-20)
(14.9996 0.00137321 2.81776e-20)
(14.9996 0.00138166 9.30746e-21)
(14.9996 0.00138971 -4.60751e-20)
(14.9996 0.00139751 -1.87545e-20)
(14.9996 0.00140467 1.87746e-20)
(14.9997 0.00141148 3.36149e-20)
(14.9997 0.00141825 -4.31788e-24)
(14.9997 0.00142458 1.89916e-20)
(14.9997 0.00143041 4.6987e-23)
(14.9998 0.00143599 -2.45424e-20)
(14.9998 0.00144145 -2.40723e-20)
(14.9998 0.00144632 -4.28819e-20)
(14.9998 0.00145075 3.46336e-20)
(14.9998 0.0014548 3.87211e-20)
(14.9999 0.00145856 8.62583e-21)
(14.9999 0.00146222 7.11829e-21)
(14.9999 0.00146523 -2.13765e-20)
(14.9999 0.00146807 -1.95464e-20)
(15 0.00147021 -6.47606e-24)
(15 0.00147218 1.9326e-20)
(15 0.00147383 1.9424e-20)
(15 0.00147517 -5.8472e-24)
(15.0001 0.00147635 -1.96548e-20)
(15.0001 0.00147681 -3.93497e-20)
(15.0001 0.0014771 1.50707e-20)
(15.0001 0.00147673 1.67649e-20)
(15.0002 0.00147625 -2.29555e-20)
(15.0002 0.00147547 -3.64388e-23)
(15.0002 0.00147431 1.52537e-20)
(15.0002 0.00147267 3.91858e-20)
(15.0002 0.00147043 -4.46545e-20)
(15.0003 0.00146807 -1.94842e-20)
(15.0003 0.00146543 -3.67777e-23)
(15.0003 0.00146227 7.04884e-21)
(15.0003 0.00145863 4.4277e-21)
(15.0004 0.00145495 1.60673e-20)
(15.0004 0.00145089 -1.94819e-20)
(15.0004 0.00144615 9.11949e-21)
(15.0004 0.00144113 2.04759e-22)
(15.0005 0.00143568 -1.00841e-20)
(15.0005 0.0014302 4.92456e-20)
(15.0005 0.00142416 -1.51927e-22)
(15.0005 0.00141775 -3.83191e-20)
(15.0005 0.00141057 -3.12903e-20)
(15.0006 0.00140356 6.82013e-23)
(15.0006 0.00139593 4.51032e-20)
(15.0006 0.00138773 -1.35585e-20)
(15.0006 0.00137954 1.89913e-20)
(15.0007 0.00137089 2.89426e-20)
(15.0007 0.00136171 -3.37033e-20)
(15.0007 0.00135233 -3.75405e-20)
(15.0007 0.00134257 5.35248e-20)
(15.0008 0.00133235 3.67154e-20)
(15.0008 0.00132148 -1.65846e-20)
(15.0008 0.00131051 -2.07004e-22)
(15.0008 0.0012992 -3.58467e-22)
(15.0008 0.00128745 -1.83091e-20)
(15.0009 0.00127545 -5.48545e-20)
(15.0009 0.00126283 1.03747e-21)
(15.0009 0.00125023 5.67977e-20)
(15.0009 0.00123706 3.75218e-20)
(15.0009 0.00122329 -2.4295e-21)
(15.001 0.00120953 -1.61222e-22)
(15.001 0.00119522 3.59912e-21)
(15.001 0.00118047 0)
(15.001 0.00116547 4.41794e-21)
(15.001 0.00115019 1.73184e-20)
(15.0011 0.00113406 1.66215e-20)
(15.0011 0.00111815 -3.35044e-20)
(15.0011 0.00110165 -6.08217e-21)
(15.0011 0.0010848 1.61302e-20)
(15.0011 0.00106746 7.33086e-21)
(15.0011 0.00105031 3.11867e-20)
(15.0012 0.00103252 -2.36947e-20)
(15.0012 0.00101392 3.14161e-20)
(15.0012 0.000995539 -2.44461e-20)
(15.0012 0.000976522 4.01545e-20)
(15.0012 0.000957362 -4.02352e-20)
(15.0012 0.000938031 1.03705e-20)
(15.0013 0.000918171 2.42499e-20)
(15.0013 0.000897769 3.55161e-20)
(15.0013 0.000877517 1.39967e-20)
(15.0013 0.000856237 1.07518e-20)
(15.0013 0.000835188 1.40163e-20)
(15.0013 0.000814012 1.28508e-20)
(15.0013 0.000792287 -3.74255e-20)
(15.0013 0.000770593 -3.71722e-20)
(15.0014 0.000748233 1.276e-20)
(15.0014 0.000725659 -1.22118e-20)
(15.0014 0.000702985 2.96708e-22)
(15.0014 0.000679937 -1.19924e-20)
(15.0014 0.000656604 -6.79978e-20)
(15.0014 0.000633243 4.98047e-22)
(15.0014 0.000609677 3.28815e-20)
(15.0014 0.000585583 2.20882e-20)
(15.0014 0.000561356 1.82477e-20)
(15.0014 0.000537331 -4.90144e-20)
(15.0014 0.00051275 1.93872e-20)
(15.0014 0.000488381 1.03742e-20)
(15.0014 0.000463392 1.79886e-20)
(15.0014 0.000438548 1.41986e-20)
(15.0014 0.000413534 -9.33459e-21)
(15.0014 0.000388342 -6.29715e-21)
(15.0014 0.000362727 -1.93898e-20)
(15.0014 0.000337469 -1.51095e-20)
(15.0014 0.000311859 -5.2456e-21)
(15.0014 0.000286065 -1.40704e-20)
(15.0014 0.000260619 3.31896e-21)
(15.0013 0.000234798 -3.04143e-21)
(15.0013 0.000209134 2.80569e-21)
(15.0013 0.00018313 -1.79153e-22)
(15.0012 0.000157509 -3.72044e-21)
(15.0012 0.000133888 2.62811e-21)
(15.0012 0.000109354 7.49568e-21)
(15.0011 8.03516e-05 -6.3625e-22)
(15.0009 4.6794e-05 -1.08088e-22)
(15.0006 1.91471e-05 -1.90576e-21)
(15.0004 1.19505e-05 1.02324e-21)
(15.0009 3.69178e-05 -1.73201e-22)
(15.0024 1.32118e-05 -1.51248e-22)
(14.9969 7.75785e-06 3.67292e-23)
(14.9985 4.70756e-05 4.89477e-23)
(14.9992 3.72197e-05 2.57766e-22)
(14.9993 2.82006e-05 -7.8051e-22)
(14.999 4.28519e-05 -7.81172e-22)
(14.9988 7.70187e-05 3.31594e-21)
(14.9987 0.000115107 -8.77546e-22)
(14.9986 0.000148881 0)
(14.9985 0.000179257 -7.17196e-21)
(14.9985 0.000210606 1.15407e-20)
(14.9984 0.000243529 -1.05496e-20)
(14.9984 0.000277049 2.40679e-21)
(14.9983 0.000310807 2.60546e-21)
(14.9983 0.000344799 -1.0738e-20)
(14.9983 0.000379494 8.41626e-21)
(14.9982 0.000414447 4.1866e-21)
(14.9982 0.000449417 -2.1329e-20)
(14.9982 0.000484904 -2.26684e-20)
(14.9982 0.000520397 7.05716e-21)
(14.9982 0.000556116 7.66634e-21)
(14.9981 0.000592037 2.75168e-20)
(14.9981 0.000628121 6.47965e-21)
(14.9981 0.000664197 8.66637e-21)
(14.9981 0.000700497 -1.61807e-20)
(14.9981 0.00073649 7.65595e-21)
(14.9981 0.000772766 -3.44127e-20)
(14.9981 0.000809179 3.55355e-20)
(14.9981 0.000845205 8.48875e-21)
(14.9981 0.00088113 9.0832e-21)
(14.9981 0.000917271 -9.26042e-21)
(14.9981 0.00095311 -1.9793e-20)
(14.9981 0.000988945 2.9993e-20)
(14.9981 0.00102472 -5.08748e-20)
(14.9981 0.00106034 -3.16546e-20)
(14.9981 0.00109544 4.2796e-20)
(14.9981 0.00113068 4.17463e-20)
(14.9982 0.00116533 2.10538e-20)
(14.9982 0.00119985 -1.17363e-20)
(14.9982 0.00123456 9.18325e-21)
(14.9982 0.00126849 -4.26961e-20)
(14.9982 0.00130228 5.54045e-20)
(14.9982 0.00133588 1.2939e-20)
(14.9982 0.00136889 2.14068e-20)
(14.9982 0.00140189 2.13975e-20)
(14.9983 0.00143452 0)
(14.9983 0.00146643 -1.36985e-20)
(14.9983 0.00149839 6.38705e-21)
(14.9983 0.00152973 3.56827e-20)
(14.9983 0.0015605 -2.90069e-20)
(14.9984 0.00159112 -2.07998e-20)
(14.9984 0.00162141 2.65126e-20)
(14.9984 0.00165132 -3.54713e-20)
(14.9984 0.00168031 -2.53436e-20)
(14.9984 0.00170943 5.53871e-20)
(14.9985 0.00173783 1.54386e-20)
(14.9985 0.00176592 1.96728e-20)
(14.9985 0.00179336 4.1775e-20)
(14.9985 0.0018204 3.01282e-21)
(14.9986 0.00184694 -3.23218e-20)
(14.9986 0.00187313 3.45153e-20)
(14.9986 0.00189871 5.11361e-20)
(14.9986 0.00192359 1.77074e-20)
(14.9987 0.00194827 1.66665e-20)
(14.9987 0.00197242 1.1929e-22)
(14.9987 0.00199593 -5.04467e-20)
(14.9988 0.0020189 3.26401e-20)
(14.9988 0.00204147 1.71945e-20)
(14.9988 0.00206356 1.56621e-20)
(14.9989 0.00208503 -3.2753e-20)
(14.9989 0.00210586 -2.08846e-23)
(14.9989 0.0021262 3.32041e-21)
(14.999 0.00214622 -1.76762e-20)
(14.999 0.00216559 -2.24743e-20)
(14.999 0.00218412 3.11143e-20)
(14.9991 0.00220229 3.08602e-20)
(14.9991 0.00222011 -1.22306e-20)
(14.9991 0.00223718 -1.17862e-20)
(14.9992 0.00225373 -4.10425e-20)
(14.9992 0.00226964 7.56225e-21)
(14.9992 0.00228502 -1.02318e-20)
(14.9993 0.00229955 -3.74657e-20)
(14.9993 0.00231383 4.69875e-20)
(14.9993 0.00232754 9.79345e-22)
(14.9994 0.00234072 -3.7917e-20)
(14.9994 0.00235292 -6.3405e-23)
(14.9994 0.00236467 4.66376e-23)
(14.9995 0.00237602 -2.62386e-20)
(14.9995 0.00238688 1.92135e-20)
(14.9996 0.0023969 3.25645e-20)
(14.9996 0.00240642 5.58724e-21)
(14.9996 0.00241541 5.00288e-21)
(14.9997 0.00242363 2.61152e-23)
(14.9997 0.0024313 -2.35785e-20)
(14.9997 0.00243831 -3.57027e-20)
(14.9998 0.00244483 -1.96933e-20)
(14.9998 0.00245094 5.90985e-20)
(14.9999 0.00245607 1.78364e-20)
(14.9999 0.00246067 -1.97855e-20)
(14.9999 0.00246448 1.89583e-20)
(15 0.00246799 3.43055e-22)
(15 0.0024708 -2.00888e-20)
(15.0001 0.0024729 7.36176e-22)
(15.0001 0.00247471 0)
(15.0001 0.00247572 1.79485e-21)
(15.0002 0.00247618 -1.75743e-20)
(15.0002 0.00247565 -2.84954e-21)
(15.0003 0.0024747 2.32956e-20)
(15.0003 0.00247323 -2.77654e-20)
(15.0003 0.00247109 -1.98484e-20)
(15.0004 0.00246837 1.2918e-24)
(15.0004 0.00246485 -1.68827e-23)
(15.0005 0.00246077 3.96761e-20)
(15.0005 0.00245616 1.97173e-20)
(15.0005 0.00245066 -1.97389e-20)
(15.0006 0.00244464 1.97627e-20)
(15.0006 0.00243817 2.78524e-20)
(15.0006 0.00243123 -3.94388e-20)
(15.0007 0.00242323 -3.00204e-20)
(15.0007 0.00241465 9.90216e-21)
(15.0008 0.00240545 4.93726e-20)
(15.0008 0.00239596 1.06835e-20)
(15.0008 0.00238554 -3.07309e-20)
(15.0009 0.00237453 0)
(15.0009 0.0023628 1.94433e-20)
(15.001 0.00235049 3.21064e-20)
(15.001 0.00233734 -1.93057e-20)
(15.001 0.00232378 -1.91621e-20)
(15.0011 0.00230978 1.92044e-20)
(15.0011 0.00229485 -2.96648e-20)
(15.0012 0.00227917 -1.8962e-20)
(15.0012 0.00226308 1.89951e-20)
(15.0012 0.00224642 3.50579e-20)
(15.0013 0.00222902 -5.21966e-20)
(15.0013 0.00221089 -1.49883e-21)
(15.0013 0.00219216 -1.65215e-20)
(15.0014 0.00217295 1.79028e-20)
(15.0014 0.00215308 -3.68391e-20)
(15.0014 0.00213244 1.84004e-20)
(15.0015 0.00211115 3.75074e-20)
(15.0015 0.00208957 1.97797e-20)
(15.0015 0.00206713 -1.60187e-20)
(15.0016 0.00204395 -1.76442e-20)
(15.0016 0.00202029 5.64178e-20)
(15.0016 0.00199598 -1.70645e-22)
(15.0017 0.00197115 -1.74187e-20)
(15.0017 0.00194549 0)
(15.0017 0.00191939 4.46703e-20)
(15.0018 0.00189238 -4.53458e-20)
(15.0018 0.00186541 0)
(15.0018 0.0018373 2.3269e-20)
(15.0019 0.00180864 -2.35493e-20)
(15.0019 0.00177949 1.65407e-20)
(15.0019 0.00175004 7.47393e-21)
(15.002 0.00171983 3.27023e-20)
(15.002 0.00168876 -2.24471e-22)
(15.002 0.00165762 -4.89577e-20)
(15.002 0.00162551 1.53365e-20)
(15.0021 0.00159282 -5.92481e-20)
(15.0021 0.00155998 3.9849e-20)
(15.0021 0.00152628 -2.49878e-20)
(15.0021 0.0014922 -1.45616e-20)
(15.0021 0.00145779 -2.47904e-20)
(15.0022 0.00142228 1.0659e-20)
(15.0022 0.00138681 3.93661e-20)
(15.0022 0.001351 -1.21002e-20)
(15.0022 0.00131429 -6.39674e-20)
(15.0022 0.00127753 -4.8884e-20)
(15.0023 0.00123995 3.67653e-20)
(15.0023 0.00120195 -4.82399e-20)
(15.0023 0.00116364 0)
(15.0023 0.00112509 -3.50712e-20)
(15.0023 0.00108591 -1.1507e-20)
(15.0023 0.00104674 4.37611e-20)
(15.0023 0.00100717 -2.20551e-20)
(15.0024 0.000966832 3.30393e-20)
(15.0024 0.000926359 -3.99036e-20)
(15.0024 0.000885925 2.04663e-20)
(15.0024 0.000844777 2.78971e-20)
(15.0024 0.000803562 2.69944e-20)
(15.0024 0.000761972 2.54551e-20)
(15.0024 0.000720203 2.27568e-21)
(15.0024 0.00067829 4.50075e-22)
(15.0024 0.000636251 -9.26222e-21)
(15.0023 0.000593768 8.3986e-21)
(15.0023 0.000551478 0)
(15.0023 0.000508722 -1.67202e-20)
(15.0023 0.000465773 2.16185e-20)
(15.0023 0.000423203 -9.79174e-21)
(15.0022 0.000380356 -4.82233e-21)
(15.0022 0.000337189 2.4557e-21)
(15.0021 0.000294196 -1.70233e-20)
(15.0021 0.000252843 2.17096e-21)
(15.002 0.000212118 5.43805e-21)
(15.0019 0.000165449 8.72279e-22)
(15.0017 0.000111297 1.10033e-22)
(15.0014 6.20269e-05 -1.17788e-21)
(15.0011 4.13847e-05 4.80285e-22)
(15.0011 5.638e-05 -6.70023e-23)
(15.0022 7.12397e-05 -6.96753e-22)
(15.0047 1.22426e-05 3.8188e-23)
(14.9958 9.46551e-06 -2.9866e-23)
(14.9975 5.80368e-05 2.08977e-22)
(14.9986 7.30523e-05 0)
(14.9989 5.82923e-05 0)
(14.9987 5.65989e-05 -4.05866e-22)
(14.9984 8.84917e-05 -6.52027e-22)
(14.9981 0.000140189 -1.46143e-21)
(14.998 0.000192084 -7.43054e-22)
(14.9979 0.000237702 -2.44493e-21)
(14.9978 0.000281443 3.99361e-21)
(14.9978 0.000326642 -2.88098e-21)
(14.9977 0.00037335 -2.58e-21)
(14.9977 0.000420619 -4.1511e-21)
(14.9976 0.000468413 2.59347e-23)
(14.9976 0.000516865 -1.75681e-20)
(14.9975 0.000565691 1.35131e-20)
(14.9975 0.000614786 4.39918e-21)
(14.9975 0.000664386 6.80249e-21)
(14.9974 0.000714269 -1.75526e-20)
(14.9974 0.000764404 7.67037e-21)
(14.9974 0.00081466 -2.80167e-20)
(14.9974 0.000865277 2.41878e-22)
(14.9974 0.000916026 6.46737e-21)
(14.9974 0.000967102 -8.55531e-21)
(14.9974 0.00101783 1.64153e-20)
(14.9974 0.00106879 2.38819e-22)
(14.9973 0.00111988 -3.44581e-20)
(14.9973 0.00117072 -1.85384e-20)
(14.9973 0.00122131 9.20006e-21)
(14.9973 0.00127228 3.58214e-23)
(14.9973 0.00132294 0)
(14.9974 0.00137341 2.00172e-20)
(14.9974 0.00142376 3.05719e-20)
(14.9974 0.00147395 -2.04828e-20)
(14.9974 0.00152373 -2.20111e-20)
(14.9974 0.00157338 -2.12466e-20)
(14.9974 0.00162256 -2.10032e-20)
(14.9974 0.00167154 -2.16107e-20)
(14.9974 0.0017204 2.77529e-21)
(14.9974 0.00176842 -4.30241e-20)
(14.9975 0.00181627 -3.44867e-20)
(14.9975 0.00186368 8.86627e-21)
(14.9975 0.00191051 8.43216e-21)
(14.9975 0.00195728 1.33437e-20)
(14.9975 0.00200356 2.18359e-20)
(14.9976 0.00204887 -1.85357e-22)
(14.9976 0.00209409 1.41747e-20)
(14.9976 0.00213855 4.27967e-20)
(14.9976 0.00218248 2.12333e-20)
(14.9977 0.00222588 -1.464e-20)
(14.9977 0.00226886 2.07425e-20)
(14.9977 0.00231113 -1.12701e-20)
(14.9978 0.00235274 -1.50918e-20)
(14.9978 0.00239396 -1.57408e-20)
(14.9978 0.00243433 1.57596e-20)
(14.9979 0.00247424 2.39263e-20)
(14.9979 0.00251316 -1.6057e-20)
(14.9979 0.0025517 3.53818e-20)
(14.998 0.00258958 -2.61164e-21)
(14.998 0.00262675 -5.38028e-20)
(14.9981 0.0026632 -1.6685e-20)
(14.9981 0.00269883 1.67365e-20)
(14.9981 0.00273391 1.70095e-20)
(14.9982 0.0027682 5.13439e-20)
(14.9982 0.00280175 -1.69121e-20)
(14.9983 0.00283465 -3.49275e-20)
(14.9983 0.0028667 1.26292e-21)
(14.9983 0.00289802 1.58898e-20)
(14.9984 0.00292874 -1.76509e-20)
(14.9984 0.00295863 1.49834e-20)
(14.9985 0.00298775 3.59093e-20)
(14.9985 0.00301603 2.86082e-20)
(14.9986 0.00304368 -5.01603e-20)
(14.9986 0.00307028 -3.17165e-20)
(14.9987 0.0030961 1.83477e-20)
(14.9987 0.00312151 6.03382e-21)
(14.9988 0.00314597 1.85304e-20)
(14.9988 0.00316944 7.116e-21)
(14.9989 0.00319208 -2.22693e-20)
(14.9989 0.00321409 2.49733e-21)
(14.999 0.00323509 -3.9372e-20)
(14.999 0.00325541 2.8272e-20)
(14.9991 0.00327489 -9.70837e-21)
(14.9991 0.00329363 -5.76169e-20)
(14.9992 0.00331123 1.10111e-20)
(14.9992 0.00332814 3.86933e-20)
(14.9993 0.00334424 3.84015e-23)
(14.9993 0.00335964 1.26768e-20)
(14.9994 0.00337405 -1.94424e-20)
(14.9994 0.00338768 -5.31884e-20)
(14.9995 0.0034003 5.1854e-21)
(14.9995 0.00341218 4.11427e-24)
(14.9996 0.00342334 1.97916e-20)
(14.9996 0.00343344 1.98692e-20)
(14.9997 0.00344269 1.06717e-20)
(14.9997 0.00345119 1.48885e-20)
(14.9998 0.00345853 -1.79971e-20)
(14.9999 0.00346509 -2.00666e-20)
(14.9999 0.00347064 -2.00937e-20)
(15 0.00347575 -1.97592e-20)
(15 0.00347975 6.03009e-20)
(15.0001 0.00348265 2.0152e-20)
(15.0001 0.00348509 -2.14102e-20)
(15.0002 0.00348651 -2.01732e-20)
(15.0002 0.00348714 -2.24778e-20)
(15.0003 0.0034866 2.30494e-20)
(15.0004 0.00348528 -4.72202e-20)
(15.0004 0.00348308 -2.01104e-20)
(15.0005 0.00347978 6.49187e-20)
(15.0005 0.00347573 4.01828e-20)
(15.0006 0.0034709 -3.45819e-20)
(15.0006 0.00346502 -7.65831e-21)
(15.0007 0.00345829 -5.72365e-23)
(15.0007 0.00345054 4.68846e-23)
(15.0008 0.00344202 4.00093e-20)
(15.0009 0.00343263 -8.38076e-21)
(15.0009 0.00342249 -2.87594e-20)
(15.001 0.00341113 -1.05297e-20)
(15.001 0.00339896 2.9919e-20)
(15.0011 0.00338586 3.96008e-20)
(15.0011 0.00337199 0)
(15.0012 0.00335704 -1.97569e-20)
(15.0012 0.00334135 -7.61529e-21)
(15.0013 0.00332474 0)
(15.0014 0.00330703 -1.3059e-20)
(15.0014 0.00328826 -1.35703e-20)
(15.0015 0.00326897 -1.40609e-20)
(15.0015 0.00324879 -1.94388e-20)
(15.0016 0.00322742 -1.49523e-20)
(15.0016 0.0032053 1.9196e-20)
(15.0017 0.00318222 -1.92519e-20)
(15.0017 0.00315822 8.94982e-23)
(15.0018 0.00313323 2.10133e-20)
(15.0018 0.00310751 1.73309e-20)
(15.0019 0.00308092 1.46548e-22)
(15.0019 0.0030533 -3.68419e-20)
(15.002 0.00302489 -1.85558e-20)
(15.002 0.00299556 0)
(15.0021 0.00296526 -2.18762e-23)
(15.0021 0.00293424 -1.69742e-21)
(15.0022 0.00290221 -4.11536e-20)
(15.0022 0.00286927 6.01275e-20)
(15.0023 0.00283542 2.09345e-20)
(15.0023 0.00280071 -7.881e-20)
(15.0024 0.00276544 0)
(15.0024 0.00272893 1.76668e-20)
(15.0025 0.00269177 4.99867e-21)
(15.0025 0.0026535 6.01286e-21)
(15.0025 0.00261463 1.69821e-20)
(15.0026 0.00257487 -2.36026e-20)
(15.0026 0.00253414 0)
(15.0027 0.00249276 1.66986e-20)
(15.0027 0.0024506 -8.06427e-21)
(15.0027 0.00240765 8.30168e-21)
(15.0028 0.00236364 -5.67939e-20)
(15.0028 0.00231933 2.516e-20)
(15.0029 0.00227369 -2.47507e-22)
(15.0029 0.00222727 -2.4952e-20)
(15.0029 0.00218058 1.49676e-20)
(15.003 0.00213296 -1.50614e-20)
(15.003 0.00208461 -1.45753e-20)
(15.003 0.0020358 5.43985e-20)
(15.0031 0.00198575 1.37109e-20)
(15.0031 0.00193531 1.15947e-20)
(15.0031 0.00188433 -3.89085e-20)
(15.0031 0.00183252 -5.15105e-20)
(15.0032 0.00178026 3.80789e-20)
(15.0032 0.00172719 -1.24421e-20)
(15.0032 0.00167361 2.51457e-22)
(15.0032 0.00161955 1.17659e-20)
(15.0032 0.0015649 0)
(15.0033 0.00150951 4.64885e-20)
(15.0033 0.00145423 -2.27751e-20)
(15.0033 0.00139822 -2.22579e-20)
(15.0033 0.00134149 -4.33015e-20)
(15.0033 0.00128449 -1.12978e-20)
(15.0033 0.00122734 2.93798e-20)
(15.0033 0.00116926 -1.95359e-20)
(15.0033 0.0011111 -8.28174e-21)
(15.0033 0.00105257 -1.76819e-20)
(15.0033 0.000993965 -2.70406e-20)
(15.0033 0.000934932 2.53703e-20)
(15.0033 0.000875609 2.48727e-22)
(15.0033 0.000816008 -2.52317e-22)
(15.0033 0.000756378 1.32515e-20)
(15.0033 0.000696399 1.65084e-20)
(15.0032 0.000636133 6.43698e-21)
(15.0032 0.000575938 2.09966e-21)
(15.0031 0.000515589 -8.20377e-21)
(15.0031 0.000455095 -7.61171e-21)
(15.003 0.000395843 1.8375e-22)
(15.0029 0.000337707 7.0617e-21)
(15.0028 0.000275542 -8.43029e-21)
(15.0027 0.00020264 3.32028e-21)
(15.0024 0.000128592 1.24691e-23)
(15.0019 8.309e-05 0)
(15.0017 8.73838e-05 -5.07274e-22)
(15.0021 0.000111171 -6.15857e-22)
(15.0038 8.82913e-05 9.79871e-23)
(15.0065 1.50276e-05 5.30473e-23)
(14.9948 9.99826e-06 -5.67977e-23)
(14.9964 6.20255e-05 -2.88947e-22)
(14.9977 0.000106067 0)
(14.9983 0.000102123 8.1038e-22)
(14.9983 8.47096e-05 4.25848e-22)
(14.998 0.000100767 -1.10564e-21)
(14.9977 0.000154783 -2.34575e-21)
(14.9975 0.000222905 -1.04195e-21)
(14.9973 0.000286429 9.28766e-22)
(14.9972 0.000344487 -4.61009e-21)
(14.9971 0.000402057 7.38927e-21)
(14.9971 0.000461423 -3.88283e-21)
(14.997 0.000521999 9.81624e-21)
(14.9969 0.00058347 -2.95835e-23)
(14.9969 0.000645568 5.38423e-21)
(14.9968 0.000708359 -4.03549e-21)
(14.9968 0.000771561 2.12946e-20)
(14.9967 0.000835149 1.61594e-20)
(14.9967 0.000899235 -4.8533e-21)
(14.9967 0.000963964 -4.29585e-22)
(14.9967 0.00102886 -7.68036e-21)
(14.9966 0.00109396 -6.52966e-21)
(14.9966 0.00115949 -1.54862e-20)
(14.9966 0.00122525 -7.04058e-21)
(14.9966 0.00129079 -1.69814e-20)
(14.9966 0.00135652 3.33239e-20)
(14.9966 0.00142255 -9.51539e-21)
(14.9966 0.00148839 -1.85277e-20)
(14.9966 0.0015539 -1.89728e-20)
(14.9966 0.00161995 -2.87341e-20)
(14.9966 0.00168551 -9.90079e-21)
(14.9966 0.00175091 0)
(14.9966 0.00181617 -3.08178e-20)
(14.9966 0.00188118 -2.09455e-20)
(14.9966 0.00194587 1.09665e-21)
(14.9966 0.00201035 -9.85654e-21)
(14.9966 0.00207426 -2.1505e-20)
(14.9967 0.00213789 -3.34669e-20)
(14.9967 0.00220115 -2.1957e-20)
(14.9967 0.00226366 4.38614e-20)
(14.9967 0.00232588 -3.63011e-21)
(14.9967 0.00238776 -3.50623e-20)
(14.9968 0.00244876 -8.79783e-21)
(14.9968 0.00250951 1.99832e-22)
(14.9968 0.00256978 -1.79971e-22)
(14.9969 0.00262881 -2.16737e-20)
(14.9969 0.00268753 2.15744e-20)
(14.9969 0.0027457 -2.14726e-20)
(14.997 0.00280289 2.1384e-20)
(14.997 0.00285956 2.05004e-22)
(14.997 0.00291565 1.47762e-20)
(14.9971 0.00297068 2.14307e-20)
(14.9971 0.00302514 5.17002e-21)
(14.9972 0.00307889 -4.95466e-21)
(14.9972 0.00313161 4.70685e-21)
(14.9972 0.00318368 2.00202e-20)
(14.9973 0.00323473 -1.97635e-20)
(14.9973 0.00328498 -1.98068e-20)
(14.9974 0.00333446 3.59e-20)
(14.9974 0.00338301 0)
(14.9975 0.0034307 -1.87411e-20)
(14.9975 0.00347757 -3.68132e-20)
(14.9976 0.00352341 1.80575e-20)
(14.9976 0.00356814 -1.77093e-20)
(14.9977 0.00361216 3.4734e-20)
(14.9977 0.00365531 1.74469e-20)
(14.9978 0.00369726 1.67238e-20)
(14.9978 0.00373822 -1.64361e-21)
(14.9979 0.00377837 -1.78377e-20)
(14.998 0.00381768 -3.09074e-20)
(14.998 0.00385589 1.51028e-20)
(14.9981 0.00389271 1.44669e-20)
(14.9981 0.00392882 4.30525e-21)
(14.9982 0.00396395 -1.36985e-20)
(14.9983 0.00399791 -7.95142e-21)
(14.9983 0.00403098 -1.27097e-20)
(14.9984 0.00406297 -1.24309e-20)
(14.9984 0.00409382 3.07899e-20)
(14.9985 0.00412358 -3.79066e-20)
(14.9986 0.00415245 -1.4506e-22)
(14.9986 0.00418021 1.93e-20)
(14.9987 0.00420666 -1.92911e-20)
(14.9988 0.00423214 1.88978e-20)