/*--------------------------------*- C++ -*----------------------------------*\
  =========                 |
  \\      /  F ield         | OpenFOAM: The Open Source CFD Toolbox
   \\    /   O peration     | Website:  https://openfoam.org
    \\  /    A nd           | Version:  8
     \\/     M anipulation  |
\*---------------------------------------------------------------------------*/
FoamFile
{
    version     2.0;
    format      ascii;
    class       volScalarField;
    location    "0.13";
    object      nut;
}
// * * * * * * * * * * * * * * * * * * * * * * * * * * * * * * * * * * * * * //

dimensions      [0 2 -1 0 0 0 0];

internalField   nonuniform List<scalar> 
112642
(
2.78928e-08
2.79007e-08
2.78817e-08
2.78765e-08
2.78733e-08
2.78712e-08
2.78698e-08
2.78687e-08
2.7868e-08
2.78673e-08
2.78668e-08
2.78664e-08
2.7866e-08
2.78657e-08
2.78654e-08
2.78652e-08
2.7865e-08
2.78648e-08
2.78647e-08
2.78645e-08
2.78644e-08
2.78643e-08
2.78642e-08
2.78641e-08
2.7864e-08
2.78639e-08
2.78638e-08
2.78638e-08
2.78637e-08
2.78636e-08
2.78636e-08
2.78635e-08
2.78635e-08
2.78634e-08
2.78634e-08
2.78634e-08
2.78633e-08
2.78633e-08
2.78632e-08
2.78632e-08
2.78632e-08
2.78631e-08
2.78631e-08
2.78631e-08
2.78631e-08
2.7863e-08
2.7863e-08
2.7863e-08
2.7863e-08
2.7863e-08
2.78629e-08
2.78629e-08
2.78629e-08
2.78629e-08
2.78629e-08
2.78629e-08
2.78628e-08
2.78628e-08
2.78628e-08
2.78628e-08
2.78628e-08
2.78628e-08
2.78628e-08
2.78628e-08
2.78628e-08
2.78627e-08
2.78627e-08
2.78627e-08
2.78627e-08
2.78627e-08
2.78627e-08
2.78627e-08
2.78627e-08
2.78627e-08
2.78627e-08
2.78627e-08
2.78627e-08
2.78627e-08
2.78626e-08
2.78626e-08
2.78626e-08
2.78626e-08
2.78626e-08
2.78626e-08
2.78626e-08
2.78626e-08
2.78626e-08
2.78626e-08
2.78626e-08
2.78626e-08
2.78626e-08
2.78626e-08
2.78626e-08
2.78626e-08
2.78626e-08
2.78626e-08
2.78626e-08
2.78626e-08
2.78626e-08
2.78626e-08
2.78626e-08
2.78626e-08
2.78626e-08
2.78626e-08
2.78626e-08
2.78626e-08
2.78626e-08
2.78626e-08
2.78626e-08
2.78626e-08
2.78626e-08
2.78626e-08
2.78626e-08
2.78626e-08
2.78626e-08
2.78626e-08
2.78626e-08
2.78626e-08
2.78626e-08
2.78626e-08
2.78626e-08
2.78626e-08
2.78626e-08
2.78626e-08
2.78626e-08
2.78626e-08
2.78626e-08
2.78626e-08
2.78626e-08
2.78626e-08
2.78626e-08
2.78626e-08
2.78626e-08
2.78626e-08
2.78626e-08
2.78626e-08
2.78626e-08
2.78626e-08
2.78626e-08
2.78626e-08
2.78626e-08
2.78626e-08
2.78626e-08
2.78626e-08
2.78626e-08
2.78627e-08
2.78627e-08
2.78627e-08
2.78627e-08
2.78627e-08
2.78627e-08
2.78627e-08
2.78627e-08
2.78627e-08
2.78627e-08
2.78627e-08
2.78627e-08
2.78628e-08
2.78628e-08
2.78628e-08
2.78628e-08
2.78628e-08
2.78628e-08
2.78628e-08
2.78629e-08
2.78629e-08
2.78629e-08
2.78629e-08
2.78629e-08
2.7863e-08
2.7863e-08
2.7863e-08
2.7863e-08
2.78631e-08
2.78631e-08
2.78631e-08
2.78632e-08
2.78632e-08
2.78632e-08
2.78633e-08
2.78633e-08
2.78634e-08
2.78634e-08
2.78635e-08
2.78636e-08
2.78637e-08
2.78638e-08
2.78639e-08
2.7864e-08
2.78642e-08
2.78643e-08
2.78646e-08
2.78649e-08
2.78652e-08
2.78657e-08
2.78664e-08
2.78676e-08
2.78695e-08
2.78766e-08
2.78735e-08
2.79241e-08
2.79685e-08
2.79213e-08
2.79053e-08
2.78957e-08
2.78896e-08
2.78854e-08
2.78823e-08
2.78799e-08
2.78779e-08
2.78764e-08
2.78751e-08
2.7874e-08
2.78731e-08
2.78723e-08
2.78716e-08
2.7871e-08
2.78705e-08
2.787e-08
2.78695e-08
2.78692e-08
2.78688e-08
2.78685e-08
2.78682e-08
2.78679e-08
2.78677e-08
2.78675e-08
2.78672e-08
2.7867e-08
2.78669e-08
2.78667e-08
2.78665e-08
2.78664e-08
2.78662e-08
2.78661e-08
2.7866e-08
2.78659e-08
2.78658e-08
2.78657e-08
2.78656e-08
2.78655e-08
2.78654e-08
2.78653e-08
2.78652e-08
2.78651e-08
2.78651e-08
2.7865e-08
2.78649e-08
2.78649e-08
2.78648e-08
2.78648e-08
2.78647e-08
2.78647e-08
2.78646e-08
2.78646e-08
2.78645e-08
2.78645e-08
2.78644e-08
2.78644e-08
2.78643e-08
2.78643e-08
2.78643e-08
2.78642e-08
2.78642e-08
2.78642e-08
2.78642e-08
2.78641e-08
2.78641e-08
2.78641e-08
2.7864e-08
2.7864e-08
2.7864e-08
2.7864e-08
2.7864e-08
2.78639e-08
2.78639e-08
2.78639e-08
2.78639e-08
2.78639e-08
2.78638e-08
2.78638e-08
2.78638e-08
2.78638e-08
2.78638e-08
2.78638e-08
2.78638e-08
2.78637e-08
2.78637e-08
2.78637e-08
2.78637e-08
2.78637e-08
2.78637e-08
2.78637e-08
2.78637e-08
2.78637e-08
2.78637e-08
2.78636e-08
2.78636e-08
2.78636e-08
2.78636e-08
2.78636e-08
2.78636e-08
2.78636e-08
2.78636e-08
2.78636e-08
2.78636e-08
2.78636e-08
2.78636e-08
2.78636e-08
2.78636e-08
2.78636e-08
2.78636e-08
2.78636e-08
2.78636e-08
2.78636e-08
2.78636e-08
2.78636e-08
2.78636e-08
2.78636e-08
2.78636e-08
2.78636e-08
2.78636e-08
2.78636e-08
2.78636e-08
2.78636e-08
2.78636e-08
2.78636e-08
2.78637e-08
2.78637e-08
2.78637e-08
2.78637e-08
2.78637e-08
2.78637e-08
2.78637e-08
2.78637e-08
2.78637e-08
2.78637e-08
2.78638e-08
2.78638e-08
2.78638e-08
2.78638e-08
2.78638e-08
2.78638e-08
2.78639e-08
2.78639e-08
2.78639e-08
2.78639e-08
2.78639e-08
2.7864e-08
2.7864e-08
2.7864e-08
2.7864e-08
2.78641e-08
2.78641e-08
2.78641e-08
2.78641e-08
2.78642e-08
2.78642e-08
2.78642e-08
2.78643e-08
2.78643e-08
2.78644e-08
2.78644e-08
2.78645e-08
2.78645e-08
2.78646e-08
2.78646e-08
2.78647e-08
2.78647e-08
2.78648e-08
2.78649e-08
2.78649e-08
2.7865e-08
2.78651e-08
2.78652e-08
2.78653e-08
2.78654e-08
2.78655e-08
2.78657e-08
2.78658e-08
2.78659e-08
2.78661e-08
2.78663e-08
2.78665e-08
2.78667e-08
2.7867e-08
2.78673e-08
2.78676e-08
2.7868e-08
2.78685e-08
2.7869e-08
2.78697e-08
2.78706e-08
2.78717e-08
2.78731e-08
2.78753e-08
2.78788e-08
2.78847e-08
2.79022e-08
2.78853e-08
2.79434e-08
2.8029e-08
2.79574e-08
2.79323e-08
2.79171e-08
2.79073e-08
2.79006e-08
2.78956e-08
2.78916e-08
2.78884e-08
2.78859e-08
2.78838e-08
2.7882e-08
2.78804e-08
2.78791e-08
2.7878e-08
2.7877e-08
2.78761e-08
2.78753e-08
2.78746e-08
2.78739e-08
2.78733e-08
2.78728e-08
2.78723e-08
2.78719e-08
2.78715e-08
2.78711e-08
2.78707e-08
2.78704e-08
2.78701e-08
2.78698e-08
2.78696e-08
2.78693e-08
2.78691e-08
2.78689e-08
2.78687e-08
2.78685e-08
2.78683e-08
2.78681e-08
2.78679e-08
2.78678e-08
2.78676e-08
2.78675e-08
2.78674e-08
2.78672e-08
2.78671e-08
2.7867e-08
2.78669e-08
2.78668e-08
2.78667e-08
2.78666e-08
2.78665e-08
2.78664e-08
2.78663e-08
2.78663e-08
2.78662e-08
2.78661e-08
2.7866e-08
2.7866e-08
2.78659e-08
2.78659e-08
2.78658e-08
2.78657e-08
2.78657e-08
2.78656e-08
2.78656e-08
2.78655e-08
2.78655e-08
2.78654e-08
2.78654e-08
2.78654e-08
2.78653e-08
2.78653e-08
2.78652e-08
2.78652e-08
2.78652e-08
2.78651e-08
2.78651e-08
2.78651e-08
2.78651e-08
2.7865e-08
2.7865e-08
2.7865e-08
2.7865e-08
2.78649e-08
2.78649e-08
2.78649e-08
2.78649e-08
2.78649e-08
2.78648e-08
2.78648e-08
2.78648e-08
2.78648e-08
2.78648e-08
2.78648e-08
2.78647e-08
2.78647e-08
2.78647e-08
2.78647e-08
2.78647e-08
2.78647e-08
2.78647e-08
2.78647e-08
2.78647e-08
2.78647e-08
2.78647e-08
2.78647e-08
2.78647e-08
2.78647e-08
2.78647e-08
2.78647e-08
2.78647e-08
2.78647e-08
2.78647e-08
2.78647e-08
2.78647e-08
2.78647e-08
2.78647e-08
2.78647e-08
2.78647e-08
2.78647e-08
2.78647e-08
2.78647e-08
2.78647e-08
2.78647e-08
2.78647e-08
2.78647e-08
2.78648e-08
2.78648e-08
2.78648e-08
2.78648e-08
2.78648e-08
2.78648e-08
2.78648e-08
2.78649e-08
2.78649e-08
2.78649e-08
2.78649e-08
2.7865e-08
2.7865e-08
2.7865e-08
2.7865e-08
2.78651e-08
2.78651e-08
2.78651e-08
2.78651e-08
2.78652e-08
2.78652e-08
2.78653e-08
2.78653e-08
2.78653e-08
2.78654e-08
2.78654e-08
2.78655e-08
2.78655e-08
2.78656e-08
2.78656e-08
2.78657e-08
2.78657e-08
2.78658e-08
2.78659e-08
2.78659e-08
2.7866e-08
2.78661e-08
2.78662e-08
2.78663e-08
2.78664e-08
2.78665e-08
2.78666e-08
2.78667e-08
2.78668e-08
2.78669e-08
2.78671e-08
2.78672e-08
2.78674e-08
2.78675e-08
2.78677e-08
2.78679e-08
2.78681e-08
2.78683e-08
2.78686e-08
2.78689e-08
2.78692e-08
2.78695e-08
2.78699e-08
2.78703e-08
2.78708e-08
2.78714e-08
2.7872e-08
2.78728e-08
2.78737e-08
2.78749e-08
2.78763e-08
2.7878e-08
2.78804e-08
2.78838e-08
2.78893e-08
2.78986e-08
2.79253e-08
2.78927e-08
2.79588e-08
2.80843e-08
2.7991e-08
2.7958e-08
2.79377e-08
2.79246e-08
2.79154e-08
2.79086e-08
2.79031e-08
2.78987e-08
2.78952e-08
2.78923e-08
2.78898e-08
2.78877e-08
2.78859e-08
2.78843e-08
2.78829e-08
2.78817e-08
2.78806e-08
2.78796e-08
2.78787e-08
2.78779e-08
2.78771e-08
2.78765e-08
2.78758e-08
2.78753e-08
2.78747e-08
2.78743e-08
2.78738e-08
2.78734e-08
2.7873e-08
2.78726e-08
2.78723e-08
2.78719e-08
2.78716e-08
2.78713e-08
2.78711e-08
2.78708e-08
2.78706e-08
2.78703e-08
2.78701e-08
2.78699e-08
2.78697e-08
2.78695e-08
2.78694e-08
2.78692e-08
2.7869e-08
2.78689e-08
2.78687e-08
2.78686e-08
2.78685e-08
2.78683e-08
2.78682e-08
2.78681e-08
2.7868e-08
2.78679e-08
2.78678e-08
2.78677e-08
2.78676e-08
2.78675e-08
2.78674e-08
2.78673e-08
2.78672e-08
2.78672e-08
2.78671e-08
2.7867e-08
2.7867e-08
2.78669e-08
2.78668e-08
2.78668e-08
2.78667e-08
2.78667e-08
2.78666e-08
2.78666e-08
2.78665e-08
2.78665e-08
2.78664e-08
2.78664e-08
2.78663e-08
2.78663e-08
2.78663e-08
2.78662e-08
2.78662e-08
2.78662e-08
2.78661e-08
2.78661e-08
2.78661e-08
2.7866e-08
2.7866e-08
2.7866e-08
2.7866e-08
2.78659e-08
2.78659e-08
2.78659e-08
2.78659e-08
2.78659e-08
2.78658e-08
2.78658e-08
2.78658e-08
2.78658e-08
2.78658e-08
2.78658e-08
2.78658e-08
2.78658e-08
2.78658e-08
2.78657e-08
2.78657e-08
2.78657e-08
2.78657e-08
2.78657e-08
2.78657e-08
2.78657e-08
2.78657e-08
2.78657e-08
2.78657e-08
2.78657e-08
2.78657e-08
2.78657e-08
2.78658e-08
2.78658e-08
2.78658e-08
2.78658e-08
2.78658e-08
2.78658e-08
2.78658e-08
2.78658e-08
2.78658e-08
2.78659e-08
2.78659e-08
2.78659e-08
2.78659e-08
2.78659e-08
2.7866e-08
2.7866e-08
2.7866e-08
2.78661e-08
2.78661e-08
2.78661e-08
2.78661e-08
2.78662e-08
2.78662e-08
2.78663e-08
2.78663e-08
2.78663e-08
2.78664e-08
2.78664e-08
2.78665e-08
2.78665e-08
2.78666e-08
2.78666e-08
2.78667e-08
2.78667e-08
2.78668e-08
2.78669e-08
2.78669e-08
2.7867e-08
2.78671e-08
2.78672e-08
2.78673e-08
2.78674e-08
2.78674e-08
2.78675e-08
2.78676e-08
2.78678e-08
2.78679e-08
2.7868e-08
2.78681e-08
2.78683e-08
2.78684e-08
2.78686e-08
2.78687e-08
2.78689e-08
2.78691e-08
2.78693e-08
2.78695e-08
2.78697e-08
2.787e-08
2.78703e-08
2.78706e-08
2.78709e-08
2.78712e-08
2.78716e-08
2.7872e-08
2.78725e-08
2.78731e-08
2.78736e-08
2.78743e-08
2.78751e-08
2.78761e-08
2.78771e-08
2.78784e-08
2.788e-08
2.78819e-08
2.78843e-08
2.78875e-08
2.78921e-08
2.78995e-08
2.79117e-08
2.79464e-08
2.78986e-08
2.79782e-08
2.81345e-08
2.80227e-08
2.79826e-08
2.79577e-08
2.79414e-08
2.793e-08
2.79213e-08
2.79145e-08
2.7909e-08
2.79045e-08
2.79008e-08
2.78977e-08
2.7895e-08
2.78927e-08
2.78907e-08
2.78889e-08
2.78873e-08
2.78859e-08
2.78846e-08
2.78835e-08
2.78824e-08
2.78815e-08
2.78806e-08
2.78798e-08
2.78791e-08
2.78784e-08
2.78778e-08
2.78772e-08
2.78766e-08
2.78761e-08
2.78757e-08
2.78752e-08
2.78748e-08
2.78744e-08
2.7874e-08
2.78737e-08
2.78734e-08
2.7873e-08
2.78728e-08
2.78725e-08
2.78722e-08
2.7872e-08
2.78717e-08
2.78715e-08
2.78713e-08
2.78711e-08
2.78709e-08
2.78707e-08
2.78705e-08
2.78703e-08
2.78702e-08
2.787e-08
2.78699e-08
2.78697e-08
2.78696e-08
2.78695e-08
2.78693e-08
2.78692e-08
2.78691e-08
2.7869e-08
2.78689e-08
2.78688e-08
2.78687e-08
2.78686e-08
2.78685e-08
2.78684e-08
2.78683e-08
2.78682e-08
2.78682e-08
2.78681e-08
2.7868e-08
2.78679e-08
2.78679e-08
2.78678e-08
2.78678e-08
2.78677e-08
2.78676e-08
2.78676e-08
2.78675e-08
2.78675e-08
2.78674e-08
2.78674e-08
2.78674e-08
2.78673e-08
2.78673e-08
2.78672e-08
2.78672e-08
2.78672e-08
2.78671e-08
2.78671e-08
2.78671e-08
2.78671e-08
2.7867e-08
2.7867e-08
2.7867e-08
2.7867e-08
2.78669e-08
2.78669e-08
2.78669e-08
2.78669e-08
2.78669e-08
2.78669e-08
2.78669e-08
2.78668e-08
2.78668e-08
2.78668e-08
2.78668e-08
2.78668e-08
2.78668e-08
2.78668e-08
2.78668e-08
2.78668e-08
2.78668e-08
2.78668e-08
2.78668e-08
2.78668e-08
2.78668e-08
2.78668e-08
2.78669e-08
2.78669e-08
2.78669e-08
2.78669e-08
2.78669e-08
2.78669e-08
2.78669e-08
2.7867e-08
2.7867e-08
2.7867e-08
2.7867e-08
2.78671e-08
2.78671e-08
2.78671e-08
2.78672e-08
2.78672e-08
2.78672e-08
2.78673e-08
2.78673e-08
2.78674e-08
2.78674e-08
2.78674e-08
2.78675e-08
2.78675e-08
2.78676e-08
2.78677e-08
2.78677e-08
2.78678e-08
2.78678e-08
2.78679e-08
2.7868e-08
2.78681e-08
2.78681e-08
2.78682e-08
2.78683e-08
2.78684e-08
2.78685e-08
2.78686e-08
2.78687e-08
2.78688e-08
2.78689e-08
2.7869e-08
2.78692e-08
2.78693e-08
2.78694e-08
2.78696e-08
2.78697e-08
2.78699e-08
2.78701e-08
2.78703e-08
2.78705e-08
2.78707e-08
2.78709e-08
2.78712e-08
2.78714e-08
2.78717e-08
2.7872e-08
2.78723e-08
2.78727e-08
2.7873e-08
2.78735e-08
2.78739e-08
2.78744e-08
2.78749e-08
2.78756e-08
2.78762e-08
2.7877e-08
2.78779e-08
2.78789e-08
2.78801e-08
2.78814e-08
2.7883e-08
2.78851e-08
2.78875e-08
2.78906e-08
2.78945e-08
2.79003e-08
2.79093e-08
2.79242e-08
2.79657e-08
2.7906e-08
2.8e-08
2.81819e-08
2.80528e-08
2.80063e-08
2.79771e-08
2.79579e-08
2.79443e-08
2.79339e-08
2.79257e-08
2.79191e-08
2.79137e-08
2.79093e-08
2.79055e-08
2.79022e-08
2.78994e-08
2.7897e-08
2.78948e-08
2.78929e-08
2.78912e-08
2.78896e-08
2.78882e-08
2.7887e-08
2.78858e-08
2.78848e-08
2.78838e-08
2.78829e-08
2.78821e-08
2.78813e-08
2.78806e-08
2.78799e-08
2.78793e-08
2.78787e-08
2.78782e-08
2.78777e-08
2.78772e-08
2.78767e-08
2.78763e-08
2.78759e-08
2.78755e-08
2.78752e-08
2.78748e-08
2.78745e-08
2.78742e-08
2.78739e-08
2.78736e-08
2.78734e-08
2.78731e-08
2.78729e-08
2.78727e-08
2.78724e-08
2.78722e-08
2.7872e-08
2.78718e-08
2.78716e-08
2.78715e-08
2.78713e-08
2.78711e-08
2.7871e-08
2.78708e-08
2.78707e-08
2.78706e-08
2.78704e-08
2.78703e-08
2.78702e-08
2.78701e-08
2.787e-08
2.78699e-08
2.78698e-08
2.78697e-08
2.78696e-08
2.78695e-08
2.78694e-08
2.78693e-08
2.78692e-08
2.78691e-08
2.78691e-08
2.7869e-08
2.78689e-08
2.78689e-08
2.78688e-08
2.78687e-08
2.78687e-08
2.78686e-08
2.78686e-08
2.78685e-08
2.78685e-08
2.78684e-08
2.78684e-08
2.78684e-08
2.78683e-08
2.78683e-08
2.78682e-08
2.78682e-08
2.78682e-08
2.78681e-08
2.78681e-08
2.78681e-08
2.78681e-08
2.7868e-08
2.7868e-08
2.7868e-08
2.7868e-08
2.7868e-08
2.7868e-08
2.7868e-08
2.78679e-08
2.78679e-08
2.78679e-08
2.78679e-08
2.78679e-08
2.78679e-08
2.78679e-08
2.78679e-08
2.78679e-08
2.78679e-08
2.78679e-08
2.78679e-08
2.78679e-08
2.7868e-08
2.7868e-08
2.7868e-08
2.7868e-08
2.7868e-08
2.7868e-08
2.78681e-08
2.78681e-08
2.78681e-08
2.78681e-08
2.78682e-08
2.78682e-08
2.78682e-08
2.78683e-08
2.78683e-08
2.78683e-08
2.78684e-08
2.78684e-08
2.78685e-08
2.78685e-08
2.78686e-08
2.78686e-08
2.78687e-08
2.78687e-08
2.78688e-08
2.78689e-08
2.78689e-08
2.7869e-08
2.78691e-08
2.78692e-08
2.78693e-08
2.78693e-08
2.78694e-08
2.78695e-08
2.78696e-08
2.78697e-08
2.78698e-08
2.787e-08
2.78701e-08
2.78702e-08
2.78703e-08
2.78705e-08
2.78706e-08
2.78708e-08
2.7871e-08
2.78711e-08
2.78713e-08
2.78715e-08
2.78717e-08
2.78719e-08
2.78722e-08
2.78724e-08
2.78727e-08
2.78729e-08
2.78732e-08
2.78736e-08
2.78739e-08
2.78743e-08
2.78747e-08
2.78751e-08
2.78755e-08
2.7876e-08
2.78766e-08
2.78772e-08
2.78779e-08
2.78786e-08
2.78794e-08
2.78804e-08
2.78814e-08
2.78827e-08
2.78841e-08
2.78857e-08
2.78877e-08
2.78901e-08
2.78931e-08
2.78967e-08
2.79015e-08
2.79082e-08
2.79188e-08
2.7936e-08
2.79839e-08
2.79144e-08
2.80177e-08
2.82267e-08
2.80815e-08
2.80292e-08
2.79959e-08
2.7974e-08
2.79583e-08
2.79463e-08
2.79368e-08
2.79291e-08
2.79228e-08
2.79176e-08
2.79132e-08
2.79094e-08
2.79061e-08
2.79033e-08
2.79007e-08
2.78985e-08
2.78964e-08
2.78946e-08
2.7893e-08
2.78915e-08
2.78902e-08
2.78889e-08
2.78878e-08
2.78867e-08
2.78858e-08
2.78849e-08
2.7884e-08
2.78832e-08
2.78825e-08
2.78818e-08
2.78812e-08
2.78806e-08
2.788e-08
2.78795e-08
2.7879e-08
2.78785e-08
2.7878e-08
2.78776e-08
2.78772e-08
2.78768e-08
2.78765e-08
2.78761e-08
2.78758e-08
2.78755e-08
2.78752e-08
2.78749e-08
2.78746e-08
2.78744e-08
2.78741e-08
2.78739e-08
2.78737e-08
2.78734e-08
2.78732e-08
2.7873e-08
2.78728e-08
2.78727e-08
2.78725e-08
2.78723e-08
2.78722e-08
2.7872e-08
2.78719e-08
2.78717e-08
2.78716e-08
2.78715e-08
2.78713e-08
2.78712e-08
2.78711e-08
2.7871e-08
2.78709e-08
2.78708e-08
2.78707e-08
2.78706e-08
2.78705e-08
2.78704e-08
2.78703e-08
2.78702e-08
2.78702e-08
2.78701e-08
2.787e-08
2.78699e-08
2.78699e-08
2.78698e-08
2.78698e-08
2.78697e-08
2.78696e-08
2.78696e-08
2.78695e-08
2.78695e-08
2.78695e-08
2.78694e-08
2.78694e-08
2.78693e-08
2.78693e-08
2.78693e-08
2.78692e-08
2.78692e-08
2.78692e-08
2.78692e-08
2.78691e-08
2.78691e-08
2.78691e-08
2.78691e-08
2.78691e-08
2.78691e-08
2.7869e-08
2.7869e-08
2.7869e-08
2.7869e-08
2.7869e-08
2.7869e-08
2.7869e-08
2.7869e-08
2.7869e-08
2.7869e-08
2.7869e-08
2.78691e-08
2.78691e-08
2.78691e-08
2.78691e-08
2.78691e-08
2.78691e-08
2.78692e-08
2.78692e-08
2.78692e-08
2.78693e-08
2.78693e-08
2.78693e-08
2.78694e-08
2.78694e-08
2.78694e-08
2.78695e-08
2.78695e-08
2.78696e-08
2.78696e-08
2.78697e-08
2.78698e-08
2.78698e-08
2.78699e-08
2.78699e-08
2.787e-08
2.78701e-08
2.78702e-08
2.78703e-08
2.78703e-08
2.78704e-08
2.78705e-08
2.78706e-08
2.78707e-08
2.78708e-08
2.78709e-08
2.78711e-08
2.78712e-08
2.78713e-08
2.78715e-08
2.78716e-08
2.78718e-08
2.78719e-08
2.78721e-08
2.78723e-08
2.78724e-08
2.78726e-08
2.78728e-08
2.78731e-08
2.78733e-08
2.78735e-08
2.78738e-08
2.78741e-08
2.78743e-08
2.78747e-08
2.7875e-08
2.78753e-08
2.78757e-08
2.78761e-08
2.78765e-08
2.7877e-08
2.78775e-08
2.7878e-08
2.78786e-08
2.78793e-08
2.788e-08
2.78808e-08
2.78817e-08
2.78826e-08
2.78837e-08
2.7885e-08
2.78864e-08
2.78881e-08
2.789e-08
2.78923e-08
2.78951e-08
2.78986e-08
2.79028e-08
2.79083e-08
2.7916e-08
2.7928e-08
2.79474e-08
2.80012e-08
2.79213e-08
2.8039e-08
2.82677e-08
2.8109e-08
2.80513e-08
2.80142e-08
2.79897e-08
2.79721e-08
2.79585e-08
2.79477e-08
2.7939e-08
2.79319e-08
2.79259e-08
2.79209e-08
2.79165e-08
2.79128e-08
2.79095e-08
2.79066e-08
2.7904e-08
2.79017e-08
2.78997e-08
2.78978e-08
2.78961e-08
2.78945e-08
2.78931e-08
2.78918e-08
2.78906e-08
2.78894e-08
2.78884e-08
2.78874e-08
2.78865e-08
2.78857e-08
2.78849e-08
2.78842e-08
2.78835e-08
2.78828e-08
2.78822e-08
2.78816e-08
2.78811e-08
2.78806e-08
2.78801e-08
2.78796e-08
2.78792e-08
2.78788e-08
2.78784e-08
2.7878e-08
2.78776e-08
2.78773e-08
2.78769e-08
2.78766e-08
2.78763e-08
2.7876e-08
2.78758e-08
2.78755e-08
2.78753e-08
2.7875e-08
2.78748e-08
2.78746e-08
2.78744e-08
2.78742e-08
2.7874e-08
2.78738e-08
2.78736e-08
2.78734e-08
2.78733e-08
2.78731e-08
2.7873e-08
2.78728e-08
2.78727e-08
2.78725e-08
2.78724e-08
2.78723e-08
2.78722e-08
2.78721e-08
2.78719e-08
2.78718e-08
2.78717e-08
2.78716e-08
2.78715e-08
2.78715e-08
2.78714e-08
2.78713e-08
2.78712e-08
2.78711e-08
2.78711e-08
2.7871e-08
2.78709e-08
2.78709e-08
2.78708e-08
2.78707e-08
2.78707e-08
2.78706e-08
2.78706e-08
2.78706e-08
2.78705e-08
2.78705e-08
2.78704e-08
2.78704e-08
2.78704e-08
2.78703e-08
2.78703e-08
2.78703e-08
2.78703e-08
2.78702e-08
2.78702e-08
2.78702e-08
2.78702e-08
2.78702e-08
2.78702e-08
2.78702e-08
2.78702e-08
2.78701e-08
2.78701e-08
2.78701e-08
2.78702e-08
2.78702e-08
2.78702e-08
2.78702e-08
2.78702e-08
2.78702e-08
2.78702e-08
2.78702e-08
2.78703e-08
2.78703e-08
2.78703e-08
2.78703e-08
2.78704e-08
2.78704e-08
2.78705e-08
2.78705e-08
2.78705e-08
2.78706e-08
2.78706e-08
2.78707e-08
2.78707e-08
2.78708e-08
2.78709e-08
2.78709e-08
2.7871e-08
2.78711e-08
2.78711e-08
2.78712e-08
2.78713e-08
2.78714e-08
2.78715e-08
2.78716e-08
2.78717e-08
2.78718e-08
2.78719e-08
2.7872e-08
2.78721e-08
2.78722e-08
2.78724e-08
2.78725e-08
2.78727e-08
2.78728e-08
2.7873e-08
2.78731e-08
2.78733e-08
2.78735e-08
2.78737e-08
2.78739e-08
2.78741e-08
2.78743e-08
2.78746e-08
2.78748e-08
2.78751e-08
2.78754e-08
2.78757e-08
2.7876e-08
2.78763e-08
2.78767e-08
2.7877e-08
2.78774e-08
2.78779e-08
2.78783e-08
2.78788e-08
2.78794e-08
2.78799e-08
2.78806e-08
2.78813e-08
2.7882e-08
2.78828e-08
2.78837e-08
2.78847e-08
2.78859e-08
2.78871e-08
2.78885e-08
2.78902e-08
2.78921e-08
2.78943e-08
2.78969e-08
2.79001e-08
2.7904e-08
2.79089e-08
2.79151e-08
2.79237e-08
2.7937e-08
2.79584e-08
2.80172e-08
2.79296e-08
2.8061e-08
2.83075e-08
2.81351e-08
2.80727e-08
2.80321e-08
2.80051e-08
2.79856e-08
2.79705e-08
2.79585e-08
2.79487e-08
2.79408e-08
2.79342e-08
2.79285e-08
2.79236e-08
2.79194e-08
2.79158e-08
2.79125e-08
2.79096e-08
2.7907e-08
2.79047e-08
2.79026e-08
2.79006e-08
2.78989e-08
2.78973e-08
2.78958e-08
2.78944e-08
2.78931e-08
2.7892e-08
2.78909e-08
2.78898e-08
2.78889e-08
2.7888e-08
2.78872e-08
2.78864e-08
2.78857e-08
2.7885e-08
2.78843e-08
2.78837e-08
2.78831e-08
2.78825e-08
2.7882e-08
2.78815e-08
2.7881e-08
2.78806e-08
2.78802e-08
2.78798e-08
2.78794e-08
2.7879e-08
2.78786e-08
2.78783e-08
2.7878e-08
2.78777e-08
2.78774e-08
2.78771e-08
2.78768e-08
2.78765e-08
2.78763e-08
2.78761e-08
2.78758e-08
2.78756e-08
2.78754e-08
2.78752e-08
2.7875e-08
2.78748e-08
2.78746e-08
2.78745e-08
2.78743e-08
2.78741e-08
2.7874e-08
2.78739e-08
2.78737e-08
2.78736e-08
2.78734e-08
2.78733e-08
2.78732e-08
2.78731e-08
2.7873e-08
2.78729e-08
2.78728e-08
2.78727e-08
2.78726e-08
2.78725e-08
2.78724e-08
2.78723e-08
2.78722e-08
2.78722e-08
2.78721e-08
2.7872e-08
2.7872e-08
2.78719e-08
2.78718e-08
2.78718e-08
2.78717e-08
2.78717e-08
2.78716e-08
2.78716e-08
2.78716e-08
2.78715e-08
2.78715e-08
2.78715e-08
2.78714e-08
2.78714e-08
2.78714e-08
2.78714e-08
2.78713e-08
2.78713e-08
2.78713e-08
2.78713e-08
2.78713e-08
2.78713e-08
2.78713e-08
2.78713e-08
2.78713e-08
2.78713e-08
2.78713e-08
2.78713e-08
2.78713e-08
2.78713e-08
2.78713e-08
2.78714e-08
2.78714e-08
2.78714e-08
2.78714e-08
2.78715e-08
2.78715e-08
2.78715e-08
2.78716e-08
2.78716e-08
2.78717e-08
2.78717e-08
2.78718e-08
2.78718e-08
2.78719e-08
2.7872e-08
2.7872e-08
2.78721e-08
2.78722e-08
2.78722e-08
2.78723e-08
2.78724e-08
2.78725e-08
2.78726e-08
2.78727e-08
2.78728e-08
2.78729e-08
2.7873e-08
2.78731e-08
2.78733e-08
2.78734e-08
2.78735e-08
2.78737e-08
2.78738e-08
2.7874e-08
2.78741e-08
2.78743e-08
2.78745e-08
2.78747e-08
2.78749e-08
2.78751e-08
2.78753e-08
2.78755e-08
2.78758e-08
2.7876e-08
2.78763e-08
2.78766e-08
2.78769e-08
2.78772e-08
2.78775e-08
2.78779e-08
2.78783e-08
2.78787e-08
2.78791e-08
2.78796e-08
2.78801e-08
2.78806e-08
2.78811e-08
2.78817e-08
2.78824e-08
2.78831e-08
2.78839e-08
2.78847e-08
2.78857e-08
2.78867e-08
2.78878e-08
2.78891e-08
2.78905e-08
2.78921e-08
2.7894e-08
2.78961e-08
2.78986e-08
2.79015e-08
2.79051e-08
2.79095e-08
2.79149e-08
2.79217e-08
2.79312e-08
2.79458e-08
2.7969e-08
2.80328e-08
2.79381e-08
2.80836e-08
2.83453e-08
2.81605e-08
2.80934e-08
2.80496e-08
2.80203e-08
2.79989e-08
2.79823e-08
2.79691e-08
2.79584e-08
2.79497e-08
2.79424e-08
2.79361e-08
2.79307e-08
2.7926e-08
2.7922e-08
2.79184e-08
2.79151e-08
2.79123e-08
2.79097e-08
2.79073e-08
2.79052e-08
2.79032e-08
2.79014e-08
2.78998e-08
2.78982e-08
2.78968e-08
2.78955e-08
2.78943e-08
2.78932e-08
2.78921e-08
2.78911e-08
2.78902e-08
2.78893e-08
2.78885e-08
2.78877e-08
2.7887e-08
2.78863e-08
2.78857e-08
2.7885e-08
2.78844e-08
2.78839e-08
2.78834e-08
2.78828e-08
2.78824e-08
2.78819e-08
2.78815e-08
2.78811e-08
2.78807e-08
2.78803e-08
2.78799e-08
2.78796e-08
2.78792e-08
2.78789e-08
2.78786e-08
2.78783e-08
2.7878e-08
2.78778e-08
2.78775e-08
2.78773e-08
2.7877e-08
2.78768e-08
2.78766e-08
2.78764e-08
2.78762e-08
2.7876e-08
2.78758e-08
2.78756e-08
2.78755e-08
2.78753e-08
2.78751e-08
2.7875e-08
2.78749e-08
2.78747e-08
2.78746e-08
2.78744e-08
2.78743e-08
2.78742e-08
2.78741e-08
2.7874e-08
2.78739e-08
2.78738e-08
2.78737e-08
2.78736e-08
2.78735e-08
2.78734e-08
2.78733e-08
2.78733e-08
2.78732e-08
2.78731e-08
2.78731e-08
2.7873e-08
2.78729e-08
2.78729e-08
2.78728e-08
2.78728e-08
2.78727e-08
2.78727e-08
2.78727e-08
2.78726e-08
2.78726e-08
2.78726e-08
2.78725e-08
2.78725e-08
2.78725e-08
2.78725e-08
2.78725e-08
2.78724e-08
2.78724e-08
2.78724e-08
2.78724e-08
2.78724e-08
2.78724e-08
2.78724e-08
2.78724e-08
2.78725e-08
2.78725e-08
2.78725e-08
2.78725e-08
2.78725e-08
2.78725e-08
2.78726e-08
2.78726e-08
2.78726e-08
2.78727e-08
2.78727e-08
2.78728e-08
2.78728e-08
2.78729e-08
2.78729e-08
2.7873e-08
2.7873e-08
2.78731e-08
2.78732e-08
2.78733e-08
2.78733e-08
2.78734e-08
2.78735e-08
2.78736e-08
2.78737e-08
2.78738e-08
2.78739e-08
2.7874e-08
2.78741e-08
2.78742e-08
2.78744e-08
2.78745e-08
2.78746e-08
2.78748e-08
2.78749e-08
2.78751e-08
2.78753e-08
2.78754e-08
2.78756e-08
2.78758e-08
2.7876e-08
2.78762e-08
2.78765e-08
2.78767e-08
2.78769e-08
2.78772e-08
2.78775e-08
2.78778e-08
2.78781e-08
2.78784e-08
2.78787e-08
2.78791e-08
2.78794e-08
2.78798e-08
2.78803e-08
2.78807e-08
2.78812e-08
2.78817e-08
2.78823e-08
2.78828e-08
2.78835e-08
2.78841e-08
2.78849e-08
2.78857e-08
2.78865e-08
2.78875e-08
2.78885e-08
2.78896e-08
2.78909e-08
2.78923e-08
2.78939e-08
2.78957e-08
2.78977e-08
2.79001e-08
2.79029e-08
2.79061e-08
2.791e-08
2.79149e-08
2.79208e-08
2.79283e-08
2.79387e-08
2.79543e-08
2.79793e-08
2.80476e-08
2.79469e-08
2.81013e-08
2.83818e-08
2.81849e-08
2.81136e-08
2.80666e-08
2.80351e-08
2.8012e-08
2.7994e-08
2.79796e-08
2.7968e-08
2.79585e-08
2.79505e-08
2.79436e-08
2.79377e-08
2.79326e-08
2.79282e-08
2.79242e-08
2.79207e-08
2.79175e-08
2.79147e-08
2.79121e-08
2.79097e-08
2.79076e-08
2.79056e-08
2.79038e-08
2.79021e-08
2.79006e-08
2.78991e-08
2.78978e-08
2.78965e-08
2.78953e-08
2.78943e-08
2.78932e-08
2.78923e-08
2.78914e-08
2.78905e-08
2.78897e-08
2.78889e-08
2.78882e-08
2.78875e-08
2.78869e-08
2.78863e-08
2.78857e-08
2.78851e-08
2.78846e-08
2.78841e-08
2.78836e-08
2.78831e-08
2.78827e-08
2.78823e-08
2.78819e-08
2.78815e-08
2.78811e-08
2.78808e-08
2.78804e-08
2.78801e-08
2.78798e-08
2.78795e-08
2.78792e-08
2.7879e-08
2.78787e-08
2.78784e-08
2.78782e-08
2.7878e-08
2.78778e-08
2.78775e-08
2.78773e-08
2.78771e-08
2.7877e-08
2.78768e-08
2.78766e-08
2.78764e-08
2.78763e-08
2.78761e-08
2.7876e-08
2.78758e-08
2.78757e-08
2.78756e-08
2.78754e-08
2.78753e-08
2.78752e-08
2.78751e-08
2.7875e-08
2.78749e-08
2.78748e-08
2.78747e-08
2.78746e-08
2.78745e-08
2.78744e-08
2.78744e-08
2.78743e-08
2.78742e-08
2.78742e-08
2.78741e-08
2.7874e-08
2.7874e-08
2.78739e-08
2.78739e-08
2.78738e-08
2.78738e-08
2.78738e-08
2.78737e-08
2.78737e-08
2.78737e-08
2.78737e-08
2.78736e-08
2.78736e-08
2.78736e-08
2.78736e-08
2.78736e-08
2.78736e-08
2.78736e-08
2.78736e-08
2.78736e-08
2.78736e-08
2.78736e-08
2.78736e-08
2.78736e-08
2.78737e-08
2.78737e-08
2.78737e-08
2.78738e-08
2.78738e-08
2.78738e-08
2.78739e-08
2.78739e-08
2.7874e-08
2.7874e-08
2.78741e-08
2.78741e-08
2.78742e-08
2.78743e-08
2.78744e-08
2.78744e-08
2.78745e-08
2.78746e-08
2.78747e-08
2.78748e-08
2.78749e-08
2.7875e-08
2.78751e-08
2.78752e-08
2.78753e-08
2.78755e-08
2.78756e-08
2.78757e-08
2.78759e-08
2.7876e-08
2.78762e-08
2.78764e-08
2.78766e-08
2.78767e-08
2.78769e-08
2.78771e-08
2.78773e-08
2.78776e-08
2.78778e-08
2.78781e-08
2.78783e-08
2.78786e-08
2.78789e-08
2.78792e-08
2.78795e-08
2.78798e-08
2.78802e-08
2.78806e-08
2.78809e-08
2.78814e-08
2.78818e-08
2.78823e-08
2.78828e-08
2.78833e-08
2.78839e-08
2.78845e-08
2.78851e-08
2.78858e-08
2.78866e-08
2.78874e-08
2.78882e-08
2.78892e-08
2.78902e-08
2.78914e-08
2.78926e-08
2.7894e-08
2.78956e-08
2.78973e-08
2.78992e-08
2.79015e-08
2.79041e-08
2.79071e-08
2.79107e-08
2.7915e-08
2.79202e-08
2.79267e-08
2.79349e-08
2.7946e-08
2.79628e-08
2.79893e-08
2.80619e-08
2.79538e-08
2.81218e-08
2.84153e-08
2.82085e-08
2.81332e-08
2.80833e-08
2.80497e-08
2.80249e-08
2.80055e-08
2.799e-08
2.79775e-08
2.79672e-08
2.79585e-08
2.79511e-08
2.79447e-08
2.79392e-08
2.79344e-08
2.79301e-08
2.79262e-08
2.79228e-08
2.79197e-08
2.79169e-08
2.79143e-08
2.79119e-08
2.79098e-08
2.79078e-08
2.7906e-08
2.79043e-08
2.79027e-08
2.79012e-08
2.78999e-08
2.78986e-08
2.78974e-08
2.78963e-08
2.78952e-08
2.78942e-08
2.78933e-08
2.78924e-08
2.78916e-08
2.78908e-08
2.789e-08
2.78893e-08
2.78886e-08
2.7888e-08
2.78874e-08
2.78868e-08
2.78863e-08
2.78857e-08
2.78852e-08
2.78848e-08
2.78843e-08
2.78838e-08
2.78834e-08
2.7883e-08
2.78826e-08
2.78823e-08
2.78819e-08
2.78816e-08
2.78813e-08
2.78809e-08
2.78806e-08
2.78804e-08
2.78801e-08
2.78798e-08
2.78796e-08
2.78793e-08
2.78791e-08
2.78789e-08
2.78787e-08
2.78785e-08
2.78782e-08
2.78781e-08
2.78779e-08
2.78777e-08
2.78775e-08
2.78774e-08
2.78772e-08
2.78771e-08
2.78769e-08
2.78768e-08
2.78766e-08
2.78765e-08
2.78764e-08
2.78763e-08
2.78762e-08
2.78761e-08
2.7876e-08
2.78759e-08
2.78758e-08
2.78757e-08
2.78756e-08
2.78755e-08
2.78754e-08
2.78754e-08
2.78753e-08
2.78752e-08
2.78752e-08
2.78751e-08
2.78751e-08
2.7875e-08
2.7875e-08
2.7875e-08
2.78749e-08
2.78749e-08
2.78749e-08
2.78748e-08
2.78748e-08
2.78748e-08
2.78748e-08
2.78748e-08
2.78748e-08
2.78748e-08
2.78748e-08
2.78748e-08
2.78748e-08
2.78748e-08
2.78748e-08
2.78748e-08
2.78748e-08
2.78748e-08
2.78749e-08
2.78749e-08
2.78749e-08
2.7875e-08
2.7875e-08
2.78751e-08
2.78751e-08
2.78752e-08
2.78752e-08
2.78753e-08
2.78754e-08
2.78754e-08
2.78755e-08
2.78756e-08
2.78757e-08
2.78758e-08
2.78759e-08
2.7876e-08
2.78761e-08
2.78762e-08
2.78763e-08
2.78764e-08
2.78766e-08
2.78767e-08
2.78768e-08
2.7877e-08
2.78771e-08
2.78773e-08
2.78775e-08
2.78776e-08
2.78778e-08
2.7878e-08
2.78782e-08
2.78784e-08
2.78787e-08
2.78789e-08
2.78791e-08
2.78794e-08
2.78797e-08
2.788e-08
2.78802e-08
2.78806e-08
2.78809e-08
2.78812e-08
2.78816e-08
2.7882e-08
2.78824e-08
2.78828e-08
2.78833e-08
2.78838e-08
2.78843e-08
2.78848e-08
2.78854e-08
2.7886e-08
2.78867e-08
2.78874e-08
2.78882e-08
2.7889e-08
2.78899e-08
2.78908e-08
2.78919e-08
2.7893e-08
2.78942e-08
2.78956e-08
2.78971e-08
2.78988e-08
2.79007e-08
2.79028e-08
2.79053e-08
2.79081e-08
2.79114e-08
2.79152e-08
2.79199e-08
2.79256e-08
2.79325e-08
2.79413e-08
2.79532e-08
2.7971e-08
2.7999e-08
2.80753e-08
2.79619e-08
2.81435e-08
2.84484e-08
2.82313e-08
2.81524e-08
2.80997e-08
2.8064e-08
2.80376e-08
2.80169e-08
2.80003e-08
2.79869e-08
2.79759e-08
2.79665e-08
2.79586e-08
2.79517e-08
2.79457e-08
2.79405e-08
2.79359e-08
2.79317e-08
2.7928e-08
2.79247e-08
2.79216e-08
2.79188e-08
2.79163e-08
2.7914e-08
2.79118e-08
2.79098e-08
2.7908e-08
2.79063e-08
2.79047e-08
2.79032e-08
2.79018e-08
2.79005e-08
2.78993e-08
2.78982e-08
2.78971e-08
2.78961e-08
2.78951e-08
2.78942e-08
2.78934e-08
2.78926e-08
2.78918e-08
2.78911e-08
2.78904e-08
2.78897e-08
2.78891e-08
2.78885e-08
2.78879e-08
2.78873e-08
2.78868e-08
2.78863e-08
2.78858e-08
2.78854e-08
2.78849e-08
2.78845e-08
2.78841e-08
2.78837e-08
2.78834e-08
2.7883e-08
2.78827e-08
2.78823e-08
2.7882e-08
2.78817e-08
2.78815e-08
2.78812e-08