/*--------------------------------*- C++ -*----------------------------------*\
  =========                 |
  \\      /  F ield         | OpenFOAM: The Open Source CFD Toolbox
   \\    /   O peration     | Website:  https://openfoam.org
    \\  /    A nd           | Version:  8
     \\/     M anipulation  |
\*---------------------------------------------------------------------------*/
FoamFile
{
    version     2.0;
    format      ascii;
    class       volScalarField;
    location    "0.13";
    object      p;
}
// * * * * * * * * * * * * * * * * * * * * * * * * * * * * * * * * * * * * * //

dimensions      [0 2 -2 0 0 0 0];

internalField   nonuniform List<scalar> 
112642
(
-1.92118
-1.88305
-1.84609
-1.81007
-1.77486
-1.74006
-1.70546
-1.67107
-1.6369
-1.60298
-1.56932
-1.53591
-1.50275
-1.46983
-1.43715
-1.40467
-1.37242
-1.34038
-1.30855
-1.27694
-1.24552
-1.21431
-1.18331
-1.15251
-1.1219
-1.0915
-1.06129
-1.03128
-1.00146
-0.971838
-0.942413
-0.913175
-0.884122
-0.85526
-0.826575
-0.798074
-0.769754
-0.741604
-0.713636
-0.685844
-0.658226
-0.630776
-0.60349
-0.576368
-0.549413
-0.52262
-0.495991
-0.469519
-0.443197
-0.417031
-0.39102
-0.365161
-0.339449
-0.313888
-0.288471
-0.263197
-0.238061
-0.213068
-0.188205
-0.163476
-0.138883
-0.114412
-0.0900665
-0.0658459
-0.0417478
-0.0177699
0.00609213
0.0298328
0.0534593
0.0769742
0.100375
0.123667
0.146851
0.169929
0.192901
0.215768
0.238539
0.261202
0.28377
0.306239
0.328619
0.350901
0.373091
0.395188
0.417201
0.43913
0.460962
0.482718
0.504389
0.525979
0.547489
0.568915
0.590268
0.611544
0.632746
0.65387
0.674924
0.695909
0.716822
0.737666
0.758443
0.779151
0.799793
0.820371
0.840883
0.861328
0.881715
0.90204
0.922304
0.942504
0.962652
0.982739
1.00277
1.02275
1.04266
1.06252
1.08233
1.10208
1.12178
1.14143
1.16103
1.18057
1.20006
1.21951
1.23891
1.25825
1.27756
1.29681
1.31603
1.33519
1.35431
1.37339
1.39242
1.4114
1.43035
1.44925
1.4681
1.48692
1.50569
1.52442
1.5431
1.56174
1.58035
1.5989
1.61742
1.63589
1.65432
1.67271
1.69105
1.70935
1.72761
1.74582
1.76399
1.7821
1.80017
1.8182
1.83618
1.85411
1.87199
1.88981
1.90758
1.9253
1.94296
1.96057
1.97812
1.9956
2.01303
2.03038
2.04767
2.06488
2.08202
2.09909
2.11608
2.13299
2.1498
2.16652
2.18315
2.19968
2.2161
2.23241
2.24861
2.26469
2.28064
2.29646
2.31215
2.32769
2.34308
2.35832
2.3734
2.38832
2.40306
2.41761
2.43195
2.44606
2.4599
2.47351
2.48703
2.50073
2.51465
2.52884
-1.94396
-1.90557
-1.86822
-1.83183
-1.79642
-1.7615
-1.72685
-1.69242
-1.65819
-1.62417
-1.59039
-1.55686
-1.52357
-1.4905
-1.45767
-1.42506
-1.39266
-1.36047
-1.32848
-1.29669
-1.26512
-1.23373
-1.20255
-1.17156
-1.14077
-1.11017
-1.07977
-1.04954
-1.01952
-0.989695
-0.960044
-0.930587
-0.90131
-0.872223
-0.843311
-0.814575
-0.786019
-0.757635
-0.729425
-0.701389
-0.67352
-0.645827
-0.618294
-0.590922
-0.56371
-0.536665
-0.509779
-0.483049
-0.456471
-0.430045
-0.403771
-0.37765
-0.351676
-0.32585
-0.300163
-0.274622
-0.249221
-0.223957
-0.198826
-0.173831
-0.148965
-0.124229
-0.0996163
-0.0751293
-0.0507658
-0.026518
-0.00239507
0.0216122
0.0455038
0.0692853
0.0929498
0.116507
0.139954
0.163295
0.186529
0.209661
0.23269
0.255617
0.278444
0.301177
0.323812
0.346354
0.368801
0.391158
0.413425
0.435606
0.457695
0.479702
0.501625
0.523465
0.545222
0.5669
0.588497
0.610021
0.631465
0.652834
0.67413
0.695352
0.716507
0.737584
0.758601
0.779539
0.800417
0.821223
0.841963
0.862639
0.883249
0.903799
0.924284
0.944708
0.96507
0.985374
1.00562
1.02581
1.04593
1.06601
1.08602
1.10598
1.12588
1.14573
1.16553
1.18527
1.20496
1.2246
1.24419
1.26373
1.28321
1.30266
1.32205
1.34139
1.36068
1.37993
1.39913
1.41829
1.43739
1.45645
1.47547
1.49443
1.51336
1.53223
1.55106
1.56985
1.58859
1.60728
1.62593
1.64453
1.66308
1.68159
1.70005
1.71846
1.73683
1.75515
1.77342
1.79164
1.8098
1.82792
1.84599
1.864
1.88195
1.89985
1.91769
1.93547
1.95319
1.97085
1.98845
2.00598
2.02344
2.04082
2.05814
2.07537
2.09254
2.10961
2.12659
2.1435
2.1603
2.17701
2.19361
2.21011
2.22649
2.24276
2.2589
2.27492
2.29081
2.30655
2.32215
2.3376
2.3529
2.36803
2.383
2.39779
2.41239
2.42679
2.44095
2.45485
2.46852
2.482
2.49547
2.50921
2.52316
2.53729
-1.96681
-1.92809
-1.89029
-1.85348
-1.81772
-1.78258
-1.74787
-1.71337
-1.67906
-1.64496
-1.61106
-1.5774
-1.54397
-1.51077
-1.4778
-1.44504
-1.41249
-1.38016
-1.34801
-1.31608
-1.28432
-1.25278
-1.22141
-1.19025
-1.15927
-1.12849
-1.0979
-1.06748
-1.03726
-1.00722
-0.977362
-0.947691
-0.918201
-0.888891
-0.859754
-0.830796
-0.80201
-0.773398
-0.744954
-0.716677
-0.688572
-0.660635
-0.632863
-0.605245
-0.57779
-0.550491
-0.523355
-0.496371
-0.469545
-0.442863
-0.416337
-0.389953
-0.363722
-0.337632
-0.311687
-0.285885
-0.260219
-0.23469
-0.209297
-0.184036
-0.158909
-0.133905
-0.10903
-0.0842801
-0.0596507
-0.0351444
-0.0107558
0.0135154
0.037668
0.0617107
0.0856402
0.109454
0.133163
0.156766
0.180262
0.203651
0.22694
0.250127
0.273213
0.296202
0.319095
0.341895
0.364594
0.387207
0.409726
0.432162
0.454503
0.476759
0.498933
0.521018
0.543027
0.564947
0.586792
0.608557
0.630243
0.651853
0.673389
0.694849
0.71624
0.737553
0.758801
0.779973
0.801079
0.822114
0.843083
0.863982
0.884816
0.905585
0.926291
0.946929
0.967511
0.988024
1.00848
1.02888
1.04921
1.06949
1.08971
1.10987
1.12997
1.15002
1.17001
1.18995
1.20983
1.22966
1.24944
1.26916
1.28883
1.30845
1.32802
1.34753
1.36699
1.38641
1.40577
1.42509
1.44435
1.46356
1.48273
1.50185
1.52091
1.53993
1.5589
1.57782
1.59669
1.61551
1.63428
1.653
1.67168
1.6903
1.70887
1.72739
1.74586
1.76428
1.78264
1.80095
1.8192
1.83741
1.85555
1.87364
1.89166
1.90962
1.92752
1.94536
1.96313
1.98084
1.99847
2.01604
2.03353
2.05094
2.06827
2.08552
2.10269
2.11976
2.13675
2.15364
2.17043
2.1871
2.20368
2.22014
2.23648
2.2527
2.26879
2.28474
2.30055
2.31622
2.33174
2.3471
2.36229
2.37732
2.39218
2.40684
2.42131
2.43554
2.44953
2.46327
2.47677
2.49021
2.5037
2.51752
2.53146
2.54545
-1.9898
-1.95065
-1.91252
-1.87517
-1.83897
-1.80357
-1.76869
-1.7341
-1.69971
-1.66551
-1.63151
-1.59773
-1.56417
-1.53084
-1.49772
-1.46483
-1.43214
-1.39965
-1.36736
-1.33526
-1.30336
-1.27164
-1.24011
-1.20878
-1.17763
-1.14666
-1.11588
-1.08527
-1.05485
-1.02461
-0.994551
-0.964676
-0.934975
-0.905441
-0.87609
-0.846917
-0.817904
-0.789066
-0.760395
-0.731886
-0.703545
-0.675369
-0.647353
-0.619501
-0.591799
-0.564256
-0.536871
-0.509645
-0.482562
-0.455631
-0.428848
-0.402214
-0.375721
-0.349375
-0.323178
-0.297112
-0.271183
-0.245396
-0.219739
-0.194217
-0.168826
-0.14356
-0.118423
-0.0934107
-0.0685169
-0.0437492
-0.0190952
0.00543577
0.0298545
0.0541554
0.0783468
0.102427
0.126394
0.15026
0.174018
0.197666
0.221216
0.244663
0.268006
0.291257
0.314405
0.337461
0.360417
0.383287
0.406061
0.428747
0.451341
0.47385
0.49627
0.518608
0.540862
0.56303
0.58512
0.607128
0.629058
0.65091
0.672685
0.694384
0.716009
0.73756
0.75904
0.780446
0.801781
0.823045
0.84424
0.865364
0.886422
0.907412
0.928336
0.949191
0.969986
0.990716
1.01138
1.03198
1.05252
1.07301
1.09343
1.11379
1.13409
1.15433
1.17452
1.19465
1.21472
1.23474
1.2547
1.2746
1.29445
1.31425
1.33399
1.35367
1.37331
1.39288
1.41241
1.43187
1.45129
1.47066
1.48997
1.50923
1.52844
1.5476
1.5667
1.58575
1.60475
1.62369
1.64258
1.66142
1.6802
1.69894
1.71762
1.73624
1.7548
1.77332
1.79177
1.81016
1.8285
1.84678
1.86499
1.88314
1.90123
1.91925
1.93721
1.95509
1.97291
1.99065
2.00832
2.02591
2.04343
2.06086
2.07821
2.09546
2.11263
2.1297
2.14668
2.16355
2.18031
2.19696
2.2135
2.22992
2.24621
2.26237
2.2784
2.29428
2.31002
2.32561
2.34103
2.3563
2.37139
2.38631
2.40105
2.41559
2.4299
2.44398
2.45781
2.4714
2.48481
2.49824
2.51182
2.52574
2.53955
2.55333
-2.01272
-1.97355
-1.93509
-1.89721
-1.86055
-1.82476
-1.78969
-1.75498
-1.72051
-1.68623
-1.65214
-1.61824
-1.58457
-1.5511
-1.51786
-1.48483
-1.452
-1.41937
-1.38693
-1.35468
-1.32262
-1.29075
-1.25906
-1.22755
-1.19623
-1.16508
-1.13411
-1.10331
-1.0727
-1.04226
-1.012
-0.981919
-0.952002
-0.922261
-0.892692
-0.863295
-0.834061
-0.804991
-0.776089
-0.74735
-0.718776
-0.690357
-0.662096
-0.634003
-0.606058
-0.578267
-0.550633
-0.523149
-0.495814
-0.468633
-0.44159
-0.414701
-0.387948
-0.36134
-0.334876
-0.308549
-0.282356
-0.256301
-0.23038
-0.204589
-0.178931
-0.153402
-0.127994
-0.102711
-0.0775525
-0.0525166
-0.0275962
-0.0027924
0.0218913
0.046461
0.0709208
0.09527
0.119506
0.143638
0.16766
0.191579
0.215392
0.239105
0.262717
0.286227
0.309639
0.33296
0.35618
0.379308
0.402341
0.425288
0.44814
0.470906
0.493583
0.516175
0.538682
0.561104
0.583443
0.605703
0.62788
0.649979
0.671999
0.693944
0.715811
0.737602
0.759322
0.780964
0.802535
0.824034
0.845459
0.866815
0.888099
0.909316
0.930462
0.951541
0.972554
0.993501
1.01438
1.0352
1.05595
1.07664
1.09727
1.11783
1.13833
1.15878
1.17916
1.19949
1.21975
1.23996
1.2601
1.28019
1.30022
1.3202
1.34011
1.35997
1.37977
1.39951
1.41919
1.43883
1.4584
1.47792
1.49738
1.51678
1.53613
1.55543
1.57466
1.59384
1.61297
1.63204
1.65105
1.67001
1.6889
1.70774
1.72653
1.74525
1.76391
1.78251
1.80105
1.81953
1.83795
1.8563
1.87458
1.8928
1.91095
1.92903
1.94703
1.96496
1.98282
2.0006
2.0183
2.03592
2.05345
2.07089
2.08825
2.10551
2.12267
2.13974
2.15669
2.17354
2.19028
2.2069
2.22339
2.23976
2.25599
2.27209
2.28805
2.30386
2.31952
2.33501
2.35035
2.36551
2.3805
2.3953
2.40991
2.4243
2.43846
2.45238
2.46604
2.4795
2.49286
2.50634
2.51999
2.53395
2.54758
2.5609
-2.03586
-1.99672
-1.95793
-1.91963
-1.8825
-1.84631
-1.81095
-1.77609
-1.74152
-1.70718
-1.673
-1.63901
-1.60522
-1.57164
-1.53826
-1.5051
-1.47214
-1.43936
-1.40679
-1.3744
-1.34219
-1.31015
-1.2783
-1.24663
-1.21513
-1.1838
-1.15265
-1.12167
-1.09087
-1.06024
-1.02977
-0.999476
-0.969352
-0.939395
-0.909609
-0.879988
-0.850529
-0.821227
-0.792094
-0.763119
-0.734308
-0.70565
-0.677143
-0.6488
-0.62061
-0.592566
-0.564679
-0.536937
-0.509346
-0.481906
-0.454608
-0.427453
-0.400436
-0.373561
-0.346827
-0.320233
-0.293771
-0.267443
-0.241254
-0.215189
-0.189257
-0.163452
-0.13777
-0.112216
-0.0867823
-0.0614701
-0.0362764
-0.0112003
0.013761
0.0386046
0.0633391
0.0879639
0.112476
0.136876
0.161177
0.185365
0.209456
0.233437
0.257322
0.281104
0.304788
0.328375
0.351866
0.37526
0.398563
0.421776
0.444891
0.467923
0.490862
0.513716
0.536482
0.559166
0.581761
0.604278
0.62671
0.649063
0.671335
0.693527
0.715646
0.737684
0.759648
0.781535
0.803349
0.825085
0.846749
0.868341
0.889857
0.911307
0.932681
0.95399
0.975226
0.996396
1.0175
1.03853
1.0595
1.0804
1.10124
1.12201
1.14272
1.16337
1.18396
1.20448
1.22494
1.24534
1.26568
1.28595
1.30617
1.32632
1.34641
1.36644
1.38642
1.40632
1.42618
1.44597
1.4657
1.48537
1.50498
1.52453
1.54402
1.56346
1.58283
1.60215
1.6214
1.64059
1.65973
1.6788
1.69781
1.71676
1.73564
1.75447
1.77322
1.79191
1.81054
1.8291
1.84759
1.86602
1.88437
1.90265
1.92086
1.93899
1.95704
1.97502
1.99291
2.01072
2.02845
2.04609
2.06363
2.08109
2.09845
2.11571
2.13286
2.14991
2.16684
2.18367
2.20037
2.21695
2.2334
2.24971
2.26588
2.28192
2.2978
2.31352
2.32909
2.34449
2.35972
2.37477
2.38965
2.40432
2.41879
2.43303
2.44703
2.46077
2.47428
2.48765
2.501
2.51453
2.52823
2.54212
2.55548
2.56828
-2.05908
-2.01995
-1.9811
-1.94243
-1.90479
-1.86815
-1.83246
-1.79738
-1.76271
-1.72827
-1.69403
-1.65995
-1.62606
-1.59236
-1.55887
-1.52558
-1.49248
-1.45958
-1.42686
-1.39433
-1.36197
-1.32978
-1.29776
-1.26593
-1.23426
-1.20276
-1.17143
-1.14027
-1.10928
-1.07845
-1.04778
-1.01729
-0.986953
-0.956782
-0.926777
-0.896935
-0.867249
-0.837719
-0.808352
-0.779144
-0.750084
-0.721189
-0.692437
-0.663845
-0.635403
-0.607109
-0.57896
-0.550966
-0.523116
-0.495408
-0.467843
-0.440422
-0.413142
-0.385997
-0.35899
-0.332126
-0.305389
-0.27879
-0.252319
-0.225981
-0.199766
-0.173685
-0.147724
-0.121893
-0.0961756
-0.0705841
-0.0451118
-0.0197547
0.00548663
0.030612
0.0556274
0.0805279
0.105323
0.130004
0.154582
0.179051
0.20342
0.227681
0.251842
0.275903
0.299862
0.323725
0.347493
0.371162
0.394737
0.41822
0.441609
0.464911
0.488118
0.511241
0.534272
0.557221
0.580082
0.602857
0.625556
0.648162
0.670696
0.693144
0.715516
0.737807
0.760023
0.782158
0.80422
0.8262
0.848111
0.869938
0.891699
0.91338
0.934991
0.956531
0.977996
0.999393
1.02072
1.04198
1.06316
1.08428
1.10534
1.12632
1.14724
1.1681
1.18889
1.20961
1.23027
1.25087
1.2714
1.29186
1.31227
1.3326
1.35287
1.37308
1.39323
1.4133
1.43332
1.45327
1.47316
1.49299
1.51275
1.53245
1.55209
1.57166
1.59117
1.61062
1.63
1.64931
1.66857
1.68775
1.70688
1.72593
1.74492
1.76384
1.78269
1.80148
1.82019
1.83883
1.8574
1.87589
1.89431
1.91265
1.93091
1.94909
1.96719
1.9852
2.00313
2.02097
2.03872
2.05637
2.07393
2.09139
2.10875
2.126
2.14314
2.16017
2.17708
2.19386
2.21053
2.22706
2.24345
2.2597
2.27581
2.29177
2.30757
2.32321
2.33868
2.35398
2.3691
2.38404
2.39878
2.41332
2.42763
2.44171
2.45554
2.46912
2.48251
2.49583
2.50919
2.52278
2.53648
2.55019
2.56314
2.57537
-2.08205
-2.04325
-2.00441
-1.96551
-1.92744
-1.89031
-1.85419
-1.81885
-1.78402
-1.74948
-1.71516
-1.68101
-1.64704
-1.61324
-1.57963
-1.54622
-1.513
-1.47995
-1.4471
-1.41442
-1.38193
-1.34958
-1.31742
-1.28542
-1.25359
-1.22192
-1.19041
-1.15907
-1.12789
-1.09687
-1.06601
-1.03531
-1.00477
-0.974385
-0.944159
-0.914095
-0.884187
-0.854432
-0.82483
-0.795381
-0.766087
-0.736945
-0.707953
-0.679105
-0.650414
-0.621864
-0.59346
-0.565204
-0.537094
-0.50912
-0.481285
-0.453594
-0.426046
-0.398631
-0.371349
-0.344208
-0.317197
-0.290316
-0.263561
-0.236946
-0.210451
-0.184084
-0.157843
-0.131722
-0.105726
-0.0798481
-0.0540873
-0.0284465
-0.00291882
0.0224924
0.0477914
0.0729804
0.0980583
0.123027
0.14789
0.172645
0.197295
0.221842
0.246287
0.27063
0.294876
0.319017
0.343067
0.367016
0.390868
0.414631
0.438298
0.461874
0.485355
0.508754
0.532056
0.555276
0.578406
0.601451
0.624413
0.647288
0.670082
0.692794
0.715425
0.737974
0.760446
0.782837
0.805149
0.827382
0.849538
0.871614
0.893615
0.91554
0.937389
0.959165
0.980863
1.00249
1.02405
1.04553
1.06694
1.08828
1.10955
1.13076
1.15189
1.17295
1.19395
1.21488
1.23574
1.25654
1.27726
1.29792
1.31851
1.33903
1.35948
1.37987
1.40019
1.42044
1.44062
1.46073
1.48078
1.50077
1.52068
1.54053
1.56031
1.58002
1.59967
1.61924
1.63875
1.65819
1.67756
1.69686
1.71609
1.73525
1.75434
1.77336
1.79231
1.81118
1.82997
1.84869
1.86733
1.88589
1.90436
1.92276
1.94107
1.9593
1.97744
1.99549
2.01345
2.03131
2.04907
2.06674
2.0843
2.10176
2.11911
2.13635
2.15347
2.17047
2.18735
2.2041
2.22071
2.23719
2.25352
2.26971
2.28574
2.30162
2.31733
2.33288
2.34825
2.36344
2.37844
2.39325
2.40786
2.42226
2.43641
2.45032
2.46398
2.47742
2.49071
2.504
2.51741
2.53104
2.54466
2.55807
2.57051
2.58203
-2.10492
-2.06652
-2.02777
-1.9888
-1.95037
-1.91278
-1.87623
-1.84054
-1.80549
-1.77082
-1.73642
-1.7022
-1.66814
-1.63425
-1.60055
-1.56702
-1.53367
-1.50051
-1.46752
-1.43471
-1.40206
-1.36959
-1.33727
-1.30512
-1.27313
-1.24128
-1.2096
-1.17808
-1.14672
-1.11551
-1.08445
-1.05355
-1.02281
-0.992216
-0.961778
-0.931488
-0.901358
-0.871378
-0.841542
-0.81186
-0.782318
-0.752938
-0.723696
-0.694603
-0.665655
-0.636851
-0.608186
-0.579672
-0.551292
-0.523053
-0.494951
-0.466993
-0.439165
-0.411479
-0.383914
-0.356492
-0.3292
-0.302037
-0.275002
-0.2481
-0.221319
-0.194663
-0.168133
-0.141725
-0.115438
-0.0892713
-0.0632206
-0.0372888
-0.0114686
0.0142343
0.0398243
0.0653058
0.0906743
0.115937
0.141089
0.166136
0.191076
0.215914
0.240651
0.26528
0.289817
0.314245
0.33858
0.362818
0.386955
0.411003
0.434952
0.458809
0.482575
0.506248
0.529832
0.553329
0.576734
0.600055
0.623286
0.646435
0.669498
0.692475
0.715373
0.738186
0.76092
0.783571
0.806142
0.828629
0.851037
0.873367
0.895614
0.917787
0.939878
0.961896
0.983834
1.0057
1.02748
1.0492
1.07084
1.09241
1.1139
1.13532
1.15667
1.17795
1.19916
1.22029
1.24136
1.26236
1.28328
1.30413
1.32491
1.34562
1.36625
1.38682
1.40731
1.42773
1.44808
1.46836
1.48857
1.50871
1.52877
1.54877
1.56869
1.58854
1.60832
1.62803
1.64767
1.66723
1.68672
1.70613
1.72547
1.74473
1.76392
1.78303
1.80207
1.82102
1.8399
1.85868
1.87739
1.89602
1.91455
1.933
1.95136
1.96963
1.98781
2.00588
2.02387
2.04175
2.05952
2.0772
2.09476
2.11221
2.12955
2.14677
2.16386
2.18083
2.19767
2.21437
2.23093
2.24735
2.26362
2.27973
2.29569
2.31147
2.32709
2.34253
2.3578
2.37287
2.38775
2.40243
2.41689
2.43112
2.44512
2.45885
2.47235
2.48568
2.49891
2.51222
2.52566
2.53926
2.5527
2.56568
2.57753
2.58827
-2.12751
-2.08961
-2.05118
-2.01222
-1.97362
-1.93558
-1.89859
-1.86249
-1.82716
-1.79233
-1.75783
-1.72352
-1.68939
-1.65543
-1.62162
-1.58798
-1.55453
-1.52124
-1.48813
-1.45519
-1.42241
-1.38979
-1.35733
-1.32502
-1.29287
-1.26087
-1.22902
-1.19732
-1.16578
-1.13439
-1.10313
-1.07204
-1.04109
-1.01029
-0.97964
-0.949128
-0.918773
-0.888565
-0.858497
-0.828578
-0.798801
-0.769174
-0.739684
-0.710341
-0.681145
-0.652076
-0.623159
-0.594372
-0.56573
-0.537219
-0.50885
-0.480613
-0.452513
-0.424543
-0.3967
-0.368991
-0.341414
-0.313969
-0.286644
-0.259448
-0.232379
-0.205431
-0.178608
-0.151903
-0.125324
-0.0988587
-0.0725135
-0.0462861
-0.0201696
0.00583419
0.0317205
0.0574978
0.0831681
0.108725
0.134176
0.159518
0.184758
0.209894
0.234923
0.259853
0.284678
0.309406
0.334032
0.358564
0.382994
0.40733
0.431571
0.455717
0.47977
0.50373
0.527598
0.551378
0.575067
0.598665
0.622178
0.645603
0.668939
0.692194
0.71536
0.738446
0.761446
0.784365
0.807196
0.829948
0.852613
0.875198
0.897702
0.920123
0.942465
0.964728
0.98691
1.00901
1.03104
1.05299
1.07486
1.09666
1.11838
1.14002
1.16159
1.18309
1.20451
1.22586
1.24713
1.26833
1.28945
1.3105
1.33147
1.35236
1.37319
1.39393
1.4146
1.4352
1.45572
1.47616
1.49653
1.51682
1.53704
1.55718
1.57725
1.59724
1.61716
1.63699
1.65676
1.67643
1.69604
1.71557
1.73502
1.75438
1.77366
1.79287
1.81198
1.83102
1.84997
1.86883
1.8876
1.90629
1.92488
1.94338
1.96178
1.98008
1.99829
2.01639
2.0344
2.05229
2.07007
2.08775
2.10531
2.12275
2.14007
2.15726
2.17432
2.19125
2.20804
2.22469
2.24119
2.25754
2.27374
2.28977
2.30564
2.32133
2.33684
2.35218
2.36733
2.38228
2.39702
2.41156
2.42587
2.43993
2.45375
2.46733
2.48069
2.49392
2.50713
2.52046
2.5339
2.54741
2.56053
2.57299
2.58411
2.59402
-2.1498
-2.11244
-2.07452
-2.03577
-1.99703
-1.95872
-1.92127
-1.88476
-1.84909
-1.81403
-1.77937
-1.74499
-1.71079
-1.67674
-1.64286
-1.60913
-1.57556
-1.54217
-1.50894
-1.47586
-1.44295
-1.4102
-1.3776
-1.34514
-1.31284
-1.28068
-1.24867
-1.2168
-1.18507
-1.15349
-1.12206
-1.09077
-1.05961
-1.02861
-0.997753
-0.967023
-0.936441
-0.906003
-0.875712
-0.845555
-0.815547
-0.785665
-0.755931
-0.726339
-0.696881
-0.667557
-0.638373
-0.609325
-0.580414
-0.551632
-0.522987
-0.494472
-0.466089
-0.437838
-0.409719
-0.381718
-0.353852
-0.326113
-0.298498
-0.271006
-0.243643
-0.216396
-0.189275
-0.162274
-0.135389
-0.108623
-0.0819774
-0.0554439
-0.0290287
-0.00272158
0.0234725
0.0495515
0.0755241
0.101386
0.127139
0.152789
0.178332
0.203769
0.229103
0.254334
0.279463
0.304491
0.32942
0.354248
0.378979
0.403613
0.428149
0.452594
0.476938
0.501193
0.525354
0.549422
0.573399
0.597288
0.621083
0.644792
0.668413
0.691945
0.715391
0.738752
0.762026
0.785217
0.80832
0.831336
0.854269
0.877116
0.899877
0.922557
0.945152
0.967665
0.990096
1.01245
1.03471
1.0569
1.07901
1.10104
1.12299
1.14486
1.16666
1.18838
1.21002
1.23158
1.25306
1.27446
1.29579
1.31703
1.3382
1.35929
1.38029
1.40122
1.42207
1.44284
1.46353
1.48414
1.50467
1.52512
1.54549
1.56578
1.58599
1.60612
1.62617
1.64614
1.66602
1.68582
1.70554
1.72518
1.74473
1.76419
1.78357
1.80287
1.82207
1.84118
1.86021
1.87913
1.89797
1.91671
1.93535
1.95389
1.97233
1.99067
2.0089
2.02703
2.04504
2.06294
2.08073
2.09841
2.11595
2.13337
2.15066
2.16782
2.18485
2.20173
2.21847
2.23506
2.2515
2.26778
2.28389
2.29983
2.3156
2.33119
2.3466
2.36182
2.37684
2.39166
2.40626
2.42065
2.43479
2.44869
2.46234
2.47575
2.489
2.50217
2.51537
2.52871
2.54211
2.5554
2.56811
2.57991
2.59021
2.59925
-2.17157
-2.13501
-2.09769
-2.05927
-2.02062
-1.9821
-1.94428
-1.90733
-1.87128
-1.83594
-1.80112
-1.76662
-1.73233
-1.69821
-1.66424
-1.63043
-1.59677
-1.56327
-1.52992
-1.49673
-1.46369
-1.43082
-1.39807
-1.36547
-1.33302
-1.30071
-1.26853
-1.2365
-1.2046
-1.17284
-1.14122
-1.10974
-1.07839
-1.04718
-1.01611
-0.985168
-0.954366
-0.923706
-0.893183
-0.862794
-0.832538
-0.802421
-0.772437
-0.74259
-0.712875
-0.683288
-0.653839
-0.624526
-0.595342
-0.566289
-0.537368
-0.508575
-0.479904
-0.451369
-0.42296
-0.39467
-0.366511
-0.338474
-0.310564
-0.282776
-0.255106
-0.227563
-0.200137
-0.172831
-0.14564
-0.118568
-0.0916108
-0.0647723
-0.0380469
-0.0114305
0.0150714
0.0414641
0.0677445
0.0939175
0.119986
0.145942
0.171796
0.197544
0.223188
0.248727
0.274166
0.299505
0.324739
0.349877
0.37491
0.399852
0.424692
0.449436
0.474086
0.498639
0.523097
0.547465
0.571735
0.595919
0.620005
0.644007
0.667914
0.691735
0.715465
0.739109
0.762663
0.786132
0.809511
0.832802
0.856003
0.87912
0.902145
0.925089
0.947942
0.970713
0.993397
1.016
1.03851
1.06095
1.0833
1.10557
1.12775
1.14986
1.17188
1.19382
1.21568
1.23746
1.25915
1.28076
1.3023
1.32374
1.3451
1.36638
1.38758
1.40869
1.42972
1.45066
1.47152
1.4923
1.51299
1.5336
1.55412
1.57456
1.59491
1.61518
1.63536
1.65546
1.67547
1.69539
1.71522
1.73497
1.75462
1.77418
1.79365
1.81303
1.83231
1.8515
1.87059
1.88959
1.90848
1.92727
1.94596
1.96454
1.98302
2.00138
2.01964
2.03778
2.0558
2.0737
2.09149
2.10915
2.12668
2.14407
2.16134
2.17846
2.19544
2.21227
2.22895
2.24547
2.26183
2.27803
2.29405
2.3099
2.32557
2.34105
2.35634
2.37143
2.38632
2.401
2.41546
2.42967
2.44365
2.45738
2.47086
2.48415
2.4973
2.51043
2.52363
2.53695
2.55021
2.56318
2.57533
2.58638
2.59581
2.60393
-2.19296
-2.15722
-2.12057
-2.08264
-2.04426
-2.00566
-1.96757
-1.93021
-1.89377
-1.8581
-1.82305
-1.78839
-1.75402
-1.71983
-1.6858
-1.6519
-1.61815
-1.58454
-1.55109
-1.51779
-1.48464
-1.45162
-1.41875
-1.38602
-1.35342
-1.32096
-1.28863
-1.25643
-1.22437
-1.19243
-1.16063
-1.12896
-1.09741
-1.066
-1.03472
-1.00357
-0.972555
-0.941672
-0.910916
-0.88029
-0.849798
-0.819435
-0.789205
-0.759104
-0.729128
-0.699283
-0.669572
-0.639984
-0.610532
-0.581198
-0.551999
-0.522918
-0.493971
-0.465141
-0.43644
-0.407858
-0.379399
-0.351065
-0.322855
-0.294759
-0.266786
-0.238935
-0.211198
-0.183581
-0.156083
-0.1287
-0.101428
-0.0742715
-0.0472316
-0.0203042
0.00651797
0.0332267
0.0598264
0.086317
0.1127
0.138977
0.165149
0.191212
0.217175
0.243033
0.268785
0.29444
0.319988
0.345441
0.37079
0.39604
0.421194
0.446246
0.471204
0.496067
0.520828
0.545504
0.570075
0.594559
0.618948
0.643245
0.667447
0.691563
0.715583
0.739517
0.763358
0.787113
0.810772
0.834345
0.857821
0.881212
0.90451
0.927721
0.950838
0.973875
0.996815
1.01967
1.04244
1.06512
1.08772
1.11023
1.13265
1.155
1.17725
1.19942
1.2215
1.2435
1.26541
1.28723
1.30897
1.33062
1.35219
1.37366
1.39504
1.41634
1.43755
1.45867
1.4797
1.50065
1.5215
1.54227
1.56294
1.58353
1.60403
1.62443
1.64474
1.66497
1.6851
1.70513
1.72508
1.74493
1.76468
1.78434
1.8039
1.82336
1.84272
1.86199
1.88114
1.9002
1.91914
1.93798
1.95672
1.97533
1.99384
2.01223
2.0305
2.04865
2.06667
2.08457
2.10235
2.11998
2.13749
2.15486
2.17208
2.18916
2.20609
2.22286
2.23947
2.25592
2.2722
2.28831
2.30424
2.31998
2.33554
2.35091
2.36607
2.38103
2.39578
2.4103
2.4246
2.43865
2.45245
2.46601
2.47934
2.49251
2.50559
2.5187
2.53188
2.54512
2.55814
2.57067
2.58213
2.59234
2.60088
2.60809
-2.2139
-2.17895
-2.14309
-2.10582
-2.06784
-2.02937
-1.99108
-1.9534
-1.91656
-1.88053
-1.8452
-1.81037
-1.77587
-1.7416
-1.70749
-1.67352
-1.63969
-1.606
-1.57245
-1.53904
-1.50577
-1.47264
-1.43965
-1.40678
-1.37404
-1.34143
-1.30895
-1.2766
-1.24436
-1.21226
-1.18028
-1.14841
-1.11669
-1.08507
-1.05359
-1.02223
-0.991
-0.959894
-0.928908
-0.898053
-0.86732
-0.836714
-0.806236
-0.77588
-0.745649
-0.71554
-0.685561
-0.655706
-0.625979
-0.596366
-0.566882
-0.537517
-0.508278
-0.479158
-0.450159
-0.421281
-0.392524
-0.363887
-0.335369
-0.306964
-0.278684
-0.250517
-0.222467
-0.194537
-0.166719
-0.139017
-0.111428
-0.0839509
-0.0565877
-0.0293347
-0.00219326
0.0248416
0.0517654
0.0785814
0.10529
0.131891
0.158387
0.184775
0.211064
0.237241
0.263319
0.289297
0.315168
0.340942
0.366611
0.392182
0.417655
0.443023
0.4683
0.493474
0.518553
0.543536
0.568422
0.593212
0.617908
0.642508
0.667016
0.691429
0.715749
0.739979
0.764114
0.78816
0.81211
0.835965
0.859729
0.883396
0.906973
0.930457
0.953847
0.977148
1.00036
1.02347
1.0465
1.06944
1.09228
1.11504
1.13771
1.16029
1.18278
1.20518
1.22749
1.24971
1.27184
1.29388
1.31583
1.33768
1.35945
1.38112
1.4027
1.42418
1.44557
1.46687
1.48808
1.50919
1.5302
1.55113
1.57196
1.59269
1.61333
1.63387
1.65431
1.67467
1.69492
1.71507
1.73512
1.75507
1.77493
1.79468
1.81432
1.83387
1.8533
1.87263
1.89185
1.91096
1.92996
1.94884
1.96761
1.98626
2.00478
2.02319
2.04147
2.05963
2.07765
2.09554
2.1133
2.13092
2.14839
2.16572
2.1829
2.19993
2.2168
2.2335
2.25004
2.26641
2.2826
2.29861
2.31443
2.33007
2.34551
2.36075
2.37578
2.3906
2.4052
2.41956
2.43369
2.44757
2.4612
2.47458
2.48778
2.50085
2.51388
2.52697
2.54009
2.55316
2.56584
2.57778
2.58847
2.59778
2.60541
2.61175
-2.23431
-2.20027
-2.16525
-2.12871
-2.09126
-2.05304
-2.01478
-1.97684
-1.93965
-1.90325
-1.86761
-1.83256
-1.7979
-1.76353
-1.72935
-1.6953
-1.6614
-1.62762
-1.59399
-1.56049
-1.5271
-1.49386
-1.46074
-1.42775
-1.39488
-1.36213
-1.3295
-1.29699
-1.2646
-1.23233
-1.20017
-1.16814
-1.13621
-1.10441
-1.07272
-1.04116
-1.00971
-0.978382
-0.947176
-0.916089
-0.885114
-0.85427
-0.82354
-0.792932
-0.76244
-0.732071
-0.701825
-0.671697
-0.641693
-0.611799
-0.582032
-0.552382
-0.522844
-0.493433
-0.464134
-0.434953
-0.405892
-0.376943
-0.348117
-0.319403
-0.290804
-0.26232
-0.233952
-0.205698
-0.177555
-0.149531
-0.121615
-0.093812
-0.0661176
-0.0385368
-0.0110668
0.0162988
0.0435547
0.0707014
0.0977429
0.124673
0.151505
0.178223
0.204844
0.231354
0.257766
0.284071
0.310276
0.336372
0.362377
0.388272
0.414072
0.439767
0.465367
0.490864
0.516264
0.541566
0.566769
0.591877
0.616885
0.641798
0.666616
0.691339
0.715962
0.740498
0.764932
0.789279
0.81352
0.837671
0.861725
0.88568
0.909537
0.933303
0.95697
0.980545
1.00402
1.02741
1.0507
1.07389
1.097
1.12001
1.14293
1.16575
1.18848
1.21111
1.23365
1.2561
1.27845
1.30071
1.32287
1.34493
1.3669
1.38877
1.41054
1.43221
1.45379
1.47526
1.49664
1.51792
1.5391
1.56018
1.58117
1.60205
1.62283
1.6435
1.66408
1.68456
1.70492
1.72519
1.74535
1.76541
1.78535
1.80519
1.82493
1.84454
1.86405
1.88345
1.90272
1.92188
1.94093
1.95985
1.97865
1.99732
2.01587
2.03429
2.05258
2.07073
2.08874
2.10662
2.12435
2.14194
2.15938
2.17666
2.19379
2.21075
2.22756
2.24419
2.26064
2.27692
2.29302
2.30893
2.32464
2.34016
2.35547
2.37058
2.38547
2.40014
2.41457
2.42877
2.44272
2.45643
2.46988
2.48312
2.4962
2.50919
2.52217
2.53521
2.54821
2.56101
2.57321
2.58446
2.5943
2.60268
2.60942
2.61493
-2.25431
-2.22113
-2.18693
-2.15122
-2.11442
-2.07666
-2.03854
-2.0005
-1.96301
-1.92626
-1.89029
-1.85495
-1.82013
-1.78563
-1.75134
-1.71724
-1.68327
-1.64942
-1.6157
-1.5821
-1.54863
-1.51528
-1.48204
-1.44893
-1.41593
-1.38306
-1.35028
-1.31763
-1.28508
-1.25264
-1.22032
-1.1881
-1.156
-1.124
-1.09212
-1.06035
-1.02869
-0.997144
-0.965713
-0.934396
-0.903184
-0.872093
-0.841119
-0.810257
-0.779508
-0.748873
-0.718362
-0.687957
-0.657676
-0.627502
-0.597448
-0.567506
-0.537677
-0.507965
-0.478363
-0.448878
-0.419504
-0.390246
-0.361104
-0.33207
-0.303154
-0.274344
-0.245651
-0.217072
-0.188604
-0.160243
-0.131996
-0.103859
-0.0758328
-0.0479151
-0.0201047
0.00759323
0.0351895
0.0626767
0.0900557
0.117327
0.144498
0.17156
0.198515
0.225369
0.252119
0.278759
0.305306
0.331741
0.358078
0.384312
0.410443
0.436476
0.462403
0.488237
0.513962
0.539593
0.565122
0.590553
0.615884
0.641118
0.666253
0.691289
0.716228
0.741073
0.765815
0.790467
0.815015
0.839463
0.863811
0.888062
0.91221
0.936261
0.960213
0.984067
1.00782
1.03148
1.05503
1.0785
1.10186
1.12513
1.1483
1.17137
1.19434
1.21722
1.23999
1.26267
1.28524
1.30772
1.3301
1.35237
1.37454
1.39661
1.41858
1.44044
1.4622
1.48386
1.50541
1.52686
1.5482
1.56944
1.59058
1.6116
1.63252
1.65334
1.67404
1.69464
1.71513
1.7355
1.75577
1.77593
1.79597
1.81589
1.8357
1.8554
1.87497
1.89443
1.91375
1.93296
1.95204
1.971
1.98983
2.00852
2.02708
2.04551
2.0638
2.08194
2.09994
2.1178
2.1355
2.15305
2.17044
2.18767
2.20474
2.22164
2.23836
2.25492
2.27128
2.28747
2.30346
2.31925
2.33485
2.35024
2.36542
2.38038
2.39512
2.40963
2.4239
2.43793
2.4517
2.46522
2.47852
2.49162
2.50458
2.51751
2.53044
2.54338
2.55618
2.56859
2.5802
2.59064
2.59959
2.60704
2.61295
2.6177
-2.27394
-2.2415
-2.20817
-2.17331
-2.13729
-2.10009
-2.06229
-2.02427
-1.98661
-1.94954
-1.91324
-1.87762
-1.84256
-1.80791
-1.77352
-1.73934
-1.7053
-1.67138
-1.63759
-1.6039
-1.57034
-1.53689
-1.50356
-1.47032
-1.43721
-1.4042
-1.3713
-1.33849
-1.3058
-1.27321
-1.24072
-1.20833
-1.17604
-1.14386
-1.11178
-1.07981
-1.04795
-1.01619
-0.984529
-0.952981
-0.921534
-0.890206
-0.858982
-0.827868
-0.79686
-0.765964
-0.735178
-0.704503
-0.673939
-0.643488
-0.613137
-0.582904
-0.552778
-0.52276
-0.492859
-0.463062
-0.433378
-0.403804
-0.374334
-0.344986
-0.315737
-0.286606
-0.257583
-0.228667
-0.199865
-0.171169
-0.142584
-0.114105
-0.0857375
-0.0574735
-0.0293225
-0.00127515
0.0266629
0.0544978
0.0822259
0.109845
0.13736
0.164772
0.192077
0.219276
0.246373
0.273364
0.300253
0.327039
0.353718
0.380298
0.406773
0.433144
0.459415
0.485583
0.511649
0.537615
0.563479
0.589243
0.614902
0.640466
0.665924
0.691286
0.716546
0.741709
0.766767
0.791731
0.816589
0.841346
0.865995
0.890548
0.914991
0.939336
0.963577
0.987717
1.01175
1.03569
1.05952
1.08325
1.10688
1.13041
1.15384
1.17716
1.20038
1.2235
1.24652
1.26942
1.29223
1.31493
1.33752
1.36001
1.38239
1.40466
1.42682
1.44888
1.47082
1.49266
1.51439
1.53601
1.55751
1.57891
1.60019
1.62137
1.64243
1.66337
1.68421
1.70493
1.72553
1.74602
1.76639
1.78664
1.80677
1.82678
1.84666
1.86643
1.88607
1.90557
1.92495
1.94421
1.96332
1.98231
2.00116
2.01987
2.03843
2.05686
2.07514
2.09327
2.11125
2.12907
2.14674
2.16424
2.18159
2.19876
2.21576
2.23258
2.24923
2.26569
2.28196
2.29803
2.31391
2.32959
2.34506
2.36031
2.37535
2.39016
2.40474
2.41909