/*--------------------------------*- C++ -*----------------------------------*\
  =========                 |
  \\      /  F ield         | OpenFOAM: The Open Source CFD Toolbox
   \\    /   O peration     | Website:  https://openfoam.org
    \\  /    A nd           | Version:  9
     \\/     M anipulation  |
\*---------------------------------------------------------------------------*/
FoamFile
{
    format      ascii;
    class       volScalarField;
    location    "0.0075";
    object      nut;
}
// * * * * * * * * * * * * * * * * * * * * * * * * * * * * * * * * * * * * * //

dimensions      [0 2 -1 0 0 0 0];

internalField   nonuniform List<scalar> 
7864
(
0.000854871
0.000117271
1.89753e-05
4.39626e-06
1.5905e-06
7.65622e-07
5.3285e-07
5.09898e-07
4.57929e-07
3.81835e-07
5.60682e-07
8.15827e-07
4.18355e-07
4.3213e-07
3.54456e-07
0.00241758
0.00066338
0.000330109
0.000211325
0.000150888
0.000113367
9.77582e-05
9.76045e-05
9.15559e-05
8.06539e-05
6.90921e-05
5.91592e-05
5.06829e-05
4.3281e-05
3.82745e-05
0.00379562
0.0012331
0.000635604
0.00041178
0.000299964
0.000231144
0.000183285
0.000159865
0.000138534
0.00011767
9.89354e-05
8.33902e-05
7.23444e-05
6.30919e-05
5.86925e-05
0.00500008
0.0018343
0.000948547
0.000607192
0.000435425
0.000330196
0.000255071
0.000203056
0.000164837
0.000135107
0.000111683
9.45952e-05
8.74586e-05
8.22372e-05
7.82165e-05
0.0060241
0.00240615
0.0012499
0.000790851
0.000556469
0.000411399
0.000315974
0.000250934
0.000204966
0.000171177
0.000145394
0.000125405
0.000114378
0.000104682
9.55768e-05
0.00685284
0.00290649
0.00152206
0.000952625
0.000657163
0.000483297
0.000372871
0.000299046
0.000247621
0.000209875
0.000180463
0.00015556
0.000135567
0.000119399
0.000106349
0.00745964
0.00329807
0.00174702
0.00108033
0.000740178
0.000544452
0.000421855
0.000340259
0.000283382
0.000240838
0.000206445
0.000178203
0.000155188
0.000136409
0.000120911
0.00779284
0.00352238
0.00186604
0.00114322
0.00078129
0.000575889
0.000447372
0.000361069
0.000300413
0.000254423
0.000218037
0.000188813
0.000164953
0.000144717
0.000127478
0.0076808
0.00345072
0.00183098
0.00111922
0.000763291
0.000563099
0.000437378
0.00035241
0.000292317
0.0002475
0.000211663
0.000182823
0.000159246
0.000139608
0.000122659
0.0073449
0.00324747
0.00172643
0.0010542
0.000716358
0.000526783
0.000409863
0.000329774
0.000272307
0.000229297
0.000195748
0.00016866
0.000146352
0.000128006
0.000111323
0.00674644
0.00290372
0.0015571
0.000954692
0.000644899
0.000470559
0.000363572
0.000292505
0.00024147
0.000201155
0.00016939
0.000143748
0.000123029
0.000105794
9.15205e-05
0.00588795
0.00239928
0.00129246
0.000809534
0.000547091
0.000394413
0.000299003
0.00023589
0.000191841
0.000158858
0.000133253
0.000110259
9.07768e-05
7.70783e-05
6.94804e-05
0.00474187
0.00174668
0.000939972
0.000600839
0.000420754
0.000306582
0.000227216
0.000171585
0.000132185
0.000102642
8.07127e-05
6.39701e-05
5.13189e-05
4.55297e-05
3.63908e-05
0.00324149
0.00102309
0.000532936
0.000345657
0.000247994
0.000184899
0.000138825
0.00010724
9.10678e-05
7.10739e-05
5.34552e-05
3.89919e-05
2.67069e-05
1.76454e-05
1.91074e-05
0.00126003
0.000232194
7.39278e-05
2.39652e-05
8.64313e-06
3.55548e-06
1.62487e-06
8.53815e-07
5.66033e-07
3.74258e-07
3.20882e-07
3.2551e-07
2.9578e-07
2.51274e-07
2.65725e-07
4.44456e-07
8.04924e-07
1.19161e-06
1.41465e-06
1.47379e-06
1.28866e-06
9.77628e-07
6.68893e-07
4.38855e-07
2.87762e-07
1.97689e-07
1.36366e-07
9.13179e-08
6.22116e-08
5.5337e-08
3.88152e-05
4.29453e-05
4.69223e-05
4.94658e-05
5.02977e-05
4.92646e-05
4.60374e-05
3.56455e-05
2.62141e-05
1.87699e-05
1.29622e-05
8.58124e-06
5.53706e-06
3.49706e-06
2.14631e-06
6.12261e-05
6.49622e-05
6.79814e-05
7.04579e-05
7.17892e-05
7.15892e-05
6.96221e-05
6.46994e-05
5.62167e-05
4.75427e-05
3.8717e-05
3.01635e-05
2.21462e-05
1.51499e-05
9.53278e-06
7.86054e-05
7.89599e-05
8.059e-05
8.14377e-05
8.16854e-05
8.10842e-05
7.9509e-05
7.6215e-05
7.0389e-05
6.38481e-05
5.64565e-05
4.82886e-05
3.92606e-05
2.99892e-05
2.13201e-05
9.13479e-05
9.04607e-05
8.8935e-05
8.79345e-05
8.6666e-05
8.49205e-05
8.24846e-05
7.92033e-05
7.50048e-05
7.03976e-05
6.49799e-05
5.84999e-05
5.0828e-05
4.20757e-05
3.28297e-05
0.000101386
9.74988e-05
9.39887e-05
9.08338e-05
8.72785e-05
8.38354e-05
8.03059e-05
7.66521e-05
7.32236e-05
6.97122e-05
6.59529e-05
6.15701e-05
5.6104e-05
4.90931e-05
4.09041e-05
0.000111512
0.000103254
9.63032e-05
8.9732e-05
8.39524e-05
7.87134e-05
7.40494e-05
7.00504e-05
6.67608e-05
6.39633e-05
6.14166e-05
5.88544e-05
5.55028e-05
5.09195e-05
4.48479e-05
0.000114446
0.000103142
9.34591e-05
8.49471e-05
7.75492e-05
7.10606e-05
6.55511e-05
6.10365e-05
5.74046e-05
5.46593e-05
5.27043e-05
5.13052e-05
4.98533e-05
4.78142e-05
4.44622e-05
0.000108538
9.61016e-05
8.5296e-05
7.58585e-05
6.76349e-05
6.05615e-05
5.46491e-05
4.9859e-05
4.61497e-05
4.3547e-05
4.19657e-05
4.11024e-05
4.06984e-05
4.04085e-05
3.96099e-05
9.63556e-05
8.32001e-05
7.18344e-05
6.22554e-05
5.43202e-05
4.78143e-05
4.25098e-05
3.81648e-05
3.47574e-05
3.23562e-05
3.07532e-05
2.99984e-05
3.00462e-05
3.07466e-05
3.1488e-05
7.74054e-05
6.53103e-05
5.55111e-05
4.77487e-05
4.1627e-05
3.66925e-05
3.25375e-05
2.84721e-05
2.4922e-05
2.22883e-05
2.05843e-05
1.97945e-05
1.99015e-05
2.08533e-05
2.2082e-05
5.64472e-05
4.72462e-05
4.11339e-05
3.67908e-05
3.32878e-05
2.99894e-05
2.63779e-05
2.17362e-05
1.78847e-05
1.51751e-05
1.34144e-05
1.24149e-05
1.21594e-05
1.24919e-05
1.31535e-05
2.90101e-05
2.76531e-05
2.71173e-05
2.64801e-05
2.55863e-05
2.41156e-05
2.22595e-05
1.96645e-05
1.66734e-05
1.38212e-05
1.12138e-05
8.82261e-06
7.18502e-06
6.35879e-06
6.09857e-06
1.92328e-05
1.96124e-05
2.00307e-05
1.97822e-05
1.95181e-05
1.78944e-05
1.63893e-05
1.42511e-05
1.18138e-05
9.40067e-06
7.1704e-06
5.14242e-06
2.99646e-06
2.04437e-06
1.55632e-06
2.78615e-07
2.73155e-07
2.55915e-07
2.3128e-07
4.34472e-07
1.65367e-07
1.4931e-07
1.40787e-07
1.2919e-07
1.12057e-07
9.37525e-08
7.76395e-08
5.85523e-08
1.32336e-07
5.41326e-08
5.81517e-08
6.04552e-08
6.2789e-08
6.37941e-08
6.56799e-08
6.87587e-08
7.19292e-08
7.54611e-08
7.57592e-08
7.63381e-08
8.59866e-08
1.03945e-07
1.41784e-07
2.24103e-07
4.02942e-07
1.88985e-06
1.55162e-06
1.23913e-06
9.98503e-07
9.03584e-07
8.41401e-07
7.80291e-07
7.14073e-07
6.33059e-07
5.44717e-07
4.9301e-07
4.77579e-07
5.26614e-07
7.37238e-07
1.28095e-06
7.9964e-06
6.64953e-06
5.5979e-06
4.75063e-06
3.91351e-06
3.16457e-06
2.51209e-06
1.95553e-06
1.48876e-06
1.10118e-06
8.05303e-07
5.7491e-07
4.43594e-07
5.61241e-07
8.76456e-07
1.86997e-05
1.60567e-05
1.36603e-05
1.15688e-05
9.79848e-06
8.2307e-06
6.73245e-06
5.35079e-06
4.12166e-06
3.05349e-06
2.18802e-06
1.47138e-06
1.00212e-06
6.91753e-07
9.87738e-07
2.97804e-05
2.65364e-05
2.32879e-05
2.01691e-05
1.73119e-05
1.48052e-05
1.25452e-05
1.03303e-05
8.23099e-06
6.29369e-06
4.61543e-06
3.16859e-06
2.13171e-06
1.29181e-06
1.55354e-06
3.77233e-05
3.45371e-05
3.117e-05
2.77225e-05
2.43213e-05
2.11166e-05
1.81982e-05
1.54169e-05
1.26395e-05
9.94272e-06
7.46792e-06
5.25825e-06
3.56305e-06
2.15582e-06
1.97891e-06
4.17573e-05
3.87163e-05
3.56424e-05
3.23835e-05
2.89951e-05
2.55933e-05
2.23048e-05
1.919e-05
1.60229e-05
1.28344e-05
9.785e-06
7.00784e-06
4.76663e-06
2.94483e-06
2.03527e-06
4.18037e-05
3.90984e-05
3.63239e-05
3.34187e-05
3.03239e-05
2.7087e-05
2.37916e-05
2.05295e-05
1.72562e-05
1.38997e-05
1.06308e-05
7.65513e-06
5.18497e-06
3.26193e-06
1.90363e-06
3.73892e-05
3.51541e-05
3.28258e-05
3.03401e-05
2.76733e-05
2.48156e-05
2.17903e-05
1.86609e-05
1.54945e-05
1.23585e-05
9.36061e-06
6.69265e-06
4.47818e-06
2.83134e-06
1.47871e-06
2.95624e-05
2.7664e-05
2.571e-05
2.36544e-05
2.14734e-05
1.91545e-05
1.6705e-05
1.41594e-05
1.15904e-05
9.09459e-06
6.76808e-06
4.76277e-06
3.13702e-06
1.97244e-06
9.91593e-07
2.05042e-05
1.89261e-05
1.73376e-05
1.57059e-05
1.40201e-05
1.22854e-05
1.05155e-05
8.7356e-06
6.99575e-06
5.36564e-06
3.90659e-06
2.69924e-06
1.7648e-06
1.12524e-06
6.16361e-07
1.19088e-05
1.07077e-05
9.53429e-06
8.3723e-06
7.22832e-06
6.1201e-06
5.06341e-06
4.07443e-06
3.17062e-06
2.3753e-06
1.70588e-06
1.17808e-06
8.05396e-07
5.90886e-07
4.11447e-07
5.22206e-06
4.43853e-06
3.73193e-06
3.09352e-06
2.52552e-06
2.0317e-06
1.61604e-06
1.27136e-06
9.87803e-07
7.57486e-07
5.77522e-07
4.41293e-07
3.95455e-07
4.95053e-07
3.77604e-07
1.20764e-06
9.23785e-07
7.06322e-07
5.40918e-07
4.17276e-07
3.65859e-07
3.49346e-07
3.43249e-07
3.3948e-07
3.34396e-07
3.41277e-07
3.66208e-07
4.66102e-07
6.59519e-07
6.21643e-07
5.30207e-08
4.74894e-08
4.69716e-08
4.76732e-08
4.84679e-08
4.99525e-08
5.23001e-08
5.51845e-08
5.65803e-08
5.50414e-08
6.46495e-08
8.71079e-08
1.41926e-07
2.15148e-07
4.54211e-07
0.0140468
0.0140469
0.014047
0.014047
0.0140471
0.0140472
0.0140472
0.0140473
0.0140474
0.0140475
0.0140475
0.0140476
0.0140477
0.0140478
0.0140478
0.0140479
0.014048
0.014048
0.0140481
0.0140482
0.0140483
0.0140483
0.0140484
0.0140485
0.0140486
0.0140486
0.0140487
0.0140488
0.0140489
0.0140489
0.014049
0.0140491
0.0140491
0.0140492
0.0140493
0.0140493
0.0140494
0.0140494
0.0140495
0.0140495
0.0140496
0.0140496
0.0140496
0.0140496
0.0140496
0.0140496
0.0140496
0.0140496
0.0140496
0.0140496
0.0140496
0.0140496
0.0140497
0.0140497
0.0140497
0.0140497
0.0140497
0.0140497
0.0140497
0.0140497
0.0140497
0.0140497
0.0140497
0.0140497
0.0140497
0.0140497
0.0140497
0.0140497
0.0140498
0.0140498
0.0140498
0.0140498
0.0140498
0.0140498
0.0140498
0.0140499
0.0140499
0.0140499
0.0140499
0.0140499
0.01405
0.01405
0.01405
0.01405
0.0140501
0.0140501
0.0140501
0.0140501
0.0140502
0.0140685
0.0140691
0.0140697
0.0140704
0.014071
0.0140716
0.0140722
0.0140728
0.0140734
0.0140739
0.0140745
0.0140751
0.0140756
0.0140762
0.0140767
0.0140773
0.0140778
0.0140783
0.0140788
0.0140793
0.0140798
0.0140803
0.0140808
0.0140813
0.0140818
0.0140823
0.0140827
0.0140832
0.0140837
0.0140841
0.0140846
0.014085
0.0140854
0.0140859
0.0140863
0.0140867
0.0140871
0.0140876
0.014088
0.0140884
0.0140888
0.0140892
0.0140896
0.0140899
0.0140903
0.0140906
0.0140909
0.0140912
0.0140915
0.0140918
0.014092
0.0140923
0.0140925
0.0140927
0.0140929
0.0140931
0.0140933
0.0140935
0.0140937
0.0140939
0.0140941
0.0140942
0.0140944
0.0140945
0.0140947
0.0140948
0.0140949
0.0140951
0.0140952
0.0140953
0.0140954
0.0140955
0.0140957
0.0140958
0.0140959
0.014096
0.0140961
0.0140962
0.0140962
0.0140963
0.0140964
0.0140965
0.0140966
0.0140967
0.0140967
0.0140968
0.0140969
0.0140969
0.0140969
0.0140306
0.0140309
0.0140312
0.0140315
0.0140318
0.0140321
0.0140324
0.0140327
0.014033
0.0140334
0.0140337
0.014034
0.0140343
0.0140346
0.0140349
0.0140352
0.0140356
0.0140359
0.0140362
0.0140365
0.0140368
0.0140371
0.0140374
0.0140378
0.0140381
0.0140384
0.0140387
0.014039
0.0140393
0.0140397
0.01404
0.0140403
0.0140406
0.0140409
0.0140412
0.0140415
0.0140419
0.0140422
0.0140425
0.0140428
0.0140431
0.0140434
0.0140437
0.014044
0.0140443
0.0140446
0.014045
0.0140453
0.0140456
0.0140459
0.0140462
0.0140465
0.0140468
0.0140471
0.0140474
0.0140477
0.0140481
0.0140484
0.0140487
0.014049
0.0140493
0.0140496
0.0140499
0.0140502
0.0140505
0.0140508
0.0140512
0.0140515
0.0140518
0.0140521
0.0140524
0.0140527
0.014053
0.0140533
0.0140536
0.014054
0.0140543
0.0140546
0.0140549
0.0140552
0.0140555
0.0140558
0.0140561
0.0140564
0.0140567
0.014057
0.0140573
0.0140576
0.0140577
0.0140371
0.0140374
0.0140378
0.0140381
0.0140385
0.0140388
0.0140392
0.0140395
0.0140398
0.0140402
0.0140405
0.0140408
0.0140411
0.0140414
0.0140417
0.0140419
0.0140422
0.0140424
0.0140426
0.0140428
0.014043
0.0140432
0.0140433
0.0140435
0.0140436
0.0140437
0.0140438
0.0140438
0.0140439
0.0140439
0.0140439
0.0140439
0.0140438
0.0140437
0.0140435
0.0140433
0.0140433
0.0140433
0.0140433
0.0140434
0.0140435
0.0140436
0.0140437
0.0140439
0.0140441
0.0140443
0.0140445
0.0140447
0.0140449
0.0140451
0.0140453
0.0140456
0.0140458
0.014046
0.0140463
0.0140465
0.0140468
0.014047
0.0140473
0.0140475
0.0140478
0.0140481
0.0140483
0.0140486
0.0140489
0.0140491
0.0140494
0.0140497
0.01405
0.0140503
0.0140506
0.0140509
0.0140512
0.0140514
0.0140517
0.014052
0.0140523
0.0140526
0.0140529
0.0140532
0.0140536
0.0140539
0.0140542
0.0140545
0.0140548
0.0140551
0.0140554
0.0140557
0.0140559
0.0140276
0.0140277
0.0140278
0.0140279
0.014028
0.0140281
0.0140282
0.0140282
0.0140283
0.0140284
0.0140285
0.0140286
0.0140287
0.0140288
0.0140288
0.0140289
0.014029
0.0140291
0.0140291
0.0140292
0.0140293
0.0140294
0.0140294
0.0140295
0.0140296
0.0140297
0.0140297
0.0140298
0.0140299
0.0140299
0.01403
0.0140301
0.0140301
0.0140302
0.0140302
0.0140303
0.0140304
0.0140304
0.0140305
0.0140305
0.0140306
0.0140306
0.0140306
0.0140306
0.0140306
0.0140306
0.0140306
0.0140306
0.0140306
0.0140305
0.0140305
0.0140304
0.0140304
0.0140303
0.0140302
0.0140302
0.0140301
0.01403
0.0140299
0.0140298
0.0140297
0.0140295
0.0140294
0.0140292
0.0140291
0.0140289
0.0140288
0.0140286
0.0140284
0.0140281
0.0140279
0.0140275
0.0140272
0.0140268
0.0140265
0.0140261
0.0140257
0.0140254
0.014025
0.0140247
0.0140244
0.0140242
0.014024
0.0140238
0.0140237
0.0140235
0.0140234
0.0140232
0.0140229
0.0139974
0.0139975
0.0139977
0.0139978
0.0139979
0.013998
0.0139982
0.0139983
0.0139984
0.0139984
0.0139985
0.0139986
0.0139986
0.0139986
0.0139987
0.0139987
0.0139986
0.0139986
0.0139986
0.0139985
0.0139984
0.0139982
0.013998
0.0139976
0.0139972
0.0139969
0.0139965
0.0139961
0.0139957
0.0139954
0.013995
0.0139946
0.0139943
0.0139939
0.0139936
0.0139932
0.0139928
0.0139925
0.0139921
0.0139918
0.0139914
0.0139911
0.0139908
0.0139904
0.0139901
0.0139897
0.0139894
0.0139891
0.0139887
0.0139884
0.0139881
0.0139878
0.0139874
0.0139871
0.0139868
0.0139865
0.0139862
0.0139859
0.0139856
0.0139853
0.013985
0.0139847
0.0139844
0.0139841
0.0139838
0.0139835
0.0139832
0.0139829
0.0139827
0.0139827
0.0139826
0.0139826
0.0139827
0.0139827
0.0139828
0.0139829
0.013983
0.0139831
0.0139832
0.0139834
0.0139835
0.0139837
0.0139838
0.013984
0.0139842
0.0139844
0.0139846
0.0139848
0.013985
0.0139526
0.0139526
0.0139526
0.0139526
0.0139527
0.0139528
0.0139529
0.013953
0.0139531
0.0139533
0.0139534
0.0139535
0.0139537
0.0139539
0.013954
0.0139542
0.0139544
0.0139546
0.0139548
0.013955
0.0139552
0.0139554
0.0139556
0.0139558
0.013956
0.0139563
0.0139565
0.0139567
0.0139569
0.0139571
0.0139574
0.0139576
0.0139578
0.013958
0.0139583
0.0139585
0.0139587
0.0139589
0.0139591
0.0139594
0.0139596
0.0139598
0.01396
0.0139602
0.0139605
0.0139607
0.0139609
0.0139611
0.0139613
0.0139616
0.0139618
0.013962
0.0139622
0.0139625
0.0139627
0.0139629
0.0139631
0.0139633
0.0139636
0.0139638
0.013964
0.0139642
0.0139645
0.0139647
0.0139649
0.0139651
0.0139653
0.0139656
0.0139658
0.013966
0.0139662
0.0139664
0.0139667
0.0139669
0.0139671
0.0139673
0.0139675
0.0139678
0.013968
0.0139682
0.0139684
0.0139686
0.0139688
0.0139691
0.0139693
0.0139695
0.0139697
0.0139699
0.0139702
0.0139488
0.0139483
0.0139478
0.0139474
0.0139469
0.0139465
0.013946
0.0139455
0.0139451
0.0139446
0.0139442
0.0139437
0.0139433
0.0139428
0.0139423
0.0139419
0.0139414
0.013941
0.0139405
0.0139401
0.0139397
0.0139392
0.0139388
0.0139384
0.0139379
0.0139375
0.0139371
0.0139367
0.0139363
0.0139359
0.0139355
0.0139351
0.0139346
0.0139343
0.0139339
0.0139335
0.0139331
0.0139327
0.0139323
0.0139319
0.0139316
0.0139312
0.0139309
0.0139307
0.0139306
0.0139306
0.0139306
0.0139307
0.0139307
0.0139308
0.0139309
0.013931
0.0139312
0.0139313
0.0139314
0.0139316
0.0139318
0.013932
0.0139322
0.0139324
0.0139326
0.0139328
0.013933
0.0139332
0.0139335
0.0139337
0.013934
0.0139342
0.0139345
0.0139347
0.013935
0.0139353
0.0139355
0.0139358
0.0139361
0.0139364
0.0139366
0.0139369
0.0139372
0.0139375
0.0139378
0.0139381
0.0139383
0.0139386
0.0139389
0.0139392
0.0139395
0.0139398
0.0139401
0.013917
0.0139166
0.0139162
0.0139158
0.0139154
0.013915
0.0139145
0.0139141
0.0139137
0.0139133
0.0139129
0.0139125
0.0139121
0.0139117
0.0139115
0.0139114
0.0139114
0.0139114
0.0139114
0.0139115
0.0139115
0.0139116
0.0139117
0.0139118
0.013912
0.0139121
0.0139122
0.0139124
0.0139125
0.0139127
0.0139128
0.013913
0.0139132
0.0139134
0.0139136
0.0139138
0.013914
0.0139142
0.0139144
0.0139146
0.0139148
0.013915
0.0139152
0.0139155
0.0139157
0.0139159
0.0139161
0.0139164
0.0139166
0.0139168
0.0139171
0.0139173
0.0139176
0.0139178
0.013918
0.0139183
0.0139185
0.0139188
0.013919
0.0139193
0.0139195
0.0139198
0.01392
0.0139203
0.0139205
0.0139208
0.013921
0.0139213
0.0139215
0.0139218
0.013922
0.0139223
0.0139225
0.0139227
0.013923
0.0139232
0.0139235
0.0139237
0.0139239
0.0139241
0.0139243
0.0139245
0.0139246
0.0139248
0.0139249
0.013925
0.0139251
0.0139252
0.0139253
0.0139038
0.0139032
0.0139026
0.0139021
0.0139015
0.013901
0.0139004
0.0138998
0.0138993
0.0138987
0.0138981
0.0138976
0.013897
0.0138964
0.0138959
0.0138953
0.0138947
0.0138942
0.0138936
0.013893
0.0138925
0.0138919
0.0138914
0.0138908
0.0138903
0.0138897
0.0138892
0.0138886
0.0138881
0.0138876
0.0138872
0.013887
0.0138869
0.0138869
0.0138869
0.0138869
0.0138869
0.013887
0.0138871
0.0138872
0.0138873
0.0138875
0.0138876
0.0138878
0.0138879
0.0138881
0.0138883
0.0138885
0.0138887
0.0138889
0.0138891
0.0138893
0.0138895
0.0138897
0.0138899
0.0138901
0.0138903
0.0138906
0.0138908
0.013891
0.0138912
0.0138914
0.0138916
0.0138918
0.013892
0.0138922
0.0138923
0.0138925
0.0138927
0.0138929
0.013893
0.0138932
0.0138933
0.0138935
0.0138936
0.0138938
0.0138939
0.013894
0.0138941
0.0138942
0.0138943
0.0138943
0.0138944
0.0138944
0.0138943
0.0138943
0.0138942
0.0138942
0.0138942
0.0138775
0.0138768
0.0138762
0.0138755
0.0138749
0.0138742
0.0138735
0.0138729
0.0138722
0.0138715
0.0138709
0.0138702
0.0138695
0.0138689
0.0138682
0.0138675
0.0138669
0.0138663
0.0138658
0.0138656
0.0138654
0.0138654
0.0138653
0.0138653
0.0138652
0.0138652
0.0138653
0.0138653
0.0138654
0.0138654
0.0138655
0.0138656
0.0138657
0.0138658
0.013866
0.0138661
0.0138662
0.0138664
0.0138665
0.0138667
0.0138668
0.0138669
0.013867
0.013867
0.013867
0.013867
0.013867
0.0138669
0.0138668
0.0138666
0.0138664
0.0138662
0.013866
0.0138657
0.0138653
0.0138648
0.0138641
0.0138633
0.0138626
0.0138618
0.013861
0.0138602
0.0138594
0.0138586
0.0138578
0.0138571
0.0138563
0.0138555
0.0138547
0.0138539
0.0138531
0.0138523
0.0138516
0.0138508
0.01385
0.0138492
0.0138484
0.0138476
0.0138468
0.013846
0.0138452
0.0138444
0.0138436
0.0138428
0.013842
0.0138412
0.0138404
0.0138397
0.0138391
0.0138479
0.0138471
0.0138464
0.0138457
0.013845
0.0138442
0.0138435
0.0138428
0.013842
0.0138413
0.0138405
0.0138398
0.013839
0.0138383
0.0138376
0.0138368
0.013836
0.0138353
0.0138345
0.0138338
0.013833
0.0138323
0.0138315
0.0138308
0.0138301
0.0138295
0.0138293
0.0138291
0.013829
0.0138289
0.0138289
0.0138288
0.0138288
0.0138288
0.0138289
0.0138289
0.0138289
0.013829
0.013829
0.0138291
0.0138292
0.0138292
0.0138292
0.0138291
0.0138291
0.0138289
0.0138288
0.0138286
0.0138283
0.0138281
0.0138278
0.0138274
0.013827
0.0138265
0.0138259
0.0138252
0.0138243
0.0138233
0.0138223
0.0138213
0.0138203
0.0138193
0.0138183
0.0138173
0.0138164
0.0138154
0.0138144
0.0138134
0.0138124
0.0138114
0.0138105
0.0138095
0.0138085
0.0138075
0.0138065
0.0138055
0.0138045
0.0138035
0.0138025
0.0138015
0.0138005
0.0137995
0.0137985
0.0137975
0.0137965
0.0137955
0.0137945
0.0137936
0.0137928
0.0138208
0.0138199
0.013819
0.0138181
0.0138172
0.0138163
0.0138155
0.0138146
0.0138137
0.0138128
0.0138119
0.013811
0.0138101
0.0138092
0.0138083
0.0138074
0.0138065
0.0138056
0.0138047
0.0138039
0.0138035
0.0138033
0.013803
0.0138025
0.0138015
0.0138005
0.0137996
0.0137986
0.0137977
0.0137967
0.0137958
0.0137948
0.0137938
0.0137929
0.0137919
0.013791
0.01379
0.0137891
0.0137881
0.0137871
0.0137862
0.0137852
0.0137842
0.0137833
0.0137823
0.0137813
0.0137804
0.0137794
0.0137784
0.0137775
0.0137765
0.0137755
0.0137745
0.0137735
0.0137726
0.0137716
0.0137706
0.0137696
0.0137686
0.0137676
0.0137666
0.0137656
0.0137646
0.0137636
0.0137626
0.0137615
0.0137605
0.0137595
0.0137585
0.0137574
0.0137564
0.0137554
0.0137543
0.0137533
0.0137522
0.0137512
0.0137501
0.0137491
0.013748
0.013747
0.0137459
0.0137448
0.0137438
0.0137427
0.0137416
0.0137405
0.0137395
0.0137385
0.0137376
0.0137902
0.0137892
0.0137882
0.0137872
0.0137861
0.0137851
0.0137841
0.013783
0.013782
0.0137809
0.0137799
0.0137788
0.0137778
0.0137767
0.0137757
0.0137746
0.0137735
0.0137725
0.0137714
0.0137703
0.0137692
0.0137681
0.0137671
0.0137661
0.013765
0.0137639
0.0137628
0.0137617
0.0137606
0.0137595
0.0137584
0.0137573
0.0137561
0.013755
0.0137539
0.0137528
0.0137516
0.0137505
0.0137494
0.0137482
0.0137471
0.013746
0.0137448
0.0137437
0.0137425
0.0137413
0.0137402
0.013739
0.0137379
0.0137367
0.0137355
0.0137343
0.0137331
0.013732
0.0137308
0.0137296
0.0137284
0.0137272
0.013726
0.0137247
0.0137235
0.0137223
0.0137211
0.0137199
0.0137186
0.0137174
0.0137162
0.0137149
0.0137137
0.0137124
0.0137112
0.0137099
0.0137087
0.0137074
0.0137061
0.0137049
0.0137036
0.0137023
0.013701
0.0136997
0.0136984
0.0136971
0.0136958
0.0136945
0.0136932
0.0136919
0.0136906
0.0136894
0.0136884
0.0137579
0.0137567
0.0137555
0.0137543
0.013753
0.0137518
0.0137505
0.0137493
0.013748
0.0137468
0.0137455
0.0137443
0.013743
0.0137417
0.0137405
0.0137392
0.0137379
0.0137366
0.0137353
0.013734
0.0137327
0.0137314
0.0137301
0.0137288
0.0137275
0.0137262
0.0137249
0.0137235
0.0137222
0.0137209
0.0137195
0.0137182
0.0137168
0.0137155
0.0137141
0.0137128
0.0137114
0.01371
0.0137087
0.0137073
0.0137059
0.0137045
0.0137031
0.0137017
0.0137003
0.0136989
0.0136975
0.0136961
0.0136947
0.0136933
0.0136918
0.0136904
0.013689
0.0136875
0.0136861
0.0136846
0.0136832
0.0136817
0.0136802
0.0136788
0.0136773
0.0136758
0.0136743
0.0136728
0.0136713
0.0136698
0.0136683
0.0136668
0.0136653
0.0136638
0.0136622
0.0136607
0.0136592
0.0136576
0.0136561
0.0136545
0.013653
0.0136514
0.0136499
0.0136483
0.0136467
0.0136451
0.0136435
0.0136419
0.0136403
0.0136388
0.0136372
0.0136357
0.0136344
0.0137221
0.0137207
0.0137192
0.0137178
0.0137163
0.0137148
0.0137134
0.0137119
0.0137104
0.0137089
0.0137074
0.0137059
0.0137044
0.0137029
0.0137014
0.0136999
0.0136984
0.0136968
0.0136953
0.0136938
0.0136922
0.0136907
0.0136891
0.0136875
0.013686
0.0136844
0.0136828
0.0136812
0.0136796
0.0136781
0.0136765
0.0136748
0.0136732
0.0136716
0.01367
0.0136684
0.0136667
0.0136651
0.0136634
0.0136618
0.0136601
0.0136585
0.0136568
0.0136551
0.0136534
0.0136517
0.0136501
0.0136483
0.0136466
0.0136449
0.0136432
0.0136415
0.0136397
0.013638
0.0136363
0.0136345
0.0136327
0.013631
0.0136292
0.0136274
0.0136256
0.0136239
0.0136221
0.0136203
0.0136184
0.0136166
0.0136148
0.013613
0.0136111
0.0136093
0.0136074
0.0136056
0.0136037
0.0136018
0.0136
0.0135981
0.0135962
0.0135943
0.0135924
0.0135905
0.0135885
0.0135866
0.0135847
0.0135827
0.0135808
0.0135789
0.0135769
0.0135751
0.0135736
0.0136826
0.0136809
0.0136792
0.0136775
0.0136757
0.013674
0.0136722
0.0136705
0.0136687
0.013667
0.0136652
0.0136634
0.0136616
0.0136598
0.013658
0.0136562
0.0136544
0.0136526
0.0136508
0.0136489
0.0136471
0.0136453
0.0136434
0.0136415
0.0136397
0.0136378
0.0136359
0.013634
0.0136321
0.0136302
0.0136283
0.0136264
0.0136245
0.0136225
0.0136206
0.0136186
0.0136167
0.0136147
0.0136127
0.0136107
0.0136088
0.0136068
0.0136048
0.0136027
0.0136007
0.0135987
0.0135967
0.0135946
0.0135925
0.0135905
0.0135884
0.0135863
0.0135842
0.0135822
0.01358
0.0135779
0.0135758
0.0135737
0.0135715
0.0135694
0.0135672
0.0135651
0.0135629
0.0135607
0.0135585
0.0135563
0.0135541
0.0135519
0.0135497
0.0135474
0.0135452
0.0135429
0.0135407
0.0135384
0.0135361
0.0135338
0.0135315
0.0135292
0.0135269
0.0135246
0.0135222
0.0135199
0.0135175
0.0135151
0.0135128
0.0135104
0.0135081
0.0135058
0.013504
0.0136397
0.0136376
0.0136356
0.0136336
0.0136315
0.0136295
0.0136274
0.0136253
0.0136232
0.0136212
0.0136191
0.013617
0.0136148
0.0136127
0.0136106
0.0136084
0.0136063
0.0136041
0.013602
0.0135998
0.0135976
0.0135954
0.0135932
0.013591
0.0135887
0.0135865
0.0135843
0.013582
0.0135797
0.0135775
0.0135752
0.0135729
0.0135706
0.0135683
0.013566
0.0135636
0.0135613
0.0135589
0.0135565
0.0135542
0.0135518
0.0135494
0.013547
0.0135446
0.0135421
0.0135397
0.0135372
0.0135348
0.0135323
0.0135298
0.0135273
0.0135248
0.0135223
0.0135197
0.0135172
0.0135146
0.0135121
0.0135095
0.0135069
0.0135043
0.0135017
0.0134991
0.0134964
0.0134938
0.0134911
0.0134884
0.0134858
0.0134831
0.0134803
0.0134776
0.0134749
0.0134721
0.0134694
0.0134666
0.0134638
0.013461
0.0134582
0.0134554
0.0134526
0.0134497
0.0134468
0.013444
0.0134411
0.0134382
0.0134353
0.0134324
0.0134295
0.0134268
0.0134245
0.0135927
0.0135903
0.0135879
0.0135855
0.0135831
0.0135806
0.0135782
0.0135757
0.0135733
0.0135708
0.0135683
0.0135658
0.0135633
0.0135608
0.0135583
0.0135557
0.0135532
0.0135506
0.013548
0.0135454
0.0135428
0.0135402
0.0135376
0.0135349
0.0135323
0.0135296
0.0135269
0.0135242
0.0135215
0.0135188
0.0135161
0.0135133
0.0135105
0.0135078
0.013505
0.0135022
0.0134994
0.0134965
0.0134937
0.0134908
0.0134879
0.0134851
0.0134822
0.0134792
0.0134763
0.0134734
0.0134704
0.0134674
0.0134644
0.0134614
0.0134584
0.0134554
0.0134523
0.0134492
0.0134461
0.013443
0.0134399
0.0134368
0.0134336
0.0134305
0.0134273
0.0134241
0.0134209
0.0134176
0.0134144
0.0134111
0.0134079
0.0134046
0.0134012
0.0133979
0.0133946
0.0133912
0.0133878
0.0133844
0.013381
0.0133775
0.0133741
0.0133706
0.0133671
0.0133636
0.0133601
0.0133566
0.013353
0.0133494
0.0133458
0.0133422
0.0133387
0.0133353
0.0133326
0.0135413
0.0135384
0.0135356
0.0135328
0.0135299
0.013527
0.0135241
0.0135212
0.0135183
0.0135154
0.0135124
0.0135095
0.0135065
0.0135035
0.0135005
0.0134974
0.0134944
0.0134914
0.0134883
0.0134852
0.0134821
0.013479
0.0134758
0.0134727
0.0134695
0.0134663
0.0134631
0.0134599
0.0134566
0.0134533
0.0134501
0.0134468
0.0134434
0.0134401
0.0134368
0.0134334
0.01343
0.0134266
0.0134231
0.0134197
0.0134162
0.0134127
0.0134092
0.0134057
0.0134021
0.0133985
0.0133949
0.0133913
0.0133877
0.013384
0.0133804
0.0133767
0.0133729
0.0133692
0.0133654
0.0133616
0.0133578
0.013354
0.0133501
0.0133463
0.0133424
0.0133385
0.0133345
0.0133305
0.0133266
0.0133225
0.0133185
0.0133144
0.0133104
0.0133063
0.0133021
0.013298
0.0132938
0.0132896
0.0132854
0.0132811
0.0132768
0.0132725
0.0132682
0.0132638
0.0132595
0.0132551
0.0132506
0.0132462
0.0132417
0.0132372
0.0132328
0.0132286
0.0132253
0.0134845
0.0134811
0.0134778
0.0134744
0.013471
0.0134676
0.0134642
0.0134608
0.0134573
0.0134538
0.0134503
0.0134468
0.0134432
0.0134397
0.0134361
0.0134325
0.0134289
0.0134252
0.0134216
0.0134179
0.0134141
0.0134104
0.0134066
0.0134029
0.0133991
0.0133952
0.0133914
0.0133875
0.0133836
0.0133797
0.0133757
0.0133717
0.0133677
0.0133637
0.0133597
0.0133556
0.0133515
0.0133473
0.0133432
0.013339
0.0133348
0.0133305
0.0133263
0.013322
0.0133176
0.0133133
0.0133089
0.0133045
0.0133001
0.0132956
0.0132911
0.0132866
0.013282
0.0132774
0.0132728
0.0132681
0.0132635
0.0132588
0.013254
0.0132492
0.0132444
0.0132396
0.0132347
0.0132298
0.0132249
0.0132199
0.0132149
0.0132099
0.0132048
0.0131997
0.0131946
0.0131894
0.0131842
0.013179
0.0131737
0.0131684
0.0131631
0.0131577
0.0131523
0.0131468
0.0131414
0.0131358
0.0131303
0.0131247
0.0131191
0.0131135
0.0131079
0.0131027
0.0130985
0.0134215
0.0134176
0.0134136
0.0134096
0.0134056
0.0134016
0.0133975
0.0133934
0.0133893
0.0133852
0.013381
0.0133768
0.0133726
0.0133684
0.0133641
0.0133598
0.0133555
0.0133511
0.0133467
0.0133423
0.0133379
0.0133334
0.0133289
0.0133243
0.0133197
0.0133151
0.0133105
0.0133058
0.0133011
0.0132964
0.0132916
0.0132868
0.013282
0.0132771
0.0132722
0.0132672
0.0132622
0.0132572
0.0132522
0.0132471
0.0132419
0.0132368
0.0132315
0.0132263
0.013221
0.0132157
0.0132103
0.0132049
0.0131994
0.0131939
0.0131884
0.0131828
0.0131772
0.0131716
0.0131659
0.0131601
0.0131543
0.0131485
0.0131426
0.0131367
0.0131307
0.0131247
0.0131187
0.0131126
0.0131064
0.0131002
0.013094
0.0130877
0.0130814
0.013075
0.0130685
0.0130621
0.0130555
0.013049
0.0130423
0.0130357
0.013029
0.0130222
0.0130154
0.0130085
0.0130016
0.0129946
0.0129876
0.0129805
0.0129734
0.0129663
0.0129592
0.0129526
0.0129473
0.0133513
0.0133467
0.013342
0.0133373
0.0133325
0.0133278
0.0133229
0.0133181
0.0133132
0.0133083
0.0133033
0.0132983
0.0132933
0.0132883
0.0132832
0.013278
0.0132728
0.0132676
0.0132624
0.0132571
0.0132517
0.0132464
0.0132409
0.0132355
0.01323
0.0132244
0.0132188
0.0132132
0.0132075
0.0132018
0.013196
0.0131902
0.0131843
0.0131783
0.0131724
0.0131664
0.0131603
0.0131541
0.013148
0.0131417
0.0131355
0.0131291
0.0131227
0.0131163
0.0131098
0.0131032
0.0130966
0.0130899
0.0130832
0.0130764
0.0130696
0.0130627
0.0130557
0.0130487
0.0130416
0.0130345
0.0130272
0.01302
0.0130126
0.0130053
0.0129978
0.0129903
0.0129827
0.012975
0.0129673
0.0129596
0.0129517
0.0129438
0.0129358
0.0129278
0.0129197
0.0129115
0.0129032
0.0128949
0.0128865
0.0128781
0.0128695
0.0128609
0.0128522
0.0128435
0.0128347
0.0128258
0.0128168
0.0128078
0.0127987
0.0127896
0.0127806
0.0127721
0.0127654
0.013273
0.0132675
0.013262
0.0132564
0.0132508
0.0132451
0.0132394
0.0132336
0.0132278
0.013222
0.0132161
0.0132101
0.0132041
0.0131981
0.013192
0.0131859
0.0131797
0.0131734
0.0131671
0.0131608
0.0131544
0.0131479
0.0131414
0.0131348
0.0131281
0.0131214
0.0131147
0.0131079
0.013101
0.013094
0.013087
0.0130799
0.0130728
0.0130655
0.0130582
0.0130509
0.0130435
0.013036
0.0130284
0.0130207
0.013013
0.0130052
0.0129973
0.0129894
0.0129814
0.0129733
0.0129651
0.0129568
0.0129484
0.01294
0.0129315
0.0129229
0.0129142
0.0129055
0.0128966
0.0128877
0.0128786
0.0128695
0.0128603
0.012851
0.0128416
0.0128321
0.0128226
0.0128129
0.0128032
0.0127933
0.0127834
0.0127734
0.0127632
0.012753
0.0127427
0.0127323
0.0127217
0.0127111
0.0127004
0.0126896
0.0126787
0.0126677
0.0126566
0.0126454
0.012634
0.0126226
0.0126111
0.0125995
0.0125878
0.012576
0.0125644
0.0125534
0.0125449
0.0131854
0.0131789
0.0131724
0.0131658
0.0131591
0.0131524
0.0131456
0.0131388
0.0131319
0.0131249
0.0131179
0.0131108
0.0131037
0.0130965
0.0130892
0.0130819
0.0130744
0.0130669
0.0130594