/*--------------------------------*- C++ -*----------------------------------*\
  =========                 |
  \\      /  F ield         | OpenFOAM: The Open Source CFD Toolbox
   \\    /   O peration     | Website:  https://openfoam.org
    \\  /    A nd           | Version:  9
     \\/     M anipulation  |
\*---------------------------------------------------------------------------*/
FoamFile
{
    format      ascii;
    class       volScalarField;
    location    "0.0075";
    object      p;
}
// * * * * * * * * * * * * * * * * * * * * * * * * * * * * * * * * * * * * * //

dimensions      [1 -1 -2 0 0 0 0];

internalField   nonuniform List<scalar> 
5373
(
164301
164301
164301
164301
164301
164301
164302
164302
164303
164304
164304
164304
164304
164303
164302
164299
164295
164291
164285
164277
164269
164258
164244
164227
164204
164171
164301
164301
164302
164302
164302
164303
164302
164302
164300
164298
164294
164289
164283
164275
164265
164253
164237
164217
164189
164150
164301
164301
164301
164301
164301
164301
164301
164300
164298
164296
164292
164287
164281
164273
164263
164249
164232
164210
164181
164142
164301
164301
164300
164300
164300
164300
164299
164298
164297
164295
164291
164286
164280
164272
164261
164247
164229
164205
164174
164132
164301
164300
164300
164300
164300
164299
164298
164297
164296
164293
164290
164285
164279
164271
164260
164245
164227
164201
164167
164121
164301
164300
164300
164300
164299
164299
164298
164297
164295
164293
164289
164285
164279
164270
164259
164245
164225
164199
164163
164113
164300
164300
164300
164299
164298
164298
164296
164295
164292
164289
164285
164279
164270
164259
164245
164225
164198
164160
164106
164300
164300
164299
164298
164298
164296
164295
164292
164289
164285
164279
164271
164260
164245
164225
164197
164158
164102
164300
164299
164298
164298
164296
164295
164293
164290
164285
164280
164272
164261
164247
164226
164198
164158
164099
164300
164299
164299
164298
164296
164295
164293
164290
164286
164281
164273
164263
164248
164228
164199
164158
164097
164299
164299
164298
164297
164295
164293
164290
164287
164282
164274
164264
164250
164230
164201
164159
164096
164300
164299
164298
164297
164296
164294
164291
164288
164283
164276
164266
164252
164233
164204
164161
164096
164299
164298
164297
164296
164294
164292
164288
164284
164277
164268
164255
164236
164207
164163
164097
164299
164298
164296
164295
164292
164289
164285
164279
164270
164257
164239
164210
164167
164100
164299
164298
164297
164295
164293
164290
164286
164280
164272
164260
164242
164214
164170
164103
164299
164298
164297
164296
164294
164291
164287
164282
164274
164262
164245
164218
164175
164107
164299
164297
164296
164294
164292
164288
164283
164276
164265
164248
164222
164179
164111
164299
164298
164297
164295
164293
164289
164285
164278
164267
164251
164226
164184
164117
164298
164297
164295
164293
164290
164286
164279
164270
164254
164230
164189
164121
164299
164298
164296
164294
164291
164287
164281
164272
164258
164235
164196
164130
164124
164057
163979
163883
163764
163615
163420
163162
162814
162335
161665
160712
159334
157323
154354
150047
143746
135597
124228
115259
164102
164034
163953
163858
163739
163588
163392
163131
162779
162296
161620
160659
159272
157250
154272
149961
143671
135550
124233
115367
164094
164027
163947
163854
163737
163586
163389
163127
162775
162290
161613
160649
159258
157231
154251
149945
143670
135561
124281
115582
164082
164014
163934
163840
163723
163572
163374
163111
162757
162271
161590
160623
159229
157200
154220
149916
143651
135566
124323
115811
164071
164004
163924
163832
163716
163565
163367
163103
162748
162260
161577
160607
159209
157177
154194
149891
143636
135573
124358
116031
164061
163994
163915
163823
163707
163555
163356
163092
162735
162245
161559
160586
159185
157149
154165
149863
143619
135576
124383
116224
164051
163985
163907
163815
163700
163548
163349
163084
162725
162233
161544
160568
159163
157123
154136
149836
143602
135578
124400
116405
164042
163978
163900
163809
163694
163542
163342
163076
162716
162221
161530
160550
159141
157097
154107
149808
143581
135579
124409
116588
164034
163971
163894
163804
163688
163536
163336
163069
162708
162211
161517
160533
159120
157072
154078
149779
143560
135579
124413
116773
164027
163965
163890
163800
163684
163532
163331
163063
162700
162201
161505
160518
159100
157047
154050
149749
143537
135575
124416
116956
164023
163961
163887
163797
163681
163529
163328
163059
162695
162194
161494
160504
159081
157023
154022
149719
143512
135567
124421
117132
164019
163958
163885
163795
163680
163527
163326
163056
162691
162188
161486
160491
159064
157001
153995
149689
143486
135557
124427
117298
164017
163957
163885
163795
163680
163527
163325
163054
162688
162183
161478
160480
159049
156980
153968
149658
143457
135543
124434
117450
164017
163957
163885
163796
163680
163528
163326
163055
162686
162180
161473
160471
159034
156960
153942
149627
143427
135526
124439
117588
164017
163958
163886
163798
163682
163530
163328
163056
162687
162177
161468
160462
159021
156940
153916
149594
143394
135505
124444
117709
164019
163959
163889
163801
163686
163533
163331
163059
162688
162177
161464
160455
159008
156921
153889
149561
143359
135480
124448
117804
164021
163962
163891
163803
163688
163536
163334
163062
162690
162178
161460
160447
158995
156900
153861
149524
143320
135451
124450
117865
164027
163968
163897
163810
163695
163542
163339
163066
162695
162180
161460
160442
158984
156881
153833
149487
143278
135420
124451
117894
164028
163968
163899
163812
163697
163545
163342
163068
162696
162181
161457
160432
158970
156861
153804
149450
143236
135384
124446
117899
164043
163981
163910
163823
163708
163555
163351
163076
162702
162184
161459
160431
158957
156838
153768
149399
143176
135321
124405
117857
99993.5
99993.5
99993.6
99993.7
99993.8
99993.9
99994
99994
99994.1
100005
100005
100005
100005
100005
100005
100005
100005
100005
100013
100013
100013
100013
100013
100013
100013
100013
100013
100016
100016
100015
100015
100015
100015
100015
100015
100015
100024
100023
100023
100023
100023
100023
100023
100023
100023
100027
100027
100027
100027
100027
100027
100026
100026
100026
100033
100033
100033
100033
100033
100033
100033
100032
100032
100037
100037
100037
100037
100037
100037
100037
100037
100037
100043
100042
100042
100042
100042
100042
100042
100041
100047
100047
100046
100046
100046
100046
100046
100045
100051
100051
100050
100050
100050
100050
100049
100049
100054
100054
100053
100053
100052
100052
100052
100051
100056
100055
100055
100054
100054
100053
100053
100052
100055
100055
100054
100053
100053
100052
100051
100051
100052
100051
100051
100050
100049
100048
100047
100047
100045
100044
100043
100042
100041
100041
100040
100039
100034
100033
100032
100031
100030
100029
100028
100027
100017
100016
100014
100013
100012
100012
100011
100010
99994
99992.8
99991.9
99991.1
99990.5
99990.2
99990
99990
99961.4
99960.6
99960.2
99960
99960.1
99960.4
99961
99961.8
99919.8
99919.8
99920.4
99921.4
99923
99925.2
99927.8
99930.5
99870.1
99871.9
99874
99876.6
99879.7
99883.2
99887
99889.6
99820.4
99823.4
99826.9
99831
99835.6
99840.7
99845.7
99848.2
99786.4
99792
99797.9
99804.3
99811.1
99818.1
99824.5
99827.7
99769.7
99776.2
99783.1
99790.3
99798
99806
99813
99817.1
99759.1
99766.2
99773.7
99781.6
99789.8
99798.3
99805.6
99810.4
99753.7
99761
99768.6
99776.6
99785
99793.7
99801.2
99806.3
99750.6
99757.8
99765.5
99773.4
99781.7
99790.3
99797.9
99803.4
99749.2
99756.3
99763.7
99771.3
99779.3
99787.6
99795.2
99801.2
99749
99755.9
99762.9
99770.1
99777.6
99785.4
99792.9
99799.6
99750
99756.5
99763.1
99769.8
99776.6
99783.5
99790.5
99797.4
99752
99758.1
99764.2
99770.2
99776.1
99782.1
99788.1
99794.5
99754.8
99760.6
99766.1
99771.4
99776.4
99781.2
99786
99791.6
99758.3
99763.7
99768.7
99773.2
99777.4
99781.1
99784.2
99788.5
99762.4
99767.4
99771.8
99775.6
99779
99781.7
99782.8
99785.1
99767
99771.6
99775.5
99778.4
99781
99783
99781.6
99780.9
99772
99776.3
99779.7
99781.7
99783.4
99785.1
99780.7
99775
99777.2
99781.4
99784.5
99785.6
99786.3
99788.2
99780.3
99766.5
99782.4
99786.7
99789.8
99790.1
99789.8
99792.8
99780.7
99753.7
99787.2
99791.9
99795.4
99795.1
99793.8
99799.1
99782.6
99734.8
99791.3
99796.7
99800.9
99800.4
99798
99806.8
99785.8
99707.2
99794.3
99800.4
99805.6
99805.2
99802
99815
99789
99668
99796
99802.7
99809
99809
99804.8
99821.7
99789.8
99614.8
99796.2
99803.5
99810.7
99811.1
99805.8
99825.5
99787.9
99543.4
99795.2
99802.8
99810.5
99811.1
99804.5
99824.9
99783.6
99453
99793.3
99800.8
99808.7
99809.1
99800.8
99818.6
99775.9
99352.5
99791.4
99798.7
99806.3
99806.1
99795.8
99807.6
99764.8
99257.1
99789.9
99796.9
99804.3
99803.7
99791.6
99795.9
99753.9
99178.5
99788.9
99795.9
99803.3
99802.7
99789.5
99787.5
99745
99119.6
99788.4
99795.5
99803.3
99803.3
99790.6
99786.8
99741.4
99084.9
100000
100000
100001
100001
100001
100001
100001
100001
100001
100001
100001
100001
100001
100001
100001
100001
100001
100001
100001
100001
100001
100001
100001
100001
100002
100002
100002
100002
100002
100002
100002
100002
100002
100002
100002
100002
100002
100002
100002
100002
100002
100002
100002
100002
100002
100002
100002
100002
100002
100002
100000
100001
100001
100001
100002
100002
100002
100002
100002
100002
100002
100002
100002
100002
100002
100001
100001
100001
100001
100001
100001
100001
100001
100001
100001
100001
100001
100001
100001
100001
100001
100001
100001
100001
100001
100001
100001
100001
100001
100001
100001
100001
100001
100001
100001
100001
100001
100001
100001
100001
100000
100001
100002
100003
100003
100003
100004
100004
100004
100004
100004
100004
100004
100003
100003
100003
100003
100003
100003
100003
100003
100003
100003
100003
100003
100003
100003
100003
100003
100003
100003
100003
100003
100003
100003
100003
100003
100003
100003
100003
100003
100002
100002
100002
100002
100002
100002
100002
100002
100002
100000
100002
100003
100004
100004
100005
100005
100005
100005
100005
100005
100005
100005
100005
100005
100005
100004
100004
100004
100004
100004
100004
100004
100004
100004
100004
100004
100003
100003
100003
100003
100003
100003
100003
100003
100003
100003
100003
100003
100003
100003
100003
100003
100003
100003
100003
100003
100003
100003
100003
100001
100002
100004
100005
100006
100006
100007
100007
100007
100007
100007
100007
100007
100007
100006
100006
100006
100006
100006
100006
100005
100005
100005
100005
100005
100005
100005
100005
100005
100005
100005
100005
100005
100005
100005
100005
100004
100004
100004
100004
100004
100004
100004
100004
100004
100004
100004
100004
100004
100004
100001
100003
100005
100006
100007
100008
100009
100009
100009
100009
100009
100009
100009
100008
100008
100008
100008
100008
100007
100007
100007
100007
100007
100006
100006
100006
100006
100006
100006
100006
100006
100006
100006
100006
100006
100006
100006
100006
100006
100006
100006
100006
100006
100006
100006
100006
100005
100005
100005
100005
100001
100003
100006
100007
100009
100009
100010
100011
100011
100011
100011
100011
100011
100010
100010
100010
100010
100009
100009
100009
100009
100008
100008
100008
100008
100008
100008
100008
100007
100007
100007
100007
100007
100007
100007
100007
100007
100007
100007
100007
100007
100007
100007
100007
100007
100007
100007
100007
100007
100007
100001
100004
100006
100008
100010
100011
100012
100013
100013
100013
100013
100013
100013
100013
100012
100012
100012
100011
100011
100011
100011
100010
100010
100010
100010
100010
100009
100009
100009
100009
100009
100009
100009
100009
100009
100009
100009
100009
100009
100009
100009
100009
100008
100008
100008
100008
100008
100008
100008
100008
100000
100004
100007
100009
100011
100012
100014
100015
100015
100015
100015
100015
100015
100015
100015
100014
100014
100014
100013
100013
100013
100012
100012
100012
100012
100012
100011
100011
100011
100011
100011
100011
100011
100011
100011
100011
100011
100011
100010
100010
100010
100010
100010
100010
100010
100010
100010
100010
100010
100010
100000
100004
100008
100010
100012
100014
100016
100016
100017
100018
100018
100018
100018
100017
100017
100017
100016
100016
100016
100015
100015
100015
100015
100014
100014
100014
100014
100014
100013
100013
100013
100013
100013
100013
100013
100013
100013
100013
100013
100013
100013
100013
100013
100013
100013
100013
100013
100013
100012
100012
100000
100005
100008
100010
100014
100015
100017
100018
100019
100020
100020
100020
100020
100020
100020
100019
100019
100019
100018
100018
100018
100017
100017
100017
100017
100017
100016
100016
100016
100016
100016
100016
100016
100016
100016
100016
100015
100015
100015
100015
100015
100015
100015
100015
100015
100015
100015
100015
100015
100015
99999.7
100005
100009
100011
100015
100016
100019
100020
100021
100022
100022
100022
100022
100022
100022
100022
100022
100021
100021
100021
100021
100020
100020
100020
100020
100019
100019
100019
100019
100019
100019
100019
100019
100019
100019
100019
100019
100019
100018
100018
100018
100018
100018
100018
100018
100018
100018
100018
100018
100018
99999.5
100005
100009
100012
100016
100017
100020
100022
100023
100024
100024
100025
100025
100025
100024
100024
100024
100024
100024
100024
100023
100023
100023
100023
100023
100023
100023
100023
100023
100023
100022
100022
100022
100022
100022
100022
100022
100022
100022
100022
100022
100022
100022
100022
100022
100022
100022
100022
100022
100022
99999.1
100005
100010
100012
100016
100018
100021
100023
100025
100026
100026
100027
100027
100027
100027
100027
100027
100026
100026
100026
100026
100026
100026
100026
100026
100026
100026
100026
100026
100026
100026
100026
100026
100026
100026
100026
100026
100026
100026
100026
100026
100026
100026
100026
100026
100026
100026
100026
100026
100026
99998.8
100005
100010
100013
100017
100019
100023
100025
100026
100027
100028
100029
100029
100029
100029
100029
100029
100029
100029
100029
100029
100029
100030
100030
100030
100030
100030
100030
100030
100030
100030
100030
100030
100030
100030
100030
100030
100030
100030
100030
100030
100030
100030
100030
100030
100030
100030
100030
100030
100030
99998.5
100005
100010
100013
100018
100020
100024
100026
100028
100029
100030
100031
100031
100031
100031
100030
100030
100031
100031
100031
100032
100032
100033
100033
100034
100034
100034
100035
100035
100035
100035
100035
100035
100035
100035
100035
100035
100035
100035
100035
100035
100035
100034
100034
100034
100034
100034
100034
100034
100034
99998.1
100005
100011
100013
100018
100021
100025
100027
100029
100031
100032
100032
100032
100032
100032
100032
100032
100032
100032
100033
100034
100035
100036
100036
100037
100038
100038
100038
100039
100039
100039
100039
100039
100039
100039
100039
100039
100039
100039
100039
100039
100039
100039
100038
100038
100038
100038
100038
100038
100038
99997.8
100005
100011
100014
100019
100022
100026
100028
100030
100032
100033
100034
100034
100034
100033
100033
100033
100033
100033
100034
100035
100036
100038
100039
100040
100041
100041
100042
100042
100042
100043
100043
100043
100043
100043
100043
100043
100042
100042
100042
100042
100042
100042
100042
100042
100042
100042
100042
100042
100041
99997.5
100005
100011
100014
100020
100022
100026
100029
100032
100033
100035
100035
100035
100035
100034
100034
100033
100033
100033
100034
100035
100037
100039
100041
100042
100043
100044
100044
100045
100045
100045
100045
100045
100045
100045
100045
100045
100045
100045
100045
100045
100044
100044
100044
100044
100044
100044
100044
100044
100044
99997.2
100005
100011
100014
100020
100023
100027
100030
100033
100035
100036
100037
100037
100036
100035
100034
100033
100032
100033
100033
100034
100036
100038
100040
100042
100044
100045
100045
100046
100046
100046
100047
100047
100046
100046
100046
100046
100046
100046
100045
100045
100045
100045
100045
100045
100045
100045
100045
100044
100044
99996.9
100005
100012
100014
100020
100023
100028
100031
100034
100036
100037
100038
100038
100037
100036
100034
100033
100032
100031
100031
100032
100034
100037
100039
100041
100042
100044
100044
100045
100045
100046
100046
100046
100045
100045
100045
100045
100045
100044
100044
100044
100044
100044
100043
100043
100043
100043
100043
100043
100042
99996.7
100005
100012
100014
100021
100024
100028
100031
100035
100037
100039
100039
100039
100038
100036
100034
100032
100030
100029
100029
100029
100031
100033
100036
100038
100039
100040
100041
100042
100042
100042
100042
100042
100042
100042
100041
100041
100041
100040
100040
100040
100040
100039
100039
100039
100039
100039
100038
100038
100038
99996.4
100005
100012
100015
100021
100024
100029
100032
100035
100038
100040
100040
100040
100039
100037
100034
100031
100029
100026
100025
100025
100026
100028
100030
100032
100034
100035
100036
100036
100036
100037
100036
100036
100036
100035
100035
100035
100034
100034
100034
100033
100033
100033
100032
100032
100032
100032
100032
100031
100031
99996.2
100005
100012
100015
100021
100024
100029
100032
100036
100039
100041
100041
100041
100040
100037
100034
100030
100027
100023
100021
100019
100020
100021
100023
100025
100026
100027
100028
100028
100028
100028
100028
100028
100027
100027
100026
100026
100025
100025
100024
100024
100024
100023
100023
100023
100022
100022
100022
100022
100021
99996
100005
100012
100015
100021
100024
100030
100033
100037
100039
100041
100042
100042
100041
100038
100034
100030
100025
100020
100017
100013
100013
100013
100014
100015
100016
100017
100017
100017
100018
100017
100017
100016
100016
100015
100015
100014
100013
100013
100012
100012
100012
100011
100011
100010
100010
100010
100010
100009
100009
99995.8
100005
100012
100015
100022
100025
100030
100033
100037
100040
100042
100043
100043
100042
100039
100034
100029
100023
100017
100012
100006
100004
100003
100004
100004
100005
100005
100005
100005
100005
100004
100004
100003
100002
100001
100001
100000
99999.4
99998.8
99998.2
99997.6
99997.1
99996.6
99996.2
99995.8
99995.4
99995.1
99994.8
99994.5
99993.9
99995.6
100005
100012
100015
100022
100025
100030
100034
100038
100041
100043
100044
100044
100042
100039
100034
100028
100021
100013
100007
99999.2
99995.6
99992.9
99992
99991.8
99991.7
99991.7
99991.5
99991.2
99990.7
99989.8
99988.8
99987.8
99986.8
99985.9
99985
99984.2
99983.4
99982.7
99982
99981.4
99980.8
99980.3
99979.8
99979.3
99978.9
99978.6
99978.2
99977.8
99977.2
99995.4
100005
100012
100015
100022
100025
100030
100034
100038
100041
100044
100045
100045
100043
100040
100034
100027
100019
100010
100002
99992.4
99986.7
99982.1
99979.9
99978.8
99978.2
99977.7
99977.1
99976.4
99975.5
99974.2
99972.8
99971.4
99970.1
99969
99967.9
99967
99966.1
99965.3
99964.5
99963.8
99963.2
99962.6
99962
99961.5
99961
99960.6
99960.3
99959.8
99959.2
99995.3
100005
100013
100015
100022
100025
100031
100034
100039
100042
100044
100046
100045
100044
100040
100034
100027
100018
100008
99998
99985.8
99977.9
99971.2
99967.6
99965.6
99964.4
99963.4
99962.3
99961.2
99959.8
99958.1
99956.2
99954.4
99952.7
99951.3
99950.1
99948.9
99947.9
99947
99946.1
99945.4
99944.6
99944
99943.4
99942.8
99942.3
99941.9
99941.5
99941
99940.4
99995.2
100005
100013
100015
100022
100025
100031
100035
100039
100042
100045
100046
100046
100044
100041
100035
100027
100017
100005
99993.8
99979.6
99969.4
99960.4
99955.5
99952.6
99950.7
99949.2
99947.7
99946
99944.2
99941.9
99939.5
99937.2
99935.2
99933.5
99932
99930.6
99929.4
99928.4
99927.4
99926.6
99925.8
99925.1
99924.4
99923.8
99923.3
99922.8
99922.4
99921.8
99921.2
99995
100005
100013
100015
100022
100025
100031
100035
100039
100042
100045
100047
100047
100045
100041
100035
100026
100016
100003
99989.9
99973.9
99961.4
99950.1
99943.8
99940
99937.5
99935.6
99933.5
99931.3
99928.9
99926.2
99923.2
99920.4
99918
99915.9
99914.1
99912.5
99911.1
99909.9
99908.9
99907.9
99907.1
99906.3
99905.6
99905
99904.4
99903.9
99903.4
99902.9
99902.2
99994.9
100005
100013
100015
100022
100026
100031
100035
100040
100043
100046
100047
100047
100046
100042
100035
100026
100015
100001
99986.2
99968.7
99953.8
99940.4
99932.8
99928.1
99925.1
99922.6
99920.1
99917.3
99914.5
99911.2
99907.7
99904.4
99901.5
99899
99896.9
99895
99893.4
99892.1
99890.9
99889.9
99888.9
99888.1
99887.4
99886.7
99886.1
99885.5
99885.1
99884.5
99883.9
99994.8
100005
100013
100015
100023
100026
100031
100035
100040
100043
100046
100048
100048
100046
100042
100035
100026
100014
99999.5
99982.9
99964.1
99946.9
99931.3
99922.5
99917.1
99913.5
99910.5
99907.6
99904.3
99901.1
99897.3
99893.3
99889.5
99886.2
99883.2
99880.7
99878.6
99876.8
99875.3
99873.9
99872.8
99871.8
99870.9
99870.1
99869.4
99868.7
99868.1
99867.6
99866.9
99866.5
99994.8
100005
100013
100015
100023
100026
100032
100035
100040
100043
100046
100048
100048
100047
100043
100036
100026
100013
99998
99980
99960.1
99940.5
99923
99913.1
99907
99902.8
99899.5
99896.1
99892.4
99888.8
99884.6
99880.2
99875.9
99872.2
99868.8
99866
99863.6
99861.5
99859.7
99858.2
99857
99855.8
99854.8
99853.9
99853.1
99852.4
99851.8
99851.2
99850.5
99850.2
99994.7
100005
100013
100015
100023
100026
100032
100036
100040
100044
100047
100048
100049
100047
100043
100036
100026
100012
99996.7
99977.5
99956.6
99934.7
99915.4
99904.5
99897.8
99893.2
99889.5
99885.7
99881.7
99877.6
99873.1
99868.3
99863.7
99859.6
99855.9
99852.8
99850.1
99847.8
99845.8
99844.1
99842.7
99841.4
99840.3
99839.2
99838.3
99837.5
99836.7
99836
99835.2
99835.1
99994.6
100005
100013
100015
100023
100026
100032
100036
100040
100044
100047
100049
100049
100047
100043
100036
100026
100012
99995.6
99975.3
99953.5
99929.6
99908.5
99896.8
99889.4
99884.4
99880.4
99876.4
99872.1
99867.7
99862.9
99857.8
99852.9
99848.5
99844.6
99841.3
99838.4
99835.9
99833.7
99831.9
99830.2
99828.8
99827.4
99826.1
99825
99823.9
99822.9
99821.8
99820.8
99820.6
99994.6
100005
100013
100015
100023
100026
100032
100036
100040
100044
100047
100049
100050
100048
100044
100037
100026
100012
99994.7
99973.3
99950.8
99924.9
99902.3
99889.8
99882
99876.6
99872.3
99868
99863.5
99858.8
99853.8
99848.6
99843.5
99838.9
99834.9
99831.3
99828.3
99825.6
99823.3
99821.2
99819.2
99817.4
99815.7
99814.1
99812.5
99811.1
99809.7
99808.3
99807
99806.2
99994.5
100005
100013
100015
100023
100026
100032
100036
100041
100044
100047
100049
100050
100048
100044
100037
100026
100011
99993.9
99971.6
99948.5
99920.8
99896.7
99883.6
99875.4
99869.7
99865.1
99860.6
99855.9
99850.9
99845.9
99840.6
99835.4
99830.7
99826.5
99822.9
99819.8
99817
99814.5
99812.2
99810
99808
99806
99804
99802.1
99800.2
99798.4
99796.6
99794.7
99792.7
99994.5
100005
100013
100015
100023
100026
100032
100036
100041
100044
100048
100050
100050
100048
100044
100037
100026
100011
99993.2
99970.2
99946.5
99917.1
99891.7
99878.1
99869.5
99863.5
99858.7
99854.2
99849.2
99844
99839
99833.6
99828.4
99823.7
99819.6
99816
99812.9
99810.1
99807.6
99805.2
99802.8
99800.5
99798.1
99795.7
99793.2
99790.6
99788.2
99785.8
99782.5
99778.1
99994.4
100005
100013
100015
100023
100026
100032
100036
100041
100045
100048
100050
100050
100049
100045
100037
100026
100011
99992.7
99969
99944.7
99913.9
99887.3
99873.1
99864.3
99858
99853.1
99848.4
99843.4
99838
99833
99827.6
99822.5
99817.9
99813.8
99810.4
99807.4
99804.8
99802.4
99800
99797.5
99794.8
99792
99789
99785.8
99782.6
99779.4
99775.8
99770
99763.8
99994.4
100005
100013
100015
100023
100026
100032
100036
100041
100045
100048
100050
100051
100049
100045
100037
100026
100011
99992.2
99967.9
99943.2
99911
99883.4
99868.8
99859.7
99853.2
99848.1
99843.2
99838.2
99832.8
99827.8
99822.5
99817.5
99813
99809.1
99805.9
99803.2
99800.9
99798.7
99796.5
99794
99791.1
99788
99784.5
99780.5
99776.3
99772.5
99768.1
99757.9
99747
99994.4
100005
100013
100015
100023
100026
100032
100036
100041
100045
100048
100050
100051
100049
100045
100038
100027
100011
99991.8
99966.9
99941.8
99908.5
99879.9
99865
99855.6
99849
99843.7
99838.8
99833.7
99828.4
99823.3
99818.1
99813.3
99808.9
99805.2
99802.3
99800
99798.1
99796.2
99794.2
99791.7
99788.7
99785.1
99780.7
99775.5
99769.8
99765.2
99759.2
99737.3
99712.8
99994.3
100005
100013
100015
100023
100026
100032
100036
100041
100045
100048
100050
100051
100049
100045
100038
100027
100011
99991.5
99966.1
99940.7
99906.2
99876.8
99861.6
99852.1
99845.2
99839.9
99834.9
99829.9
99824.5
99819.4
99814.4
99809.7
99805.5
99802
99799.4
99797.5
99796
99794.5
99792.6
99790.1
99786.7
99782.3
99776.5
99768.1
99757.8
99750.2
99738.9
99687.7
99629.1
99994.3
100005
100013
100015
100023
100026
100032
100036
100041
100045
100048
100050
100051
100050
100046
100038
100027
100010
99991.2
99965.3
99939.6
99904.2
99874.1
99858.6
99848.9
99842
99836.6
99831.5
99826.7
99821.2
99816
99811.2
99806.6
99802.6
99799.3
99797
99795.4
99794.3
99793
99791.2
99788.5
99784.3
99778
99768.3
99752.2
99730.2
99711.9
99681.7
99566.5
99442.4
99994.3
100005
100013
100015
100023
100026
100032
100036
100041
100045
100048
100051
100051
100050
100046
100038
100027
100010
99990.9
99964.7
99938.8
99902.5
99871.7
99855.9
99846.2
99839.1
99833.6
99828.4
99823.8
99818.3
99813.1
99808.4
99804
99800.1
99797
99794.9
99793.6
99792.8
99791.7
99790
99786.8
99781.2
99771.6
99754.7
99723.8
99677.7
99631.1
99555.1
99333
99104.5
99994.3
100005
100013
100015
100023
100026
100032
100036
100041
100045
100049
100051
100051
100050
100046
100038
100027
100010
99990.7
99964.1
99938
99900.9
99869.6
99853.6
99843.8
99836.5
99831
99825.8
99821.1
99815.8
99810.6
99806
99801.7
99798
99795
99793.1
99792
99791.3
99790.5
99788.8
99785.2
99777.6
99762.6
99733.7
99678.6
99592.6
99488.5
99322
98962.4
98629.3
99994.2
100005
100013
100015
100023
100026
100032
100036
100041
100045
100049
100051
100052
100050
100046
100038
100027
100010
99990.5
99963.7
99937.3
99899.6
99867.7
99851.6
99841.6
99834.3
99828.7
99823.5
99818.7
99813.6
99808.3
99804
99799.7
99796.2
99793.3
99791.5
99790.4
99789.7
99789.2
99787.7
99783.8
99774
99752.4
99709.9
99629.3
99495.4
99305.6
99022.6
98589.2
98191.8
99994.2
100005
100013
100015
100023
100026
100032
100036
100041
100045
100049
100051
100052
100050
100046
100038
100027
100010
99990.4
99963.3
99936.9
99898.4
99866.2
99849.9
99839.9
99832.5
99826.8
99821.6
99816.6
99811.7
99806.4
99802.2
99798
99794.6
99791.8
99790
99788.9
99788.2
99788
99787.2
99784
99774.6
99751.4
99698.8
99593.6
99412
99124.1
98694.7
98159.9
97679.4
99994.2
100005
100013
100015
100023
100026
100032
100036
100041
100045
100049
100051
100052
100050
100046
100038
100027
100010
99990.2
99962.8
99936.3
99897.5
99864.9
99848.4
99838.3
99830.8
99825.1
99819.9
99814.9
99810
99804.7
99800.8
99796.6
99793.2
99790.5
99788.7
99787.4
99786.6
99786.9
99787
99784.6
99775.4
99750.6
99693.5
99578.5
99382.7
99053
98515.5
97920.5
97497.4
99994.2
100005
100013
100015
100023
100026
100032
100036
100041
100045
100049
100051
100052
100050
100046
100038
100027
100010
99989.9
99962.3
99934.9
99896.7
99862.5
99845.3
99834.9
99827.2
99821.8
99817
99812.5
99808.3
99803.5
99799.5
99795.3
99791.8
99789
99787.1
99785.7
99785.3
99786.7
99789.8
99793.3
99794
99779.9
99732.8
99625.4
99425.5
99071.1
98442.5
97627.5
97008.9
100001
100002
100002
100002
100002
100002
100002
100002
100002
100002
100002
100002
100002
100002
100002
100002
100002
100001
100001
100001
100001
100001
100001
100001
100000
100001
100001
100000
100000
100000
100000
99999.9
99999.7
99999.6
99999.5
99999.4
99999.4
99999.3
99999.3
99999.4
99999.4
99999.4
99999.4
99999.5
99999.5
99999.5
99999.5
99999.5
99999.5
99999.4
100002
100002
100002
100002
100002
100002
100002
100002
100002
100002
100002
100001
100001
100001
100001
100001
100001
100001
100001
100001
100001
100000
100000
100000
100000
99999.8
100003
100003
100003
100003
100003
100002
100002
100002
100002
100002
100002
100002
100002
100002
100001
100001
100001
100001
100001
100001
100001
100000
100000
100000
99999.9
99999.7
100004
100004
100004
100004
100004
100004
100003
100003
100003
100003
100003
100003
100003
100003
100002
100002
100002
100002
100002
100001
100001
100001
100001
100000
100000
100000
100005
100005
100005
100005
100005
100005
100004
100004
100004
100004
100004
100004
100004
100003
100003
100003
100003
100003
100002
100002
100002
100001
100001
100001
100001
100000
100007
100007
100006
100006
100006
100006
100006
100006
100005
100005
100005
100005
100005
100004
100004
100004
100004
100004
100003
100003
100003
100002
100002
100001
100001
100001
100008
100008
100008
100008
100008
100007
100007
100007
100007
100007
100007
100006
100006
100006
100006
100005
100005
100005
100004
100004
100004
100003
100003
100002
100002
100001
100010
100010
100010
100010
100009
100009
100009
100009
100009
100008
100008
100008
100008
100007
100007
100007
100006
100006
100006
100005
100005
100004
100004
100003
100003
100002
100012
100012
100012
100012
100012
100011
100011
100011
100011
100011
100010
100010
100010
100009
100009
100009
100008
100008
100007
100007
100006
100006
100005
100004
100004
100003
100015
100015
100015
100015
100014
100014
100014
100014
100013
100013
100013
100013
100012
100012
100011
100011
100010
100010
100009
100009
100008
100007
100006
100006
100005
100004
100018
100018
100018
100018
100017
100017
100017
100017
100016
100016
100016
100015
100015
100014
100014
100013
100013
100012
100011
100011
100010
100009
100008
100007
100006
100006
100022
100022
100021
100021
100021
100021
100020
100020
100020
100019
100019
100018
100018
100017
100017
100016
100015
100015
100014
100013
100012
100011
100010
100009
100008
100007
100006
100026
100025
100025
100025
100025
100024
100024
100024
100023
100023
100022
100022
100021
100021
100020
100019
100018
100017
100016
100015
100014
100013
100012
100011
100010
100008
100007
100030
100030
100029
100029
100029
100028
100028
100028
100027
100027
100026
100025
100025
100024
100023
100022
100021
100020
100019
100018
100016
100015
100014
100012
100011
100010
100009
100034
100034
100034
100033
100033
100032
100032
100031
100031
100030
100029
100029
100028
100027
100026
100025
100024
100022
100021
100020
100018
100017
100015
100014
100012
100011
100009
100038
100038
100037
100037
100037
100036