/*--------------------------------*- C++ -*----------------------------------*\
  =========                 |
  \\      /  F ield         | OpenFOAM: The Open Source CFD Toolbox
   \\    /   O peration     | Website:  https://openfoam.org
    \\  /    A nd           | Version:  9
     \\/     M anipulation  |
\*---------------------------------------------------------------------------*/
FoamFile
{
    format      ascii;
    class       volScalarField;
    location    "0.0075";
    object      T;
}
// * * * * * * * * * * * * * * * * * * * * * * * * * * * * * * * * * * * * * //

dimensions      [0 0 0 1 0 0 0];

internalField   nonuniform List<scalar> 
5373
(
298.003
298.003
298.002
298.002
298.002
298.001
298.002
298.002
298.003
298.003
298.003
298.003
298.003
298.002
298.001
298
297.998
297.996
297.993
297.989
297.985
297.98
297.974
297.967
297.957
297.944
298.002
298.002
298.002
298.002
298.002
298.002
298.002
298.001
298
297.999
297.997
297.994
297.991
297.987
297.981
297.975
297.967
297.957
297.943
297.926
298.002
298.002
298.002
298.001
298.001
298.001
298.001
298
297.999
297.998
297.996
297.993
297.99
297.985
297.98
297.973
297.964
297.952
297.937
297.917
298.001
298.001
298.001
298.001
298
298
298
297.999
297.998
297.997
297.995
297.992
297.989
297.985
297.979
297.972
297.962
297.95
297.933
297.911
298
298
298
298
297.999
297.999
297.999
297.998
297.997
297.996
297.994
297.991
297.988
297.984
297.978
297.971
297.961
297.948
297.93
297.906
298
297.999
297.999
297.999
297.999
297.998
297.998
297.997
297.996
297.995
297.993
297.991
297.988
297.983
297.978
297.97
297.96
297.946
297.927
297.902
297.999
297.999
297.998
297.998
297.998
297.997
297.996
297.996
297.994
297.993
297.99
297.987
297.983
297.977
297.97
297.96
297.945
297.926
297.899
297.998
297.998
297.998
297.997
297.997
297.996
297.995
297.994
297.992
297.99
297.987
297.983
297.977
297.97
297.959
297.945
297.924
297.896
297.997
297.997
297.997
297.996
297.996
297.995
297.994
297.992
297.99
297.987
297.983
297.978
297.97
297.96
297.945
297.924
297.894
297.997
297.997
297.997
297.996
297.996
297.995
297.994
297.992
297.99
297.988
297.984
297.978
297.971
297.96
297.945
297.923
297.892
297.997
297.997
297.996
297.996
297.995
297.994
297.993
297.991
297.988
297.984
297.979
297.972
297.961
297.946
297.924
297.89
297.997
297.997
297.996
297.996
297.995
297.995
297.993
297.992
297.989
297.986
297.98
297.973
297.963
297.947
297.925
297.889
297.997
297.997
297.997
297.996
297.995
297.994
297.993
297.99
297.987
297.982
297.975
297.965
297.949
297.926
297.89
297.998
297.997
297.997
297.996
297.995
297.994
297.992
297.988
297.984
297.977
297.967
297.952
297.929
297.89
297.998
297.998
297.998
297.997
297.996
297.995
297.993
297.99
297.986
297.979
297.969
297.954
297.931
297.892
297.999
297.999
297.999
297.998
297.997
297.996
297.994
297.992
297.987
297.981
297.972
297.957
297.935
297.894
298
298
297.999
297.998
297.997
297.996
297.993
297.989
297.984
297.975
297.96
297.938
297.897
298.001
298
298
297.999
297.998
297.997
297.995
297.991
297.986
297.978
297.964
297.942
297.901
298.001
298.001
298
297.999
297.998
297.996
297.993
297.989
297.982
297.969
297.949
297.908
298.002
298.001
298.001
298
298
297.998
297.997
297.994
297.989
297.98
297.964
297.933
297.927
297.905
297.878
297.846
297.807
297.758
297.696
297.613
297.503
297.352
297.142
296.846
296.424
295.81
294.931
293.635
291.855
289.194
286.385
282.27
297.902
297.871
297.832
297.786
297.729
297.657
297.563
297.441
297.275
297.05
296.736
296.294
295.664
294.75
293.435
291.49
288.861
285.01
281.108
275.955
297.892
297.86
297.82
297.771
297.71
297.632
297.53
297.395
297.212
296.962
296.611
296.113
295.394
294.342
292.81
290.52
287.366
282.665
277.789
270.871
297.885
297.853
297.813
297.764
297.704
297.626
297.524
297.387
297.203
296.948
296.591
296.08
295.341
294.253
292.658
290.265
286.93
281.94
276.55
268.959
297.879
297.847
297.807
297.759
297.699
297.62
297.517
297.38
297.194
296.938
296.578
296.065
295.322
294.229
292.625
290.216
286.844
281.787
276.26
268.466
297.874
297.842
297.802
297.755
297.694
297.615
297.512
297.374
297.187
296.93
296.569
296.053
295.308
294.211
292.605
290.195
286.827
281.758
276.278
268.329
297.869
297.838
297.798
297.75
297.69
297.611
297.507
297.368
297.181
296.922
296.559
296.041
295.293
294.194
292.586
290.175
286.817
281.732
276.366
268.13
297.865
297.833
297.794
297.747
297.686
297.607
297.502
297.363
297.174
296.914
296.549
296.029
295.279
294.177
292.567
290.153
286.809
281.691
276.519
267.655
297.861
297.83
297.791
297.744
297.683
297.603
297.499
297.359
297.169
296.907
296.54
296.018
295.265
294.16
292.548
290.131
286.8
281.638
276.74
266.722
297.858
297.827
297.789
297.741
297.68
297.601
297.495
297.355
297.164
296.901
296.532
296.008
295.251
294.143
292.529
290.109
286.789
281.593
276.943
265.716
297.855
297.825
297.786
297.739
297.678
297.599
297.493
297.352
297.16
296.895
296.525
295.998
295.239
294.128
292.51
290.088
286.775
281.561
277.043
265.54
297.853
297.823
297.785
297.738
297.677
297.597
297.491
297.35
297.157
296.891
296.519
295.99
295.228
294.114
292.493
290.067
286.76
281.537
277.097
265.563
297.852
297.822
297.785
297.738
297.677
297.597
297.491
297.349
297.155
296.888
296.515
295.983
295.219
294.1
292.476
290.048
286.744
281.52
277.131
265.606
297.852
297.823
297.785
297.738
297.678
297.598
297.491
297.349
297.154
296.887
296.511
295.978
295.21
294.089
292.461
290.029
286.727
281.503
277.16
265.617
297.853
297.824
297.787
297.74
297.679
297.599
297.493
297.35
297.155
296.886
296.509
295.973
295.203
294.077
292.445
290.01
286.708
281.491
277.178
265.69
297.855
297.825
297.789
297.742
297.681
297.601
297.495
297.352
297.156
296.886
296.508
295.97
295.196
294.067
292.431
289.992
286.694
281.5
277.21
266.006
297.857
297.828
297.791
297.745
297.684
297.605
297.498
297.355
297.159
296.888
296.508
295.969
295.193
294.064
292.43
290.001
286.738
281.61
277.52
266.48
297.861
297.832
297.795
297.749
297.689
297.609
297.503
297.36
297.165
296.895
296.517
295.981
295.214
294.102
292.509
290.168
287.081
282.251
278.729
268.563
297.868
297.84
297.805
297.761
297.703
297.626
297.525
297.388
297.203
296.949
296.596
296.103
295.408
294.42
293.031
291.04
288.469
284.447
282.106
273.247
297.906
297.883
297.855
297.821
297.777
297.719
297.643
297.543
297.41
297.229
296.983
296.642
296.168
295.501
294.564
293.23
291.532
288.813
286.971
279.608
297.98
297.98
297.98
297.98
297.98
297.98
297.98
297.98
297.98
298.014
298.014
298.014
298.014
298.014
298.014
298.014
298.014
298.014
298.012
298.012
298.012
298.011
298.011
298.011
298.011
298.011
298.011
298.017
298.017
298.017
298.017
298.017
298.017
298.016
298.016
298.016
298.021
298.021
298.021
298.021
298.021
298.021
298.021
298.021
298.021
298.025
298.025
298.025
298.025
298.025
298.025
298.025
298.025
298.025
298.03
298.03
298.029
298.029
298.029
298.029
298.029
298.029
298.029
298.033
298.033
298.033
298.033
298.033
298.033
298.033
298.033
298.033
298.037
298.037
298.037
298.037
298.037
298.037
298.037
298.036
298.041
298.041
298.041
298.04
298.04
298.04
298.04
298.04
298.044
298.044
298.044
298.043
298.043
298.043
298.043
298.042
298.047
298.046
298.046
298.046
298.045
298.045
298.045
298.044
298.048
298.048
298.047
298.047
298.046
298.046
298.045
298.045
298.048
298.047
298.046
298.046
298.045
298.045
298.044
298.044
298.045
298.044
298.043
298.043
298.042
298.041
298.041
298.04
298.039
298.038
298.037
298.036
298.035
298.035
298.034
298.033
298.029
298.028
298.027
298.026
298.025
298.024
298.024
298.023
298.013
298.012
298.011
298.01
298.009
298.009
298.008
298.007
297.989
297.987
297.986
297.985
297.985
297.984
297.984
297.983
297.954
297.954
297.954
297.954
297.955
297.956
297.957
297.959
297.932
297.935
297.938
297.942
297.947
297.952
297.958
297.964
297.95
297.956
297.963
297.97
297.977
297.984
297.992
298
297.943
297.949
297.954
297.96
297.967
297.973
297.981
297.988
297.895
297.903
297.912
297.921
297.93
297.939
297.949
297.959
297.879
297.89
297.9
297.911
297.922
297.933
297.944
297.955
297.888
297.899
297.91
297.922
297.933
297.944
297.956
297.967
297.91
297.921
297.932
297.943
297.955
297.966
297.978
297.989
297.934
297.945
297.957
297.968
297.98
297.992
298.004
298.016
297.957
297.97
297.982
297.994
298.006
298.018
298.031
298.043
297.978
297.991
298.005
298.018
298.031
298.044
298.058
298.071
297.992
298.008
298.023
298.038
298.053
298.067
298.082
298.096
297.994
298.014
298.033
298.051
298.068
298.085
298.101
298.117
297.977
298.003
298.028
298.051
298.072
298.092
298.111
298.129
297.927
297.962
297.996
298.027
298.056
298.082
298.106
298.129
297.831
297.876
297.921
297.964
298.005
298.042
298.076
298.108
297.68
297.732
297.787
297.843
297.899
297.954
298.005
298.053
297.48
297.53
297.587
297.652
297.722
297.796
297.871
297.943
297.251
297.285
297.332
297.393
297.468
297.556
297.652
297.754
297.023
297.028
297.049
297.088
297.148
297.235
297.344
297.469
296.834
296.801
296.779
296.776
296.798
296.857
296.955
297.086
296.715
296.641
296.571
296.51
296.47
296.47
296.518
296.62
296.683
296.576
296.461
296.341
296.228
296.143
296.099
296.117
296.736
296.612
296.468
296.303
296.123
295.948
295.787
295.667
296.86
296.737
296.587
296.403
296.181
295.934
295.655
295.36
297.034
296.927
296.794
296.621
296.396
296.115
295.746
295.267
297.236
297.154
297.052
296.915
296.725
296.462
296.057
295.402
297.441
297.386
297.322
297.238
297.115
296.917
296.534
295.748
297.612
297.573
297.539
297.506
297.463
297.38
297.11
296.246
297.709
297.663
297.623
297.591
297.575
297.591
297.603
296.821
297.713
297.657
297.595
297.524
297.451
297.408
297.427
297.341
297.989
298.007
298.003
298.002
298.002
298.002
298.002
298.002
298.002
298.002
298.001
298.001
298.001
298.001
298.001
298.001
298.001
298.001
298.001
298.001
298.001
298.001
298.001
298.001
298.001
298.001
298.001
298.001
298.001
298.001
298.001
298.001
298.001
298.001
298.001
298.001
298
298
298
298
298
298
298
298
298
298
298
298
298
298
297.989
298.008
298.003
298.004
298.004
298.004
298.004
298.004
298.004
298.003
298.003
298.003
298.003
298.003
298.003
298.003
298.003
298.002
298.002
298.002
298.002
298.002
298.002
298.002
298.002
298.002
298.002
298.002
298.002
298.002
298.002
298.002
298.002
298.002
298.002
298.002
298.002
298.002
298.002
298.002
298.002
298.002
298.002
298.002
298.002
298.002
298.002
298.002
298.002
298.002
297.988
298.009
298.004
298.004
298.004
298.005
298.005
298.005
298.005
298.005
298.004
298.004
298.004
298.004
298.004
298.003
298.003
298.003
298.003
298.003
298.003
298.003
298.003
298.003
298.003
298.002
298.002
298.002
298.002
298.002
298.002
298.002
298.002
298.003
298.003
298.003
298.003
298.003
298.003
298.003
298.003
298.003
298.003
298.003
298.004
298.004
298.004
298.004
298.004
298.004
297.988
298.01
298.004
298.005
298.006
298.006
298.006
298.006
298.006
298.006
298.006
298.006
298.005
298.005
298.005
298.005
298.005
298.004
298.004
298.004
298.004
298.004
298.004
298.004
298.004
298.004
298.004
298.004
298.004
298.005
298.005
298.006
298.006
298.007
298.007
298.008
298.008
298.009
298.009
298.01
298.01
298.01
298.011
298.011
298.011
298.011
298.011
298.012
298.012
298.012
297.988
298.01
298.005
298.006
298.007
298.007
298.008
298.008
298.008
298.007
298.007
298.007
298.007
298.006
298.006
298.006
298.006
298.006
298.005
298.005
298.005
298.005
298.005
298.005
298.005
298.006
298.006
298.007
298.009
298.01
298.011
298.013
298.014
298.016
298.017
298.018
298.02
298.021
298.022
298.022
298.023
298.024
298.024
298.025
298.025
298.026
298.026
298.026
298.027
298.027
297.988
298.011
298.005
298.007
298.008
298.009
298.009
298.009
298.009
298.009
298.009
298.009
298.008
298.008
298.008
298.007
298.007
298.007
298.007
298.006
298.006
298.006
298.006
298.007
298.008
298.01
298.012
298.014
298.017
298.02
298.023
298.026
298.029
298.032
298.034
298.036
298.038
298.039
298.041
298.042
298.043
298.044
298.045
298.045
298.046
298.046
298.047
298.047
298.048
298.048
297.987
298.011
298.006
298.008
298.009
298.01
298.011
298.011
298.011
298.011
298.011
298.01
298.01
298.01
298.009
298.009
298.009
298.008
298.008
298.008
298.008
298.008
298.009
298.01
298.013
298.017
298.022
298.027
298.032
298.037
298.041
298.046
298.049
298.053
298.056
298.058
298.06
298.062
298.064
298.065
298.066
298.067
298.068
298.068
298.069
298.07
298.07
298.07
298.071
298.071
297.987
298.012
298.007
298.009
298.01
298.011
298.012
298.012
298.013
298.012
298.012
298.012
298.012
298.012
298.011
298.011
298.011
298.01
298.01
298.01
298.009
298.01
298.012
298.016
298.022
298.029
298.036
298.044
298.051
298.058
298.063
298.068
298.072
298.075
298.078
298.08
298.082
298.084
298.085
298.086
298.087
298.088
298.088
298.089
298.089
298.09
298.09
298.09
298.09
298.091
297.987
298.012
298.007
298.01
298.011
298.013
298.014
298.014
298.014
298.014
298.014
298.014
298.014
298.013
298.013
298.013
298.012
298.012
298.012
298.011
298.011
298.013
298.017
298.024
298.034
298.044
298.055
298.064
298.072
298.079
298.084
298.089
298.092
298.095
298.097
298.098
298.099
298.1
298.101
298.102
298.102
298.103
298.103
298.103
298.103
298.104
298.104
298.104
298.104
298.104
297.987
298.013
298.007
298.011
298.012
298.014
298.015
298.016
298.016
298.016
298.016
298.016
298.016
298.016
298.015
298.015
298.014
298.014
298.014
298.013
298.014
298.017
298.025
298.036
298.049
298.063
298.075
298.085
298.093
298.098
298.103
298.105
298.108
298.109
298.11
298.111
298.111
298.112
298.112
298.112
298.112
298.112
298.112
298.112
298.112
298.112
298.112
298.112
298.112
298.112
297.986
298.013
298.008
298.012
298.013
298.015
298.016
298.017
298.018
298.018
298.018
298.018
298.018
298.018
298.017
298.017
298.017
298.016
298.016
298.015
298.017
298.023
298.034
298.05
298.067
298.082
298.095
298.104
298.11
298.114
298.116
298.118
298.119
298.119
298.119
298.119
298.119
298.119
298.119
298.119
298.118
298.118
298.118
298.118
298.118
298.118
298.118
298.118
298.118
298.118
297.986
298.013
298.008
298.012
298.014
298.016
298.018
298.019
298.019
298.02
298.02
298.02
298.02
298.02
298.019
298.019
298.019
298.018
298.018
298.018
298.02
298.029
298.045
298.065
298.085
298.101
298.112
298.119
298.123
298.125
298.126
298.126
298.126
298.126
298.126
298.125
298.125
298.125
298.125
298.125
298.124
298.124
298.124
298.124
298.124
298.124
298.124
298.124
298.124
298.124
297.986
298.013
298.009
298.013
298.015
298.017
298.019
298.02
298.021
298.021
298.022
298.022
298.022
298.022
298.021
298.021
298.021
298.021
298.02
298.02
298.024
298.036
298.057
298.081
298.102
298.118
298.127
298.132
298.134
298.134
298.134
298.134
298.133
298.133
298.132
298.132
298.132
298.132
298.132
298.132
298.133
298.133
298.133
298.133
298.133
298.134
298.134
298.134
298.134
298.134
297.985
298.013
298.009
298.013
298.015
298.018
298.02
298.021
298.022
298.023
298.023
298.024
298.024
298.023
298.023
298.023
298.023
298.023
298.022
298.022
298.028
298.044
298.07
298.097
298.119
298.132
298.139
298.142
298.142
298.142
298.141
298.14
298.14
298.14
298.14
298.141
298.142
298.142
298.143
298.144
298.145
298.145
298.146
298.147
298.147
298.148
298.148
298.148
298.149
298.149
297.985
298.014
298.009
298.014
298.016
298.019
298.021
298.023
298.024
298.025
298.025
298.025
298.025
298.025
298.025
298.025
298.025
298.024
298.024
298.024
298.032
298.052
298.083
298.112
298.133
298.145
298.149
298.15
298.15
298.149
298.149
298.149
298.149
298.15
298.152
298.153
298.155
298.157
298.158
298.16
298.161
298.162
298.164
298.165
298.166
298.166
298.167
298.168
298.168
298.169
297.985
298.014
298.009
298.014
298.017
298.02
298.022
298.024
298.025
298.026
298.027
298.027
298.027
298.027
298.026
298.026
298.026
298.026
298.025
298.026
298.035
298.06
298.095
298.126
298.146
298.155
298.158
298.157
298.157
298.157
298.157
298.159
298.161
298.164
298.167
298.17
298.172
298.175
298.178
298.18
298.182
298.184
298.185
298.187
298.188
298.189
298.19
298.191
298.192
298.193
297.984
298.014
298.009
298.014
298.017
298.02
298.023
298.025
298.026
298.027
298.028
298.028
298.028
298.028
298.028
298.027
298.027
298.027
298.026
298.027
298.038
298.068
298.107
298.138
298.156
298.163
298.165
298.164
298.164
298.165
298.168
298.172
298.176
298.18
298.184
298.189
298.193
298.197
298.2
298.203
298.206
298.208
298.21
298.212
298.214
298.215
298.216
298.217
298.218
298.219
297.984
298.014
298.01
298.015
298.018
298.021
298.023
298.026
298.027
298.029
298.029
298.03
298.03
298.029
298.029
298.028
298.028
298.027
298.026
298.028
298.04
298.075
298.117
298.149
298.165
298.17
298.17
298.17
298.172
298.175
298.18
298.186
298.192
298.198
298.204
298.21
298.215
298.22
298.224
298.228
298.231
298.234
298.236
298.238
298.24
298.242
298.243
298.244
298.245
298.246
297.984
298.014
298.01
298.015
298.018
298.021
298.024
298.026
298.028
298.03
298.031
298.031
298.031
298.03
298.03
298.029
298.028
298.028
298.026
298.028
298.042
298.081
298.126
298.157
298.171
298.174
298.175
298.176
298.18
298.186
298.193
298.201
298.209
298.218
298.225
298.232
298.238
298.244
298.249
298.253
298.257
298.26
298.262
298.265
298.266
298.268
298.27
298.271
298.272
298.273
297.983
298.014
298.01
298.015
298.018
298.022
298.025
298.027
298.029
298.031
298.032
298.032
298.032
298.031
298.03
298.029
298.028
298.027
298.025
298.026
298.043
298.086
298.133
298.163
298.175
298.177
298.178
298.181
298.187
298.196
298.206
298.216
298.227
298.237
298.246
298.254
298.261
298.267
298.272
298.277
298.281
298.284
298.286
298.289
298.291
298.292
298.294
298.295
298.296
298.297
297.983
298.014
298.01
298.015
298.019
298.022
298.025
298.028
298.03
298.032
298.033
298.033
298.033
298.032
298.031
298.029
298.028
298.026
298.023
298.024
298.042
298.089
298.137
298.166
298.176
298.177
298.179
298.184
298.193
298.205
298.218
298.231
298.243
298.255
298.265
298.274
298.282
298.288
298.294
298.298
298.302
298.305
298.308
298.31
298.312
298.313
298.315
298.316
298.317
298.317
297.983
298.014
298.01
298.016
298.019
298.022
298.026
298.028
298.031
298.032
298.034
298.034
298.034
298.033
298.031
298.029
298.027
298.025
298.021
298.021
298.041
298.09
298.14
298.166
298.174
298.175
298.178
298.186
298.198
298.212
298.228
298.243
298.257
298.27
298.281
298.291
298.299
298.306
298.312
298.316
298.32
298.323
298.326
298.328
298.329
298.331
298.332
298.333
298.333
298.334
297.983
298.014
298.01
298.016
298.019
298.023
298.026
298.029
298.031
298.033
298.035
298.035
298.035
298.034
298.032
298.029
298.027
298.023
298.018
298.018
298.039
298.091
298.14
298.164
298.17
298.171
298.175
298.185
298.2
298.217
298.235
298.252
298.268
298.283
298.295
298.305
298.314
298.321
298.326
298.331
298.334
298.337
298.34
298.341
298.343
298.344
298.345
298.345
298.346
298.346
297.982
298.014
298.011
298.016
298.019
298.023
298.026
298.029
298.032
298.034
298.035
298.036
298.036
298.035
298.032
298.029
298.026
298.022
298.015
298.014
298.035
298.09
298.138
298.159
298.163
298.164
298.17
298.182
298.199
298.219
298.239
298.259
298.276
298.291
298.304
298.315
298.324
298.331
298.337
298.341
298.344
298.347
298.349
298.351
298.352
298.353
298.354
298.354
298.354
298.355
297.982
298.014
298.011
298.016
298.02
298.023
298.027
298.03
298.032
298.035
298.036
298.037
298.037
298.035
298.033
298.029
298.025
298.02
298.012
298.009
298.031
298.087
298.134
298.152
298.154
298.156
298.163
298.177
298.196
298.218
298.24
298.261
298.28
298.296
298.31
298.321
298.33
298.337
298.343
298.347
298.351
298.353
298.355
298.356
298.357
298.358
298.359
298.359
298.359
298.359
297.982
298.014
298.011
298.016
298.02
298.023
298.027
298.03
298.033
298.035
298.037
298.038
298.037
298.036
298.033
298.029
298.024
298.018
298.009
298.005
298.026
298.083
298.128
298.142
298.143
298.145
298.154
298.17
298.191
298.215
298.238
298.261
298.28
298.297
298.311
298.323
298.332
298.34
298.346
298.35
298.353
298.356
298.357
298.359
298.359
298.36
298.36
298.36
298.36
298.36
297.982
298.014
298.011
298.016
298.02
298.024
298.027
298.03
298.033
298.036
298.037
298.038
298.038
298.037
298.034
298.029
298.024
298.017
298.006
298
298.021
298.078
298.121
298.132
298.131
298.133
298.143
298.161
298.184
298.209
298.234
298.258
298.278
298.296
298.31
298.322
298.332
298.339
298.345
298.349
298.353
298.355
298.357
298.358
298.359
298.359
298.359
298.359
298.359
298.359
297.982
298.014
298.011
298.016
298.02
298.024
298.027
298.031
298.034
298.036
298.038
298.039
298.039
298.037
298.034
298.03
298.023
298.015
298.003
297.996
298.016
298.073
298.113
298.12
298.117
298.12
298.131
298.151
298.175
298.202
298.228
298.252
298.274
298.292
298.307
298.319
298.329
298.336
298.342
298.347
298.35
298.352
298.354
298.355
298.356
298.356
298.356
298.356
298.356
298.356
297.982
298.014
298.011
298.016
298.02
298.024
298.028
298.031
298.034
298.037
298.039
298.04
298.039
298.038
298.035
298.03
298.023
298.014
298.001
297.992
298.011
298.067
298.103
298.108
298.104
298.107
298.119
298.14
298.166
298.193
298.221
298.246
298.267
298.286
298.301
298.314
298.323
298.331
298.337
298.342
298.345
298.348
298.349
298.35
298.351
298.351
298.352
298.352
298.351
298.351
297.981
298.014
298.011
298.016
298.02
298.024
298.028
298.031
298.034
298.037
298.039
298.04
298.04
298.038
298.035
298.03
298.023
298.013
297.998
297.988
298.006
298.061
298.094
298.095
298.09
298.094
298.107
298.129
298.155
298.184
298.212
298.238
298.26
298.278
298.294
298.306
298.317
298.324
298.331
298.335
298.339
298.341
298.343
298.344
298.345
298.345
298.345
298.345
298.345
298.345
297.981
298.014
298.011
298.016
298.02
298.024
298.028
298.031
298.035
298.037
298.039
298.041
298.04
298.039
298.035
298.03
298.022
298.012
297.996
297.985
298.002
298.056
298.084
298.082
298.076
298.081
298.096
298.118
298.145
298.174
298.203
298.229
298.251
298.27
298.285
298.298
298.308
298.316
298.323
298.327
298.331
298.334
298.335
298.337
298.337
298.338
298.338
298.338
298.338
298.338
297.981
298.014
298.011
298.016
298.02
298.024
298.028
298.031
298.035
298.038
298.04
298.041
298.041
298.039
298.036
298.03
298.022
298.011
297.994
297.981
297.998
298.05
298.075
298.07
298.063
298.069
298.085
298.108
298.135
298.165
298.193
298.22
298.242
298.261
298.276
298.289
298.299
298.307
298.313
298.318
298.322
298.325
298.327
298.328
298.329
298.329
298.33
298.33
298.33
298.33
297.981
298.014
298.011
298.016
298.02
298.024
298.028
298.032
298.035
298.038
298.04
298.041
298.041
298.04
298.036
298.031
298.022
298.01
297.993
297.978
297.994
298.045
298.067
298.058
298.051
298.057
298.074
298.098
298.125
298.155
298.184
298.21
298.233
298.252
298.267
298.279
298.289
298.297
298.303
298.308
298.312
298.315
298.317
298.318
298.319
298.32
298.32
298.321
298.321
298.321
297.981
298.014
298.011
298.016
298.021
298.024
298.028
298.032
298.035
298.038
298.04
298.042
298.042
298.04
298.037
298.031
298.022
298.01
297.991
297.976
297.99
298.04
298.058
298.047
298.04
298.047
298.064
298.088
298.116
298.146
298.175
298.201
298.224
298.242
298.257
298.269
298.279
298.286
298.292
298.297
298.3
298.303
298.305
298.307
298.308
298.309
298.309
298.31
298.31
298.311
297.981
298.014
298.011
298.016
298.021
298.024
298.028
298.032
298.035
298.038
298.041
298.042
298.042
298.041
298.037
298.031
298.022
298.009
297.99
297.973
297.987
298.036
298.051
298.037
298.03
298.038
298.055
298.08
298.108
298.138
298.167
298.193
298.215
298.233
298.248
298.259
298.268
298.275
298.28
298.283
298.286
298.289
298.291
298.292
298.293
298.294
298.295
298.296
298.296
298.297
297.981
298.014
298.011
298.016
298.021
298.024
298.028
298.032
298.035
298.038
298.041
298.042
298.042
298.041
298.037
298.031
298.022
298.009
297.989
297.971
297.984
298.031
298.044
298.028
298.021
298.029
298.047
298.072
298.1
298.13
298.159
298.185
298.207
298.225
298.238
298.249
298.256
298.261
298.265
298.268
298.27
298.271
298.272
298.273
298.274
298.275
298.276
298.276
298.277
298.277
297.981
298.014
298.011
298.016
298.021
298.024
298.029
298.032
298.036
298.039
298.041
298.043
298.043
298.041
298.038
298.031
298.022
298.009
297.988
297.969
297.982
298.028
298.037
298.019
298.013
298.021
298.04
298.065
298.093
298.123
298.151
298.177
298.199
298.216
298.229
298.238
298.243
298.247
298.249
298.25
298.25
298.249
298.248
298.247
298.247
298.246
298.246
298.246
298.246
298.246
297.981
298.014
298.011
298.016
298.021
298.024
298.029
298.032
298.036
298.039
298.041
298.043
298.043
298.042
298.038
298.032
298.022
298.008
297.987
297.968
297.979
298.024
298.031
298.011
298.006
298.014
298.034
298.058
298.087
298.116
298.145
298.17
298.192
298.208
298.22
298.227
298.231
298.232
298.232
298.229
298.224
298.219
298.214
298.209
298.204
298.2
298.197
298.194
298.192
298.191
297.981
298.014
298.011
298.016
298.021
298.025
298.029
298.032
298.036
298.039
298.041
298.043
298.043
298.042
298.038
298.032
298.022
298.008
297.987
297.967
297.977
298.021
298.025
298.005
297.999
298.008
298.028
298.053
298.081
298.11
298.139
298.164
298.185
298.201
298.211
298.216
298.218
298.217
298.211
298.202
298.19
298.178
298.164
298.151
298.138
298.125
298.114
298.103
298.094
298.086
297.981
298.014
298.011
298.016
298.021
298.025
298.029
298.032
298.036
298.039
298.042
298.043
298.043
298.042
298.038
298.032
298.022
298.008
297.986
297.966
297.976
298.019
298.02
297.999
297.993
298.003
298.023
298.048
298.076
298.105
298.133
298.159
298.179
298.194
298.202
298.206
298.205
298.198
298.184
298.166
298.144
298.118
298.09
298.06
298.03
297.999
297.969
297.939
297.911
297.884
297.981
298.014
298.011
298.016
298.021
298.025
298.029
298.032
298.036
298.039
298.042
298.043
298.044
298.042
298.039
298.032
298.022
298.008
297.986
297.965
297.974
298.016
298.016
297.993
297.988
297.998
298.018
298.044
298.072
298.101
298.129
298.153
298.173
298.187
298.193
298.195
298.19
298.175
298.151
298.119
298.079
298.031
297.977
297.917
297.853
297.786
297.717
297.647
297.577
297.509
297.981
298.014
298.011
298.016
298.021
298.025
298.029
298.032
298.036
298.039
298.042
298.044
298.044
298.042
298.039
298.032
298.022
298.008
297.985
297.964
297.973
298.014
298.012
297.989
297.983
297.994
298.014
298.04
298.068
298.097
298.124
298.149
298.168
298.18
298.185
298.185
298.172
298.148
298.11
298.058
297.991
297.908
297.811
297.701
297.579
297.446
297.305
297.159
297.009
296.862
297.981
298.014
298.011
298.016
298.021
298.025
298.029
298.032
298.036
298.039
298.042
298.044
298.044
298.043
298.039
298.032
298.022
298.008
297.985
297.963
297.972
298.012
298.009
297.984
297.979
297.99
298.011
298.037
298.065
298.093
298.121
298.145
298.163
298.174
298.178
298.173
298.153
298.116
298.06
297.98
297.875
297.743
297.585
297.402
297.194
296.965
296.72
296.462
296.19
295.922
297.981
298.014
298.011
298.016
298.021
298.025
298.029
298.032
298.036
298.039
298.042
298.044
298.044
298.043
298.039
298.032
298.022
298.008
297.985
297.962
297.971
298.01
298.006
297.98
297.976
297.987
298.008
298.034
298.062
298.09
298.117
298.141
298.159
298.168
298.171
298.16
298.131
298.081
298.001
297.886
297.733
297.54
297.306
297.03
296.715
296.363
295.989
295.621
295.266
294.94
297.981
298.014
298.011
298.016
298.021
298.025
298.029
298.033
298.036
298.039
298.042
298.044
298.044
298.043
298.039
298.033
298.023
298.007
297.984
297.962
297.97
298.008
298.003
297.977
297.972
297.984
298.005
298.031
298.059
298.088
298.114
298.138
298.154
298.163
298.163
298.147
298.109
298.041
297.934
297.779
297.573
297.311
296.991
296.611
296.18
295.729
295.301
294.928
294.588
294.288
297.981
298.014
298.011
298.016
298.021
298.025
298.029
298.033
298.036
298.039
298.042
298.044
298.044
298.043
298.039
298.033
298.023
298.007
297.984
297.961
297.969
298.007
298
297.974
297.97
297.981
298.003
298.029
298.057
298.085
298.112
298.135
298.151
298.158
298.155
298.133
298.085
297.999
297.862
297.664
297.402
297.07
296.663
296.194
295.699
295.224
294.821
294.517
294.267
294.09
297.981
298.014
298.011
298.016
298.021
298.025
298.029
298.033
298.036
298.039
298.042
298.044
298.044
298.043
298.039
298.033
298.023
298.007
297.984
297.961
297.968
298.006
297.998
297.971
297.967
297.979
298.001
298.027
298.055
298.083
298.11
298.132
298.147
298.153
298.148
298.12
298.061
297.955
297.787
297.547
297.23
296.833
296.357
295.84
295.335
294.901
294.588
294.404
294.306
294.259
297.981
298.014
298.011
298.016
298.021
298.025
298.029
298.033
298.036
298.04
298.042
298.044
298.045
298.043
298.04
298.033
298.023
298.007
297.984
297.96
297.967
298.004
297.996
297.969
297.965
297.977
297.999
298.025
298.053
298.081
298.108
298.13
298.144
298.149
298.141
298.107
298.037
297.912
297.713
297.432
297.066
296.612
296.094
295.574
295.118
294.791
294.609
294.547
294.586
294.746
297.981
298.014
298.011
298.016
298.021
298.025
298.029
298.033
298.036
298.04
298.042
298.044
298.045
298.043
298.04
298.033
298.023
298.007
297.984
297.96
297.967
298.003
297.994
297.967
297.963
297.976
297.997
298.024
298.052
298.08
298.106
298.127
298.141
298.145
298.134
298.095
298.014
297.87
297.643
297.324
296.915
296.418
295.887
295.403
295.039
294.843
294.786
294.802
294.933
295.227
297.981
298.014
298.011
298.016
298.021
298.025
298.029
298.033
298.036
298.04
298.042
298.044
298.045
298.043
298.04
298.033
298.023
298.007
297.984
297.959
297.966
298.003
297.993
297.965
297.961
297.974
297.996
298.022
298.051
298.078
298.104
298.126
298.139
298.142
298.127
298.083
297.992
297.831
297.58
297.228
296.783
296.254
295.737
295.316
295.074
295.024
295.144
295.333
295.551
295.76
298
298
298.001
298.002
298.006
298.012
298.021
298.033
298.045
298.054
298.06
298.061
298.06
298.057
298.056
298.057
298.061
298.066
298.069
298.068
298.06
298.046
298.029
298.015
298.006
298.002
298.003
298.006
298.013
298.022
298.033
298.046
298.057
298.065
298.069
298.068
298.066
298.064
298.063
298.064
298.068
298.073
298.078
298.079
298.074
298.063
298.047
298.03
298.016
298.007
298.005
298.01
298.017
298.027
298.038
298.05
298.06
298.067
298.071
298.072
298.07
298.068
298.066
298.067
298.07
298.075
298.08
298.083
298.083
298.076
298.064
298.048
298.031
298.017
298.007
298.002
298.015
298.024
298.034
298.046
298.057
298.066
298.073
298.077
298.077
298.076