/*--------------------------------*- C++ -*----------------------------------*\
  =========                 |
  \\      /  F ield         | OpenFOAM: The Open Source CFD Toolbox
   \\    /   O peration     | Website:  https://openfoam.org
    \\  /    A nd           | Version:  9
     \\/     M anipulation  |
\*---------------------------------------------------------------------------*/
FoamFile
{
    format      ascii;
    class       volVectorField;
    location    "0.0075";
    object      U;
}
// * * * * * * * * * * * * * * * * * * * * * * * * * * * * * * * * * * * * * //

dimensions      [0 1 -1 0 0 0 0];

internalField   nonuniform List<vector> 
5373
(
(2.58477 0.0670792 0)
(1.90773 -0.0210619 0)
(4.31618 0.0911434 3.69879e-16)
(3.94286 0.159056 -3.44256e-16)
(4.85635 0.167428 -2.62471e-16)
(5.35661 0.144181 -1.15395e-16)
(1.49949 -0.0958932 8.75342e-16)
(1.6071 -0.199205 -4.80068e-16)
(1.88855 -0.138886 -7.71514e-16)
(2.15633 0.0408473 2.94273e-16)
(2.3875 0.329405 2.3274e-16)
(2.58955 0.665553 0)
(2.75899 1.02108 -8.48502e-17)
(2.91517 1.40285 -2.31865e-16)
(3.10009 1.8455 1.43902e-16)
(3.315 2.33015 1.36977e-16)
(3.54613 2.83808 1.00108e-21)
(3.78821 3.36376 1.3226e-16)
(4.04039 3.90891 1.32705e-16)
(4.29988 4.47429 -3.3475e-17)
(4.56212 5.05814 -3.43767e-17)
(4.82507 5.68343 7.1935e-17)
(5.11747 6.36402 3.82262e-17)
(5.47428 7.08329 0)
(5.99122 7.84626 2.84251e-17)
(6.74574 8.54455 -3.47836e-17)
(3.71674 0.252073 2.43214e-16)
(3.71473 0.330544 -5.93688e-17)
(3.80673 0.440224 -2.805e-16)
(3.93108 0.588274 3.2119e-16)
(4.05339 0.785659 0)
(4.16687 1.02966 3.8401e-22)
(4.27018 1.31589 -9.94936e-17)
(4.36832 1.64962 -1.97815e-16)
(4.48512 2.0338 1.48117e-16)
(4.63359 2.47049 -4.99465e-17)
(4.81056 2.95743 5.1198e-17)
(5.0112 3.48985 1.05988e-16)
(5.23414 4.07174 -2.71554e-17)
(5.48179 4.71336 5.49186e-17)
(5.76192 5.42749 -1.01851e-21)
(6.06672 6.22357 1.44441e-17)
(6.39728 7.11939 -6.04542e-17)
(6.77862 8.14138 1.60418e-17)
(7.33235 9.31622 -1.73911e-17)
(8.0481 10.549 1.92252e-17)
(4.76362 0.242331 1.58147e-16)
(4.76337 0.309632 0)
(4.80956 0.407209 2.63258e-16)
(4.87843 0.54177 -3.06471e-22)
(4.95036 0.724791 -8.50211e-17)
(5.01941 0.95114 6.80247e-22)
(5.08664 1.21888 0)
(5.15803 1.53404 1.70684e-16)
(5.24617 1.90191 -4.31667e-17)
(5.36426 2.32651 -1.31915e-21)
(5.51796 2.80442 -9.07642e-17)
(5.70652 3.32978 -9.44783e-17)
(5.93027 3.90671 2.40702e-17)
(6.19137 4.54484 -7.27172e-17)
(6.49616 5.25664 -7.37796e-17)
(6.85761 6.05631 0)
(7.28075 6.96675 0)
(7.76137 8.01253 0)
(8.40587 9.1986 3.62806e-18)
(9.23875 10.4909 9.76345e-18)
(5.32084 0.220149 1.74979e-16)
(5.33466 0.292735 -3.87257e-17)
(5.37626 0.386059 -1.54357e-16)
(5.43322 0.504762 1.53613e-16)
(5.49515 0.657512 -3.54086e-22)
(5.5577 0.848315 4.4497e-22)
(5.62139 1.08399 7.82644e-17)
(5.69107 1.36865 -7.95821e-17)
(5.77719 1.70454 8.12245e-17)
(5.89044 2.09881 -4.1735e-17)
(6.04054 2.54769 0)
(6.23148 3.04955 4.4928e-17)
(6.4664 3.60948 -6.78664e-17)
(6.74687 4.23784 -2.25168e-17)
(7.07968 4.94399 9.03191e-17)
(7.47668 5.7413 1.14022e-17)
(7.96375 6.64875 -2.32143e-17)
(8.54152 7.68728 -1.19424e-17)
(9.2614 8.88095 -3.13149e-18)
(10.1421 10.2488 -3.80889e-17)
(5.66526 0.186391 1.43359e-16)
(5.68489 0.2525 -1.0671e-16)
(5.72509 0.333742 -1.43168e-16)
(5.77869 0.436245 7.19236e-17)
(5.83908 0.568322 -7.25264e-17)
(5.90259 0.735371 7.35418e-17)
(5.97011 0.943439 -1.49852e-16)
(6.04576 1.19619 -7.66896e-17)
(6.13797 1.50035 1.57771e-16)
(6.25731 1.86159 4.077e-17)
(6.4138 2.2773 -8.46104e-17)
(6.61435 2.74993 8.82239e-17)
(6.86477 3.28456 2.20361e-17)
(7.16975 3.89003 -1.28337e-21)
(7.53715 4.58044 -6.4395e-17)
(7.97963 5.3685 3.20686e-17)
(8.52084 6.27407 -2.14344e-17)
(9.18647 7.31545 3.24772e-17)
(10.0268 8.51675 2.77826e-18)
(10.9598 9.95093 1.87306e-17)
(5.89556 0.147397 2.71111e-16)
(5.91832 0.209833 -1.0082e-16)
(5.95541 0.284868 0)
(6.00371 0.376631 1.37869e-16)
(6.05977 0.49136 -2.0995e-16)
(6.12265 0.636498 -7.14006e-17)
(6.19365 0.816939 2.19653e-16)
(6.27659 1.03798 -1.50865e-16)
(6.37746 1.30793 -7.80488e-17)
(6.50596 1.63027 2.02524e-16)
(6.67263 2.00797 -8.43438e-17)
(6.88606 2.44595 0)
(7.15441 2.9502 4.39262e-17)
(7.48554 3.52746 0)
(7.88768 4.19087 -4.18582e-17)
(8.37664 4.96025 -1.02866e-17)
(8.97934 5.85271 -3.048e-17)
(9.72286 6.89203 0)
(10.6933 8.07995 0)
(11.7437 9.53109 0)
(6.07438 0.165705 -2.91101e-16)
(6.10901 0.232201 1.32178e-16)
(6.15235 0.313011 -6.73525e-17)
(6.20481 0.414596 6.88211e-17)
(6.26625 0.541187 0)
(6.33839 0.698206 0)
(6.42508 0.891597 0)
(6.53219 1.1283 -7.81838e-17)
(6.66809 1.41387 4.65376e-22)
(6.84357 1.75436 1.27563e-16)
(7.0699 2.15201 -4.45628e-17)
(7.35629 2.61335 -2.22441e-17)
(7.71286 3.15022 -4.29841e-17)
(8.15099 3.7782 2.08212e-17)
(8.68465 4.51704 -3.03296e-17)
(9.34552 5.38984 3.27142e-22)
(10.1642 6.41755 -9.62407e-18)
(11.2512 7.59645 2.37351e-18)
(12.4593 9.04193 1.52898e-17)
(6.20823 0.183029 -3.19352e-22)
(6.24902 0.253432 6.66971e-17)
(6.29827 0.342381 -1.37017e-16)
(6.35743 0.453186 7.06314e-17)
(6.42891 0.590233 -7.31062e-17)
(6.51681 0.758845 -7.59643e-17)
(6.62709 0.965091 3.67754e-22)
(6.76783 1.21461 4.14124e-17)
(6.94852 1.51232 -8.68309e-17)
(7.18166 1.86329 4.56543e-17)
(7.48114 2.27835 -2.28736e-17)
(7.85979 2.77174 -1.27682e-21)
(8.33166 3.35792 2.10712e-17)
(8.91281 4.05619 1.01119e-17)
(9.63376 4.89728 -1.94352e-17)
(10.5257 5.9041 2.80763e-17)
(11.7116 7.07576 -1.81456e-17)
(13.0981 8.49344 -1.86887e-17)
(6.30891 0.198727 -6.68076e-17)
(6.35625 0.274967 0)
(6.41295 0.370447 0)
(6.48231 0.488394 0)
(6.56882 0.633403 4.31235e-22)
(6.67855 0.810792 8.11929e-17)
(6.81977 1.02622 8.519e-17)
(7.00292 1.28607 -8.9554e-17)
(7.24036 1.59943 9.43107e-17)
(7.54752 1.97471 2.37312e-17)
(7.94118 2.42344 -2.26791e-17)
(8.43934 2.96172 0)
(9.06202 3.61014 3.0789e-17)
(9.84195 4.39973 1.45481e-21)
(10.8138 5.36435 9.2521e-18)
(12.0847 6.52059 1.7651e-17)
(13.6564 7.90823 -1.04756e-18)
(6.34112 0.152594 -6.76658e-17)
(6.38717 0.215419 0)
(6.4412 0.295872 7.30886e-17)
(6.50726 0.396324 -1.52456e-16)
(6.5905 0.52072 -3.57032e-22)
(6.69729 0.673955 -1.67182e-16)
(6.83596 0.861608 4.37182e-22)
(7.01741 1.08991 -1.34355e-22)
(7.25492 1.36585 -9.75e-17)
(7.56519 1.69848 2.46888e-17)
(7.96824 2.10018 -2.35448e-17)
(8.48594 2.58797 0)
(9.14306 3.18292 1.05291e-17)
(9.97475 3.91546 -1.97958e-17)
(11.0292 4.82207 9.28139e-18)
(12.3874 5.93436 0)
(14.1342 7.30301 0)
(6.39544 0.167169 0)
(6.44568 0.234246 7.49624e-17)
(6.50642 0.319306 1.56579e-16)
(6.58359 0.42545 8.19441e-17)
(6.68426 0.556621 8.59524e-17)
(6.81718 0.717771 -1.08623e-21)
(6.99369 0.915085 -1.10618e-21)
(7.22786 1.1555 5.02466e-17)
(7.53743 1.44814 -2.56158e-17)
(7.94504 1.80449 -1.29221e-21)
(8.47646 2.24102 -4.63091e-17)
(9.16175 2.77921 3.26484e-17)
(10.0388 3.44863 1.01598e-17)
(11.1686 4.28897 -1.88652e-17)
(12.6206 5.32801 2.18564e-18)
(14.5366 6.67055 -1.90557e-17)
(6.37812 0.129292 7.36819e-17)
(6.42247 0.183688 -7.67921e-17)
(6.47581 0.254145 -8.01812e-17)
(6.54437 0.343536 -8.39052e-17)
(6.63603 0.454964 4.39951e-17)
(6.76035 0.592336 9.248e-17)
(6.92928 0.761306 -4.53402e-22)
(7.1576 0.968431 -5.14532e-17)
(7.46363 1.22237 5.27836e-17)
(7.87213 1.53435 -5.06351e-17)
(8.41255 1.92017 0)
(9.12026 2.40059 -1.12972e-17)
(10.0369 3.00325 -2.10269e-17)
(11.2347 3.76996 4.8479e-17)
(12.7805 4.7261 2.22264e-18)
(14.8644 6.00027 -1.00663e-18)
(6.36435 0.141574 0)
(6.40856 0.198915 8.18301e-17)
(6.4667 0.27267 -1.71184e-16)
(6.54703 0.366131 1.34653e-16)
(6.66008 0.482084 0)
(6.81895 0.625325 0)
(7.03951 0.801924 0)
(7.34018 1.01961 8.11058e-17)
(7.74737 1.28891 -1.72741e-21)
(8.29346 1.62473 -2.49497e-17)
(9.01875 2.04729 1.17751e-17)
(9.96927 2.58147 -3.29022e-17)
(11.2298 3.2691 -2.01513e-17)
(12.8608 4.13158 -1.83347e-17)
(15.1168 5.29777 1.53712e-17)
(6.30542 0.155461 0)
(6.35069 0.215647 0)
(6.41741 0.292327 0)
(6.51632 0.388178 -4.84309e-17)
(6.66123 0.50719 5.10579e-17)
(6.8693 0.654386 0)
(7.16176 0.837369 -2.77935e-17)
(7.56656 1.06649 -2.70156e-17)
(8.11629 1.35496 0)
(8.8558 1.72075 0)
(9.83511 2.18527 2.31296e-17)
(11.1533 2.78973 2.121e-17)
(12.8621 3.54984 1.91741e-17)
(15.2857 4.59617 -1.06053e-18)
(6.15295 0.119993 0)
(6.18297 0.168976 -4.53392e-17)
(6.23481 0.231116 2.3851e-16)
(6.31946 0.309668 5.02793e-17)
(6.45096 0.407699 -1.06148e-16)
(6.64699 0.529103 5.60733e-17)
(6.92896 0.679404 -5.78402e-17)
(7.32629 0.867813 2.83659e-17)
(7.87723 1.11099 -2.75984e-17)
(8.62903 1.42267 -1.32338e-17)
(9.63352 1.81729 1.23988e-17)
(11.0045 2.33521 -2.26882e-17)
(12.7853 2.98518 0)
(15.3711 3.89437 7.83066e-18)
(5.92841 0.0915939 0)
(5.94178 0.130615 -1.43344e-16)
(5.97846 0.180396 1.00811e-16)
(6.0495 0.24355 5.32489e-17)
(6.16887 0.322721 5.63328e-17)
(6.35438 0.421626 2.98267e-17)
(6.62789 0.543852 -6.7894e-22)
(7.02029 0.698065 0)
(7.57011 0.895273 3.00561e-17)
(8.33064 1.15357 0)
(9.35769 1.48103 0)
(10.7782 1.9122 -6.18442e-18)
(12.6244 2.45083 5.53508e-18)
(15.3723 3.20609 -9.64368e-18)
(5.59184 0.101665 -1.56305e-16)
(5.61407 0.140549 -5.51821e-17)
(5.67272 0.189948 -5.84773e-17)
(5.78142 0.252178 -6.19695e-17)
(5.95797 0.330394 -3.28323e-17)
(6.22526 0.427035 -3.36649e-17)
(6.61464 0.550638 -6.71883e-17)
(7.16721 0.705429 -3.32388e-17)
(7.93941 0.905909 3.21192e-17)
(8.9877 1.16419 -3.02086e-17)
(10.4582 1.50401 0)
(12.3709 1.9132 0)
(15.2733 2.48818 9.34357e-18)
(5.061 0.0802097 -6.00809e-17)
(5.07055 0.109654 1.2751e-16)
(5.11908 0.14759 0)
(5.21913 0.195676 -7.13372e-17)
(5.38945 0.257023 7.50745e-17)
(5.65463 0.33302 3.80728e-17)
(6.04639 0.431166 3.79549e-17)
(6.60624 0.555731 3.74125e-17)
(7.39544 0.711782 -3.62424e-17)
(8.47085 0.915531 3.44282e-17)
(9.99117 1.19339 -7.90785e-18)
(11.9723 1.51688 7.03281e-18)
(15.0108 1.90471 -1.97615e-17)
(4.2005 0.0716164 2.04586e-17)
(4.2432 0.0963984 -1.72954e-16)
(4.33924 0.127623 9.05642e-17)
(4.5093 0.165872 -9.38285e-17)
(4.77578 0.213124 -1.18035e-17)
(5.17193 0.27234 0)
(5.7408 0.344153 0)
(6.55158 0.4286 0)
(7.67006 0.526408 0)
(9.26899 0.649274 -9.63783e-18)
(11.3515 0.797153 4.20547e-18)
(14.5933 0.93991 9.01614e-18)
(2.35271 0.199816 -5.4938e-16)
(2.38999 0.237417 2.68141e-16)
(2.47447 0.287448 1.37262e-16)
(2.61358 0.352616 -2.76466e-16)
(2.82755 0.435506 2.22312e-16)
(3.15036 0.539645 -1.33133e-16)
(3.62402 0.66681 1.27324e-16)
(4.32092 0.822008 -5.978e-17)
(5.29239 0.99317 -2.76049e-17)
(6.81143 1.16482 3.75478e-17)
(8.54772 1.29098 -1.08278e-17)
(12.3673 1.22899 2.31863e-18)
(7.99997 9.2003 5.65567e-17)
(9.70157 10.0555 -2.23152e-17)
(11.4441 10.911 -3.07847e-18)
(13.3393 11.6581 1.50041e-18)
(15.4502 12.3055 -1.47283e-18)
(17.8297 12.8799 0)
(20.5764 13.397 0)
(23.7767 13.8635 0)
(27.5342 14.2634 2.20736e-17)
(31.9699 14.5837 4.32583e-17)
(37.2338 14.7969 -2.05804e-20)
(43.5085 14.8629 1.67707e-20)
(50.9635 14.7224 3.86768e-20)
(59.8724 14.3177 -3.76956e-20)
(70.2099 13.4994 -9.11001e-18)
(82.5606 12.1799 -3.4224e-20)
(94.9102 10.2176 0)
(110.454 7.71453 6.98999e-21)
(115.971 4.53928 -6.9371e-21)
(126.366 0.545497 -6.60431e-19)
(9.28733 11.7483 -2.22718e-17)
(11.0199 12.9281 2.18955e-17)
(12.991 14.1252 0)
(15.2397 15.2398 -2.23092e-17)
(17.8519 16.2739 1.28917e-18)
(20.8901 17.2721 0)
(24.4452 18.2625 1.98761e-17)
(28.6354 19.2505 -1.95141e-17)
(33.6259 20.2511 -1.91411e-17)
(39.6224 21.2491 -1.87248e-17)
(46.8845 22.2089 -1.77881e-20)
(55.7525 23.0773 -1.77508e-17)
(66.6118 23.769 1.7192e-17)
(80.0087 24.15 0)
(96.2671 24.0566 3.01542e-20)
(116.465 23.282 -2.91783e-20)
(139.176 21.4991 6.75134e-18)
(167.534 18.4433 1.253e-20)
(189.752 14.1453 1.34204e-18)
(221.328 3.0005 2.09271e-21)
(10.6448 11.543 -1.67833e-17)
(12.4813 12.4681 1.9122e-17)
(14.569 13.4045 0)
(16.8906 14.3018 3.86103e-17)
(19.5634 15.1605 1.74221e-17)
(22.6629 16.0178 -1.87019e-17)
(26.2863 16.8852 -1.79462e-17)
(30.5641 17.7568 1.80234e-17)
(35.6669 18.6245 3.55377e-17)
(41.8136 19.4858 -1.74732e-17)
(49.2826 20.3237 0)
(58.4409 21.1025 0)
(69.7182 21.7543 -3.26444e-17)
(83.7217 22.2042 7.85568e-18)
(100.926 22.2282 2.88506e-20)
(122.407 21.5471 -2.79155e-20)
(147.374 19.9483 -6.43924e-18)
(178.297 16.9905 5.52913e-21)
(206.682 13.9778 -1.24916e-18)
(240.865 1.46229 0)
(11.5207 11.3336 1.92611e-17)
(13.2509 12.2543 -1.72852e-17)
(15.2404 13.181 0)
(17.4546 14.071 -1.62721e-17)
(20.0339 14.9225 -1.85016e-17)
(23.0696 15.7658 1.71204e-17)
(26.6501 16.6133 1.73155e-17)
(30.9026 17.4603 1.74584e-17)
(35.9913 18.3089 -1.70158e-17)
(42.1351 19.1525 3.35849e-17)
(49.6156 19.9671 -1.60803e-20)
(58.8027 20.7068 1.58375e-20)
(70.1383 21.3069 1.57533e-17)
(84.2366 21.635 -7.60915e-18)
(101.574 21.5503 2.81402e-20)
(123.225 20.8115 -2.73177e-20)
(148.452 19.3279 3.20894e-18)
(179.677 16.2992 -6.31229e-21)
(209.089 13.4538 -7.32663e-21)
(243.673 0.66024 1.83178e-21)
(12.3627 10.9937 1.94983e-18)
(14.0784 11.816 1.97291e-18)
(16.0739 12.6265 1.48739e-17)
(18.2954 13.3987 1.49946e-17)
(20.8779 14.1432 1.61116e-17)
(23.9178 14.8873 0)
(27.4963 15.6436 -8.63101e-22)
(31.7376 16.4071 -1.60834e-17)
(36.8087 17.1762 0)
(42.9295 17.9409 -1.57857e-17)
(50.3805 18.6786 -1.51517e-20)
(59.5299 19.3501 1.49639e-20)
(70.8169 19.8898 -7.46548e-18)
(84.8525 20.2021 0)
(102.111 20.1318 -6.9636e-18)
(123.677 19.4284 -2.62604e-20)
(148.793 17.984 -3.15431e-18)
(179.989 15.0096 5.37538e-21)
(209.096 12.5281 -4.96989e-21)
(243.855 -0.360105 -4.39341e-19)
(13.1946 10.5492 -1.45366e-17)
(14.8768 11.3174 0)
(16.8356 12.0703 -1.39154e-17)
(19.0152 12.791 -1.59235e-17)
(21.5517 13.4977 -1.55947e-17)
(24.5519 14.2076 2.37799e-19)
(28.0981 14.9259 -1.49732e-17)
(32.3127 15.6478 0)
(37.3634 16.3709 1.50598e-17)
(43.4672 17.0882 0)
(50.9012 17.778 1.42878e-20)
(60.0321 18.4004 -1.4111e-20)
(71.2929 18.898 7.04678e-18)
(85.2952 19.1589 0)
(102.502 19.0533 6.66264e-18)
(124.004 18.3156 6.29785e-18)
(148.999 16.8917 0)
(180.169 13.9188 2.77225e-18)
(208.843 11.7114 -2.27085e-21)
(243.947 -1.35994 4.26876e-19)
(13.9692 10.047 2.94144e-17)
(15.6182 10.7645 0)
(17.5511 11.4495 -1.41549e-17)
(19.7106 12.0997 1.51789e-17)
(22.2285 12.7426 -9.00506e-19)
(25.2145 13.3893 -2.25829e-19)
(28.7491 14.0424 2.26111e-19)
(32.9508 14.7006 0)
(37.9871 15.3618 -1.42986e-17)
(44.0739 16.0201 0)
(51.4871 16.6535 6.94832e-18)
(60.5914 17.2239 -6.78393e-18)
(71.8181 17.6751 -2.61153e-20)
(85.7757 17.9014 0)
(102.919 17.7869 6.3093e-18)
(124.348 17.0609 -6.02651e-18)
(149.2 15.7303 -1.16934e-20)
(180.372 12.7949 -2.66223e-18)
(208.52 10.8608 -1.18687e-18)
(244.421 -1.99387 0)
(14.6857 9.48002 -1.17364e-17)
(16.3061 10.1438 -1.18813e-17)
(18.211 10.7617 1.28657e-17)
(20.3504 11.3518 -1.47087e-17)
(22.8487 11.945 1.39373e-17)
(25.8162 12.5448 0)
(29.3351 13.1499 1.39482e-17)
(33.5225 13.7597 -1.38707e-17)
(38.5456 14.371 6.86994e-18)
(44.6195 14.9765 0)
(52.0186 15.5565 1.23863e-20)
(61.105 16.0761 6.49451e-18)
(72.3066 16.4825 -6.37124e-18)
(86.2285 16.6761 -6.14146e-18)
(103.316 16.5493 2.19408e-20)
(124.686 15.8373 -3.37462e-20)
(149.382 14.5926 1.12224e-20)
(180.644 11.7075 4.81453e-21)
(207.972 9.99558 1.15642e-18)
(245.9 -2.69563 0)
(15.3407 8.86552 1.64789e-18)
(16.9327 9.47111 1.50019e-17)
(18.8079 10.0265 -1.43274e-17)
(20.9302 10.5606 -5.34494e-22)
(23.4141 11.1029 -8.55123e-19)
(26.3683 11.6518 0)
(29.877 12.2039 -1.36342e-17)
(34.056 12.76 2.02941e-17)
(39.0714 13.317 -6.68733e-18)
(45.1372 13.867 0)
(52.5264 14.3909 -1.29217e-17)
(61.5992 14.8578 -6.28653e-18)
(72.7804 15.2179 6.13258e-18)
(86.6719 15.3778 1.19009e-17)
(103.709 15.2381 -5.75651e-18)
(125.028 14.5501 -2.19893e-20)
(149.549 13.3874 -1.03337e-20)
(181.021 10.6398 1.00559e-20)
(206.972 9.07493 -1.14976e-18)
(249.405 -3.3047 1.9642e-19)
(15.9212 8.21028 0)
(17.4922 8.75152 1.32427e-17)
(19.3408 9.24873 1.33945e-17)
(21.4496 9.73005 0)
(23.9232 10.2218 -1.3563e-17)
(26.8667 10.7204 0)
(30.3672 11.2216 0)
(34.5402 11.726 -6.68269e-18)
(39.5504 12.2308 0)
(45.6109 12.7273 6.48343e-18)
(52.9941 13.1952 6.33565e-18)
(62.0583 13.6071 1.26959e-20)
(73.2251 13.9178 0)
(87.0926 14.0411 -5.83801e-18)
(104.087 13.8859 2.18171e-20)
(125.362 13.2259 2.69207e-18)
(149.712 12.1384 1.06525e-20)
(181.435 9.59819 1.23793e-18)
(205.661 8.07264 -6.91036e-21)
(254.397 -3.89079 -3.81355e-19)
(16.424 7.51313 1.64539e-18)
(17.9824 7.99119 -1.1624e-17)
(19.8095 8.43556 -8.40478e-19)
(21.9064 8.86761 -7.6162e-18)
(24.3717 9.31015 0)
(27.3066 9.75973 0)
(30.8011 10.2106 0)
(34.9712 10.6626 0)
(39.9804 11.1124 -6.59132e-18)
(46.0399 11.5523 -6.47566e-18)
(53.4209 11.9629 -6.33723e-18)
(62.4807 12.3185 1.23607e-17)
(73.6381 12.5767 0)
(87.4869 12.661 0)
(104.446 12.4878 2.18018e-20)
(125.678 11.8579 -2.74561e-18)
(149.9 10.8454 0)
(181.698 8.53585 -1.22965e-18)
(205.09 7.00344 1.75968e-18)
(255.538 -4.49961 1.90597e-19)
(16.8415 6.77585 -1.66718e-18)
(18.3931 7.19926 6.72477e-18)
(20.206 7.59363 8.50208e-19)
(22.2956 7.97564 1.37095e-17)
(24.7569 8.36658 -8.17219e-18)
(27.6869 8.76527 4.30018e-19)
(31.1777 9.16536 0)
(35.3461 9.56786 0)
(40.3552 9.96774 6.67868e-18)
(46.417 10.3508 0)
(53.8004 10.7015 6.41691e-18)
(62.8599 11.0006 -6.26486e-18)
(74.013 11.2049 0)
(87.8487 11.2487 2.96884e-18)
(104.781 11.0566 2.90328e-18)
(125.97 10.4576 -3.25523e-20)
(150.1 9.52493 5.19813e-22)
(181.863 7.44492 1.00576e-20)
(204.919 5.91938 3.10242e-23)
(255.358 -5.01406 0)
(17.1816 6.00553 1.70073e-18)
(18.7276 6.37791 -6.86142e-18)
(20.5265 6.72841 6.944e-18)
(22.6077 7.06879 -6.12489e-18)
(25.0666 7.41366 6.14994e-18)
(27.9956 7.76315 0)
(31.4883 8.11005 0)
(35.6626 8.45031 6.93305e-18)
(40.6751 8.79521 -6.84799e-18)
(46.7391 9.12687 0)
(54.1281 9.41573 -1.28759e-20)
(63.1919 9.65708 1.26707e-20)
(74.3453 9.80847 0)
(88.1735 9.81225 -3.0667e-18)
(105.086 9.60321 -2.95193e-18)
(126.238 9.03792 -2.26345e-20)
(150.29 8.19112 0)
(182.003 6.33934 4.79276e-21)
(204.774 4.84461 -7.3989e-21)
(255.3 -5.43264 -9.57849e-20)
(17.433 5.23143 8.72679e-18)
(18.9777 5.55729 0)
(20.7709 5.86795 -6.24071e-18)
(22.8465 6.16965 -8.99453e-19)
(25.3023 6.47067 7.22869e-18)
(28.23 6.77243 0)
(31.7229 7.06675 0)
(35.9052 7.34457 3.46821e-23)
(40.9325 7.61488 2.49153e-23)
(47.0041 7.8925 -3.49446e-18)
(54.4005 8.12703 -3.42119e-18)
(63.4733 8.30982 3.35192e-18)
(74.632 8.41045 -2.55069e-20)
(88.4588 8.37546 2.51319e-20)
(105.359 8.15156 2.38416e-20)
(126.482 7.6219 1.44769e-18)
(150.468 6.86559 1.13797e-20)
(182.131 5.23965 4.91966e-21)
(204.626 3.79488 -6.33177e-19)
(255.29 -5.52602 1.0121e-19)
(17.5974 4.46244 -5.40501e-18)
(19.1413 4.75215 -1.81861e-18)
(20.9311 5.02318 9.21679e-19)
(23.0055 5.2787 1.8588e-18)
(25.4638 5.5263 -8.41006e-18)
(28.3962 5.77075 -2.33873e-19)
(31.8944 6.00681 2.33679e-19)
(36.0824 6.22846 -7.43018e-18)
(41.1247 6.43148 7.36732e-18)
(47.2158 6.62599 3.64131e-18)
(54.623 6.81035 3.5844e-18)
(63.7082 6.93445 -1.699e-22)
(74.8771 6.98581 0)
(88.7078 6.91865 -3.33864e-18)
(105.602 6.68748 2.48387e-20)
(126.705 6.20239 -1.56291e-18)
(150.636 5.54627 1.11499e-20)
(182.252 4.14781 -5.77593e-21)
(204.503 2.76232 -5.1053e-21)
(255.313 -5.42283 0)
(17.6836 3.67989 0)
(19.2293 3.9245 3.77913e-18)
(21.0148 4.16359 3.82671e-18)
(23.0843 4.39393 0)
(25.5405 4.62038 0)
(28.4762 4.83445 3.88941e-18)
(31.982 5.02802 0)
(36.1827 5.19191 0)
(41.2395 5.33313 0)
(47.3559 5.43084 0)
(54.7847 5.56297 1.45432e-20)
(63.8874 5.64123 -7.37107e-18)
(75.0747 5.6414 2.80678e-20)
(88.9189 5.53969 5.20328e-18)
(105.82 5.29342 2.57118e-20)
(126.918 4.84014 1.55986e-18)
(150.818 4.27452 0)
(182.386 3.08664 6.85379e-19)
(204.483 1.75908 0)
(255.313 -4.97721 0)
(17.6799 2.80746 1.9554e-18)
(19.2517 2.96472 -1.9711e-18)
(21.0579 3.12239 -5.97942e-18)
(23.1415 3.27926 1.00293e-18)
(25.6045 3.44515 -1.00688e-18)
(28.5406 3.61389 -4.0305e-18)
(32.0449 3.78125 0)
(36.2473 3.93015 0)
(41.3126 4.03747 0)
(47.4514 4.09754 0)
(54.9119 4.14768 1.91339e-18)
(64.0362 4.18859 1.90396e-18)
(75.2471 4.15308 0)
(89.116 4.043 -2.23989e-22)
(106.038 3.82218 0)
(127.157 3.43487 -1.61608e-18)
(151.041 2.98896 0)
(182.519 2.00536 -6.88273e-19)
(204.456 0.755095 -7.41225e-21)
(255.052 -4.15201 1.89491e-21)
(17.4803 2.18421 -2.05014e-18)
(19.0655 2.36492 -4.12188e-18)
(20.8892 2.52951 3.10569e-18)
(22.9943 2.66226 -3.11323e-18)
(25.484 2.78258 -2.07591e-18)
(28.4493 2.90262 -2.07343e-18)
(31.9794 3.01686 -2.58313e-19)
(36.1979 3.13043 2.3078e-18)
(41.2785 3.19464 2.02988e-18)
(47.438 3.18333 2.00223e-18)
(54.9351 3.12054 -1.9817e-18)
(64.0988 3.09052 1.93749e-18)
(75.3408 2.98689 -9.34761e-19)
(89.2276 2.78738 -2.7089e-18)
(106.114 2.50231 0)
(127.149 2.10561 -1.25033e-20)
(150.634 1.71846 3.96136e-19)
(181.689 0.973987 5.26562e-21)
(202.303 -0.179073 -1.60335e-19)
(252.351 -2.92955 6.63211e-20)
(17.201 0.937408 4.29864e-18)
(18.8054 0.98845 0)
(20.6179 1.04242 2.14797e-18)
(22.7073 1.08522 2.1449e-18)
(25.1867 1.13128 -4.21502e-22)
(28.1384 1.17969 2.1326e-18)
(31.6532 1.22429 -1.06019e-18)
(35.8399 1.28361 -1.04871e-18)
(40.8502 1.33528 -2.07229e-18)
(46.9027 1.37002 -2.04201e-18)
(54.2447 1.35246 0)
(63.1536 1.29903 -3.05683e-20)
(73.9712 1.27653 9.88826e-19)
(87.1948 1.18864 4.65333e-19)
(103.029 1.03254 0)
(122.53 0.808601 0)
(143.045 0.577847 -4.0281e-19)
(173.481 0.202785 1.87236e-19)
(185.706 -0.674909 8.37592e-20)
(228.825 -1.20247 -8.16795e-20)
(14.1191 1.11294 -4.19332e-22)
(15.7319 1.09598 2.50718e-18)
(17.4499 1.09176 -2.48206e-18)
(19.3588 1.09271 1.22786e-18)
(21.58 1.1002 1.21582e-18)
(24.1651 1.10476 0)
(27.1637 1.0971 1.19316e-18)
(30.6386 1.0676 -1.1807e-18)
(34.6903 1.00811 -3.64763e-20)
(39.4303 0.917363 3.62173e-20)
(44.9879 0.690471 -1.7825e-20)
(51.4974 0.258482 1.77118e-20)
(59.0461 -0.202508 0)
(67.7686 -0.754867 5.45909e-19)
(77.5498 -1.38037 0)
(88.6736 -1.98941 -1.57326e-20)
(99.1744 -2.49233 1.56758e-20)
(112.842 -2.58545 -2.33137e-19)
(111.497 -2.33855 1.08638e-19)
(133.009 -0.762328 0)
(30.6365 -1.35204 0)
(30.6337 -1.35172 0)
(30.6309 -1.35141 0)
(30.6282 -1.35111 0)
(30.6254 -1.35083 0)
(30.6227 -1.35057 0)
(30.6201 -1.35033 0)
(30.6174 -1.35012 0)
(30.6144 -1.34998 0)
(29.5176 -0.879984 0)
(29.5168 -0.883851 0)
(29.5161 -0.887688 0)
(29.5154 -0.891502 0)
(29.5146 -0.895294 0)
(29.5139 -0.899061 0)
(29.5132 -0.902797 0)
(29.5125 -0.90646 0)
(29.5118 -0.909859 0)
(29.5797 -1.18021 0)
(29.5805 -1.18235 0)
(29.5814 -1.18446 0)
(29.5823 -1.18657 0)
(29.5832 -1.18868 0)
(29.584 -1.19077 0)
(29.5849 -1.19285 0)
(29.5857 -1.1949 0)
(29.5867 -1.1968 0)
(29.4202 -1.03202 0)
(29.4204 -1.03481 0)
(29.4206 -1.03759 0)
(29.4209 -1.04036 0)
(29.4211 -1.04313 0)
(29.4213 -1.04588 0)
(29.4216 -1.04863 0)
(29.4218 -1.05136 0)
(29.4221 -1.05399 0)
(29.2509 -1.18075 0)
(29.2522 -1.18388 0)
(29.2535 -1.187 0)
(29.2547 -1.1901 0)
(29.256 -1.1932 0)
(29.2573 -1.19628 0)
(29.2586 -1.19934 0)
(29.2599 -1.20235 0)
(29.2611 -1.20513 0)
(29.1242 -1.1718 0)
(29.1255 -1.17516 0)
(29.1268 -1.1785 0)
(29.1281 -1.18183 0)
(29.1295 -1.18514 0)
(29.1308 -1.18844 0)
(29.1321 -1.19172 0)
(29.1335 -1.19494 0)
(29.1348 -1.19792 0)
(28.9618 -1.2826 0)
(28.9641 -1.28673 0)
(28.9663 -1.29082 0)
(28.9686 -1.29489 0)
(28.9709 -1.29894 0)
(28.9732 -1.30297 0)
(28.9755 -1.30697 0)
(28.9778 -1.31096 0)
(28.9801 -1.31493 0)
(28.8288 -1.34607 0)
(28.8317 -1.3506 0)
(28.8347 -1.35509 0)
(28.8377 -1.35955 0)
(28.8406 -1.36397 0)
(28.8436 -1.36836 0)
(28.8467 -1.37272 0)
(28.8497 -1.37705 0)
(28.8527 -1.38136 0)
(28.6849 -1.47642 0)
(28.6893 -1.48151 0)
(28.6937 -1.48653 0)
(28.6982 -1.4915 0)
(28.7026 -1.49641 0)
(28.7071 -1.50127 0)
(28.7116 -1.50608 0)
(28.716 -1.51085 0)
(28.5529 -1.6046 0)
(28.559 -1.60997 0)
(28.5652 -1.61525 0)
(28.5713 -1.62045 0)
(28.5774 -1.62556 0)
(28.5835 -1.63059 0)
(28.5897 -1.63554 0)
(28.5957 -1.64044 0)
(28.4275 -1.77773 0)
(28.4362 -1.78303 0)
(28.4448 -1.7882 0)
(28.4534 -1.79324 0)
(28.462 -1.79814 0)
(28.4706 -1.80293 0)
(28.4791 -1.80759 0)
(28.4875 -1.81217 0)
(28.3284 -1.97858 0)
(28.3403 -1.98301 0)
(28.3521 -1.98722 0)
(28.3638 -1.99123 0)
(28.3754 -1.99505 0)
(28.387 -1.99869 0)
(28.3984 -2.00215 0)
(28.4097 -2.0055 0)
(28.2633 -2.2231 0)
(28.2796 -2.22536 0)
(28.2958 -2.2273 0)
(28.3117 -2.22895 0)
(28.3273 -2.23035 0)
(28.3428 -2.23151 0)
(28.358 -2.23244 0)
(28.373 -2.23323 0)
(28.2537 -2.51106 0)
(28.2752 -2.50901 0)
(28.2961 -2.50661 0)
(28.3169 -2.50391 0)
(28.3371 -2.50086 0)
(28.3567 -2.49748 0)
(28.376 -2.49371 0)
(28.3956 -2.48969 0)
(28.3176 -2.836 0)
(28.3454 -2.82629 0)
(28.3724 -2.81608 0)
(28.3987 -2.80541 0)
(28.4241 -2.79432 0)
(28.4487 -2.78282 0)
(28.4724 -2.77098 0)
(28.4956 -2.75894 0)
(28.4869 -3.20649 0)
(28.5216 -3.18464 0)
(28.5547 -3.16218 0)
(28.5864 -3.13921 0)
(28.6166 -3.11578 0)
(28.6454 -3.09198 0)
(28.6725 -3.06787 0)
(28.699 -3.04366 0)
(28.7786 -3.59138 0)
(28.8199 -3.55038 0)
(28.8588 -3.50881 0)
(28.8952 -3.46682 0)
(28.9291 -3.42453 0)
(28.9607 -3.38208 0)
(28.9898 -3.33958 0)
(29.0176 -3.29731 0)
(29.2265 -4.00038 0)
(29.2731 -3.9324 0)
(29.3159 -3.86427 0)
(29.355 -3.79621 0)
(29.3903 -3.72847 0)
(29.4221 -3.66126 0)
(29.45 -3.59477 0)
(29.4768 -3.52939 0)
(29.9062 -4.3748 0)
(29.9624 -4.27184 0)
(30.0122 -4.16938 0)
(30.0558 -4.0677 0)
(30.0931 -3.96712 0)
(30.1247 -3.86797 0)
(30.1496 -3.77062 0)
(30.174 -3.67545 0)
(30.9925 -4.83469 0)
(31.0443 -4.67796 0)
(31.0845 -4.52242 0)
(31.1134 -4.36894 0)
(31.1315 -4.2184 0)
(31.1382 -4.07095 0)
(31.1341 -3.92995 0)
(31.1191 -3.79486 0)
(31.9127 -5.0974 0)
(31.8822 -4.85402 0)
(31.8351 -4.61423 0)
(31.7716 -4.37816 0)
(31.6915 -4.14517 0)
(31.5956 -3.90509 0)
(31.4819 -3.67447 0)
(31.3214 -3.45537 0)
(30.835 -4.66228 0)
(30.5693 -4.32476 0)
(30.2854 -3.99297 0)
(29.9857 -3.66519 0)
(29.6726 -3.33754 0)
(29.3479 -3.01551 0)
(29.0246 -2.6915 0)
(28.6141 -2.36599 0)
(24.7605 -2.8526 0)
(24.2872 -2.43115 0)
(23.8174 -2.0342 0)
(23.3528 -1.66096 0)
(22.896 -1.31009 0)
(22.4505 -0.980371 0)
(22.0231 -0.670653 0)
(21.4645 -0.393176 0)
(16.6533 -0.856708 0)
(16.1878 -0.522503 0)
(15.74 -0.211103 0)
(15.3095 0.0788696 0)
(14.8969 0.34848 0)
(14.5052 0.59832 0)
(14.1295 0.827698 0)
(13.6195 1.02381 0)
(9.62635 0.521444 0)
(9.23656 0.808144 0)
(8.8606 1.07434 0)
(8.49786 1.32009 0)
(8.14955 1.54523 0)
(7.81884 1.74934 0)
(7.49364 1.9311 0)
(7.04224 2.08323 0)
(4.01896 1.55894 0)
(3.69111 1.80786 0)
(3.37402 2.03783 0)
(3.06744 2.24848 0)
(2.77312 2.43914 0)
(2.49415 2.60918 0)
(2.21485 2.75831 0)
(1.82174 2.88413 0)
(-0.337035 2.30324 0)
(-0.610456 2.52953 0)
(-0.876169 2.73733 0)
(-1.13406 2.92558 0)
(-1.38166 3.09304 0)
(-1.61486 3.23883 0)
(-1.85243 3.36372 0)
(-2.18083 3.46856 0)
(-3.67504 2.83925 0)
(-3.89445 3.05155 0)
(-4.10895 3.24507 0)
(-4.31813 3.41785 0)
(-4.51875 3.56769 0)
(-4.70543 3.69266 0)
(-4.89678 3.79286 0)
(-5.15105 3.87206 0)
(-6.19937 3.19782 0)
(-6.35906 3.40355 0)
(-6.51691 3.58965 0)
(-6.67223 3.75283 0)
(-6.82132 3.88929 0)
(-6.95788 3.99477 0)
(-7.09614 4.06683 0)
(-7.2701 4.11357 0)
(-8.08723 3.40391 0)
(-8.17687 3.60937 0)
(-8.2684 3.79424 0)
(-8.36085 3.95373 0)
(-8.45031 4.08208 0)
(-8.52924 4.17234 0)
(-8.60334 4.21702 0)
(-8.69165 4.22216 0)
(-9.49444 3.47347 0)
(-9.49821 3.68478 0)
(-9.50855 3.87431 0)
(-9.5239 4.03511 0)
(-9.53984 4.1582 0)
(-9.5493 4.23064 0)
(-9.54558 4.24691 0)
(-9.52519 4.19837 0)
(-10.565 3.41433 0)
(-10.458 3.63651 0)
(-10.3636 3.83563 0)
(-10.2797 4.00248 0)
(-10.2014 4.12448 0)
(-10.1198 4.18623 0)
(-10.0295 4.16945 0)
(-9.90082 4.06302 0)
(-11.4534 3.22627 0)
(-11.1996 3.46517 0)
(-10.9671 3.68032 0)
(-10.7548 3.8594 0)
(-10.5567 3.98573 0)
(-10.366 4.04113 0)
(-10.1728 3.99969 0)
(-9.94005 3.83162 0)
(-12.3583 2.90575 0)
(-11.9122 3.16662 0)
(-11.4965 3.40635 0)
(-11.1154 3.60786 0)
(-10.7634 3.74891 0)
(-10.4359 3.81028 0)
(-10.1316 3.7624 0)
(-9.80106 3.54291 0)
(-13.5367 2.45413 0)
(-12.8535 2.73686 0)
(-12.2015 3.00625 0)
(-11.5957 3.24159 0)
(-11.0361 3.41249 0)
(-10.5235 3.49812 0)
(-10.0829 3.4707 0)
(-9.65584 3.20836 0)
(-15.2775 1.88759 0)
(-14.3297 2.18279 0)
(-13.3984 2.47794 0)
(-12.5105 2.75126 0)
(-11.6732 2.96177 0)
(-10.8963 3.09046 0)
(-10.2601 3.12088 0)
(-9.71692 2.82784 0)
(-17.8393 1.24238 0)
(-16.6385 1.53123 0)
(-15.416 1.83657 0)
(-14.2108 2.13804 0)
(-13.0381 2.38622 0)
(-11.9065 2.56644 0)
(-10.9787 2.68848 0)
(-10.2557 2.3755 0)
(-21.3741 0.574197 0)
(-19.9892 0.830511 0)
(-18.5207 1.11942 0)
(-17.0133 1.4261 0)
(-15.4839 1.69424 0)
(-13.9302 1.91268 0)
(-12.6107 2.13692 0)
(-11.6128 1.79326 0)
(-25.8793 -0.0519891 0)
(-24.4372 0.146108 0)
(-22.838 0.3873 0)
(-21.1195 0.664604 0)
(-19.2871 0.918538 0)
(-17.3064 1.14227 0)
(-15.5186 1.45017 0)
(-14.1312 1.04671 0)
(-31.1957 -0.575367 0)
(-29.8664 -0.453301 0)
(-28.3146 -0.287081 0)
(-26.5586 -0.0754225 0)
(-24.5756 0.122003 0)
(-22.2721 0.29957 0)
(-20.0262 0.627236 0)
(-18.1397 0.112913 0)
(-37.0429 -0.952723 0)
(-36.0084 -0.910785 0)
(-34.7189 -0.833076 0)
(-33.1654 -0.713697 0)
(-31.284 -0.611273 0)
(-28.8973 -0.538155 0)
(-26.3566 -0.296782 0)
(-23.9795 -0.991321 0)
(-43.0852 -1.16711 0)
(-42.5004 -1.19373 0)
(-41.6792 -1.20015 0)
(-40.5897 -1.18032 0)
(-39.1255 -1.19335 0)
(-37.0176 -1.27135 0)
(-34.5321 -1.23574 0)
(-31.8828 -2.18194 0)
(-48.9954 -1.22689 0)
(-48.9558 -1.29882 0)
(-48.7534 -1.36806 0)
(-48.35 -1.43273 0)
(-47.6126 -1.55646 0)
(-46.1974 -1.8077 0)
(-44.2543 -2.07601 0)
(-41.8025 -3.32097 0)
(-54.4968 -1.1586 0)
(-55.0215 -1.24919 0)
(-55.4983 -1.34955 0)
(-55.9074 -1.46601 0)
(-56.1222 -1.66882 0)
(-55.7654 -2.06739 0)
(-54.8745 -2.65637 0)
(-53.2891 -4.32483 0)
(-59.3984 -1.0043 0)
(-60.4249 -1.08805 0)
(-61.5313 -1.18642 0)
(-62.7398 -1.3134 0)
(-63.9711 -1.54611 0)
(-64.8815 -2.03985 0)
(-65.4654 -2.93635 0)
(-65.5246 -4.9871 0)
(-63.5869 -0.801923 0)
(-64.9903 -0.863719 0)
(-66.5718 -0.937478 0)
(-68.4073 -1.04106 0)
(-70.5011 -1.25273 0)
(-72.6281 -1.76676 0)
(-74.8894 -2.89046 0)
(-77.3545 -5.17259 0)
(-66.7955 -0.581354 0)
(-68.423 -0.614146 0)
(-70.2682 -0.650871 0)
(-72.452 -0.70903 0)
(-75.0685 -0.862376 0)
(-78.0642 -1.33093 0)
(-81.8123 -2.5486 0)
(-87.1561 -4.78304 0)
(-68.2984 -0.375857 0)
(-69.947 -0.384082 0)
(-71.7461 -0.386549 0)
(-73.808 -0.393206 0)
(-76.2874 -0.462287 0)
(-79.3637 -0.807663 0)
(-83.9959 -1.90609 0)
(-92.5919 -3.86778 0)
(-66.3963 -0.199241 0)
(-67.8181 -0.196854 0)