/*--------------------------------*- C++ -*----------------------------------*\
  =========                 |
  \\      /  F ield         | OpenFOAM: The Open Source CFD Toolbox
   \\    /   O peration     | Website:  https://openfoam.org
    \\  /    A nd           | Version:  8
     \\/     M anipulation  |
\*---------------------------------------------------------------------------*/
FoamFile
{
    version     2.0;
    format      ascii;
    class       volScalarField;
    location    "0.17";
    object      p;
}
// * * * * * * * * * * * * * * * * * * * * * * * * * * * * * * * * * * * * * //

dimensions      [0 2 -2 0 0 0 0];

internalField   nonuniform List<scalar> 
112642
(
-0.660288
-0.655998
-0.651828
-0.64719
-0.641208
-0.634162
-0.626389
-0.618223
-0.609866
-0.60144
-0.593018
-0.584638
-0.576311
-0.568041
-0.559828
-0.551669
-0.543562
-0.5355
-0.527481
-0.519495
-0.511539
-0.503608
-0.495695
-0.487793
-0.4799
-0.472012
-0.464125
-0.456235
-0.448349
-0.440462
-0.43258
-0.424703
-0.416841
-0.408997
-0.40118
-0.393395
-0.385651
-0.377947
-0.370295
-0.362697
-0.355157
-0.347674
-0.340253
-0.332895
-0.325603
-0.318376
-0.311216
-0.304122
-0.297092
-0.290127
-0.283225
-0.276386
-0.269608
-0.262893
-0.256242
-0.249653
-0.24313
-0.236673
-0.230284
-0.223964
-0.217717
-0.211538
-0.205432
-0.199398
-0.193435
-0.187543
-0.18172
-0.175965
-0.170278
-0.164656
-0.1591
-0.153607
-0.148179
-0.142811
-0.137507
-0.132264
-0.127082
-0.121963
-0.116904
-0.111906
-0.106968
-0.10209
-0.0972735
-0.0925176
-0.0878212
-0.0831837
-0.078609
-0.0740923
-0.0696365
-0.0652396
-0.0609032
-0.0566274
-0.0524108
-0.0482535
-0.0441563
-0.0401193
-0.036142
-0.0322231
-0.0283652
-0.0245656
-0.0208266
-0.0171446
-0.0135219
-0.00995578
-0.00644882
-0.00299968
0.000391886
0.0037259
0.00700151
0.010219
0.0133794
0.0164831
0.0195288
0.0225189
0.0254512
0.0283295
0.0311508
0.0339155
0.0366233
0.0392737
0.0418645
0.0443941
0.0468605
0.0492628
0.0515994
0.0538685
0.0560695
0.0582027
0.0602659
0.0622611
0.0641872
0.0660451
0.0678346
0.0695566
0.0712108
0.0727971
0.0743152
0.075765
0.0771454
0.0784571
0.0796968
0.0808664
0.0819639
0.0829888
0.0839401
0.0848184
0.0856214
0.0863506
0.0870044
0.0875825
0.0880837
0.0885085
0.088855
0.0891249
0.0893167
0.0894311
0.0894667
0.0894252
0.0893044
0.0891058
0.0888239
0.0884578
0.0880035
0.0874581
0.0868147
0.0860716
0.0852233
0.0842685
0.0832012
0.0820229
0.080729
0.0793218
0.0778011
0.0761708
0.0744314
0.0725883
0.0706412
0.0685984
0.0664582
0.0642299
0.0619098
0.0595069
0.0570182
0.0544475
0.0517907
0.0490532
0.0462364
0.0433332
0.0403448
0.0372651
0.0340882
0.0307708
0.0272335
0.0233422
0.018866
0.0134476
0.0067496
-0.00142964
-0.0100804
-0.0184782
-0.662828
-0.657927
-0.653355
-0.648954
-0.643472
-0.637018
-0.62968
-0.621818
-0.613642
-0.605319
-0.596949
-0.588591
-0.58027
-0.57199
-0.563764
-0.555585
-0.547454
-0.539367
-0.531319
-0.523302
-0.515316
-0.507349
-0.499403
-0.491467
-0.483539
-0.475615
-0.467692
-0.459768
-0.451845
-0.443925
-0.436006
-0.428095
-0.420195
-0.412315
-0.404458
-0.396632
-0.388843
-0.381096
-0.373398
-0.365751
-0.35816
-0.350628
-0.343154
-0.335743
-0.328396
-0.321114
-0.313898
-0.306746
-0.299658
-0.292635
-0.285675
-0.278781
-0.271948
-0.265177
-0.25847
-0.251828
-0.245249
-0.238738
-0.232293
-0.225918
-0.219611
-0.213376
-0.207209
-0.201115
-0.195092
-0.189137
-0.183253
-0.177438
-0.171689
-0.166007
-0.160391
-0.15484
-0.149353
-0.14393
-0.13857
-0.133272
-0.128037
-0.122864
-0.117753
-0.112704
-0.107716
-0.10279
-0.0979248
-0.0931219
-0.0883789
-0.0836978
-0.0790779
-0.0745189
-0.0700209
-0.065584
-0.0612082
-0.0568935
-0.0526396
-0.0484464
-0.0443142
-0.0402436
-0.0362334
-0.0322844
-0.0283951
-0.024568
-0.0207999
-0.0170928
-0.0134436
-0.00985475
-0.00632473
-0.00285429
0.000557638
0.0039104
0.00720396
0.0104384
0.0136141
0.0167312
0.01979
0.0227907
0.0257333
0.0286178
0.0314449
0.0342121
0.0369211
0.0395685
0.0421552
0.0446781
0.0471371
0.0495292
0.0518547
0.0541122
0.0563011
0.0584197
0.0604692
0.0624496
0.0643601
0.0662012
0.0679738
0.0696763
0.0713099
0.0728745
0.0743691
0.0757932
0.0771477
0.0784298
0.0796404
0.0807778
0.0818421
0.0828315
0.0837467
0.0845855
0.0853491
0.0860361
0.0866458
0.0871766
0.0876301
0.0880042
0.0883001
0.0885162
0.0886532
0.0887103
0.0886881
0.0885863
0.0884057
0.0881428
0.0877957
0.0873624
0.0868392
0.0862227
0.0855089
0.0846935
0.0837747
0.0827472
0.0816093
0.0803584
0.0789936
0.0775162
0.0759263
0.0742242
0.0724152
0.0705008
0.0684839
0.0663681
0.0641578
0.0618556
0.0594656
0.056988
0.0544263
0.051781
0.0490515
0.0462423
0.0433466
0.040364
0.0372919
0.0341172
0.0308169
0.0273221
0.0235267
0.0192474
0.0142318
0.00812497
0.000877744
-0.00750606
-0.0156948
-0.0233632
-0.667003
-0.661139
-0.6558
-0.651592
-0.646522
-0.640645
-0.63379
-0.62627
-0.618301
-0.610104
-0.601786
-0.593445
-0.585115
-0.576817
-0.568564
-0.560354
-0.552185
-0.544061
-0.535971
-0.527917
-0.519886
-0.51188
-0.503889
-0.495912
-0.487943
-0.479981
-0.472017
-0.464054
-0.456093
-0.448133
-0.440175
-0.432227
-0.424289
-0.416368
-0.408466
-0.400595
-0.392758
-0.384961
-0.377208
-0.369506
-0.361857
-0.354265
-0.346729
-0.339253
-0.331842
-0.324491
-0.317205
-0.309983
-0.302826
-0.295731
-0.288701
-0.281734
-0.274832
-0.267991
-0.261214
-0.254504
-0.247857
-0.241275
-0.234762
-0.228316
-0.22194
-0.215632
-0.209394
-0.203226
-0.197128
-0.1911
-0.185142
-0.179252
-0.17343
-0.167675
-0.161987
-0.156365
-0.150807
-0.145314
-0.139886
-0.134521
-0.129219
-0.123981
-0.118805
-0.113693
-0.108642
-0.103654
-0.09873
-0.0938673
-0.0890672
-0.0843282
-0.0796532
-0.0750396
-0.0704877
-0.0659994
-0.0615718
-0.0572073
-0.0529047
-0.0486646
-0.0444869
-0.0403712
-0.0363174
-0.0323259
-0.028396
-0.0245291
-0.0207232
-0.016979
-0.0132944
-0.00967064
-0.00610734
-0.00260477
0.000837136
0.00421896
0.00754054
0.0108018
0.0140033
0.0171439
0.0202256
0.0232471
0.0262083
0.0291105
0.0319519
0.0347322
0.0374507
0.0401068
0.0426992
0.0452261
0.0476872
0.0500804
0.0524053
0.0546616
0.0568476
0.0589634
0.0610097
0.0629848
0.0648893
0.0667241
0.0684877
0.0701817
0.071804
0.0733558
0.0748361
0.0762453
0.0775816
0.0788446
0.0800339
0.0811491
0.0821883
0.0831527
0.0840398
0.0848491
0.0855816
0.0862357
0.0868096
0.0873044
0.0877192
0.0880534
0.088307
0.0884797
0.0885711
0.088582
0.0885105
0.0883596
0.0881272
0.0878087
0.0874048
0.086912
0.0863285
0.0856503
0.0848731
0.0839941
0.0830111
0.0819194
0.080717
0.0794027
0.0779769
0.0764384
0.0747872
0.0730256
0.0711578
0.0691853
0.0671096
0.0649367
0.0626675
0.0603074
0.057857
0.0553194
0.0526974
0.0499908
0.0471986
0.0443222
0.0413572
0.038303
0.0351471
0.0318706
0.0284298
0.0247259
0.0206248
0.0158946
0.010309
0.00353383
-0.00417696
-0.0126614
-0.0200386
-0.0266658
-0.672502
-0.665343
-0.659069
-0.654762
-0.649962
-0.644611
-0.638247
-0.631112
-0.623396
-0.615348
-0.607105
-0.598786
-0.590447
-0.582128
-0.573839
-0.565588
-0.55738
-0.549208
-0.541073
-0.532971
-0.524898
-0.516845
-0.508811
-0.500792
-0.492784
-0.484781
-0.47678
-0.46878
-0.460783
-0.452788
-0.444796
-0.436811
-0.428837
-0.420875
-0.412934
-0.40502
-0.397135
-0.389287
-0.38148
-0.373719
-0.366009
-0.358353
-0.350751
-0.343206
-0.33572
-0.328296
-0.320934
-0.313636
-0.306399
-0.299224
-0.292113
-0.285065
-0.27808
-0.27116
-0.264304
-0.25751
-0.250782
-0.244121
-0.237525
-0.230999
-0.22454
-0.21815
-0.211831
-0.205581
-0.1994
-0.19329
-0.187248
-0.181277
-0.175373
-0.169537
-0.163769
-0.158067
-0.152431
-0.14686
-0.141354
-0.135914
-0.130536
-0.125224
-0.119976
-0.114791
-0.10967
-0.104613
-0.09962
-0.0946891
-0.0898226
-0.0850194
-0.0802799
-0.0756037
-0.0709907
-0.0664413
-0.0619551
-0.0575333
-0.0531742
-0.0488793
-0.0446473
-0.0404794
-0.0363744
-0.0323337
-0.0283563
-0.0244424
-0.0205912
-0.0168027
-0.013076
-0.00941144
-0.00580808
-0.00226719
0.00121245
0.00462964
0.00798554
0.0112792
0.0145121
0.017683
0.0207929
0.0238408
0.0268275
0.0297523
0.0326151
0.0354154
0.0381517
0.0408232
0.0434291
0.045969
0.0484399
0.0508422
0.0531755
0.0554369
0.0576278
0.0597475
0.0617959
0.0637716
0.0656753
0.0675074
0.069268
0.0709558
0.0725715
0.0741145
0.0755853
0.0769818
0.0783038
0.0795514
0.0807241
0.0818199
0.0828393
0.0837806
0.0846438
0.0854285
0.0861338
0.0867581
0.0873024
0.0877656
0.0881464
0.088446
0.0886628
0.0887972
0.0888491
0.0888177
0.0887041
0.088508
0.0882258
0.0878566
0.0873994
0.0868518
0.0862115
0.0854738
0.0846355
0.0836957
0.0826497
0.0814955
0.0802314
0.0788578
0.0773721
0.0757754
0.0740687
0.0722545
0.070335
0.0683115
0.0661874
0.063966
0.0616503
0.0592415
0.0567439
0.0541577
0.0514845
0.0487241
0.045877
0.0429419
0.0399127
0.0367845
0.0335413
0.0301442
0.0265356
0.0225771
0.018109
0.0128737
0.00668787
-0.0006695
-0.00868279
-0.0169786
-0.0233042
-0.0286219
-0.678389
-0.66997
-0.662726
-0.657867
-0.653085
-0.648117
-0.642229
-0.635522
-0.628119
-0.620271
-0.612142
-0.603873
-0.595547
-0.587214
-0.578901
-0.570618
-0.562372
-0.554161
-0.545986
-0.537843
-0.529731
-0.521642
-0.513572
-0.50552
-0.497479
-0.489445
-0.481415
-0.473389
-0.465366
-0.457344
-0.449327
-0.441316
-0.43331
-0.425319
-0.417344
-0.409391
-0.401465
-0.393571
-0.385714
-0.377898
-0.37013
-0.36241
-0.354744
-0.347132
-0.339575
-0.332077
-0.32464
-0.317263
-0.309947
-0.302694
-0.295501
-0.288372
-0.281306
-0.274302
-0.267363
-0.260488
-0.253677
-0.246934
-0.240256
-0.233647
-0.227106
-0.220634
-0.214231
-0.207897
-0.201635
-0.195442
-0.189318
-0.183263
-0.177278
-0.171361
-0.165511
-0.159729
-0.154014
-0.148364
-0.142782
-0.137264
-0.131812
-0.126424
-0.121103
-0.115846
-0.110654
-0.105526
-0.100464
-0.0954654
-0.0905326
-0.0856634
-0.0808594
-0.0761203
-0.0714459
-0.066836
-0.0622909
-0.0578115
-0.0533961
-0.0490457
-0.0447605
-0.0405402
-0.0363852
-0.0322947
-0.02827
-0.0243099
-0.0204144
-0.0165827
-0.0128145
-0.00910908
-0.00546737
-0.00188877
0.00162653
0.00507861
0.00846754
0.0117925
0.0150551
0.0182546
0.0213909
0.0244639
0.0274741
0.030421
0.0333032
0.0361213
0.0388736
0.0415602
0.0441787
0.0467287
0.0492086
0.0516192
0.0539572
0.0562235
0.0584163
0.0605377
0.0625847
0.0645582
0.0664586
0.0682855
0.070038
0.0717167
0.073322
0.0748527
0.0763081
0.0776887
0.0789931
0.0802212
0.0813719
0.0824444
0.0834388
0.0843534
0.0851883
0.0859432
0.0866169
0.0872085
0.0877177
0.0881446
0.0884885
0.0887491
0.0889257
0.0890179
0.0890258
0.0889493
0.0887888
0.0885421
0.0882063
0.0877824
0.0872684
0.0866613
0.0859584
0.0851552
0.0842513
0.0832442
0.0821302
0.0809081
0.0795774
0.0781371
0.0765868
0.074928
0.0731628
0.0712915
0.0693176
0.067241
0.0650677
0.062799
0.0604373
0.057983
0.055439
0.0528055
0.0500846
0.0472738
0.044374
0.0413788
0.0382854
0.0350768
0.0317304
0.0281891
0.0243655
0.0200973
0.0151965
0.00941659
0.00266941
-0.00511977
-0.0131507
-0.0208171
-0.0260479
-0.0300399
-0.684428
-0.674957
-0.66676
-0.661038
-0.655985
-0.651203
-0.645718
-0.639451
-0.632414
-0.62483
-0.616865
-0.608689
-0.600402
-0.592082
-0.583756
-0.575455
-0.567182
-0.558942
-0.550737
-0.542565
-0.534421
-0.526302
-0.518206
-0.510127
-0.502062
-0.494006
-0.485956
-0.477911
-0.469869
-0.461829
-0.45379
-0.445755
-0.437727
-0.429708
-0.421702
-0.413714
-0.405748
-0.397809
-0.389904
-0.382036
-0.374211
-0.366429
-0.358697
-0.351017
-0.34339
-0.335818
-0.328305
-0.32085
-0.313456
-0.306123
-0.29885
-0.291639
-0.28449
-0.277405
-0.270383
-0.263426
-0.256534
-0.249707
-0.242949
-0.236256
-0.229634
-0.223078
-0.216592
-0.210176
-0.20383
-0.197554
-0.191346
-0.185209
-0.179142
-0.173143
-0.167212
-0.161348
-0.155554
-0.149826
-0.144164
-0.13857
-0.133042
-0.12758
-0.122184
-0.116855
-0.11159
-0.106392
-0.101261
-0.0961951
-0.0911948
-0.08626
-0.0813925
-0.07659
-0.071854
-0.067184
-0.0625802
-0.0580429
-0.053572
-0.0491667
-0.0448293
-0.0405568
-0.0363523
-0.0322141
-0.028142
-0.024137
-0.0201981
-0.0163244
-0.0125153
-0.00877124
-0.00509235
-0.00147698
0.00207201
0.00555757
0.00897757
0.0123329
0.0156238
0.0188498
0.0220112
0.0251079
0.0281392
0.0311059
0.0340064
0.0368402
0.039606
0.042304
0.044933
0.0474907
0.0499772
0.0523913
0.0547322
0.0569989
0.0591921
0.0613102
0.0633525
0.0653211
0.0672143
0.0690315
0.0707732
0.0724394
0.0740303
0.0755447
0.0769815
0.0783419
0.0796243
0.080829
0.081953
0.0829984
0.0839629
0.084847
0.0856492
0.0863697
0.0870072
0.0875606
0.0880315
0.0884181
0.0887203
0.0889373
0.0890682
0.0891142
0.0890744
0.0889487
0.0887358
0.0884345
0.088042
0.08756
0.0869844
0.0863123
0.085542
0.0846699
0.0836958
0.0826163
0.0814297
0.0801345
0.0787311
0.0772191
0.0755996
0.0738738
0.0720431
0.0701093
0.0680754
0.0659419
0.063715
0.0613957
0.0589835
0.0564803
0.0538879
0.0512085
0.0484385
0.0455758
0.0426206
0.0395647
0.0363976
0.0330984
0.0296245
0.025901
0.0218121
0.0171799
0.0117961
0.00547217
-0.00174455
-0.0097131
-0.0174432
-0.0241673
-0.028342
-0.0312239
-0.690626
-0.680354
-0.671318
-0.664587
-0.659008
-0.654179
-0.648973
-0.643117
-0.636484
-0.629216
-0.621473
-0.613436
-0.605229
-0.596942
-0.588629
-0.580321
-0.572033
-0.563776
-0.555548
-0.547351
-0.539183
-0.531042
-0.522923
-0.514825
-0.506739
-0.498664
-0.490596
-0.482533
-0.474473
-0.466414
-0.458353
-0.450297
-0.442242
-0.434194
-0.426156
-0.418131
-0.410122
-0.402137
-0.394181
-0.386258
-0.378371
-0.370527
-0.362727
-0.354977
-0.347277
-0.339631
-0.332038
-0.324505
-0.317031
-0.309615
-0.302259
-0.294965
-0.287732
-0.280563
-0.273458
-0.266417
-0.25944
-0.252531
-0.245687
-0.23891
-0.232201
-0.225562
-0.218991
-0.21249
-0.206057
-0.199696
-0.193405
-0.187182
-0.181029
-0.174945
-0.168931
-0.162985
-0.157107
-0.151298
-0.145556
-0.139883
-0.134275
-0.128737
-0.123265
-0.11786
-0.112523
-0.107252
-0.102048
-0.0969116
-0.0918425
-0.086841
-0.0819069
-0.0770394
-0.0722399
-0.0675083
-0.062844
-0.0582474
-0.0537187
-0.0492584
-0.0448654
-0.0405416
-0.0362848
-0.0320971
-0.0279773
-0.0239262
-0.019943
-0.0160266
-0.0121761
-0.00839238
-0.00467443
-0.00102368
0.00256145
0.00607961
0.00953169
0.0129174
0.0162371
0.0194896
0.0226764
0.0257968
0.0288498
0.0318354
0.0347535
0.0376031
0.0403827
0.0430924
0.0457296
0.0482949
0.0507867
0.0532037
0.0555464
0.0578132
0.0600043
0.0621183
0.0641561
0.0661169
0.068001
0.069808
0.0715376
0.0731902
0.0747642
0.0762598
0.0776778
0.0790157
0.0802743
0.0814522
0.0825487
0.0835651
0.0844982
0.0853484
0.0861156
0.0867995
0.087398
0.0879122
0.0883417
0.0886854
0.0889426
0.0891132
0.0891972
0.0891946
0.0891046
0.0889265
0.0886595
0.0883014
0.0878511
0.0873088
0.086669
0.0859313
0.0850924
0.0841503
0.0831045
0.0819517
0.0806905
0.079321
0.077843
0.0762577
0.0745654
0.072768
0.0708676
0.0688679
0.0667691
0.0645756
0.0622892
0.0599134
0.0574459
0.0548898
0.0522464
0.0495151
0.0466903
0.0437735
0.0407574
0.037632
0.034381
0.0309681
0.0273377
0.0233875
0.0189845
0.0139339
0.00805352
0.00123898
-0.00627982
-0.0141484
-0.0213002
-0.0269523
-0.0301329
-0.0321938
-0.697041
-0.686223
-0.676446
-0.668693
-0.662407
-0.657297
-0.652194
-0.646674
-0.640442
-0.633529
-0.626062
-0.618214
-0.610124
-0.601904
-0.593621
-0.585323
-0.577033
-0.568762
-0.56052
-0.552304
-0.544118
-0.535954
-0.527819
-0.519698
-0.511593
-0.503498
-0.495411
-0.487328
-0.479246
-0.471164
-0.463081
-0.454996
-0.446912
-0.43883
-0.430754
-0.422689
-0.414635
-0.4066
-0.39859
-0.390607
-0.38266
-0.374749
-0.36688
-0.359056
-0.351283
-0.343558
-0.335886
-0.328271
-0.320713
-0.313213
-0.305771
-0.298391
-0.291074
-0.283818
-0.276627
-0.269499
-0.262436
-0.255439
-0.248507
-0.241644
-0.234848
-0.22812
-0.221461
-0.214871
-0.208351
-0.201901
-0.195521
-0.18921
-0.18297
-0.176798
-0.170697
-0.164665
-0.158702
-0.152808
-0.146982
-0.141226
-0.135538
-0.129918
-0.124366
-0.118883
-0.113468
-0.108122
-0.102843
-0.0976344
-0.0924934
-0.087421
-0.0824176
-0.0774825
-0.0726175
-0.0678199
-0.0630931
-0.0584352
-0.0538463
-0.0493274
-0.0448777
-0.0404987
-0.0361888
-0.0319489
-0.0277793
-0.0236802
-0.0196509
-0.0156899
-0.0117965
-0.00797081
-0.00421321
-0.000524464
0.0030972
0.00665036
0.0101359
0.0135528
0.0169016
0.0201834
0.0233957
0.0265404
0.029616
0.0326222
0.0355586
0.0384238
0.0412178
0.0439392
0.0465859
0.0491592
0.0516565
0.0540772
0.0564212
0.0586873
0.0608764
0.0629867
0.065019
0.0669722
0.0688471
0.0706433
0.0723596
0.073997
0.0755544
0.0770315
0.0784283
0.0797437
0.0809774
0.0821283
0.0831961
0.0841812
0.0850816
0.0858971
0.0866284
0.087274
0.0878321
0.0883056
0.0886916
0.0889902
0.089201
0.0893242
0.0893598
0.089307
0.0891646
0.0889332
0.0886103
0.0881947
0.0876857
0.0870811
0.0863772
0.0855739
0.0846667
0.0836555
0.0825393
0.0813134
0.0799782
0.0785347
0.0769839
0.0753243
0.0735587
0.0716891
0.0697187
0.0676493
0.0654842
0.0632243
0.0608757
0.0584372
0.0559101
0.0532949
0.0505943
0.0478028
0.0449189
0.0419364
0.0388502
0.0356435
0.032288
0.0287354
0.0249109
0.0206895
0.0159207
0.0104252
0.00407173
-0.00312061
-0.0107338
-0.0182342
-0.0245882
-0.0291476
-0.0314613
-0.0328649
-0.703696
-0.692501
-0.682066
-0.67337
-0.666258
-0.660657
-0.655464
-0.650156
-0.644279
-0.637735
-0.63058
-0.622969
-0.615035
-0.606913
-0.598689
-0.590417
-0.582134
-0.573862
-0.565609
-0.557382
-0.549175
-0.540998
-0.532839
-0.524699
-0.516573
-0.508455
-0.500345
-0.492238
-0.484132
-0.476021
-0.46791
-0.459794
-0.451676
-0.443557
-0.435441
-0.42733
-0.41923
-0.411144
-0.403077
-0.395036
-0.387023
-0.379047
-0.371107
-0.363211
-0.35536
-0.347558
-0.339806
-0.33211
-0.324466
-0.316881
-0.309354
-0.301889
-0.294483
-0.287141
-0.279859
-0.272644
-0.265492
-0.258405
-0.251386
-0.244433
-0.237547
-0.230729
-0.22398
-0.217301
-0.21069
-0.204149
-0.197678
-0.191277
-0.184946
-0.178686
-0.172495
-0.166373
-0.160323
-0.154341
-0.14843
-0.142588
-0.136815
-0.131112
-0.125478
-0.119915
-0.114419
-0.108995
-0.10364
-0.0983546
-0.0931397
-0.0879936
-0.0829188
-0.0779143
-0.07298
-0.0681163
-0.0633236
-0.0586014
-0.053951
-0.0493708
-0.0448633
-0.0404269
-0.0360618
-0.0317693
-0.0275474
-0.0233988
-0.0193218
-0.015315
-0.0113765
-0.00750895
-0.00371036
1.81167e-05
0.00367652
0.00726617
0.0107853
0.014235
0.0176145
0.0209244
0.024164
0.0273329
0.0304312
0.0334586
0.036413
0.0392945
0.0421026
0.0448348
0.0474921
0.0500718
0.0525751
0.0549991
0.0573441
0.05961
0.061796
0.0639026
0.0659278
0.0678733
0.0697385
0.071522
0.0732246
0.0748459
0.0763856
0.0778428
0.0792178
0.0805083
0.0817156
0.0828381
0.0838762
0.0848282
0.0856934
0.0864732
0.0871666
0.087771
0.0882878
0.088717
0.0890579
0.0893091
0.0894719
0.0895455
0.0895299
0.0894239
0.0892272
0.0889392
0.0885586
0.0880834
0.0875132
0.0868452
0.0860762
0.0852057
0.0842309
0.0831511
0.0819632
0.0806649
0.0792582
0.0777439
0.076119
0.074387
0.0725491
0.0706082
0.0685674
0.0664278
0.0641937
0.0618669
0.0594512
0.0569461
0.0543525
0.0516741
0.0489067
0.0460487
0.0430922
0.0400357
0.0368654
0.0335569
0.0300731
0.0263478
0.0222842
0.0177441
0.012577
0.00663883
-0.000116717
-0.00752902
-0.0149967
-0.0218812
-0.0273065
-0.0308436
-0.0324046
-0.0333477
-0.710551
-0.699115
-0.688157
-0.678609
-0.670638
-0.664368
-0.658885
-0.653627
-0.648017
-0.641822
-0.635
-0.627657
-0.619924
-0.611937
-0.603794
-0.595568
-0.58731
-0.579042
-0.570787
-0.562548
-0.554329
-0.546131
-0.537952
-0.529789
-0.521638
-0.513497
-0.50536
-0.497224
-0.489088
-0.480949
-0.472803
-0.464653
-0.456498
-0.448341
-0.440182
-0.432026
-0.423878
-0.415739
-0.407616
-0.399515
-0.39144
-0.383399
-0.375389
-0.36742
-0.359495
-0.351614
-0.343784
-0.336003
-0.328278
-0.320607
-0.312995
-0.305441
-0.297948
-0.290516
-0.283145
-0.275841
-0.268599
-0.261423
-0.254312
-0.247268
-0.240291
-0.233382
-0.226541
-0.219768
-0.213067
-0.206433
-0.199869
-0.193376
-0.186952
-0.180599
-0.174318
-0.168105
-0.161964
-0.155893
-0.149893
-0.143964
-0.138104
-0.132314
-0.126597
-0.12095
-0.115373
-0.109867
-0.104433
-0.0990685
-0.0937773
-0.0885566
-0.0834074
-0.0783309
-0.0733254
-0.0683931
-0.0635331
-0.0587449
-0.05403
-0.0493886
-0.0448195
-0.0403242
-0.0359032
-0.0315548
-0.0272808
-0.0230809
-0.0189547
-0.0149004
-0.0109173
-0.00700493
-0.00316505
0.000603833
0.00430162
0.00792692
0.0114811
0.0149642
0.0183747
0.0217131
0.0249803
0.0281739
0.0312954
0.034343
0.0373153
0.0402136
0.0430352
0.0457795
0.0484454
0.0510322
0.0535394
0.0559669
0.0583133
0.0605774
0.0627601
0.0648608
0.0668795
0.0688164
0.0706699
0.0724404
0.0741285
0.0757323
0.077253
0.0786891
0.0800394
0.0813047
0.0824839
0.0835764
0.0845823
0.0854994
0.0863293
0.0870704
0.0877227
0.0882842
0.0887575
0.0891409
0.089434
0.0896365
0.0897479
0.089769
0.0896987
0.0895367
0.0892831
0.0889357
0.0884947
0.0879575
0.0873238
0.086589
0.0857539
0.0848157
0.0837723
0.0826227
0.0813634
0.0799942
0.0785179
0.0769315
0.0752353
0.0734333
0.071525
0.0695155
0.0674045
0.065197
0.0628941
0.0604995
0.0580148
0.055441
0.0527789
0.0500299
0.0471899
0.0442539
0.0412187
0.0380731
0.0348022
0.0313666
0.027721
0.0237837
0.0194389
0.0145405
0.00896302
0.00261886
-0.0044221
-0.0118553
-0.018946
-0.0250398
-0.029476
-0.0321104
-0.0330602
-0.0336889
-0.717511
-0.70595
-0.694625
-0.684355
-0.675521
-0.668484
-0.662524
-0.657141
-0.651674
-0.645771
-0.639275
-0.63223
-0.624733
-0.616912
-0.608881
-0.600725
-0.592505
-0.584256
-0.576003
-0.567756
-0.559525
-0.551309
-0.543108
-0.53492
-0.526744
-0.518572
-0.510407
-0.50224
-0.494072
-0.4859
-0.47772
-0.469535
-0.461341
-0.453145
-0.444945
-0.436742
-0.428545
-0.420357
-0.412181
-0.404022
-0.395888
-0.387778
-0.379702
-0.371664
-0.363664
-0.355707
-0.347797
-0.339936
-0.332127
-0.324372
-0.316674
-0.309032
-0.301452
-0.29393
-0.286472
-0.279075
-0.271743
-0.264476
-0.257273
-0.250137
-0.243069
-0.236065
-0.229132
-0.222266
-0.215468
-0.208741
-0.202084
-0.195495
-0.188978
-0.182531
-0.176155
-0.169851
-0.163616
-0.157454
-0.151364
-0.145343
-0.139395
-0.133518
-0.127714
-0.121981
-0.11632
-0.110731
-0.105214
-0.099771
-0.0943996
-0.0891018
-0.0838771
-0.0787251
-0.0736485
-0.0686445
-0.0637145
-0.0588593
-0.0540786
-0.0493732
-0.0447421
-0.0401867
-0.0357062
-0.0313024
-0.0269741
-0.0227218
-0.0185455
-0.0144427
-0.010413
-0.00645676
-0.00257287
0.0012369
0.00497374
0.00863631
0.0122259
0.0157418
0.0191842
0.0225524
0.0258456
0.029065
0.0322089
0.0352766
0.0382677
0.0411807
0.0440158
0.0467705
0.0494452
0.0520386
0.0545499
0.0569789
0.0593247
0.0615878
0.0637658
0.0658603
0.0678713
0.0697973
0.0716385
0.0733945
0.0750659
0.0766519
0.0781509
0.0795632
0.0808884
0.0821261
0.0832747
0.084336
0.0853066
0.0861871
0.0869788
0.0876786
0.0882876
0.0888052
0.0892316
0.0895669
0.0898086
0.0899587
0.0900167
0.0899816
0.089854
0.0896334
0.0893186
0.0889086
0.0884036
0.0878007
0.0870993
0.0862966
0.0853929
0.0843845
0.0832708
0.0820491
0.0807182
0.0792787
0.0777322
0.0760746
0.0743099
0.072438
0.0704627
0.0683845
0.0662072
0.0639323
0.0615625
0.0591001
0.0565479
0.053904
0.051171
0.0483468
0.0454282
0.042409
0.0392835
0.0360358
0.0326396
0.0290524
0.0252119
0.0210187
0.0163539
0.0110792
0.00509898
-0.00157369
-0.00874721
-0.0159898
-0.0225084
-0.0276808
-0.0311588
-0.033025
-0.0335422
-0.0340493
-0.72447
-0.712943
-0.701396
-0.690543
-0.680923
-0.67306
-0.66648
-0.660792
-0.655324
-0.649622
-0.643423
-0.636679
-0.629439
-0.62182
-0.613929
-0.605868
-0.597703
-0.589483
-0.58124
-0.572993
-0.56475
-0.556516
-0.548293
-0.54008
-0.531875
-0.523676
-0.515478
-0.50728
-0.49908
-0.490874
-0.48266
-0.474438
-0.466209
-0.457974
-0.449732
-0.441486
-0.433244
-0.425008
-0.41678
-0.408567
-0.400372
-0.392201
-0.38406
-0.375951
-0.367879
-0.359846
-0.351858
-0.343918
-0.336026
-0.328187
-0.320402
-0.312675
-0.305004
-0.297395
-0.289845
-0.282357
-0.274934
-0.267573
-0.260278
-0.253048
-0.245884
-0.238788
-0.231758
-0.224796
-0.217902
-0.211079
-0.204325
-0.197641
-0.191027
-0.184483
-0.178013
-0.171612
-0.165284
-0.159028
-0.152843
-0.146731
-0.140691
-0.134724
-0.12883
-0.123009
-0.117261
-0.111586
-0.105986
-0.10046
-0.0950074
-0.0896289
-0.0843264
-0.0790982
-0.0739455
-0.068869
-0.0638673
-0.0589431
-0.0540943
-0.0493224
-0.0446282
-0.0400104
-0.0354699
-0.031008
-0.0266237
-0.0223179
-0.0180901
-0.0139378
-0.00986008
-0.00585801
-0.0019301
0.00192209
0.00569819
0.00939929
0.0130252
0.0165744
0.020049
0.0234464
0.0267676
0.0300121
0.0331782
0.0362666
0.0392755
0.0422033
0.0450509
0.0478163
0.0504993
0.0530984
0.055613
0.0580432
0.060388
0.0626473
0.0648211
0.0669085
0.0689094
0.0708237
0.0726505
0.0743914
0.0760448
0.0776094
0.0790853
0.0804724
0.0817705
0.0829787
0.0840956
0.0851214
0.0860558
0.0868975
0.0876476
0.0883047
0.0888682
0.0893389
0.0897168
0.0899994
0.0901887
0.0902832
0.0902849
0.0901911
0.0900035
0.0897199
0.0893408
0.0888656
0.0882926
0.0876215
0.086849
0.0859767
0.0850006
0.0839197
0.0827326
0.081438
0.0800349
0.0785251
0.0769067
0.0751782
0.073344
0.0714055
0.0693625
0.0672184
0.0649755
0.0626351
0.0602001
0.057672
0.0550518
0.0523388
0.0495318
0.0466323
0.0436303
0.0405238
0.0372962
0.0339307
0.0303895
0.0266233
0.0225509
0.0180685
0.0130553
0.00739995
0.00107017
-0.0058203
-0.0129502
-0.0198
-0.0255872
-0.0298088
-0.0324048
-0.0336764
-0.0339652
-0.034486
-0.731351
-0.719959
-0.708336
-0.697067
-0.686778
-0.678092
-0.670798
-0.664648
-0.65902
-0.653403
-0.647435
-0.640975
-0.634009
-0.626614
-0.618895
-0.610949
-0.602859
-0.594683
-0.586461
-0.578217
-0.569969
-0.56172
-0.553476
-0.54524
-0.537009
-0.52878
-0.520554
-0.512325
-0.504093
-0.495854
-0.487608
-0.479354
-0.471088
-0.462816
-0.454536
-0.446251
-0.437966
-0.429683
-0.421406
-0.413139
-0.404889
-0.396657
-0.388452
-0.380276
-0.372132
-0.364026
-0.355962
-0.347941
-0.339969
-0.332046
-0.324175
-0.316359
-0.308601
-0.3009
-0.29326
-0.28568
-0.278163
-0.270709
-0.26332
-0.255994
-0.248734
-0.241541
-0.234414
-0.227354
-0.220364
-0.213441
-0.206588
-0.199805
-0.193094
-0.186453
-0.179882
-0.173385
-0.166959
-0.160606
-0.154326
-0.148119
-0.141985
-0.135925
-0.12994
-0.124027
-0.11819
-0.112428
-0.106741
-0.101129
-0.0955932
-0.0901333
-0.0847499
-0.0794429
-0.0742137
-0.0690606
-0.0639867
-0.0589897
-0.0540719
-0.0492319
-0.0444716
-0.0397899
-0.0351887
-0.0306665
-0.026225
-0.0218643
-0.0175839
-0.0133809
-0.00925434
-0.00520472
-0.00123283
0.00266256
0.00647972
0.0102198
0.0138819
0.0174664
0.020972
0.0244002
0.0277483
0.0310178
0.0342065
0.0373143
0.0403405
0.0432833
0.0461432
0.0489179
0.0516074
0.0542122
0.0567291
0.0591592
0.0615022
0.0637574
0.0659244
0.0680028
0.0699929
0.0718935
0.0737056
0.0754281
0.0770605
0.0786021
0.0800532
0.0814133
0.0826809
0.0838566
0.0849392
0.0859274
0.0868229
0.0876233
0.0883292
0.0889402
0.089456
0.0898768
0.0902022
0.0904306
0.0905645
0.0906011
0.0905429
0.0903869
0.0901351
0.0897863
0.0893404
0.0887958
0.0881524
0.0874087
0.0865639
0.0856172
0.0845656
0.0834095
0.0821465
0.080777
0.0793005
0.0777166
0.076024
0.0742248
0.0723218
0.0703139
0.068203
0.065993
0.0636841
0.0612795
0.0587795
0.0561853
0.0534974
0.0507141
0.0478349
0.0448555
0.0417692
0.038566
0.0352292
0.0317273
0.0280215
0.0240473
0.0197162
0.0149176
0.00955322
0.00354415
-0.00305442
-0.0100187
-0.01692
-0.0232014
-0.0281614
-0.0314626
-0.0333108
-0.0341744
-0.034436
-0.0351518
-0.738111
-0.726923
-0.715366
-0.703865
-0.693043
-0.683601
-0.675538
-0.668805
-0.662863
-0.657194
-0.65137
-0.645153
-0.638449
-0.631296
-0.623766
-0.615963
-0.607969
-0.599855
-0.591666
-0.583437
-0.575188
-0.566931
-0.558672
-0.550414
-0.542159
-0.533906
-0.525652
-0.517395
-0.509133
-0.500867
-0.49259
-0.484302
-0.476007
-0.467699
-0.459384
-0.451062
-0.442736
-0.434409
-0.426083
-0.417767
-0.409461
-0.401172
-0.392905
-0.384662
-0.376449
-0.368269
-0.360129
-0.352029
-0.343976
-0.335968
-0.328011
-0.320107
-0.312259
-0.304467
-0.296734
-0.289061
-0.281449
-0.2739
-0.266413
-0.25899
-0.251632
-0.24434
-0.237112
-0.229954
-0.222863
-0.215838
-0.208885
-0.202001
-0.195188
-0.188445
-0.181774
-0.175176
-0.168651
-0.162198
-0.155819
-0.149514
-0.143285
-0.137128
-0.131048
-0.125043
-0.119114
-0.11326
-0.107484
-0.101783
-0.0961617
-0.0906162
-0.0851497
-0.0797618
-0.074452
-0.0692218
-0.0640711
-0.0590002
-0.0540101
-0.0491009
-0.044272
-0.039525
-0.0348603
-0.0302775
-0.0257759
-0.0213587
-0.017024
-0.012769
-0.00859123
-0.00449383
-0.000476173
0.00346269
0.00732241
0.0111015
0.0148011
0.0184208
0.0219597
0.0254178
0.0287943
0.0320884
0.0352995
0.0384278
0.0414698
0.0444281
0.0472991
0.0500839
0.0527797
0.0553876
0.0579062
0.0603364
0.0626752
0.0649248
0.0670836
0.0691521
0.0711292
0.0730147
0.0748094
0.0765121
0.0781214
0.0796382
0.0810619
0.0823927
0.0836276
0.0847677
0.0858134
0.0867624
0.0876153
0.0883717
0.089032
0.0895943
0.0900598
0.0904279
0.0906981
0.0908708
0.090945
0.0909215
0.0908004
0.0905801
0.0902619
0.0898453
0.089329
0.088713
0.0879964
0.0871782
0.0862577
0.085234
0.0841053
0.0828707
0.0815309
0.0800842
0.078531
0.0768708
0.0751041
0.0732324
0.071257
0.0691774
0.0669989
0.0647215
0.0623466
0.0598752
0.0573086
0.0546468
0.0518902
0.0490352
0.0460811
0.0430199
0.0398424
0.0365355
0.0330752
0.0294248
0.0255342
0.0213284
0.0167133
0.0115917
0.0058877
-0.000407721
-0.00716184
-0.0140378
-0.0205342
-0.0261122
-0.0302177
-0.0326803
-0.0339563
-0.03461
-0.0350293
-0.0360666
-0.744616
-0.733766
-0.722408
-0.710829
-0.699628
-0.689525
-0.680716
-0.673312
-0.666919
-0.661057
-0.655266
-0.649225
-0.642758
-0.635843
-0.628524
-0.620884
-0.61301
-0.604976
-0.59684
-0.588637
-0.580398
-0.57214
-0.563873
-0.5556
-0.547327
-0.539052
-0.530775
-0.522495
-0.514209
-0.505915
-0.49761
-0.489296
-0.480969
-0.472631
-0.464281
-0.455924
-0.447558
-0.439189
-0.430819
-0.422453
-0.414094
-0.405748
-0.397418
-0.389112
-0.380829
-0.372578
-0.364361
-0.356184
-0.348047
-0.339955
-0.331912
-0.32392
-0.315979
-0.308096
-0.300269
-0.2925
-0.284792
-0.277144
-0.269559
-0.262036
-0.254577
-0.247183
-0.239854
-0.232592
-0.225397
-0.218271
-0.211213
-0.204224
-0.197307
-0.190461
-0.183687
-0.176984
-0.170357
-0.163803
-0.157322
-0.150917
-0.144587
-0.138333
-0.132153
-0.126052
-0.120027
-0.114079
-0.108211
-0.102421
-0.0967083
-0.0910761
-0.0855231
-0.0800515
-0.0746588
-0.0693489
-0.0641193
-0.058972
-0.0539073
-0.0489255
-0.0440275
-0.0392128
-0.0344817
-0.0298351
-0.025274
-0.0207982
-0.0164073
-0.0120983
-0.00787023
-0.00372266
0.000343295
0.00432691
0.00822874