/*--------------------------------*- C++ -*----------------------------------*\
  =========                 |
  \\      /  F ield         | OpenFOAM: The Open Source CFD Toolbox
   \\    /   O peration     | Website:  https://openfoam.org
    \\  /    A nd           | Version:  8
     \\/     M anipulation  |
\*---------------------------------------------------------------------------*/
FoamFile
{
    version     2.0;
    format      ascii;
    class       volVectorField;
    location    "0.17";
    object      U;
}
// * * * * * * * * * * * * * * * * * * * * * * * * * * * * * * * * * * * * * //

dimensions      [0 1 -1 0 0 0 0];

internalField   nonuniform List<vector> 
112642
(
(15.0001 2.57101e-06 1.31093e-21)
(15.0001 9.0912e-05 4.0148e-21)
(15.0001 0.000130825 9.86576e-21)
(15.0001 0.000104672 -2.03055e-21)
(15.0001 9.35246e-05 -2.80877e-20)
(15.0002 6.73208e-05 2.3295e-20)
(15.0002 4.89464e-05 7.23253e-22)
(15.0002 3.17064e-05 -6.11779e-21)
(15.0002 1.9155e-05 -1.60088e-20)
(15.0002 8.40332e-06 2.19969e-20)
(15.0002 3.03778e-08 4.9716e-22)
(15.0002 -7.24682e-06 -2.83888e-20)
(15.0002 -1.36911e-05 -1.63322e-20)
(15.0002 -1.90002e-05 -1.5389e-20)
(15.0002 -2.41104e-05 -1.25016e-20)
(15.0002 -2.86815e-05 -1.89701e-20)
(15.0002 -3.28903e-05 1.31702e-20)
(15.0002 -3.70632e-05 -2.15215e-20)
(15.0002 -4.0778e-05 1.49058e-20)
(15.0002 -4.43758e-05 2.08959e-20)
(15.0002 -4.79069e-05 3.55518e-20)
(15.0002 -5.13591e-05 1.43921e-20)
(15.0002 -5.46226e-05 1.42055e-20)
(15.0002 -5.79628e-05 7.76084e-21)
(15.0002 -6.10957e-05 -6.53462e-21)
(15.0002 -6.43837e-05 -1.37603e-20)
(15.0002 -6.75183e-05 2.08211e-20)
(15.0002 -7.05819e-05 -2.7111e-20)
(15.0002 -7.37124e-05 1.88134e-22)
(15.0002 -7.67964e-05 -1.33316e-20)
(15.0002 -7.98521e-05 -1.28497e-20)
(15.0002 -8.27436e-05 -1.53697e-22)
(15.0002 -8.55787e-05 -1.25359e-20)
(15.0002 -8.83731e-05 -1.26426e-20)
(15.0002 -9.08484e-05 1.24458e-20)
(15.0002 -9.34057e-05 -1.36144e-22)
(15.0001 -9.5737e-05 1.87421e-20)
(15.0001 -9.80044e-05 -1.16873e-20)
(15.0001 -0.00010027 4.72408e-21)
(15.0001 -0.000102226 -2.2612e-20)
(15.0001 -0.000104237 2.21474e-20)
(15.0001 -0.000106048 -1.76097e-20)
(15.0001 -0.000107677 -3.83608e-21)
(15.0001 -0.000109314 1.07181e-22)
(15.0001 -0.000110895 -1.01533e-20)
(15.0001 -0.0001123 -3.0691e-21)
(15.0001 -0.000113775 -9.5914e-21)
(15.0001 -0.0001151 1.59958e-20)
(15.0001 -0.000116247 9.20813e-21)
(15.0001 -0.000117506 -2.21579e-20)
(15.0001 -0.000118601 -6.64815e-21)
(15.0001 -0.000119735 -1.6849e-20)
(15.0001 -0.000120722 -1.64161e-20)
(15.0001 -0.000121747 6.52472e-21)
(15.0001 -0.000122591 6.55857e-21)
(15.0001 -0.000123344 7.53793e-21)
(15.0001 -0.00012401 1.46392e-20)
(15.0001 -0.000124631 -6.40585e-21)
(15.0001 -0.000125033 -6.93572e-21)
(15.0001 -0.00012544 6.70683e-21)
(15.0001 -0.000125723 -6.501e-21)
(15.0001 -0.000125823 4.67818e-23)
(15.0001 -0.00012595 -6.05555e-21)
(15.0001 -0.000125956 5.19165e-23)
(15.0001 -0.000125943 -5.61768e-21)
(15.0001 -0.000125881 1.14824e-20)
(15.0001 -0.00012571 0)
(15.0001 -0.000125625 4.94562e-21)
(15.0001 -0.000125418 -4.74434e-21)
(15.0001 -0.000125171 -4.54286e-21)
(15.0001 -0.000124888 -1.02074e-20)
(15.0001 -0.000124565 5.77625e-21)
(15.0001 -0.000124191 7.98288e-21)
(15.0001 -0.000123787 -9.55368e-21)
(15 -0.000123394 1.13824e-20)
(15 -0.000122924 -5.59874e-21)
(15 -0.000122337 -1.21037e-20)
(15 -0.000121832 2.50014e-21)
(15 -0.000121191 0)
(15 -0.000120531 0)
(15 -0.000119773 0)
(15 -0.000119049 2.40536e-21)
(15 -0.000118252 0)
(15 -0.000117438 3.1494e-21)
(15 -0.000116517 -1.03506e-20)
(15 -0.000115561 -3.61505e-21)
(15 -0.000114633 1.69116e-20)
(15 -0.000113596 -3.52028e-21)
(15 -0.000112545 -3.61483e-21)
(15 -0.000111449 4.9095e-21)
(15 -0.000110333 1.09915e-21)
(15 -0.000109187 -9.69736e-22)
(15 -0.000107968 -8.31359e-22)
(15 -0.000106723 -8.6535e-21)
(15 -0.000105426 -9.83626e-21)
(15 -0.000104118 4.08113e-21)
(15 -0.000102764 8.99836e-21)
(15 -0.000101402 0)
(15 -9.99874e-05 -1.41241e-22)
(15 -9.85517e-05 -4.31047e-21)
(15 -9.71009e-05 6.03167e-23)
(15 -9.56328e-05 4.01366e-21)
(15 -9.41498e-05 0)
(15 -9.26191e-05 -8.06185e-21)
(15 -9.10872e-05 1.70884e-21)
(15 -8.95216e-05 3.37386e-21)
(15 -8.79519e-05 1.18028e-21)
(15 -8.63499e-05 3.74209e-21)
(15 -8.47355e-05 4.40898e-21)
(15 -8.30815e-05 -1.61194e-21)
(15 -8.14231e-05 -8.60599e-22)
(15 -7.97713e-05 -3.46058e-21)
(15 -7.81105e-05 1.00019e-21)
(15 -7.64651e-05 -3.32714e-21)
(15 -7.47703e-05 2.2016e-21)
(15 -7.311e-05 2.0038e-21)
(15 -7.14386e-05 4.2882e-21)
(15 -6.97038e-05 -1.2365e-21)
(15 -6.79542e-05 -7.56108e-21)
(15 -6.61456e-05 4.13637e-21)
(15 -6.43329e-05 2.77874e-21)
(15 -6.24422e-05 -2.61191e-21)
(15 -6.05204e-05 -2.62612e-21)
(15 -5.85106e-05 -1.20496e-21)
(15 -5.65272e-05 7.56172e-21)
(15 -5.44896e-05 -1.34644e-21)
(15 -5.24296e-05 -9.40768e-22)
(15 -5.03866e-05 4.3683e-21)
(15 -4.83575e-05 -4.70166e-21)
(15 -4.6345e-05 -7.19159e-22)
(15 -4.43465e-05 1.91834e-21)
(15 -4.23706e-05 6.31345e-22)
(15 -4.04196e-05 -2.94833e-21)
(15 -3.84615e-05 2.84241e-21)
(15 -3.656e-05 -7.08755e-22)
(15 -3.46561e-05 -1.50243e-21)
(15 -3.27671e-05 -1.39763e-21)
(15 -3.08956e-05 2.32456e-21)
(15 -2.90277e-05 3.4224e-21)
(15 -2.71831e-05 -1.36582e-23)
(15 -2.53235e-05 -1.06494e-21)
(15 -2.34698e-05 0)
(15 -2.16435e-05 -6.84749e-22)
(15 -1.98023e-05 0)
(15 -1.79915e-05 7.10494e-22)
(15 -1.61868e-05 -4.33948e-22)
(15 -1.44028e-05 -1.86777e-22)
(15 -1.26246e-05 -2.36609e-22)
(15 -1.08711e-05 -3.45305e-22)
(15 -9.116e-06 3.43557e-23)
(15 -7.39601e-06 4.39643e-22)
(15 -5.67689e-06 3.03672e-22)
(15 -4.01129e-06 3.63616e-22)
(15 -2.36275e-06 -3.84279e-22)
(15 -7.39856e-07 0)
(15 8.49267e-07 4.85812e-22)
(15 2.39864e-06 1.30769e-21)
(15 3.91477e-06 1.5148e-21)
(15 5.37164e-06 -1.77233e-21)
(15 6.83771e-06 7.42301e-22)
(15 8.28085e-06 1.65888e-23)
(15 9.72092e-06 8.17214e-22)
(15 1.11365e-05 -9.39876e-22)
(15 1.25698e-05 2.10944e-21)
(15 1.39817e-05 -1.47066e-22)
(15 1.53754e-05 -5.04886e-21)
(15 1.67421e-05 -1.32201e-21)
(15 1.80806e-05 -1.57961e-21)
(15 1.93668e-05 -3.95923e-23)
(15 2.06399e-05 4.62872e-23)
(15 2.18052e-05 1.73703e-21)
(15 2.29743e-05 5.53591e-24)
(15 2.40651e-05 -1.25046e-20)
(15 2.51302e-05 7.10433e-21)
(15 2.61877e-05 -7.45084e-21)
(15.0001 2.71592e-05 7.2913e-21)
(15.0001 2.81996e-05 -7.70936e-21)
(15.0001 2.9201e-05 8.29068e-22)
(15.0001 3.03292e-05 8.31246e-21)
(15.0001 3.13132e-05 -9.22432e-22)
(15.0001 3.25672e-05 -6.39577e-21)
(15.0001 3.38009e-05 6.6664e-21)
(15.0001 3.51508e-05 2.70939e-21)
(15.0001 3.65685e-05 -4.12588e-21)
(15.0001 3.82181e-05 -1.77348e-20)
(15.0001 4.02925e-05 9.30002e-21)
(15.0001 4.24824e-05 -7.83024e-21)
(15.0001 4.49863e-05 4.84182e-21)
(15.0001 4.82863e-05 1.19112e-20)
(15.0001 5.25126e-05 -5.78483e-21)
(15.0001 5.77833e-05 2.25394e-21)
(15.0001 6.49984e-05 9.99029e-21)
(15.0001 7.4506e-05 -1.49438e-20)
(15.0001 8.83279e-05 1.28476e-20)
(15.0001 0.00010297 9.05808e-21)
(15.0002 0.000125271 2.23663e-20)
(15.0002 0.000133397 -2.01608e-20)
(15.0002 0.000147473 -2.56673e-20)
(15.0002 0.000100896 2.77149e-20)
(15.0001 3.25867e-06 -2.26211e-20)
(15.0003 -0.000102839 -8.74773e-21)
(15.0003 -0.000620555 1.15346e-20)
(15.0002 -0.000777506 2.24021e-21)
(15.0003 -0.000662469 1.6468e-20)
(15.0003 -0.000612235 -1.8502e-20)
(15.0004 -0.000500022 1.04289e-20)
(15.0004 -0.000428145 2.03293e-20)
(15.0005 -0.000366744 -6.1974e-22)
(15.0005 -0.000325259 -5.81047e-21)
(15.0005 -0.00029511 -9.81797e-22)
(15.0005 -0.000274134 1.41179e-20)
(15.0005 -0.000260293 -6.70599e-21)
(15.0005 -0.000250899 -1.58919e-20)
(15.0005 -0.000245695 8.9215e-21)
(15.0005 -0.000242751 -3.76826e-20)
(15.0005 -0.000241865 -1.37485e-21)
(15.0005 -0.000242627 2.1809e-20)
(15.0005 -0.000244846 1.09072e-21)
(15.0005 -0.000247962 -1.40079e-20)
(15.0005 -0.00025195 4.86712e-23)
(15.0005 -0.000256465 6.86228e-21)
(15.0005 -0.000261993 2.09379e-20)
(15.0005 -0.000267508 1.36887e-20)
(15.0005 -0.000273624 4.23024e-23)
(15.0004 -0.000279784 6.94403e-21)
(15.0004 -0.000286396 -1.38364e-20)
(15.0004 -0.000292857 -4.70091e-22)
(15.0004 -0.000299201 1.90291e-21)
(15.0004 -0.000305441 5.23749e-21)
(15.0004 -0.000311302 7.1415e-21)
(15.0004 -0.000317066 -7.06886e-21)
(15.0004 -0.00032221 -2.92704e-22)
(15.0004 -0.000327153 1.93146e-20)
(15.0004 -0.000331656 -4.96486e-20)
(15.0004 -0.000335651 -7.41227e-21)
(15.0004 -0.000339381 -1.1275e-20)
(15.0004 -0.000342691 1.46532e-20)
(15.0004 -0.000345699 2.05296e-22)
(15.0004 -0.000348714 -1.09045e-20)
(15.0004 -0.000351172 -2.80543e-20)
(15.0004 -0.000353758 -1.78477e-20)
(15.0004 -0.000355861 4.60841e-21)
(15.0004 -0.000357888 -9.87301e-21)
(15.0004 -0.000359744 0)
(15.0003 -0.000361544 -2.26626e-21)
(15.0003 -0.000363134 7.21746e-21)
(15.0003 -0.000364845 -2.32069e-20)
(15.0003 -0.00036627 1.02932e-20)
(15.0003 -0.000367578 2.27085e-20)
(15.0003 -0.000368963 -6.94429e-21)
(15.0003 -0.000370229 -8.23628e-21)
(15.0003 -0.000371319 -1.77101e-21)
(15.0003 -0.000372221 -2.91771e-20)
(15.0003 -0.000373143 -1.44727e-20)
(15.0003 -0.000373714 5.95673e-23)
(15.0003 -0.000374079 -6.57641e-21)
(15.0003 -0.000374284 6.71338e-21)
(15.0003 -0.000374262 1.35361e-20)
(15.0002 -0.000373935 -1.96152e-20)
(15.0002 -0.000373549 -1.25892e-20)
(15.0002 -0.000372938 5.38996e-22)
(15.0002 -0.000372072 0)
(15.0002 -0.000371221 -5.67583e-21)
(15.0002 -0.000370169 5.46671e-21)
(15.0002 -0.000369048 -1.16235e-20)
(15.0002 -0.000367846 -2.87394e-23)
(15.0002 -0.000366548 3.69576e-23)
(15.0002 -0.000365275 1.08176e-20)
(15.0002 -0.000363819 1.23555e-20)
(15.0002 -0.000362288 -2.01632e-24)
(15.0002 -0.000360656 -1.20825e-20)
(15.0002 -0.000358968 -1.20355e-20)
(15.0001 -0.000357154 5.94908e-21)
(15.0001 -0.000355197 -1.11023e-21)
(15.0001 -0.000353236 5.83056e-21)
(15.0001 -0.000351108 8.95715e-21)
(15.0001 -0.000348799 -2.99081e-21)
(15.0001 -0.00034653 -5.67398e-21)
(15.0001 -0.000344028 -8.2887e-21)
(15.0001 -0.000341431 2.48969e-21)
(15.0001 -0.000338668 -7.84247e-21)
(15.0001 -0.000335876 -2.1907e-21)
(15.0001 -0.000332952 1.28273e-20)
(15.0001 -0.000329954 5.35041e-21)
(15.0001 -0.000326777 -5.28094e-21)
(15.0001 -0.000323503 -8.41402e-21)
(15.0001 -0.000320201 9.11584e-25)
(15.0001 -0.000316759 -5.10604e-21)
(15 -0.000313216 -9.41174e-24)
(15 -0.000309581 6.04262e-21)
(15 -0.000305912 5.84985e-21)
(15 -0.000302113 1.05285e-20)
(15 -0.000298198 -8.90047e-21)
(15 -0.000294211 -9.47374e-21)
(15 -0.000290159 -1.37535e-21)
(15 -0.000286082 -1.05193e-21)
(15 -0.000281885 4.79494e-21)
(15 -0.000277645 4.48296e-21)
(15 -0.000273289 3.13277e-25)
(15 -0.000268901 -4.40227e-21)
(15 -0.000264495 -4.13992e-21)
(15 -0.00026007 1.82846e-24)
(15 -0.000255625 4.139e-21)
(15 -0.000251083 8.14242e-21)
(15 -0.000246516 -3.05551e-21)
(15 -0.000241868 -3.36582e-21)
(15 -0.000237221 4.45941e-21)
(15 -0.000232549 6.46868e-24)
(15 -0.000227855 -2.96361e-21)
(15 -0.000223115 -7.26174e-21)
(15 -0.000218338 7.99071e-21)
(15 -0.000213589 3.47539e-21)
(15 -0.000208848 4.84819e-24)
(15 -0.000204112 -1.0172e-21)
(15 -0.000199354 -1.16882e-21)
(15 -0.000194647 -2.16884e-21)
(15 -0.000189924 3.13722e-21)
(15 -0.000185141 -1.14173e-21)
(15 -0.000180337 -6.8118e-22)
(15 -0.000175467 1.16023e-21)
(15 -0.000170564 -6.84452e-21)
(15 -0.000165561 1.45703e-23)
(15 -0.000160499 5.3544e-21)
(15 -0.00015532 3.74796e-21)
(15 -0.000150166 -5.32555e-24)
(15 -0.000144954 -4.65394e-21)
(15 -0.000139719 1.09146e-21)
(15 -0.000134534 -2.27982e-21)
(15 -0.000129367 -2.08614e-21)
(15 -0.000124241 3.12567e-21)
(15 -0.000119178 4.06499e-21)
(15 -0.000114175 -4.87348e-21)
(15 -0.000109242 -3.71646e-21)
(15 -0.000104343 8.75297e-22)
(15 -9.95391e-05 7.41471e-24)
(15 -9.47743e-05 8.25113e-22)
(15 -9.00773e-05 7.48187e-22)
(15 -8.5435e-05 3.63e-21)
(15 -8.08248e-05 7.64917e-22)
(15 -7.6304e-05 -2.42424e-21)
(15 -7.17961e-05 -1.71322e-21)
(15 -6.73786e-05 -7.42739e-22)
(15 -6.30473e-05 1.44653e-24)
(15 -5.87843e-05 7.49664e-22)
(15 -5.46295e-05 0)
(15 -5.06034e-05 7.79389e-22)
(15 -4.66897e-05 -7.40446e-22)
(15 -4.29177e-05 -6.65619e-22)
(15 -3.92901e-05 1.15941e-21)
(15 -3.58556e-05 -9.04843e-22)
(15 -3.2526e-05 -4.25863e-22)
(15 -2.94173e-05 1.02003e-21)
(15 -2.64616e-05 1.89136e-21)
(15 -2.37658e-05 -9.5886e-22)
(15 -2.12578e-05 -1.92147e-22)
(15 -1.89918e-05 -1.295e-21)
(15.0001 -1.69583e-05 1.53887e-21)
(15.0001 -1.51852e-05 -1.80392e-21)
(15.0001 -1.35473e-05 1.63166e-21)
(15.0001 -1.22025e-05 1.95023e-21)
(15.0001 -1.09056e-05 4.03235e-21)
(15.0001 -9.78462e-06 4.44884e-22)
(15.0001 -8.74974e-06 2.0433e-21)
(15.0001 -7.80159e-06 6.81604e-22)
(15.0001 -6.79406e-06 6.62108e-22)
(15.0001 -5.90242e-06 -4.07188e-21)
(15.0001 -4.92745e-06 -4.42723e-21)
(15.0001 -4.1206e-06 1.06611e-21)
(15.0001 -3.35028e-06 -2.93065e-21)
(15.0001 -2.78277e-06 5.45924e-23)
(15.0002 -2.32167e-06 -3.15966e-21)
(15.0002 -2.29577e-06 -1.21858e-20)
(15.0002 -2.5414e-06 1.11283e-22)
(15.0002 -3.26049e-06 8.53742e-21)
(15.0002 -4.53554e-06 5.56957e-21)
(15.0002 -6.41718e-06 3.33794e-21)
(15.0002 -8.99424e-06 -1.35092e-20)
(15.0002 -1.24895e-05 6.11876e-21)
(15.0002 -1.68593e-05 4.34224e-21)
(15.0002 -2.20985e-05 6.70414e-21)
(15.0002 -2.85221e-05 4.17414e-21)
(15.0002 -3.60042e-05 -5.00368e-21)
(15.0002 -4.46152e-05 -2.29375e-21)
(15.0003 -5.48339e-05 -9.86857e-21)
(15.0003 -6.65219e-05 -1.10719e-20)
(15.0003 -7.99539e-05 -2.80546e-21)
(15.0003 -9.61367e-05 -1.04484e-20)
(15.0003 -0.000114349 2.17319e-21)
(15.0003 -0.000137409 -2.39435e-21)
(15.0003 -0.000164917 2.74252e-21)
(15.0003 -0.000199886 -2.90173e-22)
(15.0003 -0.000244745 -5.81781e-21)
(15.0004 -0.000302535 8.85907e-21)
(15.0004 -0.000381996 3.10319e-20)
(15.0005 -0.000469959 -6.81493e-21)
(15.0005 -0.000598586 -1.17752e-21)
(15.0006 -0.000680562 -3.27854e-20)
(15.0007 -0.000796237 3.0874e-20)
(15.0006 -0.000643148 -7.28082e-21)
(15.0005 -9.89153e-05 -3.71991e-20)
(15.0006 -9.97256e-05 -2.00512e-20)
(15.0005 -0.000196895 -2.67381e-21)
(15.0004 -0.00109101 -6.20313e-21)
(15.0005 -0.000869727 1.05498e-20)
(15.0006 -0.00090595 7.86259e-21)
(15.0007 -0.000740465 -2.8071e-20)
(15.0007 -0.000641241 6.2309e-21)
(15.0008 -0.000544189 0)
(15.0008 -0.000479596 3.48974e-20)
(15.0008 -0.000429886 -4.6996e-20)
(15.0008 -0.000397571 3.64047e-20)
(15.0008 -0.000375576 -7.07918e-21)
(15.0008 -0.000361789 -6.64901e-21)
(15.0008 -0.000354361 2.40586e-20)
(15.0008 -0.000350956 -1.67643e-20)
(15.0008 -0.00035102 -7.44558e-21)
(15.0008 -0.000353658 3.44072e-20)
(15.0008 -0.000358427 3.33234e-20)
(15.0008 -0.000364708 -9.50799e-21)
(15.0008 -0.000372305 -9.52915e-21)
(15.0008 -0.00038106 -3.1975e-20)
(15.0008 -0.00039093 -7.14976e-21)
(15.0008 -0.000401348 -8.72012e-21)
(15.0008 -0.000412501 1.56198e-20)
(15.0008 -0.000423877 -7.22166e-21)
(15.0007 -0.000435852 3.0051e-20)
(15.0007 -0.000447779 -2.96889e-20)
(15.0007 -0.000459576 -7.10431e-21)
(15.0007 -0.00047114 -7.33485e-21)
(15.0007 -0.000482327 7.24268e-21)
(15.0007 -0.000493106 1.42721e-20)
(15.0007 -0.000503107 -2.13401e-20)
(15.0007 -0.000512579 3.56997e-20)
(15.0007 -0.000521355 2.1313e-20)
(15.0007 -0.000529273 -2.83411e-20)
(15.0007 -0.000536704 -2.6252e-20)
(15.0007 -0.000543353 -1.29327e-20)
(15.0007 -0.000549452 7.39954e-21)
(15.0006 -0.000555279 -5.04082e-21)
(15.0006 -0.000560339 2.45065e-20)
(15.0006 -0.000565188 -3.14551e-20)
(15.0006 -0.00056949 -7.43449e-21)
(15.0006 -0.000573524 -1.15399e-20)
(15.0006 -0.00057725 -1.13003e-20)
(15.0006 -0.000580691 0)
(15.0006 -0.000583791 7.23534e-21)
(15.0006 -0.000586842 -3.73656e-21)
(15.0005 -0.000589589 -1.7699e-20)
(15.0005 -0.000592093 1.44455e-20)
(15.0005 -0.000594513 9.78092e-21)
(15.0005 -0.000596725 -1.19681e-20)
(15.0005 -0.000598691 1.63627e-20)
(15.0005 -0.000600232 1.10218e-20)
(15.0005 -0.000601649 -2.45446e-20)
(15.0005 -0.000602619 -6.92278e-21)
(15.0004 -0.000603285 -8.34459e-21)
(15.0004 -0.000603553 -1.71889e-20)
(15.0004 -0.000603518 -9.89539e-22)
(15.0004 -0.000603096 1.35634e-20)
(15.0004 -0.000602461 -1.39884e-20)
(15.0004 -0.000601521 -2.05153e-20)
(15.0004 -0.000600245 -6.83698e-21)
(15.0004 -0.000598898 -6.55266e-21)
(15.0003 -0.000597347 -4.43152e-23)
(15.0003 -0.000595614 1.87669e-20)
(15.0003 -0.000593726 -1.17979e-20)
(15.0003 -0.000591704 -6.34097e-21)
(15.0003 -0.000589606 -5.46827e-21)
(15.0003 -0.000587283 1.14885e-20)
(15.0003 -0.000584798 7.0288e-24)
(15.0003 -0.000582161 -1.37695e-21)
(15.0002 -0.000579401 6.03985e-21)
(15.0002 -0.000576424 7.79255e-21)
(15.0002 -0.00057318 -1.00766e-20)
(15.0002 -0.000569805 -9.83803e-21)
(15.0002 -0.000566262 3.69283e-21)
(15.0002 -0.00056246 3.49072e-21)
(15.0002 -0.000558509 1.23277e-20)
(15.0002 -0.000554306 -2.58265e-21)
(15.0002 -0.00054994 2.85548e-21)
(15.0002 -0.000545283 1.11987e-20)
(15.0001 -0.000540548 -1.35869e-20)
(15.0001 -0.000535615 -7.94912e-22)
(15.0001 -0.000530518 1.08411e-20)
(15.0001 -0.000525133 1.55847e-23)
(15.0001 -0.00051962 -1.06546e-23)
(15.0001 -0.000513998 6.90967e-21)
(15.0001 -0.000508191 -5.1715e-21)
(15.0001 -0.000502211 -8.88835e-21)
(15.0001 -0.000496069 -1.19667e-21)
(15.0001 -0.0004898 -1.02873e-21)
(15.0001 -0.000483359 -4.68434e-24)
(15 -0.00047677 5.60833e-21)
(15 -0.000470058 9.00028e-21)
(15 -0.000463224 4.74119e-21)
(15 -0.000456299 -1.40066e-20)
(15 -0.000449201 -4.40774e-21)
(15 -0.000442004 4.53426e-21)
(15 -0.000434687 -4.52458e-21)
(15 -0.000427323 1.75276e-22)
(15 -0.000419889 4.62282e-21)
(15 -0.000412388 -4.03956e-22)
(15 -0.000404855 0)
(15 -0.000397229 -6.14487e-22)
(15 -0.000389539 3.32421e-21)
(15 -0.000381734 8.08459e-22)
(15 -0.000373892 -4.7976e-21)
(15 -0.000365993 5.81345e-21)
(15 -0.000358058 3.73801e-21)
(14.9999 -0.000350074 -7.77159e-26)
(14.9999 -0.00034205 3.17813e-24)
(14.9999 -0.000334026 -7.05194e-21)
(14.9999 -0.000325992 -3.43112e-21)
(14.9999 -0.000317959 3.36759e-21)
(14.9999 -0.000309909 -3.30482e-21)
(14.9999 -0.000301905 -4.79307e-21)
(14.9999 -0.000293903 6.319e-21)
(14.9999 -0.000285817 4.47502e-21)
(14.9999 -0.000277691 -1.29845e-21)
(14.9999 -0.000269495 -7.58914e-21)
(14.9999 -0.000261278 -1.75764e-21)
(14.9999 -0.000252932 4.55903e-21)
(14.9999 -0.000244515 0)
(14.9999 -0.000235997 -2.61438e-21)
(14.9999 -0.000227465 -4.36431e-21)
(14.9999 -0.000218868 2.44606e-21)
(14.9999 -0.000210269 2.35092e-21)
(14.9999 -0.00020171 -2.28246e-21)
(14.9999 -0.000193166 3.74073e-21)
(14.9999 -0.000184665 2.10307e-21)
(14.9999 -0.000176239 -2.03385e-21)
(14.9999 -0.000167898 -3.78758e-21)
(14.9999 -0.000159642 5.53157e-21)
(14.9999 -0.000151421 -3.82102e-23)
(14.9999 -0.000143331 1.87672e-21)
(14.9999 -0.000135299 -1.75126e-21)
(15 -0.00012735 3.26597e-21)
(15 -0.000119477 -1.46348e-21)
(15 -0.000111686 -3.02655e-21)
(15 -0.000104017 -1.61339e-21)
(15 -9.64169e-05 8.73641e-22)
(15 -8.89446e-05 1.10934e-21)
(15 -8.16369e-05 -3.52962e-21)
(15 -7.4458e-05 1.1264e-23)
(15 -6.74785e-05 8.72668e-22)
(15 -6.07254e-05 0)
(15 -5.41965e-05 -2.2958e-21)
(15 -4.79227e-05 2.12057e-21)
(15 -4.18854e-05 0)
(15 -3.61725e-05 -8.70121e-22)
(15 -3.07179e-05 7.65418e-22)
(15 -2.55883e-05 -2.99205e-22)
(15 -2.07718e-05 -3.19253e-22)
(15.0001 -1.62847e-05 -7.13674e-22)
(15.0001 -1.2154e-05 3.04262e-24)
(15.0001 -8.33125e-06 3.20823e-22)
(15.0001 -4.88934e-06 1.0969e-22)
(15.0001 -1.79481e-06 -1.72319e-22)
(15.0001 1.15131e-06 5.43434e-22)
(15.0001 3.73427e-06 -4.39339e-22)
(15.0001 6.2569e-06 -4.34248e-22)
(15.0001 8.62064e-06 -7.81637e-22)
(15.0001 1.09549e-05 3.56603e-22)
(15.0002 1.32678e-05 1.89241e-21)
(15.0002 1.56777e-05 -6.19344e-22)
(15.0002 1.79973e-05 -4.19024e-21)
(15.0002 2.04078e-05 -3.53591e-21)
(15.0002 2.26604e-05 3.04816e-21)
(15.0002 2.47407e-05 -4.39793e-21)
(15.0002 2.6483e-05 0)
(15.0002 2.79333e-05 -3.98893e-21)
(15.0003 2.86478e-05 -1.30768e-21)
(15.0003 2.87165e-05 6.08458e-21)
(15.0003 2.78558e-05 -3.21329e-21)
(15.0003 2.5905e-05 5.08741e-21)
(15.0003 2.27975e-05 -7.22826e-21)
(15.0003 1.83671e-05 3.84948e-21)
(15.0003 1.23603e-05 5.91937e-21)
(15.0003 4.86683e-06 6.25878e-21)
(15.0004 -4.29438e-06 6.47542e-21)
(15.0004 -1.52052e-05 1.96301e-22)
(15.0004 -2.80774e-05 1.33655e-22)
(15.0004 -4.27749e-05 -2.89236e-21)
(15.0004 -5.99817e-05 2.95515e-21)
(15.0004 -7.96114e-05 0)
(15.0004 -0.000102248 -8.28137e-21)
(15.0004 -0.00012944 1.21118e-20)
(15.0005 -0.000160642 -6.45901e-21)
(15.0005 -0.000199183 -3.68837e-21)
(15.0005 -0.000246528 2.44419e-21)
(15.0005 -0.0003049 -2.10489e-20)
(15.0006 -0.000381977 3.58993e-21)
(15.0006 -0.000477702 1.2783e-20)
(15.0007 -0.00060759 3.34592e-21)
(15.0008 -0.000733293 6.27759e-22)
(15.0009 -0.000925731 -1.09256e-20)
(15.001 -0.000954467 7.18117e-21)
(15.0011 -0.0011391 -1.69569e-21)
(15.001 -0.00023573 -2.54548e-20)
(15.0009 -9.95286e-05 7.71446e-21)
(15.0009 -3.14422e-06 1.84145e-20)
(15.0007 0.000706265 -1.61488e-20)
(15.0006 -0.000811062 0)
(15.0006 -0.000613613 0)
(15.0008 -0.000836494 3.62976e-21)
(15.0009 -0.000704088 4.92469e-21)
(15.001 -0.000637156 9.99557e-21)
(15.0011 -0.000546075 4.54268e-21)
(15.0012 -0.000486156 1.1552e-20)
(15.0012 -0.000437933 -1.63187e-20)
(15.0012 -0.000409533 1.02002e-20)
(15.0012 -0.000391301 7.59159e-21)
(15.0012 -0.000383243 1.10008e-20)
(15.0012 -0.000381639 -5.90589e-23)
(15.0012 -0.00038491 3.57047e-20)
(15.0012 -0.000391681 -2.44775e-20)
(15.0012 -0.000401118 -7.1244e-21)
(15.0012 -0.000412597 -1.0318e-20)
(15.0011 -0.00042566 2.41176e-20)
(15.0011 -0.000440006 -9.83115e-21)
(15.0011 -0.000455336 3.32298e-20)
(15.0011 -0.000471593 -2.68723e-22)
(15.0011 -0.000488623 -6.77835e-21)
(15.0011 -0.000506154 8.40926e-21)
(15.0011 -0.000523903 -1.54104e-20)
(15.0011 -0.00054215 -2.1387e-22)
(15.001 -0.000560322 2.97715e-20)
(15.001 -0.000578298 1.52752e-20)
(15.001 -0.000595935 -7.45013e-21)
(15.001 -0.000613121 -2.74286e-23)
(15.001 -0.000629645 0)
(15.001 -0.000645246 -1.44527e-20)
(15.001 -0.000660093 -2.16371e-20)
(15.001 -0.000674037 1.40187e-20)
(15.001 -0.00068692 1.49921e-20)
(15.0009 -0.000699037 1.38539e-20)
(15.0009 -0.000710201 1.3383e-20)
(15.0009 -0.000720603 1.34629e-20)
(15.0009 -0.0007304 -1.88788e-21)
(15.0009 -0.000739223 2.56771e-20)
(15.0009 -0.000747605 2.02243e-20)
(15.0009 -0.000755234 -5.00948e-21)
(15.0008 -0.000762352 -4.67519e-21)
(15.0008 -0.00076902 -7.37882e-21)
(15.0008 -0.00077526 -1.17599e-20)
(15.0008 -0.00078091 9.78148e-23)
(15.0008 -0.000786369 -7.37606e-21)
(15.0008 -0.000791339 -2.17314e-20)
(15.0007 -0.000795967 -1.05773e-20)
(15.0007 -0.000800293 7.19773e-21)
(15.0007 -0.000804249 -9.94833e-21)
(15.0007 -0.000807762 5.19809e-21)
(15.0007 -0.000810808 7.03573e-21)
(15.0007 -0.000813468 7.21263e-21)
(15.0006 -0.00081551 -7.10098e-21)
(15.0006 -0.000817085 -1.04204e-20)
(15.0006 -0.000818056 6.99778e-21)
(15.0006 -0.000818615 -1.50769e-20)
(15.0006 -0.000818675 1.00967e-21)
(15.0006 -0.00081833 2.21388e-20)
(15.0005 -0.000817582 6.80941e-21)
(15.0005 -0.00081642 -6.7203e-21)
(15.0005 -0.00081504 -6.71928e-21)
(15.0005 -0.000813327 -1.98632e-20)
(15.0005 -0.000811367 6.47195e-21)
(15.0005 -0.000809202 1.31478e-20)
(15.0004 -0.000806761 -5.8485e-22)
(15.0004 -0.000804133 -5.6719e-21)
(15.0004 -0.00080126 6.34119e-21)
(15.0004 -0.000798144 -5.15561e-21)
(15.0004 -0.000794745 -1.25088e-20)
(15.0004 -0.000791071 -9.47934e-21)
(15.0003 -0.000787134 1.67762e-20)
(15.0003 -0.000782829 1.03685e-20)
(15.0003 -0.000778258 -6.01938e-21)
(15.0003 -0.000773461 -2.16176e-21)
(15.0003 -0.000768299 -5.90213e-21)
(15.0003 -0.000762863 -2.46638e-21)
(15.0002 -0.000757061 6.39796e-21)
(15.0002 -0.000751046 -2.53615e-22)
(15.0002 -0.000744675 1.12889e-20)
(15.0002 -0.000738087 -8.63205e-21)
(15.0002 -0.000731184 3.11289e-21)
(15.0002 -0.00072405 1.65253e-20)
(15.0002 -0.000716577 -3.40806e-21)
(15.0001 -0.000708891 -1.07678e-20)
(15.0001 -0.000700974 -8.33975e-24)
(15.0001 -0.0006928 -3.74307e-21)
(15.0001 -0.000684402 5.17219e-21)
(15.0001 -0.000675762 1.42394e-20)
(15.0001 -0.000666898 -9.96156e-22)
(15.0001 -0.000657839 -3.94005e-25)
(15.0001 -0.000648583 -4.93591e-21)
(15.0001 -0.000639108 -4.87267e-21)
(15 -0.000629438 -3.66511e-21)
(15 -0.000619611 -4.26863e-21)
(15 -0.000609571 4.57586e-21)
(15 -0.000599383 4.60344e-21)
(15 -0.00058902 4.53481e-21)
(15 -0.000578588 4.7687e-21)
(15 -0.000568033 -1.27568e-20)
(15 -0.000557361 -4.30814e-21)
(15 -0.000546643 4.89983e-21)
(15 -0.000535791 4.17401e-21)
(15 -0.000524835 4.96519e-21)
(14.9999 -0.000513743 -5.00326e-21)
(14.9999 -0.000502574 1.00731e-20)
(14.9999 -0.000491312 3.85325e-21)
(14.9999 -0.000479962 -1.26481e-20)
(14.9999 -0.000468551 -7.41444e-21)
(14.9999 -0.000457108 5.82512e-21)
(14.9999 -0.00044563 4.70863e-22)
(14.9999 -0.000434124 1.43823e-23)
(14.9999 -0.000422618 -1.15319e-23)
(14.9999 -0.000411079 -6.67073e-21)
(14.9999 -0.000399546 1.82741e-21)
(14.9999 -0.00038799 5.04651e-21)
(14.9999 -0.000376357 1.18464e-21)
(14.9999 -0.000364675 -5.02667e-21)
(14.9999 -0.000352884 -5.88508e-21)
(14.9999 -0.000341027 0)
(14.9999 -0.000329033 2.79154e-21)
(14.9999 -0.000316981 5.773e-22)
(14.9999 -0.000304791 0)
(14.9999 -0.000292571 2.16683e-21)
(14.9999 -0.000280275 2.18379e-21)
(14.9999 -0.000267979 2.19425e-21)
(14.9999 -0.00025572 2.29195e-21)
(14.9999 -0.00024347 2.19409e-21)
(14.9999 -0.000231272 -2.10614e-21)
(14.9999 -0.000219154 2.04102e-21)
(14.9999 -0.000207114 -1.24798e-23)
(14.9999 -0.000195172 -1.53373e-21)
(14.9999 -0.000183302 -2.15674e-21)
(14.9999 -0.000171559 -1.82125e-23)
(14.9999 -0.000159904 4.26882e-21)
(14.9999 -0.00014836 1.52023e-21)
(14.9999 -0.000136928 0)
(14.9999 -0.000125595 2.34734e-24)
(14.9999 -0.00011442 6.88531e-22)
(14.9999 -0.000103368 3.86334e-21)
(15 -9.25037e-05 -4.86798e-21)
(15 -8.18499e-05 -1.77651e-21)
(15 -7.14154e-05 5.3463e-21)
(15 -6.12355e-05 0)
(15 -5.1367e-05 -7.78287e-22)
(15 -4.17953e-05 -8.08196e-22)
(15 -3.25616e-05 -8.43297e-22)
(15 -2.36595e-05 -5.07993e-22)
(15 -1.51494e-05 1.23923e-21)
(15 -7.00545e-06 0)
(15 7.62696e-07 -2.65831e-22)
(15.0001 8.11522e-06 7.49699e-22)
(15.0001 1.50767e-05 -7.09348e-22)
(15.0001 2.16339e-05 7.02264e-22)
(15.0001 2.78161e-05 -5.58704e-22)
(15.0001 3.35855e-05 4.88611e-24)
(15.0001 3.89493e-05 2.73e-22)
(15.0001 4.41468e-05 3.19755e-22)
(15.0002 4.90503e-05 -4.02145e-22)
(15.0002 5.386e-05 -4.86528e-22)
(15.0002 5.85725e-05 1.5367e-21)
(15.0002 6.32908e-05 6.53114e-22)
(15.0002 6.80263e-05 2.27579e-23)
(15.0002 7.28432e-05 -1.82483e-21)
(15.0003 7.76076e-05 -3.05541e-21)
(15.0003 8.23646e-05 2.44092e-21)
(15.0003 8.69474e-05 -4.99493e-22)
(15.0003 9.12709e-05 1.80608e-23)
(15.0003 9.51134e-05 1.31078e-21)
(15.0003 9.83984e-05 0)
(15.0004 0.000100809 4.87409e-21)
(15.0004 0.000102386 -2.63407e-21)
(15.0004 0.000102711 -2.82457e-21)
(15.0004 0.000101722 -6.01758e-21)
(15.0004 9.92875e-05 -1.30861e-21)
(15.0004 9.52801e-05 5.29253e-21)
(15.0004 8.93251e-05 -3.53031e-21)
(15.0005 8.18112e-05 -2.0936e-21)
(15.0005 7.22153e-05 -3.83261e-21)
(15.0005 6.08974e-05 -5.97162e-21)
(15.0005 4.73005e-05 6.20732e-21)
(15.0005 3.14441e-05 7.27555e-23)
(15.0006 1.28819e-05 -8.18571e-23)
(15.0006 -8.39157e-06 4.95072e-21)
(15.0006 -3.32799e-05 7.54673e-21)
(15.0006 -6.32579e-05 2.71804e-21)
(15.0006 -9.86037e-05 3.22973e-22)
(15.0007 -0.00014198 -5.81088e-21)
(15.0007 -0.000196895 -6.715e-21)
(15.0007 -0.000263264 2.11355e-22)
(15.0008 -0.000351438 1.15556e-20)
(15.0008 -0.000456967 -1.9513e-20)
(15.001 -0.000595416 1.16825e-20)
(15.0011 -0.000697642 6.98276e-23)
(15.0013 -0.000863572 0)
(15.0014 -0.000746599 -7.15378e-21)
(15.0015 -0.0008752 -1.33167e-20)
(15.0013 0.000682015 3.66407e-21)
(15.0011 -5.41551e-06 6.75591e-21)
(15.0012 0.000146115 2.58729e-20)
(15.001 0.00120926 2.55193e-20)
(15.0008 -0.000438562 0)
(15.0008 -0.000366007 -1.13221e-20)
(15.001 -0.000768369 -3.5049e-21)
(15.0012 -0.000690556 7.30538e-21)
(15.0013 -0.000670093 1.35196e-20)
(15.0014 -0.000591716 5.47084e-21)
(15.0015 -0.000536399 -3.65632e-21)
(15.0015 -0.000487984 1.73877e-20)
(15.0016 -0.000459873 -2.42618e-20)
(15.0016 -0.000442755 1.07692e-20)
(15.0016 -0.000437026 -2.44654e-20)
(15.0016 -0.000438646 6.39707e-23)
(15.0015 -0.000446157 -1.02254e-20)
(15.0015 -0.000457329 7.2266e-21)
(15.0015 -0.000471652 -3.3513e-20)
(15.0015 -0.000487948 -2.34679e-20)
(15.0015 -0.000505932 6.66942e-21)
(15.0015 -0.000525298 5.25879e-22)
(15.0014 -0.000545613 8.47323e-21)
(15.0014 -0.000566714 7.27238e-21)
(15.0014 -0.00058855 1.55783e-20)
(15.0014 -0.000610833 7.04099e-21)
(15.0014 -0.000633304 1.53906e-20)
(15.0014 -0.000656166 -2.95641e-20)
(15.0013 -0.000679047 7.53181e-21)
(15.0013 -0.000701651 1.48051e-20)
(15.0013 -0.000723959 1.46236e-20)
(15.0013 -0.000745851 2.18066e-20)
(15.0013 -0.000766953 7.53859e-21)
(15.0013 -0.000787127 0)
(15.0013 -0.000806478 2.14554e-20)
(15.0012 -0.000824747 1.39828e-20)
(15.0012 -0.000841975 -1.39459e-21)
(15.0012 -0.000858287 5.94946e-21)
(15.0012 -0.000873504 1.33867e-20)
(15.0012 -0.000887807 2.06894e-20)
(15.0012 -0.000901326 1.30891e-20)
(15.0011 -0.00091378 -2.55961e-20)
(15.0011 -0.000925619 2.61496e-21)
(15.0011 -0.000936657 1.98755e-20)
(15.0011 -0.000946899 4.56276e-21)
(15.0011 -0.000956524 -1.06896e-22)
(15.001 -0.000965567 9.41991e-23)
(15.001 -0.000973813 1.11737e-20)
(15.001 -0.000981672 -1.09007e-20)
(15.001 -0.000989012 1.06332e-20)
(15.001 -0.000995736 -1.03837e-20)
(15.0009 -0.00100203 -9.72915e-23)
(15.0009 -0.00100783 -7.17991e-21)
(15.0009 -0.00101292 -9.81879e-21)
(15.0009 -0.00101743 -2.03064e-21)
(15.0009 -0.00102134 1.88523e-21)
(15.0008 -0.00102448 -1.73024e-21)
(15.0008 -0.00102696 -8.5211e-21)
(15.0008 -0.00102871 8.2631e-21)
(15.0008 -0.00102984 8.13442e-21)
(15.0007 -0.00103032 -1.48206e-20)
(15.0007 -0.00103026 0)
(15.0007 -0.00102968 7.3023e-21)
(15.0007 -0.00102864 1.40892e-20)
(15.0006 -0.00102717 -6.78799e-21)
(15.0006 -0.00102526 6.53708e-21)
(15.0006 -0.00102306 -1.25909e-20)
(15.0006 -0.00102056 -6.60345e-21)
(15.0006 -0.00101765 -5.83674e-21)
(15.0005 -0.00101444 9.9295e-22)
(15.0005 -0.00101091 6.4403e-21)
(15.0005 -0.00100708 1.01742e-20)
(15.0005 -0.00100287 -4.87086e-21)
(15.0004 -0.000998208 -4.5708e-21)
(15.0004 -0.000993202 -1.88427e-21)
(15.0004 -0.000987819 4.14838e-21)
(15.0004 -0.000982022 1.73755e-21)
(15.0004 -0.00097585 3.68116e-21)
(15.0003 -0.000969243 3.51786e-21)