/*--------------------------------*- C++ -*----------------------------------*\
  =========                 |
  \\      /  F ield         | OpenFOAM: The Open Source CFD Toolbox
   \\    /   O peration     | Website:  https://openfoam.org
    \\  /    A nd           | Version:  8
     \\/     M anipulation  |
\*---------------------------------------------------------------------------*/
FoamFile
{
    version     2.0;
    format      ascii;
    class       volScalarField;
    location    "5.3";
    object      p;
}
// * * * * * * * * * * * * * * * * * * * * * * * * * * * * * * * * * * * * * //

dimensions      [0 2 -2 0 0 0 0];

internalField   nonuniform List<scalar> 
262620
(
-1.36057
-1.36078
-1.36146
-1.36248
-1.36382
-1.36547
-1.36741
-1.36962
-1.37209
-1.37479
-1.37772
-1.38086
-1.38419
-1.38769
-1.39136
-1.39518
-1.39914
-1.40322
-1.40741
-1.41171
-1.4161
-1.42057
-1.42511
-1.42972
-1.43438
-1.43909
-1.44383
-1.44861
-1.45341
-1.45823
-1.46306
-1.4679
-1.47274
-1.47757
-1.48239
-1.48721
-1.492
-1.49677
-1.50152
-1.50624
-1.51093
-1.51559
-1.52021
-1.52479
-1.52933
-1.53383
-1.53828
-1.54269
-1.54705
-1.55136
-1.55562
-1.55983
-1.56399
-1.5681
-1.57215
-1.57615
-1.58009
-1.58398
-1.58781
-1.59159
-1.59532
-1.59899
-1.6026
-1.60616
-1.60966
-1.61311
-1.61651
-1.61985
-1.62313
-1.62636
-1.62954
-1.63267
-1.63574
-1.63877
-1.64174
-1.64466
-1.64753
-1.65035
-1.65312
-1.65584
-1.65852
-1.66114
-1.66373
-1.66626
-1.66875
-1.6712
-1.6736
-1.67595
-1.67827
-1.68054
-1.68277
-1.68496
-1.68711
-1.68923
-1.6913
-1.69333
-1.69533
-1.69729
-1.69921
-1.7011
-1.70295
-1.70477
-1.70655
-1.7083
-1.71002
-1.7117
-1.71336
-1.71498
-1.71657
-1.71814
-1.71967
-1.72118
-1.72265
-1.7241
-1.72552
-1.72692
-1.72829
-1.72963
-1.73095
-1.73224
-1.36043
-1.36065
-1.36132
-1.36234
-1.36368
-1.36533
-1.36726
-1.36948
-1.37194
-1.37465
-1.37758
-1.38072
-1.38404
-1.38755
-1.39122
-1.39504
-1.39899
-1.40308
-1.40727
-1.41157
-1.41596
-1.42043
-1.42498
-1.42958
-1.43425
-1.43895
-1.4437
-1.44848
-1.45328
-1.4581
-1.46294
-1.46778
-1.47262
-1.47745
-1.48228
-1.48709
-1.49189
-1.49667
-1.50142
-1.50614
-1.51083
-1.51549
-1.52012
-1.5247
-1.52924
-1.53374
-1.5382
-1.54261
-1.54697
-1.55129
-1.55555
-1.55976
-1.56393
-1.56803
-1.57209
-1.57609
-1.58004
-1.58393
-1.58777
-1.59155
-1.59528
-1.59895
-1.60257
-1.60613
-1.60963
-1.61309
-1.61648
-1.61983
-1.62311
-1.62635
-1.62953
-1.63266
-1.63574
-1.63876
-1.64174
-1.64466
-1.64753
-1.65036
-1.65313
-1.65586
-1.65853
-1.66116
-1.66375
-1.66629
-1.66878
-1.67123
-1.67363
-1.67599
-1.67831
-1.68058
-1.68282
-1.68501
-1.68716
-1.68928
-1.69135
-1.69339
-1.69538
-1.69735
-1.69927
-1.70116
-1.70302
-1.70484
-1.70662
-1.70837
-1.71009
-1.71178
-1.71344
-1.71506
-1.71666
-1.71822
-1.71976
-1.72126
-1.72274
-1.72419
-1.72562
-1.72701
-1.72838
-1.72973
-1.73104
-1.73234
-1.3602
-1.36041
-1.36108
-1.3621
-1.36343
-1.36508
-1.36701
-1.36922
-1.37169
-1.3744
-1.37732
-1.38046
-1.38379
-1.38729
-1.39096
-1.39478
-1.39874
-1.40283
-1.40702
-1.41132
-1.41572
-1.42019
-1.42474
-1.42935
-1.43401
-1.43872
-1.44347
-1.44826
-1.45306
-1.45789
-1.46272
-1.46757
-1.47241
-1.47725
-1.48208
-1.4869
-1.4917
-1.49648
-1.50124
-1.50597
-1.51067
-1.51533
-1.51996
-1.52455
-1.5291
-1.5336
-1.53806
-1.54248
-1.54685
-1.55117
-1.55543
-1.55965
-1.56382
-1.56793
-1.57199
-1.576
-1.57995
-1.58385
-1.58769
-1.59148
-1.59521
-1.59889
-1.60251
-1.60608
-1.60959
-1.61304
-1.61645
-1.61979
-1.62309
-1.62633
-1.62951
-1.63265
-1.63573
-1.63876
-1.64174
-1.64466
-1.64754
-1.65037
-1.65315
-1.65588
-1.65856
-1.66119
-1.66378
-1.66632
-1.66882
-1.67127
-1.67368
-1.67604
-1.67836
-1.68064
-1.68288
-1.68507
-1.68723
-1.68935
-1.69143
-1.69346
-1.69547
-1.69743
-1.69936
-1.70125
-1.70311
-1.70493
-1.70672
-1.70848
-1.7102
-1.71189
-1.71355
-1.71518
-1.71677
-1.71834
-1.71988
-1.72139
-1.72287
-1.72432
-1.72575
-1.72715
-1.72852
-1.72987
-1.73119
-1.73248
-1.35985
-1.36006
-1.36072
-1.36174
-1.36307
-1.36471
-1.36664
-1.36885
-1.37131
-1.37402
-1.37695
-1.38008
-1.38341
-1.38691
-1.39058
-1.39441
-1.39837
-1.40245
-1.40665
-1.41095
-1.41535
-1.41983
-1.42438
-1.42899
-1.43366
-1.43838
-1.44313
-1.44792
-1.45273
-1.45756
-1.4624
-1.46725
-1.4721
-1.47695
-1.48179
-1.48661
-1.49142
-1.49621
-1.50097
-1.50571
-1.51041
-1.51508
-1.51972
-1.52431
-1.52887
-1.53338
-1.53785
-1.54227
-1.54665
-1.55098
-1.55525
-1.55948
-1.56365
-1.56777
-1.57184
-1.57586
-1.57982
-1.58372
-1.58757
-1.59137
-1.59511
-1.59879
-1.60242
-1.606
-1.60951
-1.61298
-1.61639
-1.61974
-1.62304
-1.62629
-1.62948
-1.63263
-1.63571
-1.63875
-1.64174
-1.64467
-1.64755
-1.65039
-1.65317
-1.65591
-1.6586
-1.66124
-1.66383
-1.66638
-1.66888
-1.67134
-1.67376
-1.67613
-1.67845
-1.68074
-1.68298
-1.68518
-1.68734
-1.68947
-1.69155
-1.6936
-1.6956
-1.69757
-1.69951
-1.7014
-1.70327
-1.70509
-1.70689
-1.70865
-1.71038
-1.71207
-1.71373
-1.71537
-1.71697
-1.71854
-1.72008
-1.7216
-1.72308
-1.72454
-1.72597
-1.72737
-1.72875
-1.7301
-1.73142
-1.73272
-1.35939
-1.35959
-1.36025
-1.36126
-1.36258
-1.36422
-1.36615
-1.36835
-1.37081
-1.37352
-1.37644
-1.37958
-1.38291
-1.38641
-1.39008
-1.39391
-1.39787
-1.40196
-1.40616
-1.41046
-1.41486
-1.41935
-1.4239
-1.42852
-1.43319
-1.43792
-1.44268
-1.44747
-1.45229
-1.45713
-1.46198
-1.46683
-1.47169
-1.47655
-1.48139
-1.48623
-1.49105
-1.49584
-1.50061
-1.50536
-1.51007
-1.51475
-1.5194
-1.524
-1.52857
-1.53309
-1.53757
-1.54201
-1.54639
-1.55073
-1.55502
-1.55925
-1.56344
-1.56757
-1.57165
-1.57567
-1.57964
-1.58356
-1.58742
-1.59122
-1.59497
-1.59867
-1.60231
-1.60589
-1.60942
-1.61289
-1.61631
-1.61968
-1.62299
-1.62624
-1.62945
-1.6326
-1.6357
-1.63874
-1.64174
-1.64468
-1.64757
-1.65041
-1.65321
-1.65595
-1.65865
-1.6613
-1.6639
-1.66646
-1.66897
-1.67143
-1.67386
-1.67623
-1.67857
-1.68086
-1.68311
-1.68532
-1.68749
-1.68962
-1.69171
-1.69376
-1.69577
-1.69775
-1.69969
-1.7016
-1.70346
-1.7053
-1.7071
-1.70886
-1.7106
-1.7123
-1.71397
-1.71561
-1.71721
-1.71879
-1.72034
-1.72186
-1.72335
-1.72481
-1.72625
-1.72766
-1.72904
-1.73039
-1.73172
-1.73303
-1.35882
-1.35901
-1.35966
-1.36066
-1.36198
-1.36361
-1.36554
-1.36774
-1.3702
-1.3729
-1.37582
-1.37895
-1.38228
-1.38579
-1.38946
-1.39329
-1.39725
-1.40134
-1.40555
-1.40986
-1.41426
-1.41875
-1.42331
-1.42794
-1.43262
-1.43735
-1.44212
-1.44692
-1.45175
-1.45659
-1.46145
-1.46632
-1.47119
-1.47605
-1.48091
-1.48575
-1.49058
-1.49539
-1.50017
-1.50493
-1.50965
-1.51435
-1.519
-1.52362
-1.5282
-1.53274
-1.53723
-1.54167
-1.54607
-1.55042
-1.55472
-1.55897
-1.56317
-1.56731
-1.5714
-1.57544
-1.57942
-1.58335
-1.58722
-1.59104
-1.59481
-1.59851
-1.60216
-1.60576
-1.6093
-1.61279
-1.61622
-1.61959
-1.62292
-1.62619
-1.6294
-1.63256
-1.63567
-1.63873
-1.64173
-1.64469
-1.64759
-1.65045
-1.65325
-1.65601
-1.65871
-1.66137
-1.66399
-1.66655
-1.66907
-1.67155
-1.67398
-1.67637
-1.67871
-1.68101
-1.68327
-1.68549
-1.68767
-1.68981
-1.69191
-1.69397
-1.69599
-1.69798
-1.69993
-1.70184
-1.70371
-1.70556
-1.70736
-1.70914
-1.71088
-1.71259
-1.71427
-1.71591
-1.71753
-1.71911
-1.72067
-1.72219
-1.72369
-1.72516
-1.7266
-1.72801
-1.7294
-1.73076
-1.7321
-1.73341
-1.35814
-1.35832
-1.35896
-1.35996
-1.36127
-1.36289
-1.36481
-1.36701
-1.36946
-1.37216
-1.37508
-1.37822
-1.38154
-1.38505
-1.38872
-1.39255
-1.39652
-1.40061
-1.40482
-1.40914
-1.41355
-1.41804
-1.42261
-1.42724
-1.43193
-1.43667
-1.44145
-1.44626
-1.4511
-1.45596
-1.46083
-1.4657
-1.47058
-1.47546
-1.48033
-1.48519
-1.49003
-1.49485
-1.49965
-1.50442
-1.50916
-1.51387
-1.51854
-1.52317
-1.52776
-1.53231
-1.53682
-1.54128
-1.54569
-1.55006
-1.55437
-1.55864
-1.56285
-1.56701
-1.57111
-1.57517
-1.57916
-1.58311
-1.587
-1.59083
-1.59461
-1.59833
-1.60199
-1.6056
-1.60916
-1.61266
-1.61611
-1.6195
-1.62283
-1.62612
-1.62935
-1.63252
-1.63564
-1.63871
-1.64173
-1.6447
-1.64762
-1.65048
-1.6533
-1.65607
-1.65879
-1.66146
-1.66409
-1.66667
-1.6692
-1.67169
-1.67413
-1.67653
-1.67888
-1.6812
-1.68347
-1.6857
-1.68789
-1.69003
-1.69214
-1.69421
-1.69625
-1.69824
-1.7002
-1.70212
-1.70401
-1.70586
-1.70768
-1.70946
-1.71121
-1.71293
-1.71462
-1.71627
-1.71789
-1.71949
-1.72105
-1.72258
-1.72409
-1.72557
-1.72702
-1.72844
-1.72983
-1.7312
-1.73255
-1.73386
-1.35736
-1.35753
-1.35816
-1.35914
-1.36044
-1.36206
-1.36397
-1.36616
-1.36861
-1.37131
-1.37423
-1.37736
-1.38069
-1.3842
-1.38787
-1.3917
-1.39567
-1.39977
-1.40399
-1.40831
-1.41272
-1.41722
-1.4218
-1.42644
-1.43114
-1.43589
-1.44068
-1.4455
-1.45035
-1.45522
-1.4601
-1.46499
-1.46989
-1.47478
-1.47966
-1.48454
-1.48939
-1.49423
-1.49904
-1.50383
-1.50858
-1.51331
-1.51799
-1.52264
-1.52725
-1.53182
-1.53635
-1.54082
-1.54525
-1.54964
-1.55397
-1.55825
-1.56248
-1.56666
-1.57078
-1.57485
-1.57887
-1.58283
-1.58673
-1.59058
-1.59438
-1.59811
-1.6018
-1.60543
-1.609
-1.61252
-1.61598
-1.61938
-1.62274
-1.62604
-1.62928
-1.63247
-1.63561
-1.6387
-1.64173
-1.64471
-1.64765
-1.65053
-1.65336
-1.65614
-1.65888
-1.66156
-1.6642
-1.6668
-1.66934
-1.67184
-1.6743
-1.67671
-1.67908
-1.68141
-1.68369
-1.68593
-1.68813
-1.6903
-1.69242
-1.6945
-1.69655
-1.69855
-1.70052
-1.70246
-1.70435
-1.70622
-1.70804
-1.70984
-1.7116
-1.71333
-1.71502
-1.71669
-1.71832
-1.71992
-1.7215
-1.72304
-1.72455
-1.72604
-1.7275
-1.72893
-1.73033
-1.73171
-1.73306
-1.73439
-1.35647
-1.35663
-1.35724
-1.35822
-1.35951
-1.36112
-1.36302
-1.36521
-1.36765
-1.37034
-1.37326
-1.37639
-1.37972
-1.38323
-1.38691
-1.39074
-1.39471
-1.39882
-1.40304
-1.40737
-1.41179
-1.4163
-1.42088
-1.42554
-1.43025
-1.435
-1.43981
-1.44464
-1.4495
-1.45439
-1.45928
-1.46419
-1.4691
-1.47401
-1.47891
-1.4838
-1.48867
-1.49352
-1.49835
-1.50316
-1.50793
-1.51267
-1.51738
-1.52205
-1.52668
-1.53127
-1.53581
-1.54031
-1.54476
-1.54916
-1.55351
-1.55781
-1.56206
-1.56626
-1.5704
-1.57449
-1.57853
-1.58251
-1.58643
-1.5903
-1.59411
-1.59787
-1.60158
-1.60522
-1.60881
-1.61235
-1.61583
-1.61926
-1.62263
-1.62595
-1.62921
-1.63242
-1.63557
-1.63868
-1.64173
-1.64473
-1.64768
-1.65058
-1.65343
-1.65623
-1.65898
-1.66168
-1.66434
-1.66694
-1.66951
-1.67202
-1.6745
-1.67692
-1.67931
-1.68165
-1.68394
-1.6862
-1.68842
-1.69059
-1.69273
-1.69482
-1.69688
-1.6989
-1.70088
-1.70283
-1.70474
-1.70662
-1.70846
-1.71026
-1.71204
-1.71378
-1.71548
-1.71716
-1.7188
-1.72042
-1.722
-1.72355
-1.72508
-1.72658
-1.72804
-1.72949
-1.7309
-1.73229
-1.73365
-1.73498
-1.35548
-1.35562
-1.35623
-1.35719
-1.35847
-1.36007
-1.36197
-1.36414
-1.36658
-1.36927
-1.37219
-1.37531
-1.37864
-1.38215
-1.38583
-1.38966
-1.39364
-1.39775
-1.40198
-1.40632
-1.41075
-1.41527
-1.41986
-1.42452
-1.42925
-1.43402
-1.43883
-1.44368
-1.44856
-1.45346
-1.45837
-1.46329
-1.46822
-1.47315
-1.47806
-1.48297
-1.48786
-1.49274
-1.49759
-1.50241
-1.50721
-1.51197
-1.5167
-1.52139
-1.52604
-1.53065
-1.53521
-1.53973
-1.5442
-1.54863
-1.553
-1.55732
-1.56159
-1.56581
-1.56998
-1.57409
-1.57815
-1.58215
-1.5861
-1.58999
-1.59382
-1.5976
-1.60133
-1.605
-1.60861
-1.61217
-1.61567
-1.61911
-1.62251
-1.62584
-1.62913
-1.63236
-1.63553
-1.63866
-1.64173
-1.64475
-1.64772
-1.65063
-1.6535
-1.65632
-1.65909
-1.66181
-1.66448
-1.66711
-1.66969
-1.67222
-1.67471
-1.67716
-1.67956
-1.68191
-1.68423
-1.6865
-1.68873
-1.69092
-1.69307
-1.69519
-1.69726
-1.69929
-1.70129
-1.70325
-1.70518
-1.70706
-1.70892
-1.71074
-1.71252
-1.71428
-1.716
-1.71769
-1.71934
-1.72097
-1.72256
-1.72413
-1.72567
-1.72717
-1.72865
-1.73011
-1.73153
-1.73293
-1.7343
-1.73564
-1.3544
-1.35452
-1.35511
-1.35606
-1.35732
-1.35891
-1.3608
-1.36297
-1.36541
-1.36809
-1.371
-1.37413
-1.37745
-1.38096
-1.38464
-1.38848
-1.39247
-1.39658
-1.40082
-1.40516
-1.4096
-1.41413
-1.41874
-1.42341
-1.42815
-1.43293
-1.43776
-1.44262
-1.44752
-1.45243
-1.45737
-1.46231
-1.46725
-1.4722
-1.47714
-1.48206
-1.48698
-1.49187
-1.49674
-1.50159
-1.50641
-1.51119
-1.51594
-1.52066
-1.52533
-1.52996
-1.53455
-1.53909
-1.54359
-1.54804
-1.55244
-1.55678
-1.56108
-1.56532
-1.56951
-1.57365
-1.57773
-1.58176
-1.58573
-1.58964
-1.5935
-1.59731
-1.60105
-1.60475
-1.60838
-1.61196
-1.61549
-1.61896
-1.62237
-1.62573
-1.62904
-1.63229
-1.63549
-1.63863
-1.64173
-1.64477
-1.64776
-1.6507
-1.65359
-1.65642
-1.65921
-1.66195
-1.66465
-1.66729
-1.66989
-1.67244
-1.67495
-1.67741
-1.67983
-1.68221
-1.68454
-1.68683
-1.68908
-1.69129
-1.69346
-1.69558
-1.69767
-1.69972
-1.70174
-1.70371
-1.70565
-1.70756
-1.70943
-1.71126
-1.71306
-1.71483
-1.71656
-1.71827
-1.71994
-1.72158
-1.72319
-1.72476
-1.72631
-1.72783
-1.72933
-1.73079
-1.73223
-1.73364
-1.73502
-1.73637
-1.35321
-1.35331
-1.35389
-1.35482
-1.35608
-1.35765
-1.35953
-1.36169
-1.36412
-1.3668
-1.36971
-1.37283
-1.37616
-1.37967
-1.38335
-1.38719
-1.39118
-1.3953
-1.39955
-1.4039
-1.40835
-1.41289
-1.41751
-1.4222
-1.42694
-1.43175
-1.43659
-1.44147
-1.44638
-1.45132
-1.45627
-1.46123
-1.4662
-1.47116
-1.47612
-1.48107
-1.48601
-1.49093
-1.49582
-1.50069
-1.50554
-1.51035
-1.51512
-1.51986
-1.52456
-1.52922
-1.53383
-1.5384
-1.54292
-1.5474
-1.55182
-1.5562
-1.56052
-1.56479
-1.569
-1.57317
-1.57727
-1.58133
-1.58532
-1.58927
-1.59315
-1.59698
-1.60076
-1.60447
-1.60813
-1.61174
-1.61529
-1.61879
-1.62223
-1.62561
-1.62894
-1.63222
-1.63544
-1.63861
-1.64173
-1.64479
-1.6478
-1.65076
-1.65368
-1.65654
-1.65935
-1.66211
-1.66482
-1.66749
-1.67011
-1.67269
-1.67521
-1.6777
-1.68014
-1.68253
-1.68488
-1.68719
-1.68946
-1.69169
-1.69387
-1.69602
-1.69813
-1.70019
-1.70223
-1.70422
-1.70618
-1.7081
-1.70998
-1.71183
-1.71365
-1.71543
-1.71718
-1.7189
-1.72059
-1.72224
-1.72386
-1.72546
-1.72702
-1.72856
-1.73006
-1.73154
-1.73299
-1.73442
-1.73581
-1.73717
-1.35193
-1.35201
-1.35257
-1.35349
-1.35473
-1.35629
-1.35816
-1.36031
-1.36273
-1.3654
-1.36831
-1.37143
-1.37476
-1.37827
-1.38195
-1.3858
-1.38979
-1.39392
-1.39817
-1.40253
-1.407
-1.41155
-1.41618
-1.42088
-1.42565
-1.43046
-1.43533
-1.44023
-1.44516
-1.45011
-1.45508
-1.46006
-1.46505
-1.47004
-1.47503
-1.48
-1.48496
-1.4899
-1.49483
-1.49972
-1.50459
-1.50943
-1.51423
-1.519
-1.52372
-1.52841
-1.53305
-1.53765
-1.5422
-1.5467
-1.55116
-1.55556
-1.55991
-1.56421
-1.56845
-1.57264
-1.57678
-1.58086
-1.58489
-1.58886
-1.59277
-1.59663
-1.60043
-1.60418
-1.60787
-1.6115
-1.61508
-1.6186
-1.62207
-1.62548
-1.62883
-1.63214
-1.63539
-1.63858
-1.64172
-1.64481
-1.64785
-1.65084
-1.65377
-1.65666
-1.65949
-1.66228
-1.66502
-1.66771
-1.67035
-1.67295
-1.6755
-1.678
-1.68046
-1.68288
-1.68525
-1.68758
-1.68987
-1.69212
-1.69432
-1.69649
-1.69862
-1.7007
-1.70275
-1.70477
-1.70674
-1.70868
-1.71058
-1.71245
-1.71429
-1.71609
-1.71785
-1.71959
-1.72129
-1.72296
-1.7246
-1.72621
-1.72779
-1.72934
-1.73086
-1.73235
-1.73382
-1.73525
-1.73666
-1.73803
-1.35056
-1.35062
-1.35115
-1.35205
-1.35328
-1.35483
-1.35669
-1.35883
-1.36124
-1.36391
-1.36681
-1.36993
-1.37325
-1.37676
-1.38045
-1.3843
-1.3883
-1.39244
-1.3967
-1.40107
-1.40554
-1.41011
-1.41475
-1.41947
-1.42425
-1.42909
-1.43397
-1.43889
-1.44384
-1.44881
-1.45381
-1.45881
-1.46382
-1.46884
-1.47385
-1.47885
-1.48383
-1.48881
-1.49375
-1.49868
-1.50358
-1.50844
-1.51327
-1.51807
-1.52283
-1.52754
-1.53221
-1.53684
-1.54142
-1.54596
-1.55044
-1.55487
-1.55926
-1.56359
-1.56786
-1.57208
-1.57625
-1.58036
-1.58442
-1.58842
-1.59236
-1.59625
-1.60008
-1.60386
-1.60758
-1.61124
-1.61485
-1.6184
-1.6219
-1.62534
-1.62872
-1.63205
-1.63533
-1.63855
-1.64172
-1.64484
-1.6479
-1.65092
-1.65388
-1.65679
-1.65965
-1.66246
-1.66523
-1.66794
-1.67061
-1.67323
-1.6758
-1.67833
-1.68081
-1.68325
-1.68565
-1.688
-1.69031
-1.69258
-1.69481
-1.697
-1.69914
-1.70125
-1.70332
-1.70536
-1.70735
-1.70931
-1.71123
-1.71312
-1.71497
-1.71679
-1.71857
-1.72033
-1.72205
-1.72373
-1.72539
-1.72702
-1.72861
-1.73018
-1.73171
-1.73322
-1.7347
-1.73616
-1.73758
-1.73896
-1.34909
-1.34913
-1.34964
-1.35052
-1.35173
-1.35327
-1.35511
-1.35725
-1.35965
-1.36231
-1.3652
-1.36832
-1.37164
-1.37516
-1.37885
-1.38271
-1.38671
-1.39085
-1.39512
-1.3995
-1.40399
-1.40857
-1.41323
-1.41796
-1.42276
-1.42761
-1.43251
-1.43745
-1.44243
-1.44743
-1.45244
-1.45747
-1.46251
-1.46755
-1.47259
-1.47762
-1.48263
-1.48763
-1.49261
-1.49756
-1.50249
-1.50739
-1.51225
-1.51708
-1.52187
-1.52661
-1.53132
-1.53598
-1.54059
-1.54516
-1.54968
-1.55414
-1.55856
-1.56292
-1.56723
-1.57148
-1.57568
-1.57983
-1.58392
-1.58795
-1.59193
-1.59585
-1.59971
-1.60352
-1.60727
-1.61097
-1.6146
-1.61819
-1.62171
-1.62518
-1.6286
-1.63196
-1.63527
-1.63852
-1.64172
-1.64487
-1.64796
-1.651
-1.65399
-1.65693
-1.65982
-1.66266
-1.66545
-1.66819
-1.67088
-1.67353
-1.67613
-1.67868
-1.68119
-1.68366
-1.68608
-1.68845
-1.69079
-1.69308
-1.69533
-1.69754
-1.69971
-1.70184
-1.70393
-1.70599
-1.708
-1.70998
-1.71192
-1.71383
-1.7157
-1.71754
-1.71935
-1.72112
-1.72286
-1.72456
-1.72624
-1.72788
-1.72949
-1.73108
-1.73263
-1.73416
-1.73565
-1.73712
-1.73856
-1.73996
-1.34753
-1.34754
-1.34804
-1.3489
-1.35009
-1.35161
-1.35344
-1.35556
-1.35796
-1.36061
-1.3635
-1.36662
-1.36994
-1.37345
-1.37715
-1.38101
-1.38502
-1.38917
-1.39345
-1.39784
-1.40234
-1.40693
-1.41161
-1.41636
-1.42118
-1.42605
-1.43097
-1.43593
-1.44093
-1.44595
-1.451
-1.45605
-1.46112
-1.46618
-1.47125
-1.47631
-1.48135
-1.48638
-1.49139
-1.49638
-1.50134
-1.50627
-1.51116
-1.51602
-1.52085
-1.52563
-1.53037
-1.53506
-1.53971
-1.54431
-1.54886
-1.55336
-1.55781
-1.56221
-1.56656
-1.57085
-1.57508
-1.57926
-1.58338
-1.58745
-1.59146
-1.59542
-1.59932
-1.60316
-1.60694
-1.61067
-1.61434
-1.61796
-1.62152
-1.62502
-1.62847
-1.63186
-1.6352
-1.63849
-1.64172
-1.64489
-1.64802
-1.65109
-1.65411
-1.65708
-1.66
-1.66286
-1.66568
-1.66845
-1.67117
-1.67385
-1.67648
-1.67906
-1.68159
-1.68408
-1.68653
-1.68893
-1.69129
-1.69361
-1.69588
-1.69812
-1.70031
-1.70246
-1.70458
-1.70666
-1.7087
-1.7107
-1.71266
-1.71459
-1.71648
-1.71834
-1.72017
-1.72196
-1.72372
-1.72544
-1.72714
-1.7288
-1.73043
-1.73203
-1.73361
-1.73515
-1.73667
-1.73815
-1.73961
-1.74102
-1.34588
-1.34587
-1.34634
-1.34718
-1.34835
-1.34986
-1.35167
-1.35379
-1.35617
-1.35881
-1.3617
-1.36481
-1.36813
-1.37165
-1.37535
-1.37921
-1.38323
-1.38739
-1.39168
-1.39608
-1.40059
-1.4052
-1.40989
-1.41466
-1.4195
-1.42439
-1.42934
-1.43432
-1.43934
-1.44439
-1.44946
-1.45455
-1.45964
-1.46474
-1.46983
-1.47492
-1.48
-1.48506
-1.4901
-1.49512
-1.50011
-1.50508
-1.51001
-1.51491
-1.51976
-1.52458
-1.52936
-1.53409
-1.53877
-1.54341
-1.548
-1.55254
-1.55703
-1.56146
-1.56584
-1.57017
-1.57444
-1.57866
-1.58282
-1.58692
-1.59097
-1.59496
-1.5989
-1.60278
-1.6066
-1.61036
-1.61407
-1.61772
-1.62131
-1.62485
-1.62833
-1.63176
-1.63513
-1.63845
-1.64171
-1.64492
-1.64808
-1.65118
-1.65424
-1.65724
-1.66019
-1.66308
-1.66593
-1.66873
-1.67148
-1.67419
-1.67684
-1.67945
-1.68202
-1.68454
-1.68701
-1.68944
-1.69182
-1.69417
-1.69647
-1.69873
-1.70095
-1.70313
-1.70527
-1.70737
-1.70943
-1.71146
-1.71344
-1.7154
-1.71731
-1.71919
-1.72104
-1.72285
-1.72463
-1.72638
-1.72809
-1.72978
-1.73143
-1.73305
-1.73464
-1.7362
-1.73774
-1.73924
-1.74072
-1.74214
-1.34415
-1.3441
-1.34455
-1.34537
-1.34652
-1.34801
-1.34981
-1.35191
-1.35429
-1.35692
-1.3598
-1.36291
-1.36623
-1.36975
-1.37345
-1.37732
-1.38134
-1.38551
-1.38981
-1.39423
-1.39875
-1.40338
-1.40809
-1.41288
-1.41773
-1.42265
-1.42761
-1.43263
-1.43767
-1.44275
-1.44784
-1.45296
-1.45808
-1.46321
-1.46834
-1.47346
-1.47857
-1.48366
-1.48874
-1.4938
-1.49883
-1.50383
-1.50879
-1.51373
-1.51862
-1.52348
-1.52829
-1.53306
-1.53779
-1.54246
-1.54709
-1.55167
-1.5562
-1.56067
-1.56509
-1.56946
-1.57377
-1.57802
-1.58222
-1.58637
-1.59045
-1.59448
-1.59846
-1.60237
-1.60623
-1.61003
-1.61378
-1.61747
-1.6211
-1.62467
-1.62819
-1.63165
-1.63506
-1.63841
-1.64171
-1.64496
-1.64815
-1.65129
-1.65437
-1.6574
-1.66039
-1.66332
-1.6662
-1.66903
-1.67181
-1.67455
-1.67723
-1.67987
-1.68247
-1.68501
-1.68752
-1.68997
-1.69239
-1.69476
-1.69709
-1.69938
-1.70162
-1.70383
-1.70599
-1.70812
-1.71021
-1.71226
-1.71427
-1.71625
-1.71819
-1.72009
-1.72196
-1.7238
-1.7256
-1.72737
-1.7291
-1.73081
-1.73248
-1.73412
-1.73574
-1.73732
-1.73887
-1.7404
-1.74189
-1.74333
-1.34232
-1.34225
-1.34267
-1.34347
-1.3446
-1.34607
-1.34786
-1.34994
-1.35231
-1.35494
-1.35781
-1.36091
-1.36423
-1.36775
-1.37145
-1.37533
-1.37936
-1.38354
-1.38785
-1.39228
-1.39682
-1.40146
-1.40619
-1.411
-1.41587
-1.42081
-1.4258
-1.43084
-1.43591
-1.44102
-1.44614
-1.45129
-1.45644
-1.4616
-1.46676
-1.47192
-1.47706
-1.4822
-1.48731
-1.4924
-1.49747
-1.50251
-1.50752
-1.51249
-1.51742
-1.52232
-1.52717
-1.53198
-1.53675
-1.54147
-1.54613
-1.55075
-1.55532
-1.55984
-1.5643
-1.5687
-1.57306
-1.57735
-1.58159
-1.58578
-1.58991
-1.59398
-1.59799
-1.60195
-1.60585
-1.60969
-1.61347
-1.6172
-1.62087
-1.62448
-1.62804
-1.63154
-1.63498
-1.63837
-1.64171
-1.64499
-1.64822
-1.65139
-1.65451
-1.65758
-1.6606
-1.66356
-1.66648
-1.66934
-1.67216
-1.67492
-1.67764
-1.68031
-1.68294
-1.68552
-1.68805
-1.69054
-1.69298
-1.69538
-1.69774
-1.70006
-1.70233
-1.70456
-1.70676
-1.70891
-1.71103
-1.7131
-1.71514
-1.71714
-1.71911
-1.72104
-1.72293
-1.72479
-1.72662
-1.72841
-1.73017
-1.73189
-1.73359
-1.73525
-1.73689
-1.73849
-1.74006
-1.74161
-1.74312
-1.74458
-1.34041
-1.34031
-1.34071
-1.34148
-1.34259
-1.34404
-1.34581
-1.34788
-1.35024
-1.35286
-1.35572
-1.35882
-1.36214
-1.36566
-1.36937
-1.37325
-1.37729
-1.38147
-1.38579
-1.39024
-1.39479
-1.39945
-1.4042
-1.40903
-1.41393
-1.41889
-1.42391
-1.42897
-1.43407
-1.4392
-1.44436
-1.44954
-1.45473
-1.45992
-1.46511
-1.47031
-1.47549
-1.48066
-1.48581
-1.49094
-1.49605
-1.50113
-1.50617
-1.51119
-1.51616
-1.5211
-1.526
-1.53085
-1.53566
-1.54042
-1.54513
-1.54979
-1.5544
-1.55896
-1.56347
-1.56792
-1.57231
-1.57665
-1.58094
-1.58516
-1.58933
-1.59345
-1.5975
-1.6015
-1.60544
-1.60932
-1.61315
-1.61692
-1.62063
-1.62428
-1.62788
-1.63142
-1.6349
-1.63833
-1.64171
-1.64503
-1.64829
-1.6515
-1.65466
-1.65776
-1.66082
-1.66382
-1.66677
-1.66967
-1.67252
-1.67532
-1.67807
-1.68078
-1.68344
-1.68605
-1.68861
-1.69113
-1.69361
-1.69604
-1.69843
-1.70077
-1.70308
-1.70534
-1.70756
-1.70974
-1.71188
-1.71399
-1.71605
-1.71808
-1.72007
-1.72203
-1.72395
-1.72583
-1.72768
-1.7295
-1.73128
-1.73303
-1.73475
-1.73644
-1.73809
-1.73972
-1.74132
-1.74288
-1.74442
-1.74589
-1.33842
-1.33829
-1.33866
-1.3394
-1.34049
-1.34192
-1.34368
-1.34573
-1.34807
-1.35068
-1.35354
-1.35664
-1.35996
-1.36348
-1.36718
-1.37107
-1.37512
-1.37931
-1.38365
-1.38811
-1.39268
-1.39735
-1.40212
-1.40697
-1.41189
-1.41688
-1.42192
-1.42702
-1.43215
-1.43731
-1.4425
-1.44771
-1.45293
-1.45816
-1.46339
-1.46862
-1.47384
-1.47905
-1.48424
-1.48941
-1.49456
-1.49968
-1.50477
-1.50983
-1.51485
-1.51983
-1.52477
-1.52967
-1.53452
-1.53932
-1.54408
-1.54879
-1.55344
-1.55805
-1.5626
-1.56709
-1.57153
-1.57592
-1.58025
-1.58452
-1.58873
-1.59289
-1.59699
-1.60103
-1.60502
-1.60894
-1.61281
-1.61662
-1.62038
-1.62407
-1.62771
-1.63129
-1.63482
-1.63829
-1.6417
-1.64506
-1.64837
-1.65162
-1.65481
-1.65796
-1.66105
-1.66409
-1.66708
-1.67001
-1.6729
-1.67574
-1.67852
-1.68126
-1.68396
-1.6866
-1.6892
-1.69175
-1.69426
-1.69672
-1.69914
-1.70152
-1.70386
-1.70615
-1.7084
-1.71061
-1.71278
-1.71492
-1.71701
-1.71907
-1.72109
-1.72307
-1.72501
-1.72693
-1.7288
-1.73064
-1.73245
-1.73423
-1.73597
-1.73768
-1.73936
-1.74101
-1.74263
-1.74422
-1.74577
-1.74727
-1.33635
-1.33618
-1.33652
-1.33724
-1.33831
-1.33971
-1.34145
-1.34349
-1.34582
-1.34842
-1.35127
-1.35437
-1.35768
-1.3612
-1.36491
-1.3688
-1.37286
-1.37706
-1.38141
-1.38588
-1.39047
-1.39517
-1.39995
-1.40483
-1.40977
-1.41479
-1.41986
-1.42498
-1.43014
-1.43533
-1.44056
-1.4458
-1.45106
-1.45632
-1.46159
-1.46686
-1.47212
-1.47737
-1.4826
-1.48782
-1.49301
-1.49817
-1.50331
-1.50841
-1.51347
-1.5185
-1.52349
-1.52843
-1.53333
-1.53818
-1.54298
-1.54774
-1.55244
-1.55709
-1.56169
-1.56623
-1.57072
-1.57515
-1.57953
-1.58384
-1.58811
-1.59231
-1.59646
-1.60054
-1.60457
-1.60855
-1.61246
-1.61632
-1.62011
-1.62385
-1.62754
-1.63116
-1.63473
-1.63824
-1.6417
-1.6451
-1.64845
-1.65174
-1.65498
-1.65816
-1.66129
-1.66437
-1.66739
-1.67037
-1.67329
-1.67617
-1.67899
-1.68177
-1.6845
-1.68718
-1.68981
-1.6924
-1.69494
-1.69744
-1.69989
-1.7023
-1.70467
-1.707
-1.70928
-1.71152
-1.71372
-1.71589
-1.71801
-1.7201
-1.72214
-1.72415
-1.72613
-1.72807
-1.72997
-1.73184
-1.73367
-1.73547
-1.73724
-1.73898
-1.74068
-1.74236
-1.744
-1.74561
-1.74719
-1.74871
-1.3342
-1.33399
-1.3343
-1.33499
-1.33603
-1.33742
-1.33914
-1.34116
-1.34348
-1.34607
-1.34891
-1.352
-1.35531
-1.35883
-1.36255
-1.36645
-1.37051
-1.37473
-1.37908
-1.38357
-1.38818
-1.39289
-1.3977
-1.40259
-1.40757
-1.41261
-1.41771
-1.42286
-1.42805
-1.43328
-1.43853
-1.44381
-1.44911
-1.45441
-1.45972
-1.46503
-1.47033
-1.47562
-1.4809
-1.48616
-1.49139
-1.4966
-1.50178
-1.50693
-1.51204
-1.51712
-1.52215
-1.52714
-1.53209
-1.53699
-1.54184
-1.54664
-1.55139
-1.55609
-1.56074
-1.56533
-1.56987
-1.57435
-1.57877
-1.58314
-1.58745
-1.5917
-1.5959
-1.60003
-1.60411
-1.60813
-1.61209
-1.61599
-1.61984
-1.62363
-1.62735
-1.63102
-1.63464
-1.6382
-1.6417
-1.64514
-1.64853
-1.65186
-1.65514
-1.65837
-1.66154
-1.66466
-1.66773
-1.67074
-1.67371
-1.67662
-1.67948
-1.6823
-1.68506
-1.68778
-1.69045
-1.69308
-1.69565
-1.69819
-1.70068
-1.70312
-1.70552
-1.70788
-1.71019
-1.71247
-1.7147
-1.7169
-1.71905
-1.72117
-1.72325
-1.72529
-1.72729
-1.72926
-1.73119
-1.73308
-1.73495
-1.73677
-1.73857
-1.74033
-1.74206
-1.74376
-1.74543
-1.74707
-1.74867
-1.7502
-1.33196
-1.33172
-1.332
-1.33266
-1.33368
-1.33504
-1.33674
-1.33875
-1.34105
-1.34363
-1.34647
-1.34955
-1.35286
-1.35638
-1.3601
-1.364
-1.36807
-1.3723
-1.37667
-1.38117
-1.3858
-1.39053
-1.39536
-1.40028
-1.40528
-1.41034
-1.41547
-1.42065
-1.42588
-1.43114
-1.43643
-1.44175
-1.44708
-1.45243
-1.45778
-1.46313
-1.46847
-1.47381
-1.47913
-1.48443
-1.48971
-1.49497
-1.5002
-1.50539
-1.51055
-1.51568
-1.52076
-1.5258
-1.5308
-1.53575
-1.54065
-1.5455
-1.55031
-1.55506
-1.55975
-1.5644
-1.56899
-1.57352
-1.57799
-1.58241
-1.58677
-1.59107
-1.59532
-1.5995
-1.60363
-1.6077
-1.61171
-1.61566
-1.61955
-1.62339
-1.62716
-1.63088
-1.63454
-1.63815
-1.64169
-1.64518
-1.64862
-1.65199
-1.65532
-1.65859
-1.6618
-1.66496
-1.66807
-1.67113
-1.67414
-1.67709
-1.67999
-1.68285
-1.68565
-1.68841
-1.69112
-1.69378
-1.69639
-1.69896
-1.70149
-1.70397
-1.7064
-1.7088
-1.71115
-1.71345
-1.71572
-1.71795
-1.72014
-1.72228
-1.72439
-1.72646
-1.7285
-1.73049
-1.73246
-1.73438
-1.73627
-1.73813
-1.73995
-1.74174
-1.7435
-1.74522
-1.74692
-1.74858
-1.7502
-1.75176
-1.32965
-1.32937
-1.32962
-1.33025
-1.33124
-1.33258
-1.33426
-1.33625
-1.33853
-1.3411
-1.34393
-1.34701
-1.35031
-1.35384
-1.35756
-1.36147
-1.36554
-1.36978
-1.37417
-1.37869
-1.38333
-1.38808
-1.39293
-1.39788
-1.4029
-1.408
-1.41316
-1.41837
-1.42363
-1.42893
-1.43426
-1.43961
-1.44498
-1.45037
-1.45576
-1.46115
-1.46654
-1.47192
-1.47729
-1.48264
-1.48797
-1.49328
-1.49855
-1.5038
-1.50901
-1.51418
-1.51932
-1.52441
-1.52946
-1.53446
-1.53942
-1.54432
-1.54918
-1.55398
-1.55873
-1.56343
-1.56807
-1.57265
-1.57718
-1.58165
-1.58606
-1.59042
-1.59472
-1.59895
-1.60313
-1.60725
-1.61131
-1.61531
-1.61926
-1.62314
-1.62697
-1.63073
-1.63444
-1.63809
-1.64169
-1.64522
-1.64871
-1.65213
-1.6555
-1.65881
-1.66207
-1.66528
-1.66843
-1.67153
-1.67458
-1.67758
-1.68052
-1.68342
-1.68626
-1.68906
-1.69181
-1.69451
-1.69716
-1.69977
-1.70233
-1.70485
-1.70732
-1.70975
-1.71214
-1.71448
-1.71678
-1.71904
-1.72126
-1.72344
-1.72558
-1.72769
-1.72975
-1.73178
-1.73377
-1.73573
-1.73765
-1.73953
-1.74139
-1.7432
-1.74499
-1.74674
-1.74846
-1.75015
-1.7518
-1.75338
-1.32726
-1.32695
-1.32716
-1.32776
-1.32872
-1.33003
-1.33169
-1.33366
-1.33593
-1.33849
-1.34131
-1.34438
-1.34769
-1.35121
-1.35493
-1.35884
-1.36293
-1.36718
-1.37158
-1.37612
-1.38077
-1.38555
-1.39042
-1.39539
-1.40044
-1.40557
-1.41076
-1.41601
-1.4213
-1.42663
-1.432
-1.43739
-1.44281
-1.44824
-1.45367
-1.45911
-1.46454
-1.46997
-1.47539
-1.48079
-1.48616
-1.49152
-1.49685
-1.50214
-1.50741
-1.51263
-1.51782
-1.52297
-1.52807
-1.53313
-1.53814
-1.5431
-1.54801
-1.55287
-1.55767
-1.56242
-1.56712
-1.57176
-1.57634
-1.58086
-1.58533
-1.58974
-1.59409
-1.59838
-1.60261
-1.60679
-1.6109
-1.61495
-1.61895
-1.62288
-1.62676
-1.63058
-1.63434
-1.63804
-1.64168
-1.64527
-1.6488
-1.65227
-1.65569
-1.65905
-1.66235
-1.66561
-1.6688
-1.67195
-1.67504
-1.67808
-1.68107
-1.68401
-1.6869
-1.68973
-1.69252
-1.69527
-1.69796
-1.70061
-1.70321
-1.70576
-1.70827
-1.71074
-1.71316
-1.71554
-1.71788
-1.72017
-1.72243
-1.72464
-1.72682
-1.72896
-1.73105
-1.73312
-1.73514
-1.73713
-1.73908
-1.74099
-1.74287
-1.74472
-1.74654
-1.74832
-1.75007
-1.75178
-1.75346
-1.75506
-1.3248
-1.32444
-1.32462
-1.32518
-1.32611
-1.32741
-1.32904
-1.33099
-1.33325
-1.33579
-1.33861
-1.34167
-1.34497
-1.34849
-1.35222
-1.35614
-1.36023
-1.3645
-1.36891
-1.37346
-1.37814
-1.38293
-1.38783
-1.39283
-1.39791
-1.40306
-1.40828
-1.41356
-1.41889
-1.42426
-1.42967
-1.4351
-1.44056
-1.44603
-1.45151
-1.45699
-1.46248
-1.46795
-1.47342
-1.47887
-1.4843
-1.4897
-1.49508
-1.50043
-1.50575
-1.51103
-1.51627
-1.52148
-1.52663
-1.53175
-1.53681
-1.54183
-1.5468
-1.55171
-1.55657
-1.56138
-1.56613
-1.57083
-1.57547
-1.58005
-1.58457
-1.58904
-1.59344
-1.59779
-1.60208
-1.6063
-1.61047
-1.61458
-1.61863
-1.62262
-1.62655
-1.63042
-1.63423
-1.63798
-1.64168
-1.64531
-1.64889
-1.65241
-1.65588
-1.65929
-1.66264
-1.66594
-1.66919
-1.67238
-1.67552
-1.6786
-1.68164
-1.68462
-1.68755
-1.69043
-1.69327
-1.69605
-1.69878
-1.70147
-1.70411
-1.70671
-1.70926
-1.71176
-1.71422
-1.71664
-1.71902
-1.72135
-1.72364
-1.72589
-1.7281
-1.73027
-1.7324
-1.7345
-1.73655
-1.73857
-1.74056
-1.7425
-1.74442
-1.74629
-1.74814
-1.74995
-1.75173
-1.75347
-1.75518
-1.7568
-1.32226
-1.32186
-1.322
-1.32253
-1.32343
-1.3247
-1.32631
-1.32824
-1.33048
-1.33301
-1.33582
-1.33887
-1.34217
-1.34569
-1.34942
-1.35335
-1.35745
-1.36172
-1.36615
-1.37072
-1.37542
-1.38023
-1.38516
-1.39018
-1.39529
-1.40047
-1.40573
-1.41104
-1.41641
-1.42182
-1.42726
-1.43274
-1.43824
-1.44375
-1.44928
-1.45481
-1.46034
-1.46587
-1.47138
-1.47688
-1.48237
-1.48783
-1.49326
-1.49867
-1.50404
-1.50938
-1.51468
-1.51993
-1.52515
-1.53032
-1.53544
-1.54052
-1.54554