/*--------------------------------*- C++ -*----------------------------------*\
  =========                 |
  \\      /  F ield         | OpenFOAM: The Open Source CFD Toolbox
   \\    /   O peration     | Website:  https://openfoam.org
    \\  /    A nd           | Version:  10
     \\/     M anipulation  |
\*---------------------------------------------------------------------------*/
FoamFile
{
    format      ascii;
    class       volScalarField;
    location    "675";
    object      nut;
}
// * * * * * * * * * * * * * * * * * * * * * * * * * * * * * * * * * * * * * //

dimensions      [0 2 -1 0 0 0 0];

internalField   nonuniform List<scalar> 
6580
(
1.21597e-06
3.21897e-06
3.22703e-06
2.38869e-06
2.87751e-06
4.48051e-06
7.85445e-06
1.57666e-05
3.68303e-05
6.7005e-05
8.78655e-05
9.50863e-05
9.3865e-05
8.95788e-05
8.36213e-05
7.38788e-05
6.31133e-05
5.57783e-05
4.41455e-05
3.70622e-05
3.26298e-05
2.98826e-05
2.77818e-05
2.61378e-05
2.46904e-05
2.37445e-05
2.3221e-05
2.29198e-05
2.27456e-05
2.27881e-05
2.31916e-05
2.39818e-05
2.51686e-05
2.68388e-05
2.92192e-05
3.2608e-05
3.75581e-05
4.33483e-05
5.1044e-05
6.75485e-05
2.21577e-06
2.35839e-06
2.12228e-06
2.20662e-06
2.4349e-06
2.86589e-06
3.70477e-06
5.26764e-06
6.26971e-06
6.70329e-06
8.02347e-06
9.58804e-06
1.07384e-05
1.71099e-05
3.30955e-05
6.52795e-05
0.00011389
0.000151898
0.000179343
0.000199664
0.000215417
0.000228941
0.000240396
0.000249939
0.000257887
0.000264554
0.000270197
0.00027505
0.000279244
0.000282515
0.000285138
0.00028731
0.000289128
0.000290622
0.000291792
0.000292617
0.000293059
0.000292993
0.000291564
0.000291887
2.68366e-06
2.63325e-06
2.59622e-06
2.54846e-06
2.48935e-06
2.55452e-06
2.64951e-06
2.80548e-06
3.07155e-06
3.35837e-06
3.5723e-06
3.59433e-06
4.17224e-06
5.5841e-06
9.04084e-06
1.84731e-05
4.40833e-05
9.01967e-05
0.00014428
0.000194599
0.000234311
0.000263801
0.000286784
0.000305168
0.00032016
0.000332509
0.000342834
0.000351675
0.000359321
0.0003659
0.000371625
0.00037663
0.00038101
0.000384818
0.000388067
0.000390753
0.000392806
0.000394136
0.000394059
0.00039399
2.81874e-06
2.76956e-06
2.78007e-06
2.79605e-06
2.77955e-06
2.77456e-06
2.7849e-06
2.81352e-06
2.86305e-06
2.9349e-06
3.02769e-06
3.12887e-06
3.27169e-06
3.39183e-06
3.52742e-06
4.40956e-06
7.0568e-06
1.5605e-05
3.99309e-05
8.8768e-05
0.00014493
0.000192368
0.000231123
0.000262774
0.000288659
0.000310271
0.000328774
0.000344916
0.000359086
0.000371518
0.00038249
0.000392208
0.000400836
0.000408502
0.000415295
0.000421276
0.000426469
0.000430895
0.000434261
0.000436889
2.8705e-06
2.81614e-06
2.79649e-06
2.80794e-06
2.78021e-06
2.74969e-06
2.71472e-06
2.67938e-06
2.68212e-06
2.69772e-06
2.72076e-06
2.75179e-06
2.78675e-06
2.84599e-06
2.88661e-06
2.8899e-06
3.01155e-06
3.45814e-06
5.05641e-06
1.04425e-05
2.58408e-05
5.2962e-05
8.76248e-05
0.000123201
0.000157119
0.000187814
0.000215268
0.000239801
0.000261689
0.000281279
0.00029893
0.000314964
0.000329581
0.000342956
0.000355228
0.000366519
0.00037692
0.000386545
0.000395377
0.000403199
2.87793e-06
2.8335e-06
2.82083e-06
2.82621e-06
2.83222e-06
2.83069e-06
2.80101e-06
2.77032e-06
2.74816e-06
2.74576e-06
2.75005e-06
2.76059e-06
2.77561e-06
2.79459e-06
2.82177e-06
2.8441e-06
2.8693e-06
2.91414e-06
3.03037e-06
3.35167e-06
4.14109e-06
5.59858e-06
8.15808e-06
1.24789e-05
1.94594e-05
2.99833e-05
4.41711e-05
6.1263e-05
7.98773e-05
9.89741e-05
0.000117969
0.00013688
0.000155451
0.000173576
0.000191087
0.000207912
0.000224087
0.000239679
0.000254806
0.000268886
2.87482e-06
2.84082e-06
2.82553e-06
2.82688e-06
2.83125e-06
2.8333e-06
2.8173e-06
2.8004e-06
2.78067e-06
2.75915e-06
2.73669e-06
2.71433e-06
2.69364e-06
2.67546e-06
2.68696e-06
2.66791e-06
2.65002e-06
2.63167e-06
2.61507e-06
2.60575e-06
2.61868e-06
2.65633e-06
2.72816e-06
2.85405e-06
3.06938e-06
3.44683e-06
4.04571e-06
4.94753e-06
6.255e-06
8.12951e-06
1.07584e-05
1.43433e-05
1.91139e-05
2.52835e-05
3.30108e-05
4.236e-05
5.32024e-05
6.53228e-05
7.85296e-05
9.19447e-05
2.8702e-06
2.84438e-06
2.83182e-06
2.82864e-06
2.8308e-06
2.83415e-06
2.83519e-06
2.83211e-06
2.81762e-06
2.80269e-06
2.78697e-06
2.77039e-06
2.76138e-06
2.75905e-06
2.75935e-06
2.76889e-06
2.77923e-06
2.78077e-06
2.78271e-06
2.78614e-06
2.79026e-06
2.79463e-06
2.79918e-06
2.80489e-06
2.8137e-06
2.82928e-06
2.85761e-06
2.90695e-06
2.98484e-06
3.10607e-06
3.28365e-06
3.53287e-06
3.8732e-06
4.33314e-06
4.95536e-06
5.78738e-06
6.8833e-06
8.31151e-06
1.01571e-05
1.2407e-05
2.86534e-06
2.846e-06
2.835e-06
2.82811e-06
2.82879e-06
2.83068e-06
2.83228e-06
2.83172e-06
2.82273e-06
2.81341e-06
2.80321e-06
2.79202e-06
2.77979e-06
2.76667e-06
2.75307e-06
2.73993e-06
2.72795e-06
2.71591e-06
2.70256e-06
2.68784e-06
2.67441e-06
2.66347e-06
2.65421e-06
2.64596e-06
2.6385e-06
2.63293e-06
2.62978e-06
2.62943e-06
2.63227e-06
2.63978e-06
2.65822e-06
2.68458e-06
2.71762e-06
2.76441e-06
2.82991e-06
2.91882e-06
3.03579e-06
3.18654e-06
3.3775e-06
3.60654e-06
2.86061e-06
2.84663e-06
2.83623e-06
2.83029e-06
2.82841e-06
2.82891e-06
2.83042e-06
2.83145e-06
2.83077e-06
2.82444e-06
2.81715e-06
2.80971e-06
2.80168e-06
2.79294e-06
2.78354e-06
2.77364e-06
2.76347e-06
2.76088e-06
2.76095e-06
2.76194e-06
2.76372e-06
2.76557e-06
2.76706e-06
2.76831e-06
2.76949e-06
2.77018e-06
2.76966e-06
2.76884e-06
2.76695e-06
2.7661e-06
2.76579e-06
2.76575e-06
2.76594e-06
2.76646e-06
2.76874e-06
2.77378e-06
2.78231e-06
2.79478e-06
2.81312e-06
2.83716e-06
2.85612e-06
2.84439e-06
2.83599e-06
2.83121e-06
2.82775e-06
2.82758e-06
2.8282e-06
2.82925e-06
2.82959e-06
2.82847e-06
2.823e-06
2.81742e-06
2.81188e-06
2.80587e-06
2.7993e-06
2.79214e-06
2.78449e-06
2.77661e-06
2.76884e-06
2.76167e-06
2.75561e-06
2.7507e-06
2.7464e-06
2.74241e-06
2.73864e-06
2.73503e-06
2.73201e-06
2.72957e-06
2.72765e-06
2.72843e-06
2.72973e-06
2.73117e-06
2.73257e-06
2.73388e-06
2.73519e-06
2.73664e-06
2.73832e-06
2.74029e-06
2.74275e-06
2.74557e-06
2.85195e-06
2.84192e-06
2.83534e-06
2.83151e-06
2.82868e-06
2.82709e-06
2.82703e-06
2.82758e-06
2.82817e-06
2.82813e-06
2.82697e-06
2.82268e-06
2.81836e-06
2.81405e-06
2.80957e-06
2.80473e-06
2.79952e-06
2.79402e-06
2.78837e-06
2.78289e-06
2.78238e-06
2.78296e-06
2.78337e-06
2.7836e-06
2.78375e-06
2.78397e-06
2.78386e-06
2.78349e-06
2.78289e-06
2.78223e-06
2.78139e-06
2.78037e-06
2.77926e-06
2.77812e-06
2.77696e-06
2.77582e-06
2.77473e-06
2.77369e-06
2.77283e-06
2.77167e-06
2.84814e-06
2.83955e-06
2.83458e-06
2.83136e-06
2.82903e-06
2.82713e-06
2.82644e-06
2.82645e-06
2.82685e-06
2.82709e-06
2.82679e-06
2.82537e-06
2.82195e-06
2.81857e-06
2.81519e-06
2.81181e-06
2.80825e-06
2.80442e-06
2.80037e-06
2.79619e-06
2.79269e-06
2.79001e-06
2.78777e-06
2.78585e-06
2.78414e-06
2.78259e-06
2.78115e-06
2.77991e-06
2.77886e-06
2.77805e-06
2.77769e-06
2.77762e-06
2.77766e-06
2.77774e-06
2.77782e-06
2.77787e-06
2.77789e-06
2.77788e-06
2.77787e-06
2.77743e-06
2.84469e-06
2.83741e-06
2.83386e-06
2.83092e-06
2.82898e-06
2.82744e-06
2.82611e-06
2.82583e-06
2.82592e-06
2.82619e-06
2.82626e-06
2.82586e-06
2.82396e-06
2.82133e-06
2.81874e-06
2.81617e-06
2.81365e-06
2.81106e-06
2.80833e-06
2.80544e-06
2.80302e-06
2.80267e-06
2.80247e-06
2.80214e-06
2.8018e-06
2.80158e-06
2.80141e-06
2.80118e-06
2.80086e-06
2.80041e-06
2.79978e-06
2.79899e-06
2.7982e-06
2.79745e-06
2.79674e-06
2.79607e-06
2.79544e-06
2.79484e-06
2.7943e-06
2.79377e-06
2.84164e-06
2.8355e-06
2.8327e-06
2.83023e-06
2.82867e-06
2.82748e-06
2.82646e-06
2.82551e-06
2.82548e-06
2.82561e-06
2.82573e-06
2.82565e-06
2.82517e-06
2.8231e-06
2.8211e-06
2.81916e-06
2.81725e-06
2.81542e-06
2.81362e-06
2.81173e-06
2.81007e-06
2.80971e-06
2.80969e-06
2.8093e-06
2.80875e-06
2.80824e-06
2.8078e-06
2.80749e-06
2.80719e-06
2.80695e-06
2.80676e-06
2.80662e-06
2.80649e-06
2.80638e-06
2.80626e-06
2.80613e-06
2.80599e-06
2.80583e-06
2.8057e-06
2.80538e-06
2.83896e-06
2.83382e-06
2.8315e-06
2.82951e-06
2.82828e-06
2.82737e-06
2.82659e-06
2.82585e-06
2.82554e-06
2.82544e-06
2.82546e-06
2.82542e-06
2.82523e-06
2.82469e-06
2.82301e-06
2.82146e-06
2.82e-06
2.8186e-06
2.8177e-06
2.81646e-06
2.8153e-06
2.81533e-06
2.81561e-06
2.81571e-06
2.8156e-06
2.81539e-06
2.81517e-06
2.81493e-06
2.81466e-06
2.8144e-06
2.81415e-06
2.8139e-06
2.81365e-06
2.81342e-06
2.81319e-06
2.81297e-06
2.81277e-06
2.81257e-06
2.81238e-06
2.8122e-06
2.83664e-06
2.83236e-06
2.83044e-06
2.82885e-06
2.82788e-06
2.82718e-06
2.8266e-06
2.82606e-06
2.8255e-06
2.82531e-06
2.82524e-06
2.82523e-06
2.82513e-06
2.8249e-06
2.82433e-06
2.82302e-06
2.82184e-06
2.82074e-06
2.82043e-06
2.81991e-06
2.81902e-06
2.81903e-06
2.8193e-06
2.81957e-06
2.81973e-06
2.81983e-06
2.8199e-06
2.81997e-06
2.82001e-06
2.81999e-06
2.81992e-06
2.81981e-06
2.81968e-06
2.81955e-06
2.81942e-06
2.8193e-06
2.81919e-06
2.81906e-06
2.81901e-06
2.81888e-06
2.83465e-06
2.83112e-06
2.82953e-06
2.82826e-06
2.82751e-06
2.82698e-06
2.82655e-06
2.82615e-06
2.82574e-06
2.82531e-06
2.82523e-06
2.82519e-06
2.82513e-06
2.825e-06
2.82475e-06
2.82419e-06
2.82315e-06
2.82223e-06
2.82149e-06
2.82115e-06
2.82049e-06
2.82034e-06
2.8206e-06
2.82091e-06
2.82118e-06
2.8214e-06
2.82159e-06
2.82175e-06
2.82189e-06
2.822e-06
2.82209e-06
2.82213e-06
2.8221e-06
2.82204e-06
2.82198e-06
2.82192e-06
2.82186e-06
2.8218e-06
2.82174e-06
2.82169e-06
2.83298e-06
2.83008e-06
2.82874e-06
2.82776e-06
2.82719e-06
2.8268e-06
2.82648e-06
2.82619e-06
2.82589e-06
2.82557e-06
2.82539e-06
2.82529e-06
2.82522e-06
2.82512e-06
2.82496e-06
2.82469e-06
2.82388e-06
2.82313e-06
2.82248e-06
2.8222e-06
2.82171e-06
2.82139e-06
2.82155e-06
2.8218e-06
2.82206e-06
2.82228e-06
2.82246e-06
2.82261e-06
2.82275e-06
2.82286e-06
2.82295e-06
2.82302e-06
2.82308e-06
2.82312e-06
2.82315e-06
2.82317e-06
2.82319e-06
2.82319e-06
2.82321e-06
2.82318e-06
2.83159e-06
2.82922e-06
2.82809e-06
2.82736e-06
2.82694e-06
2.82665e-06
2.82642e-06
2.8262e-06
2.82598e-06
2.82575e-06
2.8255e-06
2.8254e-06
2.82532e-06
2.82524e-06
2.82512e-06
2.82496e-06
2.8247e-06
2.82409e-06
2.82353e-06
2.82305e-06
2.82268e-06
2.82244e-06
2.82255e-06
2.82273e-06
2.82295e-06
2.82316e-06
2.82334e-06
2.82349e-06
2.82361e-06
2.82372e-06
2.82382e-06
2.82389e-06
2.82396e-06
2.82401e-06
2.82405e-06
2.82408e-06
2.82408e-06
2.82407e-06
2.82406e-06
2.82406e-06
2.83046e-06
2.82853e-06
2.82756e-06
2.82705e-06
2.82675e-06
2.82654e-06
2.82637e-06
2.82621e-06
2.82605e-06
2.82588e-06
2.8257e-06
2.82551e-06
2.82544e-06
2.82537e-06
2.82529e-06
2.82518e-06
2.82502e-06
2.82479e-06
2.82431e-06
2.82391e-06
2.8236e-06
2.8234e-06
2.82345e-06
2.82356e-06
2.82371e-06
2.82388e-06
2.82403e-06
2.82415e-06
2.82426e-06
2.82436e-06
2.82444e-06
2.82451e-06
2.82457e-06
2.82462e-06
2.82466e-06
2.8247e-06
2.82473e-06
2.82476e-06
2.82477e-06
2.82481e-06
2.82956e-06
2.82797e-06
2.8272e-06
2.82684e-06
2.82662e-06
2.82647e-06
2.82634e-06
2.82622e-06
2.8261e-06
2.82598e-06
2.82584e-06
2.82569e-06
2.8256e-06
2.82553e-06
2.82546e-06
2.82537e-06
2.82525e-06
2.82511e-06
2.82489e-06
2.82453e-06
2.82427e-06
2.8241e-06
2.82411e-06
2.82417e-06
2.82426e-06
2.82438e-06
2.82449e-06
2.82459e-06
2.82467e-06
2.82475e-06
2.82481e-06
2.82487e-06
2.82492e-06
2.82496e-06
2.82499e-06
2.82502e-06
2.82505e-06
2.82507e-06
2.82507e-06
2.82511e-06
2.82883e-06
2.82753e-06
2.82696e-06
2.82669e-06
2.82653e-06
2.82642e-06
2.82632e-06
2.82623e-06
2.82614e-06
2.82605e-06
2.82595e-06
2.82583e-06
2.82571e-06
2.82565e-06
2.82559e-06
2.82553e-06
2.82545e-06
2.82535e-06
2.82523e-06
2.82496e-06
2.82473e-06
2.82459e-06
2.82459e-06
2.82462e-06
2.82467e-06
2.82474e-06
2.82481e-06
2.82489e-06
2.82495e-06
2.82501e-06
2.82506e-06
2.8251e-06
2.82514e-06
2.82517e-06
2.8252e-06
2.82523e-06
2.82525e-06
2.82527e-06
2.82528e-06
2.82532e-06
2.82825e-06
2.82719e-06
2.82678e-06
2.82659e-06
2.82647e-06
2.82639e-06
2.82632e-06
2.82625e-06
2.82618e-06
2.82611e-06
2.82603e-06
2.82595e-06
2.82585e-06
2.82578e-06
2.82573e-06
2.82568e-06
2.82561e-06
2.82554e-06
2.82546e-06
2.82526e-06
2.82508e-06
2.82496e-06
2.82491e-06
2.82492e-06
2.82495e-06
2.82499e-06
2.82503e-06
2.82508e-06
2.82513e-06
2.82517e-06
2.8252e-06
2.82523e-06
2.82526e-06
2.82528e-06
2.8253e-06
2.82532e-06
2.82534e-06
2.82535e-06
2.82536e-06
2.8254e-06
2.8278e-06
2.82693e-06
2.82666e-06
2.82652e-06
2.82644e-06
2.82637e-06
2.82632e-06
2.82626e-06
2.82621e-06
2.82616e-06
2.8261e-06
2.82604e-06
2.82597e-06
2.82589e-06
2.82584e-06
2.82579e-06
2.82574e-06
2.82569e-06
2.82563e-06
2.8255e-06
2.82536e-06
2.82526e-06
2.8252e-06
2.82521e-06
2.82522e-06
2.82524e-06
2.82527e-06
2.8253e-06
2.82533e-06
2.82535e-06
2.82537e-06
2.8254e-06
2.82541e-06
2.82543e-06
2.82544e-06
2.82545e-06
2.82546e-06
2.82547e-06
2.82548e-06
2.82552e-06
2.82745e-06
2.82677e-06
2.82658e-06
2.82648e-06
2.82642e-06
2.82637e-06
2.82632e-06
2.82628e-06
2.82624e-06
2.8262e-06
2.82615e-06
2.8261e-06
2.82605e-06
2.826e-06
2.82593e-06
2.82589e-06
2.82585e-06
2.82581e-06
2.82577e-06
2.82566e-06
2.82556e-06
2.82549e-06
2.82544e-06
2.82543e-06
2.82544e-06
2.82545e-06
2.82546e-06
2.82548e-06
2.82549e-06
2.82551e-06
2.82552e-06
2.82554e-06
2.82555e-06
2.82556e-06
2.82557e-06
2.82557e-06
2.82557e-06
2.82558e-06
2.82559e-06
2.82562e-06
2.82717e-06
2.82667e-06
2.82653e-06
2.82646e-06
2.82641e-06
2.82637e-06
2.82633e-06
2.8263e-06
2.82626e-06
2.82623e-06
2.8262e-06
2.82616e-06
2.82612e-06
2.82608e-06
2.82603e-06
2.82598e-06
2.82595e-06
2.82591e-06
2.82588e-06
2.8258e-06
2.82573e-06
2.82568e-06
2.82564e-06
2.82561e-06
2.82562e-06
2.82562e-06
2.82563e-06
2.82564e-06
2.82565e-06
2.82565e-06
2.82566e-06
2.82567e-06
2.82567e-06
2.82568e-06
2.82567e-06
2.82567e-06
2.82567e-06
2.82568e-06
2.82568e-06
2.82571e-06
2.82697e-06
2.8266e-06
2.82651e-06
2.82645e-06
2.82641e-06
2.82637e-06
2.82634e-06
2.82631e-06
2.82629e-06
2.82626e-06
2.82623e-06
2.82621e-06
2.82618e-06
2.82615e-06
2.82611e-06
2.82608e-06
2.82604e-06
2.826e-06
2.82596e-06
2.82592e-06
2.82587e-06
2.82584e-06
2.82581e-06
2.82579e-06
2.82577e-06
2.82577e-06
2.82578e-06
2.82578e-06
2.82578e-06
2.82579e-06
2.82579e-06
2.82579e-06
2.82578e-06
2.82578e-06
2.82578e-06
2.82578e-06
2.82577e-06
2.82578e-06
2.82578e-06
2.8258e-06
2.82681e-06
2.82656e-06
2.82649e-06
2.82644e-06
2.8264e-06
2.82637e-06
2.82635e-06
2.82633e-06
2.82631e-06
2.82629e-06
2.82627e-06
2.82625e-06
2.82622e-06
2.8262e-06
2.82618e-06
2.82615e-06
2.82612e-06
2.82609e-06
2.82606e-06
2.82603e-06
2.826e-06
2.82598e-06
2.82596e-06
2.82594e-06
2.82593e-06
2.82592e-06
2.82591e-06
2.82591e-06
2.8259e-06
2.8259e-06
2.8259e-06
2.82589e-06
2.82589e-06
2.82589e-06
2.82588e-06
2.82588e-06
2.82588e-06
2.82588e-06
2.82588e-06
2.82589e-06
2.8267e-06
2.82653e-06
2.82648e-06
2.82644e-06
2.8264e-06
2.82638e-06
2.82636e-06
2.82634e-06
2.82632e-06
2.82631e-06
2.8263e-06
2.82628e-06
2.82626e-06
2.82625e-06
2.82623e-06
2.82621e-06
2.82619e-06
2.82617e-06
2.82615e-06
2.82612e-06
2.8261e-06
2.82609e-06
2.82607e-06
2.82606e-06
2.82605e-06
2.82605e-06
2.82604e-06
2.82603e-06
2.82603e-06
2.82603e-06
2.82602e-06
2.82602e-06
2.82602e-06
2.82602e-06
2.82601e-06
2.82601e-06
2.82601e-06
2.82601e-06
2.82601e-06
2.82602e-06
2.82662e-06
2.82652e-06
2.82648e-06
2.82643e-06
2.8264e-06
2.82638e-06
2.82636e-06
2.82635e-06
2.82634e-06
2.82633e-06
2.82632e-06
2.82631e-06
2.8263e-06
2.82629e-06
2.82627e-06
2.82626e-06
2.82625e-06
2.82623e-06
2.82622e-06
2.8262e-06
2.82619e-06
2.82617e-06
2.82617e-06
2.82616e-06
2.82615e-06
2.82614e-06
2.82614e-06
2.82614e-06
2.82613e-06
2.82613e-06
2.82613e-06
2.82612e-06
2.82612e-06
2.82612e-06
2.82612e-06
2.82611e-06
2.82611e-06
2.82611e-06
2.82611e-06
2.82612e-06
2.82656e-06
2.82649e-06
2.82646e-06
2.82642e-06
2.8264e-06
2.82638e-06
2.82637e-06
2.82637e-06
2.82636e-06
2.82635e-06
2.82635e-06
2.82634e-06
2.82633e-06
2.82632e-06
2.82631e-06
2.8263e-06
2.82629e-06
2.82628e-06
2.82627e-06
2.82626e-06
2.82625e-06
2.82624e-06
2.82624e-06
2.82623e-06
2.82623e-06
2.82622e-06
2.82622e-06
2.82622e-06
2.82621e-06
2.82621e-06
2.82621e-06
2.82621e-06
2.8262e-06
2.8262e-06
2.8262e-06
2.8262e-06
2.8262e-06
2.8262e-06
2.8262e-06
2.8262e-06
2.82651e-06
2.82647e-06
2.82644e-06
2.82641e-06
2.8264e-06
2.82639e-06
2.82639e-06
2.82639e-06
2.82638e-06
2.82638e-06
2.82637e-06
2.82637e-06
2.82636e-06
2.82635e-06
2.82635e-06
2.82634e-06
2.82633e-06
2.82632e-06
2.82632e-06
2.82631e-06
2.82631e-06
2.8263e-06
2.8263e-06
2.82629e-06
2.82629e-06
2.82629e-06
2.82629e-06
2.82628e-06
2.82628e-06
2.82628e-06
2.82628e-06
2.82628e-06
2.82628e-06
2.82628e-06
2.82627e-06
2.82627e-06
2.82627e-06
2.82627e-06
2.82627e-06
2.82627e-06
2.82648e-06
2.82645e-06
2.82642e-06
2.82641e-06
2.8264e-06
2.8264e-06
2.82641e-06
2.8264e-06
2.8264e-06
2.8264e-06
2.82639e-06
2.82639e-06
2.82638e-06
2.82638e-06
2.82637e-06
2.82637e-06
2.82636e-06
2.82636e-06
2.82636e-06
2.82635e-06
2.82635e-06
2.82635e-06
2.82635e-06
2.82635e-06
2.82635e-06
2.82635e-06
2.82635e-06
2.82635e-06
2.82636e-06
2.82636e-06
2.82636e-06
2.82636e-06
2.82636e-06
2.82636e-06
2.82636e-06
2.82636e-06
2.82636e-06
2.82636e-06
2.82636e-06
2.82636e-06
2.82646e-06
2.82643e-06
2.82642e-06
2.82641e-06
2.82642e-06
2.82642e-06
2.82642e-06
2.82642e-06
2.82642e-06
2.82641e-06
2.82641e-06
2.8264e-06
2.8264e-06
2.82639e-06
2.82639e-06
2.82639e-06
2.82639e-06
2.8264e-06
2.8264e-06
2.82641e-06
2.82641e-06
2.82642e-06
2.82642e-06
2.82643e-06
2.82643e-06
2.82644e-06
2.82644e-06
2.82644e-06
2.82645e-06
2.82645e-06
2.82645e-06
2.82645e-06
2.82646e-06
2.82646e-06
2.82646e-06
2.82646e-06
2.82646e-06
2.82646e-06
2.82646e-06
2.82646e-06
2.82643e-06
2.82641e-06
2.82642e-06
2.82642e-06
2.82643e-06
2.82643e-06
2.82643e-06
2.82642e-06
2.82641e-06
2.82641e-06
2.82641e-06
2.82641e-06
2.82641e-06
2.82642e-06
2.82643e-06
2.82643e-06
2.82644e-06
2.82645e-06
2.82645e-06
2.82646e-06
2.82647e-06
2.82647e-06
2.82648e-06
2.82648e-06
2.82649e-06
2.82649e-06
2.82649e-06
2.8265e-06
2.8265e-06
2.8265e-06
2.8265e-06
2.8265e-06
2.82651e-06
2.82651e-06
2.82651e-06
2.82651e-06
2.82651e-06
2.82651e-06
2.82651e-06
2.82652e-06
2.82642e-06
2.8264e-06
2.82642e-06
2.82643e-06
2.82643e-06
2.82643e-06
2.82642e-06
2.82641e-06
2.82641e-06
2.82642e-06
2.82642e-06
2.82643e-06
2.82644e-06
2.82645e-06
2.82645e-06
2.82646e-06
2.82647e-06
2.82648e-06
2.82648e-06
2.82649e-06
2.82649e-06
2.82649e-06
2.8265e-06
2.8265e-06
2.8265e-06
2.8265e-06
2.82651e-06
2.82651e-06
2.82651e-06
2.82651e-06
2.82651e-06
2.82651e-06
2.82651e-06
2.82652e-06
2.82652e-06
2.82652e-06
2.82652e-06
2.82652e-06
2.82652e-06
2.82652e-06
2.8264e-06
2.8264e-06
2.82642e-06
2.82643e-06
2.82643e-06
2.82642e-06
2.82641e-06
2.82641e-06
2.82642e-06
2.82642e-06
2.82643e-06
2.82644e-06
2.82645e-06
2.82645e-06
2.82646e-06
2.82647e-06
2.82647e-06
2.82648e-06
2.82648e-06
2.82648e-06
2.82649e-06
2.82649e-06
2.82649e-06
2.82649e-06
2.82649e-06
2.82649e-06
2.8265e-06
2.8265e-06
2.8265e-06
2.8265e-06
2.8265e-06
2.8265e-06
2.8265e-06
2.8265e-06
2.8265e-06
2.8265e-06
2.8265e-06
2.8265e-06
2.8265e-06
2.82651e-06
2.8264e-06
2.8264e-06
2.82643e-06
2.82643e-06
2.82642e-06
2.82642e-06
2.82641e-06
2.82641e-06
2.82641e-06
2.82642e-06
2.82642e-06
2.82643e-06
2.82644e-06
2.82645e-06
2.82646e-06
2.82647e-06
2.82648e-06
2.82649e-06
2.82649e-06
2.8265e-06
2.8265e-06
2.8265e-06
2.8265e-06
2.8265e-06
2.8265e-06
2.82651e-06
2.82651e-06
2.82651e-06
2.82651e-06
2.82651e-06
2.82651e-06
2.82651e-06
2.82651e-06
2.82651e-06
2.82651e-06
2.82652e-06
2.82652e-06
2.82652e-06
2.82653e-06
2.82653e-06
2.82639e-06
2.82638e-06
2.82638e-06
2.82638e-06
2.82638e-06
2.82638e-06
2.82639e-06
2.82639e-06
2.8264e-06
2.82642e-06
2.82644e-06
2.82646e-06
2.82648e-06
2.8265e-06
2.82651e-06
2.82651e-06
2.82651e-06
2.82651e-06
2.82651e-06
2.82651e-06
2.8265e-06
2.8265e-06
2.8265e-06
2.82649e-06
2.82649e-06
2.82649e-06
2.82648e-06
2.82648e-06
2.82648e-06
2.82648e-06
2.82648e-06
2.82648e-06
2.82648e-06
2.82648e-06
2.82648e-06
2.82648e-06
2.82648e-06
2.82648e-06
2.82648e-06
2.82648e-06
8.97497e-05
6.14447e-05
2.92936e-05
1.92655e-05
1.53589e-05
1.35065e-05
1.25742e-05
1.21308e-05
1.24383e-05
1.34778e-05
0.000312896
0.000320338
0.00032207
0.000321775
0.000320454
0.00031857
0.000316541
0.000314572
0.000313219
0.000310671
0.000405262
0.000412695
0.000417507
0.000420616
0.000422535
0.000423581
0.000423994
0.000423932
0.000423618
0.000422743
0.000438398
0.000440115
0.000441758
0.00044325
0.00044458
0.000445667
0.000446391
0.000446634
0.000446245
0.000444832
0.000396674
0.00039224
0.000389146
0.000386915
0.000385288
0.000384013
0.000382807
0.000381393
0.000379488
0.000376721
0.000262045
0.000256782
0.000252664
0.000249347
0.000246613
0.000244259
0.000242065
0.000239811
0.000237301
0.000234317
8.85548e-05
8.57435e-05
8.33699e-05
8.1323e-05
7.95198e-05
7.78758e-05
7.63095e-05
7.47569e-05
7.31551e-05
7.14487e-05
1.19532e-05
1.15649e-05
1.12276e-05
1.09287e-05
1.06585e-05
1.04165e-05
1.01982e-05
9.99122e-06
9.79097e-06
9.58566e-06
3.57625e-06
3.54887e-06
3.52407e-06
3.50148e-06
3.48073e-06
3.46146e-06
3.44332e-06
3.42606e-06
3.40942e-06
3.39336e-06
2.83344e-06
2.82997e-06
2.82673e-06
2.82371e-06
2.82088e-06
2.81821e-06
2.81568e-06
2.81327e-06
2.81097e-06
2.80875e-06
2.74656e-06
2.74741e-06
2.74819e-06
2.7489e-06
2.74956e-06
2.75018e-06
2.75076e-06
2.75129e-06
2.75183e-06
2.7522e-06
2.77186e-06
2.77194e-06
2.77198e-06
2.77201e-06
2.77203e-06
2.77204e-06
2.77205e-06
2.77204e-06
2.77207e-06
2.77181e-06
2.77783e-06
2.77814e-06
2.77839e-06
2.77862e-06
2.77883e-06
2.77901e-06
2.77917e-06
2.77931e-06
2.77945e-06
2.77934e-06
2.79397e-06
2.79394e-06
2.79389e-06
2.79384e-06
2.79379e-06
2.79372e-06
2.79366e-06
2.79359e-06
2.79351e-06
2.79342e-06
2.80554e-06
2.80561e-06
2.80558e-06
2.80553e-06
2.80547e-06
2.80541e-06
2.80534e-06
2.80527e-06
2.80521e-06
2.80513e-06
2.81232e-06
2.8123e-06
2.81227e-06
2.81224e-06
2.81221e-06
2.81218e-06
2.81214e-06
2.8121e-06
2.81206e-06
2.81201e-06
2.81898e-06
2.81901e-06
2.81898e-06
2.81895e-06
2.81892e-06
2.81889e-06
2.81885e-06
2.81882e-06
2.81878e-06
2.81875e-06
2.82177e-06
2.8218e-06
2.82179e-06
2.82177e-06
2.82175e-06
2.82173e-06
2.82171e-06
2.82168e-06
2.82169e-06
2.82167e-06
2.82326e-06
2.82329e-06
2.82328e-06
2.82327e-06
2.82326e-06
2.82325e-06
2.82324e-06
2.82323e-06
2.82324e-06
2.82326e-06
2.82414e-06
2.82417e-06
2.82418e-06
2.82419e-06
2.8242e-06
2.8242e-06
2.82421e-06
2.8242e-06
2.82422e-06
2.82424e-06
2.82488e-06
2.8249e-06
2.82492e-06
2.82493e-06
2.82494e-06
2.82495e-06
2.82496e-06
2.82496e-06
2.82497e-06
2.82499e-06
2.82517e-06
2.8252e-06
2.82521e-06
2.82522e-06
2.82523e-06
2.82524e-06
2.82525e-06
2.82526e-06
2.82528e-06
2.82529e-06
2.82537e-06
2.82539e-06
2.8254e-06
2.82541e-06
2.82542e-06
2.82542e-06
2.82543e-06
2.82544e-06
2.82545e-06
2.82547e-06
2.82544e-06
2.82545e-06
2.82546e-06
2.82547e-06
2.82547e-06
2.82548e-06
2.82549e-06
2.82549e-06
2.8255e-06
2.82551e-06
2.82555e-06
2.82556e-06
2.82557e-06
2.82557e-06
2.82557e-06
2.82558e-06
2.82558e-06
2.82558e-06
2.82559e-06
2.8256e-06
2.82564e-06
2.82565e-06
2.82565e-06
2.82565e-06
2.82565e-06
2.82566e-06
2.82566e-06
2.82566e-06
2.82566e-06
2.82567e-06
2.82572e-06
2.82573e-06
2.82573e-06
2.82573e-06
2.82573e-06
2.82573e-06
2.82573e-06
2.82573e-06
2.82573e-06
2.82573e-06
2.82581e-06
2.82581e-06
2.82581e-06
2.82581e-06
2.82581e-06
2.82581e-06
2.82581e-06
2.82581e-06
2.82581e-06
2.82581e-06
2.8259e-06
2.8259e-06
2.8259e-06
2.8259e-06
2.8259e-06
2.8259e-06
2.8259e-06
2.8259e-06
2.8259e-06
2.8259e-06
2.82602e-06
2.82602e-06
2.82602e-06
2.82602e-06
2.82602e-06
2.82602e-06
2.82602e-06
2.82602e-06
2.82602e-06
2.82602e-06
2.82612e-06
2.82612e-06
2.82612e-06
2.82612e-06
2.82612e-06
2.82612e-06
2.82612e-06
2.82612e-06
2.82612e-06
2.82612e-06
2.8262e-06
2.8262e-06
2.8262e-06
2.8262e-06
2.8262e-06
2.8262e-06
2.8262e-06
2.8262e-06
2.8262e-06
2.8262e-06
2.82627e-06
2.82627e-06
2.82627e-06
2.82627e-06
2.82627e-06
2.82627e-06
2.82627e-06
2.82627e-06
2.82627e-06
2.82627e-06
2.82636e-06
2.82636e-06
2.82636e-06
2.82636e-06
2.82636e-06
2.82636e-06
2.82636e-06
2.82636e-06
2.82636e-06
2.82636e-06
2.82646e-06
2.82646e-06
2.82646e-06
2.82646e-06
2.82646e-06
2.82647e-06
2.82647e-06
2.82647e-06
2.82647e-06
2.82647e-06
2.82652e-06
2.82652e-06
2.82652e-06
2.82652e-06
2.82652e-06
2.82652e-06
2.82652e-06
2.82652e-06
2.82652e-06
2.82652e-06
2.82652e-06
2.82652e-06
2.82652e-06
2.82652e-06
2.82652e-06
2.82652e-06
2.82652e-06
2.82652e-06
2.82652e-06
2.82652e-06
2.82651e-06
2.82651e-06
2.82651e-06
2.82651e-06
2.82651e-06
2.82651e-06
2.82651e-06
2.82651e-06
2.82651e-06
2.82651e-06
2.82653e-06
2.82653e-06
2.82653e-06
2.82653e-06
2.82653e-06
2.82653e-06
2.82653e-06
2.82653e-06
2.82653e-06
2.82653e-06
2.82648e-06
2.82648e-06
2.82648e-06
2.82648e-06
2.82648e-06
2.82648e-06
2.82648e-06
2.82648e-06
2.82648e-06
2.82648e-06
1.45891e-05
1.70882e-05
1.9884e-05
2.29321e-05
2.60699e-05
2.95447e-05
3.38132e-05
3.9643e-05
4.79673e-05
5.89567e-05
7.39844e-05
9.53486e-05
0.00012396
0.000152476
0.000168274
0.000165695
0.000153587
0.000151184
0.000161868
0.000174338
0.000185306
0.000197914
0.000217184
0.000237769
0.000255057
0.000267735
0.00027569
0.00027929
0.000280861
0.000281177
0.000281173
0.000280853
0.000279279
0.000275675
0.00026772
0.000255043
0.000237758
0.000217179
0.00019792
0.000185304
0.000174337
0.000161852
0.000151115
0.000153468
0.000165624
0.000168282
0.000152548
0.000124039
9.54026e-05
7.40125e-05
5.89684e-05
4.79696e-05
3.96404e-05
3.38076e-05
2.95382e-05
2.60639e-05
2.29291e-05
1.98861e-05
1.70976e-05
1.46049e-05
0.000312175
0.00031119
0.000307663
0.00030186
0.000294085
0.00028461
0.000273953
0.000262689
0.000251561
0.000241512
0.000233541
0.000228828
0.000228595
0.000233293
0.000242082
0.00025393
0.000269389
0.000291444
0.000323155
0.00036459
0.000411683
0.000458468
0.000495956
0.000524002
0.000545087
0.000556242
0.000555563
0.000544314
0.000537067
0.00053199
0.000531987
0.000537057
0.000544291
0.000555536
0.000556226
0.000545089
0.000524023
0.000495998
0.000458528
0.000411782
0.000364677
0.000323222
0.000291489
0.000269422
0.00025396
0.00024211
0.000233316
0.000228607
0.000228831
0.000233536
0.000241504
0.00025155
0.000262676
0.000273941
0.000284598
0.000294075
0.000301853
0.000307658
0.000311188
0.000312176
0.00042291
0.000422392
0.000420554
0.000417351
0.00041271
0.000406542
0.000398758
0.000389378
0.000378534
0.000366592
0.000354149
0.000342037
0.000331281
0.000322982
0.000318146
0.000317671
0.000322661
0.000335095
0.000358368
0.000396826
0.000452776
0.000522139
0.000594776
0.000660272
0.000710961
0.00074543
0.0007655
0.000770785
0.000761254
0.000742335
0.000742333
0.000761245
0.000770773
0.000765496
0.000745446
0.000711017
0.000660334
0.000594838
0.000522195
0.000452823
0.000396861
0.000358393
0.000335113
0.000322673
0.00031768
0.000318151
0.000322983
0.000331278
0.00034203
0.000354141
0.000366583
0.000378525
0.000389369
0.000398749
0.000406535
0.000412704
0.000417345
0.000420549
0.000422388
0.000422908
0.000444396
0.000444867
0.000445022
0.000444787
0.000444047
0.00044265
0.000440404
0.0004371
0.000432538
0.000426563
0.000419133
0.000410392
0.000400736
0.00039086
0.000381722
0.000374516
0.000370721
0.000372269
0.000381975
0.000404034
0.000443855
0.000505771
0.000588092
0.000680009
0.000766097
0.000833766
0.000878086
0.000900524
0.000901868
0.000884401
0.000884404
0.000901861
0.000900516
0.00087807
0.000833739
0.000766054
0.000679951
0.00058803
0.00050572
0.000443825
0.000404019
0.00038197
0.000372268
0.00037072
0.000374514
0.000381719
0.000390856
0.000400731
0.000410386
0.000419126
0.000426556
0.000432531
0.000437093
0.000440397
0.000442644
0.000444041
0.000444782
0.000445019
0.000444864
0.000444394
0.000375719
0.000376888
0.000378906
0.000381692
0.000385128
0.00038905
0.000393253
0.000397485
0.000401448
0.000404826
0.000407296
0.00040856
0.000408398
0.000406752
0.000403825
0.000400176
0.00039682
0.000395348
0.00039812
0.000408634
0.000431969
0.000474695
0.000542785
0.000636265
0.000743935
0.00084638
0.000926153
0.000974817
0.000996108
0.000998507
0.000998535
0.000996126
0.000974795
0.000926067
0.000846223
0.000743734
0.000636065
0.000542631
0.000474597
0.000431916
0.000408607
0.000398106
0.00039534
0.000396815
0.00040017
0.000403819
0.000406744
0.000408389
0.00040855
0.000407286
0.000404815
0.000401437
0.000397474
0.000393243
0.000389041
0.00038512
0.000381685
0.000378899
0.000376882
0.000375714
0.000233127
0.000234372
0.000237571
0.000242658
0.000249526
0.000258023
0.000267956
0.000279088
0.000291139
0.000303784
0.000316658
0.000329353
0.000341444
0.000352503
0.000362148
0.000370202
0.000376779
0.000382457
0.000388567
0.000397541
0.000413384
0.000442158
0.00049192
0.000570284
0.000677712
0.000800343
0.000912993
0.000993524
0.00103355
0.00104253
0.00104256
0.00103353
0.000993383
0.000912724
0.000799993
0.00067737
0.000570023
0.000491755
0.000442067
0.000413336
0.000397515
0.000388551
0.000382444
0.000376766
0.000370188
0.000362133
0.000352487
0.000341428
0.000329337
0.000316642
0.000303769
0.000291124
0.000279074
0.000267944
0.000258012
0.000249516
0.000242649
0.000237562
0.000234364
0.00023312
7.07101e-05
7.1375e-05
7.43759e-05
7.97666e-05
8.76e-05
9.78883e-05
0.000110567
0.000125476
0.00014237
0.000160942
0.000180843
0.000201664
0.000223015
0.000244486
0.000265638
0.000286038
0.000305301
0.000323209
0.000339931
0.000356419
0.000374948
0.000399909
0.000438576
0.000500942
0.000596097
0.000722639
0.000859204
0.000971794
0.00103644
0.00105461
0.00105463
0.00103634
0.000971495
0.000858756
0.000722172
0.000595728
0.000500705
0.000438443
0.000399837
0.000374907
0.000356391
0.000339908
0.000323187
0.000305278
0.000286015
0.000265615
0.000244464
0.000222994
0.000201643
0.000180824
0.000160924
0.000142354
0.000125462
0.000110554
9.78774e-05
8.75905e-05
7.97584e-05
7.43686e-05
7.13684e-05
7.0704e-05
9.49278e-06
9.56055e-06
1.00997e-05
1.11974e-05
1.30223e-05
1.58462e-05
2.00649e-05
2.62055e-05
3.48834e-05
4.66835e-05
6.19753e-05
8.07355e-05
0.000102525
0.000126661
0.000152443
0.000179208
0.000206315
0.000233298
0.000259835
0.000285921
0.000312267
0.000341086
0.000377331
0.000429958
0.000511544
0.00063174
0.000781735
0.000924907
0.00101806
0.0010479
0.00104791
0.00101786
0.000924464
0.000781185
0.000631266
0.000511226
0.000429776
0.000377233
0.000341029
0.000312228
0.000285889
0.000259806
0.00023327
0.000206288
0.000179182
0.000152419
0.000126639
0.000102505
8.07189e-05
6.1962e-05