/*--------------------------------*- C++ -*---------------------------------*\ 
| ========                 |                                                 | 
| \      /  F ield         | OpenFOAM: The Open Source CFD Toolbox           | 
|  \    /   O peration     | Version:  v1812                                 | 
|   \  /    A nd           | Web:      www.OpenFOAM.com                      | 
|    \/     M anipulation  |                                                 | 
\*--------------------------------------------------------------------------*/ 
FoamFile
{
    version     2.0;
    format      ascii;
    class       volVectorField;
    location    "/home/james/dafoam/myRuns/bezier_foil/0.00000000001/";
    object      sens_CL_shapey;
}
// * * * * * * * * * * * * * * * * * * * * * * * * * * * * * * * * * * * * * //

dimensions      [0 0 0 0 0 0 0];
internalField   uniform (0 0 0);
boundaryField
{
    allWalls
    {
        type  wall;
        value nonuniform List<vector>
80
(
(-0.134019 0.148375 0.000004)
(-0.024878 -0.039693 0.000004)
(0.103825 -0.152943 0.000004)
(0.049993 -0.102317 0.000004)
(-0.005332 -0.005126 0.000004)
(-0.030827 0.058007 0.000003)
(-0.026581 0.061760 0.000003)
(-0.027858 0.087133 0.000003)
(-0.016270 0.063792 0.000003)
(-0.007104 0.037933 0.000003)
(-0.007733 0.046753 0.000020)
(-0.007959 0.059147 0.000038)
(-0.007472 0.065301 0.000038)
(-0.005395 0.060597 0.000038)
(-0.004791 0.068650 0.000038)
(-0.003515 0.071665 0.000085)
(-0.002436 0.081583 0.000137)
(-0.001025 0.095873 0.000145)
(0.001636 0.117854 0.000149)
(0.005304 0.144306 0.000117)
(0.009112 0.153401 0.000073)
(0.012428 0.154281 0.000056)
(0.015267 0.157343 0.000045)
(0.018046 0.163542 0.000038)
(0.020887 0.172303 0.000028)
(0.023734 0.181946 0.000021)
(0.026804 0.194081 0.000021)
(0.030044 0.207801 0.000021)
(0.033879 0.225735 0.000021)
(0.038769 0.250286 0.000010)
(0.043741 0.275070 -0.000001)
(0.045331 0.279664 -0.000001)
(0.047554 0.289673 -0.000001)
(0.074140 0.441717 -0.000001)
(0.121375 0.705246 0.000001)
(0.068628 0.388559 0.000003)
(-0.116636 -0.601330 0.000003)
(0.289877 1.911612 0.000003)
(1.196934 6.807148 0.000003)
(0.132826 -14.504929 0.000003)
(0.022986 0.138596 0.000004)
(0.051438 0.010871 0.000004)
(-0.032964 -0.066015 0.000004)
(-0.018755 -0.048095 0.000004)
(0.013362 0.017168 0.000003)
(0.022248 0.047626 0.000003)
(0.016211 0.041871 0.000003)
(0.012627 0.043194 0.000003)
(0.012116 0.054171 0.000003)
(0.011018 0.061840 0.000018)
(0.006926 0.048571 0.000032)
(0.005289 0.048756 0.000031)
(0.005027 0.058654 0.000030)
(0.003748 0.062275 0.000030)
(0.002638 0.070149 0.000012)
(0.001063 0.075617 -0.000004)
(-0.000679 0.084436 0.000001)
(-0.002943 0.099138 0.000010)
(-0.006018 0.121703 0.000024)
(-0.009661 0.144481 0.000043)
(-0.012337 0.152821 0.000091)
(-0.014085 0.155557 0.000125)
(-0.014570 0.151494 0.000117)
(-0.015044 0.150940 0.000108)
(-0.017812 0.176318 0.000099)
(-0.019770 0.196116 0.000058)
(-0.019848 0.199168 0.000021)
(-0.020593 0.210304 0.000021)
(-0.021948 0.229332 0.000021)
(-0.023350 0.250911 0.000021)
(-0.025281 0.280927 0.000010)
(-0.027137 0.313334 -0.000001)
(-0.026180 0.317000 -0.000001)
(-0.036435 0.457766 -0.000001)
(-0.050754 0.648963 -0.000001)
(-0.010169 0.170772 0.000001)
(0.048517 -0.484308 0.000003)
(-0.188685 3.023838 0.000003)
(-0.579954 7.811850 0.000003)
(-1.020548 -14.349910 0.000003)
)
;
    }
}
