/*--------------------------------*- C++ -*---------------------------------*\ 
| ========                 |                                                 | 
| \      /  F ield         | OpenFOAM: The Open Source CFD Toolbox           | 
|  \    /   O peration     | Version:  v1812                                 | 
|   \  /    A nd           | Web:      www.OpenFOAM.com                      | 
|    \/     M anipulation  |                                                 | 
\*--------------------------------------------------------------------------*/ 
FoamFile
{
    version     2.0;
    format      ascii;
    class       volVectorField;
    location    "/home/james/dafoam/myRuns/bezier_foil/0.00000000001/";
    object      sens_CL_shapey;
}
// * * * * * * * * * * * * * * * * * * * * * * * * * * * * * * * * * * * * * //

dimensions      [0 0 0 0 0 0 0];
internalField   uniform (0 0 0);
boundaryField
{
    allWalls
    {
        type  wall;
        value nonuniform List<vector>
80
(
(-0.262041 0.151809 0.000008)
(0.039521 -0.158859 0.000008)
(0.256588 -0.333804 0.000008)
(0.132524 -0.212587 0.000008)
(-0.016986 0.009913 0.000008)
(-0.066637 0.114838 0.000001)
(-0.062511 0.128632 -0.000007)
(-0.032236 0.086185 -0.000007)
(-0.013966 0.047265 -0.000007)
(-0.012486 0.052342 -0.000007)
(-0.012489 0.060621 0.000058)
(-0.013120 0.073202 0.000122)
(-0.010797 0.069704 0.000120)
(-0.008978 0.068470 0.000118)
(-0.006795 0.059598 0.000116)
(-0.005139 0.055427 0.000234)
(-0.006197 0.080347 0.000363)
(-0.006526 0.111646 0.000387)
(-0.005013 0.133912 0.000409)
(-0.001394 0.148366 0.000403)
(0.002811 0.135158 0.000364)
(0.007478 0.124865 0.000320)
(0.012768 0.145562 0.000280)
(0.017588 0.153852 0.000251)
(0.022206 0.157312 0.000163)
(0.027318 0.164023 0.000088)
(0.032758 0.171977 0.000088)
(0.038799 0.182199 0.000088)
(0.045919 0.196052 0.000088)
(0.055120 0.216822 0.000040)
(0.064315 0.236136 -0.000008)
(0.065938 0.228606 -0.000008)
(0.069226 0.228812 -0.000008)
(0.119142 0.372823 -0.000008)
(0.194706 0.584029 0.000001)
(0.075280 0.218828 0.000010)
(-0.223068 -0.559928 0.000010)
(0.420620 1.324685 0.000010)
(1.726703 4.891955 0.000010)
(-1.454667 -13.945251 0.000010)
(-0.151772 0.156277 0.000008)
(0.041919 0.049102 0.000008)
(0.031536 0.047612 0.000008)
(0.020512 0.043884 0.000008)
(0.020802 0.046905 0.000001)
(0.007852 0.023375 -0.000007)
(0.010363 0.039688 -0.000007)
(0.008808 0.039782 -0.000007)
(0.006759 0.039284 -0.000007)
(0.006547 0.046494 0.000054)
(0.004890 0.046698 0.000113)
(0.003755 0.048916 0.000110)
(0.002683 0.056299 0.000107)
(0.001498 0.066555 0.000103)
(-0.000418 0.069756 0.000152)
(-0.002502 0.078092 0.000211)
(-0.005090 0.090925 0.000229)
(-0.008269 0.107231 0.000253)
(-0.011838 0.125735 0.000284)
(-0.015212 0.144944 0.000318)
(-0.016527 0.153391 0.000363)
(-0.015821 0.151562 0.000375)
(-0.016369 0.168620 0.000344)
(-0.015752 0.178024 0.000315)
(-0.013624 0.175767 0.000290)
(-0.012232 0.188628 0.000183)
(-0.010416 0.203499 0.000088)
(-0.008161 0.216233 0.000088)
(-0.005328 0.226432 0.000088)
(-0.002279 0.265029 0.000088)
(0.001617 0.294081 0.000040)
(0.006516 0.304232 -0.000008)
(0.014069 0.387193 -0.000008)
(0.027177 0.552158 -0.000008)
(0.031872 0.511249 -0.000008)
(-0.000350 -0.067726 0.000001)
(0.038501 0.259935 0.000010)
(0.461246 4.633141 0.000010)
(0.670143 7.520173 0.000010)
(-2.313388 -13.664717 0.000010)
)
;
    }
}
