/*--------------------------------*- C++ -*---------------------------------*\ 
| ========                 |                                                 | 
| \      /  F ield         | OpenFOAM: The Open Source CFD Toolbox           | 
|  \    /   O peration     | Version:  v1812                                 | 
|   \  /    A nd           | Web:      www.OpenFOAM.com                      | 
|    \/     M anipulation  |                                                 | 
\*--------------------------------------------------------------------------*/ 
FoamFile
{
    version     2.0;
    format      ascii;
    class       volVectorField;
    location    "/home/james/dafoam/myRuns/bezier_foil/0.00000000001/";
    object      sens_CL_shapey;
}
// * * * * * * * * * * * * * * * * * * * * * * * * * * * * * * * * * * * * * //

dimensions      [0 0 0 0 0 0 0];
internalField   uniform (0 0 0);
boundaryField
{
    allWalls
    {
        type  wall;
        value nonuniform List<vector>
80
(
(-0.081878 0.131869 -0.000004)
(-0.040635 -0.010940 -0.000004)
(0.061089 -0.100638 -0.000004)
(0.033040 -0.072516 -0.000004)
(-0.008412 0.004122 -0.000004)
(-0.024570 0.048488 -0.000005)
(-0.021705 0.053733 -0.000005)
(-0.022735 0.074763 -0.000005)
(-0.013594 0.057311 -0.000005)
(-0.006927 0.039399 -0.000005)
(-0.006915 0.045939 -0.000006)
(-0.006871 0.056774 -0.000005)
(-0.006329 0.063833 -0.000005)
(-0.004439 0.060257 -0.000004)
(-0.003261 0.061635 0.000023)
(-0.002553 0.077290 0.000052)
(-0.001311 0.090265 0.000053)
(0.000821 0.092118 0.000051)
(0.003693 0.117539 0.000046)
(0.007640 0.146643 0.000008)
(0.011529 0.159559 -0.000033)
(0.014070 0.159555 -0.000041)
(0.014526 0.145937 -0.000045)
(0.017285 0.159968 -0.000045)
(0.020561 0.182003 -0.000026)
(0.021570 0.184582 -0.000008)
(0.023384 0.195954 -0.000008)
(0.025422 0.210393 -0.000008)
(0.027767 0.228307 -0.000008)
(0.030806 0.252827 -0.000005)
(0.033618 0.276438 -0.000002)
(0.034171 0.283150 -0.000002)
(0.036343 0.305214 -0.000002)
(0.055682 0.467594 -0.000002)
(0.083278 0.694402 -0.000002)
(0.040397 0.340788 -0.000002)
(-0.079440 -0.590069 -0.000001)
(0.235780 2.321706 -0.000001)
(0.868879 7.411517 -0.000001)
(0.588229 -14.441208 -0.000001)
(0.073429 0.136526 -0.000004)
(0.052631 0.002120 -0.000004)
(-0.056774 -0.095290 -0.000004)
(-0.038598 -0.079373 -0.000004)
(0.006180 -0.000139 -0.000004)
(0.024347 0.045641 -0.000004)
(0.021782 0.052182 -0.000005)
(0.023773 0.077116 -0.000005)
(0.013121 0.053582 -0.000005)
(0.006452 0.036719 -0.000005)
(0.007905 0.052495 -0.000008)
(0.007281 0.060254 -0.000012)
(0.005736 0.059718 -0.000012)
(0.004202 0.060234 -0.000013)
(0.003658 0.072242 -0.000013)
(0.002162 0.076310 -0.000042)
(0.000576 0.080557 -0.000070)
(-0.001345 0.095602 -0.000068)
(-0.004114 0.120476 -0.000063)
(-0.007819 0.145245 -0.000052)
(-0.011125 0.156198 -0.000008)
(-0.012182 0.142546 0.000029)
(-0.015083 0.155235 0.000029)
(-0.017816 0.171540 0.000026)
(-0.018937 0.172014 0.000021)
(-0.021092 0.184747 0.000005)
(-0.022915 0.195466 -0.000008)
(-0.025105 0.210289 -0.000008)
(-0.027609 0.228472 -0.000008)
(-0.030832 0.253218 -0.000008)
(-0.033848 0.277092 -0.000005)
(-0.034566 0.283826 -0.000002)
(-0.036881 0.305454 -0.000002)
(-0.056840 0.468696 -0.000002)
(-0.085729 0.699584 -0.000002)
(-0.042138 0.346029 -0.000001)
(0.082173 -0.596222 -0.000001)
(-0.241300 2.303834 -0.000001)
(-0.897727 7.422732 -0.000001)
(-0.553036 -14.419462 -0.000001)
)
;
    }
}
