/*--------------------------------*- C++ -*----------------------------------*\
  =========                 |
  \\      /  F ield         | OpenFOAM: The Open Source CFD Toolbox
   \\    /   O peration     | Website:  https://openfoam.org
    \\  /    A nd           | Version:  10
     \\/     M anipulation  |
\*---------------------------------------------------------------------------*/
FoamFile
{
    format      ascii;
    class       volScalarField;
    location    "0.002";
    object      alphat;
}
// * * * * * * * * * * * * * * * * * * * * * * * * * * * * * * * * * * * * * //

dimensions      [1 -1 -1 0 0 0 0];

internalField   nonuniform List<scalar> 
8915
(
3.44986e-08
3.45244e-08
3.45804e-08
3.47906e-08
7.11669e-08
7.39682e-08
7.49374e-08
3.5615e-08
3.60127e-08
3.63802e-08
7.41916e-08
3.69172e-08
3.73622e-08
3.77357e-08
7.60608e-08
3.84611e-08
7.71434e-08
3.93267e-08
3.98981e-08
4.0381e-08
7.92725e-08
4.12554e-08
4.18337e-08
4.2293e-08
8.07377e-08
8.31896e-08
8.36894e-08
8.40907e-08
8.50465e-08
4.46813e-08
4.51298e-08
4.54422e-08
4.56986e-08
4.59267e-08
4.61242e-08
8.49434e-08
8.7552e-08
4.63209e-08
4.646e-08
8.59437e-08
8.78639e-08
8.8004e-08
8.80822e-08
8.81144e-08
8.81085e-08
8.80527e-08
8.79306e-08
8.77214e-08
8.74272e-08
8.70262e-08
8.65009e-08
8.58412e-08
8.5051e-08
8.41251e-08
8.30465e-08
8.18121e-08
8.04295e-08
7.88966e-08
7.72245e-08
7.54072e-08
7.3435e-08
7.13005e-08
6.90056e-08
6.65455e-08
6.40297e-08
6.14471e-08
5.87252e-08
5.58854e-08
5.29582e-08
4.99736e-08
4.69545e-08
4.39192e-08
4.08869e-08
3.78724e-08
3.48922e-08
3.19625e-08
2.87822e-08
2.57373e-08
2.28653e-08
2.01806e-08
1.77035e-08
1.54578e-08
1.34051e-08
1.15129e-08
9.75674e-09
8.13092e-09
6.64765e-09
5.30417e-09
4.08709e-09
2.91368e-09
2.24065e-09
1.76826e-09
1.3948e-09
1.1212e-09
9.36014e-10
8.1547e-10
7.1265e-10
6.05884e-10
5.31755e-10
4.6692e-10
5.14163e-10
5.14774e-10
5.01118e-10
4.8227e-10
4.54772e-10
4.18559e-10
3.80905e-10
3.53107e-10
3.56932e-10
4.0885e-10
5.04364e-10
6.13602e-10
7.17663e-10
7.76412e-10
6.7527e-10
4.38993e-10
5.08984e-10
1.03631e-09
1.68436e-09
2.124e-09
2.2898e-09
2.44257e-09
2.9358e-09
4.04556e-09
8.20177e-09
1.28138e-08
9.59617e-09
1.71192e-08
8.96546e-06
8.92618e-06
8.95318e-06
9.04368e-06
9.52229e-06
9.65042e-06
9.74333e-06
9.47089e-06
9.59121e-06
9.7463e-06
1.02877e-05
1.00455e-05
1.01797e-05
1.0343e-05
1.09285e-05
1.07244e-05
1.1311e-05
1.11195e-05
1.13135e-05
1.15295e-05
1.21757e-05
1.20035e-05
1.22048e-05
1.24124e-05
1.30398e-05
1.32618e-05
1.34643e-05
1.36608e-05
1.38531e-05
1.35985e-05
1.37427e-05
1.38769e-05
1.3989e-05
1.4078e-05
1.4144e-05
1.46237e-05
1.46656e-05
1.42291e-05
1.41908e-05
1.45815e-05
1.45172e-05
1.44079e-05
1.42742e-05
1.41217e-05
1.39498e-05
1.37586e-05
1.35482e-05
1.33152e-05
1.30601e-05
1.27884e-05
1.25025e-05
1.22026e-05
1.18885e-05
1.15612e-05
1.12174e-05
1.08577e-05
1.04869e-05
1.01085e-05
9.7231e-06
9.33284e-06
8.93702e-06
8.53548e-06
8.13032e-06
7.72285e-06
7.3198e-06
6.9199e-06
6.519e-06
6.12253e-06
5.73503e-06
5.35835e-06
4.99381e-06
4.64197e-06
4.30262e-06
3.9761e-06
3.66177e-06
3.36004e-06
3.07159e-06
2.79846e-06
2.54243e-06
2.30575e-06
2.09084e-06
1.89811e-06
1.72397e-06
1.56324e-06
1.41149e-06
1.26745e-06
1.13288e-06
1.00917e-06
8.94573e-07
7.88042e-07
6.96637e-07
6.14238e-07
5.38087e-07
4.67872e-07
4.04518e-07
3.48538e-07
2.98821e-07
2.5379e-07
2.13721e-07
1.78203e-07
1.47855e-07
1.23103e-07
1.01146e-07
8.39194e-08
6.95484e-08
5.71006e-08
4.70432e-08
3.97958e-08
3.70044e-08
3.95935e-08
4.57713e-08
5.31048e-08
6.40346e-08
8.52496e-08
1.09394e-07
1.33202e-07
1.5598e-07
1.74466e-07
1.85741e-07
1.85197e-07
1.85462e-07
2.07486e-07
2.91783e-07
5.00495e-07
1.02299e-06
2.2476e-06
5.02894e-06
1.00319e-05
9.53478e-05
9.51859e-05
9.53377e-05
9.59168e-05
9.66104e-05
9.72622e-05
9.77893e-05
9.8436e-05
9.92836e-05
0.000100238
0.000101153
0.000101922
0.000102808
0.000103783
0.000104842
0.000105888
0.000106988
0.00010811
0.000109275
0.00011048
0.000111697
0.000112935
0.000114086
0.000115191
0.000116222
0.000117262
0.000118273
0.000119255
0.00012018
0.000121088
0.000121877
0.00012253
0.000123073
0.000123498
0.000123825
0.000123974
0.00012407
0.000124136
0.000124034
0.000123732
0.00012334
0.0001228
0.00012214
0.000121385
0.000120528
0.000119569
0.000118506
0.000117317
0.000116002
0.000114585
0.000113075
0.000111469
0.000109761
0.000107954
0.00010603
0.000103992
0.000101849
9.9616e-05
9.72909e-05
9.48817e-05
9.2378e-05
8.97725e-05
8.70721e-05
8.42793e-05
8.14334e-05
7.85217e-05
7.55091e-05
7.24312e-05
6.93212e-05
6.61932e-05
6.30593e-05
5.99269e-05
5.67961e-05
5.36738e-05
5.05563e-05
4.74516e-05
4.438e-05
4.1363e-05
3.84304e-05
3.56231e-05
3.29891e-05
3.05516e-05
2.82844e-05
2.61322e-05
2.40425e-05
2.20025e-05
2.00457e-05
1.82042e-05
1.64615e-05
1.48355e-05
1.33466e-05
1.1947e-05
1.06208e-05
9.36759e-06
8.20854e-06
7.16039e-06
6.20939e-06
5.33072e-06
4.53275e-06
3.80988e-06
3.17203e-06
2.62512e-06
2.14659e-06
1.74324e-06
1.41041e-06
1.1303e-06
9.08702e-07
7.49278e-07
6.74396e-07
6.77595e-07
7.46409e-07
8.96946e-07
1.18303e-06
1.61958e-06
2.14432e-06
2.6346e-06
3.05301e-06
3.35123e-06
3.51752e-06
3.48103e-06
3.48396e-06
3.92632e-06
5.61141e-06
9.57254e-06
1.84354e-05
3.68856e-05
6.6451e-05
0.000100434
0.000158488
0.000158031
0.000158034
0.000158665
0.000159351
0.00016012
0.000160738
0.00016167
0.000162774
0.000164034
0.000165141
0.000166276
0.00016749
0.000168828
0.000170198
0.000171749
0.000173218
0.000174893
0.000176568
0.000178304
0.000180009
0.000181895
0.000183626
0.000185306
0.00018686
0.000188499
0.000190132
0.00019175
0.000193324
0.00019494
0.000196389
0.000197683
0.000198851
0.000199892
0.000200825
0.000201519
0.000202193
0.000202888
0.000203356
0.000203536
0.000203636
0.000203558
0.00020333
0.000202984
0.000202518
0.000201924
0.000201196
0.000200299
0.000199234
0.000198031
0.000196705
0.000195255
0.000193676
0.000191968
0.0001901
0.000188074
0.000185904
0.00018361
0.000181189
0.000178647
0.000175967
0.000173134
0.000170159
0.000167046
0.000163809
0.000160408
0.000156805
0.000153062
0.000149237
0.000145358
0.000141446
0.000137511
0.00013355
0.000129565
0.000125534
0.000121455
0.000117342
0.000113194
0.000109008
0.00010479
0.000100547
9.62758e-05
9.19579e-05
8.75704e-05
8.30847e-05
7.85031e-05
7.38524e-05
6.91838e-05
6.45669e-05
6.00886e-05
5.57853e-05
5.15449e-05
4.73281e-05
4.31462e-05
3.90818e-05
3.52304e-05
3.15625e-05
2.80001e-05
2.45976e-05
2.13579e-05
1.83542e-05
1.56395e-05
1.31541e-05
1.09264e-05
8.97502e-06
7.2967e-06
5.91783e-06
4.90688e-06
4.41682e-06
4.41123e-06
4.82022e-06
5.75255e-06
7.50226e-06
9.99073e-06
1.28523e-05
1.54131e-05
1.74557e-05
1.89493e-05
2.00235e-05
2.02528e-05
2.06775e-05
2.32809e-05
3.18588e-05
4.93888e-05
8.04655e-05
0.00012621
0.000180805
0.000214957
0.000208602
0.000207657
0.000207368
0.000207925
0.000208606
0.000209383
0.000209974
0.000210953
0.000212205
0.000213678
0.000215026
0.00021632
0.000217787
0.000219422
0.000221178
0.000223059
0.000224971
0.000227042
0.000229189
0.000231433
0.000233737
0.000236158
0.00023847
0.000240747
0.000242978
0.000245272
0.000247592
0.000249926
0.000252243
0.00025457
0.0002568
0.000258883
0.00026084
0.000262682
0.000264419
0.00026599
0.000267489
0.000268948
0.000270249
0.000271324
0.000272225
0.000272922
0.000273451
0.000273852
0.000274126
0.000274257
0.000274232
0.000274
0.000273558
0.000272945
0.000272178
0.000271263
0.000270196
0.000268973
0.000267546
0.000265916
0.000264104
0.000262133
0.000260006
0.000257723
0.000255259
0.000252592
0.00024974
0.000246709
0.000243484
0.000239989
0.00023619
0.000232174
0.000228035
0.000223821
0.000219565
0.000215287
0.000210987
0.000206666
0.00020229
0.000197859
0.000193395
0.000188894
0.000184346
0.000179757
0.000175135
0.00017047
0.000165749
0.000160949
0.000156025
0.000150967
0.000145756
0.000140381
0.000134814
0.000129047
0.000123087
0.000116877
0.000110451
0.000103861
9.72256e-05
9.05513e-05
8.38147e-05
7.69624e-05
7.00883e-05
6.3191e-05
5.64369e-05
5.00065e-05
4.3748e-05
3.77736e-05
3.22008e-05
2.71306e-05
2.25973e-05
1.91048e-05
1.73473e-05
1.72976e-05
1.87031e-05
2.18674e-05
2.72869e-05
3.44077e-05
4.19525e-05
4.8234e-05
5.30422e-05
5.6719e-05
5.99606e-05
6.16407e-05
6.3829e-05
7.11823e-05
9.04949e-05
0.000123681
0.000171897
0.000233458
0.00028181
0.000304863
0.00025089
0.000249308
0.000248655
0.000249104
0.000249698
0.000250419
0.000250894
0.000251883
0.00025324
0.000254886
0.000256411
0.000257819
0.000259505
0.000261406
0.000263502
0.000265694
0.000268003
0.000270459
0.000273055
0.000275788
0.000278652
0.00028161
0.000284486
0.000287347
0.000290219
0.000293162
0.000296164
0.000299211
0.000302272
0.000305339
0.000308363
0.000311246
0.000314009
0.000316672
0.000319245
0.0003217
0.000324064
0.000326366
0.000328563
0.000330575
0.000332354
0.000333913
0.000335298
0.000336555
0.000337692
0.000338684
0.000339511
0.000340101
0.000340454
0.00034061
0.000340593
0.000340411
0.000340065
0.000339546
0.000338786
0.000337782
0.000336563
0.000335157
0.000333569
0.000331797
0.000329799
0.000327546
0.00032506
0.00032235
0.000319365
0.000315977
0.00031215
0.00030801
0.000303689
0.000299267
0.000294793
0.000290301
0.000285799
0.000281286
0.00027672
0.000272102
0.000267466
0.000262808
0.000258113
0.00025339
0.000248647
0.000243867
0.000239046
0.000234166
0.000229177
0.000224073
0.000218825
0.000213408
0.000207774
0.000201896
0.000195774
0.000189321
0.000182515
0.000175295
0.000167676
0.000159618
0.000151184
0.000142399
0.000133373
0.000124057
0.00011456
0.000104967
9.52571e-05
8.54902e-05
7.58605e-05
6.6605e-05
5.7766e-05
5.05203e-05
4.66519e-05
4.64739e-05
4.94312e-05
5.57928e-05
6.56944e-05
7.789e-05
8.99452e-05
9.94395e-05
0.000106493
0.000112237
0.000118174
0.000122441
0.000127584
0.000140105
0.00016781
0.00021086
0.000270304
0.00033345
0.00036836
0.000383721
0.000288036
0.000285643
0.000284583
0.000284929
0.00028536
0.000285969
0.000286233
0.000287217
0.000288652
0.000290446
0.000292083
0.000293558
0.000295441
0.000297583
0.000299983
0.00030247
0.000305142
0.000307977
0.000311003
0.000314209
0.000317604
0.000321102
0.000324519
0.000327949
0.000331432
0.000335012
0.000338685
0.00034244
0.000346236
0.000350057
0.000353871
0.000357548
0.000361113
0.000364597
0.000368009
0.000371332
0.00037457
0.000377751
0.000380864
0.000383814
0.000386494
0.000388947
0.000391227
0.00039339
0.000395447
0.000397367
0.000399122
0.000400621
0.000401862
0.000402895
0.000403745
0.000404425
0.000404939
0.000405278
0.000405347
0.00040514
0.000404698
0.000404051
0.000403209
0.000402163
0.000400856
0.000399242
0.000397353
0.000395196
0.00039267
0.000389579
0.00038588
0.000381739
0.000377339
0.000372794
0.000368177
0.000363538
0.000358896
0.000354251
0.000349547
0.00034479
0.000340028
0.000335259
0.00033046
0.000325645
0.000320824
0.000315972
0.000311093
0.000306171
0.000301157
0.000296052
0.000290819
0.000285431
0.000279821
0.000273966
0.000267879
0.000261471
0.000254718
0.000247523
0.000239865
0.000231629
0.000222794
0.000213258
0.000203107
0.000192382
0.00018128
0.000169857
0.000158124
0.000146127
0.000133823
0.000121446
0.000109136
9.85509e-05
9.26413e-05
9.22247e-05
9.64081e-05
0.000105185
0.000118023
0.000133336
0.000147953
0.000159154
0.000167377
0.000174654
0.00018331
0.000190672
0.00019936
0.000216967
0.000251317
0.000303041
0.000371171
0.000423242
0.000447371
0.000457292
0.000322582
0.000320002
0.000319528
0.000319166
0.000319069
0.000318609
0.000319205
0.000320411
0.00032206
0.00032356
0.000325024
0.000327091
0.000329452
0.000332131
0.000334888
0.000337896
0.000341095
0.000344538
0.000348204
0.000352111
0.000356145
0.000360078
0.00036406
0.000368132
0.000372341
0.000376678
0.000381137
0.000385661
0.000390239
0.000394843
0.000399303
0.000403664
0.000407966
0.000412217
0.0004164
0.000420514
0.000424591
0.000428632
0.000432525
0.000436115
0.000439476
0.000442672
0.000445771
0.000448781
0.000451669
0.0004544
0.000456855
0.000459041
0.000461018
0.00046281
0.000464436
0.000465904
0.000467207
0.000468217
0.000468931
0.000469399
0.000469659
0.000469722
0.000469578
0.000469147
0.000468367
0.000467279
0.000465889
0.000464034
0.000461426
0.00045801
0.000454004
0.00044964
0.000445072
0.0004404
0.000435696
0.00043099
0.000426285
0.000421502
0.000416661
0.000411827
0.000406994
0.000402134
0.000397269
0.000392407
0.000387512
0.0003826
0.000377656
0.000372626
0.000367525
0.000362308
0.000356945
0.000351345
0.000345496
0.000339429
0.000333055
0.000326365
0.000319252
0.000311693
0.000303555
0.000294799
0.000285256
0.000274922
0.000263684
0.000251626
0.00023885
0.000225587
0.000211998
0.000197975
0.000183633
0.000169166
0.000156416
0.000149006
0.000148224
0.000152939
0.000162813
0.000176776
0.000193501
0.000209413
0.000221538
0.000230359
0.000238962
0.000250609
0.000261719
0.00027475
0.000298099
0.000340144
0.000402481
0.000466106
0.000506775
0.000522415
0.00052899
0.000380079
0.000373071
0.000367706
0.000362962
0.000359079
0.000355802
0.000354476
0.000354415
0.000355031
0.00035562
0.000356395
0.000358097
0.000360215
0.000362745
0.000365386
0.000368379
0.000371635
0.000375205
0.000379068
0.00038324
0.00038762
0.00039203
0.000396545
0.000401189
0.00040602
0.000411014
0.000416173
0.00042142
0.000426753
0.000432145
0.000437377
0.000442526
0.000447641
0.000452732
0.000457773
0.000462766
0.00046775
0.000472732
0.000477574
0.000482078
0.000486355
0.000490484
0.000494539
0.00049853
0.000502415
0.000506155
0.000509599
0.000512766
0.000515733
0.000518522
0.000521154
0.000523644
0.000525987
0.000528016
0.000529736
0.000531211
0.000532485
0.000533573
0.000534463
0.000535051
0.000535256
0.000535133
0.000534687
0.000533679
0.000531712
0.000528714
0.000524961
0.000520743
0.000516252
0.000511619
0.000506936
0.000502249
0.000497564
0.000492774
0.000487914
0.000483071
0.000478234
0.000473369
0.000468508
0.000463657
0.000458767
0.000453866
0.000448936
0.000443918
0.000438848
0.000433663
0.000428339
0.000422746
0.000416891
0.000410824
0.000404458
0.000397802
0.000390745
0.000383273
0.00037525
0.000366654
0.000357289
0.000347143
0.000336026
0.000323927
0.000310754
0.000296563
0.000281541
0.000265863
0.000249765
0.00023346
0.000218937
0.000210289
0.000208998
0.000213791
0.000224045
0.000238318
0.000255803
0.000272601
0.000285407
0.000294701
0.000304777
0.000319976
0.000335692
0.000354204
0.000385209
0.000437051
0.000502088
0.000556614
0.000586566
0.000595861
0.000601586
0.000460447
0.000449394
0.00043976
0.00043094
0.00042307
0.000415971
0.000410095
0.000405272
0.000401305
0.000398079
0.000395921
0.000395528
0.0003961
0.000397377
0.000398987
0.000401195
0.000403859
0.000406989
0.000410553
0.000414549
0.000418863
0.000423332
0.000428003
0.000432872
0.000438004
0.000443357
0.000448934
0.00045463
0.000460458
0.000466391
0.000472296
0.00047822
0.000484142
0.000490073
0.000495971
0.000501844
0.000507745
0.000513679
0.000519481
0.000524893
0.000530091
0.000535167
0.000540198
0.000545194
0.000550102
0.000554883
0.000559339
0.000563515
0.000567508
0.000571337
0.000575023
0.000578588
0.000582032
0.000585138
0.000587927
0.000590481
0.000592851
0.000595057
0.000597083
0.000598798
0.0006001
0.000601069
0.000601706
0.000601683
0.000600473
0.000597991
0.000594586
0.000590602
0.000586274
0.000581761
0.00057718
0.000572591
0.000568004
0.000563271
0.000558454
0.000553667
0.00054889
0.000544077
0.000539279
0.000534498
0.000529665
0.000524829
0.00051996
0.000514997
0.000509997
0.000504877
0.000499623
0.000494047
0.000488194
0.000482124
0.000475756
0.000469116
0.000462093
0.000454681
0.00044675
0.0004383
0.000429126
0.000419241
0.000408416
0.000396637
0.000383708
0.000369593
0.00035429
0.000337734
0.000320149
0.000301879
0.000285384
0.000275351
0.000273361
0.000278031
0.000288411
0.000302677
0.000320678
0.000338196
0.000351527
0.000361136
0.000372878
0.000392339
0.000413897
0.000439499
0.000480393
0.000540751
0.000599105
0.000644092
0.000664496
0.000669778
0.000677796
0.000562014
0.000547223
0.000533818
0.000521335
0.000509821
0.000499263
0.000489523
0.000480684
0.000472593
0.000465336
0.000458923
0.00045384
0.000449844
0.000446936
0.000445056
0.000444469
0.000444929
0.000446273
0.000448425
0.000451306
0.000454729
0.000458505
0.000462658
0.000467156
0.000472054
0.000477283
0.000482831
0.000488563
0.000494495
0.000500604
0.000506808
0.000513141
0.00051953
0.000525972
0.000532413
0.000538868
0.000545397
0.000552012
0.000558571
0.000564872
0.000570992
0.000577024
0.000583052
0.000589076
0.000595032
0.000600882
0.000606367
0.000611571
0.000616623
0.00062153
0.000626312
0.000631
0.000635601
0.00063983
0.000643737
0.00064743
0.000650964
0.000654361
0.000657609
0.000660536
0.000663024
0.000665183
0.000667018
0.000668083
0.000667706
0.000665799
0.000662802
0.000659118
0.000655019
0.000650694
0.000646284
0.000641862
0.000637441
0.00063282
0.000628101
0.000623433
0.000618774
0.000614067
0.000609391
0.000604737
0.000600016
0.000595302
0.000590547
0.000585688
0.000580808
0.000575796
0.000570657
0.000565118
0.000559286
0.000553229
0.000546868
0.000540244
0.000533247
0.000525879
0.000518016
0.000509684
0.000500669
0.000491028
0.000480495
0.000469097
0.000456567
0.000442862
0.000427889
0.000411441
0.000393683
0.000374634
0.000356507
0.000345038
0.000342188
0.000346642
0.000357031
0.000371049
0.0003893
0.000407288
0.000420874
0.000430486
0.000444003
0.00046851
0.000497415
0.000532084
0.000584844
0.000644409
0.000694101
0.000729544
0.000742119
0.000746283
0.000760496
0.000681704
0.00066339
0.000646547
0.000630719
0.000615935
0.000602286
0.000589252
0.00057704
0.000565505
0.000554858
0.000544955
0.00053612
0.000528282
0.000521332
0.000515097
0.000509849
0.000505725
0.000502911
0.000501544
0.000501521
0.000502503
0.000504227
0.000506669
0.00050976
0.000513503
0.000517795
0.000522573
0.000527661
0.000533068
0.000538778
0.00054473
0.000550944
0.00055731
0.000563797
0.000570343
0.000576965
0.000583733
0.000590665
0.000597613
0.000604405
0.000611073
0.000617712
0.000624406
0.000631141
0.000637831
0.000644446
0.000650855
0.000657099
0.000663239
0.000669259
0.000675176
0.000681031
0.000686844
0.000692231
0.000697298
0.000702182
0.000706941
0.000711598
0.000716142
0.000720355
0.000724097
0.000727531
0.000730659
0.000732895
0.000733387
0.000732077
0.000729517
0.000726176
0.000722353
0.000718269
0.000714087
0.000709891
0.0007057
0.000701235
0.000696662
0.00069217
0.000687683
0.000683133
0.000678638
0.000674172
0.000669614
0.000665085
0.000660501
0.000655799
0.000651101
0.000646247
0.000641281
0.000635806
0.000630029
0.000624016
0.000617688
0.0006111
0.000604143
0.00059682
0.000589017
0.000580784
0.000571894
0.00056246
0.00055217
0.000541121
0.000528965
0.000515702
0.000501175
0.000485089
0.000467658
0.00044864
0.0004304
0.00041835
0.000415343
0.000420293
0.000431153
0.000445326
0.000463596
0.000481661
0.000495145
0.0005043
0.000519588
0.000550051
0.000588208
0.000634495
0.000696249
0.000748854
0.000788842
0.000814462
0.000821486
0.000828143
0.000853326
0.000795009
0.000774901
0.000755891
0.000738111
0.000721637
0.000705688
0.000690514
0.00067603
0.000662491
0.00064968
0.000637869
0.000627032
0.000616957
0.000607327
0.000598398
0.000590346
0.000583345
0.000577592
0.000573186
0.000569993
0.000567936
0.000567072
0.000567351
0.000568685
0.00057094
0.000573938
0.00057745
0.000581465
0.00058598
0.00059093
0.000596307
0.000601981
0.000607865
0.000613903
0.000620115
0.000626576
0.000633322
0.000640157
0.000646929
0.000653656
0.000660442
0.000667375
0.000674414
0.000681444
0.00068844
0.000695365
0.000702248
0.000709096
0.000715861
0.000722559
0.00072924
0.000735938
0.000742414
0.000748672
0.000754796
0.000760836
0.000766817
0.00077273
0.000778292
0.000783345
0.000788127
0.000792638
0.000796111
0.00079747
0.000796734
0.000794614
0.000791635
0.00078812
0.000784317
0.000780412
0.000776497
0.000772593
0.000768314
0.000763927
0.000759671
0.00075541
0.000751064
0.000746811
0.000742594
0.000738252
0.000733978
0.000729628
0.000725142
0.000720699
0.000716062
0.000711341
0.000706216
0.000700793
0.000695116
0.000689105
0.000682817
0.000676145
0.0006691
0.000661575
0.000653633
0.000645065
0.000636
0.00062615
0.000615619
0.000604094
0.00059156
0.000577867
0.000562702
0.000546212
0.000528096
0.000510526
0.000498531
0.00049585
0.00050179
0.000513767
0.0005286
0.000546571
0.000564042
0.000576742
0.000584607
0.000601455
0.000638736
0.000688347
0.00074964
0.000813399
0.000855241
0.000884352
0.000900583
0.000904829
0.000918445
0.000960351
0.000940079
0.00091677
0.00089463
0.000874008
0.000854867
0.000836209
0.000818278
0.000801148
0.000785026
0.000769667
0.000755377
0.000742106
0.000729551
0.000717208
0.000705436
0.000694411
0.000684281
0.000675194
0.000667204
0.000660045
0.000653708
0.000648521
0.000644756
0.000642463
0.000641559
0.000641749
0.000642723
0.000644451
0.000646949
0.000650129
0.00065393
0.000658209
0.000662788
0.00066764
0.000672783
0.000678303
0.000684272
0.000690393
0.000696527
0.000702711
0.000709072
0.000715708
0.000722537
0.000729396
0.000736279
0.000743223
0.000750263
0.000757358
0.000764419
0.000771467
0.000778566
0.000785757
0.000792886
0.000799906
0.000806858
0.000813787
0.000820713
0.000827629
0.000834356
0.000840758
0.000846955
0.000852937
0.000857698
0.000859878
0.000859642
0.000857932
0.000855315
0.000852123
0.000848631
0.000845046
0.000841461
0.0008379
0.000834096
0.000830232
0.000826538
0.000822849
0.000819078
0.000815417
0.000811796
0.000808042
0.000804359
0.000800591
0.000796674
0.00079279
0.000788692
0.00078449
0.000779936
0.000775064
0.000769903
0.000764367
0.000758513
0.000752238
0.000745565
0.000738393
0.0007308
0.000722608
0.000713944
0.000704587
0.000694622
0.000683824
0.000672149
0.000659485
0.000645545
0.000630379
0.000613723
0.000597408
0.000586171
0.000584338
0.00059169
0.000605817
0.000622438
0.000640195
0.000656165
0.000667059
0.00067235
0.000690261
0.000735086
0.000798663
0.000876756
0.000934564
0.000963671
0.000981118
0.000989376
0.000994392
0.00102036
0.00108589
0.00110392
0.00107593
0.00104927
0.00102436
0.00100118
0.000979252
0.000958597
0.000938981
0.000920442
0.00090273
0.000886259
0.000870906
0.000856277
0.000841605
0.000827494
0.000814101
0.000801571
0.000790021
0.000779465
0.000769394
0.000759725
0.000750863
0.000743169
0.000736841
0.000732047
0.000728562
0.000726104
0.000724717
0.000724463
0.000725212
0.00072684
0.000729163
0.00073187
0.00073498
0.000738507
0.000742556
0.000747257
0.000752127
0.000757051
0.000762113
0.000767485
0.000773285
0.000779367
0.000785502
0.000791718
0.000798132
0.000804791
0.000811606
0.000818438
0.000825323
0.000832351
0.000839565
0.000846856
0.000854145
0.000861454
0.000868822
0.000876263
0.000883767
0.000891214
0.000898494
0.000905661
0.000912693
0.000918461
0.000921442
0.000921878
0.00092084
0.000918899
0.000916383
0.000913575
0.000910687
0.000907813
0.000904981
0.000902004
0.000899013
0.000896206
0.000893419
0.000890556
0.000887788
0.000885046
0.000882167
0.00087932
0.000876369
0.000873245
0.000870094
0.000866705
0.00086315
0.00085925
0.000854982
0.000850369
0.000845317
0.000839884
0.00083397
0.000827622
0.000820739
0.000813418
0.00080552
0.000797165
0.000788215
0.000778732
0.000768598
0.000757745
0.000746115
0.000733468
0.00071978
0.000704866
0.000690226
0.000680346
0.000679884
0.000689097
0.000706363
0.00072652
0.000745553
0.000759365
0.000767098
0.000767957
0.000786064
0.00083888
0.000919494
0.00101006
0.00105856
0.00107404
0.00107958
0.00108227
0.00109248
0.00113693
0.00123374
0.00129418
0.00126058
0.00122844
0.00119826
0.00117008
0.00114363
0.00111886
0.00109541
0.00107308
0.0010517
0.00103174
0.00101307
0.000995565
0.000978692
0.000962528
0.000947119
0.000932627
0.000919152
0.000906699
0.000894447
0.000882266
0.000870698
0.000860082
0.000850573
0.000842352
0.000835152
0.000828743
0.000823531
0.000819777
0.000817417
0.000816307
0.00081618
0.000816533
0.00081746
0.000818968
0.000821187
0.000824335
0.000827593
0.000830905
0.00083443
0.000838413
0.000842999
0.000847937
0.000852894
0.000857974
0.000863388
0.000869198
0.00087525
0.000881345
0.000887554
0.000894011
0.000900759
0.0009077
0.000914736
0.000921887
0.000929196
0.000936676
0.000944302
0.000951984
0.000959641
0.000967296
0.000974926
0.000981399
0.000985175
0.000986495
0.000986431
0.00098551
0.000984038
0.000982283
0.000980447
0.000978625
0.000976852
0.000975002
0.000973162
0.00097148
0.000969817
0.000968077
0.000966376
0.00096466
0.00096279
0.000960876
0.000958821
0.00095655
0.000954159
0.000951488
0.000948561
0.000945263
0.000941522
0.000937362
0.000932686
0.000927554
0.00092187
0.000915703
0.000908959
0.000901752
0.000893983
0.000885772
0.000877056
0.00086789
0.000858255
0.000848075
0.000837348
0.000825894
0.000813651
0.000800526
0.000787758
0.000779656
0.000780868
0.000792232
0.000813155
0.000838379
0.000861493
0.000874685
0.00087779
0.00087161
0.000888575
0.000949324
0.00105119
0.00114577
0.00118479
0.00118624
0.00118026
0.00118073
0.00120145
0.001271
0.00140241
0.00164412
0.00151382
0.00147409
0.00143593
0.00139998
0.00136629
0.00133469
0.00130508
0.00127706
0.00125011
0.00122423
0.00119995
0.00117713
0.00115573
0.00113538
0.0011159
0.00109724
0.00107961
0.0010631
0.00104773
0.0010331
0.00101884
0.00100519
0.000992434
0.000980675
0.000970043
0.000960063
0.000950259
0.000941359
0.000933808
0.00092776
0.000923279
0.000920068
0.000917442
0.000915651
0.00091469
0.000914731
0.000916145
0.000917506
0.000918905
0.00092061
0.000922967
0.00092616
0.000929747
0.000933243
0.000936887
0.000941013
0.000945688
0.000950662
0.000955649
0.000960792
0.000966289
0.000972176
0.000978339
0.000984662
0.000991188
0.000997971
0.00100503
0.00101232
0.00101976
0.00102729
0.00103494
0.0010427
0.00104955
0.00105409
0.00105649
0.00105765
0.00105803
0.00105789
0.00105745
0.0010569
0.00105634
0.00105581
0.00105525
0.00105468
0.00105421
0.00105374
0.00105317
0.00105255
0.00105186
0.00105097
0.00104995
0.00104873
0.00104723
0.00104551
0.00104345
0.00104104
0.0010382
0.00103483
0.00103097
0.0010265
0.0010215
0.00101588
0.00100971
0.00100293
0.000995652
0.000987821
0.000979563
0.000970879
0.000961829
0.00095248
0.000942766
0.000932737
0.000922277
0.000911322
0.000899867
0.000888966
0.000882814
0.000885735
0.000899293
0.0009238
0.000954732
0.000983792
0.00100132
0.000999901
0.000983646
0.000997296
0.00106514
0.00119105
0.00128238
0.00131317
0.00129998
0.00128404
0.00128624
0.00132356
0.00142679
0.00160821
0.00193064
0.00171684
0.00167235
0.00163039
0.00159101
0.00155404
0.00151934
0.00148651
0.00145456
0.0014238
0.00139483
0.00136748
0.00134174
0.00131728
0.00129378
0.00127113
0.00124963
0.00122937
0.00121035
0.00119239
0.00117492
0.00115814
0.00114231
0.00112747
0.00111374
0.00110083
0.00108842
0.00107676
0.00106618
0.00105684
0.00104894
0.00104221
0.00103585
0.00103058
0.00102644
0.00102372
0.00102316
0.00102217
0.00102125
0.0010208
0.00102132
0.00102302
0.00102515
0.00102697
0.00102898
0.00103168
0.00103512
0.00103887
0.00104253
0.00104639
0.00105071
0.00105551
0.00106063
0.00106593
0.00107149
0.00107741
0.0010837
0.00109028
0.00109708
0.00110407
0.00111129
0.00111874
0.00112564
0.00113086
0.00113441
0.00113691
0.0011387
0.00113997
0.00114092
0.00114171
0.00114244
0.00114317
0.00114386
0.00114453
0.00114522
0.00114586
0.00114636
0.00114672
0.00114691
0.00114688
0.00114661
0.00114607
0.00114521
0.001144
0.0011424
0.00114034
0.00113779
0.00113463
0.00113088
0.00112646
0.00112142
0.00111568
0.00110936
0.00110236
0.00109484
0.00108677
0.00107828
0.00106943
0.00106029
0.001051
0.00104152
0.00103195
0.00102224
0.00101235
0.00100235
0.000993161
0.000988908
0.000993373
0.00100886
0.00103645
0.00107246
0.00110796
0.00113335
0.00113388
0.0011046
0.00111158
0.00118472
0.00133173
0.00141891
0.0014431
0.00141568
0.00139224
0.00140026
0.00146026
0.00160528
0.00185406
0.00225496
0.00198798
0.00193683
0.00188871
0.00184359
0.00180125
0.0017614
0.00172383
0.00168675
0.00165101
0.00161731
0.00158541
0.00155527
0.00152657
0.00149882
0.00147189
0.00144622
0.00142191
0.00139893
0.00137721
0.00135594
0.00133542
0.00131592
0.00129746
0.00128014
0.00126371
0.00124791
0.00123284
0.00121878
0.00120581
0.00119406
0.00118333
0.00117324
0.00116409
0.00115608
0.00114981
0.00114685
0.00114268
0.00113871
0.00113549
0.00113377
0.00113383
0.00113431
0.00113412
0.00113426
0.00113543
0.00113759
0.00114006
0.00114224
0.00114469
0.00114774
0.00115137
0.00115532
0.00115942
0.00116384
0.0011687
0.00117402
0.00117967
0.00118556
0.00119172
0.00119821
0.00120504
0.0012117
0.00121739
0.00122197
0.00122571
0.00122881
0.00123137
0.00123358
0.00123557
0.00123745
0.00123929
0.00124108
0.00124281
0.00124449
0.00124607
0.00124746
0.00124862
0.00124953
0.00125016
0.00125046
0.00125044
0.00125003
0.00124919
0.00124787
0.00124602
0.00124361
0.00124048
0.0012367
0.00123217
0.00122695
0.00122096
0.00121433
0.00120698
0.00119907
0.00119059
0.00118171
0.0011725
0.00116308
0.00115364
0.00114417
0.0011348
0.00112557
0.00111647
0.00110765
0.00109995
0.00109738
0.0011031
0.00112003
0.00114992
0.00118993
0.0012313
0.00126499
0.00127467
0.00123525
0.00123066
0.00130664
0.00146919
0.00155435
0.00157375
0.00153399
0.00150606
0.00152386
0.00161168
0.00180235
0.00213287
0.00258856
0.00229702
0.00223746
0.00218141
0.00212881
0.00207938
0.00203263
0.00198827
0.00194581
0.00190508
0.00186675
0.00183046
0.00179606
0.00176328
0.00173134
0.00170012
0.00167032
0.001642
0.00161508
0.00158962
0.00156434
0.00153987
0.00151651
0.00149425
0.00147313
0.00145294
0.00143336
0.00141454
0.00139669
0.00137988
0.00136421
0.00134937
0.00133526
0.00132204
0.00130985
0.00129899
0.00129015
0.00128153
0.00127341
0.00126644
0.00126175
0.00125977
0.00125817
0.00125529
0.00125309
0.00125251
0.00125331
0.00125438
0.0012548
0.0012557
0.00125742
0.00125984
0.00126257
0.00126533
0.00126851
0.00127222
0.00127649
0.00128109
0.00128593
0.00129109
0.00129667
0.00130269
0.00130887
0.00131475
0.00132005
0.00132472
0.00132881
0.00133236
0.00133553
0.00133845
0.00134122
0.00134393
0.00134659
0.00134916
0.00135162
0.00135393
0.00135599
0.00135774
0.00135918
0.00136028
0.00136098
0.0013613
0.00136119
0.00136056
0.0013594
0.00135762
0.00135522
0.001352
0.00134807
0.0013433
0.00133779
0.00133145
0.0013244