/*--------------------------------*- C++ -*----------------------------------*\
  =========                 |
  \\      /  F ield         | OpenFOAM: The Open Source CFD Toolbox
   \\    /   O peration     | Website:  https://openfoam.org
    \\  /    A nd           | Version:  10
     \\/     M anipulation  |
\*---------------------------------------------------------------------------*/
FoamFile
{
    format      ascii;
    class       volScalarField;
    location    "0.002";
    object      nuTilda;
}
// * * * * * * * * * * * * * * * * * * * * * * * * * * * * * * * * * * * * * //

dimensions      [0 2 -1 0 0 0 0];

internalField   nonuniform List<scalar> 
8915
(
1.85974e-05
1.87704e-05
1.87764e-05
1.8857e-05
1.29808e-05
1.29658e-05
1.29715e-05
1.86195e-05
1.88547e-05
1.89423e-05
1.31497e-05
1.87098e-05
1.89325e-05
1.90126e-05
1.3301e-05
1.88571e-05
1.3388e-05
1.8847e-05
1.90554e-05
1.91304e-05
1.35821e-05
1.89359e-05
1.91318e-05
1.91993e-05
1.37786e-05
1.37902e-05
1.38329e-05
1.38735e-05
1.39036e-05
1.90713e-05
1.92453e-05
1.9263e-05
1.92757e-05
1.9291e-05
1.9347e-05
1.41069e-05
1.40787e-05
1.9205e-05
1.94093e-05
1.41063e-05
1.40676e-05
1.40484e-05
1.40247e-05
1.39972e-05
1.39656e-05
1.393e-05
1.389e-05
1.38448e-05
1.37944e-05
1.37394e-05
1.368e-05
1.3616e-05
1.35471e-05
1.34734e-05
1.33938e-05
1.3308e-05
1.32168e-05
1.31204e-05
1.30189e-05
1.29123e-05
1.27998e-05
1.26808e-05
1.25552e-05
1.24226e-05
1.22788e-05
1.21251e-05
1.19642e-05
1.17975e-05
1.1626e-05
1.14501e-05
1.127e-05
1.10855e-05
1.08963e-05
1.07021e-05
1.05022e-05
1.02957e-05
1.00771e-05
9.85361e-06
9.62691e-06
9.39935e-06
9.17477e-06
8.94499e-06
8.7128e-06
8.48072e-06
8.24607e-06
8.00992e-06
7.77925e-06
7.56552e-06
7.39398e-06
7.40846e-06
7.13526e-06
6.73104e-06
6.34334e-06
6.00619e-06
5.74102e-06
5.54641e-06
5.36257e-06
5.14926e-06
4.98393e-06
4.82442e-06
4.94207e-06
4.94355e-06
4.91047e-06
4.86366e-06
4.79282e-06
4.69443e-06
4.58509e-06
4.49901e-06
4.51109e-06
4.66684e-06
4.91834e-06
5.16544e-06
5.37174e-06
5.47851e-06
5.29073e-06
4.75075e-06
4.92938e-06
5.88845e-06
6.64904e-06
7.04621e-06
7.18001e-06
7.29701e-06
7.63978e-06
8.35491e-06
7.96007e-06
9.08926e-06
1.02432e-05
1.18786e-05
5.98522e-05
5.98914e-05
5.99473e-05
6.0131e-05
5.87976e-05
5.89109e-05
5.90522e-05
6.076e-05
6.10779e-05
6.13677e-05
6.00991e-05
6.17556e-05
6.20782e-05
6.23695e-05
6.11587e-05
6.28934e-05
6.17706e-05
6.35056e-05
6.3898e-05
6.42499e-05
6.31212e-05
6.48617e-05
6.52447e-05
6.55674e-05
6.44268e-05
6.46687e-05
6.49593e-05
6.52415e-05
6.55007e-05
6.71544e-05
6.74299e-05
6.76164e-05
6.77699e-05
6.7892e-05
6.79961e-05
6.66547e-05
6.6626e-05
6.80348e-05
6.8069e-05
6.65817e-05
6.64215e-05
6.62649e-05
6.60751e-05
6.5858e-05
6.56121e-05
6.53371e-05
6.50326e-05
6.46928e-05
6.43175e-05
6.39139e-05
6.34846e-05
6.3029e-05
6.25457e-05
6.20346e-05
6.1491e-05
6.09103e-05
6.03002e-05
5.96648e-05
5.90032e-05
5.83175e-05
5.76044e-05
5.68615e-05
5.60902e-05
5.52907e-05
5.44714e-05
5.36286e-05
5.27527e-05
5.18527e-05
5.09371e-05
5.00085e-05
4.90689e-05
4.81189e-05
4.71567e-05
4.61822e-05
4.5192e-05
4.41856e-05
4.31728e-05
4.21524e-05
4.11317e-05
4.01235e-05
3.91459e-05
3.82065e-05
3.72993e-05
3.64055e-05
3.55025e-05
3.45828e-05
3.36601e-05
3.27524e-05
3.18596e-05
3.10326e-05
3.01345e-05
2.91897e-05
2.8227e-05
2.72458e-05
2.62621e-05
2.52929e-05
2.43301e-05
2.33492e-05
2.23609e-05
2.13618e-05
2.03829e-05
1.94664e-05
1.85301e-05
1.76824e-05
1.68691e-05
1.60557e-05
1.5295e-05
1.46672e-05
1.44023e-05
1.46482e-05
1.51899e-05
1.5766e-05
1.65227e-05
1.77516e-05
1.88975e-05
1.98551e-05
2.06583e-05
2.12482e-05
2.15857e-05
2.15701e-05
2.15781e-05
2.21955e-05
2.41844e-05
2.77328e-05
3.27161e-05
4.01354e-05
5.02507e-05
6.07012e-05
0.000131209
0.000131162
0.000131268
0.000131649
0.000131498
0.000131876
0.000132214
0.000133234
0.000133827
0.00013445
0.000134444
0.000135491
0.000136103
0.000136737
0.000136832
0.000138052
0.000138218
0.000139479
0.000140264
0.000141044
0.000141263
0.000142582
0.000143356
0.000144072
0.000144191
0.000144831
0.000145484
0.000146119
0.000146716
0.000147832
0.000148371
0.000148794
0.000149145
0.000149421
0.000149636
0.000149207
0.000149237
0.00014981
0.000149778
0.000149045
0.000148761
0.000148408
0.000147979
0.000147488
0.000146932
0.00014631
0.00014562
0.00014485
0.000143998
0.000143081
0.000142105
0.000141067
0.000139965
0.000138798
0.000137557
0.000136242
0.000134859
0.000133418
0.000131917
0.00013036
0.000128739
0.00012705
0.000125295
0.000123475
0.000121612
0.000119698
0.000117706
0.000115658
0.000113572
0.000111456
0.000109312
0.000107144
0.000104947
0.000102721
0.000100459
9.81588e-05
9.58328e-05
9.34886e-05
9.11439e-05
8.88286e-05
8.65836e-05
8.44334e-05
8.23617e-05
8.03212e-05
7.82591e-05
7.6156e-05
7.40399e-05
7.19478e-05
6.98628e-05
6.7825e-05
6.58007e-05
6.375e-05
6.16639e-05
5.9536e-05
5.73989e-05
5.52897e-05
5.31912e-05
5.1051e-05
4.88885e-05
4.669e-05
4.44941e-05
4.23486e-05
4.0193e-05
3.80902e-05
3.6072e-05
3.40851e-05
3.22401e-05
3.06965e-05
2.98867e-05
2.99222e-05
3.06657e-05
3.21319e-05
3.44826e-05
3.7374e-05
4.01806e-05
4.23872e-05
4.40501e-05
4.514e-05
4.57189e-05
4.55944e-05
4.5605e-05
4.70642e-05
5.17598e-05
5.99004e-05
7.21792e-05
8.9955e-05
0.000111934
0.000134257
0.000171979
0.000171699
0.000171709
0.000172133
0.000172453
0.000172957
0.000173374
0.000174142
0.000174897
0.000175745
0.000176351
0.000177243
0.000178073
0.000178977
0.000179767
0.000180942
0.000181813
0.000183075
0.000184225
0.000185408
0.000186442
0.000187852
0.000189048
0.000190203
0.000191148
0.00019227
0.000193399
0.00019452
0.000195612
0.000196857
0.000197874
0.000198777
0.000199593
0.000200322
0.000200975
0.000201342
0.000201807
0.000202416
0.000202754
0.000202757
0.000202818
0.000202762
0.000202601
0.000202358
0.000202029
0.000201612
0.0002011
0.000200471
0.000199725
0.000198883
0.000197956
0.000196946
0.000195847
0.000194661
0.000193367
0.000191966
0.000190471
0.000188893
0.000187234
0.000185497
0.000183672
0.000181749
0.000179737
0.000177639
0.000175466
0.000173191
0.000170792
0.000168309
0.000165783
0.000163231
0.000160667
0.000158098
0.000155521
0.000152936
0.000150329
0.000147696
0.000145048
0.000142381
0.000139691
0.00013698
0.000134253
0.000131503
0.000128715
0.000125873
0.000122952
0.000119948
0.000116872
0.000113748
0.000110617
0.000107536
0.000104506
0.000101446
9.83206e-05
9.51228e-05
9.18996e-05
8.8716e-05
8.55396e-05
8.2286e-05
7.89831e-05
7.56113e-05
7.2228e-05
6.88897e-05
6.55204e-05
6.21535e-05
5.88294e-05
5.55736e-05
5.25047e-05
4.99322e-05
4.85527e-05
4.85357e-05
4.96939e-05
5.21033e-05
5.59942e-05
6.06086e-05
6.50838e-05
6.85952e-05
7.11557e-05
7.29215e-05
7.41443e-05
7.44015e-05
7.48724e-05
7.76457e-05
8.58038e-05
9.98584e-05
0.000121236
0.000150781
0.000186995
0.000210811
0.000206247
0.000205594
0.000205398
0.000205798
0.000206252
0.000206804
0.000207227
0.000207959
0.000208855
0.000209905
0.000210836
0.000211791
0.000212845
0.000214017
0.000215246
0.000216627
0.000217977
0.0002195
0.000221056
0.000222683
0.000224328
0.000226119
0.00022781
0.000229477
0.000231085
0.00023277
0.00023448
0.000236204
0.000237919
0.000239673
0.000241333
0.000242885
0.000244345
0.000245722
0.000247023
0.000248176
0.000249299
0.000250422
0.000251404
0.000252187
0.000252865
0.00025339
0.000253789
0.000254092
0.000254298
0.000254397
0.000254377
0.000254201
0.000253867
0.000253403
0.000252823
0.000252132
0.000251327
0.000250405
0.000249331
0.000248106
0.000246746
0.00024527
0.000243679
0.000241976
0.000240142
0.000238162
0.000236051
0.000233812
0.000231439
0.000228877
0.000226101
0.00022318
0.000220183
0.000217145
0.000214093
0.000211038
0.000207984
0.00020493
0.000201854
0.000198754
0.000195649
0.000192535
0.000189405
0.000186265
0.00018312
0.000179963
0.000176787
0.000173575
0.000170299
0.000166951
0.000163522
0.000160003
0.000156377
0.000152639
0.000148788
0.000144786
0.000140654
0.000136419
0.000132149
0.000127837
0.000123457
0.000118955
0.000114372
0.000109678
0.000104957
0.000100306
9.55828e-05
9.08294e-05
8.61019e-05
8.14619e-05
7.69321e-05
7.31015e-05
7.10255e-05
7.09643e-05
7.26348e-05
7.61564e-05
8.16071e-05
8.80108e-05
9.41803e-05
9.89891e-05
0.000102523
0.000105158
0.00010744
0.000108611
0.000110123
0.000115112
0.000127804
0.000149168
0.000180911
0.000224057
0.000260025
0.000277712
0.000236784
0.000235627
0.000235154
0.000235493
0.000235932
0.00023647
0.000236829
0.000237575
0.000238587
0.000239813
0.000240943
0.000242003
0.000243264
0.000244687
0.000246251
0.000247904
0.000249635
0.000251492
0.000253453
0.00025552
0.000257686
0.000259941
0.000262132
0.000264316
0.000266508
0.000268764
0.000271071
0.000273418
0.00027578
0.000278159
0.000280502
0.000282741
0.000284891
0.000286967
0.000288975
0.000290888
0.000292739
0.000294549
0.000296274
0.000297849
0.000299248
0.000300475
0.000301566
0.000302557
0.000303453
0.000304236
0.000304888
0.000305354
0.000305632
0.000305754
0.000305739
0.000305594
0.000305319
0.000304907
0.000304305
0.000303509
0.000302545
0.000301434
0.000300181
0.000298783
0.00029721
0.000295437
0.000293485
0.00029136
0.000289023
0.000286377
0.000283396
0.00028018
0.000276833
0.000273419
0.000269975
0.000266529
0.000263088
0.00025965
0.000256185
0.000252694
0.000249203
0.000245711
0.000242206
0.000238695
0.000235186
0.000231666
0.000228134
0.000224576
0.000220959
0.000217279
0.000213517
0.000209658
0.00020567
0.000201539
0.000197267
0.000192797
0.000188121
0.000183202
0.000178058
0.000172667
0.000167077
0.000161306
0.000155424
0.000149397
0.000143281
0.000137119
0.000130872
0.000124546
0.000118224
0.000112016
0.0001059
0.000100686
9.7803e-05
9.76673e-05
9.98798e-05
0.000104497
0.000111391
0.000119562
0.000127437
0.000133565
0.000138099
0.000141791
0.00014561
0.00014836
0.000151683
0.000159815
0.000178154
0.000207844
0.000251285
0.000299964
0.000327706
0.000340067
0.000264684
0.00026287
0.000262073
0.000262345
0.00026268
0.000263153
0.000263363
0.000264122
0.000265225
0.000266604
0.000267862
0.000269
0.000270452
0.000272104
0.000273955
0.00027588
0.000277948
0.000280148
0.000282501
0.000284997
0.000287643
0.00029038
0.000293057
0.000295749
0.000298486
0.000301308
0.000304207
0.000307178
0.000310187
0.000313222
0.000316257
0.000319187
0.000322033
0.000324819
0.000327551
0.000330214
0.000332814
0.000335373
0.000337879
0.000340255
0.000342417
0.000344397
0.000346239
0.000347989
0.000349653
0.000351208
0.00035263
0.000353844
0.00035485
0.000355687
0.000356375
0.000356925
0.00035734
0.000357613
0.000357667
0.000357496
0.000357134
0.000356605
0.000355917
0.000355065
0.000354
0.000352687
0.000351152
0.000349401
0.000347352
0.000344849
0.000341858
0.000338516
0.000334971
0.000331316
0.00032761
0.000323894
0.000320183
0.000316479
0.000312735
0.000308958
0.000305188
0.000301421
0.00029764
0.000293858
0.000290082
0.000286293
0.000282495
0.000278676
0.000274799
0.000270866
0.000266851
0.000262734
0.000258466
0.000254033
0.000249449
0.00024465
0.000239623
0.000234304
0.000228685
0.000222693
0.000216324
0.000209521
0.000202362
0.000194891
0.00018726
0.000179514
0.000171665
0.000163744
0.000155715
0.000147714
0.0001398
0.000132996
0.000129184
0.000128914
0.000131613
0.000137258
0.000145507
0.000155396
0.000164942
0.00017235
0.000177848
0.000182757
0.000188654
0.000193719
0.000199753
0.000212171
0.000237111
0.000276226
0.000329907
0.000372076
0.000391867
0.000400057
0.000291383
0.000289378
0.000289019
0.000288747
0.00028868
0.00028833
0.000288804
0.000289755
0.00029105
0.000292231
0.000293384
0.000295011
0.00029687
0.000298981
0.000301158
0.000303534
0.000306067
0.000308796
0.000311707
0.000314814
0.000318028
0.000321168
0.000324353
0.000327614
0.000330992
0.000334478
0.000338068
0.000341718
0.000345417
0.000349142
0.000352758
0.000356298
0.000359795
0.000363255
0.000366665
0.000370022
0.000373353
0.000376658
0.000379845
0.000382787
0.000385543
0.000388167
0.000390712
0.000393187
0.000395562
0.000397809
0.00039983
0.00040163
0.000403258
0.000404735
0.000406074
0.000407284
0.000408357
0.000409188
0.000409774
0.000410157
0.000410367
0.000410416
0.000410292
0.000409931
0.000409281
0.000408378
0.000407224
0.000405687
0.00040353
0.000400709
0.000397403
0.000393806
0.000390045
0.000386204
0.000382341
0.00037848
0.000374626
0.000370714
0.000366759
0.000362816
0.00035888
0.000354928
0.000350979
0.000347039
0.00034308
0.000339114
0.00033513
0.000331085
0.000326993
0.000322817
0.000318535
0.000314076
0.000309432
0.000304631
0.000299604
0.000294348
0.000288784
0.000282898
0.000276595
0.000269855
0.000262559
0.000254721
0.000246277
0.000237312
0.00022793
0.000218321
0.000208623
0.000198774
0.000188871
0.000179052
0.000170535
0.000165638
0.000165122
0.00016823
0.000174789
0.000184193
0.000195664
0.000206794
0.000215417
0.000221766
0.000228017
0.000236571
0.000244823
0.000254609
0.000272406
0.000305194
0.000355137
0.000407235
0.000440953
0.000454003
0.000459519
0.00033701
0.000331394
0.000327109
0.000323328
0.000320241
0.000317642
0.000316596
0.000316557
0.000317056
0.000317533
0.000318159
0.000319523
0.000321219
0.000323246
0.000325363
0.000327765
0.00033038
0.000333252
0.000336362
0.000339726
0.000343263
0.000346831
0.000350489
0.000354257
0.000358183
0.000362248
0.000366453
0.000370736
0.000375096
0.000379511
0.000383801
0.000388029
0.000392233
0.000396423
0.000400577
0.000404695
0.00040881
0.000412928
0.000416934
0.000420663
0.000424207
0.000427631
0.000430996
0.00043431
0.000437537
0.000440646
0.00044351
0.000446145
0.000448614
0.000450936
0.000453127
0.0004552
0.000457151
0.00045884
0.000460272
0.000461499
0.000462558
0.000463462
0.0004642
0.000464685
0.00046485
0.000464741
0.000464362
0.000463513
0.000461863
0.000459355
0.000456217
0.000452693
0.000448944
0.00044508
0.000441177
0.000437273
0.000433375
0.000429392
0.000425354
0.000421334
0.000417323
0.000413292
0.000409269
0.000405258
0.00040122
0.000397177
0.000393115
0.000388986
0.000384818
0.000380563
0.000376201
0.000371625
0.000366845
0.0003619
0.000356723
0.000351322
0.00034561
0.00033958
0.000333126
0.000326234
0.000318758
0.000310696
0.000301911
0.000292413
0.000282151
0.000271198
0.000259727
0.000247907
0.00023594
0.000224012
0.00021356
0.000207416
0.000206503
0.000209895
0.000217215
0.000227543
0.000240406
0.000252968
0.000262669
0.000269774
0.000277533
0.000289339
0.000301666
0.000316323
0.000341155
0.00038331
0.000437003
0.000482501
0.000507646
0.00051549
0.000520342
0.000402501
0.000393421
0.000385528
0.000378318
0.0003719
0.000366124
0.000361353
0.000357446
0.000354238
0.000351634
0.000349896
0.000349587
0.000350058
0.0003511
0.000352412
0.00035421
0.000356379
0.000358927
0.000361831
0.00036509
0.000368612
0.000372265
0.000376087
0.000380077
0.000384288
0.000388684
0.000393271
0.000397963
0.000402768
0.000407666
0.000412548
0.000417451
0.000422357
0.000427275
0.000432172
0.000437053
0.000441961
0.000446902
0.000451736
0.000456249
0.000460587
0.000464825
0.000469029
0.000473205
0.00047731
0.000481311
0.000485042
0.000488539
0.000491885
0.000495094
0.000498184
0.000501173
0.000504061
0.000506666
0.000509004
0.000511146
0.000513133
0.000514981
0.000516679
0.000518115
0.000519203
0.000520011
0.000520539
0.000520512
0.000519486
0.000517391
0.000514519
0.000511163
0.000507519
0.000503721
0.000499868
0.00049601
0.000492155
0.00048818
0.000484136
0.000480121
0.000476115
0.000472082
0.000468064
0.000464062
0.000460021
0.000455978
0.000451912
0.000447771
0.000443601
0.000439336
0.000434963
0.000430328
0.000425467
0.000420433
0.000415159
0.000409668
0.000403868
0.000397759
0.000391234
0.000384296
0.000376783
0.000368711
0.000359898
0.000350345
0.000339907
0.000328571
0.000316362
0.000303255
0.000289463
0.000275292
0.000262654
0.000255045
0.000253543
0.000257071
0.00026496
0.000275906
0.000289875
0.00030362
0.000314171
0.00032182
0.000331215
0.000346887
0.000364378
0.000385301
0.000418994
0.000469195
0.000518116
0.000556029
0.000573292
0.000577793
0.000584616
0.000486928
0.000474573
0.000463394
0.000453003
0.000443434
0.000434677
0.00042661
0.000419303
0.000412625
0.000406645
0.00040137
0.000397195
0.000393918
0.000391537
0.000390002
0.000389529
0.000389914
0.000391026
0.000392802
0.000395178
0.000398002
0.000401118
0.000404548
0.000408266
0.000412317
0.000416646
0.000421244
0.000425998
0.000430923
0.000436001
0.000441161
0.000446435
0.00045176
0.000457134
0.000462512
0.000467906
0.000473366
0.000478902
0.000484395
0.000489676
0.000494808
0.00049987
0.000504931
0.000509991
0.000514996
0.000519915
0.000524529
0.000528908
0.00053316
0.000537292
0.000541319
0.000545268
0.000549145
0.000552708
0.000556
0.000559113
0.000562091
0.000564954
0.00056769
0.000570156
0.00057225
0.000574067
0.000575609
0.0005765
0.000576172
0.000574552
0.00057201
0.000568889
0.000565418
0.000561757
0.000558025
0.000554284
0.000550545
0.000546639
0.000542652
0.000538708
0.000534774
0.000530801
0.000526855
0.00052293
0.00051895
0.000514977
0.000510972
0.000506881
0.000502775
0.000498561
0.000494242
0.000489592
0.000484698
0.000479621
0.000474293
0.000468751
0.000462902
0.000456751
0.000450194
0.000443256
0.000435761
0.000427758
0.000419033
0.000409612
0.000399282
0.000388019
0.00037576
0.000362353
0.000347957
0.000332617
0.000318131
0.000309029
0.000306774
0.000310297
0.000318547
0.000329742
0.000344418
0.000358981
0.000370039
0.000377891
0.000388971
0.000409148
0.000433081
0.000461941
0.000506108
0.000556245
0.000598244
0.000628291
0.000638995
0.000642569
0.000654677
0.000587667
0.000572217
0.000558023
0.000544698
0.000532267
0.000520802
0.000509866
0.000499632
0.000489977
0.000481075
0.000472806
0.000465438
0.000458909
0.000453126
0.000447943
0.000443586
0.000440166
0.000437835
0.000436708
0.000436698
0.000437521
0.000438962
0.000440998
0.000443577
0.000446698
0.000450279
0.000454266
0.000458514
0.000463032
0.000467806
0.000472785
0.000477987
0.00048332
0.000488758
0.000494249
0.000499807
0.000505491
0.000511317
0.000517159
0.000522875
0.000528488
0.000534079
0.000539719
0.000545397
0.000551039
0.00055662
0.00056203
0.000567302
0.000572487
0.000577572
0.000582572
0.000587521
0.000592435
0.000596989
0.000601274
0.000605404
0.000609428
0.000613366
0.000617209
0.000620772
0.000623935
0.000626837
0.00062948
0.000631366
0.000631774
0.000630652
0.000628472
0.00062563
0.00062238
0.000618908
0.000615355
0.000611791
0.00060823
0.000604439
0.000600557
0.000596745
0.000592938
0.000589079
0.000585266
0.000581479
0.000577616
0.000573778
0.000569896
0.000565914
0.000561937
0.000557831
0.000553631
0.000549004
0.000544125
0.00053905
0.000533712
0.000528159
0.000522299
0.000516136
0.000509575
0.000502658
0.000495197
0.00048729
0.000478674
0.000469437
0.00045929
0.00044824
0.000436165
0.000422829
0.000408424
0.000392767
0.000377819
0.000367983
0.000365533
0.000369567
0.000378434
0.000390047
0.000405077
0.000419997
0.000431169
0.000438772
0.000451494
0.000476925
0.000508909
0.000547862
0.000600025
0.0006446
0.000678561
0.000700369
0.000706388
0.000712095
0.000733572
0.000683703
0.000666656
0.00065055
0.000635496
0.000621557
0.000608071
0.00059525
0.000583021
0.000571599
0.000560799
0.00055085
0.000541729
0.000533257
0.000525164
0.000517667
0.000510911
0.000505042
0.000500224
0.000496537
0.000493868
0.000492152
0.000491436
0.000491678
0.000492804
0.000494701
0.000497222
0.000500175
0.000503551
0.000507348
0.000511512
0.000516036
0.000520812
0.000525766
0.000530854
0.000536088
0.000541536
0.000547226
0.000552994
0.000558711
0.000564392
0.000570124
0.000575983
0.000581935
0.00058788
0.000593799
0.000599658
0.000605485
0.000611283
0.000617012
0.000622686
0.000628346
0.000634022
0.00063951
0.000644815
0.000650006
0.000655126
0.000660197
0.000665211
0.000669926
0.00067421
0.000678263
0.000682086
0.000685027
0.000686172
0.000685535
0.000683722
0.00068118
0.000678182
0.00067494
0.000671612
0.000668275
0.000664949
0.000661304
0.000657569
0.000653944
0.000650316
0.000646617
0.000642997
0.000639408
0.000635714
0.000632077
0.000628378
0.000624564
0.000620788
0.000616849
0.000612838
0.000608488
0.000603886
0.000599072
0.000593977
0.00058865
0.000583001
0.00057704
0.000570677
0.000563966
0.000556731
0.000549082
0.000540778
0.000531908
0.000522211
0.000511677
0.000500186
0.000487479
0.000473687
0.000458569
0.000443942
0.000433979
0.000431755
0.000436684
0.000446639
0.000458992
0.000473993
0.000488608
0.000499252
0.000505855
0.000520013
0.000551409
0.000593315
0.000645236
0.000699379
0.000734975
0.000759779
0.000773647
0.000777317
0.000788967
0.000824741
0.000807113
0.000787287
0.000768462
0.000750934
0.000734672
0.000718826
0.000703603
0.000689067
0.000675392
0.000662371
0.000650262
0.000639023
0.000628394
0.000617951
0.000607995
0.000598677
0.000590119
0.000582447
0.000575706
0.000569669
0.000564327
0.000559958
0.000556789
0.000554863
0.000554109
0.000554276
0.000555105
0.00055657
0.000558685
0.000561375
0.00056459
0.000568208
0.000572081
0.000576186
0.000580536
0.000585208
0.00059026
0.000595442
0.000600636
0.000605874
0.000611262
0.000616885
0.000622673
0.000628488
0.000634324
0.000640213
0.000646184
0.000652205
0.000658197
0.000664178
0.000670204
0.000676309
0.000682362
0.000688323
0.000694227
0.000700112
0.000705994
0.000711869
0.000717583
0.000723021
0.000728285
0.000733364
0.000737406
0.00073925
0.000739037
0.00073757
0.000735331
0.000732602
0.000729618
0.000726555
0.000723492
0.00072045
0.000717201
0.000713902
0.000710747
0.000707597
0.000704377
0.000701251
0.000698159
0.000694955
0.000691812
0.000688596
0.000685255
0.000681942
0.000678448
0.000674866
0.000670986
0.000666838
0.000662445
0.000657736
0.000652758
0.000647424
0.000641757
0.000635667
0.000629224
0.000622277
0.000614933
0.000607007
0.000598572
0.000589437
0.000579568
0.000568873
0.000557112
0.000544331
0.000530311
0.000516597
0.000507162
0.000505625
0.000511797
0.000523667
0.000537651
0.000552611
0.000566081
0.00057528
0.000579755
0.000594903
0.000632865
0.000686825
0.000753246
0.000802492
0.000827321
0.000842231
0.000849326
0.000853662
0.000875865
0.000931863
0.000946839
0.000922988
0.000900269
0.000879043
0.000859306
0.000840633
0.00082305
0.000806356
0.000790582
0.000775516
0.00076151
0.00074846
0.000736028
0.000723562
0.000711577
0.000700206
0.00068957
0.000679771
0.000670818
0.00066228
0.000654084
0.000646575
0.000640059
0.000634702
0.000630647
0.000627701
0.000625625
0.000624458
0.00062425
0.000624891
0.000626277
0.000628253
0.000630553
0.000633195
0.000636191
0.000639629
0.000643621
0.000647756
0.000651938
0.000656237
0.000660799
0.000665726
0.000670893
0.000676105
0.000681386
0.000686836
0.000692496
0.000698289
0.000704096
0.000709949
0.000715924
0.000722058
0.000728258
0.000734456
0.000740672
0.000746938
0.000753267
0.00075965
0.000765984
0.000772176
0.000778272
0.000784253
0.000789157
0.000791686
0.000792045
0.000791147
0.00078948
0.000787323
0.000784917
0.000782443
0.00077998
0.000777554
0.000775004
0.000772442
0.000770037
0.000767648
0.000765196
0.000762823
0.000760474
0.000758007
0.000755569
0.000753042
0.000750367
0.000747671
0.000744772
0.000741732
0.000738399
0.000734754
0.000730816
0.000726505
0.000721872
0.000716832
0.000711424
0.000705563
0.000699331
0.000692612
0.000685508
0.000677901
0.000669845
0.000661241
0.000652031
0.000642167
0.000631448
0.000619855
0.000607233
0.000594853
0.000586503
0.000586114
0.000593903
0.000608508
0.000625574
0.000641702
0.000653413
0.000659976
0.000660712
0.000676091
0.000720984
0.000789614
0.000866835
0.000908231
0.000921472
0.000926241
0.000928599
0.000937378
0.000975398
0.00105818
0.00110935
0.00108067
0.00105324
0.0010275
0.00100347
0.000980902
0.000959783
0.000939786
0.000920751
0.000902527
0.000885518
0.000869614
0.000854698
0.000840328
0.000826564
0.000813445
0.000801109
0.000789643
0.000779048
0.000768626
0.000758265
0.000748429
0.000739404
0.000731323
0.000724338
0.000718223
0.000712781
0.000708357
0.000705173
0.000703174
0.000702237
0.000702135
0.000702442
0.000703237
0.000704524
0.000706416
0.000709097
0.000711872
0.000714693
0.000717694
0.000721085
0.000724989
0.000729193
0.000733413
0.000737737
0.000742345
0.000747291
0.000752444
0.000757632
0.000762918
0.000768415
0.00077416
0.00078007
0.00078606
0.000792149
0.000798371
0.000804741
0.000811234
0.000817775
0.000824295
0.000830813
0.000837309
0.000842818
0.000846027
0.000847139
0.000847071
0.000846272
0.000845003
0.000843491
0.000841911
0.000840343
0.000838815
0.000837223
0.000835638
0.000834188
0.000832754
0.000831254
0.000829787
0.000828308
0.000826697
0.000825049
0.000823281
0.000821329
0.000819274
0.000816981
0.00081447
0.000811643
0.00080844
0.00080488
0.000800881
0.000796495
0.000791639
0.000786374
0.000780619
0.000774471
0.000767847
0.000760849
0.000753423
0.000745617
0.000737415
0.000728752
0.000719628
0.00070989
0.000699487
0.000688341
0.000677503
0.000670627
0.000671659
0.000681307
0.00069908
0.000720518
0.000740173
0.000751397
0.000754043
0.000748792
0.000763243
0.000815004
0.000901893
0.000982659
0.00101602
0.00101729
0.00101223
0.00101269
0.00103046
0.00108997
0.00120241
0.00140932
0.00129711
0.00126319
0.0012306
0.0011999
0.00117114
0.00114415
0.00111888
0.00109496
0.00107196
0.00104987
0.00102915
0.00100967
0.000991422
0.000974058
0.000957443
0.00094153
0.000926495
0.00091242
0.000899315
0.000886845
0.000874687
0.000863056
0.000852188
0.00084217
0.000833115
0.000824615
0.000816267
0.000808689
0.000802261
0.000797115
0.000793304
0.000790575
0.000788345
0.000786825
0.000786012
0.000786052
0.000787262
0.000788427
0.000789623
0.000791079
0.000793091
0.000795815
0.000798874
0.000801855
0.000804962
0.000808479
0.000812465
0.000816705
0.000820956
0.00082534
0.000830025
0.000835042
0.000840295
0.000845684
0.000851244
0.000857025
0.000863042
0.000869251
0.000875589
0.000882011
0.000888532
0.000895138
0.000900974
0.00090484
0.000906874
0.000907853
0.000908164
0.000908024
0.000907632
0.00090715
0.000906657
0.000906192
0.00090569
0.000905191
0.000904774
0.000904354
0.000903849
0.000903306
0.000902693
0.000901921
0.000901028
0.000899968
0.000898676
0.000897187
0.000895413
0.000893334
0.000890895
0.000888006
0.000884691
0.000880866
0.000876585
0.000871771
0.000866501
0.000860702
0.000854485
0.000847796
0.000840746
0.000833335
0.000825614
0.00081764
0.000809358
0.00080081
0.000791899
0.00078257
0.000772819
0.000763543
0.00075831
0.000760799
0.000772342
0.000793211
0.000819563
0.00084433
0.00085927
0.000858068
0.000844218
0.000855873
0.000913775
0.00102131
0.00109938
0.00112573
0.00111449
0.00110092
0.00110287
0.00113485
0.0012232
0.00137849
0.00165461
0.00147083
0.00143281
0.00139696
0.00136332
0.00133174
0.00130209
0.00127405
0.00124675
0.00122048
0.00119574
0.00117238
0.0011504
0.00112951
0.00110944
0.0010901
0.00107174
0.00105444
0.00103821
0.00102288
0.00100797
0.00099365
0.000980135
0.000967476
0.000955762
0.00094475
0.000934164
0.000924214
0.000915197
0.000907227
0.000900496
0.000894759
0.000889341
0.000884843
0.000881323
0.000879007
0.000878528
0.000877695
0.000876914
0.000876532
0.000876975
0.000878435
0.000880249
0.000881805
0.000883525
0.000885831
0.000888761
0.000891965
0.00089509
0.000898379
0.000902064
0.000906159
0.000910525
0.000915042
0.000919789
0.000924835
0.0009302
0.000935812
0.000941606
0.000947568
0.000953726
0.000960077
0.00096596
0.000970401
0.000973419
0.000975541
0.000977056
0.000978126
0.00097892
0.00097958
0.000980188
0.000980792
0.000981366
0.000981918
0.000982486
0.000983014
0.000983422
0.00098371
0.000983861
0.000983814
0.00098356
0.000983085
0.000982325
0.000981276
0.000979887
0.000978108
0.000975915
0.000973194
0.000969977
0.000966181
0.000961863
0.000956948
0.000951532
0.000945543
0.000939112
0.000932207
0.00092495
0.000917385
0.000909578
0.000901647
0.000893556
0.000885386
0.0008771
0.000868662
0.000860134
0.000852306
0.000848684
0.000852495
0.000865699
0.000889236
0.000919959
0.000950257
0.000971934
0.000972386
0.000947401
0.000953382
0.00101587
0.00114153
0.00121611
0.00123683
0.00121343
0.00119344
0.00120037
0.00125177
0.00137592
0.00158893
0.00193235
0.00170284
0.00165912
0.001618
0.00157943
0.00154325
0.00150919
0.00147709
0.00144539
0.00141485
0.00138605
0.00135879
0.00133303
0.00130851
0.0012848
0.00126179
0.00123985
0.00121908
0.00119944
0.00118089
0.00116272
0.00114519
0.00112853
0.00111277
0.00109797
0.00108393
0.00107044
0.00105758
0.00104557
0.00103449
0.00102446
0.0010153
0.00100668
0.000998872
0.000992039
0.000986687
0.00098416
0.000980602
0.000977213
0.000974474
0.000973003
0.00097306
0.00097347
0.000973311
0.000973435
0.000974435
0.000976277
0.000978388
0.000980246
0.000982335
0.00098494
0.000988037
0.000991411
0.000994904
0.000998678
0.00100282
0.00100737
0.00101218
0.00101721
0.00102246
0.001028
0.00103382
0.0010395
0.00104435
0.00104825
0.00105143
0.00105406
0.00105624
0.0010581
0.00105979
0.00106138
0.00106293
0.00106444
0.00106591
0.00106732
0.00106865
0.00106982
0.00107079
0.00107155
0.00107206
0.0010723
0.00107226
0.00107189
0.00107115
0.00107
0.0010684
0.00106631
0.00106363
0.00106038
0.00105648
0.001052
0.00104687
0.00104119
0.00103489
0.00102812
0.00102086
0.00101326
0.00100539
0.000997333
0.000989262
0.000981166
0.00097316
0.000965275
0.000957507
0.000949978
0.000943402
0.000941217
0.000946103
0.000960561
0.000986082
0.00102025
0.00105559
0.00108438
0.00109265
0.00105898
0.00105508
0.00112005
0.00125906
0.00133195
0.00134859
0.00131463
0.0012908
0.00130611
0.00138133
0.0015446
0.00182767
0.00221808
0.00196734
0.00191642
0.00186851
0.00182354
0.00178129
0.00174132
0.00170341
0.00166711
0.00163229
0.00159952
0.0015685
0.00153909
0.00151107
0.00148376
0.00145708
0.00143161
0.0014074
0.00138438
0.00136262
0.00134101
0.00132009
0.00130012
0.00128109
0.00126304
0.00124579
0.00122905
0.00121296
0.00119771
0.00118334
0.00116995
0.00115727
0.0011452
0.00113391
0.00112349
0.00111421
0.00110666
0.0010993
0.00109235
0.0010864
0.00108239
0.00108071
0.00107934
0.00107688
0.001075
0.00107451
0.00107519
0.0010761
0.00107646
0.00107722
0.0010787
0.00108076
0.00108308
0.00108545
0.00108815
0.00109132
0.00109497
0.00109889
0.00110301
0.00110741
0.00111218
0.00111731
0.00112258
0.00112759
0.00113211
0.00113608
0.00113956
0.00114259
0.00114527
0.00114775
0.00115011
0.0011524