/*--------------------------------*- C++ -*----------------------------------*\
  =========                 |
  \\      /  F ield         | OpenFOAM: The Open Source CFD Toolbox
   \\    /   O peration     | Website:  https://openfoam.org
    \\  /    A nd           | Version:  10
     \\/     M anipulation  |
\*---------------------------------------------------------------------------*/
FoamFile
{
    format      ascii;
    class       surfaceScalarField;
    location    "0.002";
    object      phi;
}
// * * * * * * * * * * * * * * * * * * * * * * * * * * * * * * * * * * * * * //

dimensions      [1 0 -1 0 0 0 0];

internalField   nonuniform List<scalar> 
17567
(
3.0529e-05
1.12855e-07
3.03738e-05
1.54872e-07
3.02627e-05
1.10718e-07
3.01815e-05
8.09468e-08
3.00611e-05
1.20117e-07
3.00408e-05
2.0064e-08
2.99962e-05
4.4463e-08
3.00295e-05
-3.34476e-08
3.00163e-05
1.31022e-08
2.9996e-05
2.00514e-08
3.00105e-05
-1.46911e-08
3.0039e-05
-2.8638e-08
3.00901e-05
-5.14084e-08
3.00724e-05
1.68483e-08
3.01462e-05
-7.35664e-08
3.01789e-05
-3.34521e-08
3.02702e-05
-9.09274e-08
3.03549e-05
-8.40479e-08
3.0466e-05
-1.12243e-07
3.05042e-05
-3.94347e-08
3.06175e-05
-1.12706e-07
3.073e-05
-1.11693e-07
3.08481e-05
-1.19467e-07
3.08886e-05
-4.07798e-08
3.09626e-05
-7.42635e-08
3.10338e-05
-7.14833e-08
3.11424e-05
-1.08681e-07
3.12194e-05
-7.70973e-08
3.13527e-05
-1.3337e-07
3.14672e-05
-1.14477e-07
3.15462e-05
-7.90824e-08
3.16159e-05
-6.96955e-08
3.16583e-05
-4.17259e-08
3.171e-05
-5.27926e-08
3.16946e-05
1.47808e-08
3.1679e-05
1.5343e-08
3.17241e-05
-4.63526e-08
3.17635e-05
-3.86237e-08
3.17299e-05
3.42302e-08
3.16664e-05
6.22001e-08
3.16196e-05
4.50418e-08
3.15557e-05
6.49809e-08
3.14666e-05
8.88049e-08
3.13713e-05
9.53265e-08
3.12672e-05
1.03783e-07
3.11502e-05
1.17017e-07
3.10205e-05
1.29478e-07
3.08773e-05
1.43231e-07
3.07185e-05
1.58646e-07
3.05364e-05
1.82114e-07
3.03324e-05
2.03823e-07
3.01075e-05
2.24973e-07
2.98659e-05
2.40624e-07
2.96032e-05
2.63521e-07
2.93159e-05
2.86149e-07
2.90074e-05
3.09174e-07
2.86784e-05
3.28109e-07
2.8328e-05
3.5126e-07
2.79597e-05
3.67221e-07
2.75667e-05
3.93823e-07
2.71479e-05
4.17571e-07
2.6702e-05
4.46748e-07
2.62246e-05
4.77221e-07
2.57136e-05
5.1102e-07
2.51789e-05
5.34519e-07
2.4623e-05
5.55946e-07
2.40377e-05
5.84283e-07
2.34264e-05
6.12518e-07
2.2787e-05
6.38405e-07
2.21251e-05
6.63061e-07
2.14351e-05
6.89138e-07
2.07203e-05
7.16085e-07
1.99784e-05
7.4097e-07
1.9209e-05
7.70456e-07
1.84139e-05
7.95078e-07
1.75884e-05
8.25571e-07
1.67352e-05
8.53178e-07
1.58598e-05
8.75556e-07
1.4962e-05
8.97734e-07
1.40445e-05
9.17663e-07
1.31161e-05
9.28436e-07
1.21754e-05
9.40754e-07
1.12181e-05
9.57338e-07
1.02509e-05
9.67232e-07
9.26238e-06
9.88072e-07
8.2637e-06
9.99464e-07
7.26246e-06
1.00103e-06
6.26135e-06
1.00175e-06
5.28087e-06
9.80544e-07
4.31466e-06
9.66419e-07
3.38855e-06
9.26435e-07
2.49039e-06
8.98105e-07
1.64697e-06
8.43481e-07
8.52621e-07
7.94391e-07
1.3686e-07
7.15821e-07
-5.07238e-07
6.44135e-07
-1.06114e-06
5.53943e-07
-1.53071e-06
4.69585e-07
-1.91589e-06
3.85249e-07
-2.22168e-06
3.05857e-07
-2.45128e-06
2.29616e-07
-2.60558e-06
1.54296e-07
-2.705e-06
9.96737e-08
-2.75768e-06
5.24546e-08
-2.76722e-06
9.64313e-09
-2.73941e-06
-2.79546e-08
-2.70649e-06
-3.28929e-08
-2.75356e-06
4.70573e-08
-2.97775e-06
2.23957e-07
-3.41552e-06
4.38025e-07
-4.02419e-06
6.08194e-07
-4.56956e-06
5.45952e-07
-4.73079e-06
1.61309e-07
-4.13333e-06
-5.97372e-07
-2.52147e-06
-1.61182e-06
-3.99457e-09
-2.51741e-06
2.87547e-06
-2.87941e-06
5.82007e-06
-2.94454e-06
7.9361e-06
-2.11597e-06
8.77567e-06
-8.39528e-07
8.77522e-06
-6.37017e-10
8.74624e-06
3.03669e-08
9.58929e-06
-8.43732e-07
1.17241e-05
-2.13361e-06
1.4859e-05
-3.13523e-06
1.81663e-05
-3.30649e-06
2.04623e-05
-2.29581e-06
8.71543e-08
8.1577e-05
1.12301e-07
8.15419e-05
1.89644e-07
8.15265e-05
1.25891e-07
8.1576e-05
3.11905e-08
8.16213e-05
7.45669e-08
8.1681e-05
-3.97666e-08
8.16983e-05
2.70335e-08
8.17464e-05
-8.16313e-08
8.18165e-05
-5.70115e-08
8.19214e-05
-8.50437e-08
8.20232e-05
-1.1654e-07
8.20925e-05
-9.80887e-08
8.22015e-05
-1.60613e-07
8.23235e-05
-1.05688e-07
8.24651e-05
-2.15048e-07
8.2593e-05
-1.61743e-07
8.27471e-05
-2.44858e-07
8.28726e-05
-2.09144e-07
8.30377e-05
-2.78006e-07
8.32159e-05
-2.18362e-07
8.33994e-05
-2.95876e-07
8.35501e-05
-2.61843e-07
8.37253e-05
-2.95534e-07
8.39049e-05
-2.20673e-07
8.41008e-05
-2.7038e-07
8.42644e-05
-2.35384e-07
8.44388e-05
-2.8304e-07
8.4599e-05
-2.37421e-07
8.47492e-05
-2.83423e-07
8.48829e-05
-2.48215e-07
8.50336e-05
-2.29701e-07
8.51778e-05
-2.13825e-07
8.53076e-05
-1.71121e-07
8.54366e-05
-1.82495e-07
8.55684e-05
-1.17494e-07
8.57026e-05
-1.19082e-07
8.57867e-05
-1.31073e-07
8.58506e-05
-1.02167e-07
8.59523e-05
-6.71589e-08
8.60386e-05
-2.49032e-08
8.60853e-05
-2.74407e-09
8.61134e-05
3.74399e-08
8.61136e-05
8.83868e-08
8.60933e-05
1.15578e-07
8.60721e-05
1.24851e-07
8.60406e-05
1.48513e-07
8.59907e-05
1.79264e-07
8.59218e-05
2.12136e-07
8.5832e-05
2.48329e-07
8.57089e-05
3.05225e-07
8.55472e-05
3.65404e-07
8.53454e-05
4.2685e-07
8.51037e-05
4.81847e-07
8.48184e-05
5.4929e-07
8.44852e-05
6.18669e-07
8.41031e-05
6.91738e-07
8.367e-05
7.60711e-07
8.31839e-05
8.37879e-07
8.26454e-05
9.05138e-07
8.20441e-05
9.95614e-07
8.13727e-05
1.08833e-06
8.06238e-05
1.19619e-06
7.97868e-05
1.31413e-06
7.88526e-05
1.44529e-06
7.78358e-05
1.55122e-06
7.67424e-05
1.64937e-06
7.55557e-05
1.77045e-06
7.42736e-05
1.89543e-06
7.2893e-05
2.01846e-06
7.14181e-05
2.13882e-06
6.98407e-05
2.26598e-06
6.8162e-05
2.39565e-06
6.63773e-05
2.52513e-06
6.44839e-05
2.66465e-06
6.24832e-05
2.79577e-06
6.03647e-05
2.9442e-06
5.81297e-05
3.0882e-06
5.57888e-05
3.21663e-06
5.33441e-05
3.34247e-06
5.07999e-05
3.46203e-06
4.81776e-05
3.55078e-06
4.54785e-05
3.64002e-06
4.26893e-05
3.74654e-06
3.98242e-05
3.83242e-06
3.68575e-05
3.95454e-06
3.38101e-05
4.04748e-06
3.0707e-05
4.10403e-06
2.75525e-05
4.15691e-06
2.44017e-05
4.13148e-06
2.12422e-05
4.12606e-06
1.81401e-05
4.02888e-06
1.50679e-05
3.97034e-06
1.20981e-05
3.81337e-06
9.22285e-06
3.66968e-06
6.53362e-06
3.40512e-06
4.03052e-06
3.14728e-06
1.77191e-06
2.81261e-06
-2.54043e-07
2.49555e-06
-2.00974e-06
2.14102e-06
-3.49423e-06
1.79042e-06
-4.72125e-06
1.45664e-06
-5.68016e-06
1.1132e-06
-6.41768e-06
8.37441e-07
-6.95848e-06
5.93011e-07
-7.31425e-06
3.65488e-07
-7.52368e-06
1.8132e-07
-7.69405e-06
1.37455e-07
-8.04816e-06
4.01114e-07
-8.81365e-06
9.89175e-07
-1.00291e-05
1.65376e-06
-1.14816e-05
2.0602e-06
-1.25366e-05
1.60156e-06
-1.2413e-05
3.77704e-08
-1.0392e-05
-2.61821e-06
-6.13652e-06
-5.86723e-06
-2.92785e-08
-8.62455e-06
6.89088e-06
-9.79949e-06
1.39938e-05
-1.00473e-05
1.96604e-05
-7.78253e-06
2.2868e-05
-4.047e-06
2.39914e-05
-1.12504e-06
2.43634e-05
-3.40286e-07
2.56591e-05
-2.13986e-06
2.83273e-05
-4.80072e-06
3.04496e-05
-5.25761e-06
2.79597e-05
-8.15893e-07
1.53916e-05
1.02725e-05
2.46292e-05
0.000105467
-1.67494e-08
0.000105561
9.52212e-08
0.000105641
4.57212e-08
0.000105751
-7.90472e-08
0.000105849
-2.33563e-08
0.000105956
-1.46432e-07
0.000106034
-5.15487e-08
0.000106123
-1.70346e-07
0.000106222
-1.56115e-07
0.000106335
-1.97724e-07
0.000106453
-2.34718e-07
0.00010655
-1.95206e-07
0.000106669
-2.80305e-07
0.000106791
-2.27799e-07
0.000106928
-3.51706e-07
0.000107058
-2.9206e-07
0.000107203
-3.89911e-07
0.000107335
-3.41155e-07
0.00010749
-4.33054e-07
0.000107652
-3.80614e-07
0.000107819
-4.62925e-07
0.000107974
-4.16355e-07
0.000108143
-4.65159e-07
0.000108314
-3.92042e-07
0.000108496
-4.51802e-07
0.000108662
-4.0191e-07
0.000108837
-4.58211e-07
0.000109005
-4.04952e-07
0.000109172
-4.50958e-07
0.000109331
-4.07194e-07
0.000109502
-4.00291e-07
0.00010967
-3.81848e-07
0.000109831
-3.32561e-07
0.000109996
-3.47804e-07
0.000110162
-2.83026e-07
0.000110331
-2.88286e-07
0.000110477
-2.77002e-07
0.000110612
-2.37228e-07
0.000110767
-2.21906e-07
0.000110911
-1.69508e-07
0.000111034
-1.25981e-07
0.000111148
-7.66473e-08
0.000111247
-9.79052e-09
0.000111331
3.0605e-08
0.000111409
4.73198e-08
0.000111483
7.48401e-08
0.000111546
1.16147e-07
0.000111594
1.63721e-07
0.000111629
2.13596e-07
0.000111638
2.96381e-07
0.000111611
3.91761e-07
0.000111547
4.90577e-07
0.000111447
5.82175e-07
0.000111305
6.91042e-07
0.000111119
8.0453e-07
0.000110887
9.24372e-07
0.000110606
1.04155e-06
0.000110274
1.1694e-06
0.000109892
1.28659e-06
0.000109451
1.43739e-06
0.000108942
1.59735e-06
0.000108356
1.78215e-06
0.000107682
1.98784e-06
0.000106908
2.21926e-06
0.000106047
2.41219e-06
0.000105109
2.5872e-06
0.000104079
2.79998e-06
0.00010295
3.02512e-06
0.000101716
3.25186e-06
0.000100378
3.47694e-06
9.89279e-05
3.7162e-06
9.73621e-05
3.96176e-06
9.56747e-05
4.2122e-06
9.38605e-05
4.47922e-06
9.19172e-05
4.73905e-06
8.98283e-05
5.03308e-06
8.75869e-05
5.32963e-06
8.5194e-05
5.60951e-06
8.26386e-05
5.89781e-06
7.99058e-05
6.19492e-06
7.69995e-05
6.45705e-06
7.39105e-05
6.72902e-06
7.06205e-05
7.0365e-06
6.71494e-05
7.30356e-06
6.34695e-05
7.63418e-06
5.95908e-05
7.92647e-06
5.5527e-05
8.16776e-06
5.12671e-05
8.41704e-06
4.68721e-05
8.52643e-06
4.23177e-05
8.6806e-06
3.76864e-05
8.66028e-06
3.29455e-05
8.71115e-06
2.81934e-05
8.56556e-06
2.34249e-05
8.4382e-06
1.87788e-05
8.05124e-06
1.42637e-05
7.66241e-06
9.99709e-06
7.07922e-06
5.99249e-06
6.50015e-06
2.34239e-06
5.79117e-06
-9.10394e-07
5.04326e-06
-3.73455e-06
4.28081e-06
-6.09732e-06
3.47598e-06
-8.04623e-06
2.78656e-06
-9.58445e-06
2.13104e-06
-1.0739e-05
1.52015e-06
-1.15876e-05
1.02978e-06
-1.23082e-05
8.58126e-07
-1.32232e-05
1.31612e-06
-1.46222e-05
2.38796e-06
-1.64705e-05
3.50233e-06
-1.83437e-05
3.93295e-06
-1.93165e-05
2.5749e-06
-1.83701e-05
-9.08628e-07
-1.48003e-05
-6.18791e-06
-8.46578e-06
-1.22017e-05
-3.62509e-08
-1.70541e-05
9.5427e-06
-1.93784e-05
1.93658e-05
-1.98704e-05
2.7719e-05
-1.61357e-05
3.33173e-05
-9.6453e-06
3.61176e-05
-3.92593e-06
3.70153e-05
-1.23727e-06
3.72479e-05
-2.3728e-06
3.65956e-05
-4.14791e-06
3.20733e-05
-7.3551e-07
1.8972e-05
1.22856e-05
-6.2516e-06
3.54962e-05
6.18488e-05
0.00012318
-2.68954e-07
0.000123393
-1.18113e-07
0.000123574
-1.34717e-07
0.000123762
-2.66922e-07
0.000123925
-1.87224e-07
0.000124095
-3.15788e-07
0.000124239
-1.96485e-07
0.000124384
-3.1535e-07
0.000124528
-3.00264e-07
0.000124672
-3.40894e-07
0.000124824
-3.87107e-07
0.00012496
-3.31063e-07
0.000125108
-4.29054e-07
0.00012525
-3.69488e-07
0.000125406
-5.07499e-07
0.000125555
-4.41904e-07
0.000125715
-5.49753e-07
0.000125869
-4.94448e-07
0.000126035
-5.9978e-07
0.000126203
-5.48574e-07
0.000126378
-6.37791e-07
0.000126549
-5.8752e-07
0.000126729
-6.4524e-07
0.000126907
-5.6999e-07
0.000127093
-6.37754e-07
0.000127271
-5.80957e-07
0.000127459
-6.45458e-07
0.00012764
-5.86124e-07
0.000127827
-6.38359e-07
0.000128008
-5.88008e-07
0.000128196
-5.88556e-07
0.000128383
-5.68869e-07
0.000128567
-5.16042e-07
0.000128756
-5.3685e-07
0.000128941
-4.68647e-07
0.000129131
-4.784e-07
0.000129312
-4.58071e-07
0.000129485
-4.10461e-07
0.000129667
-4.03369e-07
0.000129839
-3.42067e-07
0.000129999
-2.85912e-07
0.000130154
-2.31347e-07
0.000130296
-1.52663e-07
0.00013043
-1.03162e-07
0.000130558
-8.07763e-08
0.000130677
-4.44128e-08
0.000130792
1.29534e-09
0.000130894
6.24049e-08
0.000130982
1.25027e-07
0.000131047
2.3171e-07
0.000131077
3.61196e-07
0.00013107
4.98018e-07
0.000131025
6.27013e-07
0.000130938
7.77933e-07
0.000130806
9.36885e-07
0.000130626
1.10458e-06
0.000130396
1.27142e-06
0.000130114
1.45106e-06
0.000129781
1.61981e-06
0.000129386
1.83199e-06
0.000128922
2.06125e-06
0.000128379
2.32525e-06
0.000127745
2.62217e-06
0.000127005
2.95887e-06
0.000126174
3.24318e-06
0.000125265
3.49666e-06
0.000124262
3.80236e-06
0.000123157
4.13078e-06
0.000121943
4.4659e-06
0.000120618
4.80157e-06
0.000119175
5.15963e-06
0.000117608
5.52865e-06
0.000115912
5.90849e-06
0.00011408
6.31148e-06
0.00011211
6.70909e-06
0.000109984
7.15905e-06
0.000107693
7.62071e-06
0.000105236
8.0662e-06
0.0001026
8.53353e-06
9.97657e-05
9.02968e-06
9.67324e-05
9.49045e-06
9.34885e-05
9.97296e-06
9.00132e-05
1.05118e-05
8.6328e-05
1.09888e-05
8.24043e-05
1.15578e-05
7.82463e-05
1.20847e-05
7.38609e-05
1.25532e-05
6.92224e-05
1.30558e-05
6.43802e-05
1.33687e-05
5.92907e-05
1.37702e-05
5.40334e-05
1.39177e-05
4.85698e-05
1.41747e-05
4.29985e-05
1.41369e-05
3.72979e-05
1.41388e-05
3.16001e-05
1.37491e-05
2.58969e-05
1.33656e-05
2.03308e-05
1.26454e-05
1.49213e-05
1.19096e-05
9.78689e-06
1.09256e-05
4.99278e-06
9.83739e-06
6.08823e-07
8.66477e-06
-3.28383e-06
7.36862e-06
-6.70119e-06
6.20403e-06
-9.59108e-06
5.02079e-06
-1.19729e-05
3.90199e-06
-1.3911e-05
2.96778e-06
-1.55829e-05
2.52997e-06
-1.73241e-05
3.05728e-06
-1.93724e-05
4.43612e-06
-2.15714e-05
5.70151e-06
-2.33498e-05
5.71104e-06
-2.37628e-05
2.98828e-06
-2.1863e-05
-2.80839e-06
-1.71322e-05
-1.09186e-05
-9.63826e-06
-1.96956e-05
-9.17098e-08
-2.66005e-05
1.09256e-05
-3.03957e-05
2.21838e-05
-3.11285e-05
3.21072e-05
-2.60591e-05
3.92487e-05
-1.67867e-05
4.31677e-05
-7.84528e-06
4.40172e-05
-2.08619e-06
4.24471e-05
-8.02816e-07
3.80016e-05
2.97994e-07
2.77555e-05
9.51067e-06
7.39607e-06
3.26452e-05
-2.63336e-05
6.9226e-05
0.000107886
0.00014041
-6.72893e-07
0.000140765
-4.74135e-07
0.000141073
-4.41971e-07
0.000141371
-5.65226e-07
0.000141631
-4.47175e-07
0.000141888
-5.73178e-07
0.000142117
-4.24996e-07
0.000142336
-5.35038e-07
0.000142547
-5.1092e-07
0.000142746
-5.39635e-07
0.000142952
-5.93384e-07
0.000143139
-5.18024e-07
0.000143334
-6.24394e-07
0.000143515
-5.51038e-07
0.000143708
-7.00356e-07
0.000143892
-6.25652e-07
0.000144082
-7.40156e-07
0.000144265
-6.77464e-07
0.000144457
-7.91468e-07
0.000144646
-7.37956e-07
0.000144842
-8.33129e-07
0.000145034
-7.8001e-07
0.000145233
-8.44e-07
0.000145427
-7.64754e-07
0.000145629
-8.39528e-07
0.000145825
-7.7687e-07
0.000146028
-8.48863e-07
0.000146225
-7.82846e-07
0.000146429
-8.42379e-07
0.000146626
-7.84908e-07
0.000146829
-7.91444e-07
0.000147031
-7.70826e-07
0.00014723
-7.15271e-07
0.000147435
-7.4223e-07
0.000147635
-6.68883e-07
0.000147841
-6.83439e-07
0.00014804
-6.57522e-07
0.000148232
-6.02442e-07
0.000148429
-6.00822e-07
0.000148618
-5.30938e-07
0.000148796
-4.64313e-07
0.000148971
-4.06061e-07
0.000149135
-3.16216e-07
0.000149291
-2.59395e-07
0.000149443
-2.32427e-07
0.000149584
-1.85927e-07
0.00014972
-1.34239e-07
0.000149845
-6.25417e-08
0.000149955
1.40773e-08
0.000150042
1.44783e-07
0.000150095
3.08084e-07
0.000150109
4.84895e-07
0.000150081
6.54356e-07
0.000150009
8.50181e-07
0.000149888
1.05747e-06
0.000149717
1.27627e-06
0.000149491
1.49649e-06
0.000149211
1.73159e-06
0.000148875
1.95592e-06
0.000148473
2.23353e-06
0.000147997
2.53714e-06
0.000147436
2.8861e-06
0.000146777
3.28113e-06
0.000146005
3.73116e-06
0.000145135
4.11348e-06
0.000144181
4.44991e-06
0.00014313
4.85359e-06
0.000141969
5.29184e-06
0.000140691
5.74332e-06
0.000139295
6.19849e-06
0.000137769
6.68548e-06
0.000136108
7.18896e-06
0.000134307
7.71016e-06
0.000132357
8.26134e-06
0.000130257
8.80929e-06
0.000127987
9.42895e-06
0.000125537
1.00706e-05
0.000122907
1.06964e-05
0.000120082
1.13579e-05
0.000117042
1.20697e-05
0.000113787
1.27457e-05
0.000110304
1.34558e-05
0.000106569
1.42464e-05
0.000102605
1.49528e-05
9.8381e-05
1.57822e-05
9.38987e-05
1.6567e-05
8.91656e-05
1.72863e-05
8.41495e-05
1.80719e-05
7.88989e-05
1.86192e-05
7.33608e-05
1.93083e-05
6.76158e-05
1.96627e-05
6.16189e-05
2.01716e-05
5.54692e-05
2.02866e-05
4.91319e-05
2.04761e-05
4.27354e-05
2.01456e-05
3.62583e-05
1.98427e-05
2.98525e-05
1.90512e-05
2.35328e-05
1.82293e-05
1.74259e-05
1.70326e-05
1.15968e-05
1.56665e-05
6.1186e-06
1.4143e-05
1.09461e-06
1.23926e-05
-3.47348e-06
1.07722e-05
-7.50643e-06
9.05369e-06
-1.10206e-05
7.4162e-06
-1.40674e-05
6.01454e-06
-1.67745e-05
5.23711e-06
-1.93889e-05
5.6717e-06
-2.20027e-05
7.04989e-06
-2.43598e-05
8.05866e-06
-2.59409e-05
7.292e-06
-2.58634e-05
2.91096e-06
-2.34587e-05
-5.21308e-06
-1.83337e-05
-1.60435e-05
-1.04039e-05
-2.76254e-05
-2.88028e-07
-3.67165e-05
1.15579e-05
-4.22416e-05
2.3711e-05
-4.32817e-05
3.4601e-05
-3.6949e-05
4.26422e-05
-2.4828e-05
4.70264e-05
-1.22297e-05
4.75235e-05
-2.58303e-06
4.44233e-05
2.29717e-06
3.69766e-05
7.74483e-06
2.20489e-05
2.44383e-05
-4.83144e-06
5.95256e-05
-4.67555e-05
0.00011115
0.000162601
0.000158144
-1.26977e-06
0.000158679
-1.01015e-06
0.00015915
-9.12404e-07
0.000159595
-1.01031e-06
0.000159985
-8.37198e-07
0.000160361
-9.49547e-07
0.000160699
-7.63646e-07
0.00016102
-8.55431e-07
0.000161322
-8.13176e-07
0.000161602
-8.19244e-07
0.000161884
-8.75775e-07
0.000162141
-7.75123e-07
0.000162402
-8.86e-07
0.000162643
-7.92175e-07
0.000162891
-9.47932e-07
0.000163124
-8.59099e-07
0.00016336
-9.76299e-07
0.000163585
-9.02367e-07
0.000163815
-1.02109e-06
0.000164038
-9.61715e-07
0.000164265
-1.05994e-06
0.000164487
-1.00169e-06
0.000164713
-1.07004e-06
0.000164933
-9.85004e-07
0.000165159
-1.0652e-06
0.000165377
-9.95129e-07
0.000165601
-1.07314e-06
0.000165816
-9.98245e-07
0.000166038
-1.06408e-06
0.000166251
-9.97403e-07
0.000166468
-1.00882e-06
0.000166684
-9.86784e-07
0.000166897
-9.2864e-07
0.000167116
-9.61407e-07
0.000167329
-8.81519e-07
0.000167546
-9.0048e-07
0.000167757
-8.68985e-07
0.00016796
-8.05459e-07
0.000168168
-8.08587e-07
0.000168367
-7.29977e-07
0.000168555
-6.52825e-07
0.00016874
-5.91329e-07
0.000168914
-4.89497e-07
0.00016908
-4.2558e-07
0.000169242
-3.94562e-07
0.000169393
-3.37593e-07
0.000169535
-2.75443e-07
0.000169669
-1.96789e-07
0.000169788
-1.05497e-07
0.000169883
5.0427e-08
0.000169943
2.48213e-07
0.000169961
4.66506e-07
0.000169935
6.79975e-07
0.000169861
9.2436e-07
0.000169735
1.184e-06
0.000169553
1.45797e-06
0.000169313
1.73606e-06
0.000169014
2.03124e-06
0.000168654
2.31595e-06
0.000168223
2.66405e-06
0.000167712
3.04798e-06
0.00016711
3.4885e-06
0.000166402
3.98946e-06
0.000165571
4.5619e-06
0.000164635
5.04944e-06
0.000163611
5.47384e-06
0.000162483
5.98154e-06
0.000161238
6.53688e-06
0.000159868
7.11328e-06
0.000158369
7.69757e-06
0.00015673
8.32447e-06
0.000154945
8.97443e-06
0.000153005
9.64997e-06
0.000150903
1.0363e-05
0.000148638
1.10751e-05
0.000146187
1.188e-05
0.000143539
1.27183e-05
0.000140695
1.3541e-05
0.000137639
1.44138e-05
0.000134348
1.53603e-05
0.000130824
1.627e-05
0.000127052
1.72275e-05
0.000123006
1.82925e-05
0.000118709
1.92503e-05
0.000114126
2.03652e-05
0.000109259
2.14336e-05
0.000104117
2.24287e-05
9.86627e-05
2.35261e-05
9.29487e-05
2.43333e-05
8.69153e-05
2.53418e-05
8.06466e-05
2.59315e-05
7.40901e-05
2.67281e-05
6.73489e-05
2.70278e-05
6.03791e-05
2.7446e-05
5.33138e-05
2.7211e-05
4.61218e-05
2.70347e-05
3.8962e-05
2.6211e-05
3.18433e-05
2.53481e-05
2.49008e-05
2.39751e-05
1.82021e-05
2.23652e-05
1.18244e-05
2.05207e-05
5.88551e-06
1.83315e-05
3.95238e-07
1.62625e-05
-4.55004e-06
1.39989e-05
-8.96917e-06
1.18353e-05
-1.29023e-05
9.94766e-06
-1.64366e-05
8.77133e-06
-1.97514e-05
8.98653e-06
-2.28402e-05
1.01386e-05
-2.54056e-05
1.06241e-05
-2.69716e-05
8.85792e-06
-2.68294e-05
2.76881e-06
-2.44101e-05
-7.63227e-06
-1.92705e-05
-2.11831e-05
-1.12025e-05
-3.56933e-05
-6.40951e-07
-4.7278e-05
1.18178e-05
-5.47003e-05
2.47641e-05
-5.62279e-05
3.64478e-05
-4.86326e-05
4.51626e-05
-3.35428e-05
4.9746e-05
-1.68131e-05
4.97199e-05
-2.55673e-06
4.5121e-05
6.89602e-06
3.4749e-05
1.8117e-05
1.50671e-05
4.41202e-05
-1.88782e-05
9.34711e-05
-6.95512e-05
0.000161823
0.000225996
0.000176744
0.000177508
-1.77491e-06
0.000178186
-1.58997e-06
0.000178819
-1.6441e-06
0.000179379
-1.39691e-06
0.000179912
-1.48241e-06
0.000180395
-1.24712e-06
0.000180849
-1.30905e-06
0.000181273
-1.2379e-06
0.000181663
-1.2089e-06
0.000182049
-1.26166e-06
0.000182402
-1.12781e-06
0.000182753
-1.23793e-06
0.000183077
-1.1155e-06
0.000183401
-1.27187e-06
0.000183703
-1.16193e-06
0.000184004
-1.27677e-06
0.000184287
-1.18592e-06
0.000184571
-1.30463e-06
0.000184844
-1.23455e-06
0.000185115
-1.33187e-06
0.000185379
-1.26474e-06
0.000185643
-1.33478e-06
0.000185899
-1.2408e-06
0.000186158
-1.32432e-06
0.000186407
-1.24376e-06
0.000186659
-1.32565e-06
0.0001869
-1.23878e-06
0.000187144
-1.30881e-06
0.000187377
-1.22978e-06
0.000187612
-1.24422e-06
0.000187845
-1.21978e-06
0.000188075
-1.15823e-06
0.000188308
-1.19539e-06
0.000188534
-1.10689e-06
0.000188763
-1.12917e-06
0.000188984
-1.09088e-06
0.000189196
-1.01729e-06
0.000189412
-1.02411e-06
0.000189617
-9.35714e-07
0.000189812
-8.47076e-07
0.000190003
-7.82344e-07
0.00019018
-6.6682e-07
0.000190349
-5.95068e-07
0.000190515
-5.60102e-07
0.000190669
-4.91886e-07
0.000190808
-4.13966e-07
0.000190943
-3.31997e-07
0.000191063
-2.25918e-07
0.000191157
-4.29646e-08
0.000191214
1.90622e-07
0.000191229
4.51879e-07
0.000191196
7.13137e-07
0.00019111
1.01034e-06
0.000190967
1.32698e-06
0.000190764
1.66072e-06
0.000190498
2.0017e-06
0.000190167
2.36221e-06
0.00018977
2.71257e-06
0.000189298
3.13698e-06
0.000188738
3.60764e-06
0.000188079
4.1469e-06
0.000187307
4.7621e-06
0.000186402
5.46651e-06
0.000185385
6.06662e-06
0.000184275
6.58391e-06
0.000183055
7.20163e-06
0.00018171
7.88115e-06
0.000180233
8.59099e-06
0.000178616
9.31398e-06
0.000176849
1.0092e-05
0.000174922
1.09008e-05
0.000172828
1.17443e-05
0.000170558
1.26333e-05
0.000168108
1.35245e-05
0.000165457
1.45309e-05
0.000162592
1.55832e-05
0.000159513
1.66203e-05
0.000156204
1.77231e-05
0.000152639
1.89245e-05
0.000148821
2.00881e-05
0.000144735
2.13138e-05
0.00014035
2.26776e-05
0.00013569
2.39098e-05
0.000130718
2.53371e-05
0.000125435
2.67169e-05
0.000119849
2.80151e-05
0.000113919
2.94554e-05
0.000107703
3.05498e-05
0.000101133
3.19121e-05
9.42978e-05
3.27664e-05
8.71378e-05
3.3888e-05
7.97621e-05
3.44035e-05
7.21192e-05
3.50889e-05
6.43501e-05
3.498e-05
5.64147e-05
3.49701e-05
4.84806e-05
3.41451e-05
4.05509e-05
3.32778e-05
3.27697e-05
3.17562e-05
2.52074e-05
2.99276e-05
1.79477e-05
2.77804e-05
1.1124e-05
2.51552e-05
4.75221e-06
2.26344e-05
-1.0516e-06
1.98027e-05
-6.30312e-06
1.70869e-05
-1.10266e-05
1.46711e-05
-1.52722e-05
1.3017e-05
-1.91838e-05
1.28981e-05
-2.27131e-05
1.36679e-05
-2.55703e-05
1.34814e-05
-2.73238e-05
1.06113e-05
-2.73729e-05
2.81801e-06
-2.51559e-05
-9.84931e-06
-2.01579e-05
-2.61811e-05
-1.20458e-05
-4.38054e-05
-1.14854e-06
-5.81753e-05
1.18636e-05
-6.77125e-05
2.5565e-05
-6.99292e-05
3.80003e-05
-6.1068e-05
4.72975e-05
-4.284e-05
5.19384e-05
-2.14542e-05
5.11953e-05
-1.81356e-06
4.48936e-05
1.31976e-05
3.13356e-05
3.16749e-05
6.3051e-06
6.91506e-05
-3.55775e-05
0.000135354
-9.55166e-05
0.000221762
0.00029774
0.000197407
-2.83607e-06
0.000198352
-2.53548e-06
0.00019923
-2.52164e-06
0.000200011
-2.17891e-06
0.000200751
-2.22195e-06
0.000201426
-1.9224e-06
0.000202056
-1.93906e-06
0.000202643
-1.82488e-06
0.00020318
-1.74606e-06
0.000203704
-1.78602e-06
0.000204185
-1.60821e-06
0.000204657
-1.71021e-06
0.00020509
-1.54898e-06
0.000205517
-1.6984e-06
0.000205913
-1.55869e-06
0.000206301
-1.66452e-06
0.000206665
-1.54938e-06
0.000207022
-1.66219e-06
0.000207363
-1.57522e-06
0.000207697
-1.66621e-06
0.000208017
-1.58522e-06
0.000208336
-1.65343e-06
0.000208641
-1.54634e-06
0.000208947
-1.62977e-06
0.000209237
-1.53447e-06
0.000209529
-1.61708e-06
0.000209804
-1.51368e-06
0.00021008
-1.58477e-06
0.000210339
-1.48921e-06
0.000210599
-1.50398e-06
0.000210855
-1.47576e-06
0.000211105
-1.40865e-06
0.000211358
-1.44814e-06
0.000211599
-1.34836e-06
0.000211842
-1.37206e-06
0.000212076
-1.32484e-06
0.000212297
-1.23862e-06
0.000212521
-1.24752e-06
0.000212732
-1.14779e-06
0.000212931
-1.04604e-06
0.000213126
-9.77437e-07
0.000213305
-8.45588e-07
0.000213474
-7.64361e-07
0.000213639
-7.25265e-07
0.000213792
-6.44356e-07
0.000213925
-5.47381e-07
0.000214053
-4.59375e-07
0.000214168
-3.41632e-07
0.000214255
-1.30119e-07
0.000214305
1.41423e-07
0.000214308
4.48191e-07
0.000214261
7.60514e-07
0.000214156
1.11543e-06
0.000213989
1.49414e-06
0.000213756
1.8929e-06
0.000213456
2.30231e-06
0.000213084
2.73397e-06
0.000212641
3.15594e-06
0.000212115
3.66292e-06
0.000211495
4.22739e-06
0.000210769
4.87311e-06
0.00020992
5.61131e-06
0.000208928
6.45774e-06
0.000207817
7.17782e-06
0.000206609
7.79257e-06
0.000205284
8.52588e-06
0.000203829
9.33628e-06
0.000202233
1.01876e-05
0.000200488
1.10587e-05
0.000198581
1.19991e-05
0.000196503
1.29791e-05
0.000194242
1.40044e-05
0.000191792
1.50842e-05
0.000189147
1.61695e-05
0.000186283
1.73945e-05
0.000183187
1.86792e-05
0.000179858
1.9949e-05
0.000176281
2.13011e-05
0.000172426
2.2779e-05
0.000168297
2.42175e-05
0.000163877
2.57339e-05
0.000159132
2.74219e-05
0.00015409
2.89527e-05
0.000148706
3.07209e-05
0.000142982
3.24413e-05
0.000136925
3.40714e-05
0.000130493
3.58879e-05
0.000123744
3.72989e-05
0.000116604
3.90517e-05
0.000109169
4.0202e-05
0.000101368
4.16887e-05
9.33179e-05
4.24535e-05
8.49589e-05
4.3448e-05
7.64412e-05
4.34977e-05
6.77157e-05
4.36956e-05
5.8961e-05
4.28998e-05
5.0175e-05
4.20638e-05
4.15122e-05
4.04191e-05
3.30454e-05
3.83943e-05
2.48653e-05
3.59606e-05
1.71201e-05
3.29004e-05
9.83014e-06
2.99243e-05
3.13406e-06
2.64988e-05
-2.97596e-06
2.31969e-05
-8.50385e-06
2.0199e-05
-1.34616e-05
1.79747e-05
-1.79683e-05
1.74048e-05
-2.19619e-05
1.76616e-05
-2.51858e-05
1.67053e-05
-2.72521e-05
1.26776e-05
-2.76239e-05
3.18982e-06
-2.57248e-05
-1.17484e-05
-2.09732e-05
-3.09326e-05
-1.2919e-05
-5.18596e-05
-1.79552e-06
-6.92987e-05
1.17207e-05
-8.12287e-05
2.61396e-05
-8.43481e-05
3.92991e-05
-7.42274e-05
4.90705e-05
-5.26113e-05
5.36383e-05
-2.6022e-05
5.20044e-05
-1.79577e-07
4.37121e-05
2.149e-05
2.65143e-05
4.88728e-05
-4.70639e-06
0.000100371
-5.5429e-05
0.000186076
-0.00012486
0.000291193
0.000377139
0.000218322
-4.27375e-06
0.000219619
-3.83226e-06
0.000220824
-3.72662e-06
0.000221911
-3.26581e-06
0.000222934
-3.2454e-06
0.000223872
-2.85998e-06
0.000224741
-2.80836e-06
0.000225548
-2.6312e-06
0.000226285
-2.48395e-06
0.000226998
-2.49834e-06
0.000227651
-2.26145e-06
0.000228284
-2.34389e-06
0.000228866
-2.13063e-06
0.000229431
-2.26317e-06
0.000229955
-2.08299e-06
0.000230462
-2.17124e-06
0.000230935
-2.02234e-06
0.000231394
-2.12123e-06
0.000231828
-2.00929e-06
0.000232249
-2.08713e-06
0.000232648
-1.98501e-06
0.000233041
-2.04609e-06
0.000233414
-1.91969e-06
0.000233783
-1.99824e-06
0.000234131
-1.88261e-06
0.000234475
-1.96168e-06
0.000234798
-1.83612e-06
0.000235117
-1.90409e-06
0.000235414
-1.78645e-06
0.000235708
-1.79818e-06
0.000235997
-1.76412e-06
0.000236276
-1.6877e-06
0.000236554
-1.72641e-06
0.000236817
-1.61178e-06
0.000237079
-1.63394e-06
0.000237329
-1.57499e-06
0.000237563
-1.47269e-06
0.000237797
-1.48122e-06
0.000238017
-1.36777e-06
0.000238222
-1.25058e-06
0.000238421
-1.17727e-06
0.000238601
-1.02512e-06
0.000238769
-9.32292e-07
0.000238932
-8.88045e-07
0.00023908
-7.92583e-07
0.000239206
-6.73198e-07
0.00023932
-5.74018e-07
0.000239427
-4.48842e-07
0.000239505
-2.07717e-07
0.000239541
1.05409e-07
0.000239529
4.60625e-07
0.000239462
8.26771e-07
0.000239333
1.24502e-06
0.000239135
1.69145e-06
0.000238867
2.16102e-06
0.000238524
2.64504e-06
0.000238104
3.15437e-06
0.000237605
3.65458e-06
0.000237017
4.2512e-06
0.000236327
4.91718e-06
0.000235523
5.67762e-06
0.000234586
6.54817e-06
0.000233496
7.54722e-06
0.000232279
8.39473e-06
0.000230961
9.11108e-06
0.000229521
9.96501e-06
0.000227945
1.09123e-05
0.00022622
1.19127e-05
0.000224338
1.29407e-05
0.000222283
1.40544e-05
0.000220044
1.52184e-05
0.000217609
1.64394e-05
0.000214968
1.77253e-05
0.000212117
1.90201e-05
0.00020903
2.04813e-05
0.000205692
2.20174e-05
0.000202102
2.3539e-05
0.000198242
2.51607e-05
0.000194084
2.69377e-05
0.000189628
2.86735e-05
0.000184858
3.05038e-05
0.000179737
3.25428e-05
0.000174292
3.43976e-05
0.000168476
3.65363e-05
0.00016229
3.86281e-05
0.00015574
4.06206e-05
0.000148779
4.28488e-05
0.000141471
4.46075e-05
0.000133732
4.67899e-05
0.000125665
4.82698e-05
0.000117189
5.01647e-05
0.000108427
5.12153e-05
9.93104e-05
5.25645e-05
8.9999e-05
5.28092e-05
8.04335e-05
5.32611e-05
7.08042e-05
5.25291e-05
6.11035e-05
5.17645e-05
5.14974e-05
5.00252e-05
4.20629e-05
4.78288e-05
3.28983e-05
4.51252e-05
2.4168e-05
4.16307e-05
1.58956e-05
3.81968e-05
8.24226e-06
3.41521e-05
1.20873e-06
3.02305e-05
-5.18641e-06
2.65941e-05
-1.09138e-05
2.37021e-05
-1.60705e-05
2.25615e-05
-2.05868e-05
2.21779e-05
-2.42574e-05
2.03759e-05
-2.67288e-05
1.5149e-05
-2.75133e-05
3.97431e-06
-2.60305e-05
-1.32312e-05
-2.16381e-05
-3.5325e-05
-1.37723e-05
-5.97254e-05
-2.55159e-06
-8.05195e-05
1.13842e-05
-9.51645e-05
2.64656e-05
-9.94295e-05
4.03075e-05
-8.80693e-05
5.04602e-05
-6.2764e-05
5.47844e-05
-3.03463e-05
5.20391e-05
2.56577e-06
4.14418e-05
3.20872e-05
2.00017e-05
7.03129e-05
-1.83904e-05
0.000138763
-7.86967e-05
0.000246383
-0.000157486
0.000369983
0.000463165
0.000240162
-6.15271e-06
0.000241883
-5.55304e-06
0.000243493
-5.33661e-06
0.000244966
-4.73871e-06
0.000246354
-4.63367e-06
0.000247636
-4.14235e-06
0.00024883
-4.00198e-06
0.00024994
-3.74205e-06
0.000250962
-3.50589e-06
0.00025194
-3.47608e-06
0.000252837
-3.15835e-06
0.000253695
-3.20236e-06
0.000254483
-2.91845e-06
0.00025524
-3.01997e-06
0.000255942
-2.78501e-06
0.000256614
-2.84346e-06
0.000257239
-2.64804e-06
0.000257841
-2.7225e-06
0.000258406
-2.57479e-06
0.000258949
-2.62994e-06
0.00025946
-2.49657e-06
0.000259956
-2.54217e-06
0.000260424
-2.38798e-06
0.000260881
-2.45511e-06
0.00026131
-2.31144e-06
0.000261729
-2.38118e-06
0.000262119
-2.22598e-06
0.0002625
-2.28499e-06
0.000262852
-2.13866e-06
0.000263197
-2.1427e-06
0.000263531
-2.09824e-06
0.00026385
-2.00711e-06
0.000264165
-2.04107e-06
0.00026446
-1.90677e-06
0.000264749
-1.92331e-06
0.000265023
-1.84868e-06
0.000265276
-1.72575e-06
0.000265525
-1.7305e-06
0.000265758
-1.60053e-06
0.000265972
-1.46489e-06
0.000266179
-1.38454e-06
0.000266362
-1.2082e-06
0.00026653
-1.09983e-06
0.00026669
-1.04862e-06
0.000266833
-9.3597e-07
0.000266951
-7.90737e-07
0.00026705
-6.72927e-07
0.000267146
-5.45487e-07
0.000267212
-2.73538e-07
0.000267232
8.52305e-08
0.000267201
4.92483e-07
0.000267111
9.15822e-07
0.000266953
1.40315e-06
0.000266721
1.92353e-06
0.000266412
2.4704e-06
0.000266021
3.03589e-06
0.000265545
3.6303e-06
0.000264984
4.2161e-06
0.000264325