/*--------------------------------*- C++ -*----------------------------------*\
  =========                 |
  \\      /  F ield         | OpenFOAM: The Open Source CFD Toolbox
   \\    /   O peration     | Website:  https://openfoam.org
    \\  /    A nd           | Version:  10
     \\/     M anipulation  |
\*---------------------------------------------------------------------------*/
FoamFile
{
    format      ascii;
    class       volVectorField;
    location    "0.002";
    object      U;
}
// * * * * * * * * * * * * * * * * * * * * * * * * * * * * * * * * * * * * * //

dimensions      [0 1 -1 0 0 0 0];

internalField   nonuniform List<vector> 
8915
(
(3.39904 1.11407 1.51028e-17)
(3.40935 1.07627 -2.99785e-17)
(3.41937 1.03929 -3.74778e-15)
(3.43383 1.0055 -2.90909e-17)
(3.43785 0.969709 -3.6292e-15)
(3.45001 0.937678 2.82088e-17)
(3.45841 0.905362 -3.58898e-15)
(3.47657 0.876186 2.72563e-17)
(3.48778 0.846333 3.42987e-15)
(3.49876 0.817018 0)
(3.49986 0.787149 3.37239e-15)
(3.51386 0.760041 6.59621e-15)
(3.52267 0.73291 0)
(3.52956 0.705639 3.21208e-15)
(3.52911 0.678236 0)
(3.54323 0.653579 0)
(3.54275 0.627267 -3.09655e-15)
(3.55634 0.60343 2.38107e-17)
(3.56429 0.579345 -3.00523e-15)
(3.57039 0.555292 2.92128e-15)
(3.56805 0.53076 -2.91312e-15)
(3.58069 0.508421 0)
(3.58619 0.485656 -2.8528e-15)
(3.58896 0.462712 2.79556e-15)
(3.58256 0.439356 3.12793e-22)
(3.58236 0.416949 4.30738e-17)
(3.58289 0.395043 -2.74575e-15)
(3.58192 0.373242 -2.10145e-17)
(3.58022 0.35173 2.07886e-17)
(3.5858 0.33126 -2.04588e-17)
(3.5821 0.31001 -2.59178e-15)
(3.57622 0.289355 -1.26046e-15)
(3.5677 0.268469 1.26698e-15)
(3.55792 0.248122 1.25359e-15)
(3.54633 0.227832 0)
(3.52413 0.207224 1.60637e-22)
(3.50838 0.187722 -1.22005e-15)
(3.49981 0.168417 -2.40898e-15)
(3.48228 0.149475 0)
(3.45342 0.131061 -1.8537e-17)
(3.42974 0.113101 -1.15783e-15)
(3.40459 0.0957596 0)
(3.37809 0.078878 -5.78534e-16)
(3.3501 0.0613035 -1.79392e-17)
(3.32064 0.0440694 1.7805e-17)
(3.28977 0.0273615 -3.00483e-16)
(3.25728 0.0111547 -1.22856e-16)
(3.22281 -0.00397965 6.97305e-17)
(3.1865 -0.01854 5.19603e-17)
(3.14835 -0.0327866 -2.40965e-16)
(3.10815 -0.046666 -1.71076e-17)
(3.06586 -0.0600484 -5.44292e-16)
(3.02166 -0.0727889 5.41331e-16)
(2.97564 -0.0847029 0)
(2.92754 -0.0962241 1.10488e-15)
(2.87734 -0.107028 -3.33186e-17)
(2.82538 -0.117167 0)
(2.77167 -0.126662 -2.14622e-15)
(2.71645 -0.135434 -2.10474e-15)
(2.6596 -0.143544 4.22508e-15)
(2.6009 -0.15104 2.08798e-15)
(2.54018 -0.157818 3.25035e-17)
(2.4774 -0.163948 -3.2387e-17)
(2.41229 -0.169457 -2.06572e-15)
(2.34548 -0.174233 4.21389e-15)
(2.27756 -0.178147 7.3221e-22)
(2.20817 -0.18126 -3.4499e-17)
(2.13738 -0.18361 -3.54552e-17)
(2.06538 -0.185302 -4.62932e-15)
(1.99235 -0.186329 -4.76073e-15)
(1.91838 -0.186778 -3.85197e-17)
(1.84337 -0.186676 -5.06564e-15)
(1.76744 -0.186028 0)
(1.69045 -0.184864 4.17713e-17)
(1.61252 -0.183183 -4.29894e-17)
(1.5335 -0.181041 0)
(1.45338 -0.178494 0)
(1.37247 -0.175427 4.66051e-17)
(1.29096 -0.171913 -6.22919e-15)
(1.20893 -0.167988 4.91489e-17)
(1.12693 -0.163635 2.52683e-17)
(1.04524 -0.158896 3.32526e-15)
(0.963533 -0.153759 -2.66184e-17)
(0.881915 -0.148133 0)
(0.799999 -0.142037 3.59995e-15)
(0.717779 -0.135435 -3.66748e-15)
(0.636042 -0.128352 -2.97206e-17)
(0.555109 -0.120843 3.92548e-15)
(0.475849 -0.112896 7.90009e-22)
(0.39863 -0.104591 -3.21013e-17)
(0.324343 -0.0959516 -3.31436e-17)
(0.253118 -0.0870024 4.40305e-15)
(0.185586 -0.0777979 -3.49562e-17)
(0.122279 -0.0684189 -3.56976e-17)
(0.0641058 -0.0588359 -4.68133e-15)
(0.011741 -0.0489453 4.80124e-15)
(-0.0341965 -0.0395743 0)
(-0.0734359 -0.030683 0)
(-0.106127 -0.0221654 0)
(-0.132415 -0.0148273 -5.20589e-15)
(-0.152871 -0.00851777 0)
(-0.167624 -0.00257264 -5.38679e-15)
(-0.177005 0.00215698 5.47102e-15)
(-0.183184 0.00614424 -4.41616e-17)
(-0.185694 0.00926744 -5.71444e-15)
(-0.185002 0.0117212 4.57978e-17)
(-0.182253 0.013799 1.50699e-22)
(-0.181334 0.015802 -9.55423e-17)
(-0.189348 0.0182003 4.86647e-17)
(-0.211199 0.0211088 0)
(-0.247148 0.0240271 0)
(-0.287581 0.0257948 -3.26901e-15)
(-0.313105 0.0247577 -3.2866e-15)
(-0.299648 0.0201124 6.73024e-15)
(-0.226659 0.0121035 0)
(-0.087406 0.00223318 0)
(0.089641 -0.00674103 0)
(0.280999 -0.0192592 7.23712e-15)
(0.451279 -0.0314614 3.59103e-15)
(0.547544 -0.0428006 5.7544e-17)
(0.568845 -0.0520262 5.84342e-17)
(0.557501 -0.0573843 -3.86901e-15)
(0.573925 -0.0611147 7.665e-15)
(0.664416 -0.063922 3.96609e-15)
(0.841087 -0.0665023 -5.9217e-17)
(1.05539 -0.0710611 -3.72645e-15)
(1.26258 -0.0599586 3.65137e-15)
(1.32149 0.00953387 -7.10233e-15)
(8.79158 2.59612 0)
(8.83415 2.51892 2.42557e-15)
(8.87121 2.4424 0)
(8.90965 2.36889 0)
(8.9462 2.29644 2.29166e-15)
(8.97802 2.22599 1.77807e-17)
(9.00235 2.15474 -1.75117e-17)
(9.02179 2.08474 -2.17304e-15)
(9.04202 2.01602 -2.1629e-15)
(9.06027 1.94874 1.65037e-17)
(9.07934 1.88376 -2.13167e-15)
(9.08691 1.81762 -4.0782e-15)
(9.09636 1.75358 0)
(9.10287 1.68964 -1.99641e-15)
(9.11261 1.62861 1.52893e-17)
(9.1129 1.56645 1.91573e-15)
(9.11876 1.50705 1.47627e-17)
(9.11527 1.44672 -2.89294e-17)
(9.11432 1.38844 2.84496e-22)
(9.11127 1.33034 -3.54749e-15)
(9.11105 1.27443 1.7619e-15)
(9.10151 1.21771 -1.34913e-17)
(9.09365 1.16261 -1.76665e-21)
(9.08289 1.10751 -1.66957e-15)
(9.07454 1.05425 -1.28795e-17)
(9.06029 1.0008 1.63528e-15)
(9.04478 0.948495 1.58548e-15)
(9.02704 0.896416 1.22851e-17)
(9.0076 0.845426 -1.21126e-17)
(8.98287 0.794629 -7.60555e-16)
(8.95922 0.744587 7.50663e-16)
(8.93408 0.695714 1.15661e-17)
(8.90613 0.647002 -7.31208e-16)
(8.87648 0.599467 -7.22594e-16)
(8.84473 0.552296 0)
(8.81432 0.506353 -1.41919e-15)
(8.77891 0.461231 7.02586e-16)
(8.73734 0.416104 6.93727e-16)
(8.69726 0.372286 -6.87763e-16)
(8.6591 0.329693 7.06222e-16)
(8.61441 0.287621 6.37778e-16)
(8.56692 0.246607 2.11344e-17)
(8.51758 0.206318 6.72788e-16)
(8.46629 0.16619 0)
(8.41309 0.126388 -3.33621e-16)
(8.358 0.0875451 1.66284e-16)
(8.30067 0.0495107 0)
(8.2405 0.0128707 2.07006e-17)
(8.17745 -0.0223051 -4.137e-17)
(8.11129 -0.0563592 1.8615e-16)
(8.04145 -0.0894682 -1.86261e-16)
(7.96753 -0.121454 -3.31589e-16)
(7.88958 -0.152145 2.07709e-17)
(7.80767 -0.181668 2.0832e-17)
(7.72147 -0.20986 -2.09114e-17)
(7.63078 -0.2367 0)
(7.53576 -0.26218 6.76123e-16)
(7.43624 -0.286293 -2.12666e-17)
(7.33244 -0.308884 2.14268e-17)
(7.22407 -0.330036 -2.74336e-15)
(7.11056 -0.34974 3.75829e-22)
(6.99134 -0.367883 1.38699e-15)
(6.86602 -0.38448 0)
(6.73384 -0.399496 1.44172e-15)
(6.59562 -0.412699 -2.96231e-15)
(6.45263 -0.423828 0)
(6.30443 -0.432891 3.19889e-15)
(6.1507 -0.439949 5.26152e-17)
(5.99158 -0.445189 -3.54802e-15)
(5.82733 -0.448589 -2.87781e-17)
(5.65803 -0.45034 3.01043e-17)
(5.48353 -0.45045 4.03248e-15)
(5.30393 -0.448984 0)
(5.11901 -0.445971 4.42329e-15)
(4.92889 -0.441449 -4.68064e-15)
(4.73325 -0.435428 -4.83149e-15)
(4.53191 -0.427937 -2.5536e-15)
(4.32549 -0.419046 -2.64261e-15)
(4.1145 -0.408847 2.77798e-15)
(3.8992 -0.397395 2.96077e-15)
(3.68082 -0.384733 0)
(3.46028 -0.370973 -3.32019e-15)
(3.23698 -0.356055 5.34813e-17)
(3.01105 -0.339889 -3.60139e-15)
(2.78169 -0.32253 -2.51148e-21)
(2.54879 -0.303941 6.20054e-17)
(2.31422 -0.28432 -6.5322e-17)
(2.07896 -0.26376 4.38602e-15)
(1.84507 -0.242396 0)
(1.61376 -0.220417 0)
(1.38736 -0.19797 -8.03613e-17)
(1.16623 -0.175133 -1.07047e-14)
(0.952142 -0.152096 0)
(0.746751 -0.129091 0)
(0.553149 -0.106712 6.35792e-15)
(0.374205 -0.0851961 -1.33262e-14)
(0.211702 -0.0642906 7.05109e-15)
(0.0661608 -0.0445225 0)
(-0.0613978 -0.0260541 -7.62686e-15)
(-0.169783 -0.00865187 0)
(-0.259725 0.00673715 1.23369e-16)
(-0.331449 0.0191956 7.95417e-15)
(-0.385221 0.0296198 8.20524e-15)
(-0.426302 0.0382171 -8.34281e-15)
(-0.453864 0.044503 8.50284e-15)
(-0.469514 0.049078 0)
(-0.478024 0.0528241 -6.99529e-17)
(-0.489787 0.0572093 7.08762e-17)
(-0.521778 0.0643702 0)
(-0.583886 0.0747525 0)
(-0.671319 0.0866787 -7.19353e-17)
(-0.755747 0.0950835 4.70636e-15)
(-0.78969 0.0931621 4.66214e-15)
(-0.722216 0.0764697 7.43393e-17)
(-0.523946 0.0435165 4.859e-15)
(-0.193532 0.000516274 -7.99538e-17)
(0.207883 -0.0459746 7.97154e-17)
(0.637414 -0.0931489 -9.55781e-15)
(1.03533 -0.136505 -4.56528e-15)
(1.30549 -0.165027 -7.20583e-17)
(1.42367 -0.181332 7.27557e-17)
(1.4455 -0.191336 4.54212e-15)
(1.47655 -0.205487 -4.52045e-15)
(1.59863 -0.2307 -8.69394e-15)
(1.78956 -0.257834 6.15909e-17)
(1.83827 -0.247546 3.54366e-15)
(1.48696 -0.164378 0)
(0.328479 0.0673561 4.98181e-15)
(10.5819 3.08777 9.63305e-18)
(10.6431 2.99996 -2.44971e-15)
(10.6953 2.91205 0)
(10.7436 2.82613 -1.18384e-15)
(10.7867 2.74048 0)
(10.824 2.65701 0)
(10.8545 2.57293 0)
(10.8787 2.4904 1.08528e-15)
(10.9004 2.40864 -1.06179e-15)
(10.918 2.32828 1.05084e-15)
(10.934 2.24981 -1.04755e-15)
(10.9418 2.17113 1.01434e-15)
(10.9485 2.0945 -9.99334e-16)
(10.9512 2.01796 9.85646e-16)
(10.9538 1.94396 -1.82647e-22)
(10.9501 1.8696 -9.49194e-16)
(10.9475 1.79769 -7.22296e-18)
(10.9387 1.72542 7.08248e-18)
(10.9298 1.65537 6.94141e-18)
(10.9184 1.58554 1.73716e-15)
(10.9071 1.51778 0)
(10.8903 1.44985 -1.31042e-17)
(10.8733 1.38385 8.35473e-16)
(10.8536 1.31798 8.20557e-16)
(10.8341 1.25398 -8.06333e-16)
(10.8108 1.19003 9.00798e-22)
(10.7861 1.12764 7.6664e-16)
(10.7595 1.06558 0)
(10.7311 1.00487 1.15811e-17)
(10.6999 0.944719 -3.86776e-16)
(10.6679 0.885492 1.12117e-17)
(10.6349 0.82754 -1.10376e-17)
(10.5997 0.769948 8.13054e-23)
(10.563 0.713785 1.07419e-17)
(10.5248 0.658255 0)
(10.4861 0.603956 3.46048e-16)
(10.445 0.550568 -3.42091e-16)
(10.4003 0.497603 -3.17846e-16)
(10.3554 0.446054 6.39633e-16)
(10.3108 0.395392 -6.34082e-16)
(10.2623 0.345385 -1.99698e-17)
(10.2117 0.296692 9.91499e-18)
(10.1597 0.248839 -3.15293e-16)
(10.1061 0.201756 -9.79798e-18)
(10.0509 0.155385 1.5601e-16)
(9.99423 0.10982 -7.76814e-17)
(9.93581 0.065188 -3.655e-23)
(9.87503 0.0216639 1.93063e-17)
(9.81186 -0.0203039 -9.63852e-18)
(9.74602 -0.0607831 0)
(9.67681 -0.1002 8.66777e-17)
(9.60374 -0.138373 1.44582e-16)
(9.52685 -0.175128 -1.54493e-16)
(9.44622 -0.210524 0)
(9.36161 -0.244602 -3.10863e-16)
(9.27283 -0.277207 -3.12284e-16)
(9.17996 -0.308362 -8.77113e-23)
(9.08285 -0.338055 0)
(8.98167 -0.366116 0)
(8.8762 -0.392636 6.42539e-16)
(8.76588 -0.417587 -6.48718e-16)
(8.65014 -0.440846 -6.45497e-16)
(8.52853 -0.462442 -2.07387e-17)
(8.40025 -0.482329 1.05071e-17)
(8.26573 -0.500241 -1.38479e-15)
(8.12653 -0.515873 -1.44888e-15)
(7.9827 -0.529213 1.51794e-15)
(7.83369 -0.540329 0)
(7.67933 -0.549432 3.34393e-15)
(7.51974 -0.556482 0)
(7.35488 -0.561694 0)
(7.18446 -0.565057 -1.9292e-15)
(7.00845 -0.566648 -1.5991e-17)
(6.82651 -0.566483 -2.14053e-15)
(6.63861 -0.564602 4.55906e-15)
(6.44419 -0.561019 2.40583e-15)
(6.24258 -0.555746 1.25057e-15)
(6.03382 -0.548748 0)
(5.81771 -0.540079 2.22795e-17)
(5.59342 -0.529687 -3.04091e-15)
(5.36081 -0.517515 0)
(5.11987 -0.503579 1.69799e-15)
(4.86961 -0.487731 0)
(4.61045 -0.469944 1.91295e-15)
(4.3421 -0.450279 -4.09523e-15)
(4.06416 -0.428689 2.16472e-15)
(3.77767 -0.40535 3.61833e-17)
(3.48255 -0.380211 -2.47014e-15)
(3.18087 -0.353489 4.15312e-17)
(2.87348 -0.32526 -4.4367e-17)
(2.56289 -0.295725 3.06427e-15)
(2.24993 -0.264952 3.28446e-15)
(1.93701 -0.233296 0)
(1.62653 -0.201062 -3.7789e-15)
(1.32302 -0.168885 1.23204e-21)
(1.03086 -0.137027 8.9205e-15)
(0.753872 -0.105992 -9.83742e-15)
(0.495193 -0.0762885 5.38674e-15)
(0.258122 -0.048415 9.21414e-17)
(0.0463363 -0.0226618 -6.39885e-15)
(-0.13841 0.000755847 -1.05892e-16)
(-0.294161 0.0213717 -1.10793e-16)
(-0.42174 0.0391221 -7.2339e-15)
(-0.524286 0.0540599 7.67209e-15)
(-0.601673 0.0655234 -1.24249e-16)
(-0.656285 0.0743278 1.28445e-16)
(-0.696683 0.0820614 -1.33183e-16)
(-0.737842 0.0914587 8.94274e-15)
(-0.801623 0.105269 -8.8557e-15)
(-0.897652 0.122984 1.35739e-16)
(-1.01196 0.14042 3.97794e-22)
(-1.10134 0.147801 -1.33973e-16)
(-1.10563 0.137428 6.7766e-17)
(-0.967472 0.101953 -4.19611e-15)
(-0.674087 0.0454674 -4.194e-15)
(-0.235103 -0.0239662 0)
(0.280373 -0.100924 -4.08997e-15)
(0.82745 -0.161011 3.74531e-15)
(1.3455 -0.21603 5.62849e-17)
(1.73618 -0.2512 -5.61088e-17)
(1.95786 -0.270381 0)
(2.04129 -0.285256 0)
(2.0599 -0.304044 0)
(2.06333 -0.319204 2.89005e-15)
(1.978 -0.3018 -2.38891e-15)
(1.54434 -0.198197 -1.8375e-15)
(0.511601 0.0500191 1.35162e-15)
(-1.26318 0.431734 7.8415e-21)
(11.4324 3.33511 0)
(11.5069 3.24318 8.39124e-16)
(11.5712 3.15065 0)
(11.6289 3.05952 -3.4604e-21)
(11.6788 2.96801 0)
(11.7224 2.87866 6.08385e-18)
(11.7589 2.78875 -2.06735e-22)
(11.7891 2.70045 -5.85667e-18)
(11.8147 2.61258 1.48454e-15)
(11.8348 2.52591 -7.25796e-16)
(11.8514 2.44091 7.22793e-16)
(11.8619 2.35618 -1.08591e-17)
(11.8694 2.27333 1.36939e-15)
(11.8724 2.19054 -6.80389e-16)
(11.8731 2.11007 6.68102e-16)
(11.8695 2.02966 0)
(11.8641 1.95141 0)
(11.8546 1.87317 -6.20324e-16)
(11.8432 1.79709 0)
(11.829 1.72127 -5.96304e-16)
(11.8132 1.64744 0)
(11.7941 1.57382 8.95276e-18)
(11.7736 1.50213 -8.77733e-18)
(11.7504 1.43067 -1.09418e-15)
(11.7259 1.36105 1.08202e-15)
(11.6989 1.29168 -1.07028e-15)
(11.6702 1.22401 -5.1346e-16)
(11.6397 1.15675 -7.99828e-18)
(11.6073 1.09094 -5.0338e-16)
(11.5732 1.02589 -7.72409e-18)
(11.5374 0.961772 2.58543e-16)
(11.5005 0.899023 -7.47663e-18)
(11.4616 0.83673 0)
(11.4213 0.775946 0)
(11.3796 0.715906 2.28821e-16)
(11.3364 0.657043 0)
(11.2919 0.599249 -1.16929e-22)
(11.2452 0.542013 6.87751e-18)
(11.1972 0.486232 -4.48611e-16)
(11.1485 0.431358 2.14988e-16)
(11.0973 0.377251 6.65014e-18)
(11.044 0.32456 -9.88266e-17)
(10.9897 0.272786 -2.15228e-23)
(10.9338 0.221882 -6.4792e-18)
(10.8764 0.172103 1.029e-16)
(10.8177 0.123059 5.10999e-17)
(10.7573 0.0750098 0)
(10.6948 0.0281118 0)
(10.6301 -0.0172869 -1.79841e-23)
(10.5629 -0.0611828 6.26266e-18)
(10.4925 -0.103818 -4.99443e-17)
(10.4182 -0.145156 0)
(10.3403 -0.184998 9.32741e-17)
(10.2586 -0.223394 6.21237e-18)
(10.173 -0.260406 1.98785e-16)
(10.0834 -0.295918 1.98953e-16)
(9.98973 -0.329903 -4.04811e-16)
(9.89192 -0.362365 -8.866e-23)
(9.79011 -0.393123 1.25334e-17)
(9.68412 -0.422265 1.01732e-22)
(9.57339 -0.44976 -1.2651e-17)
(9.4574 -0.475476 6.36473e-18)
(9.33564 -0.499448 0)
(9.20734 -0.521628 -6.46381e-18)
(9.07284 -0.541739 1.27845e-15)
(8.93382 -0.559446 8.90179e-16)
(8.79054 -0.574728 -9.21323e-16)
(8.64243 -0.587671 1.69626e-22)
(8.48922 -0.598501 -1.00565e-15)
(8.33096 -0.607179 1.9173e-22)
(8.16757 -0.613927 -1.10096e-15)
(7.99873 -0.618734 1.1343e-15)
(7.82438 -0.621681 9.42581e-18)
(7.64418 -0.622781 0)
(7.4581 -0.622079 -8.9451e-22)
(7.26562 -0.619582 -7.07684e-16)
(7.06596 -0.615285 2.28533e-17)
(6.85907 -0.609166 -1.20266e-17)
(6.64468 -0.601267 -7.9784e-16)
(6.42179 -0.591516 -1.33162e-17)
(6.19001 -0.579848 -1.40479e-17)
(5.94915 -0.566267 1.48306e-17)
(5.69815 -0.550606 0)
(5.43741 -0.532865 0)
(5.16681 -0.513085 1.13945e-15)
(4.88578 -0.491214 -1.86062e-17)
(4.59497 -0.467415 0)
(4.29368 -0.441557 0)
(3.9831 -0.413849 0)
(3.66313 -0.384227 -1.52215e-15)
(3.3353 -0.352883 -3.33653e-15)
(3.00052 -0.319845 6.37035e-22)
(2.66094 -0.285532 -3.03777e-17)
(2.31849 -0.25019 4.23622e-15)
(1.97672 -0.214439 2.30484e-15)
(1.63889 -0.17856 -2.588e-15)
(1.30883 -0.143093 5.58791e-15)
(0.990768 -0.108441 -3.00475e-15)
(0.688467 -0.0752609 3.29351e-15)
(0.406774 -0.0441305 3.91572e-15)
(0.148919 -0.01524 -4.38759e-15)
(-0.0809312 0.0110311 7.38573e-17)
(-0.281787 0.0347868 -7.9777e-17)
(-0.453499 0.0554017 5.63104e-15)
(-0.594577 0.0724398 0)
(-0.70734 0.0866296 1.0017e-16)
(-0.798413 0.0998073 -1.07473e-16)
(-0.884277 0.115387 -7.28955e-15)
(-0.983836 0.136022 7.40222e-15)
(-1.10141 0.158693 0)
(-1.21458 0.176378 -3.54401e-15)
(-1.2757 0.176507 0)
(-1.23457 0.151247 0)
(-1.04204 0.0978942 0)
(-0.705045 0.0237649 -2.86034e-15)
(-0.234101 -0.0667672 8.68118e-17)
(0.314409 -0.159301 2.54438e-15)
(0.893712 -0.230813 2.41692e-15)
(1.44789 -0.281639 2.33191e-15)
(1.88487 -0.308066 0)
(2.15675 -0.320878 2.28185e-15)
(2.26846 -0.326543 -2.21863e-15)
(2.23478 -0.3291 3.17197e-17)
(2.09837 -0.317168 -2.68294e-22)
(1.76387 -0.239402 1.26013e-15)
(1.01889 -0.034564 9.51885e-16)
(-0.357187 0.333057 -7.05146e-16)
(-2.46209 0.826488 -5.9098e-16)
(12.0317 3.51596 0)
(12.1195 3.42216 -5.48015e-18)
(12.1961 3.32733 -6.79949e-16)
(12.2644 3.23341 1.35869e-15)
(12.3234 3.13863 0)
(12.3749 3.04572 0)
(12.4187 2.95216 1.00447e-17)
(12.4556 2.86004 -9.83514e-18)
(12.4868 2.76816 -6.21144e-16)
(12.5115 2.67725 9.45712e-18)
(12.5315 2.58787 -9.34983e-18)
(12.5456 2.49883 -5.75381e-16)
(12.5557 2.4116 -1.16104e-15)
(12.561 2.32437 0)
(12.5629 2.23934 -5.53647e-16)
(12.5606 2.15446 -8.48047e-18)
(12.5553 2.07165 8.31621e-18)
(12.5462 1.98895 5.22162e-16)
(12.5343 1.90837 0)
(12.5193 1.82807 0)
(12.502 1.74975 0)
(12.4818 1.67175 -4.89542e-16)
(12.4595 1.59572 -4.65009e-16)
(12.4345 1.51996 4.56246e-16)
(12.4076 1.44608 -9.09136e-16)
(12.3783 1.37254 4.52846e-16)
(12.3471 1.30075 -6.83889e-18)
(12.314 1.22945 6.70602e-18)
(12.2789 1.15964 8.36735e-16)
(12.2421 1.0907 2.13256e-16)
(12.2033 1.02271 -2.03352e-16)
(12.1633 0.956182 -6.24008e-18)
(12.1212 0.890155 1.96405e-16)
(12.0778 0.825749 6.03827e-18)
(12.0329 0.762115 -1.90117e-16)
(11.9862 0.699698 -1.87268e-16)
(11.9385 0.638461 1.84447e-16)
(11.8889 0.577842 1.76163e-16)
(11.8376 0.518734 3.64284e-16)
(11.7854 0.460621 0)
(11.7309 0.403349 0)
(11.6745 0.347564 1.72671e-16)
(11.6169 0.292769 -2.41721e-23)
(11.5579 0.238876 -5.27974e-18)
(11.4974 0.186325 -7.83993e-17)
(11.4355 0.134562 -4.14138e-17)
(11.3721 0.0838273 5.13026e-18)
(11.3066 0.034324 -5.08815e-18)
(11.2389 -0.01364 1.3854e-25)
(11.1688 -0.0602231 2.00628e-17)
(11.0956 -0.105316 -3.98728e-17)
(11.0186 -0.149016 0)
(10.9378 -0.191152 -7.8901e-17)
(10.8532 -0.231813 -4.90941e-18)
(10.7648 -0.270977 1.61415e-16)
(10.6723 -0.308571 4.87733e-18)
(10.5757 -0.344567 -4.86679e-18)
(10.475 -0.378973 4.86025e-18)
(10.3702 -0.411602 3.06045e-16)
(10.2612 -0.442534 0)
(10.1475 -0.471738 3.11129e-16)
(10.0285 -0.499089 0)
(9.90369 -0.524612 0)
(9.77235 -0.548257 0)
(9.63479 -0.569735 -6.39416e-16)
(9.49278 -0.588685 5.17963e-18)
(9.34666 -0.605087 1.1911e-22)
(9.19588 -0.619037 -5.58696e-18)
(9.0401 -0.630778 -5.81171e-18)
(8.87933 -0.640275 6.0499e-18)
(8.71344 -0.647752 8.05858e-16)
(8.5421 -0.653202 0)
(8.3652 -0.656704 0)
(8.18243 -0.658271 0)
(7.99374 -0.657946 -9.49324e-16)
(7.79862 -0.655734 5.02326e-16)
(7.59629 -0.651634 5.07399e-16)
(7.38668 -0.645625 0)
(7.16957 -0.637744 5.5405e-16)
(6.94399 -0.627922 1.18367e-15)
(6.70953 -0.616099 9.60306e-18)
(6.46606 -0.602285 -6.53727e-16)
(6.21248 -0.586323 0)
(5.9491 -0.568215 1.1049e-17)
(5.6758 -0.547989 -1.1582e-17)
(5.39193 -0.525585 1.21729e-17)
(5.0981 -0.501168 -8.34852e-16)
(4.79353 -0.474598 0)
(4.47909 -0.446088 1.43511e-17)
(4.15449 -0.415543 9.53988e-16)
(3.82083 -0.383175 1.051e-15)
(3.479 -0.348998 1.08097e-15)
(3.13082 -0.313443 0)
(2.77788 -0.27672 -1.26227e-15)
(2.42292 -0.239449 -1.36944e-15)
(2.06855 -0.201848 2.30643e-17)
(1.71822 -0.164443 -3.25677e-15)
(1.3762 -0.127659 0)
(1.04595 -0.092138 -1.94871e-15)
(0.732316 -0.0584651 -3.37848e-17)
(0.438383 -0.0270183 2.45015e-15)
(0.168491 0.00173498 0)
(-0.0753888 0.0280822 -3.03547e-15)
(-0.291866 0.0516284 -6.70814e-15)
(-0.479124 0.0718959 -5.84163e-17)
(-0.639055 0.0896701 0)
(-0.776842 0.107042 4.58889e-15)
(-0.904945 0.127639 0)
(-1.03436 0.152554 -8.02702e-17)
(-1.161 0.176507 -5.0634e-15)
(-1.26124 0.190171 2.42581e-15)
(-1.29813 0.181688 1.5128e-16)
(-1.22534 0.144039 -2.30246e-15)
(-1.02407 0.0777128 -6.14487e-17)
(-0.687819 -0.0110248 1.82885e-15)
(-0.223686 -0.113506 1.681e-15)
(0.322167 -0.212917 0)
(0.900523 -0.294497 -2.91479e-15)
(1.45624 -0.34046 -1.52504e-15)
(1.89965 -0.352406 -1.38884e-15)
(2.1805 -0.34796 -1.4392e-15)
(2.28218 -0.334191 1.34424e-15)
(2.20644 -0.316308 3.80248e-17)
(1.97022 -0.268668 0)
(1.47339 -0.131252 -8.03135e-16)
(0.509963 0.164021 -5.89829e-16)
(-1.13208 0.646067 -1.54994e-17)
(-3.50761 1.25607 4.41932e-16)
(12.5042 3.66154 -6.36384e-16)
(12.6059 3.56734 6.44428e-16)
(12.6957 3.47163 6.20547e-16)
(12.7759 3.37639 -1.23115e-15)
(12.8454 3.27981 5.9248e-16)
(12.9062 3.18473 -5.83507e-16)
(12.9586 3.0888 0)
(13.0033 2.99406 0)
(13.0413 2.89939 5.64701e-16)
(13.072 2.80542 0)
(13.0971 2.71285 5.44464e-16)
(13.1158 2.62052 -8.31422e-18)
(13.13 2.52992 5.24367e-16)
(13.1389 2.43925 8.01962e-18)
(13.1435 2.35068 -7.87776e-18)
(13.1436 2.26221 7.72276e-18)
(13.1399 2.17576 4.84711e-16)
(13.1322 2.08941 0)
(13.1211 2.00514 0)
(13.1065 1.92115 4.63963e-16)
(13.0891 1.83913 -4.54202e-16)
(13.0686 1.75744 4.4535e-16)
(13.0455 1.67775 -8.88224e-22)
(13.0196 1.59836 -6.58292e-18)
(12.9914 1.52089 4.13027e-16)
(12.9607 1.44378 -4.11221e-16)
(12.9279 1.36848 6.20609e-18)
(12.8929 1.29369 -6.08075e-18)
(12.8556 1.22044 -7.52116e-16)
(12.8166 1.14812 -5.84873e-18)
(12.7753 1.07677 1.89599e-16)
(12.7325 1.00695 -5.63563e-18)
(12.6877 0.937691 -1.82708e-16)
(12.6414 0.870193 5.44011e-18)
(12.5936 0.803431 0)
(12.5438 0.737937 3.31293e-16)
(12.493 0.673705 5.17166e-18)
(12.4402 0.610141 0)
(12.3856 0.548139 -1.60361e-16)
(12.3299 0.487217 0)
(12.272 0.427195 -1.45955e-16)
(12.2122 0.368721 -9.59893e-17)
(12.1512 0.311311 1.6106e-16)
(12.0887 0.254839 -9.35511e-18)
(12.0247 0.199802 9.24165e-18)
(11.9594 0.145697 -6.97765e-24)
(11.8925 0.0926095 0)
(11.8235 0.040817 0)
(11.7523 -0.00935139 4.42534e-18)
(11.6788 -0.0581636 -3.50776e-17)
(11.6022 -0.105433 4.34655e-17)
(11.5219 -0.151108 6.89799e-17)
(11.4377 -0.195161 0)
(11.3498 -0.237669 0)
(11.2579 -0.278616 -2.78632e-16)
(11.1619 -0.317923 1.67921e-17)
(11.0618 -0.355568 2.67346e-16)
(10.9575 -0.391561 1.17609e-22)
(10.8491 -0.425708 -5.38884e-16)
(10.7365 -0.458081 0)
(10.6192 -0.48865 -2.55619e-16)
(10.4965 -0.517286 -2.717e-16)
(10.3681 -0.544014 0)
(10.233 -0.568782 -2.55051e-16)
(10.0918 -0.591288 2.67628e-16)
(9.94615 -0.611154 -8.64403e-18)
(9.79654 -0.628358 5.72513e-16)
(9.64241 -0.643007 5.93022e-16)
(9.4834 -0.655361 6.14922e-16)
(9.31945 -0.665387 0)
(9.15043 -0.673314 0)
(8.97596 -0.679136 -6.9713e-16)
(8.7959 -0.682931 2.22471e-17)
(8.60993 -0.684709 -1.15434e-17)
(8.41799 -0.684514 3.72065e-16)
(8.21958 -0.682346 -3.98533e-16)
(8.01393 -0.678212 -4.00594e-16)
(7.80093 -0.672087 4.30072e-16)
(7.5804 -0.664005 -4.61238e-16)
(7.35139 -0.653899 -4.49737e-16)
(7.11347 -0.641711 0)
(6.86656 -0.627452 1.02209e-15)
(6.60952 -0.610971 5.06199e-16)
(6.3426 -0.59227 0)
(6.06564 -0.571371 5.68092e-16)
(5.77795 -0.548211 0)
(5.48013 -0.522955 6.00588e-16)
(5.1714 -0.495468 -6.26154e-16)
(4.85258 -0.465968 7.01362e-16)
(4.52336 -0.434372 -2.22041e-17)
(4.1847 -0.400917 2.3467e-17)
(3.83735 -0.365624 -8.12676e-16)
(3.48295 -0.328926 8.37293e-16)
(3.12288 -0.29103 0)
(2.75957 -0.252566 -2.95806e-17)
(2.3954 -0.21375 1.57329e-17)
(2.03344 -0.175142 2.13867e-22)
(1.67777 -0.13716 1.82861e-17)
(1.33159 -0.100442 4.13462e-22)
(0.999715 -0.0655479 0)
(0.685157 -0.0328423 1.52931e-15)
(0.392255 -0.00286602 1.72665e-15)
(0.123467 0.0245864 1.829e-15)
(-0.119261 0.0492129 2.14459e-15)
(-0.334211 0.0707411 -3.64792e-17)
(-0.523237 0.0901387 2.62752e-15)
(-0.6902 0.109679 -2.89662e-15)
(-0.844528 0.132704 3.21581e-15)
(-0.991757 0.159199 -5.20909e-17)
(-1.12356 0.182257 6.73788e-15)
(-1.21792 0.191834 -5.13503e-17)
(-1.24435 0.175384 4.93559e-17)
(-1.17112 0.127951 1.44148e-15)
(-0.980524 0.0515214 3.98219e-17)
(-0.66126 -0.0497611 -3.60856e-17)
(-0.21498 -0.160402 -7.69647e-22)
(0.317542 -0.266233 -3.25773e-17)
(0.885933 -0.352431 3.08968e-17)
(1.43317 -0.394744 0)
(1.87054 -0.392392 9.27787e-16)
(2.1463 -0.367311 2.99012e-17)
(2.22368 -0.328097 0)
(2.10925 -0.282838 0)
(1.79012 -0.196829 -7.07234e-16)
(1.15601 0.00463954 1.74503e-17)
(-0.00329481 0.398089 0)
(-1.90352 1.00757 -3.84022e-16)
(-4.51505 1.73405 -3.64966e-16)
(12.8924 3.78322 5.96037e-16)
(13.0093 3.68986 -5.86522e-16)
(13.1133 3.59443 5.74635e-16)
(13.2062 3.49895 5.79648e-16)
(13.2875 3.40169 -5.58628e-16)
(13.3589 3.30546 5.50753e-16)
(13.4211 3.20815 0)
(13.4748 3.11172 -8.45161e-18)
(13.5209 3.01516 -5.25953e-16)
(13.5589 2.919 5.2115e-16)
(13.5903 2.82407 -1.03948e-15)
(13.615 2.72922 5.12019e-16)
(13.6344 2.63601 -7.76517e-18)
(13.648 2.5426 7.60206e-18)
(13.6566 2.45117 -4.85452e-16)
(13.6601 2.35977 1.46435e-17)
(13.6593 2.2703 -7.17943e-18)
(13.654 2.18087 0)
(13.6447 2.09347 -4.41521e-16)
(13.6316 2.00632 -4.3295e-16)
(13.6151 1.92111 4.23757e-16)
(13.5951 1.83622 4.15358e-16)
(13.5722 1.75332 -8.19289e-22)
(13.5462 1.67073 3.988e-16)
(13.5176 1.59007 1.22128e-17)
(13.4862 1.5098 -1.19671e-17)
(13.4524 1.43135 0)
(13.4161 1.35344 -3.79096e-16)
(13.3773 1.2771 3.83145e-16)
(13.3365 1.20171 -1.10327e-17)
(13.2932 1.12732 -3.35691e-16)
(13.2482 1.0545 -2.12251e-17)
(13.2011 0.982371 -1.66664e-16)
(13.1522 0.912009 1.02247e-17)
(13.1017 0.842398 1.70618e-16)
(13.0492 0.774095 -1.57803e-16)
(12.9954 0.707123 -9.68818e-18)
(12.9396 0.640865 0)
(12.8818 0.576211 0)
(12.8228 0.512715 0)
(12.7616 0.450172 2.90094e-16)
(12.6984 0.389231 -1.4288e-16)
(12.634 0.329428 2.68858e-23)
(12.568 0.270602 -8.67644e-18)
(12.5005 0.213262 -1.76201e-23)
(12.4315 0.157038 7.59861e-17)
(12.361 0.101792 3.33358e-17)
(12.2883 0.0478815 8.23235e-18)
(12.2135 -0.00431035 -8.13757e-18)
(12.1364 -0.0550711 2.41446e-17)
(12.0562 -0.104344 2.38889e-17)
(11.9724 -0.151799 -7.09442e-17)
(11.8846 -0.197567 7.80755e-18)
(11.7931 -0.241717 0)
(11.6975 -0.284245 -7.67057e-18)
(11.5978 -0.325071 7.61082e-18)
(11.494 -0.36417 -2.41802e-16)
(11.386 -0.401558 -7.50709e-18)
(11.2738 -0.437035 2.46298e-16)
(11.1574 -0.470665 -2.37525e-16)
(11.0361 -0.502416 2.36385e-16)
(10.9096 -0.532156 2.35439e-16)
(10.7773 -0.559909 -7.33338e-18)
(10.6384 -0.585624 2.41376e-16)
(10.4934 -0.608989 0)
(10.344 -0.629607 7.64637e-18)
(10.1908 -0.647457 -5.13136e-16)
(10.0333 -0.662658 -5.22159e-16)
(9.871 -0.675486 -3.62686e-22)
(9.70391 -0.685911 -5.59327e-16)
(9.5318 -0.694165 0)
(9.35429 -0.700244 1.19784e-15)
(9.1712 -0.704224 0)
(8.98219 -0.706114 -6.41443e-16)
(8.78718 -0.705955 -3.32595e-16)
(8.58569 -0.703747 3.44187e-16)
(8.37693 -0.699499 0)
(8.1608 -0.693184 -3.2731e-22)
(7.93711 -0.684832 3.82831e-16)
(7.70492 -0.674376 -3.83688e-16)
(7.46383 -0.66176 -4.23674e-16)
(7.21374 -0.646992 -4.12949e-16)
(6.95353 -0.629926 -8.95728e-16)
(6.68337 -0.610564 0)
(6.40309 -0.588925 -4.75424e-16)
(6.11192 -0.564943 4.78082e-16)
(5.81047 -0.538783 3.21126e-17)
(5.49795 -0.510312 1.04884e-15)
(5.17511 -0.479757 -5.74677e-16)
(4.84166 -0.447044 5.96529e-16)
(4.49844 -0.412432 1.89711e-17)
(4.14613 -0.375951 -1.97542e-17)
(3.78619 -0.338046 -6.65932e-16)
(3.41996 -0.298932 6.96443e-16)
(3.0497 -0.259269 -2.30743e-17)
(2.67763 -0.219302 2.42815e-17)
(2.30661 -0.179631 4.0825e-22)
(1.94051 -0.140671 -2.75572e-17)
(1.58235 -0.103081 9.77516e-16)
(1.23686 -0.0674191 0)
(0.906998 -0.0340298 -2.48228e-22)
(0.597222 -0.00344163 -1.21086e-15)
(0.310254 0.0245176 -1.32289e-15)
(0.0485188 0.0494894 0)
(-0.186108 0.0713696 -1.61163e-15)
(-0.395283 0.0913369 -3.53211e-15)
(-0.581535 0.111754 2.02041e-15)
(-0.75215 0.135714 -2.13197e-15)
(-0.910041 0.162352 -7.03094e-17)
(-1.04602 0.183527 -8.5686e-23)
(-1.14029 0.188409 3.51332e-17)
(-1.16831 0.165588 1.28508e-22)
(-1.10472 0.109606 -3.14856e-17)
(-0.930859 0.0231831 -8.80123e-16)
(-0.632697 -0.0890344 -8.6282e-16)
(-0.207781 -0.208914 -8.01867e-16)
(0.307258 -0.321744 -2.40791e-17)
(0.862352 -0.410395 4.7044e-22)
(1.39733 -0.447812 4.50797e-17)
(1.82404 -0.43061 -2.23579e-17)
(2.08735 -0.382247 0)
(2.13579 -0.313923 0)
(1.97745 -0.236074 -1.93071e-17)
(1.5778 -0.104498 3.30662e-17)
(0.812974 0.169924 4.32769e-16)
(-0.546467 0.676515 -3.84334e-16)
(-2.6985 1.42113 -1.92423e-21)
(-5.50309 2.2533 -9.59089e-18)
(13.3462 3.79404 -5.62225e-16)
(13.4659 3.70011 3.49106e-21)
(13.5728 3.60548 8.6198e-18)
(13.6672 3.50859 -3.26682e-22)
(13.7506 3.4122 -1.67659e-17)
(13.8242 3.31446 -5.22409e-16)
(13.8883 3.21719 -5.21287e-16)
(13.9439 3.11955 0)
(13.9905 3.02197 -5.03704e-16)
(14.0297 2.9254 9.98073e-16)
(14.0616 2.82871 0)
(14.0875 2.73349 4.74074e-16)
(14.1069 2.63794 7.37028e-18)
(14.1207 2.5442 -1.59882e-21)
(14.1288 2.45038 0)
(14.1319 2.35839 -8.77968e-16)
(14.1299 2.26636 4.23793e-16)
(14.1236 2.17626 -1.19484e-21)
(14.1128 2.08637 0)
(14.0982 1.99837 -1.28522e-17)
(14.0797 1.91064 -3.90459e-16)
(14.0579 1.82488 7.89319e-16)
(14.0326 1.73943 -7.73586e-16)
(14.0044 1.65589 0)
(13.9731 1.57274 3.59515e-16)
(13.939 1.49142 1.13646e-17)
(13.9021 1.41065 3.5591e-16)
(13.8624 1.33145 3.59832e-16)
(13.8204 1.25325 3.30724e-16)
(13.7756 1.17603 1.77888e-16)
(13.7289 1.10043 -8.92625e-23)
(13.6799 1.02564 1.50767e-16)
(13.6289 0.952554 1.5773e-16)
(13.5762 0.880281 -9.66811e-18)
(13.5212 0.809343 -1.42388e-16)
(13.4648 0.739795 0)
(13.4062 0.671006 0)
(13.3455 0.603852 -1.43749e-16)
(13.2834 0.537929 -1.50049e-16)
(13.2191 0.47301 -1.38871e-16)
(13.1527 0.409737 8.5398e-18)
(13.0848 0.347678 -1.26088e-16)
(13.0155 0.28663 6.62146e-17)
(12.9445 0.227118 -8.15228e-18)
(12.872 0.168897 -3.21294e-17)
(12.7978 0.111613 -3.16698e-17)
(12.7214 0.0556884 -7.80964e-18)
(12.643 0.00157092 7.70833e-18)
(12.5622 -0.0510205 -1.52243e-17)
(12.4785 -0.102116 -3.00796e-17)
(12.391 -0.151316 5.9456e-17)
(12.2996 -0.198678 0)
(12.2044 -0.244359 5.81505e-17)
(12.1051 -0.288354 7.19447e-18)
(12.0016 -0.330585 -1.21133e-16)
(11.894 -0.371027 2.25958e-16)
(11.7821 -0.409699 0)
(11.6661 -0.446398 0)
(11.5457 -0.481177 2.20642e-16)
(11.4206 -0.514002 0)
(11.2902 -0.544742 -2.17784e-16)
(11.1539 -0.573417 -2.166e-16)
(11.0111 -0.599975 -2.15565e-16)
(10.8622 -0.624098 0)
(10.7091 -0.64537 0)
(10.5524 -0.663775 0)
(10.3915 -0.679442 0)
(10.2261 -0.69266 -4.92664e-16)
(10.056 -0.703407 5.09177e-16)
(9.88105 -0.711914 8.2184e-18)
(9.70074 -0.718182 -5.51773e-16)
(9.51489 -0.722283 -5.61072e-16)
(9.32315 -0.724225 5.79697e-16)
(9.12542 -0.724047 0)
(8.92122 -0.721746 0)
(8.70977 -0.717335 -9.99764e-18)
(8.49094 -0.710786 -6.62063e-16)
(8.26455 -0.702122 3.53131e-16)
(8.02966 -0.691279 3.53453e-16)
(7.78589 -0.6782 7.31513e-16)