/*--------------------------------*- C++ -*----------------------------------*\
  =========                 |
  \\      /  F ield         | OpenFOAM: The Open Source CFD Toolbox
   \\    /   O peration     | Website:  https://openfoam.org
    \\  /    A nd           | Version:  9
     \\/     M anipulation  |
\*---------------------------------------------------------------------------*/
FoamFile
{
    format      ascii;
    class       volScalarField;
    location    "0.0425";
    object      alphat;
}
// * * * * * * * * * * * * * * * * * * * * * * * * * * * * * * * * * * * * * //

dimensions      [1 -1 -1 0 0 0 0];

internalField   nonuniform List<scalar> 
12072
(
0.0163763
0.0163764
0.0163767
0.0163769
0.0163772
0.0163774
0.0163776
0.0163778
0.016378
0.0163782
0.0163784
0.0163786
0.0163788
0.016379
0.0163792
0.0163794
0.0163795
0.0163797
0.0163799
0.01638
0.0163802
0.0163804
0.0163805
0.0163807
0.0163808
0.016381
0.0163811
0.0163812
0.0163814
0.0163815
0.0163817
0.0163818
0.0163819
0.016382
0.0163822
0.0163823
0.0163824
0.0163825
0.0163826
0.0163827
0.0163829
0.016383
0.0163831
0.0163832
0.0163833
0.0163834
0.0163835
0.0163836
0.0163837
0.0163838
0.0163839
0.016384
0.0163841
0.0163842
0.0163843
0.0163844
0.0163845
0.0163846
0.0163846
0.0163847
0.0163848
0.0163865
0.0163867
0.016387
0.0163873
0.0163876
0.0163879
0.0163883
0.0163886
0.0163889
0.0163893
0.0163896
0.0163899
0.0163902
0.0163905
0.0163908
0.0163912
0.0163915
0.0163918
0.0163921
0.0163924
0.0163927
0.016393
0.0163933
0.0163936
0.0163939
0.0163942
0.0163946
0.0163949
0.0163952
0.0163955
0.0163958
0.0163961
0.0163964
0.0163968
0.0163971
0.0163974
0.0163978
0.0163981
0.0163984
0.0163988
0.0163992
0.0163995
0.0163999
0.0164003
0.0164007
0.016401
0.0164014
0.0164019
0.0164023
0.0164027
0.0164032
0.0164036
0.0164041
0.0164046
0.0164051
0.0164057
0.0164062
0.0164068
0.0164074
0.016408
0.0164087
0.0163684
0.0163683
0.0163681
0.016368
0.0163678
0.0163675
0.0163673
0.0163671
0.0163669
0.0163666
0.0163664
0.0163662
0.016366
0.0163657
0.0163655
0.0163653
0.0163651
0.0163649
0.0163647
0.0163645
0.0163643
0.0163641
0.0163639
0.0163638
0.0163636
0.0163635
0.0163634
0.0163633
0.0163633
0.0163632
0.0163632
0.0163632
0.0163632
0.0163632
0.0163632
0.0163632
0.0163632
0.0163632
0.0163633
0.0163633
0.0163634
0.0163634
0.0163635
0.0163636
0.0163636
0.0163637
0.0163638
0.0163639
0.0163641
0.0163642
0.0163643
0.0163645
0.0163646
0.0163648
0.016365
0.0163652
0.0163655
0.0163657
0.016366
0.0163663
0.0163667
0.0163436
0.0163437
0.0163437
0.0163436
0.0163438
0.016344
0.0163443
0.0163446
0.016345
0.0163454
0.0163459
0.0163464
0.016347
0.0163476
0.0163482
0.0163489
0.0163495
0.0163501
0.0163507
0.0163514
0.016352
0.0163526
0.0163532
0.0163538
0.0163544
0.016355
0.0163556
0.0163562
0.0163568
0.0163574
0.016358
0.0163586
0.0163592
0.0163598
0.0163603
0.0163609
0.0163615
0.016362
0.0163626
0.0163632
0.0163637
0.0163643
0.0163648
0.0163653
0.0163659
0.0163664
0.0163669
0.0163674
0.0163679
0.0163685
0.016369
0.0163695
0.0163699
0.0163704
0.0163709
0.0163714
0.0163719
0.0163723
0.0163728
0.0163732
0.0163737
0.016362
0.016362
0.016362
0.016362
0.016362
0.0163621
0.0163621
0.0163621
0.0163621
0.0163621
0.0163621
0.0163622
0.0163622
0.0163622
0.0163622
0.0163622
0.0163621
0.016362
0.0163618
0.0163616
0.0163613
0.0163609
0.0163608
0.0163607
0.0163606
0.0163605
0.0163605
0.0163605
0.0163606
0.0163606
0.0163607
0.0163608
0.0163609
0.016361
0.0163611
0.0163613
0.0163615
0.0163616
0.0163618
0.0163619
0.0163621
0.0163622
0.0163623
0.0163625
0.0163626
0.0163628
0.0163629
0.016363
0.0163632
0.0163633
0.0163634
0.0163635
0.0163637
0.0163638
0.0163639
0.016364
0.0163641
0.0163642
0.0163643
0.0163645
0.0163646
0.0163217
0.0163217
0.0163216
0.0163216
0.0163216
0.0163215
0.0163215
0.0163214
0.0163214
0.0163214
0.0163214
0.0163214
0.0163213
0.0163213
0.0163213
0.0163212
0.016321
0.0163207
0.0163203
0.0163201
0.01632
0.01632
0.01632
0.01632
0.0163201
0.0163202
0.0163203
0.0163204
0.0163205
0.0163207
0.0163209
0.0163211
0.0163213
0.0163215
0.0163217
0.016322
0.0163223
0.0163226
0.0163229
0.0163232
0.0163235
0.0163238
0.0163242
0.0163245
0.0163248
0.0163251
0.0163254
0.0163257
0.016326
0.0163263
0.0163266
0.0163269
0.0163271
0.0163274
0.0163277
0.0163279
0.0163281
0.0163284
0.0163286
0.0163288
0.016329
0.0162862
0.0162864
0.0162867
0.016287
0.0162872
0.0162875
0.0162877
0.0162879
0.0162881
0.0162883
0.0162885
0.0162887
0.0162888
0.0162889
0.0162891
0.0162892
0.0162893
0.0162893
0.0162894
0.0162894
0.0162895
0.0162895
0.0162895
0.0162895
0.0162894
0.0162893
0.0162892
0.0162889
0.0162886
0.0162882
0.0162879
0.0162875
0.0162871
0.0162868
0.0162865
0.0162861
0.0162858
0.0162854
0.0162851
0.0162848
0.0162844
0.0162841
0.0162838
0.0162835
0.0162831
0.0162828
0.0162825
0.0162822
0.0162819
0.0162816
0.0162813
0.016281
0.0162806
0.0162803
0.01628
0.0162797
0.0162794
0.0162791
0.0162788
0.0162785
0.0162783
0.0162645
0.0162647
0.0162649
0.0162651
0.0162653
0.0162655
0.0162658
0.016266
0.0162663
0.0162666
0.0162669
0.0162672
0.0162675
0.0162678
0.0162681
0.0162684
0.0162687
0.0162691
0.0162694
0.0162697
0.0162701
0.0162705
0.0162708
0.0162712
0.0162715
0.0162719
0.0162722
0.0162725
0.0162729
0.0162732
0.0162735
0.0162738
0.0162741
0.0162743
0.0162746
0.0162749
0.0162751
0.0162753
0.0162755
0.0162757
0.0162759
0.0162761
0.0162763
0.0162764
0.0162765
0.0162767
0.0162768
0.0162768
0.0162769
0.0162769
0.0162769
0.0162769
0.0162769
0.0162768
0.0162767
0.0162766
0.0162763
0.0162759
0.0162754
0.0162748
0.0162743
0.0162512
0.0162516
0.0162519
0.0162522
0.0162525
0.0162528
0.0162531
0.0162533
0.0162536
0.0162538
0.016254
0.0162543
0.0162545
0.0162546
0.0162548
0.0162549
0.0162551
0.0162552
0.0162553
0.0162553
0.0162554
0.0162554
0.0162553
0.0162552
0.0162551
0.0162548
0.0162543
0.0162538
0.0162533
0.0162528
0.0162523
0.0162518
0.0162513
0.0162508
0.0162503
0.0162498
0.0162493
0.0162489
0.0162484
0.0162479
0.0162474
0.016247
0.0162465
0.016246
0.0162456
0.0162451
0.0162447
0.0162442
0.0162437
0.0162433
0.0162428
0.0162423
0.0162419
0.0162414
0.0162409
0.0162405
0.01624
0.0162395
0.016239
0.0162386
0.0162381
0.0162332
0.0162326
0.0162321
0.0162315
0.016231
0.0162305
0.0162299
0.0162294
0.0162288
0.0162283
0.0162278
0.0162275
0.0162275
0.0162275
0.0162276
0.0162277
0.0162279
0.0162281
0.0162284
0.0162288
0.0162291
0.0162295
0.0162298
0.0162302
0.0162305
0.0162308
0.0162311
0.0162314
0.0162317
0.0162319
0.0162322
0.0162324
0.0162326
0.0162328
0.016233
0.0162332
0.0162333
0.0162334
0.0162335
0.0162336
0.0162336
0.0162336
0.0162335
0.0162334
0.0162331
0.0162327
0.0162321
0.0162314
0.0162308
0.0162302
0.0162295
0.0162289
0.0162282
0.0162276
0.0162269
0.0162263
0.0162257
0.016225
0.0162244
0.0162237
0.0162231
0.016218
0.0162173
0.0162167
0.0162161
0.0162154
0.0162148
0.0162141
0.0162135
0.0162128
0.0162122
0.0162115
0.0162109
0.0162105
0.0162104
0.0162104
0.0162105
0.0162107
0.0162109
0.0162112
0.0162115
0.0162117
0.016212
0.0162122
0.0162125
0.0162127
0.0162128
0.016213
0.0162131
0.0162132
0.0162132
0.0162132
0.0162132
0.0162131
0.0162129
0.0162126
0.0162121
0.0162114
0.0162106
0.0162099
0.0162091
0.0162084
0.0162076
0.0162069
0.0162061
0.0162054
0.0162047
0.0162039
0.0162032
0.0162024
0.0162017
0.0162009
0.0162002
0.0161994
0.0161986
0.0161979
0.0161971
0.0161964
0.0161956
0.0161948
0.0161941
0.0161933
0.0162008
0.0162
0.0161992
0.0161985
0.0161977
0.016197
0.0161962
0.0161955
0.0161947
0.0161939
0.0161932
0.0161924
0.0161916
0.0161909
0.0161901
0.0161893
0.0161886
0.0161878
0.016187
0.0161863
0.0161855
0.0161847
0.016184
0.0161832
0.0161825
0.0161817
0.0161809
0.0161802
0.0161794
0.0161786
0.0161779
0.0161771
0.0161764
0.0161759
0.0161757
0.0161757
0.0161758
0.0161758
0.0161757
0.0161756
0.0161754
0.016175
0.0161742
0.0161733
0.0161725
0.0161717
0.0161709
0.0161701
0.0161692
0.0161684
0.0161676
0.0161668
0.0161659
0.0161651
0.0161643
0.0161634
0.0161626
0.0161618
0.0161609
0.0161601
0.0161592
0.0161818
0.0161809
0.01618
0.0161792
0.0161783
0.0161774
0.0161765
0.0161756
0.0161747
0.0161738
0.0161729
0.016172
0.0161711
0.0161702
0.0161693
0.0161684
0.0161675
0.0161666
0.0161657
0.0161648
0.0161638
0.0161629
0.016162
0.0161611
0.0161602
0.0161592
0.0161583
0.0161574
0.0161565
0.0161555
0.0161546
0.0161537
0.0161528
0.0161521
0.0161519
0.0161517
0.0161515
0.0161511
0.0161504
0.0161495
0.0161485
0.0161475
0.0161465
0.0161455
0.0161446
0.0161436
0.0161426
0.0161416
0.0161406
0.0161396
0.0161386
0.0161376
0.0161366
0.0161356
0.0161346
0.0161336
0.0161325
0.0161315
0.0161305
0.0161295
0.0161285
0.0161598
0.0161588
0.0161577
0.0161567
0.0161557
0.0161546
0.0161536
0.0161525
0.0161515
0.0161504
0.0161494
0.0161483
0.0161473
0.0161462
0.0161451
0.0161441
0.016143
0.0161419
0.0161409
0.0161398
0.0161387
0.0161376
0.0161366
0.0161355
0.0161344
0.0161333
0.0161322
0.0161311
0.01613
0.0161289
0.0161278
0.0161267
0.0161256
0.0161245
0.0161234
0.0161223
0.0161211
0.01612
0.0161189
0.0161178
0.0161167
0.0161155
0.0161144
0.0161133
0.0161122
0.016111
0.0161099
0.0161087
0.0161076
0.0161064
0.0161053
0.0161041
0.0161029
0.0161018
0.0161006
0.0160994
0.0160983
0.0160971
0.0160959
0.0160947
0.0160935
0.0161352
0.016134
0.0161328
0.0161316
0.0161304
0.0161291
0.0161279
0.0161267
0.0161255
0.0161242
0.016123
0.0161217
0.0161205
0.0161193
0.016118
0.0161168
0.0161155
0.0161142
0.016113
0.0161117
0.0161105
0.0161092
0.0161079
0.0161066
0.0161054
0.0161041
0.0161028
0.0161015
0.0161002
0.0160989
0.0160976
0.0160963
0.016095
0.0160937
0.0160923
0.016091
0.0160897
0.0160884
0.016087
0.0160857
0.0160844
0.016083
0.0160817
0.0160803
0.016079
0.0160776
0.0160763
0.0160749
0.0160735
0.0160721
0.0160708
0.0160694
0.016068
0.0160666
0.0160652
0.0160638
0.0160624
0.016061
0.0160596
0.0160581
0.0160567
0.0161081
0.0161066
0.0161052
0.0161038
0.0161024
0.0161009
0.0160995
0.0160981
0.0160966
0.0160952
0.0160937
0.0160923
0.0160908
0.0160893
0.0160879
0.0160864
0.0160849
0.0160835
0.016082
0.0160805
0.016079
0.0160775
0.016076
0.0160745
0.016073
0.0160715
0.01607
0.0160685
0.016067
0.0160655
0.0160639
0.0160624
0.0160609
0.0160593
0.0160578
0.0160562
0.0160547
0.0160531
0.0160515
0.01605
0.0160484
0.0160468
0.0160452
0.0160436
0.016042
0.0160404
0.0160388
0.0160372
0.0160356
0.016034
0.0160323
0.0160307
0.0160291
0.0160274
0.0160258
0.0160241
0.0160225
0.0160208
0.0160191
0.0160174
0.0160158
0.016079
0.0160774
0.0160757
0.016074
0.0160724
0.0160707
0.016069
0.0160673
0.0160657
0.016064
0.0160623
0.0160606
0.0160589
0.0160572
0.0160555
0.0160537
0.016052
0.0160503
0.0160486
0.0160468
0.0160451
0.0160433
0.0160416
0.0160398
0.0160381
0.0160363
0.0160345
0.0160328
0.016031
0.0160292
0.0160274
0.0160256
0.0160238
0.016022
0.0160201
0.0160183
0.0160165
0.0160147
0.0160128
0.016011
0.0160091
0.0160073
0.0160054
0.0160035
0.0160016
0.0159997
0.0159979
0.015996
0.015994
0.0159921
0.0159902
0.0159883
0.0159864
0.0159844
0.0159825
0.0159805
0.0159785
0.0159766
0.0159746
0.0159726
0.0159706
0.0160483
0.0160464
0.0160445
0.0160425
0.0160406
0.0160386
0.0160367
0.0160347
0.0160328
0.0160308
0.0160288
0.0160268
0.0160248
0.0160228
0.0160208
0.0160188
0.0160168
0.0160148
0.0160128
0.0160108
0.0160087
0.0160067
0.0160047
0.0160026
0.0160005
0.0159985
0.0159964
0.0159943
0.0159922
0.0159902
0.0159881
0.0159859
0.0159838
0.0159817
0.0159796
0.0159775
0.0159753
0.0159732
0.015971
0.0159688
0.0159667
0.0159645
0.0159623
0.0159601
0.0159579
0.0159557
0.0159535
0.0159512
0.015949
0.0159467
0.0159445
0.0159422
0.01594
0.0159377
0.0159354
0.0159331
0.0159308
0.0159284
0.0159261
0.0159238
0.0159214
0.0160162
0.0160139
0.0160116
0.0160094
0.0160071
0.0160049
0.0160026
0.0160003
0.015998
0.0159957
0.0159934
0.0159911
0.0159888
0.0159865
0.0159841
0.0159818
0.0159795
0.0159771
0.0159748
0.0159724
0.01597
0.0159677
0.0159653
0.0159629
0.0159605
0.0159581
0.0159556
0.0159532
0.0159508
0.0159483
0.0159459
0.0159434
0.015941
0.0159385
0.015936
0.0159335
0.015931
0.0159285
0.0159259
0.0159234
0.0159209
0.0159183
0.0159157
0.0159132
0.0159106
0.015908
0.0159054
0.0159028
0.0159001
0.0158975
0.0158948
0.0158922
0.0158895
0.0158868
0.0158841
0.0158814
0.0158787
0.0158759
0.0158732
0.0158704
0.0158677
0.0159822
0.0159796
0.015977
0.0159743
0.0159717
0.0159691
0.0159664
0.0159638
0.0159611
0.0159585
0.0159558
0.0159531
0.0159504
0.0159477
0.015945
0.0159423
0.0159396
0.0159368
0.0159341
0.0159313
0.0159286
0.0159258
0.015923
0.0159202
0.0159175
0.0159146
0.0159118
0.015909
0.0159062
0.0159033
0.0159005
0.0158976
0.0158947
0.0158918
0.0158889
0.015886
0.0158831
0.0158801
0.0158772
0.0158742
0.0158712
0.0158682
0.0158652
0.0158622
0.0158592
0.0158561
0.0158531
0.01585
0.0158469
0.0158438
0.0158407
0.0158376
0.0158344
0.0158313
0.0158281
0.0158249
0.0158217
0.0158185
0.0158153
0.015812
0.0158088
0.0159463
0.0159433
0.0159402
0.0159372
0.0159341
0.0159311
0.015928
0.0159249
0.0159218
0.0159187
0.0159156
0.0159125
0.0159094
0.0159063
0.0159031
0.0159
0.0158968
0.0158936
0.0158904
0.0158872
0.015884
0.0158808
0.0158776
0.0158743
0.0158711
0.0158678
0.0158645
0.0158612
0.0158579
0.0158546
0.0158513
0.0158479
0.0158445
0.0158412
0.0158378
0.0158344
0.0158309
0.0158275
0.0158241
0.0158206
0.0158171
0.0158136
0.0158101
0.0158066
0.015803
0.0157994
0.0157959
0.0157923
0.0157886
0.015785
0.0157813
0.0157777
0.015774
0.0157703
0.0157665
0.0157628
0.015759
0.0157552
0.0157514
0.0157476
0.0157437
0.0159081
0.0159046
0.0159011
0.0158976
0.015894
0.0158905
0.0158869
0.0158833
0.0158797
0.0158762
0.0158725
0.0158689
0.0158653
0.0158617
0.015858
0.0158543
0.0158507
0.015847
0.0158433
0.0158395
0.0158358
0.0158321
0.0158283
0.0158245
0.0158207
0.0158169
0.0158131
0.0158093
0.0158054
0.0158015
0.0157977
0.0157938
0.0157898
0.0157859
0.0157819
0.015778
0.015774
0.0157699
0.0157659
0.0157619
0.0157578
0.0157537
0.0157496
0.0157454
0.0157413
0.0157371
0.0157329
0.0157287
0.0157244
0.0157202
0.0157159
0.0157116
0.0157072
0.0157028
0.0156985
0.015694
0.0156896
0.0156851
0.0156806
0.0156761
0.0156716
0.0158674
0.0158633
0.0158591
0.015855
0.0158509
0.0158468
0.0158426
0.0158385
0.0158343
0.0158301
0.015826
0.0158218
0.0158176
0.0158133
0.0158091
0.0158048
0.0158006
0.0157963
0.015792
0.0157877
0.0157833
0.015779
0.0157746
0.0157702
0.0157658
0.0157614
0.0157569
0.0157525
0.015748
0.0157435
0.0157389
0.0157344
0.0157298
0.0157252
0.0157206
0.015716
0.0157113
0.0157066
0.0157019
0.0156972
0.0156924
0.0156876
0.0156828
0.015678
0.0156731
0.0156682
0.0156633
0.0156583
0.0156534
0.0156483
0.0156433
0.0156382
0.0156331
0.015628
0.0156228
0.0156176
0.0156124
0.0156071
0.0156018
0.0155965
0.0155911
0.0158238
0.015819
0.0158142
0.0158094
0.0158046
0.0157998
0.015795
0.0157901
0.0157853
0.0157804
0.0157755
0.0157707
0.0157658
0.0157609
0.015756
0.015751
0.0157461
0.0157411
0.0157361
0.0157311
0.0157261
0.015721
0.0157159
0.0157108
0.0157057
0.0157006
0.0156954
0.0156902
0.015685
0.0156797
0.0156745
0.0156692
0.0156638
0.0156585
0.0156531
0.0156477
0.0156423
0.0156368
0.0156313
0.0156258
0.0156202
0.0156146
0.015609
0.0156033
0.0155976
0.0155919
0.0155861
0.0155803
0.0155745
0.0155686
0.0155627
0.0155568
0.0155508
0.0155447
0.0155387
0.0155326
0.0155264
0.0155202
0.0155139
0.0155077
0.0155013
0.015777
0.0157715
0.015766
0.0157604
0.0157548
0.0157492
0.0157436
0.015738
0.0157324
0.0157267
0.015721
0.0157154
0.0157096
0.0157039
0.0156982
0.0156925
0.0156867
0.015681
0.0156752
0.0156694
0.0156635
0.0156576
0.0156517
0.0156458
0.0156399
0.0156339
0.0156279
0.0156219
0.0156158
0.0156097
0.0156036
0.0155974
0.0155912
0.015585
0.0155787
0.0155724
0.0155661
0.0155597
0.0155533
0.0155468
0.0155403
0.0155338
0.0155272
0.0155206
0.015514
0.0155073
0.0155005
0.0154937
0.0154869
0.01548
0.0154731
0.0154661
0.015459
0.015452
0.0154448
0.0154376
0.0154304
0.0154231
0.0154157
0.0154083
0.0154008
0.0157268
0.0157204
0.015714
0.0157076
0.0157011
0.0156946
0.0156881
0.0156816
0.0156751
0.0156685
0.015662
0.0156554
0.0156487
0.0156421
0.0156354
0.0156287
0.015622
0.0156153
0.0156085
0.0156018
0.015595
0.0155882
0.0155814
0.0155745
0.0155676
0.0155607
0.0155537
0.0155467
0.0155397
0.0155326
0.0155254
0.0155183
0.0155111
0.0155038
0.0154965
0.0154892
0.0154818
0.0154744
0.0154669
0.0154594
0.0154518
0.0154442
0.0154365
0.0154288
0.015421
0.0154132
0.0154053
0.0153974
0.0153894
0.0153813
0.0153732
0.015365
0.0153568
0.0153485
0.0153401
0.0153316
0.0153231
0.0153145
0.0153059
0.0152972
0.0152883
0.0156729
0.0156655
0.015658
0.0156506
0.0156431
0.0156356
0.0156281
0.0156205
0.015613
0.0156054
0.0155977
0.0155901
0.0155824
0.0155747
0.015567
0.0155592
0.0155514
0.0155436
0.0155358
0.0155279
0.01552
0.0155121
0.0155042
0.0154962
0.0154882
0.0154802
0.0154721
0.0154639
0.0154558
0.0154475
0.0154393
0.0154309
0.0154226
0.0154142
0.0154057
0.0153972
0.0153886
0.0153799
0.0153712
0.0153625
0.0153537
0.0153448
0.0153358
0.0153268
0.0153178
0.0153086
0.0152994
0.0152901
0.0152808
0.0152714
0.0152619
0.0152523
0.0152426
0.0152329
0.0152231
0.0152132
0.0152032
0.0151931
0.0151829
0.0151726
0.0151623
0.0156148
0.0156062
0.0155976
0.015589
0.0155804
0.0155717
0.015563
0.0155543
0.0155455
0.0155367
0.0155279
0.015519
0.0155102
0.0155012
0.0154923
0.0154833
0.0154743
0.0154652
0.0154561
0.015447
0.0154378
0.0154286
0.0154194
0.0154101
0.0154008
0.0153915
0.0153821
0.0153727
0.0153632
0.0153537
0.0153441
0.0153344
0.0153247
0.015315
0.0153051
0.0152952
0.0152852
0.0152752
0.0152651
0.0152549
0.0152447
0.0152343
0.0152239
0.0152134
0.0152029
0.0151922
0.0151815
0.0151707
0.0151598
0.0151488
0.0151377
0.0151265
0.0151152
0.0151038
0.0150923
0.0150807
0.015069
0.0150571
0.0150452
0.0150331
0.015021
0.0155523
0.0155424
0.0155324
0.0155225
0.0155125
0.0155025
0.0154924
0.0154823
0.0154722
0.015462
0.0154518
0.0154416
0.0154313
0.015421
0.0154107
0.0154003
0.0153898
0.0153793
0.0153688
0.0153582
0.0153476
0.0153369
0.0153262
0.0153154
0.0153046
0.0152938
0.015283
0.015272
0.0152611
0.01525
0.0152389
0.0152277
0.0152165
0.0152051
0.0151937
0.0151822
0.0151707
0.015159
0.0151473
0.0151354
0.0151235
0.0151115
0.0150994
0.0150872
0.015075
0.0150626
0.0150501
0.0150375
0.0150248
0.0150119
0.014999
0.014986
0.0149728
0.0149595
0.0149461
0.0149325
0.0149188
0.014905
0.014891
0.0148769
0.0148626
0.015485
0.0154736
0.0154621
0.0154505
0.015439
0.0154274
0.0154158
0.0154041
0.0153924
0.0153807
0.0153689
0.0153571
0.0153452
0.0153333
0.0153213
0.0153093
0.0152973
0.0152851
0.015273
0.0152607
0.0152485
0.0152361
0.0152237
0.0152113
0.0151987
0.0151862
0.0151735
0.0151609
0.0151482
0.0151354
0.0151225
0.0151096
0.0150965
0.0150834
0.0150702
0.0150569
0.0150435
0.01503
0.0150164
0.0150027
0.0149889
0.014975
0.0149609
0.0149468
0.0149325
0.0149181
0.0149036
0.014889
0.0148742
0.0148593
0.0148443
0.0148291
0.0148137
0.0147982
0.0147826
0.0147668
0.0147508
0.0147347
0.0147184
0.0147019
0.0146852
0.0154125
0.0153993
0.015386
0.0153727
0.0153594
0.015346
0.0153326
0.0153191
0.0153056
0.0152921
0.0152785
0.0152648
0.0152511
0.0152374
0.0152236
0.0152097
0.0151958
0.0151818
0.0151677
0.0151536
0.0151394
0.0151251
0.0151108
0.0150964
0.0150819
0.0150674
0.0150528
0.0150381
0.0150233
0.0150085
0.0149937
0.0149787
0.0149637
0.0149485
0.0149332
0.0149178
0.0149023
0.0148867
0.014871
0.0148551
0.0148391
0.014823
0.0148068
0.0147904
0.0147739
0.0147572
0.0147404
0.0147234
0.0147063
0.014689
0.0146716
0.014654
0.0146362
0.0146182
0.0146
0.0145817
0.0145631
0.0145443
0.0145254
0.0145062
0.0144867
0.0153345
0.0153192
0.0153039
0.0152885
0.0152731
0.0152577
0.0152422
0.0152267
0.0152111
0.0151955
0.0151798
0.015164
0.0151482
0.0151323
0.0151164
0.0151004
0.0150843
0.0150682
0.015052
0.0150357
0.0150193
0.0150029
0.0149864
0.0149697
0.014953
0.0149362
0.0149194
0.0149024
0.0148853
0.0148682
0.014851
0.0148338
0.0148164
0.0147989
0.0147812
0.0147635
0.0147456
0.0147276
0.0147094
0.0146911
0.0146726
0.014654
0.0146353
0.0146164
0.0145973
0.014578
0.0145586
0.014539
0.0145192
0.0144992
0.0144791
0.0144587
0.0144381
0.0144173
0.0143963
0.014375
0.0143536
0.0143318
0.0143098
0.0142876
0.0142651
0.0152503
0.0152327
0.015215
0.0151973
0.0151796
0.0151618
0.0151439
0.015126
0.0151081
0.0150901
0.015072
0.0150538
0.0150356
0.0150173
0.014999
0.0149805
0.014962
0.0149434
0.0149247
0.0149059
0.0148871
0.0148681
0.0148491
0.0148299
0.0148107
0.0147914
0.0147719
0.0147524
0.0147327
0.0147129
0.0146931
0.0146731
0.0146531
0.0146329
0.0146126
0.0145922
0.0145716
0.0145508
0.0145299
0.0145088
0.0144876
0.0144662
0.0144446
0.0144228
0.0144008
0.0143786
0.0143563
0.0143337
0.0143109
0.0142879
0.0142647
0.0142412
0.0142175
0.0141936
0.0141693
0.0141449
0.0141201
0.0140951
0.0140698
0.0140441
0.0140182
0.0151597
0.0151393
0.015119
0.0150986
0.0150781
0.0150576
0.0150371
0.0150165
0.0149958
0.014975
0.0149542
0.0149333
0.0149123
0.0148913
0.0148701
0.0148489
0.0148276
0.0148062
0.0147847
0.0147631
0.0147414
0.0147196
0.0146977
0.0146756
0.0146535
0.0146313
0.0146089
0.0145864
0.0145638
0.014541
0.0145182
0.0144952
0.0144722
0.014449
0.0144257
0.0144022
0.0143785
0.0143547
0.0143307
0.0143065
0.0142821
0.0142575
0.0142327
0.0142077
0.0141825
0.0141571
0.0141314
0.0141055
0.0140794
0.014053
0.0140264
0.0139995
0.0139723
0.0139449
0.0139172
0.0138891
0.0138608
0.0138321
0.0138031
0.0137738
0.013744
0.015062
0.0150386
0.0150151
0.0149916
0.0149681
0.0149445
0.0149208
0.0148971
0.0148733
0.0148494
0.0148255
0.0148014
0.0147773
0.0147531
0.0147288
0.0147044
0.0146799
0.0146553
0.0146306
0.0146057
0.0145808
0.0145557
0.0145306
0.0145053
0.0144799
0.0144543
0.0144287
0.0144029
0.0143769
0.0143508
0.0143246
0.0142983
0.0142718
0.0142452
0.0142185
0.0141916
0.0141645
0.0141372
0.0141097
0.014082
0.0140541
0.014026
0.0139977
0.0139691
0.0139404
0.0139113
0.013882
0.0138525
0.0138227
0.0137926
0.0137623
0.0137317
0.0137007
0.0136695
0.0136379
0.013606
0.0135737
0.0135411
0.0135081
0.0134748
0.013441
0.0149568
0.0149298
0.0149028
0.0148758
0.0148487
0.0148215
0.0147943
0.014767
0.0147397
0.0147122
0.0146847
0.0146571
0.0146294
0.0146016
0.0145736
0.0145456
0.0145175
0.0144893
0.0144609
0.0144324
0.0144038
0.0143751
0.0143463
0.0143173
0.0142882
0.0142589
0.0142295
0.0142
0.0141703
0.0141405
0.0141105
0.0140804
0.0140501
0.0140197
0.0139892
0.0139585
0.0139276
0.0138965
0.0138652
0.0138336
0.0138019
0.0137699
0.0137377
0.0137052
0.0136725
0.0136395
0.0136063
0.0135728
0.013539
0.0135049
0.0134706
0.0134359
0.0134009
0.0133656
0.0133299
0.0132938
0.0132574
0.0132206
0.0131834
0.0131458
0.0131077
0.0148434
0.0148124
0.0147814
0.0147503
0.0147191
0.0146879
0.0146566
0.0146253
0.0145939
0.0145624
0.0145308
0.0144991
0.0144673
0.0144354
0.0144034
0.0143713
0.014339
0.0143067
0.0142742
0.0142416
0.0142089
0.014176
0.0141431
0.0141099
0.0140767
0.0140433
0.0140097
0.013976
0.0139422
0.0139082
0.0138741
0.0138398
0.0138053
0.0137707
0.013736
0.0137011
0.013666
0.0136307
0.0135952
0.0135594
0.0135235
0.0134873
0.0134508
0.0134142
0.0133772
0.01334
0.0133026
0.0132648
0.0132268
0.0131885
0.0131498
0.0131109
0.0130716
0.013032
0.012992
0.0129516
0.0129109
0.0128697
0.0128281
0.0127861
0.0127437
0.0147214
0.0146857
0.01465
0.0146143
0.0145785
0.0145427
0.0145068
0.0144708
0.0144348
0.0143986
0.0143624
0.0143261
0.0142897
0.0142532
0.0142165
0.0141798
0.0141429
0.014106
0.0140689
0.0140316
0.0139943
0.0139568
0.0139192
0.0138815
0.0138436
0.0138056
0.0137674
0.0137291
0.0136907
0.0136521
0.0136134
0.0135745
0.0135355
0.0134963
0.013457
0.0134175
0.0133779
0.0133381
0.0132981
0.0132578
0.0132173
0.0131767
0.0131357
0.0130946
0.0130532
0.0130115
0.0129696
0.0129274
0.012885
0.0128422
0.0127991
0.0127558
0.0127121
0.012668
0.0126236
0.0125789
0.0125337
0.0124882
0.0124422
0.0123958
0.0123489
0.0145899
0.0145489
0.0145079
0.0144669
0.0144259
0.0143848
0.0143436
0.0143024
0.0142612
0.0142198
0.0141784
0.0141368
0.0140952
0.0140534
0.0140116
0.0139697
0.0139276
0.0138855
0.0138432
0.0138008
0.0137583
0.0137157
0.013673
0.0136301
0.0135872
0.0135441
0.0135009
0.0134576
0.0134141
0.0133706
0.0133269
0.013283
0.0132391
0.013195
0.0131507
0.0131065
0.013062
0.0130174
0.0129725
0.0129275
0.0128823
0.0128369
0.0127913
0.0127455
0.0126995
0.0126533
0.0126068
0.01256
0.012513
0.0124658
0.0124183
0.0123704
0.0123223
0.0122739
0.0122251
0.012176
0.0121265
0.0120766
0.0120264
0.0119756
0.0119245
0.0144484
0.0144013
0.0143543
0.0143073
0.0142602
0.0142132
0.0141661
0.014119
0.0140717
0.0140245
0.0139771
0.0139297
0.0138822
0.0138347
0.013787
0.0137393
0.0136914
0.0136435
0.0135955
0.0135475
0.0134993
0.013451
0.0134027
0.0133543
0.0133058
0.0132572
0.0132086
0.0131598
0.013111
0.0130621
0.013013
0.0129639
0.0129148
0.0128655
0.0128161
0.0127667
0.0127172
0.0126675
0.0126178
0.0125679
0.0125178
0.0124676
0.0124172
0.0123667
0.012316
0.0122651
0.0122141
0.0121628
0.0121114
0.0120597
0.0120077
0.0119556
0.0119032
0.0118505
0.0117975
0.0117442
0.0116905
0.0116366
0.0115822
0.0115275
0.0114723
0.014296
0.0142421
0.0141882
0.0141344
0.0140805
0.0140267
0.0139729
0.0139191
0.0138652
0.0138113
0.0137574
0.0137034
0.0136494
0.0135953
0.0135412
0.013487
0.0134328
0.0133786
0.0133243
0.01327
0.0132157
0.0131613
0.0131069
0.0130525
0.012998
0.0129436
0.0128891
0.0128346
0.0127801
0.0127255
0.0126709
0.0126164
0.0125617
0.0125071
0.0124525
0.0123978
0.0123431
0.0122884
0.0122336
0.0121788
0.0121239
0.0120689
0.0120138
0.0119586
0.0119033
0.0118479
0.0117924
0.0117368
0.011681
0.0116251
0.011569
0.0115128
0.0114563
0.0113996
0.0113427
0.0112856
0.0112281
0.0111704
0.0111124
0.011054
0.0109952
0.0141321
0.0140703
0.0140087
0.0139471
0.0138856
0.0138242
0.0137628
0.0137015
0.0136402
0.0135789
0.0135176
0.0134563
0.013395
0.0133338
0.0132726
0.0132114
0.0131502
0.0130891
0.013028
0.012967
0.012906
0.0128451
0.0127843
0.0127235
0.0126628
0.0126022
0.0125416
0.0124811
0.0124207
0.0123604
0.0123001
0.0122399
0.0121798
0.0121198
0.0120598
0.0119999
0.0119401
0.0118804
0.0118207
0.011761
0.0117014
0.0116418
0.0115821
0.0115225
0.0114629
0.0114033
0.0113436
0.0112839
0.0112242
0.0111644
0.0111045
0.0110445
0.0109844
0.0109242
0.0108638
0.0108032
0.0107424
0.0106814
0.0106202
0.0105587
0.0104969
0.0139559
0.0138852
0.0138148
0.0137445
0.0136744
0.0136044
0.0135346
0.0134649
0.0133952
0.0133257
0.0132563
0.013187
0.0131178
0.0130488
0.0129798
0.012911
0.0128424
0.0127739
0.0127056
0.0126374
0.0125695
0.0125017
0.0124341
0.0123667
0.0122995
0.0122325
0.0121658
0.0120992
0.0120328
0.0119667
0.0119008
0.011835
0.0117695
0.0117042
0.011639
0.0115741
0.0115094
0.0114448
0.0113805
0.0113162
0.0112522
0.0111882
0.0111244
0.0110607
0.0109972
0.0109337
0.0108703
0.010807
0.0107437
0.0106805
0.0106173
0.0105541
0.0104908
0.0104276
0.0103642
0.0103008
0.0102373
0.0101736
0.0101098
0.0100458
0.00998151
0.0137665
0.0136858
0.0136054
0.0135254
0.0134456
0.0133661
0.0132869
0.0132079
0.0131291
0.0130506
0.0129723
0.0128942
0.0128165
0.012739
0.0126618
0.0125849
0.0125083
0.012432
0.0123561
0.0122806
0.0122054
0.0121305
0.012056
0.0119819
0.0119082
0.0118349
0.0117619
0.0116893
0.0116172
0.0115453
0.0114739
0.0114028
0.0113321
0.0112618
0.0111918
0.0111221
0.0110528
0.0109839
0.0109152
0.0108468
0.0107788
0.010711
0.0106435
0.0105762
0.0105092
0.0104424
0.0103759
0.0103095
0.0102433
0.0101772
0.0101113
0.0100454
0.00997971
0.00991404
0.0098484
0.00978278
0.00971713
0.00965144
0.00958567
0.00951979
0.00945377
0.0135631
0.0134711
0.0133796
0.0132887
0.0131982
0.0131081
0.0130185
0.0129293
0.0128405
0.0127522
0.0126643
0.0125769
0.0124899
0.0124035
0.0123176
0.0122322
0.0121474
0.0120631
0.0119794
0.0118963
0.0118137
0.0117318
0.0116505
0.0115698
0.0114896
0.0114101
0.0113312
0.0112529
0.0111751
0.011098
0.0110214
0.0109454
0.0108699
0.010795
0.0107206
0.0106467
0.0105733
0.0105004
0.010428
0.0103561
0.0102846
0.0102136
0.010143
0.0100728
0.0100029
0.00993348
0.00986436
0.00979556
0.00972706
0.00965883
0.00959085
0.00952309
0.00945553
0.00938814
0.00932088
0.00925374
0.00918668
0.00911966
0.00905265
0.00898562
0.00891854
0.0133448
0.0132402
0.0131363
0.0130332
0.0129309
0.0128292
0.0127282
0.012628
0.0125284
0.0124295
0.0123314
0.0122341
0.0121375
0.0120418
0.0119469
0.0118528
0.0117596
0.0116672
0.0115757
0.0114851
0.0113954
0.0113065
0.0112186
0.0111315
0.0110453
0.0109599
0.0108755
0.0107918
0.010709
0.010627
0.0105458
0.0104654
0.0103857
0.0103068
0.0102286
0.0101511
0.0100743
0.00999818
0.00992271
0.00984789
0.00977369
0.00970009
0.00962708
0.00955461
0.00948268
0.00941125
0.0093403
0.00926979
0.00919971
0.00913003
0.00906071
0.00899173
0.00892305
0.00885465
0.00878649
0.00871854
0.00865076
0.00858312
0.00851559
0.00844811
0.00838066
0.0131109
0.0129922
0.0128746
0.0127581
0.0126427
0.0125284
0.0124152
0.012303
0.0121919
0.012082
0.0119732
0.0118655
0.0117591
0.0116538
0.0115498
0.011447
0.0113455
0.0112452
0.0111461
0.0110483
0.0109517
0.0108563
0.0107622
0.0106692
0.0105775
0.0104869
0.0103974
0.0103091
0.0102218
0.0101356
0.0100505
0.00996636
0.00988323
0.00980106
0.00971981
0.00963946
0.00955994
0.00948131
0.00940352
0.00932656
0.00925039
0.00917499
0.00910033
0.00902636
0.00895307
0.00888042
0.00880838
0.00873691
0.00866599
0.00859559
0.00852565
0.00845617
0.00838709
0.00831839
0.00825002
0.00818196
0.00811416
0.00804658
0.00797919
0.00791195
0.00784481
0.0128606
0.0127261
0.0125934
0.0124623
0.0123328
0.0122049
0.0120786
0.0119538
0.0118307
0.0117092
0.0115894
0.0114713
0.0113549
0.0112402
0.0111272
0.0110159
0.0109064
0.0107985
0.0106923
0.0105878
0.0104849
0.0103836
0.010284
0.0101858
0.0100892
0.00999407
0.00990038
0.00980811
0.00971721
0.00962764
0.00953937
0.00945236
0.00936656
0.00928194
0.00919846
0.00911605
0.00903465
0.00895432
0.00887503
0.00879673
0.0087194
0.00864298
0.00856744
0.00849275
0.00841886
0.00834575
0.00827336
0.00820167
0.00813064
0.00806022
0.00799038
0.00792109
0.0078523
0.00778397
0.00771607
0.00764855
0.00758138
0.00751451
0.00744791
0.00738152
0.0073153
0.012593
0.0124413
0.012292
0.0121451
0.0120005
0.0118581
0.011718
0.0115801
0.0114446
0.0113115
0.0111806
0.0110521
0.0109259
0.0108021
0.0106805
0.0105613
0.0104443
0.0103295
0.0102169
0.0101064
0.00999795
0.00989157
0.00978717
0.00968469