/*--------------------------------*- C++ -*----------------------------------*\
  =========                 |
  \\      /  F ield         | OpenFOAM: The Open Source CFD Toolbox
   \\    /   O peration     | Website:  https://openfoam.org
    \\  /    A nd           | Version:  8
     \\/     M anipulation  |
\*---------------------------------------------------------------------------*/
FoamFile
{
    version     2.0;
    format      ascii;
    class       volScalarField;
    location    "1";
    object      nuTilda;
}
// * * * * * * * * * * * * * * * * * * * * * * * * * * * * * * * * * * * * * //

dimensions      [0 2 -1 0 0 0 0];

internalField   nonuniform List<scalar> 
115200
(
0.000220567
0.000226801
0.000232638
0.000238129
0.000243323
0.00024827
0.00025302
0.000257611
0.000262059
0.000266338
0.00027039
0.000274171
0.000277683
0.000280937
0.000283945
0.000286719
0.000289267
0.000291601
0.000293729
0.000295657
0.000297392
0.000298939
0.000300299
0.000301473
0.000302455
0.000303238
0.000303806
0.000304145
0.000304268
0.000304297
0.000304226
0.000304062
0.00030381
0.000303472
0.000303051
0.000302549
0.000301968
0.00030131
0.000300576
0.000299768
0.000298885
0.000297931
0.000296905
0.000295809
0.000294644
0.000293409
0.000292107
0.000290738
0.000289302
0.0002878
0.000286233
0.000284602
0.000282906
0.000281146
0.000279323
0.000277437
0.000275488
0.000273477
0.000271403
0.000269267
0.000267068
0.000264808
0.000262485
0.000260099
0.000257651
0.000255139
0.000252563
0.000249924
0.000247219
0.000244449
0.000241613
0.000238709
0.000235736
0.000232693
0.000229579
0.000226391
0.000223129
0.00021979
0.00021637
0.000212866
0.000209276
0.000205595
0.00020182
0.000197945
0.000193966
0.000189876
0.000185669
0.000181337
0.000176871
0.00017226
0.000167492
0.000162553
0.000157432
0.000152119
0.000146621
0.000140998
0.000135445
0.000130432
0.000126718
0.000124762
0.000347593
0.000345943
0.000343768
0.000341151
0.000338227
0.000335202
0.000332413
0.000330395
0.000329919
0.000331693
0.000335253
0.000339159
0.000343038
0.00034688
0.000350693
0.000354484
0.000358261
0.000362034
0.000365809
0.000369597
0.000373405
0.000377245
0.000381129
0.000385068
0.000389074
0.000393136
0.000397245
0.000401411
0.000405615
0.000409742
0.000413804
0.000417804
0.000421744
0.000425627
0.000429454
0.000433226
0.000436944
0.000440609
0.000444222
0.000447783
0.000451293
0.000454751
0.000458158
0.000461515
0.000464821
0.000468076
0.000471281
0.000474436
0.00047754
0.000480593
0.000483596
0.000486548
0.00048945
0.000492301
0.000495101
0.00049785
0.000500548
0.000503195
0.00050579
0.000508335
0.000510827
0.000513268
0.000515657
0.000517994
0.000520279
0.000522512
0.000524692
0.000526821
0.000528896
0.00053092
0.000532891
0.00053481
0.000536678
0.000538494
0.000540259
0.000541975
0.000543643
0.000545266
0.000546846
0.000548374
0.000549849
0.000551273
0.000552645
0.000553967
0.00055524
0.000556464
0.000557641
0.000558773
0.00055986
0.000560905
0.000561906
0.000562864
0.000563778
0.000564643
0.000565452
0.000566189
0.000566829
0.000567335
0.000567679
0.000567859
0.000531642
0.000544286
0.000556902
0.000569504
0.000582094
0.000594668
0.00060722
0.000619728
0.000632157
0.000644454
0.000656557
0.000668431
0.000680076
0.000691502
0.000702717
0.00071373
0.000724549
0.000735182
0.000745634
0.000755911
0.000766018
0.000775956
0.000785727
0.000795329
0.000804762
0.000814046
0.000823205
0.00083224
0.000841152
0.000849934
0.000858586
0.000867108
0.000875502
0.00088377
0.000891911
0.000899929
0.000907823
0.000915596
0.000923248
0.00093078
0.000938192
0.000945485
0.00095266
0.000959716
0.000966655
0.000973475
0.000980179
0.000986764
0.000993232
0.000999582
0.00100582
0.00101193
0.00101793
0.00102381
0.00102957
0.00103521
0.00104074
0.00104614
0.00105143
0.0010566
0.00106165
0.00106658
0.0010714
0.00107609
0.00108066
0.00108511
0.00108944
0.00109364
0.00109773
0.00110169
0.00110554
0.00110926
0.00111285
0.00111633
0.00111968
0.00112291
0.00112601
0.00112899
0.00113185
0.00113459
0.0011372
0.00113969
0.00114205
0.00114429
0.00114641
0.00114841
0.00115028
0.00115203
0.00115366
0.00115518
0.00115657
0.00115784
0.00115898
0.00116
0.00116088
0.00116163
0.00116224
0.00116271
0.00116305
0.00116324
0.000868464
0.000890306
0.0009117
0.000932672
0.000953231
0.000973386
0.000993146
0.00101252
0.00103152
0.00105017
0.00106848
0.00108647
0.00110416
0.00112156
0.00113867
0.00115551
0.00117208
0.00118839
0.00120445
0.00122027
0.00123585
0.0012512
0.00126633
0.00128124
0.00129595
0.00131044
0.00132473
0.00133882
0.00135271
0.0013664
0.00137989
0.00139319
0.00140629
0.00141919
0.00143191
0.00144443
0.00145676
0.00146891
0.00148087
0.00149264
0.00150423
0.00151563
0.00152684
0.00153787
0.00154872
0.00155938
0.00156986
0.00158015
0.00159026
0.00160019
0.00160993
0.00161948
0.00162885
0.00163804
0.00164704
0.00165585
0.00166448
0.00167293
0.00168118
0.00168926
0.00169714
0.00170484
0.00171235
0.00171968
0.00172681
0.00173376
0.00174051
0.00174708
0.00175345
0.00175964
0.00176563
0.00177143
0.00177704
0.00178246
0.00178768
0.00179271
0.00179755
0.00180219
0.00180664
0.0018109
0.00181496
0.00181883
0.0018225
0.00182598
0.00182926
0.00183235
0.00183524
0.00183794
0.00184044
0.00184274
0.00184485
0.00184676
0.00184847
0.00184998
0.00185128
0.00185239
0.00185329
0.00185399
0.00185449
0.00185478
0.00126935
0.00129819
0.00132652
0.00135437
0.00138176
0.0014087
0.0014352
0.00146129
0.00148697
0.00151225
0.00153714
0.00156167
0.00158583
0.00160963
0.0016331
0.00165622
0.001679
0.00170146
0.00172358
0.00174539
0.00176688
0.00178807
0.00180897
0.00182957
0.00184988
0.00186992
0.00188967
0.00190915
0.00192835
0.00194729
0.00196595
0.00198435
0.00200249
0.00202036
0.00203797
0.00205532
0.00207241
0.00208924
0.00210582
0.00212213
0.00213819
0.002154
0.00216955
0.00218484
0.00219987
0.00221466
0.00222918
0.00224345
0.00225747
0.00227122
0.00228473
0.00229797
0.00231096
0.00232369
0.00233616
0.00234838
0.00236033
0.00237203
0.00238347
0.00239465
0.00240557
0.00241622
0.00242662
0.00243675
0.00244662
0.00245622
0.00246556
0.00247464
0.00248345
0.002492
0.00250028
0.00250829
0.00251604
0.00252352
0.00253073
0.00253768
0.00254435
0.00255076
0.00255689
0.00256276
0.00256835
0.00257368
0.00257873
0.00258352
0.00258803
0.00259227
0.00259623
0.00259993
0.00260335
0.0026065
0.00260937
0.00261197
0.00261429
0.00261634
0.00261811
0.0026196
0.00262081
0.00262175
0.00262241
0.00262279
0.00171909
0.00175518
0.00179074
0.00182579
0.00186033
0.00189437
0.00192793
0.00196101
0.00199362
0.00202577
0.00205748
0.00208874
0.00211957
0.00214998
0.00217997
0.00220955
0.00223872
0.0022675
0.00229589
0.00232389
0.00235152
0.00237877
0.00240566
0.00243218
0.00245834
0.00248415
0.0025096
0.00253471
0.00255948
0.0025839
0.00260798
0.00263172
0.00265513
0.0026782
0.00270094
0.00272334
0.00274541
0.00276715
0.00278856
0.00280963
0.00283038
0.00285079
0.00287088
0.00289063
0.00291006
0.00292916
0.00294792
0.00296636
0.00298446
0.00300223
0.00301968
0.00303678
0.00305356
0.00307
0.00308611
0.00310189
0.00311733
0.00313243
0.0031472
0.00316163
0.00317573
0.00318948
0.0032029
0.00321597
0.00322871
0.00324111
0.00325316
0.00326487
0.00327624
0.00328726
0.00329794
0.00330827
0.00331826
0.0033279
0.0033372
0.00334615
0.00335475
0.003363
0.0033709
0.00337845
0.00338566
0.00339251
0.00339901
0.00340516
0.00341096
0.00341641
0.0034215
0.00342624
0.00343063
0.00343466
0.00343834
0.00344166
0.00344463
0.00344725
0.0034495
0.0034514
0.00345294
0.00345413
0.00345496
0.00345543
0.00221553
0.00225892
0.00230171
0.00234395
0.00238564
0.00242681
0.00246745
0.00250757
0.00254717
0.00258628
0.00262488
0.00266299
0.00270061
0.00273775
0.00277441
0.00281061
0.00284634
0.00288161
0.00291643
0.0029508
0.00298473
0.00301821
0.00305126
0.00308388
0.00311607
0.00314783
0.00317918
0.0032101
0.0032406
0.00327069
0.00330037
0.00332963
0.00335849
0.00338693
0.00341497
0.00344259
0.00346981
0.00349662
0.00352303
0.00354903
0.00357462
0.00359981
0.00362459
0.00364896
0.00367293
0.00369649
0.00371964
0.00374239
0.00376472
0.00378665
0.00380817
0.00382928
0.00384997
0.00387026
0.00389013
0.00390959
0.00392863
0.00394726
0.00396548
0.00398327
0.00400065
0.00401762
0.00403416
0.00405028
0.00406598
0.00408126
0.00409612
0.00411056
0.00412457
0.00413815
0.00415131
0.00416405
0.00417635
0.00418823
0.00419968
0.0042107
0.00422129
0.00423145
0.00424118
0.00425048
0.00425935
0.00426778
0.00427578
0.00428334
0.00429047
0.00429717
0.00430343
0.00430925
0.00431464
0.00431959
0.00432411
0.00432818
0.00433182
0.00433502
0.00433778
0.0043401
0.00434199
0.00434343
0.00434443
0.004345
0.00275555
0.00280629
0.0028564
0.00290591
0.00295485
0.00300321
0.00305102
0.00309827
0.00314497
0.00319111
0.00323671
0.00328177
0.00332628
0.00337026
0.00341372
0.00345664
0.00349904
0.00354092
0.00358229
0.00362315
0.00366349
0.00370333
0.00374267
0.00378151
0.00381985
0.00385769
0.00389504
0.0039319
0.00396827
0.00400416
0.00403955
0.00407446
0.00410889
0.00414283
0.00417628
0.00420925
0.00424174
0.00427375
0.00430527
0.00433631
0.00436687
0.00439694
0.00442653
0.00445563
0.00448425
0.00451238
0.00454003
0.00456719
0.00459386
0.00462004
0.00464574
0.00467094
0.00469565
0.00471987
0.0047436
0.00476683
0.00478957
0.00481181
0.00483356
0.0048548
0.00487555
0.0048958
0.00491555
0.00493479
0.00495353
0.00497177
0.0049895
0.00500673
0.00502345
0.00503966
0.00505536
0.00507055
0.00508523
0.0050994
0.00511306
0.0051262
0.00513884
0.00515095
0.00516255
0.00517364
0.00518421
0.00519426
0.00520379
0.00521281
0.0052213
0.00522928
0.00523673
0.00524367
0.00525008
0.00525597
0.00526134
0.00526619
0.00527052
0.00527432
0.0052776
0.00528036
0.00528259
0.0052843
0.00528548
0.00528614
0.00333734
0.00339551
0.00345302
0.00350989
0.00356615
0.0036218
0.00367685
0.00373131
0.00378517
0.00383843
0.0038911
0.00394318
0.00399467
0.00404558
0.00409589
0.00414563
0.00419478
0.00424336
0.00429135
0.00433878
0.00438563
0.00443191
0.00447762
0.00452276
0.00456734
0.00461135
0.0046548
0.00469769
0.00474001
0.00478178
0.00482298
0.00486362
0.00490371
0.00494323
0.0049822
0.0050206
0.00505845
0.00509573
0.00513246
0.00516862
0.00520422
0.00523926
0.00527374
0.00530765
0.005341
0.00537379
0.005406
0.00543765
0.00546874
0.00549925
0.00552919
0.00555856
0.00558736
0.00561558
0.00564323
0.00567031
0.0056968
0.00572272
0.00574806
0.00577281
0.00579698
0.00582058
0.00584358
0.005866
0.00588783
0.00590908
0.00592973
0.0059498
0.00596927
0.00598815
0.00600644
0.00602413
0.00604123
0.00605773
0.00607364
0.00608894
0.00610365
0.00611776
0.00613126
0.00614416
0.00615647
0.00616816
0.00617926
0.00618975
0.00619963
0.00620891
0.00621758
0.00622565
0.00623311
0.00623996
0.0062462
0.00625184
0.00625687
0.00626128
0.00626509
0.00626829
0.00627088
0.00627286
0.00627423
0.00627499
0.00395974
0.00402543
0.00409041
0.00415471
0.00421836
0.00428137
0.00434373
0.00440545
0.00446653
0.00452697
0.00458677
0.00464593
0.00470445
0.00476233
0.00481957
0.00487617
0.00493213
0.00498745
0.00504214
0.00509619
0.0051496
0.00520238
0.00525452
0.00530603
0.0053569
0.00540714
0.00545674
0.00550572
0.00555405
0.00560176
0.00564883
0.00569527
0.00574107
0.00578624
0.00583077
0.00587467
0.00591793
0.00596056
0.00600254
0.00604389
0.00608459
0.00612466
0.00616408
0.00620286
0.00624099
0.00627848
0.00631532
0.00635152
0.00638706
0.00642195
0.00645619
0.00648978
0.00652271
0.00655499
0.00658661
0.00661756
0.00664786
0.00667749
0.00670647
0.00673477
0.00676241
0.00678938
0.00681569
0.00684132
0.00686628
0.00689057
0.00691418
0.00693712
0.00695938
0.00698097
0.00700187
0.00702209
0.00704164
0.00706049
0.00707867
0.00709616
0.00711297
0.00712909
0.00714452
0.00715926
0.00717332
0.00718668
0.00719936
0.00721134
0.00722263
0.00723323
0.00724313
0.00725235
0.00726086
0.00726869
0.00727581
0.00728225
0.00728798
0.00729302
0.00729737
0.00730101
0.00730397
0.00730622
0.00730778
0.00730864
0.00462191
0.00469518
0.0047677
0.00483949
0.00491059
0.004981
0.00505072
0.00511976
0.00518811
0.00525577
0.00532274
0.00538902
0.00545461
0.00551951
0.0055837
0.00564721
0.00571002
0.00577212
0.00583354
0.00589425
0.00595426
0.00601357
0.00607218
0.00613009
0.0061873
0.00624381
0.00629961
0.0063547
0.00640909
0.00646278
0.00651576
0.00656803
0.00661959
0.00667044
0.00672058
0.00677001
0.00681872
0.00686672
0.00691401
0.00696057
0.00700642
0.00705154
0.00709595
0.00713963
0.00718258
0.00722481
0.00726631
0.00730708
0.00734712
0.00738643
0.007425
0.00746283
0.00749993
0.00753628
0.0075719
0.00760677
0.0076409
0.00767428
0.00770691
0.00773879
0.00776992
0.0078003
0.00782993
0.0078588
0.00788691
0.00791426
0.00794086
0.00796669
0.00799176
0.00801606
0.0080396
0.00806237
0.00808438
0.00810561
0.00812608
0.00814577
0.00816469
0.00818284
0.00820022
0.00821681
0.00823263
0.00824768
0.00826194
0.00827543
0.00828814
0.00830007
0.00831121
0.00832158
0.00833116
0.00833997
0.00834799
0.00835522
0.00836167
0.00836734
0.00837223
0.00837633
0.00837965
0.00838218
0.00838393
0.0083849
0.00532321
0.00540413
0.00548424
0.00556358
0.00564218
0.00572003
0.00579716
0.00587355
0.0059492
0.00602412
0.0060983
0.00617173
0.00624442
0.00631636
0.00638754
0.00645798
0.00652765
0.00659658
0.00666474
0.00673214
0.00679877
0.00686464
0.00692975
0.00699408
0.00705764
0.00712044
0.00718245
0.0072437
0.00730416
0.00736385
0.00742276
0.00748088
0.00753822
0.00759478
0.00765055
0.00770553
0.00775972
0.00781311
0.00786572
0.00791752
0.00796853
0.00801873
0.00806814
0.00811674
0.00816453
0.00821152
0.0082577
0.00830306
0.00834761
0.00839135
0.00843427
0.00847637
0.00851764
0.0085581
0.00859772
0.00863652
0.0086745
0.00871164
0.00874795
0.00878342
0.00881806
0.00885186
0.00888482
0.00891694
0.00894821
0.00897864
0.00900823
0.00903696
0.00906485
0.00909189
0.00911807
0.0091434
0.00916788
0.0091915
0.00921426
0.00923617
0.00925721
0.0092774
0.00929672
0.00931518
0.00933277
0.0093495
0.00936536
0.00938036
0.00939449
0.00940775
0.00942015
0.00943167
0.00944233
0.00945211
0.00946103
0.00946907
0.00947624
0.00948255
0.00948797
0.00949253
0.00949622
0.00949903
0.00950097
0.00950204
0.00606316
0.00615178
0.00623953
0.00632647
0.00641261
0.00649795
0.00658252
0.00666629
0.00674929
0.00683149
0.00691289
0.0069935
0.00707331
0.00715231
0.0072305
0.00730789
0.00738445
0.0074602
0.00753512
0.00760922
0.0076825
0.00775494
0.00782654
0.00789731
0.00796724
0.00803633
0.00810458
0.00817198
0.00823853
0.00830423
0.00836907
0.00843306
0.00849619
0.00855846
0.00861986
0.0086804
0.00874007
0.00879887
0.0088568
0.00891385
0.00897003
0.00902532
0.00907973
0.00913326
0.0091859
0.00923765
0.00928851
0.00933848
0.00938755
0.00943572
0.00948299
0.00952936
0.00957482
0.00961938
0.00966302
0.00970576
0.00974758
0.00978848
0.00982847
0.00986754
0.00990569
0.00994291
0.00997921
0.0100146
0.010049
0.0100825
0.0101151
0.0101468
0.0101775
0.0102072
0.0102361
0.010264
0.0102909
0.0103169
0.010342
0.0103661
0.0103893
0.0104115
0.0104328
0.0104531
0.0104724
0.0104909
0.0105083
0.0105248
0.0105404
0.010555
0.0105686
0.0105813
0.010593
0.0106038
0.0106136
0.0106225
0.0106304
0.0106373
0.0106433
0.0106483
0.0106523
0.0106554
0.0106576
0.0106587
0.00684141
0.00693777
0.00703322
0.00712779
0.0072215
0.00731438
0.00740641
0.0074976
0.00758796
0.00767746
0.00776612
0.00785392
0.00794087
0.00802695
0.00811216
0.0081965
0.00827996
0.00836254
0.00844424
0.00852504
0.00860495
0.00868397
0.00876208
0.00883929
0.00891559
0.00899097
0.00906545
0.009139
0.00921163
0.00928334
0.00935412
0.00942397
0.00949289
0.00956087
0.00962791
0.009694
0.00975915
0.00982335
0.0098866
0.0099489
0.0100102
0.0100706
0.01013
0.0101885
0.010246
0.0103025
0.010358
0.0104126
0.0104662
0.0105188
0.0105704
0.010621
0.0106707
0.0107193
0.010767
0.0108136
0.0108593
0.010904
0.0109476
0.0109903
0.0110319
0.0110726
0.0111122
0.0111508
0.0111884
0.011225
0.0112606
0.0112951
0.0113287
0.0113612
0.0113926
0.0114231
0.0114525
0.0114809
0.0115082
0.0115346
0.0115599
0.0115841
0.0116073
0.0116295
0.0116506
0.0116707
0.0116898
0.0117078
0.0117248
0.0117407
0.0117556
0.0117695
0.0117823
0.011794
0.0118047
0.0118144
0.011823
0.0118305
0.0118371
0.0118425
0.011847
0.0118503
0.0118527
0.0118539
0.00765769
0.00776184
0.00786502
0.00796726
0.00806859
0.00816902
0.00826855
0.00836718
0.00846492
0.00856175
0.00865767
0.00875268
0.00884677
0.00893994
0.00903217
0.00912348
0.00921384
0.00930325
0.00939172
0.00947923
0.00956578
0.00965136
0.00973598
0.00981962
0.00990228
0.00998396
0.0100647
0.0101444
0.0102231
0.0103008
0.0103775
0.0104532
0.0105279
0.0106015
0.0106742
0.0107458
0.0108165
0.0108861
0.0109546
0.0110221
0.0110886
0.0111541
0.0112185
0.0112818
0.0113442
0.0114054
0.0114656
0.0115248
0.0115829
0.0116399
0.0116958
0.0117507
0.0118045
0.0118573
0.0119089
0.0119595
0.012009
0.0120574
0.0121047
0.012151
0.0121961
0.0122402
0.0122831
0.012325
0.0123657
0.0124054
0.0124439
0.0124813
0.0125177
0.0125529
0.012587
0.01262
0.0126519
0.0126826
0.0127123
0.0127408
0.0127682
0.0127945
0.0128196
0.0128437
0.0128666
0.0128883
0.012909
0.0129285
0.0129469
0.0129642
0.0129803
0.0129953
0.0130091
0.0130219
0.0130335
0.0130439
0.0130533
0.0130615
0.0130685
0.0130744
0.0130792
0.0130829
0.0130854
0.0130868
0.0085118
0.00862379
0.00873473
0.00884468
0.00895365
0.00906166
0.00916872
0.00927481
0.00937994
0.00948411
0.00958731
0.00968954
0.00979078
0.00989104
0.00999031
0.0100886
0.0101858
0.0102821
0.0103773
0.0104715
0.0105647
0.0106568
0.0107479
0.010838
0.010927
0.011015
0.0111019
0.0111877
0.0112725
0.0113562
0.0114388
0.0115203
0.0116008
0.0116801
0.0117584
0.0118356
0.0119116
0.0119866
0.0120604
0.0121332
0.0122048
0.0122753
0.0123447
0.0124129
0.01248
0.012546
0.0126109
0.0126746
0.0127372
0.0127986
0.0128588
0.012918
0.0129759
0.0130327
0.0130884
0.0131428
0.0131961
0.0132483
0.0132992
0.013349
0.0133977
0.0134451
0.0134913
0.0135364
0.0135803
0.013623
0.0136645
0.0137048
0.0137439
0.0137819
0.0138186
0.0138541
0.0138884
0.0139215
0.0139535
0.0139842
0.0140137
0.014042
0.014069
0.0140949
0.0141196
0.014143
0.0141652
0.0141862
0.014206
0.0142246
0.014242
0.0142581
0.014273
0.0142867
0.0142992
0.0143105
0.0143205
0.0143293
0.0143369
0.0143433
0.0143484
0.0143524
0.0143551
0.0143566
0.00940362
0.00952347
0.00964222
0.0097599
0.00987654
0.00999216
0.0101068
0.0102203
0.0103329
0.0104444
0.0105549
0.0106643
0.0107727
0.0108801
0.0109864
0.0110916
0.0111957
0.0112988
0.0114008
0.0115017
0.0116015
0.0117002
0.0117978
0.0118942
0.0119896
0.0120838
0.0121769
0.0122688
0.0123596
0.0124493
0.0125378
0.0126251
0.0127113
0.0127963
0.0128802
0.0129629
0.0130443
0.0131246
0.0132038
0.0132817
0.0133584
0.0134339
0.0135083
0.0135814
0.0136533
0.013724
0.0137934
0.0138617
0.0139287
0.0139945
0.014059
0.0141224
0.0141844
0.0142453
0.0143049
0.0143632
0.0144203
0.0144761
0.0145307
0.0145841
0.0146361
0.0146869
0.0147365
0.0147847
0.0148317
0.0148774
0.0149219
0.014965
0.0150069
0.0150475
0.0150869
0.0151249
0.0151616
0.0151971
0.0152313
0.0152641
0.0152957
0.015326
0.015355
0.0153827
0.0154091
0.0154342
0.015458
0.0154805
0.0155017
0.0155215
0.0155401
0.0155574
0.0155734
0.015588
0.0156014
0.0156134
0.0156242
0.0156336
0.0156417
0.0156485
0.0156541
0.0156583
0.0156611
0.0156627
0.010333
0.0104608
0.0105874
0.0107128
0.0108371
0.0109604
0.0110825
0.0112036
0.0113236
0.0114425
0.0115602
0.0116769
0.0117925
0.0119069
0.0120202
0.0121324
0.0122434
0.0123533
0.012462
0.0125696
0.012676
0.0127812
0.0128853
0.0129881
0.0130898
0.0131902
0.0132895
0.0133875
0.0134843
0.0135799
0.0136743
0.0137674
0.0138593
0.01395
0.0140393
0.0141275
0.0142144
0.0143
0.0143843
0.0144674
0.0145492
0.0146297
0.014709
0.0147869
0.0148636
0.0149389
0.015013
0.0150857
0.0151571
0.0152273
0.0152961
0.0153636
0.0154298
0.0154946
0.0155581
0.0156203
0.0156812
0.0157407
0.0157988
0.0158557
0.0159112
0.0159653
0.0160181
0.0160695
0.0161196
0.0161683
0.0162157
0.0162617
0.0163063
0.0163495
0.0163914
0.016432
0.0164711
0.0165089
0.0165453
0.0165803
0.0166139
0.0166462
0.0166771
0.0167066
0.0167347
0.0167614
0.0167868
0.0168107
0.0168333
0.0168545
0.0168743
0.0168927
0.0169097
0.0169253
0.0169395
0.0169523
0.0169638
0.0169738
0.0169824
0.0169897
0.0169956
0.017
0.0170031
0.0170048
0.0113
0.0114357
0.0115701
0.0117033
0.0118354
0.0119663
0.012096
0.0122246
0.012352
0.0124782
0.0126033
0.0127272
0.0128499
0.0129714
0.0130917
0.0132108
0.0133288
0.0134454
0.0135609
0.0136751
0.0137881
0.0138998
0.0140103
0.0141195
0.0142275
0.0143341
0.0144395
0.0145436
0.0146464
0.0147479
0.0148481
0.014947
0.0150445
0.0151408
0.0152357
0.0153293
0.0154215
0.0155124
0.0156019
0.0156901
0.015777
0.0158624
0.0159466
0.0160293
0.0161107
0.0161906
0.0162692
0.0163465
0.0164223
0.0164967
0.0165697
0.0166414
0.0167116
0.0167804
0.0168478
0.0169138
0.0169784
0.0170415
0.0171033
0.0171636
0.0172224
0.0172799
0.0173359
0.0173904
0.0174436
0.0174952
0.0175455
0.0175943
0.0176416
0.0176875
0.0177319
0.0177749
0.0178165
0.0178565
0.0178951
0.0179323
0.017968
0.0180022
0.0180349
0.0180662
0.018096
0.0181244
0.0181512
0.0181766
0.0182006
0.018223
0.018244
0.0182635
0.0182815
0.0182981
0.0183131
0.0183267
0.0183389
0.0183495
0.0183587
0.0183664
0.0183726
0.0183773
0.0183805
0.0183823
0.0123044
0.0124481
0.0125904
0.0127314
0.0128712
0.0130097
0.013147
0.0132831
0.013418
0.0135516
0.0136839
0.013815
0.0139449
0.0140735
0.0142008
0.0143269
0.0144516
0.0145751
0.0146973
0.0148181
0.0149377
0.0150559
0.0151728
0.0152883
0.0154025
0.0155153
0.0156268
0.0157369
0.0158457
0.0159531
0.016059
0.0161636
0.0162668
0.0163686
0.016469
0.016568
0.0166655
0.0167617
0.0168564
0.0169497
0.0170415
0.0171319
0.0172208
0.0173083
0.0173943
0.0174789
0.017562
0.0176437
0.0177238
0.0178025
0.0178797
0.0179554
0.0180297
0.0181024
0.0181737
0.0182434
0.0183117
0.0183784
0.0184437
0.0185074
0.0185696
0.0186303
0.0186895
0.0187472
0.0188033
0.0188579
0.018911
0.0189626
0.0190126
0.0190611
0.0191081
0.0191535
0.0191973
0.0192397
0.0192805
0.0193197
0.0193574
0.0193935
0.0194281
0.0194612
0.0194927
0.0195226
0.019551
0.0195778
0.0196031
0.0196268
0.0196489
0.0196695
0.0196886
0.019706
0.019722
0.0197363
0.0197491
0.0197603
0.01977
0.0197781
0.0197847
0.0197896
0.0197931
0.0197949
0.0133463
0.013498
0.0136482
0.013797
0.0139446
0.0140908
0.0142356
0.0143792
0.0145215
0.0146625
0.0148021
0.0149404
0.0150774
0.0152131
0.0153474
0.0154804
0.015612
0.0157422
0.015871
0.0159985
0.0161246
0.0162492
0.0163725
0.0164943
0.0166148
0.0167337
0.0168513
0.0169674
0.0170821
0.0171953
0.017307
0.0174173
0.0175261
0.0176334
0.0177392
0.0178435
0.0179463
0.0180477
0.0181475
0.0182458
0.0183426
0.0184378
0.0185316
0.0186237
0.0187144
0.0188035
0.0188911
0.0189771
0.0190616
0.0191445
0.0192258
0.0193056
0.0193838
0.0194604
0.0195355
0.019609
0.0196809
0.0197512
0.0198199
0.019887
0.0199525
0.0200164
0.0200788
0.0201395
0.0201986
0.0202561
0.020312
0.0203663
0.020419
0.02047
0.0205195
0.0205673
0.0206135
0.020658
0.0207009
0.0207422
0.0207819
0.02082
0.0208564
0.0208912
0.0209243
0.0209558
0.0209857
0.0210139
0.0210405
0.0210654
0.0210887
0.0211104
0.0211304
0.0211488
0.0211656
0.0211807
0.0211941
0.0212059
0.0212161
0.0212246
0.0212315
0.0212367
0.0212403
0.0212423
0.0144257
0.0145853
0.0147434
0.0149001
0.0150554
0.0152093
0.0153617
0.0155128
0.0156625
0.0158109
0.0159578
0.0161033
0.0162474
0.0163901
0.0165314
0.0166712
0.0168096
0.0169466
0.0170821
0.0172162
0.0173487
0.0174798
0.0176094
0.0177375
0.0178641
0.0179892
0.0181128
0.0182349
0.0183554
0.0184744
0.0185918
0.0187077
0.018822
0.0189348
0.019046
0.0191557
0.0192637
0.0193702
0.0194751
0.0195783
0.01968
0.0197801
0.0198786
0.0199754
0.0200706
0.0201643
0.0202562
0.0203466
0.0204353
0.0205224
0.0206078
0.0206916
0.0207737
0.0208542
0.020933
0.0210101
0.0210856
0.0211594
0.0212315
0.021302
0.0213708
0.0214379
0.0215033
0.0215671
0.0216291
0.0216895
0.0217481
0.0218051
0.0218604
0.021914
0.0219658
0.022016
0.0220645
0.0221112
0.0221563
0.0221996
0.0222412
0.0222812
0.0223194
0.0223558
0.0223906
0.0224236
0.022455
0.0224846
0.0225125
0.0225386
0.0225631
0.0225858
0.0226068
0.0226261
0.0226436
0.0226594
0.0226735
0.0226859
0.0226966
0.0227055
0.0227127
0.0227182
0.0227219
0.022724
0.0155424
0.0157101
0.0158761
0.0160407
0.0162037
0.0163652
0.0165253
0.0166839
0.016841
0.0169967
0.0171508
0.0173035
0.0174548
0.0176045
0.0177527
0.0178994
0.0180446
0.0181883
0.0183304
0.018471
0.01861
0.0187475
0.0188834
0.0190177
0.0191505
0.0192816
0.0194112
0.0195391
0.0196655
0.0197902
0.0199133
0.0200348
0.0201546
0.0202728
0.0203893
0.0205042
0.0206175
0.020729
0.0208389
0.0209471
0.0210536
0.0211585
0.0212616
0.0213631
0.0214628
0.0215609
0.0216572
0.0217518
0.0218447
0.0219359
0.0220254
0.0221131
0.0221991
0.0222833
0.0223658
0.0224466
0.0225256
0.0226029
0.0226784
0.0227522
0.0228242
0.0228944
0.0229629
0.0230296
0.0230945
0.0231577
0.0232191
0.0232787
0.0233366
0.0233926
0.0234469
0.0234994
0.0235501
0.023599
0.0236461
0.0236914
0.023735
0.0237767
0.0238167
0.0238548
0.0238912
0.0239258
0.0239585
0.0239895
0.0240186
0.024046
0.0240716
0.0240953
0.0241173
0.0241374
0.0241557
0.0241723
0.024187
0.0241999
0.0242111
0.0242204
0.0242279
0.0242336
0.0242375
0.0242396
0.0166966
0.0168723
0.0170462
0.0172186
0.0173894
0.0175586
0.0177262
0.0178923
0.0180568
0.0182198
0.0183812
0.0185411
0.0186994
0.0188561
0.0190112
0.0191648
0.0193167
0.019467
0.0196157
0.0197628
0.0199083
0.0200521
0.0201943
0.0203348
0.0204736
0.0206108
0.0207463
0.0208801
0.0210122
0.0211426
0.0212713
0.0213983
0.0215236
0.0216471
0.0217689
0.021889
0.0220074
0.022124
0.0222388
0.0223519
0.0224632
0.0225727
0.0226805
0.0227865
0.0228907
0.0229931
0.0230938
0.0231926
0.0232896
0.0233849
0.0234783
0.0235699
0.0236597
0.0237477
0.0238338
0.0239182
0.0240007
0.0240814
0.0241602
0.0242372
0.0243124
0.0243857
0.0244571
0.0245268
0.0245945
0.0246605
0.0247245
0.0247868
0.0248471
0.0249056
0.0249622
0.025017
0.0250699
0.0251209
0.0251701
0.0252174
0.0252628
0.0253064
0.025348
0.0253878
0.0254257
0.0254618
0.025496
0.0255282
0.0255586
0.0255872
0.0256138
0.0256386
0.0256615
0.0256824
0.0257016
0.0257188
0.0257341
0.0257476
0.0257592
0.0257689
0.0257767
0.0257826
0.0257867
0.0257888
0.0178881
0.0180718
0.0182537
0.0184339
0.0186124
0.0187892
0.0189644
0.019138
0.0193099
0.0194802
0.0196488
0.0198158
0.0199811
0.0201448
0.0203068
0.0204671
0.0206258
0.0207827
0.020938
0.0210915
0.0212434
0.0213935
0.0215419
0.0216885
0.0218334
0.0219765
0.0221179
0.0222575
0.0223953
0.0225313
0.0226656
0.0227981
0.0229287
0.0230576
0.0231846
0.0233098
0.0234332
0.0235548
0.0236745
0.0237924
0.0239084
0.0240226
0.0241349
0.0242454
0.024354
0.0244607
0.0245656
0.0246686
0.0247697
0.0248689
0.0249662
0.0250617
0.0251552
0.0252469
0.0253366
0.0254245
0.0255104
0.0255944
0.0256765
0.0257567
0.025835
0.0259113
0.0259857
0.0260582
0.0261288
0.0261974
0.0262641
0.0263289
0.0263917
0.0264526
0.0265115
0.0265685
0.0266236
0.0266767
0.0267278
0.026777
0.0268243
0.0268696
0.026913
0.0269544
0.0269938
0.0270313
0.0270668
0.0271004
0.027132
0.0271617
0.0271894
0.0272151
0.0272389
0.0272608
0.0272806
0.0272985
0.0273145
0.0273285
0.0273405
0.0273505
0.0273587
0.0273648
0.027369
0.0273712
0.0191169
0.0193086
0.0194984
0.0196864
0.0198726
0.0200571
0.0202398
0.0204208
0.0206001
0.0207777
0.0209535
0.0211276
0.0212999
0.0214705
0.0216393
0.0218064
0.0219717
0.0221353
0.022297
0.022457
0.0226151
0.0227715
0.022926
0.0230787
0.0232296
0.0233786
0.0235258
0.0236711
0.0238146
0.0239562
0.0240959
0.0242338
0.0243697
0.0245038
0.024636
0.0247663
0.0248947
0.0250211
0.0251457
0.0252683
0.025389
0.0255077
0.0256246
0.0257394
0.0258524
0.0259633
0.0260724
0.0261794
0.0262846
0.0263877
0.0264889
0.0265881
0.0266853
0.0267805
0.0268738
0.0269651
0.0270544
0.0271417
0.027227
0.0273103
0.0273916
0.0274709
0.0275482
0.0276235
0.0276968
0.0277681
0.0278373
0.0279046
0.0279698
0.028033
0.0280942
0.0281534
0.0282106
0.0282657
0.0283188
0.0283699
0.028419
0.028466
0.028511
0.028554
0.0285949
0.0286338
0.0286707
0.0287055
0.0287383
0.0287691
0.0287979
0.0288246
0.0288492
0.0288719
0.0288925
0.028911
0.0289275
0.028942
0.0289545
0.0289649
0.0289733
0.0289796
0.0289839
0.0289862
0.0203829
0.0205826
0.0207802
0.020976
0.02117
0.021362
0.0215523
0.0217407
0.0219273
0.0221121
0.0222951
0.0224762
0.0226555
0.022833
0.0230086
0.0231824
0.0233543
0.0235243
0.0236925
0.0238588
0.0240232
0.0241858
0.0243464
0.0245051
0.0246619
0.0248167
0.0249697
0.0251207
0.0252697
0.0254168
0.025562
0.0257052
0.0258464
0.0259856
0.0261229
0.0262581
0.0263914
0.0265227
0.026652
0.0267793
0.0269045
0.0270278
0.027149
0.0272683
0.0273854
0.0275006
0.0276137
0.0277248
0.0278338
0.0279408
0.0280458
0.0281486
0.0282495
0.0283483
0.028445
0.0285396
0.0286322
0.0287227
0.0288111
0.0288975
0.0289818
0.029064
0.0291441
0.0292222
0.0292981
0.029372
0.0294438
0.0295135
0.0295811
0.0296466
0.02971
0.0297713
0.0298305
0.0298876
0.0299426
0.0299956
0.0300464
0.0300951
0.0301417
0.0301862
0.0302286
0.0302688
0.030307
0.0303431
0.030377
0.0304089
0.0304386
0.0304663
0.0304918
0.0305152
0.0305365
0.0305557
0.0305728
0.0305878
0.0306006
0.0306114
0.03062
0.0306266
0.030631
0.0306333
0.021686
0.0218936
0.0220991
0.0223027
0.0225043
0.0227039
0.0229016
0.0230974
0.0232913
0.0234833
0.0236733
0.0238615
0.0240477
0.024232
0.0244143
0.0245948
0.0247732
0.0249498
0.0251243
0.0252969
0.0254675
0.0256361
0.0258028
0.0259674
0.02613
0.0262907
0.0264493
0.0266059
0.0267604
0.0269129
0.0270634
0.0272119
0.0273582
0.0275025
0.0276448
0.027785
0.0279231
0.0280591
0.0281931
0.0283249
0.0284547
0.0285824
0.0287079
0.0288314
0.0289528
0.029072
0.0291891
0.0293041
0.029417
0.0295278
0.0296364
0.0297429
0.0298473
0.0299495
0.0300496
0.0301476
0.0302434
0.030337
0.0304285
0.0305179
0.0306051
0.0306901
0.030773
0.0308537
0.0309323
0.0310087
0.0310829
0.031155
0.0312249
0.0312926
0.0313581
0.0314215
0.0314828
0.0315418
0.0315987
0.0316534
0.0317059
0.0317562
0.0318044
0.0318503
0.0318941
0.0319358
0.0319752
0.0320125
0.0320475
0.0320804
0.0321112
0.0321397
0.032166
0.0321902
0.0322122
0.032232
0.0322496
0.0322651
0.0322783
0.0322894
0.0322983
0.032305
0.0323096
0.0323119
0.023026