/*--------------------------------*- C++ -*----------------------------------*\
  =========                 |
  \\      /  F ield         | OpenFOAM: The Open Source CFD Toolbox
   \\    /   O peration     | Website:  https://openfoam.org
    \\  /    A nd           | Version:  9
     \\/     M anipulation  |
\*---------------------------------------------------------------------------*/
FoamFile
{
    format      ascii;
    class       volScalarField;
    location    "0.035";
    object      alphat;
}
// * * * * * * * * * * * * * * * * * * * * * * * * * * * * * * * * * * * * * //

dimensions      [1 -1 -1 0 0 0 0];

internalField   nonuniform List<scalar> 
5057
(
0.00121839
0.000167105
2.69532e-05
6.24726e-06
2.26295e-06
1.09072e-06
7.61402e-07
7.28973e-07
6.55123e-07
5.4868e-07
5.49606e-07
5.96601e-07
1.13702e-06
6.03648e-07
4.95824e-07
0.00344536
0.000946922
0.000471597
0.000302005
0.000215661
0.000162049
0.000139931
0.000139722
0.000131071
0.00011547
9.88494e-05
8.43516e-05
7.30609e-05
6.19511e-05
5.46751e-05
0.00540885
0.00175987
0.000908035
0.000588646
0.000428976
0.000330643
0.000262258
0.000228837
0.000198327
0.000168479
0.000141723
0.000119467
0.000103685
9.03517e-05
8.40015e-05
0.00712481
0.0026174
0.00135495
0.000867961
0.000622727
0.000472391
0.000365003
0.000290627
0.000235951
0.00019341
0.000159901
0.00013547
0.000125294
0.000117795
0.000112007
0.00858356
0.00343287
0.00178519
0.00113041
0.000795814
0.000588566
0.000452163
0.000359154
0.000293395
0.000245046
0.000208151
0.000179557
0.000163796
0.000149919
0.000136877
0.00976407
0.00414613
0.00217363
0.00136152
0.000939763
0.000691401
0.000533573
0.000428013
0.000354455
0.000300451
0.000258361
0.000222722
0.00019411
0.00017097
0.00015229
0.0106284
0.00470423
0.00249457
0.00154389
0.0010584
0.000778843
0.000603643
0.000486985
0.000405639
0.000344776
0.000295561
0.00025514
0.000222198
0.000195318
0.000173132
0.011103
0.00502395
0.00266435
0.00163367
0.00111713
0.000823791
0.000640145
0.000516763
0.000430018
0.000364224
0.000312159
0.000270334
0.00023618
0.000207211
0.000182531
0.0109434
0.00492172
0.00261425
0.00159933
0.00109138
0.000805485
0.000625839
0.000504366
0.000418423
0.000354309
0.000303029
0.000261753
0.000228004
0.000199892
0.000175627
0.0104647
0.00463187
0.00246496
0.0015064
0.00102426
0.000753535
0.000586464
0.000471964
0.000389775
0.000328244
0.000280236
0.000241466
0.000209534
0.00018327
0.000159388
0.0096121
0.00414153
0.00222321
0.00136421
0.000922085
0.000673079
0.000520195
0.000418597
0.000345609
0.000287933
0.000242474
0.000205773
0.000176119
0.000151446
0.000131016
0.00838908
0.00342222
0.00184529
0.00115671
0.000782182
0.000564124
0.000427776
0.000337542
0.000274539
0.000227351
0.000190701
0.000157793
0.000129917
0.000110313
9.94474e-05
0.00675635
0.00249166
0.00134205
0.000858473
0.0006015
0.000438447
0.000325019
0.000245479
0.000189118
0.000146851
0.000115467
9.15306e-05
7.34024e-05
6.51393e-05
5.20672e-05
0.00461877
0.00145958
0.000760917
0.000493809
0.000354425
0.000264309
0.000198465
0.000153431
0.000130291
0.000101691
7.66723e-05
5.6189e-05
3.8199e-05
2.5215e-05
2.73076e-05
0.00179551
0.000331157
0.000105195
3.40425e-05
1.22805e-05
5.05669e-06
2.3133e-06
1.21814e-06
8.08285e-07
5.39459e-07
6.8495e-07
9.04011e-07
4.24359e-07
3.34242e-07
3.63259e-07
6.31296e-07
1.15066e-06
1.70951e-06
2.03177e-06
2.11674e-06
1.85172e-06
1.4042e-06
9.60122e-07
6.29621e-07
4.12519e-07
2.83183e-07
1.95208e-07
1.30619e-07
8.85358e-08
7.84132e-08
5.54974e-05
6.14486e-05
6.71771e-05
7.08423e-05
7.20468e-05
7.05761e-05
6.59596e-05
5.10809e-05
3.75626e-05
2.68941e-05
1.85714e-05
1.22939e-05
7.93199e-06
5.00859e-06
3.07289e-06
8.76315e-05
9.29956e-05
9.73357e-05
0.000100895
0.00010281
0.000102531
9.97201e-05
9.26782e-05
8.05261e-05
6.81001e-05
5.54564e-05
4.32028e-05
3.17179e-05
2.16956e-05
1.36495e-05
0.000112559
0.000113069
0.000115407
0.000116625
0.000116983
0.000116125
0.000113871
0.000109157
0.000100812
9.14432e-05
8.0855e-05
6.91545e-05
5.62218e-05
4.2941e-05
3.05235e-05
0.000130822
0.000129552
0.000127369
0.000125936
0.00012412
0.00012162
0.000118131
0.000113432
0.000107417
0.000100817
9.3056e-05
8.37727e-05
7.27818e-05
6.0243e-05
4.69975e-05
0.000145193
0.000139632
0.000134608
0.000130088
0.000124995
0.000120064
0.000115009
0.000109774
0.000104862
9.98316e-05
9.4445e-05
8.81652e-05
8.03327e-05
7.02871e-05
5.85532e-05
0.000159679
0.000147854
0.000137905
0.000128498
0.000120222
0.000112719
0.00010604
0.000100312
9.56006e-05
9.15933e-05
8.79446e-05
8.42727e-05
7.9469e-05
7.28994e-05
6.41962e-05
0.000163875
0.000147691
0.000133827
0.000121639
0.000111046
0.000101755
9.38654e-05
8.74006e-05
8.21996e-05
7.82677e-05
7.54669e-05
7.34611e-05
7.13782e-05
6.84519e-05
6.36427e-05
0.00015541
0.000137604
0.000122133
0.00010862
9.68462e-05
8.67195e-05
7.82555e-05
7.13979e-05
6.60869e-05
6.23595e-05
6.00936e-05
5.88549e-05
5.82723e-05
5.78507e-05
5.66975e-05
0.000137958
0.000119123
0.000102851
8.91394e-05
7.7783e-05
6.84749e-05
6.08858e-05
5.46678e-05
4.9789e-05
4.63487e-05
4.40499e-05
4.29647e-05
4.30278e-05
4.40235e-05
4.50752e-05
0.000110812
9.34999e-05
7.94765e-05
6.83739e-05
5.96236e-05
5.25795e-05
4.6645e-05
4.08259e-05
3.57358e-05
3.19549e-05
2.95062e-05
2.83671e-05
2.8513e-05
2.98675e-05
3.16172e-05
8.08007e-05
6.76398e-05
5.89025e-05
5.27118e-05
4.7723e-05
4.30609e-05
3.79158e-05
3.1254e-05
2.56976e-05
2.17915e-05
1.92524e-05
1.78084e-05
1.7435e-05
1.79009e-05
1.88403e-05
4.15289e-05
3.96006e-05
3.88496e-05
3.79909e-05
3.66863e-05
3.47532e-05
3.21229e-05
2.8312e-05
2.39774e-05
1.98623e-05
1.61078e-05
1.26674e-05
1.03268e-05
9.11913e-06
8.73912e-06
2.75064e-05
2.8078e-05
2.87133e-05
2.85049e-05
2.75898e-05
2.60098e-05
2.43181e-05
2.10319e-05
1.73905e-05
1.38121e-05
1.05158e-05
7.53255e-06
4.51694e-06
3.02906e-06
2.28037e-06
3.89512e-07
3.85642e-07
3.62717e-07
3.30034e-07
2.95379e-07
2.61855e-07
5.12464e-07
5.83213e-07
5.7358e-07
5.01891e-07
4.13227e-07
3.30663e-07
2.36598e-07
3.38589e-07
1.68702e-07
8.21639e-08
8.5703e-08
8.93473e-08
9.09902e-08
9.37658e-08
9.81567e-08
1.02563e-07
1.07447e-07
1.07418e-07
1.0757e-07
1.20069e-07
1.42446e-07
2.70488e-06
2.22006e-06
1.77241e-06
1.42778e-06
1.29135e-06
1.20157e-06
1.1129e-06
1.01641e-06
8.98236e-07
7.68774e-07
6.89913e-07
6.572e-07
1.14472e-05
9.51635e-06
8.0085e-06
6.79342e-06
5.59298e-06
4.51871e-06
3.58244e-06
2.78316e-06
2.1123e-06
1.55414e-06
1.12726e-06
7.92236e-07
2.67664e-05
2.29769e-05
1.95409e-05
1.65419e-05
1.40021e-05
1.17514e-05
9.59971e-06
7.6143e-06
5.84691e-06
4.30909e-06
3.06205e-06
2.02812e-06
4.26238e-05
3.79707e-05
3.33112e-05
2.88378e-05
2.47378e-05
2.11373e-05
1.78873e-05
1.46996e-05
1.16755e-05
8.88144e-06
6.45785e-06
4.36906e-06
5.3989e-05
4.94163e-05
4.45839e-05
3.96362e-05
3.47526e-05
3.0147e-05
2.59465e-05
2.19368e-05
1.79279e-05
1.40301e-05
1.04479e-05
7.24791e-06
5.97595e-05
5.53937e-05
5.09793e-05
4.62989e-05
4.14302e-05
3.65374e-05
3.1801e-05
2.7305e-05
2.27262e-05
1.81096e-05
1.36898e-05
9.65751e-06
5.98236e-05
5.5939e-05
5.19534e-05
4.77784e-05
4.33284e-05
3.86696e-05
3.39204e-05
2.92104e-05
2.44748e-05
1.96115e-05
1.48737e-05
1.0549e-05
5.3506e-05
5.0296e-05
4.69506e-05
4.33775e-05
3.95414e-05
3.54271e-05
3.10672e-05
2.65515e-05
2.19757e-05
1.74361e-05
1.30966e-05
9.2223e-06
4.23081e-05
3.95823e-05
3.67753e-05
3.3821e-05
3.06844e-05
2.73466e-05
2.38177e-05
2.01469e-05
1.64386e-05
1.28307e-05
9.46909e-06
6.56257e-06
2.93502e-05
2.70848e-05
2.48037e-05
2.24597e-05
2.00368e-05
1.75418e-05
1.49943e-05
1.24304e-05
9.92236e-06
7.56986e-06
5.46553e-06
3.71913e-06
1.70517e-05
1.53285e-05
1.36441e-05
1.19758e-05
1.03328e-05
8.74045e-06
7.2213e-06
5.79852e-06
4.4974e-06
3.35123e-06
2.3866e-06
1.62325e-06
7.47336e-06
6.35324e-06
5.34106e-06
4.42576e-06
3.61095e-06
2.90217e-06
2.3052e-06
1.80966e-06
1.40135e-06
1.06882e-06
8.07911e-07
6.07953e-07
1.72964e-06
1.32188e-06
1.00972e-06
7.72834e-07
5.95871e-07
5.21934e-07
4.97909e-07
4.88351e-07
4.81442e-07
4.71743e-07
4.77143e-07
5.03591e-07
1.25787e-07
9.47998e-08
8.0959e-08
7.50305e-08
7.26076e-08
7.31232e-08
7.5539e-08
7.90571e-08
8.04716e-08
7.78916e-08
9.02627e-08
1.19224e-07
0.0163952
0.0163953
0.0163954
0.0163955
0.0163956
0.0163957
0.0163958
0.0163959
0.0163961
0.0163962
0.0163963
0.0163964
0.0163965
0.0163966
0.0163967
0.0163968
0.0163969
0.016397
0.0163971
0.0163972
0.0163973
0.0163974
0.0163974
0.0163975
0.0163976
0.0163976
0.0163976
0.0163976
0.0163976
0.0163976
0.0163976
0.0163976
0.0163976
0.0163976
0.0163976
0.0163976
0.0163976
0.0163976
0.0163976
0.0163976
0.0163976
0.0163976
0.0163976
0.0163976
0.0163977
0.0163977
0.0163977
0.0163978
0.0163978
0.0163979
0.016398
0.0163981
0.0163982
0.0163983
0.0163985
0.0163986
0.0163988
0.0163989
0.0163991
0.0163993
0.0163995
0.0163996
0.0163998
0.0164
0.0164002
0.0164004
0.0164006
0.0164008
0.016401
0.0164012
0.0164014
0.0164016
0.0164017
0.0164153
0.0164161
0.016417
0.0164178
0.0164185
0.0164193
0.0164201
0.0164209
0.0164216
0.0164223
0.0164231
0.0164238
0.0164245
0.0164252
0.0164258
0.0164265
0.0164272
0.0164278
0.0164285
0.0164291
0.0164297
0.0164304
0.016431
0.0164316
0.0164322
0.0164328
0.0164333
0.0164339
0.0164345
0.016435
0.0164356
0.0164361
0.0164367
0.0164372
0.0164377
0.0164382
0.0164387
0.0164392
0.0164397
0.0164402
0.0164407
0.0164412
0.0164417
0.0164422
0.0164426
0.0164431
0.0164436
0.016444
0.0164445
0.0164449
0.0164453
0.0164457
0.0164461
0.0164465
0.0164469
0.0164472
0.0164476
0.0164479
0.0164483
0.0164486
0.0164489
0.0164492
0.0164495
0.0164498
0.01645
0.0164503
0.0164506
0.0164508
0.0164511
0.0164513
0.0164516
0.0164518
0.016452
0.0163836
0.0163839
0.0163843
0.0163846
0.016385
0.0163853
0.0163856
0.016386
0.0163863
0.0163867
0.016387
0.0163873
0.0163877
0.016388
0.0163884
0.0163887
0.0163891
0.0163894
0.0163898
0.0163901
0.0163905
0.0163908
0.0163911
0.0163915
0.0163918
0.0163922
0.0163925
0.0163929
0.0163932
0.0163936
0.0163939
0.0163942
0.0163946
0.0163949
0.0163952
0.0163956
0.0163959
0.0163962
0.0163966
0.0163969
0.0163972
0.0163975
0.0163978
0.0163981
0.0163984
0.0163988
0.0163991
0.0163994
0.0163997
0.0164
0.0164002
0.0164005
0.0164008
0.0164011
0.0164014
0.0164017
0.016402
0.0164022
0.0164025
0.0164028
0.016403
0.0164033
0.0164036
0.0164038
0.0164041
0.0164043
0.0164046
0.0164048
0.0164051
0.0164053
0.0164056
0.0164058
0.016406
0.0163588
0.0163592
0.0163596
0.01636
0.0163604
0.0163608
0.0163611
0.0163615
0.0163618
0.0163621
0.0163625
0.0163628
0.0163631
0.0163633
0.0163636
0.0163639
0.0163641
0.0163644
0.0163646
0.0163648
0.016365
0.0163651
0.0163653
0.0163654
0.0163655
0.0163656
0.0163657
0.0163658
0.0163658
0.0163658
0.0163658
0.0163657
0.0163656
0.0163654
0.0163651
0.0163648
0.0163645
0.0163642
0.0163639
0.0163636
0.0163633
0.016363
0.0163627
0.0163624
0.0163621
0.0163618
0.0163615
0.0163612
0.0163609
0.0163606
0.0163603
0.01636
0.0163597
0.0163595
0.0163592
0.0163589
0.0163586
0.0163583
0.0163581
0.0163578
0.0163576
0.0163574
0.0163573
0.0163572
0.0163572
0.0163571
0.0163571
0.0163571
0.016357
0.016357
0.016357
0.016357
0.0163571
0.0163361
0.0163362
0.0163364
0.0163365
0.0163367
0.0163368
0.0163369
0.0163371
0.0163372
0.0163373
0.0163374
0.0163375
0.0163376
0.0163377
0.0163378
0.0163379
0.016338
0.0163381
0.0163381
0.0163382
0.0163383
0.0163384
0.0163385
0.0163385
0.0163386
0.0163387
0.0163388
0.0163388
0.0163389
0.016339
0.0163391
0.0163391
0.0163392
0.0163393
0.0163394
0.0163394
0.0163395
0.0163396
0.0163397
0.0163397
0.0163398
0.0163399
0.01634
0.01634
0.0163401
0.0163402
0.0163402
0.0163403
0.0163404
0.0163405
0.0163405
0.0163406
0.0163407
0.0163407
0.0163408
0.0163409
0.016341
0.016341
0.0163411
0.0163412
0.0163412
0.0163413
0.0163414
0.0163414
0.0163415
0.0163416
0.0163416
0.0163417
0.0163418
0.0163419
0.016342
0.0163421
0.0163422
0.0163148
0.0163149
0.016315
0.016315
0.016315
0.016315
0.016315
0.0163149
0.0163148
0.0163147
0.0163144
0.016314
0.0163136
0.0163131
0.0163127
0.0163122
0.0163118
0.0163114
0.0163109
0.0163105
0.0163101
0.0163097
0.0163093
0.0163088
0.0163084
0.016308
0.0163076
0.0163072
0.0163068
0.0163064
0.016306
0.0163056
0.0163052
0.0163049
0.0163045
0.0163041
0.0163037
0.0163034
0.016303
0.0163026
0.0163023
0.0163019
0.0163016
0.0163012
0.0163009
0.0163005
0.0163002
0.0162998
0.0162995
0.0162992
0.0162989
0.0162985
0.0162982
0.0162979
0.0162976
0.0162973
0.016297
0.0162967
0.0162964
0.0162961
0.0162958
0.0162956
0.0162953
0.0162951
0.0162951
0.0162951
0.0162952
0.0162953
0.0162954
0.0162956
0.0162957
0.0162959
0.0162961
0.0162817
0.0162814
0.0162811
0.0162808
0.0162805
0.0162802
0.01628
0.0162798
0.0162797
0.0162798
0.0162799
0.01628
0.0162801
0.0162802
0.0162804
0.0162805
0.0162807
0.0162809
0.0162811
0.0162813
0.0162815
0.0162817
0.0162819
0.0162821
0.0162824
0.0162826
0.0162829
0.0162831
0.0162834
0.0162836
0.0162839
0.0162841
0.0162844
0.0162847
0.0162849
0.0162852
0.0162855
0.0162858
0.016286
0.0162863
0.0162866
0.0162868
0.0162871
0.0162874
0.0162877
0.016288
0.0162882
0.0162885
0.0162888
0.0162891
0.0162894
0.0162897
0.0162899
0.0162902
0.0162905
0.0162908
0.0162911
0.0162914
0.0162916
0.0162919
0.0162922
0.0162925
0.0162928
0.0162931
0.0162934
0.0162936
0.0162939
0.0162942
0.0162945
0.0162948
0.0162951
0.0162953
0.0162957
0.0162864
0.016286
0.0162856
0.0162853
0.0162849
0.0162846
0.0162842
0.0162839
0.0162836
0.0162832
0.0162829
0.0162825
0.0162822
0.0162819
0.0162815
0.0162812
0.0162809
0.0162806
0.0162803
0.0162799
0.0162796
0.0162794
0.0162791
0.0162788
0.0162785
0.0162782
0.0162779
0.0162777
0.0162774
0.0162772
0.0162769
0.0162767
0.0162764
0.0162762
0.0162759
0.0162757
0.0162755
0.0162752
0.0162749
0.0162744
0.0162739
0.0162735
0.0162734
0.0162733
0.0162732
0.0162732
0.0162732
0.0162733
0.0162733
0.0162734
0.0162735
0.0162736
0.0162737
0.0162738
0.016274
0.0162741
0.0162743
0.0162745
0.0162747
0.0162749
0.0162751
0.0162753
0.0162755
0.0162757
0.0162759
0.0162762
0.0162764
0.0162766
0.0162769
0.0162771
0.0162774
0.0162776
0.0162779
0.0162658
0.0162653
0.0162648
0.0162642
0.0162637
0.0162631
0.0162626
0.016262
0.0162615
0.0162609
0.0162603
0.0162598
0.0162592
0.0162587
0.0162581
0.0162576
0.0162571
0.0162568
0.0162566
0.0162565
0.0162564
0.0162564
0.0162563
0.0162563
0.0162563
0.0162563
0.0162564
0.0162564
0.0162565
0.0162565
0.0162566
0.0162567
0.0162568
0.0162569
0.016257
0.0162571
0.0162572
0.0162573
0.0162575
0.0162576
0.0162577
0.0162579
0.016258
0.0162582
0.0162583
0.0162585
0.0162586
0.0162588
0.016259
0.0162591
0.0162593
0.0162595
0.0162596
0.0162598
0.01626
0.0162602
0.0162603
0.0162605
0.0162607
0.0162608
0.0162609
0.016261
0.0162611
0.0162612
0.0162612
0.0162612
0.0162611
0.0162611
0.016261
0.0162609
0.0162608
0.0162606
0.0162605
0.016241
0.0162404
0.0162399
0.0162393
0.0162387
0.0162382
0.0162376
0.016237
0.0162365
0.0162359
0.0162353
0.0162348
0.0162342
0.0162336
0.016233
0.0162324
0.0162318
0.0162313
0.0162307
0.0162301
0.0162296
0.016229
0.0162285
0.016228
0.0162275
0.0162269
0.0162263
0.0162256
0.0162249
0.0162243
0.0162239
0.0162237
0.0162235
0.0162233
0.0162232
0.0162231
0.0162231
0.016223
0.016223
0.016223
0.0162229
0.0162229
0.0162229
0.016223
0.016223
0.016223
0.016223
0.0162231
0.0162231
0.0162231
0.0162232
0.0162232
0.0162232
0.0162233
0.0162233
0.0162233
0.0162234
0.0162234
0.0162234
0.0162234
0.0162234
0.0162234
0.0162233
0.0162232
0.0162231
0.0162229
0.0162227
0.0162225
0.0162222
0.0162219
0.0162216
0.0162212
0.0162209
0.0162059
0.0162052
0.0162044
0.0162036
0.0162029
0.0162021
0.0162013
0.0162005
0.0161998
0.016199
0.0161982
0.0161974
0.0161966
0.0161958
0.0161951
0.0161943
0.0161935
0.0161927
0.0161919
0.0161914
0.0161911
0.0161909
0.0161907
0.0161906
0.0161905
0.0161905
0.0161904
0.0161904
0.0161904
0.0161904
0.0161905
0.0161904
0.0161904
0.0161903
0.0161901
0.0161899
0.0161896
0.0161893
0.0161888
0.016188
0.0161871
0.0161862
0.0161853
0.0161844
0.0161835
0.0161826
0.0161817
0.0161808
0.0161799
0.016179
0.0161781
0.0161772
0.0161763
0.0161754
0.0161745
0.0161736
0.0161727
0.0161718
0.0161709
0.01617
0.0161691
0.0161681
0.0161672
0.0161663
0.0161654
0.0161645
0.0161636
0.0161626
0.0161617
0.0161608
0.0161599
0.016159
0.0161581
0.016173
0.0161722
0.0161713
0.0161704
0.0161696
0.0161687
0.0161678
0.016167
0.0161661
0.0161652
0.0161643
0.0161635
0.0161626
0.0161617
0.0161608
0.0161599
0.016159
0.0161581
0.0161572
0.0161563
0.0161554
0.0161545
0.0161536
0.0161527
0.0161519
0.0161515
0.0161513
0.0161511
0.0161509
0.0161508
0.0161506
0.0161506
0.0161504
0.0161502
0.01615
0.0161497
0.0161493
0.0161488
0.0161482
0.0161472
0.0161462
0.0161451
0.016144
0.016143
0.0161419
0.0161409
0.0161398
0.0161388
0.0161377
0.0161367
0.0161356
0.0161345
0.0161335
0.0161324
0.0161313
0.0161302
0.0161292
0.0161281
0.016127
0.0161259
0.0161249
0.0161238
0.0161227
0.0161216
0.0161205
0.0161194
0.0161183
0.0161172
0.0161161
0.016115
0.0161139
0.0161128
0.0161118
0.0161435
0.0161425
0.0161415
0.0161405
0.0161395
0.0161385
0.0161375
0.0161365
0.0161354
0.0161344
0.0161334
0.0161323
0.0161313
0.0161303
0.0161292
0.0161282
0.0161271
0.0161261
0.016125
0.016124
0.0161229
0.0161219
0.0161208
0.0161197
0.0161186
0.0161176
0.0161165
0.0161154
0.0161144
0.0161133
0.0161122
0.0161111
0.01611
0.016109
0.0161079
0.0161068
0.0161057
0.0161046
0.0161035
0.0161024
0.0161013
0.0161002
0.0160991
0.016098
0.0160969
0.0160958
0.0160946
0.0160935
0.0160924
0.0160912
0.0160901
0.016089
0.0160878
0.0160867
0.0160855
0.0160844
0.0160832
0.016082
0.0160809
0.0160797
0.0160785
0.0160774
0.0160762
0.016075
0.0160738
0.0160726
0.0160714
0.0160702
0.016069
0.0160678
0.0160666
0.0160654
0.0160643
0.0161143
0.0161131
0.0161119
0.0161108
0.0161096
0.0161084
0.0161073
0.0161061
0.0161049
0.0161037
0.0161025
0.0161013
0.0161001
0.0160989
0.0160977
0.0160965
0.0160953
0.0160941
0.0160929
0.0160917
0.0160904
0.0160892
0.016088
0.0160867
0.0160855
0.0160843
0.016083
0.0160818
0.0160805
0.0160792
0.016078
0.0160767
0.0160754
0.0160742
0.0160729
0.0160716
0.0160703
0.016069
0.0160677
0.0160664
0.0160651
0.0160638
0.0160625
0.0160612
0.0160599
0.0160586
0.0160572
0.0160559
0.0160546
0.0160532
0.0160519
0.0160506
0.0160492
0.0160478
0.0160465
0.0160451
0.0160438
0.0160424
0.016041
0.0160396
0.0160382
0.0160369
0.0160355
0.0160341
0.0160327
0.0160313
0.0160299
0.0160284
0.016027
0.0160256
0.0160242
0.0160228
0.0160214
0.0160202
0.0160842
0.0160829
0.0160816
0.0160802
0.0160789
0.0160775
0.0160761
0.0160748
0.0160734
0.016072
0.0160706
0.0160693
0.0160679
0.0160665
0.0160651
0.0160637
0.0160623
0.0160608
0.0160594
0.016058
0.0160566
0.0160552
0.0160537
0.0160523
0.0160508
0.0160494
0.0160479
0.0160465
0.016045
0.0160435
0.0160421
0.0160406
0.0160391
0.0160376
0.0160361
0.0160346
0.0160331
0.0160316
0.0160301
0.0160286
0.016027
0.0160255
0.016024
0.0160224
0.0160209
0.0160194
0.0160178
0.0160162
0.0160147
0.0160131
0.0160115
0.01601
0.0160084
0.0160068
0.0160052
0.0160036
0.016002
0.0160004
0.0159988
0.0159971
0.0159955
0.0159939
0.0159922
0.0159906
0.0159889
0.0159873
0.0159856
0.015984
0.0159823
0.0159806
0.0159789
0.0159773
0.0159757
0.0159743
0.0160528
0.0160512
0.0160497
0.0160481
0.0160465
0.016045
0.0160434
0.0160418
0.0160402
0.0160386
0.016037
0.0160354
0.0160338
0.0160322
0.0160306
0.0160289
0.0160273
0.0160256
0.016024
0.0160223
0.0160207
0.016019
0.0160173
0.0160157
0.016014
0.0160123
0.0160106
0.0160089
0.0160072
0.0160055
0.0160037
0.016002
0.0160003
0.0159985
0.0159968
0.015995
0.0159933
0.0159915
0.0159897
0.015988
0.0159862
0.0159844
0.0159826
0.0159808
0.015979
0.0159771
0.0159753
0.0159735
0.0159716
0.0159698
0.0159679
0.0159661
0.0159642
0.0159623
0.0159605
0.0159586
0.0159567
0.0159548
0.0159529
0.015951
0.015949
0.0159471
0.0159452
0.0159432
0.0159413
0.0159393
0.0159374
0.0159354
0.0159334
0.0159314
0.0159294
0.0159275
0.0159256
0.0159239
0.016019
0.0160172
0.0160154
0.0160136
0.0160117
0.0160099
0.0160081
0.0160062
0.0160044
0.0160025
0.0160006
0.0159988
0.0159969
0.015995
0.0159931
0.0159912
0.0159893
0.0159874
0.0159854
0.0159835
0.0159816
0.0159796
0.0159776
0.0159757
0.0159737
0.0159717
0.0159697
0.0159677
0.0159657
0.0159637
0.0159617
0.0159597
0.0159576
0.0159556
0.0159535
0.0159515
0.0159494
0.0159473
0.0159452
0.0159431
0.015941
0.0159389
0.0159368
0.0159347
0.0159325
0.0159304
0.0159282
0.015926
0.0159239
0.0159217
0.0159195
0.0159173
0.0159151
0.0159129
0.0159106
0.0159084
0.0159061
0.0159039
0.0159016
0.0158994
0.0158971
0.0158948
0.0158925
0.0158902
0.0158878
0.0158855
0.0158832
0.0158808
0.0158785
0.0158761
0.0158737
0.0158714
0.0158691
0.0158672
0.0159823
0.0159802
0.0159781
0.0159759
0.0159738
0.0159717
0.0159695
0.0159674
0.0159652
0.015963
0.0159609
0.0159587
0.0159565
0.0159543
0.015952
0.0159498
0.0159476
0.0159453
0.0159431
0.0159408
0.0159385
0.0159362
0.0159339
0.0159316
0.0159293
0.015927
0.0159246
0.0159223
0.0159199
0.0159176
0.0159152
0.0159128
0.0159104
0.015908
0.0159055
0.0159031
0.0159007
0.0158982
0.0158957
0.0158932
0.0158908
0.0158882
0.0158857
0.0158832
0.0158807
0.0158781
0.0158756
0.015873
0.0158704
0.0158678
0.0158652
0.0158626
0.0158599
0.0158573
0.0158546
0.015852
0.0158493
0.0158466
0.0158439
0.0158412
0.0158384
0.0158357
0.0158329
0.0158302
0.0158274
0.0158246
0.0158218
0.015819
0.0158161
0.0158133
0.0158105
0.0158076
0.0158049
0.0158026
0.0159418
0.0159394
0.0159369
0.0159345
0.015932
0.0159295
0.015927
0.0159245
0.0159219
0.0159194
0.0159168
0.0159142
0.0159117
0.0159091
0.0159065
0.0159039
0.0159012
0.0158986
0.0158959
0.0158932
0.0158906
0.0158879
0.0158852
0.0158824
0.0158797
0.0158769
0.0158742
0.0158714
0.0158686
0.0158658
0.015863
0.0158602
0.0158573
0.0158544
0.0158516
0.0158487
0.0158458
0.0158428
0.0158399
0.015837
0.015834
0.015831
0.015828
0.015825
0.015822
0.0158189
0.0158159
0.0158128
0.0158097
0.0158066
0.0158035
0.0158003
0.0157972
0.015794
0.0157908
0.0157876
0.0157844
0.0157812
0.0157779
0.0157747
0.0157714
0.0157681
0.0157648
0.0157614
0.0157581
0.0157547
0.0157513
0.0157479
0.0157445
0.015741
0.0157376
0.0157342
0.0157309
0.0157281
0.0158971
0.0158942
0.0158913
0.0158884
0.0158855
0.0158826
0.0158797
0.0158767
0.0158737
0.0158707
0.0158677
0.0158647
0.0158617
0.0158586
0.0158556
0.0158525
0.0158494
0.0158463
0.0158431
0.01584
0.0158368
0.0158336
0.0158304
0.0158272
0.0158239
0.0158207
0.0158174
0.0158141
0.0158108
0.0158075
0.0158041
0.0158007
0.0157973
0.0157939
0.0157905
0.0157871
0.0157836
0.0157801
0.0157766
0.0157731
0.0157695
0.015766
0.0157624
0.0157588
0.0157551
0.0157515
0.0157478
0.0157441
0.0157404
0.0157367
0.0157329
0.0157291
0.0157253
0.0157215
0.0157176
0.0157138
0.0157099
0.015706
0.015702
0.0156981
0.0156941
0.0156901
0.0156861
0.015682
0.015678
0.0156739
0.0156697
0.0156656
0.0156614
0.0156572
0.015653
0.0156489
0.0156449
0.0156415
0.0158471
0.0158438
0.0158404
0.015837
0.0158336
0.0158301
0.0158267
0.0158232
0.0158197
0.0158162
0.0158126
0.0158091
0.0158055
0.0158019
0.0157983
0.0157946
0.015791
0.0157873
0.0157836
0.0157798
0.0157761
0.0157723
0.0157685
0.0157646
0.0157608
0.0157569
0.015753
0.0157491
0.0157451
0.0157412
0.0157371
0.0157331
0.0157291
0.015725
0.0157209
0.0157168
0.0157126
0.0157084
0.0157042
0.0157
0.0156957
0.0156914
0.0156871
0.0156827
0.0156783
0.0156739
0.0156695
0.015665
0.0156606
0.015656
0.0156515
0.0156469
0.0156423
0.0156377
0.015633
0.0156283
0.0156236
0.0156188
0.015614
0.0156092
0.0156043
0.0155994
0.0155945
0.0155896
0.0155846
0.0155796
0.0155745
0.0155694
0.0155643
0.0155592
0.015554
0.0155489
0.015544
0.0155399
0.0157912
0.0157872
0.0157833
0.0157793
0.0157753
0.0157712
0.0157671
0.015763
0.0157589
0.0157548
0.0157506
0.0157464
0.0157421
0.0157379
0.0157336
0.0157293
0.0157249
0.0157205
0.0157161
0.0157117
0.0157072
0.0157027
0.0156982
0.0156936
0.015689
0.0156844
0.0156797
0.015675
0.0156703
0.0156655
0.0156607
0.0156559
0.015651
0.0156461
0.0156412
0.0156362
0.0156312
0.0156262
0.0156211
0.015616
0.0156108
0.0156056
0.0156004
0.0155951
0.0155898
0.0155845
0.0155791
0.0155736
0.0155682
0.0155627
0.0155571
0.0155516
0.0155459
0.0155403
0.0155346
0.0155288
0.015523
0.0155172
0.0155113
0.0155054
0.0154995
0.0154934
0.0154874
0.0154813
0.0154752
0.015469
0.0154628
0.0154565
0.0154502
0.0154438
0.0154374
0.0154311
0.015425
0.01542
0.0157284
0.0157237
0.0157191
0.0157144
0.0157096
0.0157048
0.0157
0.0156952
0.0156903
0.0156854
0.0156805
0.0156755
0.0156705
0.0156654
0.0156603
0.0156552
0.01565
0.0156448
0.0156395
0.0156342
0.0156289
0.0156235
0.0156181
0.0156126
0.0156071
0.0156016
0.015596
0.0155904
0.0155847
0.0155789
0.0155732
0.0155673
0.0155615
0.0155556
0.0155496
0.0155436
0.0155375
0.0155314
0.0155253
0.0155191
0.0155128
0.0155065
0.0155001
0.0154937
0.0154873
0.0154807
0.0154742
0.0154675
0.0154609
0.0154541
0.0154473
0.0154405
0.0154336
0.0154266
0.0154196
0.0154126
0.0154054
0.0153982
0.015391
0.0153837
0.0153763
0.0153689
0.0153614
0.0153538
0.0153462
0.0153385
0.0153308
0.015323
0.0153151
0.0153072
0.0152992
0.0152913
0.0152838
0.0152776
0.0156577
0.0156523
0.0156468
0.0156412
0.0156356
0.01563
0.0156243
0.0156186
0.0156128
0.015607
0.0156012
0.0155952
0.0155893
0.0155833
0.0155772
0.0155711
0.0155649
0.0155587
0.0155524
0.0155461
0.0155397
0.0155333
0.0155268
0.0155203
0.0155136
0.015507
0.0155003
0.0154935
0.0154866
0.0154797
0.0154727
0.0154657
0.0154586
0.0154515
0.0154442
0.0154369
0.0154296
0.0154221
0.0154146
0.0154071
0.0153994
0.0153917
0.015384
0.0153761
0.0153682
0.0153602
0.0153521
0.015344
0.0153358
0.0153275
0.0153191
0.0153107
0.0153021
0.0152935
0.0152848
0.0152761
0.0152672
0.0152583
0.0152493
0.0152402
0.015231
0.0152218
0.0152124
0.015203
0.0151934
0.0151838
0.0151741
0.0151643
0.0151544
0.0151445
0.0151344
0.0151245
0.0151149
0.0151072
0.0155783
0.0155719
0.0155654
0.0155589
0.0155523
0.0155456
0.0155389
0.0155321
0.0155253
0.0155184
0.0155114
0.0155044
0.0154973
0.0154902
0.015483
0.0154757
0.0154683
0.0154609
0.0154534
0.0154458
0.0154382
0.0154304
0.0154226
0.0154148
0.0154068
0.0153988
0.0153907
0.0153825
0.0153742
0.0153658
0.0153574
0.0153488
0.0153402
0.0153315
0.0153227
0.0153138
0.0153048
0.0152957
0.0152866
0.0152773
0.0152679
0.0152585
0.0152489
0.0152392
0.0152295
0.0152196
0.0152096
0.0151996
0.0151894
0.0151791
0.0151687
0.0151582
0.0151476
0.0151369
0.015126
0.0151151
0.015104
0.0150928
0.0150815
0.0150701
0.0150586
0.0150469
0.0150351
0.0150232
0.0150112
0.014999
0.0149867
0.0149743
0.0149618
0.0149491
0.0149364
0.0149237
0.0149116
0.0149018
0.0154892
0.0154816
0.0154739
0.0154662
0.0154584
0.0154506
0.0154426
0.0154346
0.0154265
0.0154183
0.01541
0.0154017
0.0153932
0.0153847
0.0153761
0.0153674
0.0153586
0.0153497
0.0153407
0.0153316
0.0153224
0.0153131
0.0153037
0.0152942
0.0152846
0.0152749
0.0152651
0.0152551
0.0152451
0.0152349
0.0152246
0.0152142
0.0152037
0.015193
0.0151822
0.0151713
0.0151603
0.0151491
0.0151378
0.0151264
0.0151148
0.0151031
0.0150913
0.0150793
0.0150671
0.0150549
0.0150425
0.0150299
0.0150172
0.0150043
0.0149913
0.0149781
0.0149648
0.0149513
0.0149377
0.0149238
0.0149099
0.0148957
0.0148814
0.014867
0.0148523
0.0148375
0.0148226
0.0148074
0.0147921
0.0147766
0.0147609
0.014745
0.014729
0.0147127
0.0146964
0.0146801
0.0146645
0.0146521
0.015389
0.0153801
0.0153711
0.0153619
0.0153527
0.0153434
0.015334
0.0153244
0.0153148
0.0153051
0.0152952
0.0152853
0.0152752
0.015265
0.0152547
0.0152442
0.0152337
0.015223
0.0152122
0.0152012
0.0151901
0.0151789
0.0151675
0.015156
0.0151444
0.0151325
0.0151206
0.0151085
0.0150962
0.0150837
0.0150711
0.0150584
0.0150454
0.0150323
0.015019
0.0150055
0.0149919
0.0149781
0.0149641
0.0149499
0.0149355
0.0149209
0.0149061
0.0148911
0.0148759
0.0148605
0.0148449
0.0148291
0.0148131
0.0147969
0.0147805
0.0147638
0.014747
0.0147299
0.0147125
0.014695
0.0146772
0.0146592
0.014641
0.0146225
0.0146038
0.0145849
0.0145657
0.0145463
0.0145266
0.0145067
0.0144865
0.0144661
0.0144454
0.0144245
0.0144034
0.0143824
0.0143623
0.0143462
0.0152759
0.0152653
0.0152547
0.0152439
0.0152329
0.0152219
0.0152107
0.0151994
0.0151879
0.0151763
0.0151645
0.0151526
0.0151406
0.0151284
0.015116
0.0151035
0.0150908
0.0150779
0.0150648
0.0150516
0.0150382
0.0150245
0.0150107
0.0149967
0.0149825
0.0149681
0.0149535
0.0149387
0.0149236
0.0149083
0.0148928
0.0148771
0.0148611
0.0148449
0.0148284
0.0148117
0.0147947
0.0147775
0.01476
0.0147423
0.0147243
0.014706
0.0146875
0.0146686
0.0146495
0.0146301
0.0146104
0.0145904
0.0145701
0.0145496
0.0145287
0.0145075
0.014486
0.0144642
0.0144421
0.0144197
0.014397
0.0143739
0.0143506
0.0143269
0.0143029
0.0142785
0.0142538
0.0142288
0.0142035
0.0141778
0.0141518
0.0141255
0.0140988
0.0140718
0.0140446
0.0140174
0.0139913
0.0139705
0.0151476
0.0151352
0.0151225
0.0151097
0.0150968
0.0150837
0.0150704
0.0150569
0.0150432
0.0150294
0.0150154
0.0150011
0.0149867
0.014972
0.0149572
0.0149421
0.0149268
0.0149112
0.0148955
0.0148794
0.0148632
0.0148466
0.0148298
0.0148128
0.0147954
0.0147778
0.0147599
0.0147417
0.0147232
0.0147043
0.0146852
0.0146657
0.014646
0.0146258
0.0146054
0.0145846
0.0145634
0.0145419
0.01452
0.0144978
0.0144751
0.0144521
0.0144288
0.014405
0.0143808
0.0143563
0.0143313
0.0143059
0.0142801
0.0142539
0.0142273
0.0142003
0.0141728
0.014145
0.0141167
0.014088
0.0140588
0.0140292
0.0139992
0.0139688
0.0139379
0.0139066
0.0138748
0.0138427
0.0138101
0.013777
0.0137435
0.0137096
0.0136753
0.0136405
0.0136055
0.0135704
0.0135368
0.0135098
0.015002
0.0149873
0.0149724
0.0149572
0.0149419
0.0149263
0.0149105
0.0148945
0.0148782
0.0148617
0.0148449
0.0148279
0.0148106
0.0147931
0.0147752
0.0147571
0.0147386
0.0147199
0.0147008
0.0146814
0.0146616
0.0146416
0.0146211
0.0146003
0.0145791
0.0145575
0.0145356
0.0145132
0.0144904
0.0144672
0.0144436
0.0144195
0.014395
0.01437
0.0143445
0.0143186
0.0142921
0.0142652
0.0142378
0.0142098
0.0141813
0.0141523
0.0141228
0.0140927
0.0140621
0.0140309
0.0139992
0.0139669
0.013934
0.0139006
0.0138666
0.0138321
0.013797
0.0137613
0.0137251
0.0136883
0.0136509
0.013613
0.0135745
0.0135354
0.0134958
0.0134557
0.013415
0.0133738
0.013332
0.0132897
0.0132469
0.0132036
0.0131597
0.0131154
0.0130707
0.0130261
0.0129832
0.0129486
0.0148367
0.0148193
0.0148017
0.0147838
0.0147656
0.0147471