/*--------------------------------*- C++ -*----------------------------------*\
  =========                 |
  \\      /  F ield         | OpenFOAM: The Open Source CFD Toolbox
   \\    /   O peration     | Website:  https://openfoam.org
    \\  /    A nd           | Version:  8
     \\/     M anipulation  |
\*---------------------------------------------------------------------------*/
FoamFile
{
    version     2.0;
    format      ascii;
    class       volScalarField;
    location    "42";
    object      nut;
}
// * * * * * * * * * * * * * * * * * * * * * * * * * * * * * * * * * * * * * //

dimensions      [0 2 -1 0 0 0 0];

internalField   nonuniform List<scalar> 
277560
(
0.140036
0.140121
0.140209
0.140298
0.140384
0.140469
0.140552
0.140633
0.140711
0.140788
0.140863
0.140935
0.141006
0.141075
0.141143
0.141209
0.141273
0.141336
0.141398
0.141458
0.141517
0.141575
0.141632
0.141688
0.141743
0.141797
0.14185
0.141903
0.141954
0.142005
0.142055
0.142104
0.142153
0.142201
0.142248
0.142295
0.142341
0.142386
0.14243
0.142474
0.142517
0.142559
0.142601
0.142641
0.14268
0.142719
0.142756
0.142792
0.142826
0.14286
0.142891
0.142922
0.14295
0.142977
0.143001
0.143024
0.143044
0.143062
0.143078
0.143091
0.143102
0.143109
0.143114
0.143116
0.143115
0.143111
0.143103
0.143093
0.143078
0.143061
0.14304
0.143016
0.142988
0.142956
0.142921
0.142882
0.14284
0.142794
0.142745
0.142692
0.142635
0.142575
0.142512
0.142446
0.142376
0.142303
0.142227
0.142149
0.142067
0.141983
0.141897
0.141808
0.141717
0.141625
0.14153
0.141434
0.141336
0.141238
0.141138
0.141038
0.140936
0.140835
0.140733
0.140631
0.140529
0.140427
0.140326
0.140225
0.140124
0.140023
0.139923
0.139823
0.139722
0.139622
0.139521
0.139419
0.139316
0.13921
0.139102
0.138991
0.140049
0.140141
0.140232
0.14032
0.140407
0.140492
0.140574
0.140654
0.140733
0.140809
0.140883
0.140955
0.141026
0.141094
0.141162
0.141227
0.141291
0.141354
0.141415
0.141476
0.141535
0.141592
0.141649
0.141705
0.14176
0.141814
0.141867
0.141919
0.14197
0.142021
0.142071
0.14212
0.142168
0.142216
0.142263
0.14231
0.142356
0.142401
0.142445
0.142489
0.142532
0.142574
0.142616
0.142656
0.142695
0.142734
0.142771
0.142807
0.142842
0.142876
0.142908
0.142938
0.142967
0.142993
0.143018
0.143041
0.143062
0.14308
0.143096
0.14311
0.143121
0.143129
0.143134
0.143137
0.143136
0.143132
0.143126
0.143115
0.143102
0.143085
0.143065
0.143041
0.143013
0.142982
0.142948
0.14291
0.142868
0.142823
0.142774
0.142722
0.142666
0.142607
0.142545
0.142479
0.14241
0.142338
0.142263
0.142185
0.142104
0.142021
0.141935
0.141847
0.141756
0.141664
0.14157
0.141475
0.141378
0.14128
0.14118
0.14108
0.14098
0.140879
0.140778
0.140676
0.140575
0.140474
0.140373
0.140273
0.140173
0.140073
0.139974
0.139875
0.139776
0.139677
0.139577
0.139478
0.139377
0.139274
0.139169
0.139062
0.140052
0.140148
0.14024
0.140328
0.140414
0.140498
0.140579
0.140658
0.140735
0.140811
0.140884
0.140955
0.141024
0.141092
0.141158
0.141223
0.141286
0.141348
0.141409
0.141468
0.141526
0.141583
0.14164
0.141695
0.141749
0.141802
0.141854
0.141906
0.141957
0.142007
0.142056
0.142105
0.142153
0.142201
0.142247
0.142294
0.142339
0.142384
0.142428
0.142472
0.142515
0.142557
0.142598
0.142639
0.142678
0.142717
0.142755
0.142791
0.142826
0.14286
0.142892
0.142923
0.142953
0.14298
0.143006
0.143029
0.143051
0.14307
0.143087
0.143101
0.143113
0.143123
0.143129
0.143132
0.143133
0.143131
0.143125
0.143116
0.143104
0.143088
0.143069
0.143047
0.143021
0.142991
0.142958
0.142922
0.142882
0.142838
0.142791
0.14274
0.142686
0.142628
0.142567
0.142503
0.142435
0.142365
0.142291
0.142214
0.142135
0.142053
0.141969
0.141882
0.141793
0.141702
0.141609
0.141515
0.141419
0.141322
0.141224
0.141126
0.141026
0.140926
0.140826
0.140726
0.140626
0.140526
0.140427
0.140328
0.14023
0.140132
0.140035
0.139938
0.139841
0.139745
0.139648
0.139552
0.139454
0.139355
0.139255
0.139152
0.140051
0.140147
0.140238
0.140325
0.14041
0.140492
0.140572
0.140649
0.140724
0.140798
0.140869
0.140939
0.141007
0.141073
0.141138
0.141201
0.141263
0.141323
0.141383
0.141441
0.141498
0.141554
0.141608
0.141662
0.141715
0.141768
0.141819
0.14187
0.14192
0.141969
0.142017
0.142065
0.142113
0.14216
0.142206
0.142251
0.142296
0.142341
0.142385
0.142428
0.142471
0.142513
0.142554
0.142595
0.142634
0.142673
0.142711
0.142748
0.142784
0.142818
0.142851
0.142883
0.142913
0.142941
0.142968
0.142993
0.143015
0.143036
0.143054
0.14307
0.143084
0.143094
0.143103
0.143108
0.14311
0.14311
0.143106
0.143099
0.143089
0.143075
0.143058
0.143038
0.143014
0.142987
0.142956
0.142922
0.142884
0.142843
0.142798
0.142749
0.142698
0.142642
0.142584
0.142522
0.142456
0.142388
0.142316
0.142242
0.142165
0.142085
0.142003
0.141918
0.141831
0.141742
0.141651
0.141559
0.141465
0.14137
0.141274
0.141177
0.141079
0.140982
0.140883
0.140785
0.140687
0.14059
0.140493
0.140396
0.1403
0.140205
0.140111
0.140018
0.139925
0.139832
0.13974
0.139648
0.139556
0.139462
0.139368
0.139271
0.140048
0.140141
0.14023
0.140315
0.140398
0.140477
0.140555
0.14063
0.140703
0.140774
0.140843
0.140911
0.140977
0.141041
0.141104
0.141165
0.141225
0.141284
0.141341
0.141398
0.141453
0.141507
0.141561
0.141613
0.141665
0.141715
0.141765
0.141815
0.141863
0.141911
0.141959
0.142006
0.142052
0.142098
0.142143
0.142188
0.142232
0.142276
0.142319
0.142362
0.142405
0.142446
0.142487
0.142528
0.142568
0.142607
0.142645
0.142682
0.142719
0.142754
0.142788
0.142821
0.142852
0.142881
0.14291
0.142936
0.14296
0.142983
0.143003
0.143021
0.143036
0.143049
0.14306
0.143067
0.143072
0.143074
0.143073
0.143069
0.143061
0.14305
0.143036
0.143019
0.142998
0.142974
0.142946
0.142915
0.14288
0.142842
0.1428
0.142754
0.142706
0.142653
0.142598
0.142539
0.142476
0.142411
0.142343
0.142271
0.142197
0.14212
0.14204
0.141958
0.141874
0.141788
0.1417
0.14161
0.141519
0.141426
0.141333
0.141238
0.141143
0.141048
0.140952
0.140857
0.140762
0.140667
0.140573
0.14048
0.140388
0.140297
0.140206
0.140117
0.140029
0.139942
0.139856
0.13977
0.139684
0.139598
0.139511
0.139423
0.140045
0.140134
0.140219
0.140301
0.140381
0.140457
0.140532
0.140604
0.140675
0.140743
0.14081
0.140875
0.140938
0.141
0.14106
0.141119
0.141177
0.141233
0.141289
0.141343
0.141396
0.141448
0.1415
0.14155
0.1416
0.141649
0.141697
0.141745
0.141792
0.141838
0.141884
0.141929
0.141974
0.142019
0.142063
0.142107
0.14215
0.142193
0.142236
0.142278
0.14232
0.142361
0.142402
0.142443
0.142482
0.142522
0.14256
0.142598
0.142635
0.142671
0.142706
0.14274
0.142773
0.142804
0.142834
0.142862
0.142889
0.142913
0.142936
0.142956
0.142975
0.14299
0.143004
0.143014
0.143022
0.143027
0.143029
0.143028
0.143024
0.143017
0.143007
0.142993
0.142976
0.142955
0.142931
0.142903
0.142872
0.142838
0.142799
0.142758
0.142713
0.142664
0.142612
0.142557
0.142499
0.142437
0.142372
0.142304
0.142234
0.14216
0.142084
0.142005
0.141925
0.141842
0.141757
0.14167
0.141582
0.141493
0.141402
0.141311
0.14122
0.141127
0.141035
0.140943
0.140852
0.140761
0.140671
0.140581
0.140493
0.140407
0.140321
0.140237
0.140154
0.140073
0.139993
0.139914
0.139835
0.139757
0.139678
0.139599
0.140043
0.140126
0.140207
0.140285
0.140361
0.140434
0.140505
0.140575
0.140642
0.140707
0.140771
0.140833
0.140893
0.140952
0.14101
0.141066
0.141121
0.141175
0.141228
0.14128
0.141331
0.141381
0.14143
0.141478
0.141525
0.141572
0.141618
0.141663
0.141708
0.141753
0.141797
0.14184
0.141883
0.141926
0.141969
0.142011
0.142053
0.142095
0.142137
0.142178
0.142219
0.14226
0.142301
0.142341
0.142381
0.14242
0.142459
0.142498
0.142536
0.142573
0.142609
0.142645
0.142679
0.142712
0.142744
0.142775
0.142804
0.142831
0.142856
0.14288
0.142901
0.14292
0.142937
0.142951
0.142963
0.142972
0.142978
0.142981
0.142981
0.142978
0.142972
0.142962
0.142949
0.142933
0.142913
0.14289
0.142863
0.142833
0.1428
0.142762
0.142722
0.142678
0.14263
0.142579
0.142525
0.142468
0.142407
0.142343
0.142277
0.142207
0.142135
0.142061
0.141984
0.141905
0.141824
0.141741
0.141657
0.141571
0.141485
0.141397
0.141309
0.141221
0.141132
0.141044
0.140957
0.14087
0.140784
0.140699
0.140616
0.140534
0.140454
0.140375
0.140298
0.140223
0.140149
0.140077
0.140006
0.139935
0.139864
0.139793
0.14004
0.140118
0.140194
0.140268
0.14034
0.14041
0.140477
0.140543
0.140607
0.140669
0.140729
0.140788
0.140845
0.140901
0.140956
0.141009
0.141061
0.141112
0.141162
0.141211
0.141259
0.141306
0.141353
0.141398
0.141443
0.141487
0.14153
0.141573
0.141616
0.141658
0.141699
0.14174
0.141781
0.141822
0.141863
0.141903
0.141944
0.141984
0.142024
0.142065
0.142105
0.142145
0.142185
0.142225
0.142265
0.142305
0.142344
0.142383
0.142422
0.14246
0.142498
0.142535
0.142571
0.142607
0.142641
0.142674
0.142706
0.142737
0.142765
0.142793
0.142818
0.142841
0.142862
0.14288
0.142896
0.14291
0.142921
0.142928
0.142933
0.142935
0.142934
0.142929
0.142921
0.14291
0.142895
0.142877
0.142855
0.14283
0.142802
0.142769
0.142734
0.142695
0.142652
0.142606
0.142557
0.142504
0.142448
0.142389
0.142328
0.142263
0.142195
0.142125
0.142053
0.141978
0.141901
0.141823
0.141743
0.141661
0.141579
0.141495
0.141411
0.141327
0.141243
0.141159
0.141076
0.140993
0.140912
0.140832
0.140753
0.140676
0.140601
0.140528
0.140457
0.140388
0.14032
0.140255
0.14019
0.140126
0.140063
0.139999
0.140037
0.140111
0.140182
0.140252
0.140319
0.140385
0.140449
0.140511
0.140571
0.140629
0.140686
0.140742
0.140796
0.140848
0.1409
0.14095
0.140999
0.141047
0.141093
0.141139
0.141184
0.141228
0.141271
0.141313
0.141355
0.141396
0.141436
0.141476
0.141515
0.141554
0.141593
0.141632
0.14167
0.141708
0.141746
0.141785
0.141823
0.141862
0.1419
0.141939
0.141978
0.142017
0.142057
0.142096
0.142136
0.142175
0.142215
0.142255
0.142295
0.142334
0.142373
0.142412
0.142451
0.142489
0.142526
0.142562
0.142597
0.142631
0.142664
0.142695
0.142725
0.142753
0.142779
0.142802
0.142823
0.142842
0.142858
0.142872
0.142882
0.142889
0.142894
0.142895
0.142892
0.142887
0.142878
0.142865
0.142849
0.14283
0.142807
0.14278
0.14275
0.142716
0.142679
0.142639
0.142595
0.142547
0.142497
0.142443
0.142386
0.142326
0.142264
0.142199
0.142131
0.142061
0.141989
0.141915
0.141839
0.141762
0.141684
0.141605
0.141525
0.141446
0.141366
0.141286
0.141207
0.141129
0.141052
0.140977
0.140903
0.140831
0.140761
0.140693
0.140628
0.140564
0.140502
0.140443
0.140384
0.140327
0.140271
0.140214
0.140035
0.140104
0.140171
0.140236
0.1403
0.140361
0.140421
0.140479
0.140536
0.140591
0.140644
0.140696
0.140746
0.140795
0.140843
0.14089
0.140935
0.14098
0.141023
0.141065
0.141106
0.141147
0.141186
0.141225
0.141263
0.1413
0.141337
0.141373
0.141409
0.141444
0.141479
0.141514
0.14155
0.141585
0.14162
0.141656
0.141692
0.141728
0.141764
0.141801
0.141839
0.141876
0.141915
0.141953
0.141993
0.142032
0.142072
0.142113
0.142153
0.142194
0.142235
0.142276
0.142317
0.142357
0.142397
0.142437
0.142476
0.142515
0.142552
0.142588
0.142623
0.142656
0.142687
0.142717
0.142744
0.142769
0.142791
0.142811
0.142828
0.142841
0.142852
0.14286
0.142864
0.142865
0.142862
0.142856
0.142846
0.142833
0.142816
0.142795
0.142771
0.142743
0.142712
0.142677
0.142639
0.142597
0.142552
0.142504
0.142452
0.142398
0.142341
0.14228
0.142218
0.142153
0.142085
0.142016
0.141945
0.141873
0.141799
0.141724
0.141649
0.141574
0.141498
0.141423
0.141348
0.141275
0.141202
0.141131
0.141062
0.140995
0.14093
0.140867
0.140806
0.140748
0.140691
0.140637
0.140585
0.140533
0.140483
0.140432
0.140033
0.140097
0.14016
0.140222
0.140281
0.140339
0.140395
0.140449
0.140502
0.140553
0.140603
0.140651
0.140698
0.140743
0.140787
0.14083
0.140872
0.140913
0.140952
0.14099
0.141027
0.141064
0.141099
0.141133
0.141167
0.1412
0.141232
0.141264
0.141295
0.141327
0.141358
0.141389
0.14142
0.141452
0.141484
0.141516
0.141549
0.141582
0.141616
0.14165
0.141686
0.141722
0.141759
0.141796
0.141835
0.141874
0.141914
0.141955
0.141997
0.142039
0.142081
0.142124
0.142168
0.142211
0.142255
0.142298
0.142342
0.142385
0.142427
0.142469
0.14251
0.142549
0.142587
0.142623
0.142657
0.142689
0.142719
0.142746
0.14277
0.142791
0.142809
0.142824
0.142835
0.142843
0.142848
0.142848
0.142845
0.142839
0.142828
0.142814
0.142797
0.142775
0.14275
0.142722
0.142689
0.142653
0.142614
0.142572
0.142526
0.142477
0.142425
0.14237
0.142312
0.142252
0.142189
0.142125
0.142059
0.141991
0.141922
0.141852
0.141781
0.14171
0.141638
0.141567
0.141497
0.141427
0.141359
0.141293
0.141228
0.141165
0.141104
0.141045
0.140989
0.140936
0.140884
0.140835
0.140787
0.140741
0.140696
0.14065
0.140031
0.140092
0.140151
0.140208
0.140264
0.140318
0.14037
0.140421
0.14047
0.140518
0.140563
0.140608
0.140651
0.140693
0.140733
0.140772
0.14081
0.140846
0.140881
0.140915
0.140948
0.140979
0.141009
0.141039
0.141067
0.141095
0.141122
0.141149
0.141175
0.141202
0.141228
0.141254
0.141281
0.141308
0.141336
0.141364
0.141393
0.141423
0.141454
0.141485
0.141518
0.141552
0.141587
0.141624
0.141661
0.1417
0.14174
0.141781
0.141823
0.141866
0.141911
0.141956
0.142002
0.142049
0.142096
0.142144
0.142192
0.14224
0.142288
0.142336
0.142384
0.14243
0.142476
0.14252
0.142562
0.142602
0.14264
0.142676
0.142708
0.142738
0.142764
0.142787
0.142807
0.142823
0.142835
0.142843
0.142847
0.142848
0.142845
0.142838
0.142827
0.142812
0.142793
0.142771
0.142745
0.142715
0.142682
0.142645
0.142605
0.142561
0.142515
0.142465
0.142412
0.142357
0.1423
0.14224
0.142178
0.142115
0.14205
0.141984
0.141918
0.141851
0.141784
0.141717
0.14165
0.141585
0.14152
0.141457
0.141396
0.141337
0.141281
0.141226
0.141174
0.141125
0.141078
0.141033
0.140989
0.140948
0.140907
0.140866
0.140029
0.140087
0.140143
0.140197
0.140249
0.140299
0.140348
0.140395
0.14044
0.140484
0.140526
0.140567
0.140606
0.140644
0.14068
0.140715
0.140748
0.14078
0.14081
0.140839
0.140867
0.140893
0.140917
0.140941
0.140963
0.140985
0.141006
0.141027
0.141047
0.141068
0.141088
0.141109
0.14113
0.141152
0.141175
0.141199
0.141223
0.141249
0.141276
0.141305
0.141335
0.141366
0.141399
0.141434
0.14147
0.141508
0.141548
0.141589
0.141631
0.141676
0.141722
0.141769
0.141818
0.141868
0.141919
0.141971
0.142024
0.142078
0.142133
0.142188
0.142243
0.142297
0.142351
0.142404
0.142456
0.142506
0.142554
0.142599
0.142641
0.142681
0.142716
0.142749
0.142777
0.142802
0.142822
0.142839
0.142852
0.14286
0.142864
0.142864
0.14286
0.142853
0.142841
0.142825
0.142805
0.142781
0.142754
0.142723
0.142688
0.14265
0.142609
0.142565
0.142517
0.142467
0.142414
0.142359
0.142302
0.142243
0.142183
0.142121
0.142058
0.141995
0.141932
0.141868
0.141806
0.141744
0.141683
0.141623
0.141566
0.14151
0.141457
0.141406
0.141358
0.141312
0.141269
0.141228
0.141188
0.141151
0.141114
0.141077
0.140028
0.140083
0.140135
0.140186
0.140235
0.140282
0.140327
0.140371
0.140413
0.140453
0.140491
0.140528
0.140563
0.140597
0.140629
0.140659
0.140688
0.140714
0.140739
0.140762
0.140783
0.140803
0.140821
0.140838
0.140853
0.140868
0.140882
0.140896
0.140909
0.140923
0.140937
0.140951
0.140966
0.140983
0.141
0.141019
0.141038
0.14106
0.141083
0.141108
0.141135
0.141164
0.141194
0.141227
0.141262
0.141299
0.141338
0.141379
0.141423
0.141468
0.141515
0.141565
0.141616
0.141669
0.141724
0.141781
0.141839
0.141899
0.14196
0.142022
0.142085
0.142149
0.142212
0.142275
0.142337
0.142398
0.142457
0.142513
0.142567
0.142618
0.142664
0.142707
0.142746
0.14278
0.14281
0.142836
0.142857
0.142874
0.142886
0.142894
0.142897
0.142896
0.142891
0.142882
0.142868
0.142851
0.14283
0.142804
0.142775
0.142743
0.142707
0.142668
0.142625
0.14258
0.142531
0.142481
0.142428
0.142373
0.142317
0.142259
0.1422
0.14214
0.14208
0.14202
0.141961
0.141902
0.141845
0.141788
0.141734
0.141681
0.141631
0.141584
0.141538
0.141496
0.141456
0.141418
0.141382
0.141347
0.141314
0.14128
0.140027
0.140079
0.140129
0.140177
0.140222
0.140266
0.140308
0.140349
0.140387
0.140424
0.140458
0.140491
0.140522
0.140552
0.140579
0.140604
0.140627
0.140648
0.140667
0.140683
0.140697
0.140709
0.140719
0.140728
0.140736
0.140742
0.140748
0.140754
0.14076
0.140766
0.140772
0.14078
0.140789
0.1408
0.140812
0.140826
0.140841
0.140859
0.140878
0.140901
0.140926
0.140953
0.140983
0.141016
0.14105
0.141087
0.141127
0.141168
0.141212
0.141259
0.141308
0.141358
0.141412
0.141467
0.141525
0.141584
0.141646
0.14171
0.141777
0.141845
0.141915
0.141987
0.142059
0.142133
0.142206
0.142278
0.142349
0.142419
0.142485
0.142548
0.142607
0.142662
0.142712
0.142757
0.142797
0.142833
0.142863
0.142888
0.142909
0.142925
0.142936
0.142942
0.142944
0.142941
0.142934
0.142923
0.142907
0.142888
0.142864
0.142837
0.142806
0.142772
0.142734
0.142693
0.142649
0.142603
0.142554
0.142503
0.14245
0.142396
0.142341
0.142284
0.142228
0.142171
0.142114
0.142058
0.142004
0.14195
0.141898
0.141849
0.141801
0.141756
0.141713
0.141674
0.141636
0.141601
0.141568
0.141536
0.141505
0.141475
0.140026
0.140076
0.140123
0.140168
0.140211
0.140252
0.140291
0.140328
0.140363
0.140396
0.140427
0.140456
0.140483
0.140507
0.14053
0.140549
0.140566
0.14058
0.140591
0.1406
0.140606
0.140609
0.14061
0.14061
0.140608
0.140606
0.140603
0.140601
0.140599
0.140598
0.140598
0.140601
0.140606
0.140614
0.140625
0.140637
0.140652
0.140669
0.140689
0.14071
0.140735
0.140762
0.140791
0.140823
0.140858
0.140895
0.140935
0.140977
0.141022
0.141069
0.141119
0.141171
0.141226
0.141283
0.141343
0.141406
0.141471
0.141538
0.141607
0.141679
0.141753
0.141829
0.141907
0.141986
0.142068
0.14215
0.142233
0.142315
0.142395
0.142472
0.142544
0.142612
0.142674
0.142731
0.142783
0.142828
0.142869
0.142903
0.142932
0.142956
0.142975
0.142988
0.142997
0.143001
0.143
0.142995
0.142985
0.142971
0.142953
0.142931
0.142905
0.142876
0.142842
0.142806
0.142766
0.142724
0.142679
0.142631
0.142582
0.142531
0.142479
0.142425
0.142372
0.142318
0.142264
0.14221
0.142158
0.142107
0.142057
0.14201
0.141965
0.141922
0.141882
0.141844
0.141809
0.141776
0.141745
0.141716
0.141687
0.141659
0.140025
0.140073
0.140118
0.140161
0.140201
0.140239
0.140275
0.140309
0.140341
0.14037
0.140397
0.140422
0.140444
0.140463
0.14048
0.140493
0.140503
0.140509
0.140512
0.140511
0.140507
0.1405
0.140492
0.140481
0.140471
0.14046
0.140449
0.140442
0.140437
0.140434
0.140434
0.140435
0.14044
0.140447
0.140456
0.140468
0.140482
0.140498
0.140517
0.140539
0.140563
0.140589
0.140618
0.14065
0.140685
0.140722
0.140762
0.140804
0.140849
0.140897
0.140948
0.141002
0.141058
0.141117
0.141179
0.141244
0.141311
0.141381
0.141454
0.141529
0.141606
0.141686
0.141769
0.141853
0.141939
0.142028
0.142117
0.142209
0.1423
0.14239
0.142476
0.142558
0.142633
0.142703
0.142766
0.142823
0.142873
0.142917
0.142955
0.142987
0.143014
0.143035
0.14305
0.143061
0.143066
0.143067
0.143063
0.143054
0.143041
0.143024
0.143003
0.142978
0.142949
0.142916
0.142881
0.142842
0.1428
0.142756
0.14271
0.142662
0.142613
0.142562
0.142511
0.142459
0.142408
0.142357
0.142306
0.142257
0.14221
0.142164
0.142121
0.14208
0.142042
0.142006
0.141972
0.141942
0.141913
0.141885
0.141858
0.141831
0.140024
0.14007
0.140113
0.140154
0.140192
0.140227
0.14026
0.140291
0.140319
0.140344
0.140367
0.140388
0.140405
0.140419
0.140428
0.140434
0.140436
0.140433
0.140425
0.140414
0.140399
0.140382
0.140364
0.140346
0.14033
0.140317
0.140306
0.140297
0.140291
0.140287
0.140286
0.140287
0.14029
0.140296
0.140305
0.140316
0.14033
0.140346
0.140365
0.140386
0.14041
0.140436
0.140465
0.140496
0.14053
0.140567
0.140607
0.14065
0.140695
0.140743
0.140795
0.140849
0.140906
0.140967
0.14103
0.141096
0.141166
0.141238
0.141314
0.141392
0.141473
0.141557
0.141643
0.141732
0.141823
0.141916
0.142012
0.142109
0.142208
0.142307
0.142406
0.1425
0.142589
0.142672
0.142747
0.142815
0.142875
0.142929
0.142976
0.143017
0.143051
0.143079
0.143102
0.143119
0.14313
0.143137
0.143138
0.143135
0.143127
0.143114
0.143097
0.143076
0.143052
0.143023
0.142991
0.142956
0.142917
0.142877
0.142833
0.142788
0.142741
0.142693
0.142644
0.142595
0.142545
0.142496
0.142447
0.1424
0.142354
0.14231
0.142268
0.142229
0.142192
0.142158
0.142126
0.142096
0.142069
0.142043
0.142017
0.141991
0.140023
0.140068
0.140109
0.140147
0.140183
0.140216
0.140246
0.140273
0.140298
0.140319
0.140338
0.140353
0.140365
0.140372
0.140374
0.140371
0.140363
0.140349
0.14033
0.140308
0.140284
0.14026
0.140238
0.140219
0.140202
0.140188
0.140176
0.140167
0.14016
0.140156
0.140154
0.140155
0.140159
0.140165
0.140173
0.140184
0.140198
0.140214
0.140233
0.140254
0.140277
0.140303
0.140331
0.140362
0.140396
0.140433
0.140472
0.140514
0.140559
0.140607
0.140658
0.140713
0.14077
0.140831
0.140896
0.140963
0.141034
0.141108
0.141186
0.141267
0.141351
0.141438
0.141528
0.141621
0.141716
0.141815
0.141915
0.142018
0.142122
0.142228
0.142336
0.142442
0.142543
0.142638
0.142725
0.142804
0.142875
0.142939
0.142995
0.143044
0.143085
0.143121
0.14315
0.143173
0.143191
0.143203
0.14321
0.143211
0.143208
0.1432
0.143187
0.14317
0.143149
0.143124
0.143096
0.143064
0.143029
0.142991
0.14295
0.142907
0.142863
0.142817
0.14277
0.142722
0.142674
0.142627
0.14258
0.142534
0.14249
0.142447
0.142406
0.142368
0.142332
0.142299
0.142268
0.14224
0.142213
0.142188
0.142163
0.142138
0.140023
0.140065
0.140105
0.140141
0.140174
0.140204
0.140231
0.140255
0.140276
0.140294
0.140307
0.140317
0.140322
0.140321
0.140315
0.140302
0.140282
0.140257
0.140228
0.140198
0.140171
0.140146
0.140124
0.140104
0.140087
0.140072
0.14006
0.140051
0.140045
0.140041
0.14004
0.140042
0.140046
0.140053
0.140062
0.140073
0.140087
0.140103
0.140121
0.140142
0.140165
0.14019
0.140218
0.140248
0.140281
0.140317
0.140355
0.140396
0.140441
0.140488
0.140539
0.140593
0.14065
0.140711
0.140775
0.140843
0.140915
0.14099
0.141069
0.141152
0.141239
0.141328
0.141422
0.141518
0.141618
0.14172
0.141825
0.141933
0.142043
0.142155
0.142269
0.142383
0.142496
0.142602
0.1427
0.142791
0.142872
0.142945
0.14301
0.143067
0.143116
0.143159
0.143194
0.143224
0.143247
0.143264
0.143276
0.143283
0.143284
0.14328
0.143272
0.143259
0.143241
0.14322
0.143194
0.143165
0.143133
0.143097
0.143059
0.143019
0.142976
0.142932
0.142887
0.142841
0.142795
0.142749
0.142703
0.142658
0.142615
0.142573
0.142534
0.142496
0.142461
0.142429
0.142399
0.142371
0.142345
0.14232
0.142296
0.142271
0.140022
0.140063
0.140101
0.140135
0.140165
0.140193
0.140217
0.140237
0.140254
0.140267
0.140275
0.140278
0.140275
0.140265
0.140248
0.140224
0.140193
0.140159
0.140127
0.140097
0.140069
0.140044
0.140021
0.140002
0.139985
0.139971
0.13996
0.139953
0.139948
0.139945
0.139946
0.139948
0.139954
0.139961
0.139971
0.139983
0.139997
0.140014
0.140032
0.140052
0.140075
0.140099
0.140126
0.140155
0.140186
0.14022
0.140257
0.140297
0.140339
0.140385
0.140435
0.140487
0.140544
0.140604
0.140668
0.140736
0.140808
0.140883
0.140963
0.141047
0.141135
0.141227
0.141322
0.141422
0.141525
0.141631
0.141741
0.141853
0.141968
0.142085
0.142204
0.142326
0.142447
0.142563
0.142673
0.142773
0.142864
0.142947
0.14302
0.143085
0.143142
0.143191
0.143233
0.143268
0.143297
0.14332
0.143337
0.143348
0.143353
0.143354
0.143349
0.143339
0.143325
0.143307
0.143285
0.143258
0.143229
0.143196
0.14316
0.143122
0.143081
0.143039
0.142995
0.142951
0.142906
0.142861
0.142816
0.142772
0.14273
0.142689
0.14265
0.142613
0.142579
0.142547
0.142517
0.14249
0.142464
0.142439
0.142415
0.14239
0.140021
0.140061
0.140096
0.140128
0.140156
0.140181
0.140201
0.140218
0.14023
0.140237
0.140239
0.140235
0.140223
0.140202
0.140174
0.140139
0.140102
0.140067
0.140034
0.140004
0.139976
0.139952
0.139931
0.139913
0.139898
0.139886
0.139878
0.139872
0.139869
0.139869
0.139871
0.139876
0.139883
0.139893
0.139904
0.139917
0.139932
0.139949
0.139967
0.139987
0.140009
0.140032
0.140057
0.140084
0.140114
0.140145
0.140179
0.140216
0.140256
0.140299
0.140346
0.140397
0.140451
0.14051
0.140572
0.140639
0.14071
0.140786
0.140866
0.14095
0.141038
0.141131
0.141229
0.14133
0.141436
0.141546
0.141659
0.141775
0.141895
0.142017
0.142141
0.142268
0.142396
0.142522
0.142641
0.142751
0.142852
0.142943
0.143024
0.143097
0.143161
0.143217
0.143265
0.143306
0.143341
0.143368
0.14339
0.143405
0.143415
0.143419
0.143418
0.143412
0.143401
0.143386
0.143366
0.143343
0.143316
0.143285
0.143251
0.143215
0.143176
0.143135
0.143093
0.14305
0.143006
0.142962
0.142918
0.142875
0.142833
0.142793
0.142754
0.142718
0.142684
0.142652
0.142623
0.142595
0.142569
0.142545
0.14252
0.142494
0.14002
0.140058
0.140092
0.140121
0.140146
0.140168
0.140184
0.140197
0.140204
0.140205
0.140199
0.140185
0.140163
0.140131
0.140092
0.140053
0.140016
0.139982
0.13995
0.139921
0.139895
0.139873
0.139855
0.139839
0.139828
0.139819
0.139814
0.139811
0.139812
0.139815
0.13982
0.139828
0.139838
0.13985
0.139863
0.139878
0.139895
0.139912
0.139931
0.13995
0.139971
0.139993
0.140016
0.140041
0.140067
0.140095
0.140125
0.140158
0.140193
0.140232
0.140275
0.140322
0.140373
0.140428
0.140488
0.140553
0.140622
0.140696
0.140775
0.140859
0.140948
0.141041
0.14114
0.141243
0.14135
0.141462
0.141578
0.141698
0.141821
0.141948
0.142077
0.142208
0.142342
0.142476
0.142604
0.142723
0.142833
0.142932
0.143022
0.143102
0.143173
0.143235
0.14329
0.143336
0.143376
0.143408
0.143434
0.143454
0.143468
0.143476
0.143478
0.143475
0.143468
0.143455
0.143439
0.143417
0.143392
0.143364
0.143332
0.143298
0.14326
0.143221
0.14318
0.143138
0.143095
0.143052
0.143009
0.142966
0.142925
0.142885
0.142847
0.14281
0.142776
0.142744
0.142715
0.142687
0.142661
0.142635
0.14261
0.142583
0.14002
0.140055
0.140087
0.140113
0.140136
0.140153
0.140166
0.140173
0.140174
0.140167
0.140153
0.140129
0.140095
0.140054
0.140013
0.139974
0.139938
0.139905
0.139876
0.139849
0.139827
0.139809
0.139794
0.139783
0.139776
0.139772
0.139771
0.139774
0.139779
0.139786
0.139797
0.139809
0.139823
0.139838
0.139855
0.139872
0.13989
0.139908
0.139927
0.139947
0.139966
0.139987
0.140007
0.140029
0.140051
0.140075
0.1401
0.140126
0.140156
0.140188
0.140224
0.140265
0.14031
0.14036
0.140416
0.140477
0.140543
0.140615
0.140692
0.140775
0.140863
0.140956
0.141054
0.141157
0.141266
0.14138
0.141498
0.14162
0.141747
0.141877
0.14201
0.142146
0.142285
0.142424
0.14256
0.142688
0.142806
0.142914
0.143011
0.143098
0.143176
0.143245
0.143305
0.143357
0.143401
0.143439
0.143469
0.143493
0.14351
0.143522
0.143528
0.143529
0.143524
0.143514
0.1435
0.143481
0.143459
0.143432
0.143402
0.143369
0.143334
0.143296
0.143256
0.143215
0.143173
0.14313
0.143088
0.143046
0.143004
0.142965
0.142926
0.14289
0.142856
0.142823
0.142793
0.142765
0.142738
0.142712
0.142685
0.142657
0.140019
0.140052
0.140081
0.140105
0.140124
0.140137
0.140144
0.140145
0.140139
0.140124
0.140099
0.140064
0.140021
0.139979
0.13994
0.139903
0.139869
0.139839
0.139814
0.139792
0.139775
0.139762
0.139752
0.139747
0.139746
0.139748
0.139754
0.139763
0.139775
0.139789
0.139803
0.139819
0.139836
0.139853
0.139871
0.139889
0.139907
0.139926
0.139944
0.139963
0.139982
0.140001
0.14002
0.140039
0.140059
0.140079
0.1401
0.140121
0.140145
0.14017
0.140198
0.14023
0.140267
0.140309
0.140358
0.140413
0.140475
0.140542
0.140616
0.140696
0.140782
0.140873
0.140971
0.141074
0.141182
0.141297
0.141416
0.141541
0.14167
0.141803
0.141939
0.142079
0.142222
0.142366
0.142509
0.142645
0.142771
0.142886
0.142991
0.143085
0.143169
0.143244
0.14331
0.143367
0.143417
0.143459
0.143493
0.143521
0.143543
0.143558
0.143567
0.143571
0.143569
0.143562
0.14355
0.143534
0.143513
0.143489
0.14346
0.143429
0.143395
0.143358
0.14332
0.143279
0.143238
0.143196
0.143154
0.143112
0.143071
0.143031
0.142993
0.142956
0.142922
0.142889
0.142858
0.142829
0.142801
0.142774
0.142745
0.142715
0.140018
0.140049
0.140075
0.140095
0.14011
0.140118
0.14012
0.140114
0.140099
0.140074
0.140038
0.139994
0.139952
0.139911
0.139874
0.139841
0.139811
0.139787
0.139766
0.139751
0.13974
0.139734
0.139732
0.139735
0.139742
0.139753
0.139766
0.13978
0.139795
0.139812
0.139829
0.139846
0.139864
0.139882
0.139901
0.139919
0.139938
0.139956
0.139974
0.139992
0.14001
0.140027
0.140045
0.140062
0.140079
0.140097
0.140115
0.140133
0.140152
0.140172
0.140194
0.140218
0.140246
0.140278
0.140317
0.140363
0.140417
0.140479
0.140547
0.140623
0.140705
0.140794
0.14089
0.140991
0.141099
0.141213
0.141333
0.141458
0.141589
0.141724
0.141863
0.142006
0.142152
0.142301
0.14245
0.142592
0.142725
0.142848
0.14296
0.143061
0.143151
0.143232
0.143303
0.143366
0.14342
0.143467
0.143506
0.143538
0.143563
0.143582
0.143594
0.143601
0.143602
0.143598
0.143588
0.143574
0.143556
0.143533
0.143506
0.143477
0.143444
0.143408
0.143371
0.143331
0.143291
0.143249
0.143207
0.143166
0.143125
0.143085
0.143046
0.143009
0.142974
0.142941
0.142909
0.142879
0.14285
0.142821
0.14279
0.142758
0.140016
0.140045
0.140067
0.140084
0.140093
0.140096
0.140091
0.140076
0.140052
0.140016
0.139972
0.139929
0.139888
0.139851
0.139818
0.13979
0.139767
0.139749
0.139737
0.139729
0.139727
0.139731
0.139739
0.13975
0.139763
0.139778
0.139794
0.139811
0.139829
0.139847
0.139865
0.139884
0.139903
0.139922
0.13994
0.139959
0.139977
0.139995
0.140013
0.14003
0.140047
0.140063
0.140079
0.140095
0.14011
0.140125
0.14014
0.140155
0.140171
0.140187
0.140204
0.140222
0.140243
0.140267
0.140295
0.14033
0.140374
0.140426
0.140487
0.140557
0.140634
0.140719
0.140811
0.14091
0.141015
0.141128
0.141247
0.141372
0.141503
0.14164
0.14178
0.141925
0.142074
0.142226
0.14238
0.142529
0.142669
0.142799
0.142917
0.143024
0.143121
0.143208
0.143285
0.143353
0.143412
0.143463
0.143506
0.143542
0.143571
0.143593
0.143609
0.143619
0.143622
0.143621
0.143614
0.143602
0.143585
0.143565
0.14354
0.143511
0.14348
0.143445
0.143409
0.14337
0.14333
0.143289
0.143248
0.143206
0.143165
0.143125
0.143086
0.143048
0.143012
0.142978
0.142945
0.142914
0.142883
0.142852
0.14282
0.142785
0.140015
0.14004
0.140059
0.14007
0.140074
0.14007
0.140056
0.140032
0.139997
0.139953
0.13991
0.13987
0.139834
0.139802
0.139775
0.139755
0.13974
0.139731
0.139728
0.139731
0.13974
0.139752
0.139766
0.139781
0.139797
0.139815
0.139833
0.139852
0.139871
0.139891
0.13991
0.13993
0.139949
0.139969
0.139988
0.140006
0.140024
0.140042
0.140059
0.140075
0.140091
0.140106
0.140121
0.140135
0.140148
0.140161
0.140174
0.140186
0.140199
0.140211
0.140224
0.140238
0.140253
0.14027
0.14029