/*--------------------------------*- C++ -*----------------------------------*\
  =========                 |
  \\      /  F ield         | OpenFOAM: The Open Source CFD Toolbox
   \\    /   O peration     | Website:  https://openfoam.org
    \\  /    A nd           | Version:  8
     \\/     M anipulation  |
\*---------------------------------------------------------------------------*/
FoamFile
{
    version     2.0;
    format      ascii;
    class       volScalarField;
    location    "0.7";
    object      p;
}
// * * * * * * * * * * * * * * * * * * * * * * * * * * * * * * * * * * * * * //

dimensions      [0 2 -2 0 0 0 0];

internalField   nonuniform List<scalar> 
248760
(
0.175536
0.175492
0.175293
0.175005
0.174618
0.174136
0.173563
0.172903
0.172161
0.171338
0.170438
0.169463
0.168416
0.167299
0.166116
0.164869
0.16356
0.162191
0.160764
0.159282
0.157749
0.156166
0.154535
0.152861
0.151144
0.149387
0.147592
0.145763
0.143901
0.142008
0.140088
0.138142
0.136174
0.134184
0.132177
0.130153
0.128116
0.126068
0.124011
0.121947
0.119878
0.117807
0.115735
0.113664
0.111597
0.109535
0.10748
0.105433
0.103397
0.101371
0.0993592
0.0973605
0.0953778
0.0934113
0.0914631
0.0895335
0.0876242
0.0857351
0.0838683
0.0820235
0.0802025
0.0784049
0.0766326
0.0748848
0.0731634
0.0714675
0.0697989
0.0681566
0.0665423
0.0649547
0.0633957
0.0618639
0.060361
0.0588854
0.057439
0.05602
0.0546302
0.0532678
0.0519345
0.0506283
0.0493511
0.0481007
0.0468789
0.0456835
0.0445163
0.043375
0.0422614
0.0411731
0.0401119
0.0390753
0.0380651
0.037079
0.0361184
0.0351811
0.0342687
0.0333788
0.032513
0.0316691
0.0308483
0.0300488
0.0292717
0.0285152
0.0277803
0.0270655
0.0263718
0.0256976
0.0250439
0.0244097
0.0237954
0.0232006
0.0226255
0.02207
0.0215343
0.0210186
0.020523
0.0200483
0.0195939
0.0191617
0.0187572
0.0183831
0.175549
0.175505
0.175307
0.175019
0.174633
0.17415
0.173578
0.172919
0.172177
0.171355
0.170456
0.169482
0.168435
0.16732
0.166138
0.164892
0.163584
0.162216
0.16079
0.15931
0.157777
0.156195
0.154567
0.152893
0.151178
0.149422
0.14763
0.145802
0.143941
0.142051
0.140132
0.138189
0.136222
0.134235
0.132229
0.130207
0.128172
0.126126
0.12407
0.122008
0.11994
0.11787
0.115799
0.113729
0.111663
0.109601
0.107546
0.105499
0.103461
0.101436
0.0994216
0.0974221
0.095437
0.0934692
0.0915183
0.0895868
0.0876744
0.0857833
0.0839131
0.0820661
0.0802416
0.0784416
0.0766658
0.0749156
0.0731908
0.0714926
0.0698207
0.0681761
0.0665586
0.0649689
0.063407
0.0618731
0.0603674
0.0588898
0.0574408
0.0560199
0.0546276
0.0532632
0.0519274
0.0506194
0.0493397
0.0480873
0.0468631
0.0456656
0.0444959
0.0433523
0.042236
0.0411453
0.0400812
0.0390419
0.0380285
0.0370393
0.0360752
0.0351344
0.034218
0.0333241
0.0324536
0.0316048
0.0307786
0.0299732
0.0291895
0.0284258
0.0276828
0.0269591
0.0262553
0.0255699
0.0249036
0.0242552
0.0236249
0.0230121
0.0224167
0.0218383
0.0212768
0.0207322
0.0202041
0.0196926
0.019197
0.0187187
0.0182607
0.0178243
0.175572
0.175528
0.175331
0.175043
0.174657
0.174176
0.173605
0.172947
0.172206
0.171385
0.170487
0.169515
0.16847
0.167356
0.166175
0.164931
0.163624
0.162258
0.160834
0.159355
0.157825
0.156245
0.154618
0.152946
0.151233
0.149479
0.147689
0.145863
0.144004
0.142116
0.140199
0.138258
0.136293
0.134308
0.132304
0.130284
0.128251
0.126206
0.124152
0.122091
0.120025
0.117956
0.115886
0.113817
0.111751
0.109689
0.107634
0.105587
0.10355
0.101523
0.0995088
0.0975075
0.0955221
0.093552
0.0916005
0.0896664
0.0877531
0.0858592
0.0839881
0.082138
0.0803125
0.0785094
0.0767325
0.0749792
0.0732533
0.0715519
0.069879
0.0682313
0.0666128
0.06502
0.0634571
0.0619202
0.0604134
0.0589329
0.0574828
0.056059
0.0546655
0.0532983
0.0519613
0.0506502
0.0493692
0.0481138
0.046888
0.0456875
0.0445159
0.0433692
0.0422509
0.0411567
0.0400903
0.0390474
0.0380313
0.0370382
0.036071
0.0351259
0.0342058
0.0333071
0.0324324
0.0315782
0.0307468
0.0299352
0.0291453
0.0283744
0.0276239
0.0268915
0.0261784
0.0254825
0.0248046
0.024143
0.0234982
0.0228687
0.0222546
0.0216549
0.0210693
0.020497
0.0199373
0.0193899
0.0188532
0.0183275
0.017813
0.0173133
0.175605
0.175562
0.175366
0.175079
0.174695
0.174215
0.173645
0.172989
0.17225
0.171431
0.170534
0.169564
0.168521
0.167409
0.166231
0.164989
0.163684
0.16232
0.160899
0.159422
0.157894
0.156316
0.154692
0.153023
0.151312
0.149561
0.147772
0.145949
0.144093
0.142207
0.140293
0.138353
0.136391
0.134408
0.132406
0.130389
0.128358
0.126315
0.124263
0.122203
0.120139
0.118071
0.116002
0.113934
0.111869
0.109807
0.107752
0.105705
0.103668
0.101641
0.0996262
0.0976249
0.0956381
0.0936676
0.0917143
0.0897797
0.0878643
0.0859696
0.0840961
0.082245
0.0804169
0.0786128
0.076833
0.0750787
0.0733498
0.0716473
0.0699712
0.0683224
0.0667006
0.0651067
0.0635402
0.0620021
0.0604917
0.0590099
0.0575559
0.0561307
0.0547332
0.0533644
0.0520231
0.0507103
0.0494247
0.0481674
0.0469367
0.0457339
0.0445573
0.0434079
0.0422841
0.0411869
0.0401146
0.0390681
0.0380457
0.0370484
0.0360742
0.0351242
0.0341965
0.0332919
0.0324086
0.0315474
0.0307064
0.0298864
0.0290854
0.0283042
0.0275409
0.026796
0.0260678
0.0253566
0.0246609
0.0239807
0.0233145
0.0226623
0.0220227
0.0213953
0.020779
0.0201731
0.0195768
0.0189888
0.0184085
0.017834
0.017266
0.0167063
0.175649
0.175607
0.175412
0.175127
0.174744
0.174266
0.173698
0.173044
0.172307
0.171491
0.170597
0.169629
0.168589
0.16748
0.166305
0.165065
0.163764
0.162402
0.160983
0.15951
0.157985
0.15641
0.154789
0.153123
0.151415
0.149667
0.147881
0.146061
0.144207
0.142324
0.140413
0.138476
0.136516
0.134536
0.132537
0.130521
0.128492
0.126452
0.124401
0.122344
0.120281
0.118215
0.116147
0.11408
0.112016
0.109955
0.107901
0.105854
0.103817
0.101789
0.0997749
0.0977728
0.0957859
0.0938142
0.0918604
0.0899242
0.0880082
0.0861117
0.0842373
0.0823843
0.080555
0.0787488
0.0769677
0.0752111
0.0734807
0.0717759
0.0700981
0.0684467
0.066823
0.0652265
0.0636579
0.062117
0.0606042
0.0591195
0.0576629
0.0562346
0.0548342
0.0534621
0.0521176
0.0508013
0.0495122
0.0482511
0.0470167
0.0458097
0.0446289
0.0434751
0.0423468
0.0412447
0.0401674
0.0391157
0.0380879
0.0370848
0.0361046
0.0351484
0.034214
0.0333025
0.0324118
0.0315429
0.0306937
0.029865
0.0290548
0.0282639
0.0274902
0.0267342
0.0259942
0.0252704
0.0245611
0.0238663
0.0231845
0.0225155
0.0218579
0.0212111
0.0205741
0.0199459
0.0193256
0.0187121
0.0181045
0.0175008
0.0169009
0.0163088
0.175704
0.175663
0.17547
0.175187
0.174806
0.17433
0.173764
0.173113
0.172379
0.171565
0.170674
0.16971
0.168673
0.167568
0.166396
0.165159
0.163861
0.162503
0.161088
0.159618
0.158097
0.156526
0.154908
0.153245
0.151541
0.149796
0.148014
0.146197
0.144347
0.142467
0.140558
0.138625
0.136668
0.13469
0.132694
0.130681
0.128655
0.126616
0.124568
0.122513
0.120451
0.118387
0.116321
0.114255
0.112191
0.110132
0.108078
0.106032
0.103994
0.101968
0.0999525
0.0979511
0.0959631
0.0939917
0.0920365
0.0901004
0.0881825
0.086286
0.0844094
0.0825562
0.0807246
0.078918
0.0771342
0.075377
0.0736437
0.0719381
0.0702572
0.0686049
0.0669779
0.0653801
0.0638079
0.0622655
0.060749
0.0592625
0.0578019
0.0563714
0.0549668
0.0535921
0.0522432
0.0509239
0.0496301
0.0483656
0.0471262
0.0459155
0.0447293
0.0435713
0.0424373
0.0413306
0.0402473
0.0391905
0.0381561
0.0371474
0.0361604
0.0351979
0.0342562
0.0333379
0.0324393
0.0315629
0.0307052
0.0298683
0.0290489
0.0282489
0.0274652
0.0266992
0.0259483
0.0252135
0.0244923
0.0237855
0.0230909
0.0224087
0.0217372
0.0210761
0.0204241
0.0197805
0.0191444
0.0185147
0.0178905
0.0172698
0.0166527
0.0160441
0.175769
0.17573
0.175538
0.175257
0.174879
0.174405
0.173842
0.173194
0.172463
0.171653
0.170766
0.169805
0.168773
0.167671
0.166503
0.165271
0.163977
0.162623
0.161212
0.159746
0.158229
0.156662
0.155048
0.15339
0.151689
0.149949
0.14817
0.146357
0.144511
0.142634
0.140729
0.138799
0.136845
0.134871
0.132877
0.130868
0.128844
0.126808
0.124762
0.122708
0.120649
0.118586
0.116522
0.114457
0.112395
0.110336
0.108283
0.106237
0.104201
0.102174
0.10016
0.0981577
0.0961702
0.0941981
0.092243
0.0903057
0.0883879
0.0864899
0.0846132
0.0827583
0.0809263
0.0791176
0.0773334
0.0755738
0.0738398
0.0721315
0.0704498
0.0687944
0.0671663
0.0655651
0.0639917
0.0624456
0.0609275
0.0594369
0.0579745
0.0565395
0.0551328
0.0537533
0.0524019
0.0510775
0.0497809
0.0485109
0.0472683
0.0460518
0.0448622
0.043698
0.0425602
0.041447
0.0403595
0.0392958
0.0382571
0.0372412
0.0362494
0.0352796
0.0343327
0.0334068
0.0325028
0.0316187
0.0307552
0.0299104
0.029085
0.028277
0.0274871
0.0267132
0.0259559
0.0252133
0.0244857
0.0237714
0.0230704
0.0223812
0.0217037
0.0210364
0.0203789
0.0197302
0.0190895
0.018456
0.0178285
0.017206
0.0165877
0.0159816
0.175843
0.175806
0.175617
0.175339
0.174963
0.174492
0.173933
0.173288
0.172561
0.171755
0.170873
0.169916
0.168888
0.167791
0.166628
0.1654
0.16411
0.162761
0.161354
0.159894
0.158381
0.156819
0.15521
0.153556
0.15186
0.150124
0.14835
0.146541
0.144698
0.142826
0.140925
0.138998
0.137048
0.135077
0.133086
0.13108
0.129059
0.127025
0.124982
0.122931
0.120874
0.118813
0.11675
0.114687
0.112625
0.110568
0.108516
0.106471
0.104435
0.102409
0.100394
0.0983932
0.0964054
0.0944337
0.092478
0.0905409
0.0886222
0.0867242
0.0848464
0.0829911
0.0811578
0.0793486
0.0775628
0.0758023
0.0740665
0.0723571
0.0706732
0.0690163
0.0673859
0.0657829
0.0642068
0.0626584
0.0611374
0.0596442
0.0581785
0.0567405
0.0553302
0.0539474
0.0525921
0.0512639
0.0499631
0.048689
0.0474419
0.0462209
0.0450265
0.0438575
0.0427146
0.0415964
0.0405036
0.0394347
0.0383905
0.0373692
0.0363718
0.0353964
0.0344439
0.0335123
0.0326026
0.0317129
0.0308438
0.0299935
0.0291628
0.0283496
0.0275545
0.0267758
0.026014
0.0252671
0.0245356
0.0238178
0.0231138
0.0224221
0.0217427
0.0210743
0.0204165
0.0197684
0.0191293
0.0184985
0.0178748
0.0172576
0.0166469
0.0160503
0.175928
0.175893
0.175707
0.175431
0.175058
0.174591
0.174035
0.173395
0.172672
0.171871
0.170993
0.170041
0.169018
0.167926
0.166768
0.165545
0.164261
0.162917
0.161516
0.16006
0.158553
0.156996
0.155392
0.153744
0.152052
0.150321
0.148552
0.146747
0.144909
0.143041
0.141144
0.139221
0.137275
0.135307
0.133321
0.131317
0.129299
0.127269
0.125228
0.123179
0.121124
0.119065
0.117004
0.114942
0.112883
0.110826
0.108775
0.106731
0.104696
0.10267
0.100657
0.0986557
0.0966691
0.0946968
0.092742
0.090804
0.088886
0.0869868
0.0851095
0.0832528
0.0814198
0.0796088
0.0778231
0.0760605
0.0743246
0.0726127
0.0709284
0.0692688
0.0676375
0.0660314
0.0644541
0.0629023
0.0613798
0.0598827
0.0584151
0.056973
0.0555604
0.0541731
0.052815
0.0514822
0.0501783
0.0488992
0.0476486
0.0464224
0.0452242
0.0440499
0.042903
0.0417793
0.0406823
0.0396079
0.0385593
0.0375326
0.0365307
0.03555
0.0345931
0.0336565
0.0327427
0.0318481
0.0309753
0.0301207
0.0292866
0.0284698
0.0276722
0.0268907
0.0261271
0.0253786
0.0246464
0.0239283
0.0232251
0.0225347
0.0218577
0.0211925
0.0205391
0.0198964
0.0192641
0.0186412
0.0180269
0.0174207
0.0168233
0.0162421
0.176022
0.17599
0.175806
0.175533
0.175164
0.174701
0.174149
0.173513
0.172796
0.171999
0.171127
0.17018
0.169163
0.168077
0.166924
0.165707
0.164428
0.16309
0.161695
0.160245
0.158744
0.157193
0.155595
0.153952
0.152266
0.15054
0.148776
0.146976
0.145143
0.143279
0.141387
0.139469
0.137526
0.135563
0.133579
0.131579
0.129564
0.127537
0.125499
0.123453
0.1214
0.119343
0.117284
0.115224
0.113166
0.111111
0.109061
0.107018
0.104984
0.102959
0.100946
0.0989459
0.0969593
0.0949881
0.093033
0.0910958
0.0891772
0.0872786
0.0854005
0.0835442
0.0817101
0.0798993
0.0781121
0.0763495
0.0746117
0.0728995
0.0712129
0.0695527
0.0679187
0.0663118
0.0647314
0.0631784
0.0616523
0.0601538
0.0586821
0.0572383
0.0558212
0.0544318
0.053069
0.0517337
0.0504247
0.049143
0.0478871
0.046658
0.0454543
0.0442769
0.0431243
0.0419975
0.0408947
0.0398171
0.0387629
0.037733
0.0367257
0.0357419
0.0347799
0.0338405
0.0329219
0.0320251
0.0311481
0.0302918
0.0294543
0.0286365
0.0278364
0.0270548
0.0262899
0.0255424
0.0248104
0.0240945
0.023393
0.0227064
0.0220332
0.0213734
0.0207259
0.0200906
0.0194665
0.0188532
0.0182499
0.0176555
0.0170732
0.0165072
0.176125
0.176096
0.175915
0.175646
0.17528
0.174821
0.174275
0.173643
0.172931
0.17214
0.171274
0.170333
0.169322
0.168242
0.167096
0.165885
0.164612
0.16328
0.161892
0.160449
0.158954
0.157409
0.155817
0.15418
0.1525
0.15078
0.149021
0.147227
0.145399
0.143541
0.141653
0.139739
0.137801
0.135841
0.133862
0.131866
0.129854
0.12783
0.125795
0.123751
0.121701
0.119646
0.117589
0.115531
0.113474
0.111421
0.109373
0.107331
0.105298
0.103274
0.101262
0.0992621
0.0972768
0.0953057
0.0933516
0.0914144
0.0894966
0.0875977
0.0857202
0.0838634
0.0820295
0.080218
0.0784306
0.076667
0.0749288
0.0732152
0.0715278
0.0698659
0.0682307
0.0666217
0.0650397
0.0634844
0.0619562
0.0604549
0.0589808
0.0575339
0.056114
0.0547212
0.0533552
0.0520163
0.0507039
0.0494182
0.0481586
0.0469255
0.0457178
0.0445363
0.0433797
0.0422487
0.041142
0.0400603
0.0390021
0.0379684
0.0369574
0.03597
0.0350046
0.034062
0.0331405
0.0322411
0.0313617
0.0305035
0.0296645
0.0288455
0.0280448
0.0272632
0.0264988
0.0257523
0.025022
0.0243085
0.0236101
0.0229274
0.0222587
0.0216044
0.0209632
0.0203351
0.0197192
0.019115
0.0185218
0.0179385
0.0173697
0.0168179
0.176237
0.176211
0.176033
0.175768
0.175407
0.174952
0.174411
0.173785
0.173079
0.172294
0.171434
0.1705
0.169495
0.168422
0.167283
0.166078
0.164812
0.163487
0.162106
0.16067
0.159182
0.157644
0.156059
0.154428
0.152755
0.151041
0.149288
0.1475
0.145678
0.143824
0.141942
0.140033
0.138099
0.136144
0.134168
0.132176
0.130168
0.128146
0.126114
0.124073
0.122026
0.119973
0.117918
0.115863
0.113808
0.111756
0.109709
0.107669
0.105637
0.103615
0.101603
0.099605
0.0976199
0.0956504
0.0936963
0.0917605
0.0898424
0.0879448
0.0860667
0.084211
0.0823762
0.0805655
0.0787769
0.0770138
0.0752739
0.0735605
0.0718711
0.0702091
0.0685715
0.0669619
0.0653772
0.0638208
0.0622895
0.0607868
0.0593093
0.0578606
0.0564369
0.055042
0.053672
0.0523306
0.0510138
0.0497254
0.0484614
0.0472253
0.0460132
0.0448286
0.0436675
0.0425334
0.0414223
0.0403375
0.0392752
0.0382384
0.0372235
0.0362335
0.0352646
0.0343197
0.0333953
0.032494
0.0316124
0.030753
0.0299124
0.0290931
0.0282917
0.0275105
0.0267465
0.0260015
0.0252727
0.0245617
0.0238662
0.0231871
0.0225226
0.0218733
0.0212377
0.0206159
0.020007
0.0194106
0.0188257
0.0182517
0.0176939
0.0171536
0.176358
0.176335
0.176161
0.1759
0.175544
0.175094
0.174558
0.173938
0.173238
0.17246
0.171606
0.17068
0.169682
0.168616
0.167484
0.166287
0.165028
0.163711
0.162337
0.160909
0.159428
0.157898
0.156319
0.154696
0.153029
0.151322
0.149576
0.147793
0.145977
0.144129
0.142252
0.140348
0.138419
0.136468
0.134497
0.132509
0.130504
0.128487
0.126458
0.12442
0.122375
0.120325
0.118272
0.116219
0.114166
0.112116
0.110071
0.108032
0.106001
0.10398
0.10197
0.0999728
0.0979893
0.0960204
0.0940678
0.0921323
0.0902155
0.0883179
0.0864409
0.084585
0.0827512
0.0809398
0.0791519
0.0773877
0.0756482
0.0739333
0.0722439
0.0705799
0.068942
0.06733
0.0657446
0.0641854
0.0626532
0.0611472
0.0596684
0.058216
0.0567907
0.0553917
0.0540199
0.0526741
0.0513553
0.0500624
0.0487961
0.0475553
0.0463409
0.0451515
0.0439881
0.0428491
0.0417358
0.0406463
0.0395818
0.0385406
0.0375238
0.0365296
0.0355591
0.0346105
0.0336849
0.0327803
0.031898
0.031036
0.0301953
0.029374
0.0285731
0.0277908
0.0270279
0.0262826
0.0255557
0.0248454
0.0241524
0.0234751
0.0228138
0.0221672
0.0215355
0.0209175
0.020313
0.0197213
0.0191413
0.0185728
0.0180212
0.0174878
0.176488
0.176469
0.176298
0.176042
0.17569
0.175246
0.174716
0.174102
0.173409
0.172638
0.171791
0.170872
0.169882
0.168824
0.167699
0.16651
0.16526
0.16395
0.162585
0.161164
0.159692
0.158169
0.156599
0.154983
0.153323
0.151623
0.149883
0.148107
0.146297
0.144455
0.142584
0.140685
0.138762
0.136816
0.134849
0.132864
0.130864
0.12885
0.126824
0.124789
0.122747
0.1207
0.11865
0.116598
0.114548
0.1125
0.110456
0.10842
0.10639
0.104371
0.102362
0.100366
0.0983836
0.0964164
0.0944645
0.0925304
0.0906141
0.0887178
0.0868411
0.0849862
0.0831523
0.0813416
0.0795534
0.0777895
0.0760493
0.0743342
0.0726438
0.0709792
0.0693399
0.0677268
0.0661397
0.064579
0.0630445
0.0615367
0.0600554
0.0586007
0.0571726
0.055771
0.0543961
0.0530475
0.0517254
0.0504293
0.0491596
0.0479155
0.0466975
0.0455048
0.0443378
0.0431955
0.0420786
0.0409859
0.039918
0.0388737
0.0378537
0.0368566
0.0358833
0.0349321
0.034004
0.0330972
0.0322128
0.031349
0.0305068
0.0296842
0.0288823
0.0280992
0.0273358
0.0265904
0.0258636
0.0251537
0.0244614
0.0237851
0.0231251
0.0224801
0.0218501
0.0212341
0.0206319
0.0200427
0.0194654
0.0188999
0.0183525
0.017823
0.176626
0.17661
0.176444
0.176192
0.175846
0.175407
0.174884
0.174277
0.173591
0.172827
0.171989
0.171077
0.170096
0.169045
0.167929
0.166748
0.165506
0.164205
0.162848
0.161437
0.159973
0.158458
0.156896
0.155288
0.153636
0.151943
0.150211
0.148442
0.146638
0.144803
0.142937
0.141044
0.139126
0.137184
0.135222
0.133242
0.131246
0.129235
0.127213
0.125181
0.123142
0.121098
0.11905
0.117001
0.114953
0.112907
0.110866
0.108831
0.106804
0.104785
0.102779
0.100784
0.0988033
0.0968367
0.0948869
0.0929533
0.0910389
0.0891428
0.0872679
0.0854128
0.0835804
0.0817692
0.0799821
0.0782173
0.0764778
0.0747614
0.0730713
0.0714049
0.0697655
0.0681503
0.0665626
0.0649994
0.063464
0.0619532
0.0604706
0.0590126
0.0575828
0.0561777
0.0548007
0.0534483
0.0521239
0.0508238
0.0495516
0.0483034
0.0470828
0.0458859
0.0447161
0.0435697
0.04245
0.0413532
0.0402826
0.0392344
0.0382117
0.037211
0.0362351
0.0352805
0.03435
0.0334401
0.0325537
0.0316871
0.030843
0.030018
0.0292146
0.0284295
0.0276649
0.0269178
0.0261901
0.025479
0.0247861
0.0241089
0.0234485
0.0228031
0.0221731
0.0215571
0.0209551
0.0203662
0.0197893
0.0192246
0.0186787
0.0181504
0.176772
0.176761
0.176599
0.176352
0.176011
0.175579
0.175062
0.174462
0.173783
0.173028
0.172197
0.171295
0.170321
0.16928
0.168172
0.167
0.165768
0.164476
0.163128
0.161726
0.160271
0.158765
0.157211
0.155611
0.153967
0.152282
0.150557
0.148796
0.146999
0.14517
0.143311
0.141423
0.139511
0.137574
0.135617
0.133641
0.131649
0.129643
0.127624
0.125596
0.12356
0.121518
0.119473
0.117427
0.115381
0.113338
0.111299
0.109266
0.10724
0.105225
0.103219
0.101226
0.0992467
0.0972823
0.0953334
0.0934018
0.0914881
0.0895938
0.0877192
0.0858657
0.0840334
0.0822234
0.0804359
0.0786719
0.0769315
0.0752156
0.0735241
0.0718578
0.0702166
0.068601
0.067011
0.0654471
0.0639089
0.0623972
0.0609113
0.059452
0.0580186
0.0566119
0.055231
0.0538767
0.0525481
0.0512459
0.0499693
0.0487189
0.0474937
0.0462945
0.04512
0.0439713
0.0428468
0.0417476
0.0406723
0.0396217
0.0385944
0.0375914
0.0366109
0.0356542
0.0347193
0.0338074
0.0329167
0.0320482
0.0312001
0.0303734
0.0295662
0.0287795
0.0280113
0.0272627
0.0265317
0.0258191
0.0251232
0.0244445
0.0237816
0.0231346
0.0225023
0.0218848
0.0212811
0.0206907
0.0201124
0.0195462
0.0190006
0.0184712
0.176927
0.176919
0.176762
0.17652
0.176185
0.175759
0.175249
0.174657
0.173987
0.173239
0.172418
0.171524
0.17056
0.169527
0.168429
0.167267
0.166043
0.164761
0.163423
0.16203
0.160585
0.159089
0.157544
0.155952
0.154317
0.15264
0.150923
0.149169
0.147379
0.145557
0.143704
0.141823
0.139916
0.137985
0.136033
0.134062
0.132074
0.130071
0.128057
0.126032
0.123999
0.121961
0.119919
0.117875
0.115832
0.113791
0.111754
0.109723
0.107701
0.105686
0.103683
0.101692
0.0997147
0.0977514
0.0958047
0.0938742
0.0919623
0.0900688
0.0881959
0.0863429
0.0845118
0.082702
0.0809153
0.0791511
0.077411
0.0756944
0.0740028
0.0723354
0.0706935
0.0690765
0.0674854
0.0659196
0.0643798
0.0628658
0.0613779
0.059916
0.0584802
0.0570706
0.0556869
0.0543294
0.0529978
0.0516923
0.0504124
0.0491584
0.0479297
0.0467267
0.0455487
0.0443961
0.0432679
0.0421649
0.0410857
0.0400313
0.0390001
0.0379932
0.0370089
0.0360482
0.0351095
0.0341938
0.0332993
0.032427
0.0315752
0.0307447
0.0299338
0.0291433
0.0283715
0.0276191
0.0268845
0.0261681
0.0254686
0.0247862
0.0241196
0.023469
0.0228331
0.022212
0.0216048
0.0210109
0.0204292
0.0198597
0.0193119
0.01878
0.177088
0.177085
0.176933
0.176697
0.176368
0.175949
0.175447
0.174863
0.1742
0.173462
0.172649
0.171765
0.17081
0.169787
0.168698
0.167546
0.166333
0.165062
0.163734
0.162351
0.160915
0.159429
0.157893
0.156311
0.154685
0.153016
0.151308
0.149561
0.147779
0.145964
0.144118
0.142243
0.140341
0.138416
0.136469
0.134503
0.132519
0.130521
0.12851
0.126489
0.12446
0.122425
0.120386
0.118345
0.116305
0.114267
0.112232
0.110204
0.108183
0.106172
0.10417
0.102182
0.100205
0.0982448
0.0962991
0.094371
0.09246
0.0905686
0.0886961
0.0868449
0.0850139
0.0832056
0.0814185
0.0796553
0.0779143
0.0761983
0.0745053
0.072838
0.0711943
0.0695769
0.0679835
0.0664168
0.0648744
0.0633591
0.0618681
0.0604045
0.0589653
0.0575535
0.0561661
0.0548062
0.0534706
0.0521623
0.0508781
0.0496212
0.048388
0.0471819
0.0459992
0.0448432
0.0437103
0.0426037
0.0415197
0.0404615
0.0394255
0.0384146
0.0374254
0.0364607
0.0355171
0.0345971
0.0336977
0.032821
0.0319642
0.0311292
0.0303132
0.0295181
0.0287412
0.027984
0.0272442
0.026523
0.0258183
0.0251309
0.024459
0.0238033
0.0231622
0.022536
0.0219234
0.0213242
0.0207372
0.0201624
0.0196101
0.0190733
0.177258
0.177259
0.177112
0.176882
0.176559
0.176148
0.175653
0.175078
0.174424
0.173695
0.172892
0.172016
0.171072
0.170059
0.168981
0.167839
0.166637
0.165376
0.164059
0.162687
0.161262
0.159785
0.158259
0.156687
0.15507
0.15341
0.15171
0.149972
0.148197
0.14639
0.14455
0.142682
0.140787
0.138867
0.136925
0.134964
0.132985
0.130991
0.128984
0.126967
0.124941
0.12291
0.120874
0.118837
0.116799
0.114764
0.112732
0.110706
0.108689
0.106679
0.104681
0.102693
0.10072
0.0987605
0.0968173
0.0948905
0.0929816
0.0910912
0.0892205
0.0873699
0.0855403
0.0837321
0.081946
0.0801824
0.078442
0.076725
0.0750321
0.0733633
0.0717192
0.0700998
0.0685056
0.0669364
0.0653928
0.0638744
0.0623819
0.0609148
0.0594737
0.058058
0.0566685
0.0553042
0.0539661
0.0526532
0.0513663
0.0501044
0.0488683
0.0476569
0.0464711
0.0453096
0.0441733
0.043061
0.0419736
0.0409095
0.0398698
0.0388529
0.0378598
0.0368889
0.0359412
0.035015
0.0341112
0.0332281
0.0323667
0.0315251
0.0307043
0.0299026
0.0291206
0.0283567
0.0276115
0.0268836
0.0261732
0.0254791
0.0248014
0.0241389
0.0234916
0.0228587
0.0222398
0.021634
0.0210402
0.0204588
0.0199003
0.019358
0.177435
0.17744
0.177298
0.177075
0.176759
0.176355
0.175869
0.175302
0.174658
0.173938
0.173144
0.172279
0.171345
0.170343
0.169276
0.168145
0.166954
0.165705
0.164399
0.163038
0.161623
0.160157
0.158642
0.15708
0.155472
0.153822
0.15213
0.1504
0.148634
0.146834
0.145002
0.14314
0.141251
0.139337
0.137401
0.135445
0.133471
0.131481
0.129479
0.127465
0.125443
0.123415
0.121383
0.119349
0.117315
0.115282
0.113254
0.111231
0.109215
0.107209
0.105212
0.103228
0.101256
0.0992995
0.0973578
0.0954333
0.0935257
0.0916372
0.0897673
0.0879182
0.0860891
0.0842819
0.0824959
0.0807327
0.0789919
0.0772748
0.0755809
0.0739115
0.072266
0.0706455
0.0690493
0.0674784
0.0659325
0.064412
0.0629167
0.061447
0.0600027
0.058584
0.0571909
0.0558232
0.0544812
0.0531646
0.0518734
0.0506074
0.0493669
0.0481511
0.0469605
0.0457944
0.0446532
0.0435359
0.0424432
0.0413739
0.0403288
0.0393065
0.0383077
0.0373311
0.0363774
0.0354452
0.0345353
0.033646
0.0327781
0.0319301
0.0311027
0.0302942
0.0295053
0.0287345
0.0279822
0.027247
0.0265293
0.0258277
0.0251424
0.0244722
0.0238171
0.0231761
0.022549
0.0219349
0.0213326
0.0207427
0.0201764
0.019626
0.177618
0.177629
0.177492
0.177275
0.176967
0.176571
0.176093
0.175535
0.1749
0.174191
0.173407
0.172553
0.17163
0.170639
0.169583
0.168464
0.167285
0.166047
0.164753
0.163403
0.162
0.160545
0.159041
0.157488
0.155891
0.15425
0.152568
0.150847
0.149089
0.147296
0.145471
0.143616
0.141734
0.139826
0.137895
0.135944
0.133975
0.13199
0.129992
0.127983
0.125965
0.123941
0.121912
0.119881
0.117851
0.115821
0.113796
0.111776
0.109764
0.107759
0.105766
0.103784
0.101815
0.0998598
0.097921
0.0959977
0.0940925
0.0922048
0.090337
0.0884882
0.0866607
0.0848533
0.0830684
0.0813045
0.0795643
0.0778459
0.076152
0.0744808
0.0728348
0.0712118
0.0696147
0.068041
0.0664934
0.0649696
0.0634723
0.0619988
0.060552
0.0591292
0.0577331
0.0563609
0.0550156
0.053694
0.0523992
0.051128
0.0498833
0.048662
0.047467
0.0462951
0.0451491
0.0440257
0.0429279
0.0418523
0.0408016
0.0397727
0.038768
0.0377846
0.0368247
0.0358854
0.0349689
0.0340722
0.0331975
0.0323418
0.0315071
0.0306908
0.0298943
0.0291154
0.0283553
0.0276119
0.026886
0.0261761
0.0254824
0.0248038
0.0241402
0.0234907
0.022855
0.0222324
0.0216215
0.021023
0.0204489
0.0198906
0.177809
0.177825
0.177694
0.177484
0.177183
0.176795
0.176326
0.175778
0.175153
0.174453
0.173681
0.172837
0.171925
0.170946
0.169902
0.168796
0.167629
0.166403
0.165121
0.163783
0.162392
0.160948
0.159455
0.157913
0.156326
0.154695
0.153022
0.15131
0.149561
0.147776
0.145959
0.144111
0.142235
0.140333
0.138408
0.136463
0.134499
0.132519
0.130525
0.12852
0.126506
0.124486
0.122461
0.120434
0.118407
0.116381
0.114359
0.112342
0.110332
0.108332
0.106341
0.104362
0.102395
0.100443
0.098505
0.0965842
0.0946804
0.0927947
0.0909277
0.0890804
0.0872531
0.0854468
0.0836615
0.0818982
0.080157
0.0784387
0.0767432
0.0750715
0.0734233
0.0717993
0.0701994
0.0686241
0.0670733
0.0655475
0.0640463
0.0625704
0.0611193
0.0596936
0.0582927
0.0569173
0.0555667
0.0542415
0.052941
0.0516658
0.0504151
0.0491895
0.0479881
0.0468115
0.0456586
0.0445303
0.0434253
0.0423444
0.0412862
0.0402516
0.0392392
0.0382497
0.0372817
0.036336
0.0354111
0.0345077
0.0336244
0.0327616
0.0319181
0.0310943
0.0302889
0.0295022
0.0287329
0.0279814
0.0272464
0.0265279
0.025825
0.0251375
0.0244646
0.023806
0.0231611
0.0225293
0.0219093
0.0213016
0.0207198
0.0201532
0.178006
0.178027
0.177903
0.177699
0.177406
0.177027
0.176567
0.176028
0.175414
0.174725
0.173963
0.173131
0.172231
0.171264
0.170233
0.169139
0.167985
0.166772
0.165503
0.164177
0.162798
0.161366
0.159884
0.158354
0.156777
0.155156
0.153493
0.15179
0.15005
0.148273
0.146463
0.144623
0.142753
0.140858
0.138939
0.136999
0.13504
0.133065
0.131076
0.129076
0.127066
0.12505
0.123029
0.121006
0.118982
0.11696
0.114942
0.112928
0.110922
0.108924
0.106937
0.104959
0.102996
0.101045
0.0991107
0.0971914
0.0952897
0.0934051
0.0915397
0.089693
0.0878668
0.0860605
0.0842757
0.0825119
0.0807705
0.079051
0.0773548
0.0756814
0.0740318
0.0724055
0.0708036
0.0692256
0.0676722
0.0661431
0.0646389
0.0631592
0.0617045
0.0602745
0.0588696
0.0574895
0.0561344
0.0548041
0.0534986
0.052218
0.0509619
0.0497304
0.0485232
0.0473404
0.0461813
0.0450465
0.0439348
0.042847
0.0417818
0.0407399
0.0397201
0.038723
0.0377474
0.0367937
0.0358608
0.0349491
0.0340574
0.0331861
0.032334
0.0315014
0.0306871
0.0298914
0.029113
0.0283522
0.0276078
0.0268799
0.0261675
0.0254704
0.0247878
0.0241196
0.023465
0.0228235
0.0221939
0.0215765
0.0209862
0.0204111
0.17821
0.178237
0.178118
0.177922
0.177637
0.177266
0.176816
0.176287
0.175683
0.175005
0.174256
0.173436
0.172548
0.171594
0.170575
0.169495
0.168354
0.167154
0.165898
0.164585
0.163218
0.161799
0.160329
0.15881
0.157244
0.155634
0.153981
0.152287
0.150555
0.148787
0.146985
0.145152
0.143289
0.1414
0.139488
0.137553
0.1356
0.13363
0.131645
0.12965
0.127645
0.125633
0.123616
0.121597
0.119577
0.117559
0.115544
0.113534
0.111531
0.109537
0.107551
0.105578
0.103616
0.101669
0.0997359
0.0978195
0.095919
0.0940364
0.0921716
0.0903263
0.0885001
0.0866947
0.0849092
0.0831457
0.081403
0.0796832
0.0779851
0.0763106
0.0746585
0.0730307
0.0714256
0.0698455
0.0682883
0.0667565
0.065248
0.0637651
0.0623056
0.0608719
0.0594617
0.0580774
0.0567166
0.0553816
0.05407
0.0527842
0.0515215
0.0502844
0.0490703
0.0478814
0.046715
0.0455736
0.0444544
0.0433595
0.0422864
0.0412371
0.0402089
0.039204
0.0382197
0.0372579
0.0363159
0.0353957
0.0344947
0.0336146
0.0327529
0.0319112
0.0310871
0.0302819
0.0294937
0.0287232
0.0279689
0.0272312
0.0265088
0.0258018
0.0251093
0.0244311
0.0237667
0.0231153
0.0224759
0.0218485
0.0212496
0.0206661
0.17842
0.178452
0.17834
0.178152
0.177875
0.177513
0.177073
0.176555
0.175961
0.175295
0.174557
0.17375
0.172875
0.171934
0.170929
0.169862
0.168735
0.167549
0.166306
0.165006
0.163653
0.162246
0.160788
0.159281
0.157726
0.156127
0.154484
0.1528
0.151077
0.149317
0.147523
0.145697
0.143842
0.141959
0.140053
0.138124
0.136176
0.134211
0.132232
0.130241
0.128241
0.126233
0.124221
0.122206
0.12019
0.118176
0.116165
0.114159
0.11216
0.110168
0.108187
0.106216
0.104258
0.102312
0.100382
0.0984669
0.0965682
0.0946872
0.0928235
0.090979
0.0891532
0.0873478
0.0855623
0.0837981
0.0820547
0.0803336
0.0786341
0.0769576
0.0753036
0.073673
0.0720655
0.0704819
0.0689218
0.0673859
0.0658739
0.0643863
0.0629228
0.0614839
0.0600693
0.0586791
0.0573134
0.0559721
0.0546552
0.0533626
0.0520942
0.0508498
0.0496295
0.0484328
0.04726
0.0461104
0.0449842
0.0438807
0.0428003
0.041742
0.0407062
0.0396919
0.0386995
0.037728
0.0367777
0.0358474
0.0349377
0.0340473
0.0331766
0.0323244
0.0314911
0.0306754
0.0298775
0.0290965
0.0283324
0.0275842
0.0268518
0.0261345
0.0254319
0.0247436
0.0240691
0.0234078
0.0227582
0.0221215
0.0215136
0.0209229
0.178637
0.178674
0.178569
0.178388
0.17812
0.177768
0.177337
0.17683
0.176248
0.175593
0.174868
0.174073
0.173211
0.172284
0.171293
0.17024
0.169128
0.167956
0.166727
0.165441
0.1641
0.162707
0.161261
0.159766
0.158223
0.156634
0.155002
0.153328
0.151614
0.149863
0.148077
0.146259
0.14441
0.142535
0.140634
0.138711
0.136769
0.13481
0.132836
0.13085
0.128854
0.126851
0.124843
0.122833
0.120822
0.118812
0.116805
0.114803
0.112807
0.11082
0.108841
0.106873
0.104917
0.102975
0.101047
0.0991335
0.0972371
0.0953568
0.0934948
0.0916503
0.0898254
0.0880194
0.0862341
0.0844686
0.0827249
0.0810017
0.0793011
0.0776219
0.0759661
0.0743321
0.0727222
0.0711346
0.0695714
0.0680309
0.0665153
0.0650225
0.0635549
0.0621102
0.0606909
0.0592945
0.0579236
0.0565756
0.0552529
0.0539531
0.0526785
0.0514265
0.0501994
0.0489948
0.0478147
0.0466567
0.0455228
0.0444106
0.043322
0.0422546
0.0412103
0.0401865
0.0391852
0.0382039
0.0372444