/*--------------------------------*- C++ -*----------------------------------*\
  =========                 |
  \\      /  F ield         | OpenFOAM: The Open Source CFD Toolbox
   \\    /   O peration     | Website:  https://openfoam.org
    \\  /    A nd           | Version:  8
     \\/     M anipulation  |
\*---------------------------------------------------------------------------*/
FoamFile
{
    version     2.0;
    format      ascii;
    class       volScalarField;
    location    "2.6";
    object      p;
}
// * * * * * * * * * * * * * * * * * * * * * * * * * * * * * * * * * * * * * //

dimensions      [0 2 -2 0 0 0 0];

internalField   nonuniform List<scalar> 
262620
(
-0.956729
-0.956894
-0.957417
-0.958205
-0.959236
-0.960506
-0.962002
-0.963709
-0.965613
-0.967702
-0.969964
-0.972385
-0.974955
-0.977663
-0.980499
-0.983451
-0.98651
-0.989667
-0.992914
-0.996241
-0.99964
-1.0031
-1.00663
-1.0102
-1.01382
-1.01747
-1.02116
-1.02487
-1.0286
-1.03235
-1.03611
-1.03988
-1.04365
-1.04742
-1.05119
-1.05495
-1.05869
-1.06242
-1.06614
-1.06984
-1.07351
-1.07717
-1.08079
-1.08439
-1.08796
-1.0915
-1.09501
-1.09848
-1.10192
-1.10533
-1.10869
-1.11203
-1.11532
-1.11857
-1.12179
-1.12496
-1.1281
-1.1312
-1.13425
-1.13727
-1.14024
-1.14318
-1.14607
-1.14892
-1.15174
-1.15451
-1.15724
-1.15993
-1.16258
-1.1652
-1.16777
-1.1703
-1.1728
-1.17526
-1.17768
-1.18006
-1.18241
-1.18472
-1.18699
-1.18923
-1.19144
-1.19361
-1.19574
-1.19784
-1.19991
-1.20195
-1.20395
-1.20593
-1.20787
-1.20978
-1.21166
-1.21351
-1.21534
-1.21713
-1.2189
-1.22064
-1.22236
-1.22405
-1.22571
-1.22735
-1.22896
-1.23055
-1.23212
-1.23366
-1.23518
-1.23668
-1.23815
-1.23961
-1.24105
-1.24246
-1.24386
-1.24524
-1.24659
-1.24793
-1.24926
-1.25056
-1.25185
-1.25313
-1.25439
-1.25561
-0.956627
-0.956793
-0.957311
-0.958098
-0.959128
-0.960398
-0.961893
-0.963599
-0.965503
-0.967591
-0.969852
-0.972273
-0.974844
-0.977552
-0.980387
-0.983339
-0.986399
-0.989557
-0.992804
-0.996131
-0.999531
-1.003
-1.00652
-1.01009
-1.01371
-1.01737
-1.02105
-1.02477
-1.0285
-1.03225
-1.03601
-1.03978
-1.04356
-1.04733
-1.0511
-1.05486
-1.0586
-1.06234
-1.06606
-1.06976
-1.07343
-1.07709
-1.08072
-1.08432
-1.08789
-1.09143
-1.09494
-1.09842
-1.10186
-1.10526
-1.10863
-1.11197
-1.11526
-1.11852
-1.12174
-1.12491
-1.12805
-1.13115
-1.13421
-1.13723
-1.1402
-1.14314
-1.14604
-1.14889
-1.15171
-1.15448
-1.15721
-1.15991
-1.16256
-1.16518
-1.16775
-1.17029
-1.17279
-1.17525
-1.17767
-1.18006
-1.18241
-1.18472
-1.18699
-1.18924
-1.19144
-1.19361
-1.19575
-1.19785
-1.19992
-1.20196
-1.20397
-1.20594
-1.20789
-1.2098
-1.21169
-1.21354
-1.21537
-1.21717
-1.21894
-1.22068
-1.22239
-1.22408
-1.22575
-1.22739
-1.229
-1.2306
-1.23216
-1.23371
-1.23523
-1.23673
-1.23821
-1.23967
-1.2411
-1.24252
-1.24392
-1.2453
-1.24666
-1.248
-1.24932
-1.25063
-1.25192
-1.2532
-1.25446
-1.25568
-0.956446
-0.95661
-0.957125
-0.957911
-0.958939
-0.960207
-0.961701
-0.963406
-0.965308
-0.967396
-0.969656
-0.972077
-0.974647
-0.977355
-0.980191
-0.983143
-0.986204
-0.989362
-0.99261
-0.995939
-0.999341
-1.00281
-1.00633
-1.00991
-1.01353
-1.01718
-1.02087
-1.02459
-1.02833
-1.03208
-1.03585
-1.03962
-1.04339
-1.04717
-1.05094
-1.0547
-1.05845
-1.06219
-1.06591
-1.06961
-1.0733
-1.07695
-1.08059
-1.08419
-1.08777
-1.09131
-1.09482
-1.0983
-1.10175
-1.10516
-1.10853
-1.11187
-1.11517
-1.11843
-1.12165
-1.12483
-1.12797
-1.13108
-1.13414
-1.13716
-1.14014
-1.14308
-1.14598
-1.14884
-1.15166
-1.15443
-1.15717
-1.15987
-1.16253
-1.16514
-1.16772
-1.17026
-1.17277
-1.17523
-1.17766
-1.18005
-1.1824
-1.18471
-1.18699
-1.18924
-1.19144
-1.19362
-1.19576
-1.19787
-1.19994
-1.20198
-1.20399
-1.20597
-1.20792
-1.20983
-1.21172
-1.21358
-1.21541
-1.21721
-1.21898
-1.22072
-1.22244
-1.22414
-1.2258
-1.22745
-1.22906
-1.23066
-1.23223
-1.23377
-1.2353
-1.2368
-1.23828
-1.23974
-1.24118
-1.2426
-1.244
-1.24538
-1.24674
-1.24809
-1.24941
-1.25072
-1.25202
-1.25329
-1.25456
-1.25578
-0.956177
-0.956338
-0.956849
-0.957631
-0.958656
-0.959921
-0.961413
-0.963116
-0.965017
-0.967103
-0.969362
-0.971783
-0.974352
-0.97706
-0.979896
-0.982849
-0.985911
-0.98907
-0.99232
-0.99565
-0.999053
-1.00252
-1.00605
-1.00963
-1.01325
-1.01691
-1.0206
-1.02432
-1.02806
-1.03182
-1.03559
-1.03936
-1.04314
-1.04692
-1.0507
-1.05447
-1.05822
-1.06196
-1.06569
-1.0694
-1.07308
-1.07675
-1.08038
-1.08399
-1.08757
-1.09113
-1.09464
-1.09813
-1.10158
-1.105
-1.10837
-1.11172
-1.11502
-1.11829
-1.12151
-1.1247
-1.12785
-1.13096
-1.13402
-1.13705
-1.14004
-1.14298
-1.14589
-1.14875
-1.15158
-1.15436
-1.1571
-1.15981
-1.16247
-1.16509
-1.16768
-1.17022
-1.17273
-1.1752
-1.17763
-1.18003
-1.18238
-1.1847
-1.18699
-1.18924
-1.19145
-1.19363
-1.19578
-1.19789
-1.19997
-1.20201
-1.20403
-1.20601
-1.20796
-1.20988
-1.21177
-1.21364
-1.21547
-1.21727
-1.21905
-1.2208
-1.22252
-1.22422
-1.22589
-1.22754
-1.22916
-1.23076
-1.23233
-1.23388
-1.23541
-1.23692
-1.2384
-1.23987
-1.24131
-1.24273
-1.24414
-1.24552
-1.24689
-1.24824
-1.24957
-1.25088
-1.25218
-1.25346
-1.25473
-1.25595
-0.955822
-0.955977
-0.956483
-0.957261
-0.958282
-0.959544
-0.961032
-0.962733
-0.964631
-0.966716
-0.968974
-0.971393
-0.973962
-0.97667
-0.979507
-0.982461
-0.985523
-0.988684
-0.991935
-0.995268
-0.998673
-1.00214
-1.00567
-1.00926
-1.01288
-1.01655
-1.02024
-1.02397
-1.02771
-1.03147
-1.03525
-1.03903
-1.04282
-1.0466
-1.05038
-1.05415
-1.05792
-1.06167
-1.0654
-1.06911
-1.07281
-1.07648
-1.08012
-1.08374
-1.08732
-1.09088
-1.09441
-1.0979
-1.10136
-1.10478
-1.10817
-1.11152
-1.11483
-1.1181
-1.12134
-1.12453
-1.12769
-1.1308
-1.13388
-1.13691
-1.1399
-1.14286
-1.14577
-1.14864
-1.15147
-1.15426
-1.15701
-1.15972
-1.16239
-1.16503
-1.16762
-1.17017
-1.17268
-1.17516
-1.1776
-1.18
-1.18236
-1.18469
-1.18698
-1.18924
-1.19146
-1.19364
-1.19579
-1.19791
-1.2
-1.20205
-1.20407
-1.20606
-1.20802
-1.20994
-1.21184
-1.21371
-1.21555
-1.21736
-1.21914
-1.2209
-1.22263
-1.22433
-1.22601
-1.22766
-1.22928
-1.23089
-1.23247
-1.23402
-1.23556
-1.23707
-1.23856
-1.24003
-1.24147
-1.2429
-1.24431
-1.2457
-1.24707
-1.24842
-1.24976
-1.25108
-1.25238
-1.25366
-1.25493
-1.25617
-0.955383
-0.95553
-0.956031
-0.956803
-0.957819
-0.959076
-0.960561
-0.962258
-0.964154
-0.966237
-0.968493
-0.970911
-0.97348
-0.976188
-0.979024
-0.981979
-0.985043
-0.988206
-0.991459
-0.994794
-0.998203
-1.00168
-1.00521
-1.0088
-1.01243
-1.0161
-1.0198
-1.02353
-1.02728
-1.03105
-1.03483
-1.03862
-1.04241
-1.0462
-1.04999
-1.05377
-1.05754
-1.0613
-1.06504
-1.06876
-1.07246
-1.07614
-1.07979
-1.08342
-1.08701
-1.09058
-1.09411
-1.09762
-1.10108
-1.10451
-1.10791
-1.11127
-1.11459
-1.11787
-1.12112
-1.12432
-1.12748
-1.13061
-1.13369
-1.13674
-1.13974
-1.1427
-1.14562
-1.1485
-1.15134
-1.15414
-1.1569
-1.15962
-1.1623
-1.16494
-1.16754
-1.1701
-1.17262
-1.17511
-1.17756
-1.17997
-1.18234
-1.18467
-1.18697
-1.18924
-1.19147
-1.19366
-1.19582
-1.19794
-1.20004
-1.2021
-1.20413
-1.20612
-1.20809
-1.21002
-1.21193
-1.2138
-1.21565
-1.21747
-1.21926
-1.22102
-1.22275
-1.22446
-1.22615
-1.22781
-1.22944
-1.23105
-1.23264
-1.2342
-1.23574
-1.23726
-1.23875
-1.24023
-1.24168
-1.24312
-1.24453
-1.24592
-1.2473
-1.24866
-1.25
-1.25132
-1.25263
-1.25392
-1.2552
-1.25643
-0.95486
-0.955
-0.955493
-0.956259
-0.957269
-0.958521
-0.960001
-0.961694
-0.963587
-0.965667
-0.967921
-0.970338
-0.972906
-0.975614
-0.978451
-0.981407
-0.984472
-0.987637
-0.990893
-0.994231
-0.997644
-1.00112
-1.00466
-1.00825
-1.01189
-1.01556
-1.01927
-1.02301
-1.02676
-1.03054
-1.03433
-1.03812
-1.04192
-1.04572
-1.04952
-1.05331
-1.05709
-1.06086
-1.06461
-1.06834
-1.07205
-1.07574
-1.0794
-1.08304
-1.08664
-1.09022
-1.09376
-1.09728
-1.10075
-1.1042
-1.1076
-1.11097
-1.1143
-1.1176
-1.12085
-1.12407
-1.12724
-1.13038
-1.13347
-1.13653
-1.13954
-1.14251
-1.14545
-1.14834
-1.15119
-1.154
-1.15677
-1.1595
-1.16219
-1.16484
-1.16745
-1.17002
-1.17255
-1.17505
-1.17751
-1.17993
-1.18231
-1.18465
-1.18696
-1.18924
-1.19147
-1.19368
-1.19585
-1.19798
-1.20008
-1.20215
-1.20419
-1.2062
-1.20817
-1.21011
-1.21203
-1.21391
-1.21577
-1.21759
-1.21939
-1.22116
-1.2229
-1.22462
-1.22631
-1.22798
-1.22962
-1.23124
-1.23283
-1.2344
-1.23595
-1.23748
-1.23898
-1.24046
-1.24192
-1.24336
-1.24479
-1.24619
-1.24757
-1.24894
-1.25028
-1.25161
-1.25293
-1.25422
-1.25551
-1.25675
-0.954257
-0.954387
-0.954872
-0.95563
-0.956633
-0.957879
-0.959354
-0.961043
-0.962932
-0.965009
-0.967261
-0.969676
-0.972243
-0.974951
-0.977788
-0.980746
-0.983813
-0.98698
-0.990239
-0.993581
-0.996997
-1.00048
-1.00402
-1.00762
-1.01126
-1.01494
-1.01866
-1.0224
-1.02617
-1.02995
-1.03375
-1.03756
-1.04136
-1.04517
-1.04898
-1.05278
-1.05657
-1.06035
-1.06411
-1.06785
-1.07157
-1.07527
-1.07895
-1.08259
-1.08621
-1.0898
-1.09336
-1.09688
-1.10037
-1.10383
-1.10725
-1.11063
-1.11398
-1.11728
-1.12055
-1.12378
-1.12696
-1.13011
-1.13322
-1.13629
-1.13931
-1.1423
-1.14524
-1.14815
-1.15101
-1.15383
-1.15661
-1.15936
-1.16206
-1.16472
-1.16734
-1.16993
-1.17247
-1.17498
-1.17745
-1.17988
-1.18227
-1.18463
-1.18695
-1.18923
-1.19148
-1.1937
-1.19588
-1.19802
-1.20014
-1.20222
-1.20426
-1.20628
-1.20827
-1.21022
-1.21214
-1.21404
-1.2159
-1.21774
-1.21955
-1.22133
-1.22308
-1.22481
-1.22651
-1.22818
-1.22983
-1.23146
-1.23306
-1.23464
-1.2362
-1.23773
-1.23924
-1.24073
-1.2422
-1.24365
-1.24508
-1.24649
-1.24789
-1.24926
-1.25061
-1.25195
-1.25327
-1.25458
-1.25587
-1.25712
-0.953574
-0.953693
-0.954169
-0.954918
-0.955914
-0.957152
-0.958621
-0.960305
-0.96219
-0.964263
-0.966513
-0.968927
-0.971493
-0.9742
-0.977038
-0.979997
-0.983066
-0.986236
-0.989498
-0.992844
-0.996265
-0.999754
-1.0033
-1.00691
-1.01055
-1.01424
-1.01797
-1.02172
-1.02549
-1.02929
-1.03309
-1.03691
-1.04073
-1.04455
-1.04837
-1.05218
-1.05598
-1.05977
-1.06354
-1.0673
-1.07103
-1.07475
-1.07843
-1.0821
-1.08573
-1.08933
-1.0929
-1.09644
-1.09994
-1.10341
-1.10685
-1.11024
-1.1136
-1.11692
-1.1202
-1.12345
-1.12665
-1.12981
-1.13293
-1.13601
-1.13905
-1.14205
-1.14501
-1.14793
-1.15081
-1.15364
-1.15644
-1.1592
-1.16191
-1.16459
-1.16722
-1.16982
-1.17238
-1.1749
-1.17738
-1.17982
-1.18223
-1.1846
-1.18693
-1.18923
-1.19149
-1.19372
-1.19591
-1.19807
-1.2002
-1.20229
-1.20435
-1.20638
-1.20837
-1.21034
-1.21227
-1.21418
-1.21605
-1.2179
-1.21972
-1.22151
-1.22328
-1.22501
-1.22673
-1.22841
-1.23007
-1.23171
-1.23332
-1.23491
-1.23648
-1.23802
-1.23954
-1.24104
-1.24252
-1.24398
-1.24542
-1.24684
-1.24824
-1.24962
-1.25099
-1.25233
-1.25366
-1.25498
-1.25628
-1.25754
-0.952813
-0.95292
-0.953385
-0.954125
-0.955111
-0.956342
-0.957805
-0.959483
-0.961363
-0.963433
-0.965679
-0.968091
-0.970656
-0.973363
-0.976202
-0.979161
-0.982233
-0.985406
-0.988672
-0.992022
-0.995449
-0.998944
-1.0025
-1.00611
-1.00977
-1.01346
-1.0172
-1.02096
-1.02474
-1.02855
-1.03236
-1.03619
-1.04002
-1.04386
-1.04769
-1.05151
-1.05532
-1.05913
-1.06291
-1.06668
-1.07043
-1.07416
-1.07786
-1.08154
-1.08519
-1.0888
-1.09239
-1.09594
-1.09946
-1.10295
-1.1064
-1.10981
-1.11318
-1.11652
-1.11982
-1.12308
-1.12629
-1.12947
-1.13261
-1.13571
-1.13876
-1.14178
-1.14475
-1.14769
-1.15058
-1.15343
-1.15624
-1.15902
-1.16175
-1.16444
-1.16709
-1.1697
-1.17227
-1.17481
-1.17731
-1.17976
-1.18219
-1.18457
-1.18692
-1.18923
-1.19151
-1.19375
-1.19595
-1.19812
-1.20026
-1.20237
-1.20444
-1.20648
-1.20849
-1.21047
-1.21242
-1.21434
-1.21622
-1.21808
-1.21992
-1.22172
-1.22349
-1.22524
-1.22697
-1.22867
-1.23034
-1.23199
-1.23361
-1.23521
-1.23679
-1.23834
-1.23988
-1.24139
-1.24288
-1.24435
-1.2458
-1.24723
-1.24864
-1.25003
-1.2514
-1.25276
-1.2541
-1.25542
-1.25673
-1.258
-0.951975
-0.952068
-0.952522
-0.953251
-0.954228
-0.955451
-0.956906
-0.958578
-0.960452
-0.962518
-0.964761
-0.967171
-0.969734
-0.972441
-0.975281
-0.978242
-0.981316
-0.984492
-0.987762
-0.991117
-0.99455
-0.998051
-1.00161
-1.00523
-1.0089
-1.0126
-1.01635
-1.02012
-1.02391
-1.02773
-1.03156
-1.0354
-1.03924
-1.04309
-1.04693
-1.05077
-1.0546
-1.05842
-1.06222
-1.06601
-1.06977
-1.07351
-1.07723
-1.08092
-1.08459
-1.08822
-1.09183
-1.0954
-1.09893
-1.10244
-1.1059
-1.10933
-1.11272
-1.11608
-1.11939
-1.12267
-1.1259
-1.1291
-1.13225
-1.13537
-1.13844
-1.14148
-1.14447
-1.14742
-1.15033
-1.1532
-1.15603
-1.15882
-1.16156
-1.16427
-1.16694
-1.16957
-1.17216
-1.17471
-1.17722
-1.1797
-1.18214
-1.18454
-1.1869
-1.18923
-1.19152
-1.19377
-1.196
-1.19818
-1.20034
-1.20246
-1.20454
-1.2066
-1.20862
-1.21062
-1.21258
-1.21451
-1.21641
-1.21828
-1.22013
-1.22195
-1.22374
-1.2255
-1.22723
-1.22895
-1.23063
-1.23229
-1.23393
-1.23554
-1.23713
-1.2387
-1.24024
-1.24176
-1.24327
-1.24475
-1.24621
-1.24765
-1.24907
-1.25048
-1.25186
-1.25323
-1.25458
-1.25592
-1.25724
-1.25851
-0.951062
-0.951141
-0.951582
-0.952299
-0.953266
-0.954479
-0.955926
-0.957591
-0.95946
-0.961521
-0.963761
-0.966168
-0.96873
-0.971437
-0.974276
-0.977239
-0.980316
-0.983496
-0.98677
-0.990131
-0.993569
-0.997077
-1.00065
-1.00427
-1.00795
-1.01167
-1.01542
-1.0192
-1.02301
-1.02684
-1.03068
-1.03453
-1.03839
-1.04225
-1.04611
-1.04997
-1.05381
-1.05764
-1.06146
-1.06526
-1.06905
-1.07281
-1.07654
-1.08025
-1.08394
-1.08759
-1.09121
-1.0948
-1.09836
-1.10188
-1.10536
-1.10881
-1.11222
-1.11559
-1.11893
-1.12222
-1.12548
-1.12869
-1.13187
-1.135
-1.13809
-1.14115
-1.14416
-1.14713
-1.15006
-1.15294
-1.15579
-1.1586
-1.16136
-1.16409
-1.16678
-1.16942
-1.17203
-1.1746
-1.17713
-1.17962
-1.18208
-1.1845
-1.18688
-1.18922
-1.19153
-1.1938
-1.19604
-1.19824
-1.20041
-1.20255
-1.20465
-1.20673
-1.20877
-1.21077
-1.21275
-1.2147
-1.21661
-1.2185
-1.22036
-1.22219
-1.224
-1.22578
-1.22753
-1.22925
-1.23095
-1.23262
-1.23427
-1.2359
-1.2375
-1.23908
-1.24064
-1.24218
-1.24369
-1.24519
-1.24666
-1.24811
-1.24955
-1.25096
-1.25236
-1.25374
-1.2551
-1.25645
-1.25778
-1.25907
-0.950075
-0.950138
-0.950566
-0.951271
-0.952226
-0.953429
-0.954867
-0.956524
-0.958387
-0.960443
-0.962679
-0.965083
-0.967644
-0.97035
-0.973191
-0.976155
-0.979234
-0.982418
-0.985697
-0.989064
-0.992509
-0.996024
-0.999603
-1.00324
-1.00692
-1.01065
-1.01441
-1.01821
-1.02203
-1.02587
-1.02973
-1.0336
-1.03747
-1.04135
-1.04522
-1.04909
-1.05296
-1.05681
-1.06064
-1.06446
-1.06826
-1.07204
-1.0758
-1.07953
-1.08323
-1.0869
-1.09054
-1.09415
-1.09773
-1.10127
-1.10478
-1.10825
-1.11168
-1.11507
-1.11843
-1.12174
-1.12502
-1.12825
-1.13145
-1.1346
-1.13771
-1.14079
-1.14382
-1.14681
-1.14976
-1.15267
-1.15553
-1.15836
-1.16115
-1.16389
-1.1666
-1.16927
-1.1719
-1.17448
-1.17703
-1.17954
-1.18202
-1.18445
-1.18685
-1.18922
-1.19154
-1.19383
-1.19609
-1.19831
-1.2005
-1.20265
-1.20477
-1.20686
-1.20892
-1.21094
-1.21294
-1.2149
-1.21684
-1.21874
-1.22062
-1.22246
-1.22428
-1.22607
-1.22784
-1.22958
-1.23129
-1.23298
-1.23465
-1.23629
-1.23791
-1.2395
-1.24107
-1.24262
-1.24415
-1.24566
-1.24715
-1.24861
-1.25006
-1.25149
-1.2529
-1.2543
-1.25567
-1.25703
-1.25838
-1.25967
-0.949016
-0.949062
-0.949475
-0.950166
-0.951109
-0.952301
-0.95373
-0.955379
-0.957235
-0.959285
-0.961517
-0.963919
-0.966478
-0.969183
-0.972024
-0.974991
-0.978073
-0.98126
-0.984545
-0.987917
-0.991369
-0.994893
-0.998481
-1.00213
-1.00582
-1.00956
-1.01334
-1.01714
-1.02098
-1.02484
-1.02871
-1.03259
-1.03648
-1.04037
-1.04427
-1.04816
-1.05204
-1.05591
-1.05976
-1.0636
-1.06742
-1.07122
-1.075
-1.07875
-1.08247
-1.08616
-1.08983
-1.09346
-1.09706
-1.10062
-1.10415
-1.10764
-1.11109
-1.11451
-1.11788
-1.12122
-1.12452
-1.12778
-1.13099
-1.13417
-1.13731
-1.1404
-1.14346
-1.14647
-1.14944
-1.15237
-1.15526
-1.15811
-1.16092
-1.16368
-1.16641
-1.1691
-1.17175
-1.17436
-1.17693
-1.17946
-1.18195
-1.18441
-1.18683
-1.18921
-1.19156
-1.19387
-1.19614
-1.19838
-1.20059
-1.20276
-1.2049
-1.20701
-1.20908
-1.21113
-1.21314
-1.21512
-1.21707
-1.21899
-1.22089
-1.22275
-1.22459
-1.2264
-1.22818
-1.22993
-1.23167
-1.23337
-1.23505
-1.23671
-1.23834
-1.23995
-1.24154
-1.2431
-1.24465
-1.24617
-1.24767
-1.24915
-1.25062
-1.25206
-1.25348
-1.25489
-1.25628
-1.25765
-1.25901
-1.26032
-0.947885
-0.947913
-0.94831
-0.948987
-0.949917
-0.951098
-0.952516
-0.954157
-0.956005
-0.95805
-0.960277
-0.962675
-0.965232
-0.967937
-0.970779
-0.973748
-0.976833
-0.980025
-0.983314
-0.986693
-0.990153
-0.993685
-0.997282
-1.00094
-1.00464
-1.0084
-1.01218
-1.01601
-1.01986
-1.02373
-1.02762
-1.03152
-1.03542
-1.03933
-1.04325
-1.04715
-1.05105
-1.05494
-1.05882
-1.06268
-1.06652
-1.07034
-1.07414
-1.07791
-1.08166
-1.08537
-1.08906
-1.09271
-1.09633
-1.09992
-1.10347
-1.10699
-1.11046
-1.1139
-1.1173
-1.12067
-1.12399
-1.12727
-1.13051
-1.13371
-1.13687
-1.13999
-1.14307
-1.1461
-1.1491
-1.15205
-1.15496
-1.15783
-1.16067
-1.16346
-1.16621
-1.16892
-1.17159
-1.17422
-1.17681
-1.17937
-1.18188
-1.18436
-1.1868
-1.1892
-1.19157
-1.1939
-1.1962
-1.19846
-1.20069
-1.20288
-1.20504
-1.20717
-1.20926
-1.21132
-1.21335
-1.21535
-1.21732
-1.21926
-1.22117
-1.22306
-1.22491
-1.22674
-1.22854
-1.23031
-1.23206
-1.23378
-1.23548
-1.23715
-1.2388
-1.24043
-1.24203
-1.24362
-1.24517
-1.24671
-1.24823
-1.24973
-1.25121
-1.25267
-1.2541
-1.25553
-1.25693
-1.25832
-1.25969
-1.26101
-0.946684
-0.946693
-0.947074
-0.947735
-0.948651
-0.94982
-0.951227
-0.952858
-0.954699
-0.956737
-0.95896
-0.961354
-0.96391
-0.966614
-0.969456
-0.972427
-0.975515
-0.978711
-0.982007
-0.985392
-0.98886
-0.992401
-0.996008
-0.999675
-1.00339
-1.00716
-1.01096
-1.0148
-1.01866
-1.02255
-1.02645
-1.03037
-1.0343
-1.03823
-1.04216
-1.04609
-1.05001
-1.05392
-1.05782
-1.0617
-1.06556
-1.06941
-1.07323
-1.07702
-1.08079
-1.08453
-1.08824
-1.09192
-1.09557
-1.09918
-1.10276
-1.1063
-1.1098
-1.11326
-1.11669
-1.12008
-1.12342
-1.12673
-1.13
-1.13322
-1.13641
-1.13955
-1.14265
-1.14571
-1.14873
-1.15171
-1.15465
-1.15754
-1.1604
-1.16321
-1.16599
-1.16872
-1.17142
-1.17407
-1.17669
-1.17927
-1.1818
-1.18431
-1.18677
-1.1892
-1.19158
-1.19394
-1.19626
-1.19854
-1.20079
-1.203
-1.20518
-1.20733
-1.20945
-1.21153
-1.21358
-1.2156
-1.21759
-1.21955
-1.22148
-1.22338
-1.22526
-1.2271
-1.22892
-1.23071
-1.23248
-1.23422
-1.23594
-1.23763
-1.2393
-1.24094
-1.24256
-1.24416
-1.24574
-1.24729
-1.24883
-1.25034
-1.25183
-1.25331
-1.25476
-1.2562
-1.25762
-1.25903
-1.26041
-1.26175
-0.945415
-0.945404
-0.945767
-0.946411
-0.947312
-0.948468
-0.949864
-0.951485
-0.953318
-0.955349
-0.957567
-0.959958
-0.96251
-0.965214
-0.968057
-0.971029
-0.974121
-0.977322
-0.980623
-0.984016
-0.987492
-0.991042
-0.99466
-0.998338
-1.00207
-1.00585
-1.00966
-1.01352
-1.0174
-1.0213
-1.02523
-1.02916
-1.03311
-1.03706
-1.04101
-1.04496
-1.0489
-1.05284
-1.05676
-1.06066
-1.06455
-1.06842
-1.07226
-1.07608
-1.07988
-1.08364
-1.08738
-1.09108
-1.09476
-1.09839
-1.102
-1.10556
-1.10909
-1.11258
-1.11603
-1.11945
-1.12282
-1.12616
-1.12945
-1.1327
-1.13591
-1.13908
-1.14221
-1.1453
-1.14834
-1.15135
-1.15431
-1.15724
-1.16012
-1.16296
-1.16576
-1.16852
-1.17124
-1.17392
-1.17656
-1.17916
-1.18172
-1.18425
-1.18674
-1.18919
-1.1916
-1.19398
-1.19632
-1.19862
-1.2009
-1.20313
-1.20534
-1.2075
-1.20964
-1.21175
-1.21382
-1.21586
-1.21787
-1.21985
-1.22181
-1.22373
-1.22562
-1.22749
-1.22933
-1.23114
-1.23293
-1.23469
-1.23642
-1.23813
-1.23982
-1.24148
-1.24312
-1.24474
-1.24633
-1.2479
-1.24946
-1.25099
-1.2525
-1.25399
-1.25546
-1.25692
-1.25835
-1.25978
-1.26118
-1.26253
-0.944078
-0.944045
-0.94439
-0.945017
-0.945902
-0.947044
-0.948428
-0.950039
-0.951863
-0.953887
-0.956099
-0.958486
-0.961036
-0.963739
-0.966583
-0.969557
-0.972652
-0.975858
-0.979165
-0.982565
-0.986049
-0.98961
-0.993239
-0.996929
-1.00067
-1.00447
-1.0083
-1.01217
-1.01607
-1.01999
-1.02393
-1.02789
-1.03185
-1.03582
-1.0398
-1.04377
-1.04774
-1.05169
-1.05564
-1.05957
-1.06348
-1.06737
-1.07124
-1.07509
-1.07891
-1.0827
-1.08647
-1.0902
-1.0939
-1.09756
-1.10119
-1.10479
-1.10834
-1.11186
-1.11534
-1.11879
-1.12219
-1.12555
-1.12887
-1.13215
-1.13539
-1.13859
-1.14175
-1.14486
-1.14794
-1.15097
-1.15396
-1.15691
-1.15982
-1.16268
-1.16551
-1.1683
-1.17104
-1.17375
-1.17642
-1.17905
-1.18164
-1.18419
-1.1867
-1.18917
-1.19161
-1.19402
-1.19638
-1.19871
-1.20101
-1.20327
-1.2055
-1.20769
-1.20985
-1.21198
-1.21407
-1.21614
-1.21817
-1.22017
-1.22215
-1.22409
-1.22601
-1.2279
-1.22976
-1.23159
-1.23339
-1.23518
-1.23693
-1.23866
-1.24037
-1.24205
-1.24371
-1.24534
-1.24696
-1.24855
-1.25012
-1.25167
-1.2532
-1.25471
-1.2562
-1.25767
-1.25913
-1.26057
-1.26199
-1.26335
-0.942675
-0.94262
-0.942944
-0.943553
-0.944422
-0.945549
-0.946921
-0.94852
-0.950335
-0.952352
-0.954557
-0.95694
-0.959488
-0.96219
-0.965034
-0.96801
-0.971109
-0.97432
-0.977633
-0.981041
-0.984535
-0.988105
-0.991746
-0.995449
-0.999207
-1.00301
-1.00686
-1.01075
-1.01467
-1.01861
-1.02257
-1.02655
-1.03053
-1.03453
-1.03852
-1.04252
-1.04651
-1.05049
-1.05446
-1.05842
-1.06236
-1.06628
-1.07017
-1.07405
-1.0779
-1.08172
-1.08551
-1.08927
-1.093
-1.09669
-1.10035
-1.10397
-1.10756
-1.11111
-1.11462
-1.11809
-1.12152
-1.12491
-1.12826
-1.13157
-1.13484
-1.13807
-1.14126
-1.1444
-1.1475
-1.15057
-1.15359
-1.15656
-1.1595
-1.1624
-1.16525
-1.16807
-1.17084
-1.17358
-1.17627
-1.17893
-1.18154
-1.18412
-1.18666
-1.18916
-1.19163
-1.19406
-1.19645
-1.1988
-1.20112
-1.20341
-1.20566
-1.20788
-1.21007
-1.21222
-1.21434
-1.21643
-1.21848
-1.22051
-1.22251
-1.22447
-1.22641
-1.22832
-1.2302
-1.23206
-1.23389
-1.23569
-1.23747
-1.23922
-1.24094
-1.24265
-1.24433
-1.24598
-1.24762
-1.24923
-1.25082
-1.25239
-1.25394
-1.25547
-1.25698
-1.25847
-1.25994
-1.2614
-1.26284
-1.26421
-0.941206
-0.941127
-0.941431
-0.942021
-0.942873
-0.943985
-0.945343
-0.946931
-0.948736
-0.950744
-0.952944
-0.955322
-0.957867
-0.960568
-0.963412
-0.966391
-0.969493
-0.972709
-0.976029
-0.979445
-0.982948
-0.986529
-0.990182
-0.993898
-0.997671
-1.00149
-1.00536
-1.00926
-1.0132
-1.01716
-1.02114
-1.02514
-1.02915
-1.03317
-1.03719
-1.04121
-1.04522
-1.04923
-1.05323
-1.05721
-1.06118
-1.06512
-1.06905
-1.07295
-1.07683
-1.08068
-1.0845
-1.08829
-1.09205
-1.09577
-1.09946
-1.10312
-1.10673
-1.11031
-1.11386
-1.11736
-1.12082
-1.12424
-1.12763
-1.13097
-1.13427
-1.13753
-1.14074
-1.14392
-1.14705
-1.15014
-1.15319
-1.1562
-1.15917
-1.1621
-1.16498
-1.16783
-1.17063
-1.17339
-1.17612
-1.1788
-1.18145
-1.18405
-1.18662
-1.18915
-1.19164
-1.1941
-1.19652
-1.1989
-1.20125
-1.20356
-1.20584
-1.20808
-1.21029
-1.21247
-1.21461
-1.21673
-1.21881
-1.22086
-1.22288
-1.22487
-1.22684
-1.22877
-1.23067
-1.23255
-1.2344
-1.23623
-1.23803
-1.2398
-1.24155
-1.24327
-1.24497
-1.24665
-1.24831
-1.24994
-1.25155
-1.25314
-1.25471
-1.25626
-1.25779
-1.2593
-1.26079
-1.26227
-1.26373
-1.26512
-0.939674
-0.93957
-0.939852
-0.940422
-0.941256
-0.942352
-0.943695
-0.945271
-0.947066
-0.949066
-0.951259
-0.953633
-0.956175
-0.958874
-0.961719
-0.9647
-0.967805
-0.971027
-0.974354
-0.977778
-0.98129
-0.984883
-0.988548
-0.992278
-0.996065
-0.999904
-1.00379
-1.00771
-1.01166
-1.01565
-1.01965
-1.02367
-1.0277
-1.03174
-1.03579
-1.03983
-1.04388
-1.04791
-1.05193
-1.05595
-1.05994
-1.06392
-1.06787
-1.07181
-1.07571
-1.0796
-1.08345
-1.08727
-1.09106
-1.09481
-1.09854
-1.10222
-1.10587
-1.10948
-1.11306
-1.11659
-1.12009
-1.12354
-1.12696
-1.13033
-1.13366
-1.13695
-1.1402
-1.14341
-1.14658
-1.1497
-1.15278
-1.15582
-1.15882
-1.16178
-1.1647
-1.16757
-1.1704
-1.1732
-1.17595
-1.17867
-1.18134
-1.18398
-1.18658
-1.18913
-1.19166
-1.19414
-1.19659
-1.199
-1.20137
-1.20371
-1.20602
-1.20829
-1.21053
-1.21273
-1.2149
-1.21704
-1.21915
-1.22123
-1.22327
-1.22529
-1.22728
-1.22924
-1.23117
-1.23307
-1.23494
-1.23679
-1.23861
-1.24041
-1.24218
-1.24393
-1.24565
-1.24735
-1.24903
-1.25068
-1.25232
-1.25393
-1.25552
-1.25709
-1.25864
-1.26017
-1.26168
-1.26318
-1.26466
-1.26607
-0.938078
-0.937949
-0.938208
-0.938757
-0.939572
-0.940651
-0.94198
-0.943543
-0.945327
-0.947318
-0.949504
-0.951873
-0.954412
-0.95711
-0.959955
-0.962938
-0.966047
-0.969274
-0.972608
-0.97604
-0.979563
-0.983167
-0.986845
-0.990589
-0.994392
-0.998247
-1.00215
-1.00609
-1.01006
-1.01407
-1.01809
-1.02214
-1.02619
-1.03026
-1.03433
-1.0384
-1.04247
-1.04653
-1.05059
-1.05463
-1.05865
-1.06266
-1.06665
-1.07061
-1.07455
-1.07846
-1.08235
-1.0862
-1.09002
-1.09381
-1.09757
-1.10129
-1.10497
-1.10862
-1.11222
-1.11579
-1.11932
-1.12281
-1.12626
-1.12967
-1.13303
-1.13636
-1.13964
-1.14288
-1.14608
-1.14924
-1.15235
-1.15543
-1.15846
-1.16145
-1.1644
-1.1673
-1.17017
-1.173
-1.17578
-1.17853
-1.18123
-1.1839
-1.18653
-1.18912
-1.19167
-1.19418
-1.19666
-1.1991
-1.20151
-1.20388
-1.20621
-1.20851
-1.21077
-1.21301
-1.21521
-1.21737
-1.21951
-1.22161
-1.22368
-1.22573
-1.22774
-1.22972
-1.23168
-1.2336
-1.2355
-1.23738
-1.23922
-1.24105
-1.24284
-1.24461
-1.24636
-1.24808
-1.24978
-1.25146
-1.25311
-1.25475
-1.25636
-1.25795
-1.25953
-1.26108
-1.26261
-1.26413
-1.26563
-1.26706
-0.93642
-0.936264
-0.9365
-0.937027
-0.937822
-0.938884
-0.940198
-0.941747
-0.94352
-0.945502
-0.947681
-0.950044
-0.952579
-0.955275
-0.958121
-0.961106
-0.964219
-0.967451
-0.970792
-0.974234
-0.977766
-0.981382
-0.985073
-0.988832
-0.992651
-0.996524
-1.00044
-1.0044
-1.0084
-1.01242
-1.01647
-1.02054
-1.02462
-1.02872
-1.03281
-1.03691
-1.04101
-1.0451
-1.04919
-1.05326
-1.05731
-1.06135
-1.06537
-1.06937
-1.07334
-1.07728
-1.0812
-1.08509
-1.08895
-1.09277
-1.09656
-1.10031
-1.10403
-1.10771
-1.11135
-1.11496
-1.11852
-1.12205
-1.12553
-1.12897
-1.13237
-1.13573
-1.13905
-1.14233
-1.14556
-1.14875
-1.1519
-1.15501
-1.15808
-1.1611
-1.16408
-1.16702
-1.16992
-1.17278
-1.1756
-1.17838
-1.18112
-1.18382
-1.18648
-1.1891
-1.19168
-1.19423
-1.19674
-1.19921
-1.20164
-1.20404
-1.20641
-1.20873
-1.21103
-1.21329
-1.21552
-1.21771
-1.21988
-1.22201
-1.22411
-1.22618
-1.22822
-1.23023
-1.23221
-1.23416
-1.23609
-1.23799
-1.23986
-1.24171
-1.24353
-1.24532
-1.24709
-1.24884
-1.25056
-1.25227
-1.25394
-1.2556
-1.25724
-1.25885
-1.26045
-1.26202
-1.26358
-1.26512
-1.26664
-1.26809
-0.934701
-0.934518
-0.934729
-0.935234
-0.936008
-0.937051
-0.938349
-0.939885
-0.941646
-0.943618
-0.945789
-0.948147
-0.950678
-0.953373
-0.956219
-0.959205
-0.962322
-0.96556
-0.968908
-0.972359
-0.975902
-0.97953
-0.983235
-0.987008
-0.990844
-0.994735
-0.998674
-1.00265
-1.00667
-1.01072
-1.01479
-1.01889
-1.02299
-1.02711
-1.03124
-1.03537
-1.03949
-1.04361
-1.04773
-1.05183
-1.05592
-1.05999
-1.06404
-1.06807
-1.07208
-1.07606
-1.08001
-1.08393
-1.08782
-1.09168
-1.09551
-1.0993
-1.10305
-1.10677
-1.11045
-1.11409
-1.11769
-1.12125
-1.12477
-1.12825
-1.13169
-1.13509
-1.13844
-1.14175
-1.14502
-1.14825
-1.15144
-1.15458
-1.15768
-1.16074
-1.16376
-1.16673
-1.16967
-1.17256
-1.17541
-1.17823
-1.181
-1.18373
-1.18643
-1.18908
-1.1917
-1.19427
-1.19681
-1.19932
-1.20178
-1.20421
-1.20661
-1.20897
-1.21129
-1.21358
-1.21584
-1.21807
-1.22026
-1.22242
-1.22455
-1.22665
-1.22872
-1.23075
-1.23276
-1.23474
-1.2367
-1.23862
-1.24052
-1.24239
-1.24424
-1.24606
-1.24786
-1.24963
-1.25138
-1.2531
-1.25481
-1.25649
-1.25815
-1.25979
-1.26141
-1.26301
-1.26459
-1.26615
-1.26769
-1.26916
-0.932923
-0.93271
-0.932896
-0.933377
-0.93413
-0.935155
-0.936436
-0.937957
-0.939705
-0.941667
-0.943831
-0.946182
-0.94871
-0.951402
-0.954248
-0.957237
-0.960358
-0.963601
-0.966957
-0.970416
-0.97397
-0.977611
-0.98133
-0.985119
-0.988972
-0.99288
-0.996839
-1.00084
-1.00488
-1.00895
-1.01305
-1.01717
-1.0213
-1.02545
-1.0296
-1.03376
-1.03792
-1.04207
-1.04622
-1.05035
-1.05447
-1.05858
-1.06266
-1.06673
-1.07077
-1.07479
-1.07877
-1.08273
-1.08666
-1.09056
-1.09442
-1.09825
-1.10204
-1.10579
-1.10951
-1.11319
-1.11683
-1.12043
-1.12398
-1.1275
-1.13098
-1.13441
-1.1378
-1.14115
-1.14446
-1.14773
-1.15095
-1.15413
-1.15727
-1.16036
-1.16342
-1.16643
-1.1694
-1.17233
-1.17522
-1.17807
-1.18087
-1.18364
-1.18637
-1.18906
-1.19171
-1.19432
-1.19689
-1.19943
-1.20193
-1.20439
-1.20682
-1.20921
-1.21157
-1.21389
-1.21618
-1.21843
-1.22066
-1.22285
-1.22501
-1.22713
-1.22923
-1.2313
-1.23334
-1.23535
-1.23733
-1.23928
-1.24121
-1.24311
-1.24498
-1.24683
-1.24865
-1.25045
-1.25222
-1.25397
-1.2557
-1.25741
-1.2591
-1.26076
-1.2624
-1.26403
-1.26563
-1.26722
-1.26878
-1.27027
-0.931085
-0.930843
-0.931002
-0.931459
-0.93219
-0.933195
-0.934458
-0.935964
-0.9377
-0.939651
-0.941806
-0.944151
-0.946675
-0.949365
-0.952211
-0.955202
-0.958327
-0.961575
-0.964939
-0.968408
-0.971973
-0.975626
-0.979359
-0.983164
-0.987034
-0.990962
-0.994941
-0.998965
-1.00303
-1.00712
-1.01125
-1.01539
-1.01955
-1.02373
-1.02791
-1.0321
-1.03629
-1.04047
-1.04465
-1.04882
-1.05297
-1.05711
-1.06124
-1.06534
-1.06941
-1.07347
-1.07749
-1.08149
-1.08546
-1.08939
-1.09329
-1.09716
-1.10099
-1.10478
-1.10854
-1.11225
-1.11593
-1.11957
-1.12317
-1.12672
-1.13024
-1.13371
-1.13714
-1.14053
-1.14388
-1.14718
-1.15044
-1.15366
-1.15684
-1.15997
-1.16306
-1.16611
-1.16912
-1.17209
-1.17501
-1.1779
-1.18074
-1.18355
-1.18631
-1.18903
-1.19172
-1.19437
-1.19697
-1.19954
-1.20208
-1.20457
-1.20703
-1.20946
-1.21185
-1.2142
-1.21652
-1.21881
-1.22107
-1.22329
-1.22548
-1.22764
-1.22976
-1.23186
-1.23393
-1.23597
-1.23798
-1.23996
-1.24191
-1.24384
-1.24574
-1.24762
-1.24947
-1.2513
-1.2531
-1.25488
-1.25663
-1.25836
-1.26007
-1.26176
-1.26343
-1.26508
-1.26671
-1.26832
-1.26991
-1.27142
-0.929189
-0.928916
-0.929048
-0.92948
-0.930188
-0.931172
-0.932418
-0.933908
-0.93563
-0.937571
-0.939717
-0.942055
-0.944575
-0.947263
-0.950108
-0.953101
-0.956229
-0.959484
-0.962855
-0.966333
-0.969909
-0.973576
-0.977323
-0.981145
-0.985033
-0.98898
-0.99298
-0.997026
-1.00111
-1.00523
-1.00938
-1.01355
-1.01774
-1.02195
-1.02616
-1.03038
-1.0346
-1.03882
-1.04303
-1.04723
-1.05143
-1.0556
-1.05976
-1.0639
-1.06801
-1.0721
-1.07617
-1.0802
-1.08421
-1.08818
-1.09212
-1.09603
-1.0999
-1.10373
-1.10753
-1.11129
-1.115
-1.11868
-1.12232
-1.12592
-1.12947
-1.13299
-1.13646
-1.13989
-1.14327
-1.14662
-1.14992
-1.15318
-1.15639
-1.15957
-1.1627
-1.16579
-1.16883
-1.17184
-1.1748
-1.17772
-1.18061
-1.18345
-1.18625
-1.18901
-1.19173
-1.19441
-1.19706
-1.19966
-1.20223
-1.20476
-1.20726
-1.20972
-1.21214
-1.21453
-1.21688
-1.2192
-1.22149
-1.22374
-1.22596
-1.22816
-1.23031
-1.23244
-1.23454
-1.23661
-1.23865
-1.24066
-1.24265
-1.2446
-1.24653
-1.24844
-1.25032