/*--------------------------------*- C++ -*----------------------------------*\
  =========                 |
  \\      /  F ield         | OpenFOAM: The Open Source CFD Toolbox
   \\    /   O peration     | Website:  https://openfoam.org
    \\  /    A nd           | Version:  10
     \\/     M anipulation  |
\*---------------------------------------------------------------------------*/
FoamFile
{
    format      ascii;
    class       volScalarField;
    location    "207";
    object      alphat;
}
// * * * * * * * * * * * * * * * * * * * * * * * * * * * * * * * * * * * * * //

dimensions      [1 -1 -1 0 0 0 0];

internalField   nonuniform List<scalar> 
6580
(
2.02211e-06
5.26633e-06
5.7672e-06
4.57904e-06
5.67677e-06
9.36572e-06
1.86362e-05
4.32648e-05
9.18965e-05
0.000132827
0.000149567
0.000149466
0.000142223
0.000133575
0.000124612
0.000114795
0.000102825
9.46467e-05
8.94855e-05
8.14777e-05
7.56209e-05
7.26565e-05
7.13068e-05
7.06001e-05
7.0426e-05
7.06864e-05
7.11444e-05
7.16416e-05
7.20901e-05
7.26192e-05
7.34268e-05
7.45397e-05
7.59665e-05
7.77772e-05
8.01247e-05
8.31088e-05
8.71398e-05
9.22111e-05
0.000100117
0.000116438
2.75316e-06
3.00977e-06
2.73765e-06
2.87195e-06
3.19196e-06
3.80582e-06
5.05255e-06
7.96423e-06
1.12983e-05
1.35511e-05
1.6566e-05
1.915e-05
2.05342e-05
2.96429e-05
4.59887e-05
7.87861e-05
0.000132971
0.000183947
0.00022433
0.00025553
0.000278084
0.000295355
0.000310262
0.000322978
0.000333764
0.000342961
0.000350845
0.000357545
0.000362977
0.000367265
0.000370732
0.000373596
0.000375947
0.000377828
0.000379274
0.000380264
0.000380768
0.000380524
0.000378718
0.00037767
3.20327e-06
3.14894e-06
3.11861e-06
3.07509e-06
3.02038e-06
3.10911e-06
3.23806e-06
3.44274e-06
3.81585e-06
4.28473e-06
4.74223e-06
4.9634e-06
5.84542e-06
7.61409e-06
1.16531e-05
2.13095e-05
4.61751e-05
9.52244e-05
0.000160904
0.000227785
0.000282637
0.000323342
0.000354849
0.000380056
0.000400684
0.000417926
0.000432508
0.000444837
0.000455352
0.000464308
0.000471963
0.000478543
0.00048418
0.000488972
0.000493002
0.000496296
0.000498788
0.000500395
0.000500324
0.000499655
3.32926e-06
3.27383e-06
3.29827e-06
3.31791e-06
3.30904e-06
3.30891e-06
3.32687e-06
3.36935e-06
3.43952e-06
3.54097e-06
3.68096e-06
3.84747e-06
4.07337e-06
4.22924e-06
4.39275e-06
5.29989e-06
7.71828e-06
1.48571e-05
3.59872e-05
8.43329e-05
0.000148869
0.000207527
0.000257168
0.000298773
0.0003337
0.000363475
0.000388447
0.000410019
0.000428804
0.0004453
0.00045993
0.000472988
0.000484644
0.000495047
0.000504325
0.000512581
0.000519842
0.000526172
0.000531336
0.000535408
3.37599e-06
3.31421e-06
3.31243e-06
3.31715e-06
3.29916e-06
3.26074e-06
3.22545e-06
3.21206e-06
3.22257e-06
3.24508e-06
3.27716e-06
3.32169e-06
3.37458e-06
3.4595e-06
3.5277e-06
3.56488e-06
3.76671e-06
4.15038e-06
5.13834e-06
8.59821e-06
1.81092e-05
3.75354e-05
6.71047e-05
0.000102903
0.000139775
0.000175921
0.000209371
0.000239961
0.000267731
0.000292966
0.000315986
0.000336982
0.000356204
0.000373896
0.000390315
0.00040564
0.000419998
0.00043356
0.000446447
0.000458187
3.37426e-06
3.32731e-06
3.31785e-06
3.32068e-06
3.32509e-06
3.32235e-06
3.31087e-06
3.29245e-06
3.28461e-06
3.28437e-06
3.29167e-06
3.30696e-06
3.32928e-06
3.35903e-06
3.39498e-06
3.43228e-06
3.48021e-06
3.54352e-06
3.64422e-06
3.86147e-06
4.31965e-06
5.08782e-06
6.33278e-06
8.33319e-06
1.15123e-05
1.64409e-05
2.37303e-05
3.38906e-05
4.70223e-05
6.28404e-05
8.05284e-05
9.92101e-05
0.000118268
0.000137379
0.000156655
0.000176016
0.00019539
0.000214792
0.00023418
0.000252679
3.36754e-06
3.33214e-06
3.31465e-06
3.31583e-06
3.319e-06
3.31916e-06
3.31074e-06
3.29037e-06
3.26915e-06
3.2472e-06
3.22509e-06
3.20399e-06
3.18506e-06
3.1686e-06
3.18629e-06
3.16957e-06
3.18096e-06
3.18815e-06
3.18357e-06
3.16771e-06
3.16139e-06
3.16553e-06
3.18333e-06
3.22444e-06
3.30581e-06
3.45106e-06
3.68958e-06
4.05533e-06
4.60952e-06
5.40345e-06
6.52437e-06
8.07723e-06
1.01728e-05
1.29569e-05
1.66272e-05
2.14372e-05
2.76164e-05
3.53755e-05
4.49261e-05
5.57401e-05
3.3601e-06
3.33367e-06
3.31866e-06
3.31525e-06
3.31604e-06
3.31789e-06
3.31689e-06
3.31226e-06
3.29881e-06
3.28288e-06
3.26736e-06
3.26109e-06
3.25859e-06
3.25899e-06
3.2624e-06
3.28141e-06
3.29665e-06
3.3049e-06
3.31492e-06
3.3268e-06
3.33852e-06
3.34841e-06
3.35696e-06
3.36522e-06
3.374e-06
3.38368e-06
3.39609e-06
3.41538e-06
3.44546e-06
3.49513e-06
3.57121e-06
3.68272e-06
3.83831e-06
4.04892e-06
4.33268e-06
4.71265e-06
5.21424e-06
5.87141e-06
6.73032e-06
7.7935e-06
3.35278e-06
3.33358e-06
3.31963e-06
3.31253e-06
3.31183e-06
3.31249e-06
3.3124e-06
3.30981e-06
3.3018e-06
3.29089e-06
3.27969e-06
3.26803e-06
3.25578e-06
3.24299e-06
3.23004e-06
3.21819e-06
3.20728e-06
3.19669e-06
3.18506e-06
3.17266e-06
3.16142e-06
3.15239e-06
3.14488e-06
3.13826e-06
3.132e-06
3.12658e-06
3.12342e-06
3.1225e-06
3.12368e-06
3.1274e-06
3.13878e-06
3.15495e-06
3.17564e-06
3.20202e-06
3.23336e-06
3.27621e-06
3.33327e-06
3.40788e-06
3.50388e-06
3.6203e-06
3.34584e-06
3.33005e-06
3.31865e-06
3.31187e-06
3.30953e-06
3.30911e-06
3.30954e-06
3.30892e-06
3.30633e-06
3.30159e-06
3.29249e-06
3.28393e-06
3.2753e-06
3.2664e-06
3.25724e-06
3.248e-06
3.24606e-06
3.24647e-06
3.24877e-06
3.25206e-06
3.25609e-06
3.25999e-06
3.26331e-06
3.2662e-06
3.26894e-06
3.27166e-06
3.27322e-06
3.27413e-06
3.27354e-06
3.27323e-06
3.27359e-06
3.27397e-06
3.2741e-06
3.27397e-06
3.27371e-06
3.27441e-06
3.2767e-06
3.2811e-06
3.28823e-06
3.29741e-06
3.33935e-06
3.32579e-06
3.31691e-06
3.3114e-06
3.30737e-06
3.30662e-06
3.30634e-06
3.3062e-06
3.30488e-06
3.30199e-06
3.29483e-06
3.28803e-06
3.28171e-06
3.27526e-06
3.26857e-06
3.2616e-06
3.25446e-06
3.2473e-06
3.24042e-06
3.2343e-06
3.22943e-06
3.22575e-06
3.22258e-06
3.21963e-06
3.21682e-06
3.21409e-06
3.21171e-06
3.21e-06
3.21038e-06
3.21234e-06
3.21502e-06
3.21814e-06
3.22147e-06
3.22494e-06
3.22822e-06
3.23107e-06
3.2334e-06
3.23532e-06
3.23725e-06
3.2391e-06
3.33337e-06
3.32168e-06
3.315e-06
3.31044e-06
3.30693e-06
3.30522e-06
3.30426e-06
3.3039e-06
3.30327e-06
3.30168e-06
3.29892e-06
3.29315e-06
3.28782e-06
3.28283e-06
3.27797e-06
3.27304e-06
3.26803e-06
3.26299e-06
3.258e-06
3.25339e-06
3.25472e-06
3.25671e-06
3.25846e-06
3.2599e-06
3.26116e-06
3.26221e-06
3.26353e-06
3.26314e-06
3.26298e-06
3.26319e-06
3.26355e-06
3.26399e-06
3.26447e-06
3.26499e-06
3.2655e-06
3.2658e-06
3.26576e-06
3.26539e-06
3.26493e-06
3.26399e-06
3.32792e-06
3.31789e-06
3.31318e-06
3.30905e-06
3.30613e-06
3.30371e-06
3.30259e-06
3.30197e-06
3.30159e-06
3.30069e-06
3.29897e-06
3.29621e-06
3.29157e-06
3.28734e-06
3.28338e-06
3.27969e-06
3.27607e-06
3.27247e-06
3.26884e-06
3.26526e-06
3.26252e-06
3.26202e-06
3.2615e-06
3.26047e-06
3.25946e-06
3.25854e-06
3.25778e-06
3.25702e-06
3.25684e-06
3.25724e-06
3.25777e-06
3.25832e-06
3.2589e-06
3.25947e-06
3.26002e-06
3.26051e-06
3.26094e-06
3.26131e-06
3.26166e-06
3.26151e-06
3.32302e-06
3.31449e-06
3.31078e-06
3.30733e-06
3.30501e-06
3.30311e-06
3.30145e-06
3.30083e-06
3.30031e-06
3.29978e-06
3.29873e-06
3.29703e-06
3.29439e-06
3.29061e-06
3.28725e-06
3.28416e-06
3.28137e-06
3.27878e-06
3.27628e-06
3.2738e-06
3.27197e-06
3.27296e-06
3.27402e-06
3.27494e-06
3.27574e-06
3.27646e-06
3.27711e-06
3.27766e-06
3.27809e-06
3.27837e-06
3.27852e-06
3.27853e-06
3.27841e-06
3.27814e-06
3.2777e-06
3.27727e-06
3.27685e-06
3.27646e-06
3.2761e-06
3.27574e-06
3.31867e-06
3.31148e-06
3.30842e-06
3.30563e-06
3.30379e-06
3.30233e-06
3.301e-06
3.30013e-06
3.29949e-06
3.29895e-06
3.29824e-06
3.29711e-06
3.29547e-06
3.29224e-06
3.28936e-06
3.28682e-06
3.28454e-06
3.28255e-06
3.28089e-06
3.27931e-06
3.2781e-06
3.27891e-06
3.27991e-06
3.28075e-06
3.28144e-06
3.28204e-06
3.28256e-06
3.28306e-06
3.28348e-06
3.28386e-06
3.2842e-06
3.28449e-06
3.28473e-06
3.28493e-06
3.28509e-06
3.28521e-06
3.28529e-06
3.28533e-06
3.28538e-06
3.28519e-06
3.31486e-06
3.30884e-06
3.30631e-06
3.30407e-06
3.30262e-06
3.30149e-06
3.30047e-06
3.29944e-06
3.29883e-06
3.29829e-06
3.29777e-06
3.29699e-06
3.29589e-06
3.29435e-06
3.29168e-06
3.28944e-06
3.28751e-06
3.286e-06
3.28572e-06
3.28479e-06
3.28388e-06
3.28453e-06
3.28541e-06
3.28623e-06
3.28692e-06
3.2875e-06
3.28803e-06
3.28849e-06
3.28888e-06
3.2892e-06
3.28939e-06
3.28943e-06
3.28943e-06
3.28942e-06
3.2894e-06
3.28936e-06
3.28932e-06
3.28928e-06
3.28923e-06
3.28924e-06
3.31155e-06
3.30655e-06
3.30447e-06
3.30268e-06
3.30154e-06
3.30067e-06
3.2999e-06
3.29913e-06
3.2983e-06
3.29786e-06
3.2974e-06
3.29688e-06
3.29609e-06
3.29505e-06
3.29362e-06
3.29151e-06
3.28978e-06
3.28832e-06
3.288e-06
3.28793e-06
3.2872e-06
3.28764e-06
3.28833e-06
3.28911e-06
3.28979e-06
3.29037e-06
3.29088e-06
3.29136e-06
3.29178e-06
3.29214e-06
3.29246e-06
3.29273e-06
3.29295e-06
3.29313e-06
3.29329e-06
3.29341e-06
3.29352e-06
3.29359e-06
3.29368e-06
3.29365e-06
3.30872e-06
3.3046e-06
3.30289e-06
3.30147e-06
3.30057e-06
3.2999e-06
3.29932e-06
3.29874e-06
3.29812e-06
3.29765e-06
3.29722e-06
3.29678e-06
3.29621e-06
3.29546e-06
3.2945e-06
3.29323e-06
3.29159e-06
3.29025e-06
3.28969e-06
3.28949e-06
3.28889e-06
3.2891e-06
3.28963e-06
3.29031e-06
3.29097e-06
3.29154e-06
3.29204e-06
3.29249e-06
3.2929e-06
3.29327e-06
3.29359e-06
3.29386e-06
3.29409e-06
3.29427e-06
3.2944e-06
3.29446e-06
3.29452e-06
3.29456e-06
3.29461e-06
3.29464e-06
3.30632e-06
3.30296e-06
3.30156e-06
3.30044e-06
3.29974e-06
3.29923e-06
3.29879e-06
3.29836e-06
3.2979e-06
3.29739e-06
3.29703e-06
3.29666e-06
3.29625e-06
3.2957e-06
3.29501e-06
3.29415e-06
3.29295e-06
3.29171e-06
3.29096e-06
3.29063e-06
3.29012e-06
3.29002e-06
3.29037e-06
3.29086e-06
3.29143e-06
3.29194e-06
3.29238e-06
3.29277e-06
3.29312e-06
3.29344e-06
3.29371e-06
3.29396e-06
3.29417e-06
3.29436e-06
3.29453e-06
3.29467e-06
3.2948e-06
3.2949e-06
3.29501e-06
3.29504e-06
3.30433e-06
3.30161e-06
3.30045e-06
3.29958e-06
3.29904e-06
3.29866e-06
3.29833e-06
3.29801e-06
3.29767e-06
3.29729e-06
3.29689e-06
3.29661e-06
3.29628e-06
3.29589e-06
3.29539e-06
3.29478e-06
3.29404e-06
3.29296e-06
3.29207e-06
3.2914e-06
3.29097e-06
3.29094e-06
3.29116e-06
3.29151e-06
3.29196e-06
3.29241e-06
3.2928e-06
3.29315e-06
3.29346e-06
3.29373e-06
3.29397e-06
3.29419e-06
3.29438e-06
3.29454e-06
3.29469e-06
3.29481e-06
3.29491e-06
3.295e-06
3.29505e-06
3.29512e-06
3.30271e-06
3.3005e-06
3.29955e-06
3.29888e-06
3.29848e-06
3.29819e-06
3.29795e-06
3.29771e-06
3.29745e-06
3.29718e-06
3.29686e-06
3.29661e-06
3.29635e-06
3.29605e-06
3.29568e-06
3.29524e-06
3.29472e-06
3.2941e-06
3.29329e-06
3.29267e-06
3.29226e-06
3.29214e-06
3.29224e-06
3.29245e-06
3.29275e-06
3.2931e-06
3.29342e-06
3.2937e-06
3.29395e-06
3.29417e-06
3.29437e-06
3.29454e-06
3.2947e-06
3.29484e-06
3.29496e-06
3.29507e-06
3.29516e-06
3.29525e-06
3.29532e-06
3.2954e-06
3.30139e-06
3.29961e-06
3.29882e-06
3.29834e-06
3.29804e-06
3.29783e-06
3.29764e-06
3.29746e-06
3.29727e-06
3.29707e-06
3.29683e-06
3.29656e-06
3.29637e-06
3.29615e-06
3.29588e-06
3.29556e-06
3.29518e-06
3.29474e-06
3.29426e-06
3.29367e-06
3.29329e-06
3.29311e-06
3.29315e-06
3.29327e-06
3.29344e-06
3.29367e-06
3.29391e-06
3.29413e-06
3.29432e-06
3.2945e-06
3.29465e-06
3.29479e-06
3.29492e-06
3.29503e-06
3.29512e-06
3.29521e-06
3.29528e-06
3.29535e-06
3.29539e-06
3.29547e-06
3.30033e-06
3.29891e-06
3.29825e-06
3.29792e-06
3.29771e-06
3.29755e-06
3.29741e-06
3.29727e-06
3.29712e-06
3.29697e-06
3.29679e-06
3.29659e-06
3.29642e-06
3.29625e-06
3.29605e-06
3.29582e-06
3.29554e-06
3.29523e-06
3.29489e-06
3.29443e-06
3.29408e-06
3.2939e-06
3.29392e-06
3.29398e-06
3.29408e-06
3.29422e-06
3.29438e-06
3.29454e-06
3.29468e-06
3.29481e-06
3.29493e-06
3.29503e-06
3.29512e-06
3.29521e-06
3.29528e-06
3.29535e-06
3.29541e-06
3.29547e-06
3.2955e-06
3.29557e-06
3.29949e-06
3.29835e-06
3.29786e-06
3.29762e-06
3.29746e-06
3.29734e-06
3.29723e-06
3.29712e-06
3.29701e-06
3.29689e-06
3.29676e-06
3.29661e-06
3.29645e-06
3.29631e-06
3.29617e-06
3.296e-06
3.2958e-06
3.29558e-06
3.29534e-06
3.29505e-06
3.29475e-06
3.29458e-06
3.29456e-06
3.29458e-06
3.29463e-06
3.2947e-06
3.2948e-06
3.2949e-06
3.295e-06
3.29508e-06
3.29517e-06
3.29524e-06
3.29531e-06
3.29537e-06
3.29542e-06
3.29547e-06
3.29551e-06
3.29555e-06
3.29558e-06
3.29565e-06
3.29882e-06
3.29792e-06
3.29757e-06
3.2974e-06
3.29728e-06
3.29718e-06
3.2971e-06
3.29701e-06
3.29692e-06
3.29683e-06
3.29673e-06
3.29662e-06
3.29649e-06
3.29638e-06
3.29627e-06
3.29614e-06
3.296e-06
3.29584e-06
3.29567e-06
3.29547e-06
3.29524e-06
3.29508e-06
3.29502e-06
3.29503e-06
3.29505e-06
3.29509e-06
3.29514e-06
3.29521e-06
3.29527e-06
3.29532e-06
3.29538e-06
3.29543e-06
3.29547e-06
3.29551e-06
3.29555e-06
3.29558e-06
3.29561e-06
3.29564e-06
3.29567e-06
3.29572e-06
3.2983e-06
3.29759e-06
3.29736e-06
3.29723e-06
3.29714e-06
3.29707e-06
3.297e-06
3.29693e-06
3.29686e-06
3.29679e-06
3.29671e-06
3.29662e-06
3.29653e-06
3.29643e-06
3.29634e-06
3.29625e-06
3.29615e-06
3.29604e-06
3.29592e-06
3.29577e-06
3.29559e-06
3.29547e-06
3.29539e-06
3.29539e-06
3.2954e-06
3.29542e-06
3.29544e-06
3.29548e-06
3.29552e-06
3.29555e-06
3.29558e-06
3.29561e-06
3.29564e-06
3.29567e-06
3.29569e-06
3.29572e-06
3.29573e-06
3.29575e-06
3.29577e-06
3.29582e-06
3.2979e-06
3.29736e-06
3.29721e-06
3.29711e-06
3.29704e-06
3.29698e-06
3.29692e-06
3.29687e-06
3.29681e-06
3.29675e-06
3.29669e-06
3.29663e-06
3.29656e-06
3.29649e-06
3.29641e-06
3.29634e-06
3.29627e-06
3.29619e-06
3.2961e-06
3.29597e-06
3.29585e-06
3.29576e-06
3.2957e-06
3.29568e-06
3.29569e-06
3.2957e-06
3.29571e-06
3.29572e-06
3.29574e-06
3.29577e-06
3.29578e-06
3.2958e-06
3.29582e-06
3.29583e-06
3.29585e-06
3.29586e-06
3.29586e-06
3.29588e-06
3.29589e-06
3.29593e-06
3.2976e-06
3.29721e-06
3.29711e-06
3.29703e-06
3.29696e-06
3.29691e-06
3.29686e-06
3.29682e-06
3.29678e-06
3.29673e-06
3.29669e-06
3.29664e-06
3.29659e-06
3.29653e-06
3.29647e-06
3.29642e-06
3.29636e-06
3.2963e-06
3.29624e-06
3.29615e-06
3.29606e-06
3.296e-06
3.29595e-06
3.29592e-06
3.29592e-06
3.29592e-06
3.29592e-06
3.29593e-06
3.29594e-06
3.29595e-06
3.29596e-06
3.29597e-06
3.29598e-06
3.29598e-06
3.29599e-06
3.29599e-06
3.29599e-06
3.296e-06
3.29601e-06
3.29603e-06
3.29736e-06
3.2971e-06
3.29704e-06
3.29696e-06
3.2969e-06
3.29686e-06
3.29682e-06
3.29679e-06
3.29675e-06
3.29672e-06
3.29669e-06
3.29665e-06
3.29661e-06
3.29657e-06
3.29653e-06
3.29648e-06
3.29643e-06
3.29638e-06
3.29633e-06
3.29627e-06
3.29622e-06
3.29617e-06
3.29614e-06
3.29612e-06
3.2961e-06
3.2961e-06
3.2961e-06
3.2961e-06
3.2961e-06
3.2961e-06
3.2961e-06
3.2961e-06
3.2961e-06
3.2961e-06
3.2961e-06
3.2961e-06
3.2961e-06
3.2961e-06
3.29611e-06
3.29613e-06
3.29719e-06
3.29703e-06
3.29698e-06
3.2969e-06
3.29685e-06
3.29682e-06
3.29679e-06
3.29676e-06
3.29674e-06
3.29672e-06
3.29669e-06
3.29667e-06
3.29664e-06
3.29661e-06
3.29658e-06
3.29654e-06
3.29651e-06
3.29647e-06
3.29643e-06
3.29639e-06
3.29636e-06
3.29633e-06
3.29631e-06
3.29629e-06
3.29628e-06
3.29627e-06
3.29626e-06
3.29626e-06
3.29626e-06
3.29625e-06
3.29625e-06
3.29625e-06
3.29625e-06
3.29625e-06
3.29625e-06
3.29625e-06
3.29625e-06
3.29625e-06
3.29625e-06
3.29626e-06
3.29707e-06
3.29696e-06
3.29692e-06
3.29685e-06
3.29682e-06
3.29679e-06
3.29677e-06
3.29675e-06
3.29673e-06
3.29672e-06
3.2967e-06
3.29668e-06
3.29666e-06
3.29664e-06
3.29662e-06
3.2966e-06
3.29657e-06
3.29655e-06
3.29652e-06
3.29649e-06
3.29647e-06
3.29645e-06
3.29643e-06
3.29642e-06
3.29641e-06
3.29641e-06
3.2964e-06
3.2964e-06
3.29639e-06
3.29639e-06
3.29639e-06
3.29639e-06
3.29638e-06
3.29638e-06
3.29638e-06
3.29638e-06
3.29638e-06
3.29638e-06
3.29638e-06
3.29639e-06
3.29697e-06
3.2969e-06
3.29686e-06
3.29682e-06
3.29679e-06
3.29677e-06
3.29676e-06
3.29675e-06
3.29674e-06
3.29673e-06
3.29671e-06
3.2967e-06
3.29669e-06
3.29667e-06
3.29666e-06
3.29664e-06
3.29662e-06
3.29661e-06
3.29659e-06
3.29657e-06
3.29656e-06
3.29654e-06
3.29653e-06
3.29652e-06
3.29652e-06
3.29651e-06
3.29651e-06
3.2965e-06
3.2965e-06
3.2965e-06
3.29649e-06
3.29649e-06
3.29649e-06
3.29649e-06
3.29649e-06
3.29649e-06
3.29649e-06
3.29649e-06
3.29649e-06
3.29649e-06
3.29691e-06
3.29686e-06
3.29682e-06
3.29679e-06
3.29678e-06
3.29677e-06
3.29676e-06
3.29675e-06
3.29675e-06
3.29674e-06
3.29673e-06
3.29672e-06
3.29671e-06
3.2967e-06
3.29669e-06
3.29668e-06
3.29666e-06
3.29665e-06
3.29664e-06
3.29663e-06
3.29662e-06
3.29661e-06
3.2966e-06
3.2966e-06
3.29659e-06
3.29659e-06
3.29659e-06
3.29658e-06
3.29658e-06
3.29658e-06
3.29658e-06
3.29658e-06
3.29658e-06
3.29657e-06
3.29657e-06
3.29657e-06
3.29657e-06
3.29657e-06
3.29657e-06
3.29657e-06
3.29685e-06
3.29682e-06
3.29678e-06
3.29678e-06
3.29677e-06
3.29677e-06
3.29676e-06
3.29676e-06
3.29676e-06
3.29676e-06
3.29675e-06
3.29674e-06
3.29673e-06
3.29672e-06
3.29671e-06
3.2967e-06
3.29669e-06
3.29668e-06
3.29668e-06
3.29667e-06
3.29667e-06
3.29666e-06
3.29666e-06
3.29666e-06
3.29666e-06
3.29666e-06
3.29666e-06
3.29666e-06
3.29667e-06
3.29667e-06
3.29667e-06
3.29667e-06
3.29667e-06
3.29667e-06
3.29667e-06
3.29667e-06
3.29667e-06
3.29668e-06
3.29667e-06
3.29668e-06
3.29681e-06
3.29678e-06
3.29677e-06
3.29677e-06
3.29677e-06
3.29677e-06
3.29677e-06
3.29677e-06
3.29676e-06
3.29676e-06
3.29675e-06
3.29674e-06
3.29673e-06
3.29673e-06
3.29672e-06
3.29672e-06
3.29672e-06
3.29672e-06
3.29672e-06
3.29673e-06
3.29673e-06
3.29673e-06
3.29674e-06
3.29674e-06
3.29675e-06
3.29675e-06
3.29675e-06
3.29676e-06
3.29676e-06
3.29676e-06
3.29677e-06
3.29677e-06
3.29677e-06
3.29677e-06
3.29677e-06
3.29677e-06
3.29678e-06
3.29678e-06
3.29678e-06
3.29678e-06
3.29678e-06
3.29675e-06
3.29677e-06
3.29676e-06
3.29677e-06
3.29677e-06
3.29676e-06
3.29676e-06
3.29675e-06
3.29674e-06
3.29674e-06
3.29674e-06
3.29674e-06
3.29675e-06
3.29675e-06
3.29676e-06
3.29676e-06
3.29677e-06
3.29677e-06
3.29678e-06
3.29679e-06
3.29679e-06
3.2968e-06
3.2968e-06
3.29681e-06
3.29681e-06
3.29681e-06
3.29682e-06
3.29682e-06
3.29682e-06
3.29682e-06
3.29683e-06
3.29683e-06
3.29683e-06
3.29683e-06
3.29683e-06
3.29684e-06
3.29684e-06
3.29684e-06
3.29684e-06
3.29675e-06
3.29673e-06
3.29676e-06
3.29677e-06
3.29677e-06
3.29676e-06
3.29675e-06
3.29674e-06
3.29674e-06
3.29674e-06
3.29675e-06
3.29675e-06
3.29676e-06
3.29677e-06
3.29678e-06
3.29679e-06
3.29679e-06
3.2968e-06
3.2968e-06
3.29681e-06
3.29681e-06
3.29682e-06
3.29682e-06
3.29683e-06
3.29683e-06
3.29683e-06
3.29683e-06
3.29683e-06
3.29684e-06
3.29684e-06
3.29684e-06
3.29684e-06
3.29684e-06
3.29684e-06
3.29684e-06
3.29684e-06
3.29685e-06
3.29685e-06
3.29685e-06
3.29685e-06
3.29673e-06
3.29673e-06
3.29676e-06
3.29676e-06
3.29675e-06
3.29674e-06
3.29674e-06
3.29673e-06
3.29674e-06
3.29674e-06
3.29675e-06
3.29676e-06
3.29677e-06
3.29678e-06
3.29678e-06
3.29679e-06
3.2968e-06
3.2968e-06
3.29681e-06
3.29681e-06
3.29681e-06
3.29682e-06
3.29682e-06
3.29682e-06
3.29682e-06
3.29682e-06
3.29682e-06
3.29682e-06
3.29682e-06
3.29682e-06
3.29683e-06
3.29683e-06
3.29683e-06
3.29683e-06
3.29683e-06
3.29683e-06
3.29683e-06
3.29683e-06
3.29683e-06
3.29684e-06
3.29673e-06
3.29673e-06
3.29677e-06
3.29676e-06
3.29675e-06
3.29675e-06
3.29674e-06
3.29673e-06
3.29673e-06
3.29674e-06
3.29675e-06
3.29675e-06
3.29676e-06
3.29677e-06
3.29679e-06
3.2968e-06
3.29681e-06
3.29681e-06
3.29682e-06
3.29683e-06
3.29683e-06
3.29683e-06
3.29683e-06
3.29683e-06
3.29684e-06
3.29684e-06
3.29684e-06
3.29684e-06
3.29684e-06
3.29684e-06
3.29684e-06
3.29684e-06
3.29684e-06
3.29684e-06
3.29685e-06
3.29685e-06
3.29685e-06
3.29686e-06
3.29686e-06
3.29686e-06
3.2967e-06
3.2967e-06
3.2967e-06
3.2967e-06
3.2967e-06
3.2967e-06
3.2967e-06
3.29671e-06
3.29672e-06
3.29674e-06
3.29676e-06
3.29678e-06
3.29681e-06
3.29683e-06
3.29684e-06
3.29685e-06
3.29685e-06
3.29685e-06
3.29685e-06
3.29684e-06
3.29684e-06
3.29683e-06
3.29683e-06
3.29682e-06
3.29682e-06
3.29682e-06
3.29681e-06
3.29681e-06
3.29681e-06
3.29681e-06
3.29681e-06
3.29681e-06
3.29681e-06
3.29681e-06
3.29681e-06
3.29681e-06
3.29681e-06
3.29681e-06
3.29681e-06
3.29681e-06
0.000141801
0.000115724
8.63806e-05
6.60341e-05
4.85549e-05
3.6374e-05
3.127e-05
2.96257e-05
0.000110171
7.86488e-05
0.000401155
0.000410459
0.000413511
0.000414354
0.000413957
0.000412885
0.000411727
0.000410204
0.00041461
0.000373733
0.000509948
0.000516705
0.000521067
0.000523826
0.000525355
0.000525795
0.000525178
0.000523262
0.000520109
0.000510577
0.000532119
0.000530144
0.000528544
0.000526872
0.000524857
0.000522124
0.00051805
0.000511799
0.000502252
0.000487036
0.000445531
0.00043614
0.000428611
0.000421968
0.000415604
0.000408954
0.000401246
0.000391633
0.000379199
0.000363038
0.0002435
0.000235999
0.000229586
0.000223734
0.000218038
0.000212044
0.000205373
0.000197696
0.000188656
0.000178239
5.26832e-05
5.00675e-05
4.77549e-05
4.56256e-05
4.36519e-05
4.17363e-05
3.98079e-05
3.77526e-05
3.56172e-05
3.33692e-05
7.55249e-06
7.3403e-06
7.15052e-06
6.97639e-06
6.81489e-06
6.66071e-06
6.51123e-06
6.35784e-06
6.21098e-06
6.06325e-06
3.6059e-06
3.59249e-06
3.57995e-06
3.56815e-06
3.55693e-06
3.54611e-06
3.5357e-06
3.5255e-06
3.51551e-06
3.50576e-06
3.2954e-06
3.29331e-06
3.29135e-06
3.28957e-06
3.28795e-06
3.28614e-06
3.28518e-06
3.28412e-06
3.28307e-06
3.282e-06
3.24033e-06
3.24138e-06
3.24234e-06
3.24326e-06
3.24402e-06
3.24516e-06
3.24601e-06
3.24678e-06
3.24753e-06
3.2482e-06
3.26412e-06
3.26413e-06
3.26411e-06
3.26409e-06
3.26409e-06
3.26398e-06
3.26433e-06
3.26446e-06
3.26456e-06
3.26421e-06
3.26206e-06
3.26248e-06
3.26287e-06
3.26323e-06
3.26357e-06
3.26389e-06
3.2642e-06
3.26449e-06
3.26478e-06
3.26484e-06
3.27604e-06
3.27612e-06
3.27614e-06
3.27615e-06
3.27617e-06
3.27617e-06
3.27618e-06
3.27617e-06
3.27623e-06
3.27621e-06
3.28544e-06
3.28559e-06
3.2857e-06
3.2858e-06
3.28588e-06
3.28595e-06
3.286e-06
3.286e-06
3.28609e-06
3.28605e-06
3.28944e-06
3.28953e-06
3.28955e-06
3.28957e-06
3.28958e-06
3.28959e-06
3.2896e-06
3.2896e-06
3.28961e-06
3.2896e-06
3.29382e-06
3.29391e-06
3.29392e-06
3.29394e-06
3.29395e-06
3.29396e-06
3.29397e-06
3.29397e-06
3.29398e-06
3.29399e-06
3.29479e-06
3.29486e-06
3.29492e-06
3.29494e-06
3.29496e-06
3.29498e-06
3.29499e-06
3.29501e-06
3.29506e-06
3.29511e-06
3.29518e-06
3.29525e-06
3.29529e-06
3.29532e-06
3.29534e-06
3.29536e-06
3.29538e-06
3.2954e-06
3.29545e-06
3.29551e-06
3.29524e-06
3.2953e-06
3.29535e-06
3.29539e-06
3.29544e-06
3.29548e-06
3.29552e-06
3.29555e-06
3.2956e-06
3.29565e-06
3.29551e-06
3.29556e-06
3.2956e-06
3.29563e-06
3.29567e-06
3.2957e-06
3.29573e-06
3.29576e-06
3.2958e-06
3.29584e-06
3.29556e-06
3.2956e-06
3.29563e-06
3.29566e-06
3.29569e-06
3.29572e-06
3.29575e-06
3.29577e-06
3.2958e-06
3.29584e-06
3.29565e-06
3.29568e-06
3.2957e-06
3.29573e-06
3.29575e-06
3.29577e-06
3.29579e-06
3.2958e-06
3.29582e-06
3.29587e-06
3.29571e-06
3.29573e-06
3.29575e-06
3.29577e-06
3.29578e-06
3.2958e-06
3.29581e-06
3.29583e-06
3.29585e-06
3.29587e-06
3.29577e-06
3.29579e-06
3.2958e-06
3.29581e-06
3.29582e-06
3.29583e-06
3.29584e-06
3.29585e-06
3.29586e-06
3.29587e-06
3.29585e-06
3.29586e-06
3.29587e-06
3.29587e-06
3.29588e-06
3.29589e-06
3.29589e-06
3.2959e-06
3.2959e-06
3.29591e-06
3.29595e-06
3.29595e-06
3.29596e-06
3.29596e-06
3.29597e-06
3.29597e-06
3.29597e-06
3.29597e-06
3.29598e-06
3.29599e-06
3.29605e-06
3.29605e-06
3.29606e-06
3.29606e-06
3.29606e-06
3.29606e-06
3.29606e-06
3.29606e-06
3.29606e-06
3.29607e-06
3.29614e-06
3.29614e-06
3.29614e-06
3.29614e-06
3.29614e-06
3.29614e-06
3.29614e-06
3.29614e-06
3.29614e-06
3.29615e-06
3.29627e-06
3.29627e-06
3.29627e-06
3.29627e-06
3.29627e-06
3.29627e-06
3.29627e-06
3.29627e-06
3.29627e-06
3.29627e-06
3.29639e-06
3.29639e-06
3.29639e-06
3.29639e-06
3.29639e-06
3.29639e-06
3.29639e-06
3.29639e-06
3.29639e-06
3.29639e-06
3.29649e-06
3.29649e-06
3.29649e-06
3.29649e-06
3.29649e-06
3.29649e-06
3.29649e-06
3.29649e-06
3.29649e-06
3.29649e-06
3.29657e-06
3.29657e-06
3.29657e-06
3.29657e-06
3.29657e-06
3.29657e-06
3.29657e-06
3.29657e-06
3.29657e-06
3.29657e-06
3.29668e-06
3.29668e-06
3.29668e-06
3.29668e-06
3.29668e-06
3.29668e-06
3.29668e-06
3.29668e-06
3.29668e-06
3.29668e-06
3.29678e-06
3.29678e-06
3.29678e-06
3.29678e-06
3.29678e-06
3.29678e-06
3.29678e-06
3.29678e-06
3.29678e-06
3.29678e-06
3.29684e-06
3.29684e-06
3.29684e-06
3.29684e-06
3.29684e-06
3.29684e-06
3.29684e-06
3.29684e-06
3.29684e-06
3.29684e-06
3.29685e-06
3.29685e-06
3.29685e-06
3.29685e-06
3.29685e-06
3.29685e-06
3.29685e-06
3.29685e-06
3.29685e-06
3.29685e-06
3.29684e-06
3.29684e-06
3.29684e-06
3.29684e-06
3.29684e-06
3.29684e-06
3.29684e-06
3.29684e-06
3.29684e-06
3.29684e-06
3.29686e-06
3.29686e-06
3.29687e-06
3.29687e-06
3.29687e-06
3.29687e-06
3.29687e-06
3.29687e-06
3.29687e-06
3.29687e-06
3.29681e-06
3.29681e-06
3.29681e-06
3.29681e-06
3.29681e-06
3.29681e-06
3.29681e-06
3.29681e-06
3.29681e-06
3.29681e-06
8.41624e-05
9.56776e-05
0.000105322
0.000111961
0.000114949
0.000114961
0.000114911
0.000116829
0.000117373
0.000116451
0.000115334
0.000114036
0.000112454
0.000110504
0.000108013
0.000105091
0.000103961
0.000100974
9.57563e-05
8.88488e-05
8.10988e-05
7.21084e-05
6.25031e-05
5.19866e-05
4.7572e-05
4.92064e-05
5.39109e-05
6.92217e-05
0.000110944
0.00014813
0.000148128
0.000110774
6.91304e-05
5.38971e-05
4.91995e-05
4.75846e-05
5.2025e-05
6.25606e-05
7.21528e-05
8.1138e-05
8.88787e-05
9.578e-05
0.00010099
0.000103968
0.000105098
0.000108019
0.00011051
0.00011246
0.000114042
0.00011534
0.000116456
0.000117378
0.000116832
0.000114913
0.000114963
0.000114951
0.000111962
0.000105323
9.56781e-05
8.41626e-05
0.000378837
0.000383263
0.000386529
0.000388645
0.000390063
0.000391279
0.000390709
0.000387986
0.000383495
0.00037749
0.000370366
0.000362613
0.000354557
0.000346423
0.00033858
0.000331157
0.000323888
0.000315729
0.000303927
0.000287722
0.000267821
0.000243173
0.000216896
0.000191304
0.000165947
0.000142859
0.000122955
0.000113388
0.000128829
0.000149151
0.000149138
0.000128736
0.000113369
0.000122993
0.000142916
0.000166011
0.000191368
0.000216951
0.000243219
0.00026785
0.000287721
0.000303927
0.000315711
0.000323864
0.000331133
0.000338558
0.000346404
0.000354539
0.000362596
0.000370349
0.000377473
0.000383478
0.00038797
0.000390693
0.000391263
0.000390047
0.00038863
0.000386515
0.00038325
0.000378824
0.00050892
0.000507971
0.000507502
0.000507364
0.000506939
0.000505535
0.000503282
0.000500295
0.000496665
0.000492467
0.000487491
0.00048163
0.000474889
0.000467333
0.000459071
0.000450252
0.000441022
0.000431348
0.000420822
0.000408336
0.000392101
0.000368291
0.000340277
0.000309747
0.00027967
0.000247201
0.000212693
0.000174041
0.000159931
0.000162622
0.000162622
0.000159885
0.000174089
0.000212788
0.000247305
0.000279769
0.000309849
0.000340389
0.00036839
0.000392109
0.000408316
0.000420794
0.000431317
0.000440989
0.000450219
0.000459037
0.000467298
0.000474854
0.000481594
0.000487455
0.00049243
0.000496629
0.000500259
0.000503246
0.000505501
0.000506905
0.00050733
0.000507469
0.000507939
0.000508889
0.000483
0.000481091
0.000480966
0.000481788
0.000482856
0.000484129
0.000485461
0.000486788
0.000488065
0.000489214
0.000490087
0.000490506
0.000490292
0.00048932
0.000487536
0.000484881
0.00048134
0.000476921
0.000471605
0.000465135
0.000456626
0.000443964
0.000423882
0.000391631
0.000361516
0.000332794
0.000298072
0.000250254
0.000200316
0.000180789
0.000180804
0.00020035
0.000250365
0.000298186
0.000332883
0.000361589
0.000391721
0.000423928
0.000443964
0.000456595
0.000465095
0.000471561
0.000476875
0.000481293
0.000484833
0.000487487
0.00048927
0.000490241
0.000490454
0.000490034
0.000489161
0.000488012
0.000486735
0.000485408
0.000484077
0.000482805
0.000481737
0.000480916
0.000481043
0.000482953
0.000358219
0.000356217
0.000356791
0.000358547
0.000361751
0.00036633
0.000372168
0.000379127
0.00038704
0.000395708
0.000404901
0.000414363
0.000423821
0.000433003
0.000441648
0.000449506
0.00045636
0.000462035
0.000466416
0.000469396
0.000470695
0.000469446
0.000463408
0.000448057
0.000421111
0.000390907
0.00036509
0.000322052
0.000252262
0.000205007
0.000205064
0.000252371
0.000322179
0.000365169
0.000390955
0.000421175
0.000448081
0.00046339
0.000469403
0.000470642
0.000469339
0.000466357
0.000461974
0.000456297
0.000449442
0.000441583
0.000432938
0.000423755
0.000414297
0.000404835
0.000395643
0.000386975
0.000379063
0.000372105
0.000366269
0.000361691
0.000358489
0.000356735
0.000356162
0.000358166
0.000174729
0.000173528
0.000174353
0.000177254
0.000182636
0.000190405
0.000200423
0.000212518
0.000226483
0.000242093
0.000259106
0.000277259
0.000296273
0.000315848
0.00033566
0.000355369
0.000374617
0.000393046
0.000410318
0.000426132
0.000440201
0.000452094
0.000460727
0.000463225
0.000454439
0.000430388
0.000406642
0.000379959
0.000313324
0.000236339
0.00023637
0.000313474
0.00038005
0.000406667
0.000430442
0.000454451
0.000463192
0.000460671
0.000452027
0.00044013
0.000426059
0.000410245
0.000392972
0.000374543
0.000355295
0.000335587
0.000315776
0.000296203
0.000277191
0.00025904
0.00024203
0.000226421
0.000212459
0.000200367
0.000190351
0.000182584
0.000177204
0.000174306
0.000173482
0.000174684
3.252e-05
3.22987e-05
3.26483e-05
3.44787e-05
3.7935e-05
4.32636e-05
5.07849e-05
6.08401e-05
7.37127e-05
8.95438e-05
0.000108274
0.000129645
0.000153263
0.000178681
0.000205468
0.00023323
0.000261603
0.000290222
0.000318707
0.00034665
0.000373621
0.000399146
0.000422529
0.000442136
0.000453908
0.00045049
0.000432977
0.000420752
0.000368825
0.000271072
0.000271209
0.000368952
0.000420726
0.000432957
0.000450495
0.000453868
0.000442068
0.00042245
0.000399064
0.000373538
0.000346568
0.000318627
0.000290145
0.000261527
0.000233158
0.000205399
0.000178615
0.000153201
0.000129588
0.000108223
8.94988e-05
7.36739e-05
6.08071e-05
5.07572e-05
4.32403e-05
3.79151e-05
3.44613e-05
3.26326e-05
3.22841e-05
3.25057e-05
5.99907e-06
5.98346e-06
6.05644e-06
6.3352e-06
6.86364e-06
7.72466e-06
9.05636e-06
1.108e-05
1.41344e-05
1.87159e-05
2.55095e-05
3.53568e-05
4.91133e-05
6.73899e-05
9.02899e-05
0.000117341
0.000147697
0.000180456
0.000214866
0.000250353
0.00028645
0.000322696
0.000358524
0.000392927
0.000423303
0.000442854
0.000441732
0.000433046
0.000409279
0.00030811
0.000308261
0.000409404
0.000433085
0.000441733
0.000442811
0.000423226
0.000392839
0.000358434
0.000322607
0.000286365
0.000250272
0.000214789
0.000180384
0.000147631
0.000117282
9.02399e-05