/*--------------------------------*- C++ -*----------------------------------*\
  =========                 |
  \\      /  F ield         | OpenFOAM: The Open Source CFD Toolbox
   \\    /   O peration     | Website:  https://openfoam.org
    \\  /    A nd           | Version:  10
     \\/     M anipulation  |
\*---------------------------------------------------------------------------*/
FoamFile
{
    format      ascii;
    class       volScalarField;
    location    "207";
    object      nut;
}
// * * * * * * * * * * * * * * * * * * * * * * * * * * * * * * * * * * * * * //

dimensions      [0 2 -1 0 0 0 0];

internalField   nonuniform List<scalar> 
6580
(
1.72933e-06
4.50606e-06
4.93889e-06
3.92442e-06
4.86821e-06
8.035e-06
1.59933e-05
3.71381e-05
7.88956e-05
0.000114047
0.000128428
0.000128346
0.000122128
0.000114701
0.000107004
9.85706e-05
8.82885e-05
8.12617e-05
7.68245e-05
6.99429e-05
6.49079e-05
6.23564e-05
6.11918e-05
6.058e-05
6.0426e-05
6.06452e-05
6.1034e-05
6.14566e-05
6.18374e-05
6.22877e-05
6.29768e-05
6.39278e-05
6.5148e-05
6.66973e-05
6.87069e-05
7.12621e-05
7.47145e-05
7.90586e-05
8.58321e-05
9.98192e-05
2.35471e-06
2.5751e-06
2.34368e-06
2.46036e-06
2.73602e-06
3.26339e-06
4.33366e-06
6.83249e-06
9.69434e-06
1.16293e-05
1.42188e-05
1.64387e-05
1.76285e-05
2.54502e-05
3.9486e-05
6.76482e-05
0.000114173
0.000157936
0.000192593
0.000219355
0.000238688
0.000253483
0.00026625
0.000277139
0.000286373
0.000294244
0.000300989
0.000306717
0.000311359
0.000315019
0.000317975
0.000320415
0.000322414
0.000324011
0.000325235
0.000326068
0.000326483
0.000326258
0.000324691
0.000323779
2.73996e-06
2.69422e-06
2.66952e-06
2.63403e-06
2.58873e-06
2.66595e-06
2.77744e-06
2.95372e-06
3.2744e-06
3.67719e-06
4.07019e-06
4.26028e-06
5.01755e-06
6.53585e-06
1.00029e-05
1.8292e-05
3.96363e-05
8.17396e-05
0.000138116
0.000195516
0.00024258
0.00027749
0.000304502
0.000326108
0.000343784
0.000358556
0.000371043
0.000381597
0.000390595
0.000398255
0.0004048
0.000410422
0.000415236
0.000419325
0.000422761
0.000425565
0.000427682
0.00042904
0.000428957
0.000428369
2.84809e-06
2.80123e-06
2.82309e-06
2.84136e-06
2.83545e-06
2.83669e-06
2.85308e-06
2.89026e-06
2.95102e-06
3.03846e-06
3.1589e-06
3.30203e-06
3.49606e-06
3.62988e-06
3.77023e-06
4.54877e-06
6.62424e-06
1.27507e-05
3.08836e-05
7.23697e-05
0.000127746
0.000178072
0.000220656
0.000256341
0.000286293
0.000311822
0.000333227
0.000351713
0.000367807
0.000381938
0.000394467
0.000405646
0.000415623
0.000424526
0.000432463
0.000439523
0.00044573
0.000451139
0.000455546
0.000459028
2.8885e-06
2.83604e-06
2.83527e-06
2.84036e-06
2.82645e-06
2.79496e-06
2.76577e-06
2.7551e-06
2.76473e-06
2.78449e-06
2.81236e-06
2.8508e-06
2.89634e-06
2.96929e-06
3.02783e-06
3.0597e-06
3.23282e-06
3.56193e-06
4.4095e-06
7.37798e-06
1.55378e-05
3.22028e-05
5.7567e-05
8.82719e-05
0.000119896
0.000150895
0.000179579
0.000205808
0.000229617
0.000251249
0.000270981
0.000288975
0.000305448
0.000320607
0.000334673
0.000347802
0.0003601
0.000371716
0.000382752
0.000392813
2.88749e-06
2.84761e-06
2.84005e-06
2.84322e-06
2.84813e-06
2.84717e-06
2.83852e-06
2.82365e-06
2.81761e-06
2.81791e-06
2.82454e-06
2.83793e-06
2.85726e-06
2.88289e-06
2.91375e-06
2.94576e-06
2.98681e-06
3.04101e-06
3.12721e-06
3.31337e-06
3.70617e-06
4.36482e-06
5.43239e-06
7.14785e-06
9.87408e-06
1.41006e-05
2.03512e-05
2.90632e-05
4.03225e-05
5.38845e-05
6.90486e-05
8.50637e-05
0.000101401
0.000117781
0.000134303
0.000150897
0.000167502
0.00018413
0.000200747
0.000216604
2.88223e-06
2.85216e-06
2.83754e-06
2.83913e-06
2.84263e-06
2.84392e-06
2.83792e-06
2.82145e-06
2.80402e-06
2.78577e-06
2.76722e-06
2.74943e-06
2.73339e-06
2.71939e-06
2.73462e-06
2.72026e-06
2.72997e-06
2.73602e-06
2.73192e-06
2.7181e-06
2.71241e-06
2.71571e-06
2.73075e-06
2.76579e-06
2.8354e-06
2.95979e-06
3.16417e-06
3.47764e-06
3.95267e-06
4.63323e-06
5.5941e-06
6.92522e-06
8.72151e-06
1.1108e-05
1.4254e-05
1.83768e-05
2.36731e-05
3.03234e-05
3.85092e-05
4.77782e-05
2.87634e-06
2.8539e-06
2.84128e-06
2.83878e-06
2.84003e-06
2.84243e-06
2.84265e-06
2.83974e-06
2.82905e-06
2.81604e-06
2.80321e-06
2.79819e-06
2.7963e-06
2.7968e-06
2.7998e-06
2.81612e-06
2.82916e-06
2.83614e-06
2.84457e-06
2.85455e-06
2.86435e-06
2.87256e-06
2.87965e-06
2.88652e-06
2.89386e-06
2.90197e-06
2.91245e-06
2.92882e-06
2.95446e-06
2.99691e-06
3.062e-06
3.15746e-06
3.29072e-06
3.47114e-06
3.71427e-06
4.03987e-06
4.46972e-06
5.03293e-06
5.76907e-06
6.68031e-06
2.87055e-06
2.85426e-06
2.84248e-06
2.83668e-06
2.83651e-06
2.83763e-06
2.83838e-06
2.83713e-06
2.83117e-06
2.82255e-06
2.81349e-06
2.80389e-06
2.79369e-06
2.78291e-06
2.77192e-06
2.76177e-06
2.75239e-06
2.74322e-06
2.7331e-06
2.72226e-06
2.71239e-06
2.70439e-06
2.69773e-06
2.69184e-06
2.6863e-06
2.68148e-06
2.67861e-06
2.67768e-06
2.67855e-06
2.68161e-06
2.69124e-06
2.70499e-06
2.72262e-06
2.74513e-06
2.7719e-06
2.80855e-06
2.85738e-06
2.92128e-06
3.00352e-06
3.10327e-06
2.86506e-06
2.85166e-06
2.84202e-06
2.8364e-06
2.8347e-06
2.83476e-06
2.83568e-06
2.83594e-06
2.83459e-06
2.83131e-06
2.82413e-06
2.81724e-06
2.81018e-06
2.8028e-06
2.79509e-06
2.78723e-06
2.78556e-06
2.78585e-06
2.7877e-06
2.79034e-06
2.79357e-06
2.79667e-06
2.79929e-06
2.80156e-06
2.80372e-06
2.80589e-06
2.80706e-06
2.80769e-06
2.80704e-06
2.80664e-06
2.80682e-06
2.80703e-06
2.80704e-06
2.80683e-06
2.80652e-06
2.80704e-06
2.80894e-06
2.81266e-06
2.81873e-06
2.82657e-06
2.85993e-06
2.84842e-06
2.8409e-06
2.83632e-06
2.83307e-06
2.83272e-06
2.83289e-06
2.83332e-06
2.83292e-06
2.83122e-06
2.82575e-06
2.82044e-06
2.81541e-06
2.81016e-06
2.80462e-06
2.79875e-06
2.79265e-06
2.78647e-06
2.78047e-06
2.77506e-06
2.77066e-06
2.76727e-06
2.76433e-06
2.7616e-06
2.75901e-06
2.75651e-06
2.75431e-06
2.7527e-06
2.75289e-06
2.75445e-06
2.75663e-06
2.75919e-06
2.76195e-06
2.76484e-06
2.76757e-06
2.76995e-06
2.77188e-06
2.77348e-06
2.77509e-06
2.77665e-06
2.85521e-06
2.84528e-06
2.83962e-06
2.83581e-06
2.83295e-06
2.83169e-06
2.83117e-06
2.83124e-06
2.83123e-06
2.83053e-06
2.82884e-06
2.82448e-06
2.82035e-06
2.81639e-06
2.81246e-06
2.80838e-06
2.80414e-06
2.79981e-06
2.79545e-06
2.79136e-06
2.79231e-06
2.7938e-06
2.79508e-06
2.79612e-06
2.79702e-06
2.79776e-06
2.79874e-06
2.79827e-06
2.79799e-06
2.79804e-06
2.79824e-06
2.79851e-06
2.79883e-06
2.79919e-06
2.79956e-06
2.79975e-06
2.79967e-06
2.79931e-06
2.79888e-06
2.79804e-06
2.85091e-06
2.84239e-06
2.8384e-06
2.83493e-06
2.83253e-06
2.8306e-06
2.82986e-06
2.82961e-06
2.82964e-06
2.82937e-06
2.82849e-06
2.82672e-06
2.82323e-06
2.81997e-06
2.81685e-06
2.81387e-06
2.81087e-06
2.8078e-06
2.80464e-06
2.80146e-06
2.79895e-06
2.79831e-06
2.79767e-06
2.79659e-06
2.79555e-06
2.7946e-06
2.7938e-06
2.79302e-06
2.79274e-06
2.79297e-06
2.79331e-06
2.79369e-06
2.7941e-06
2.79451e-06
2.79491e-06
2.79528e-06
2.7956e-06
2.79587e-06
2.79614e-06
2.79598e-06
2.84704e-06
2.83979e-06
2.83665e-06
2.83375e-06
2.83184e-06
2.83031e-06
2.82904e-06
2.8287e-06
2.82853e-06
2.82842e-06
2.82798e-06
2.82704e-06
2.82529e-06
2.82247e-06
2.81989e-06
2.81746e-06
2.81521e-06
2.81304e-06
2.81089e-06
2.80868e-06
2.80697e-06
2.80765e-06
2.80836e-06
2.80897e-06
2.80949e-06
2.80996e-06
2.81037e-06
2.81071e-06
2.81095e-06
2.81109e-06
2.81111e-06
2.81103e-06
2.81085e-06
2.81055e-06
2.81011e-06
2.80969e-06
2.80929e-06
2.80891e-06
2.80856e-06
2.80823e-06
2.8436e-06
2.8375e-06
2.83491e-06
2.83256e-06
2.83105e-06
2.82987e-06
2.82882e-06
2.82823e-06
2.82787e-06
2.82765e-06
2.82737e-06
2.82682e-06
2.82587e-06
2.82354e-06
2.8214e-06
2.81947e-06
2.81769e-06
2.81609e-06
2.81467e-06
2.81327e-06
2.81214e-06
2.81269e-06
2.81336e-06
2.81391e-06
2.81435e-06
2.81472e-06
2.81503e-06
2.81534e-06
2.81559e-06
2.81582e-06
2.81601e-06
2.81618e-06
2.81632e-06
2.81642e-06
2.8165e-06
2.81655e-06
2.81658e-06
2.81658e-06
2.81659e-06
2.8164e-06
2.8406e-06
2.83549e-06
2.83335e-06
2.83146e-06
2.83026e-06
2.82936e-06
2.82856e-06
2.82778e-06
2.82739e-06
2.82711e-06
2.82689e-06
2.82652e-06
2.82594e-06
2.82501e-06
2.8231e-06
2.82145e-06
2.81998e-06
2.81882e-06
2.81863e-06
2.81782e-06
2.81697e-06
2.81742e-06
2.81802e-06
2.81856e-06
2.81901e-06
2.81938e-06
2.81971e-06
2.81999e-06
2.82022e-06
2.82039e-06
2.82048e-06
2.82044e-06
2.82037e-06
2.8203e-06
2.82023e-06
2.82016e-06
2.82009e-06
2.82001e-06
2.81994e-06
2.81992e-06
2.83799e-06
2.83375e-06
2.83199e-06
2.83049e-06
2.82954e-06
2.82884e-06
2.82824e-06
2.82766e-06
2.82705e-06
2.8268e-06
2.82656e-06
2.82633e-06
2.82593e-06
2.82535e-06
2.82446e-06
2.82294e-06
2.82167e-06
2.82058e-06
2.82039e-06
2.82034e-06
2.81968e-06
2.81997e-06
2.82045e-06
2.82098e-06
2.82142e-06
2.8218e-06
2.82213e-06
2.82244e-06
2.82271e-06
2.82294e-06
2.82313e-06
2.82329e-06
2.82343e-06
2.82353e-06
2.82362e-06
2.82369e-06
2.82374e-06
2.82378e-06
2.82382e-06
2.82377e-06
2.83577e-06
2.83228e-06
2.83083e-06
2.82963e-06
2.82889e-06
2.82835e-06
2.8279e-06
2.82746e-06
2.827e-06
2.82669e-06
2.82644e-06
2.82621e-06
2.82592e-06
2.82551e-06
2.82496e-06
2.82415e-06
2.82297e-06
2.82199e-06
2.82162e-06
2.82149e-06
2.82096e-06
2.82109e-06
2.82147e-06
2.82193e-06
2.82238e-06
2.82276e-06
2.82309e-06
2.82339e-06
2.82366e-06
2.8239e-06
2.82411e-06
2.82428e-06
2.82442e-06
2.82453e-06
2.8246e-06
2.82462e-06
2.82464e-06
2.82465e-06
2.82467e-06
2.82467e-06
2.83388e-06
2.83104e-06
2.82986e-06
2.82891e-06
2.82834e-06
2.82792e-06
2.82758e-06
2.82726e-06
2.82692e-06
2.82655e-06
2.82633e-06
2.82611e-06
2.8259e-06
2.8256e-06
2.82521e-06
2.8247e-06
2.8239e-06
2.82301e-06
2.82248e-06
2.82227e-06
2.82184e-06
2.82173e-06
2.82197e-06
2.82232e-06
2.8227e-06
2.82305e-06
2.82334e-06
2.8236e-06
2.82383e-06
2.82404e-06
2.82422e-06
2.82438e-06
2.82452e-06
2.82465e-06
2.82475e-06
2.82484e-06
2.82492e-06
2.82499e-06
2.82506e-06
2.82507e-06
2.83232e-06
2.83002e-06
2.82904e-06
2.82831e-06
2.82787e-06
2.82756e-06
2.82731e-06
2.82706e-06
2.82681e-06
2.82654e-06
2.82626e-06
2.8261e-06
2.82592e-06
2.8257e-06
2.82542e-06
2.82507e-06
2.82462e-06
2.82387e-06
2.82323e-06
2.82273e-06
2.82239e-06
2.82236e-06
2.82251e-06
2.82276e-06
2.82308e-06
2.82339e-06
2.82365e-06
2.82389e-06
2.82409e-06
2.82428e-06
2.82444e-06
2.82458e-06
2.8247e-06
2.82481e-06
2.8249e-06
2.82498e-06
2.82505e-06
2.8251e-06
2.82513e-06
2.82517e-06
2.83106e-06
2.82919e-06
2.82838e-06
2.82783e-06
2.8275e-06
2.82727e-06
2.82708e-06
2.8269e-06
2.82671e-06
2.82651e-06
2.82629e-06
2.82613e-06
2.82598e-06
2.82581e-06
2.8256e-06
2.82535e-06
2.82504e-06
2.82465e-06
2.82408e-06
2.82363e-06
2.82332e-06
2.82322e-06
2.8233e-06
2.82345e-06
2.82366e-06
2.8239e-06
2.82412e-06
2.82431e-06
2.82448e-06
2.82463e-06
2.82476e-06
2.82488e-06
2.82498e-06
2.82507e-06
2.82515e-06
2.82522e-06
2.82528e-06
2.82534e-06
2.82538e-06
2.82544e-06
2.83003e-06
2.82852e-06
2.82785e-06
2.82745e-06
2.82721e-06
2.82704e-06
2.8269e-06
2.82677e-06
2.82663e-06
2.82648e-06
2.82631e-06
2.82613e-06
2.82601e-06
2.82588e-06
2.82573e-06
2.82554e-06
2.82532e-06
2.82506e-06
2.82475e-06
2.82433e-06
2.82405e-06
2.8239e-06
2.82393e-06
2.82402e-06
2.82414e-06
2.82431e-06
2.82447e-06
2.82462e-06
2.82475e-06
2.82487e-06
2.82497e-06
2.82506e-06
2.82515e-06
2.82522e-06
2.82528e-06
2.82534e-06
2.82539e-06
2.82543e-06
2.82545e-06
2.82551e-06
2.8292e-06
2.828e-06
2.82744e-06
2.82717e-06
2.827e-06
2.82688e-06
2.82677e-06
2.82667e-06
2.82656e-06
2.82645e-06
2.82632e-06
2.82619e-06
2.82608e-06
2.82597e-06
2.82585e-06
2.82572e-06
2.82555e-06
2.82537e-06
2.82516e-06
2.82483e-06
2.82458e-06
2.82445e-06
2.82447e-06
2.82451e-06
2.82458e-06
2.82468e-06
2.8248e-06
2.8249e-06
2.825e-06
2.82509e-06
2.82517e-06
2.82524e-06
2.8253e-06
2.82536e-06
2.8254e-06
2.82545e-06
2.82549e-06
2.82553e-06
2.82554e-06
2.8256e-06
2.82855e-06
2.82758e-06
2.82717e-06
2.82697e-06
2.82685e-06
2.82675e-06
2.82667e-06
2.82659e-06
2.82651e-06
2.82642e-06
2.82633e-06
2.82623e-06
2.82611e-06
2.82603e-06
2.82594e-06
2.82584e-06
2.82573e-06
2.82559e-06
2.82544e-06
2.82526e-06
2.82504e-06
2.82491e-06
2.8249e-06
2.82492e-06
2.82496e-06
2.82501e-06
2.82508e-06
2.82515e-06
2.82521e-06
2.82527e-06
2.82533e-06
2.82538e-06
2.82542e-06
2.82546e-06
2.82549e-06
2.82553e-06
2.82555e-06
2.82558e-06
2.8256e-06
2.82565e-06
2.82803e-06
2.82726e-06
2.82697e-06
2.82683e-06
2.82674e-06
2.82666e-06
2.8266e-06
2.82653e-06
2.82647e-06
2.8264e-06
2.82633e-06
2.82625e-06
2.82617e-06
2.82609e-06
2.82603e-06
2.82595e-06
2.82586e-06
2.82577e-06
2.82566e-06
2.82553e-06
2.82537e-06
2.82525e-06
2.82521e-06
2.82522e-06
2.82524e-06
2.82526e-06
2.8253e-06
2.82534e-06
2.82539e-06
2.82543e-06
2.82546e-06
2.82549e-06
2.82552e-06
2.82555e-06
2.82558e-06
2.8256e-06
2.82562e-06
2.82564e-06
2.82565e-06
2.8257e-06
2.82763e-06
2.82702e-06
2.82683e-06
2.82673e-06
2.82665e-06
2.8266e-06
2.82654e-06
2.82649e-06
2.82644e-06
2.82639e-06
2.82634e-06
2.82628e-06
2.82621e-06
2.82614e-06
2.82609e-06
2.82603e-06
2.82597e-06
2.8259e-06
2.82583e-06
2.82573e-06
2.8256e-06
2.82552e-06
2.82546e-06
2.82546e-06
2.82547e-06
2.82548e-06
2.8255e-06
2.82552e-06
2.82555e-06
2.82557e-06
2.82559e-06
2.82562e-06
2.82563e-06
2.82565e-06
2.82567e-06
2.82568e-06
2.82569e-06
2.8257e-06
2.82572e-06
2.82575e-06
2.82732e-06
2.82686e-06
2.82673e-06
2.82665e-06
2.8266e-06
2.82655e-06
2.82651e-06
2.82646e-06
2.82642e-06
2.82638e-06
2.82634e-06
2.8263e-06
2.82625e-06
2.8262e-06
2.82614e-06
2.8261e-06
2.82606e-06
2.82601e-06
2.82595e-06
2.82586e-06
2.82578e-06
2.82571e-06
2.82567e-06
2.82566e-06
2.82566e-06
2.82567e-06
2.82567e-06
2.82569e-06
2.8257e-06
2.82572e-06
2.82573e-06
2.82574e-06
2.82575e-06
2.82576e-06
2.82577e-06
2.82578e-06
2.82578e-06
2.82579e-06
2.8258e-06
2.82582e-06
2.82708e-06
2.82675e-06
2.82667e-06
2.8266e-06
2.82655e-06
2.82651e-06
2.82648e-06
2.82644e-06
2.82641e-06
2.82638e-06
2.82635e-06
2.82631e-06
2.82628e-06
2.82624e-06
2.8262e-06
2.82616e-06
2.82613e-06
2.82609e-06
2.82605e-06
2.82598e-06
2.82592e-06
2.82588e-06
2.82584e-06
2.82582e-06
2.82582e-06
2.82582e-06
2.82582e-06
2.82583e-06
2.82583e-06
2.82584e-06
2.82585e-06
2.82585e-06
2.82586e-06
2.82586e-06
2.82586e-06
2.82586e-06
2.82586e-06
2.82587e-06
2.82588e-06
2.8259e-06
2.8269e-06
2.82668e-06
2.82663e-06
2.82656e-06
2.82652e-06
2.82648e-06
2.82645e-06
2.82643e-06
2.8264e-06
2.82638e-06
2.82636e-06
2.82633e-06
2.8263e-06
2.82628e-06
2.82625e-06
2.82621e-06
2.82618e-06
2.82614e-06
2.82611e-06
2.82607e-06
2.82603e-06
2.826e-06
2.82598e-06
2.82596e-06
2.82595e-06
2.82594e-06
2.82594e-06
2.82594e-06
2.82594e-06
2.82594e-06
2.82594e-06
2.82594e-06
2.82594e-06
2.82594e-06
2.82594e-06
2.82594e-06
2.82594e-06
2.82594e-06
2.82595e-06
2.82596e-06
2.82677e-06
2.82663e-06
2.82659e-06
2.82653e-06
2.82649e-06
2.82646e-06
2.82644e-06
2.82642e-06
2.8264e-06
2.82638e-06
2.82637e-06
2.82635e-06
2.82633e-06
2.82631e-06
2.82629e-06
2.82626e-06
2.82624e-06
2.82621e-06
2.82619e-06
2.82616e-06
2.82614e-06
2.82612e-06
2.8261e-06
2.82609e-06
2.82608e-06
2.82607e-06
2.82607e-06
2.82606e-06
2.82606e-06
2.82606e-06
2.82606e-06
2.82605e-06
2.82605e-06
2.82605e-06
2.82605e-06
2.82605e-06
2.82605e-06
2.82605e-06
2.82605e-06
2.82606e-06
2.82667e-06
2.82658e-06
2.82655e-06
2.82649e-06
2.82646e-06
2.82644e-06
2.82643e-06
2.82642e-06
2.8264e-06
2.82639e-06
2.82638e-06
2.82637e-06
2.82635e-06
2.82634e-06
2.82632e-06
2.82631e-06
2.82629e-06
2.82627e-06
2.82625e-06
2.82623e-06
2.82622e-06
2.8262e-06
2.82619e-06
2.82619e-06
2.82618e-06
2.82617e-06
2.82617e-06
2.82617e-06
2.82616e-06
2.82616e-06
2.82616e-06
2.82616e-06
2.82615e-06
2.82615e-06
2.82615e-06
2.82615e-06
2.82615e-06
2.82615e-06
2.82615e-06
2.82616e-06
2.8266e-06
2.82654e-06
2.82651e-06
2.82647e-06
2.82645e-06
2.82644e-06
2.82643e-06
2.82642e-06
2.82641e-06
2.8264e-06
2.82639e-06
2.82639e-06
2.82638e-06
2.82637e-06
2.82636e-06
2.82634e-06
2.82633e-06
2.82632e-06
2.82631e-06
2.82629e-06
2.82628e-06
2.82628e-06
2.82627e-06
2.82626e-06
2.82626e-06
2.82625e-06
2.82625e-06
2.82625e-06
2.82624e-06
2.82624e-06
2.82624e-06
2.82624e-06
2.82624e-06
2.82623e-06
2.82623e-06
2.82623e-06
2.82623e-06
2.82623e-06
2.82623e-06
2.82623e-06
2.82655e-06
2.82651e-06
2.82647e-06
2.82645e-06
2.82644e-06
2.82643e-06
2.82643e-06
2.82643e-06
2.82642e-06
2.82642e-06
2.82641e-06
2.82641e-06
2.8264e-06
2.82639e-06
2.82638e-06
2.82637e-06
2.82636e-06
2.82636e-06
2.82635e-06
2.82634e-06
2.82633e-06
2.82633e-06
2.82632e-06
2.82632e-06
2.82631e-06
2.82631e-06
2.82631e-06
2.82631e-06
2.82631e-06
2.8263e-06
2.8263e-06
2.8263e-06
2.8263e-06
2.8263e-06
2.8263e-06
2.8263e-06
2.8263e-06
2.8263e-06
2.8263e-06
2.8263e-06
2.82651e-06
2.82648e-06
2.82645e-06
2.82645e-06
2.82644e-06
2.82644e-06
2.82644e-06
2.82644e-06
2.82644e-06
2.82644e-06
2.82643e-06
2.82643e-06
2.82642e-06
2.82641e-06
2.8264e-06
2.82639e-06
2.82639e-06
2.82638e-06
2.82638e-06
2.82637e-06
2.82637e-06
2.82637e-06
2.82637e-06
2.82637e-06
2.82637e-06
2.82637e-06
2.82637e-06
2.82637e-06
2.82637e-06
2.82638e-06
2.82638e-06
2.82638e-06
2.82638e-06
2.82638e-06
2.82638e-06
2.82638e-06
2.82638e-06
2.82638e-06
2.82638e-06
2.82638e-06
2.82648e-06
2.82645e-06
2.82644e-06
2.82644e-06
2.82644e-06
2.82645e-06
2.82645e-06
2.82644e-06
2.82644e-06
2.82643e-06
2.82643e-06
2.82642e-06
2.82642e-06
2.82641e-06
2.82641e-06
2.82641e-06
2.82641e-06
2.82641e-06
2.82641e-06
2.82642e-06
2.82642e-06
2.82643e-06
2.82643e-06
2.82644e-06
2.82644e-06
2.82644e-06
2.82645e-06
2.82645e-06
2.82645e-06
2.82645e-06
2.82646e-06
2.82646e-06
2.82646e-06
2.82646e-06
2.82646e-06
2.82646e-06
2.82646e-06
2.82647e-06
2.82647e-06
2.82647e-06
2.82645e-06
2.82643e-06
2.82644e-06
2.82644e-06
2.82645e-06
2.82645e-06
2.82644e-06
2.82644e-06
2.82643e-06
2.82642e-06
2.82642e-06
2.82642e-06
2.82643e-06
2.82643e-06
2.82644e-06
2.82644e-06
2.82645e-06
2.82645e-06
2.82646e-06
2.82646e-06
2.82647e-06
2.82647e-06
2.82648e-06
2.82648e-06
2.82649e-06
2.82649e-06
2.82649e-06
2.8265e-06
2.8265e-06
2.8265e-06
2.8265e-06
2.82651e-06
2.82651e-06
2.82651e-06
2.82651e-06
2.82651e-06
2.82651e-06
2.82652e-06
2.82652e-06
2.82652e-06
2.82643e-06
2.82641e-06
2.82644e-06
2.82644e-06
2.82644e-06
2.82644e-06
2.82643e-06
2.82642e-06
2.82642e-06
2.82642e-06
2.82643e-06
2.82644e-06
2.82644e-06
2.82645e-06
2.82646e-06
2.82646e-06
2.82647e-06
2.82648e-06
2.82648e-06
2.82649e-06
2.82649e-06
2.8265e-06
2.8265e-06
2.8265e-06
2.8265e-06
2.82651e-06
2.82651e-06
2.82651e-06
2.82651e-06
2.82651e-06
2.82651e-06
2.82651e-06
2.82652e-06
2.82652e-06
2.82652e-06
2.82652e-06
2.82652e-06
2.82652e-06
2.82652e-06
2.82652e-06
2.82641e-06
2.82641e-06
2.82644e-06
2.82644e-06
2.82643e-06
2.82643e-06
2.82642e-06
2.82642e-06
2.82642e-06
2.82643e-06
2.82643e-06
2.82644e-06
2.82645e-06
2.82646e-06
2.82646e-06
2.82647e-06
2.82648e-06
2.82648e-06
2.82648e-06
2.82649e-06
2.82649e-06
2.82649e-06
2.82649e-06
2.8265e-06
2.8265e-06
2.8265e-06
2.8265e-06
2.8265e-06
2.8265e-06
2.8265e-06
2.8265e-06
2.8265e-06
2.8265e-06
2.8265e-06
2.8265e-06
2.8265e-06
2.8265e-06
2.82651e-06
2.82651e-06
2.82651e-06
2.82641e-06
2.82641e-06
2.82644e-06
2.82644e-06
2.82643e-06
2.82643e-06
2.82642e-06
2.82641e-06
2.82642e-06
2.82642e-06
2.82643e-06
2.82644e-06
2.82644e-06
2.82645e-06
2.82646e-06
2.82647e-06
2.82648e-06
2.82649e-06
2.82649e-06
2.8265e-06
2.8265e-06
2.8265e-06
2.82651e-06
2.82651e-06
2.82651e-06
2.82651e-06
2.82651e-06
2.82651e-06
2.82651e-06
2.82651e-06
2.82651e-06
2.82651e-06
2.82651e-06
2.82652e-06
2.82652e-06
2.82652e-06
2.82652e-06
2.82653e-06
2.82653e-06
2.82653e-06
2.82639e-06
2.82639e-06
2.82639e-06
2.82639e-06
2.82639e-06
2.82639e-06
2.82639e-06
2.82639e-06
2.82641e-06
2.82642e-06
2.82644e-06
2.82646e-06
2.82648e-06
2.8265e-06
2.82651e-06
2.82652e-06
2.82652e-06
2.82652e-06
2.82652e-06
2.82651e-06
2.82651e-06
2.8265e-06
2.8265e-06
2.8265e-06
2.82649e-06
2.82649e-06
2.82649e-06
2.82649e-06
2.82648e-06
2.82648e-06
2.82648e-06
2.82649e-06
2.82649e-06
2.82649e-06
2.82649e-06
2.82649e-06
2.82648e-06
2.82648e-06
2.82648e-06
2.82649e-06
0.000121547
9.9205e-05
7.40579e-05
5.66168e-05
4.16321e-05
3.11895e-05
2.68148e-05
2.54066e-05
9.44941e-05
6.74587e-05
0.000343879
0.000351887
0.000354537
0.000355276
0.000354949
0.000354046
0.000353075
0.000351792
0.000355613
0.000320585
0.000437163
0.000442981
0.000446757
0.000449144
0.000450471
0.000450869
0.000450366
0.00044875
0.000446084
0.000437943
0.000456183
0.000454507
0.000453164
0.000451749
0.000450036
0.000447711
0.000444239
0.0004389
0.000430734
0.000417702
0.000381947
0.000373903
0.000367464
0.00036178
0.000356333
0.000350642
0.000344044
0.000335812
0.000325158
0.000311303
0.000208729
0.000202302
0.000196809
0.000191798
0.000186918
0.000181784
0.000176069
0.00016949
0.000161741
0.00015281
4.51572e-05
4.29154e-05
4.09339e-05
3.91094e-05
3.74183e-05
3.57768e-05
3.41244e-05
3.23629e-05
3.05325e-05
2.86052e-05
6.47365e-06
6.29179e-06
6.12917e-06
5.97998e-06
5.84162e-06
5.70952e-06
5.58143e-06
5.44997e-06
5.32406e-06
5.19736e-06
3.09091e-06
3.07941e-06
3.06867e-06
3.05856e-06
3.04896e-06
3.03969e-06
3.03078e-06
3.02203e-06
3.01344e-06
3.00505e-06
2.82482e-06
2.82302e-06
2.82133e-06
2.8198e-06
2.81841e-06
2.81685e-06
2.81602e-06
2.8151e-06
2.81418e-06
2.81322e-06
2.77767e-06
2.77856e-06
2.77937e-06
2.78015e-06
2.78079e-06
2.78174e-06
2.78246e-06
2.7831e-06
2.78372e-06
2.78427e-06
2.79812e-06
2.79811e-06
2.79808e-06
2.79804e-06
2.79803e-06
2.79791e-06
2.79819e-06
2.79828e-06
2.79834e-06
2.79802e-06
2.79642e-06
2.79677e-06
2.79707e-06
2.79736e-06
2.79763e-06
2.79789e-06
2.79813e-06
2.79836e-06
2.79859e-06
2.79863e-06
2.80846e-06
2.80851e-06
2.8085e-06
2.8085e-06
2.80849e-06
2.80847e-06
2.80846e-06
2.80844e-06
2.80847e-06
2.80843e-06
2.81659e-06
2.8167e-06
2.81678e-06
2.81684e-06
2.81689e-06
2.81693e-06
2.81696e-06
2.81694e-06
2.817e-06
2.81694e-06
2.82007e-06
2.82013e-06
2.82013e-06
2.82013e-06
2.82013e-06
2.82012e-06
2.82011e-06
2.8201e-06
2.82009e-06
2.82007e-06
2.8239e-06
2.82396e-06
2.82396e-06
2.82395e-06
2.82395e-06
2.82394e-06
2.82393e-06
2.82392e-06
2.82392e-06
2.82391e-06
2.82478e-06
2.82483e-06
2.82487e-06
2.82487e-06
2.82488e-06
2.82488e-06
2.82488e-06
2.82488e-06
2.82492e-06
2.82494e-06
2.82517e-06
2.82522e-06
2.82525e-06
2.82526e-06
2.82527e-06
2.82528e-06
2.82528e-06
2.82529e-06
2.82532e-06
2.82536e-06
2.82527e-06
2.82531e-06
2.82534e-06
2.82537e-06
2.82539e-06
2.82542e-06
2.82545e-06
2.82547e-06
2.8255e-06
2.82553e-06
2.82552e-06
2.82556e-06
2.82558e-06
2.82561e-06
2.82563e-06
2.82565e-06
2.82567e-06
2.82569e-06
2.82572e-06
2.82575e-06
2.82558e-06
2.82561e-06
2.82563e-06
2.82565e-06
2.82567e-06
2.82569e-06
2.8257e-06
2.82572e-06
2.82574e-06
2.82577e-06
2.82566e-06
2.82568e-06
2.8257e-06
2.82571e-06
2.82573e-06
2.82574e-06
2.82575e-06
2.82576e-06
2.82577e-06
2.82581e-06
2.8257e-06
2.82572e-06
2.82573e-06
2.82574e-06
2.82575e-06
2.82576e-06
2.82577e-06
2.82578e-06
2.82579e-06
2.82581e-06
2.82573e-06
2.82574e-06
2.82575e-06
2.82576e-06
2.82577e-06
2.82577e-06
2.82578e-06
2.82578e-06
2.82579e-06
2.8258e-06
2.82578e-06
2.82579e-06
2.82579e-06
2.8258e-06
2.8258e-06
2.8258e-06
2.82581e-06
2.82581e-06
2.82582e-06
2.82582e-06
2.82584e-06
2.82585e-06
2.82585e-06
2.82585e-06
2.82585e-06
2.82586e-06
2.82586e-06
2.82586e-06
2.82586e-06
2.82587e-06
2.82591e-06
2.82591e-06
2.82591e-06
2.82591e-06
2.82591e-06
2.82591e-06
2.82591e-06
2.82592e-06
2.82592e-06
2.82592e-06
2.82597e-06
2.82597e-06
2.82597e-06
2.82597e-06
2.82597e-06
2.82597e-06
2.82597e-06
2.82597e-06
2.82597e-06
2.82597e-06
2.82606e-06
2.82607e-06
2.82607e-06
2.82607e-06
2.82607e-06
2.82607e-06
2.82607e-06
2.82607e-06
2.82607e-06
2.82607e-06
2.82616e-06
2.82616e-06
2.82616e-06
2.82616e-06
2.82616e-06
2.82616e-06
2.82616e-06
2.82616e-06
2.82616e-06
2.82616e-06
2.82624e-06
2.82624e-06
2.82624e-06
2.82624e-06
2.82624e-06
2.82624e-06
2.82624e-06
2.82624e-06
2.82624e-06
2.82624e-06
2.8263e-06
2.8263e-06
2.8263e-06
2.8263e-06
2.8263e-06
2.8263e-06
2.8263e-06
2.8263e-06
2.8263e-06
2.8263e-06
2.82638e-06
2.82638e-06
2.82638e-06
2.82638e-06
2.82638e-06
2.82638e-06
2.82638e-06
2.82638e-06
2.82638e-06
2.82638e-06
2.82647e-06
2.82647e-06
2.82647e-06
2.82647e-06
2.82647e-06
2.82647e-06
2.82647e-06
2.82647e-06
2.82647e-06
2.82647e-06
2.82652e-06
2.82652e-06
2.82652e-06
2.82652e-06
2.82652e-06
2.82652e-06
2.82652e-06
2.82652e-06
2.82652e-06
2.82652e-06
2.82652e-06
2.82652e-06
2.82652e-06
2.82652e-06
2.82652e-06
2.82652e-06
2.82652e-06
2.82652e-06
2.82653e-06
2.82653e-06
2.82651e-06
2.82651e-06
2.82651e-06
2.82651e-06
2.82651e-06
2.82651e-06
2.82652e-06
2.82652e-06
2.82652e-06
2.82652e-06
2.82653e-06
2.82653e-06
2.82653e-06
2.82653e-06
2.82653e-06
2.82654e-06
2.82654e-06
2.82654e-06
2.82654e-06
2.82654e-06
2.82649e-06
2.82649e-06
2.82649e-06
2.82649e-06
2.82649e-06
2.82649e-06
2.82649e-06
2.82649e-06
2.82649e-06
2.82649e-06
7.22497e-05
8.21235e-05
9.03928e-05
9.60922e-05
9.8659e-05
9.86673e-05
9.86195e-05
0.000100259
0.000100719
9.99202e-05
9.89547e-05
9.78331e-05
9.64682e-05
9.47869e-05
9.26436e-05
9.01331e-05
8.91615e-05
8.65998e-05
8.21273e-05
7.62045e-05
6.95575e-05
6.18467e-05
5.36104e-05
4.45971e-05
4.08202e-05
4.22355e-05
4.6279e-05
5.94238e-05
9.52465e-05
0.000127167
0.000127171
9.51106e-05
5.93517e-05
4.62712e-05
4.22323e-05
4.08327e-05
4.46309e-05
5.36604e-05
6.18856e-05
6.95919e-05
7.62304e-05
8.21472e-05
8.6613e-05
8.91669e-05
9.01378e-05
9.26481e-05
9.47913e-05
9.64725e-05
9.78372e-05
9.89586e-05
9.99239e-05
0.000100722
0.00010026
9.86205e-05
9.86688e-05
9.86602e-05
9.60929e-05
9.03931e-05
8.21235e-05
7.22495e-05
0.000325005
0.000328802
0.000331584
0.000333377
0.000334574
0.0003356
0.000335093
0.000332738
0.000328865
0.000323694
0.000317563
0.000310896
0.00030397
0.00029698
0.000290241
0.000283864
0.000277616
0.000270604
0.000260471
0.000246571
0.000229515
0.000208397
0.00018589
0.000163969
0.000142249
0.000122472
0.000105421
9.72325e-05
0.000110502
0.000127961
0.000127953
0.000110428
9.72212e-05
0.000105458
0.000122524
0.000142306
0.000164025
0.000185935
0.000208435
0.000229537
0.000246568
0.000260469
0.000270587
0.000277595
0.000283842
0.000290222
0.000296963
0.000303954
0.000310881
0.000317549
0.00032368
0.000328851
0.000332723
0.000335079
0.000335586
0.00033456
0.000333364
0.000331571
0.00032879
0.000324993
0.000436546
0.000435731
0.000435321
0.000435194
0.000434819
0.000433603
0.000431657
0.000429079
0.000425947
0.000422326
0.000418036
0.000412986
0.000407181
0.000400675
0.000393565
0.000385976
0.000378036
0.000369718
0.000360674
0.000349956
0.000336028
0.00031561
0.000291592
0.000265426
0.000239667
0.000211878
0.00018235
0.000149256
0.00013721
0.000139565
0.000139567
0.000137174
0.0001493
0.000182431
0.000211965
0.000239749
0.00026551
0.000291686
0.000315693
0.000336034
0.000349939
0.00036065
0.000369692
0.000378008
0.000385948
0.000393536
0.000400647
0.000407152
0.000412956
0.000418006
0.000422295
0.000425916
0.000429049
0.000431627
0.000433573
0.000434789
0.000435164
0.000435292
0.000435703
0.000436518
0.00041422
0.000412572
0.000412454
0.000413148
0.000414052
0.000415129
0.000416255
0.000417375
0.000418453
0.000419419
0.000420149
0.00042049
0.000420288
0.000419435
0.000417887
0.000415592
0.000412539
0.000408733
0.000404161
0.000398601
0.000391295
0.000380435
0.00036322
0.000335581
0.000309776
0.000285188
0.000255502
0.000214609
0.000171878
0.000155204
0.000155217
0.000171907
0.000214701
0.000255594
0.00028526
0.000309836
0.000335657
0.000363259
0.000380435
0.00039127
0.000398567
0.000404124
0.000408695
0.0004125
0.000415552
0.000417846
0.000419393
0.000420245
0.000420447
0.000420105
0.000419375
0.000418408
0.000417331
0.000416211
0.000415085
0.000414008
0.000413105
0.000412412
0.000412531
0.000414181
0.000307157
0.000305432
0.000305919
0.000307418
0.000310159
0.000314078
0.000319076
0.000325034
0.000331808
0.00033923
0.000347101
0.000355201
0.000363297
0.000371155
0.000378552
0.000385274
0.000391135
0.000395985
0.000399727
0.000402268
0.000403369
0.000402289
0.000397107
0.000383946
0.000360852
0.000334973
0.000312896
0.000276124
0.000216428
0.000175993
0.000176041
0.000216518
0.000276226
0.000312956
0.000335012
0.000360906
0.000383967
0.000397092
0.000402254
0.000403325
0.00040222
0.000399677
0.000395935
0.000391083
0.000385221
0.000378498
0.000371101
0.000363242
0.000355145
0.000347045
0.000339175
0.000331754
0.00032498
0.000319023
0.000314026
0.000310108
0.000307369
0.000305871
0.000305386
0.000307112
0.000149794
0.000148761
0.000149465
0.000151948
0.000156559
0.000163215
0.0001718
0.000182163
0.00019413
0.000207506
0.000222084
0.000237639
0.000253931
0.000270704
0.000287681
0.000304568
0.00032106
0.000336851
0.000351649
0.000365197
0.000377249
0.000387437
0.000394831
0.000396966
0.000389432
0.00036882
0.000348492
0.000325722
0.000268778
0.000202876
0.000202899
0.0002689
0.000325792
0.000348508
0.000368865
0.000389444
0.00039694
0.000394784
0.000387382
0.00037719
0.000365137
0.000351588
0.000336789
0.000320998
0.000304506
0.000287619
0.000270644
0.000253872
0.000237581
0.000222028
0.000207452
0.000194077
0.000182113
0.000171752
0.000163169
0.000156515
0.000151906
0.000149424
0.000148721
0.000149755
2.78763e-05
2.76862e-05
2.79853e-05
2.95539e-05
3.2516e-05
3.70827e-05
4.35286e-05
5.2146e-05
6.31778e-05
7.67448e-05
9.27958e-05
0.00011111
0.000131349
0.000153131
0.000176086
0.000199877
0.000224191
0.000248718
0.00027313
0.000297078
0.000320193
0.00034207
0.000362111
0.000378915
0.000389002
0.000386069
0.000371073
0.000360663
0.000316347
0.000232676
0.000232791
0.000316448
0.000360634
0.000371054
0.000386074
0.000388969
0.000378858
0.000362045
0.000342001
0.000320124
0.000297009
0.000273062
0.000248652
0.000224127
0.000199815
0.000176027
0.000153075
0.000131297
0.000111062
9.27523e-05
7.67063e-05
6.31446e-05
5.21177e-05
4.35048e-05
3.70627e-05
3.24989e-05
2.9539e-05
2.7972e-05
2.76737e-05
2.78641e-05
5.14223e-06
5.12878e-06
5.19126e-06
5.43012e-06
5.88298e-06
6.62087e-06
7.76215e-06
9.49643e-06
1.2114e-05
1.60404e-05
2.18624e-05
3.03011e-05
4.20899e-05
5.77519e-05
7.73758e-05
0.000100557
0.00012657
0.000154644
0.000184132
0.000214546
0.000245485
0.000276552
0.000307264
0.000336755
0.000362792
0.000379549
0.000378591
0.000371191
0.000351004
0.000264452
0.000264578
0.000351101
0.00037122
0.000378592
0.000379514
0.000362729
0.00033668
0.000307188
0.000276478
0.000245413
0.000214478
0.000184067
0.000154582
0.000126514
0.000100507
7.7333e-05