/*--------------------------------*- C++ -*----------------------------------*\
  =========                 |
  \\      /  F ield         | OpenFOAM: The Open Source CFD Toolbox
   \\    /   O peration     | Website:  https://openfoam.org
    \\  /    A nd           | Version:  10
     \\/     M anipulation  |
\*---------------------------------------------------------------------------*/
FoamFile
{
    format      ascii;
    class       volScalarField;
    location    "207";
    object      nuTilda;
}
// * * * * * * * * * * * * * * * * * * * * * * * * * * * * * * * * * * * * * //

dimensions      [0 2 -1 0 0 0 0];

internalField   nonuniform List<scalar> 
6580
(
3.95207e-05
5.0839e-05
5.21418e-05
4.9062e-05
5.19975e-05
5.96437e-05
7.27219e-05
9.54466e-05
0.000129044
0.000155495
0.000166473
0.000166412
0.000161648
0.000155999
0.000150181
0.000143837
0.00013612
0.000130833
0.000127476
0.000122233
0.00011835
0.000116358
0.000115441
0.000114955
0.000114829
0.000114995
0.000115295
0.000115621
0.000115914
0.000116261
0.000116794
0.000117529
0.000118471
0.000119664
0.000121205
0.000123156
0.00012578
0.000129064
0.000134159
0.000144651
4.28203e-05
4.38448e-05
4.28005e-05
4.33704e-05
4.46118e-05
4.67416e-05
5.04082e-05
5.70297e-05
6.28732e-05
6.62316e-05
7.0233e-05
7.33381e-05
7.49075e-05
8.40341e-05
9.75681e-05
0.00012049
0.00015559
0.000189596
0.000217988
0.000240804
0.000257719
0.000270882
0.000282378
0.000292274
0.000300727
0.000307972
0.000314209
0.000319525
0.000323845
0.000327258
0.00033002
0.000332301
0.000334173
0.000335669
0.000336816
0.000337596
0.000337985
0.000337772
0.000336298
0.000335441
4.45538e-05
4.43673e-05
4.42769e-05
4.41456e-05
4.39669e-05
4.43221e-05
4.48121e-05
4.55505e-05
4.68101e-05
4.82732e-05
4.95972e-05
5.0207e-05
5.246e-05
5.63641e-05
6.34534e-05
7.57478e-05
9.76846e-05
0.000131175
0.00017394
0.000220431
0.000261162
0.0002926
0.000317479
0.000337657
0.000354319
0.000368334
0.000380238
0.000390338
0.000398971
0.000406339
0.000412644
0.000418068
0.000422718
0.000426671
0.000429996
0.000432711
0.000434761
0.000436076
0.000435995
0.000435424
4.50128e-05
4.48244e-05
4.4928e-05
4.50224e-05
4.50192e-05
4.50416e-05
4.51222e-05
4.5285e-05
4.55401e-05
4.58959e-05
4.63717e-05
4.69192e-05
4.76341e-05
4.81106e-05
4.85972e-05
5.10911e-05
5.65646e-05
6.80211e-05
8.95483e-05
0.000124061
0.000165898
0.000205889
0.000241905
0.000273432
0.000300649
0.000324281
0.000344345
0.000361826
0.000377144
0.00039066
0.00040269
0.000413458
0.000423092
0.000431705
0.000439398
0.000446251
0.000452283
0.000457545
0.000461835
0.000465226
4.5185e-05
4.49732e-05
4.49794e-05
4.50137e-05
4.49747e-05
4.48612e-05
4.47515e-05
4.47167e-05
4.47654e-05
4.48548e-05
4.49763e-05
4.51397e-05
4.53296e-05
4.56276e-05
4.58624e-05
4.59883e-05
4.66587e-05
4.78673e-05
5.06618e-05
5.82576e-05
7.20841e-05
9.08077e-05
0.000112561
0.000136035
0.000159864
0.000183922
0.000207103
0.000229107
0.000249694
0.000268847
0.000286639
0.000303097
0.00031833
0.000332474
0.000345693
0.000358102
0.000369785
0.000380864
0.00039143
0.00040109
4.51866e-05
4.50257e-05
4.5001e-05
4.50236e-05
4.50583e-05
4.50718e-05
4.50509e-05
4.50005e-05
4.49839e-05
4.49915e-05
4.5024e-05
4.50833e-05
4.51658e-05
4.52729e-05
4.53997e-05
4.55299e-05
4.56949e-05
4.59097e-05
4.62463e-05
4.69537e-05
4.83627e-05
5.05117e-05
5.35691e-05
5.77331e-05
6.31804e-05
7.00182e-05
7.82224e-05
8.76985e-05
9.82206e-05
0.000109586
0.000121462
0.00013359
0.000145847
0.000158217
0.00017089
0.000183887
0.000197194
0.000210834
0.000224772
0.000238346
4.51709e-05
4.50496e-05
4.49935e-05
4.50073e-05
4.50318e-05
4.50517e-05
4.50421e-05
4.49861e-05
4.49227e-05
4.48531e-05
4.47801e-05
4.47084e-05
4.46425e-05
4.4584e-05
4.46498e-05
4.45881e-05
4.46289e-05
4.46533e-05
4.46335e-05
4.45713e-05
4.45436e-05
4.45543e-05
4.46157e-05
4.47623e-05
4.50526e-05
4.55611e-05
4.63665e-05
4.75351e-05
4.91751e-05
5.13043e-05
5.39761e-05
5.72123e-05
6.09901e-05
6.53118e-05
7.0218e-05
7.57775e-05
8.20072e-05
8.89242e-05
9.65847e-05
0.000104563
4.51527e-05
4.50622e-05
4.50129e-05
4.50077e-05
4.50201e-05
4.50405e-05
4.50549e-05
4.50562e-05
4.50224e-05
4.49762e-05
4.49285e-05
4.49119e-05
4.49071e-05
4.49112e-05
4.49247e-05
4.49932e-05
4.50473e-05
4.5075e-05
4.51081e-05
4.51468e-05
4.51841e-05
4.52147e-05
4.52409e-05
4.52664e-05
4.52942e-05
4.53252e-05
4.5366e-05
4.54307e-05
4.55329e-05
4.57021e-05
4.59594e-05
4.63308e-05
4.68369e-05
4.75006e-05
4.83587e-05
4.94496e-05
5.08015e-05
5.24453e-05
5.4417e-05
5.66385e-05
4.51347e-05
4.50692e-05
4.50224e-05
4.50018e-05
4.50064e-05
4.50182e-05
4.50318e-05
4.5039e-05
4.50256e-05
4.49988e-05
4.49678e-05
4.49327e-05
4.48935e-05
4.48506e-05
4.48054e-05
4.47628e-05
4.47225e-05
4.46824e-05
4.46372e-05
4.45882e-05
4.45427e-05
4.4505e-05
4.44733e-05
4.44452e-05
4.44188e-05
4.43957e-05
4.43812e-05
4.43751e-05
4.4377e-05
4.43885e-05
4.44286e-05
4.44864e-05
4.45607e-05
4.46556e-05
4.47681e-05
4.49215e-05
4.51241e-05
4.53862e-05
4.57179e-05
4.61122e-05
4.51177e-05
4.50637e-05
4.50252e-05
4.50041e-05
4.50009e-05
4.50065e-05
4.50173e-05
4.50283e-05
4.50338e-05
4.50301e-05
4.5008e-05
4.4985e-05
4.49597e-05
4.49318e-05
4.49012e-05
4.48689e-05
4.48617e-05
4.48621e-05
4.48684e-05
4.48771e-05
4.48878e-05
4.48977e-05
4.49058e-05
4.49127e-05
4.49193e-05
4.49262e-05
4.49291e-05
4.49297e-05
4.49251e-05
4.49217e-05
4.49209e-05
4.49203e-05
4.4919e-05
4.49169e-05
4.49144e-05
4.49156e-05
4.49228e-05
4.49377e-05
4.49626e-05
4.49949e-05
4.51018e-05
4.50554e-05
4.50252e-05
4.50078e-05
4.49968e-05
4.49992e-05
4.5005e-05
4.50138e-05
4.50214e-05
4.50241e-05
4.50098e-05
4.49943e-05
4.49781e-05
4.49598e-05
4.49389e-05
4.49155e-05
4.48901e-05
4.48635e-05
4.48369e-05
4.48119e-05
4.47906e-05
4.47732e-05
4.47579e-05
4.47437e-05
4.47303e-05
4.47175e-05
4.47062e-05
4.46974e-05
4.46965e-05
4.47014e-05
4.47092e-05
4.47187e-05
4.47291e-05
4.47402e-05
4.47507e-05
4.47599e-05
4.47674e-05
4.47735e-05
4.47798e-05
4.4786e-05
4.50872e-05
4.50471e-05
4.50244e-05
4.50097e-05
4.49996e-05
4.4997e-05
4.49985e-05
4.50036e-05
4.50104e-05
4.50159e-05
4.50175e-05
4.50067e-05
4.49949e-05
4.49825e-05
4.49689e-05
4.49536e-05
4.49366e-05
4.49182e-05
4.48989e-05
4.48799e-05
4.48814e-05
4.48849e-05
4.48875e-05
4.48893e-05
4.48908e-05
4.48918e-05
4.4894e-05
4.48901e-05
4.48872e-05
4.48858e-05
4.48851e-05
4.48849e-05
4.48851e-05
4.48856e-05
4.48862e-05
4.48862e-05
4.48852e-05
4.48831e-05
4.48808e-05
4.48769e-05
4.50739e-05
4.50395e-05
4.50235e-05
4.50099e-05
4.50013e-05
4.4995e-05
4.49946e-05
4.49971e-05
4.50018e-05
4.50071e-05
4.50109e-05
4.5011e-05
4.50028e-05
4.49937e-05
4.4984e-05
4.49739e-05
4.49626e-05
4.495e-05
4.49361e-05
4.49213e-05
4.49086e-05
4.49034e-05
4.4898e-05
4.4891e-05
4.48844e-05
4.48784e-05
4.48731e-05
4.48681e-05
4.48653e-05
4.48647e-05
4.48648e-05
4.48652e-05
4.48658e-05
4.48666e-05
4.48674e-05
4.48682e-05
4.48689e-05
4.48695e-05
4.48702e-05
4.48691e-05
4.50619e-05
4.50327e-05
4.50201e-05
4.50087e-05
4.50017e-05
4.49966e-05
4.49931e-05
4.49943e-05
4.49969e-05
4.50009e-05
4.50049e-05
4.50076e-05
4.50068e-05
4.50003e-05
4.49932e-05
4.49858e-05
4.49782e-05
4.49698e-05
4.49606e-05
4.49503e-05
4.49414e-05
4.49419e-05
4.49424e-05
4.49426e-05
4.49427e-05
4.49427e-05
4.49426e-05
4.49424e-05
4.49418e-05
4.49409e-05
4.49397e-05
4.49382e-05
4.49365e-05
4.49343e-05
4.49317e-05
4.49293e-05
4.4927e-05
4.49249e-05
4.4923e-05
4.49213e-05
4.50514e-05
4.50267e-05
4.50163e-05
4.50071e-05
4.50015e-05
4.49976e-05
4.49945e-05
4.49938e-05
4.49948e-05
4.49969e-05
4.49999e-05
4.50029e-05
4.50047e-05
4.50006e-05
4.49959e-05
4.49909e-05
4.49856e-05
4.49801e-05
4.49744e-05
4.49679e-05
4.49618e-05
4.49623e-05
4.49628e-05
4.49629e-05
4.49627e-05
4.49624e-05
4.4962e-05
4.49618e-05
4.49614e-05
4.49611e-05
4.49607e-05
4.49603e-05
4.496e-05
4.49596e-05
4.49592e-05
4.49588e-05
4.49584e-05
4.49579e-05
4.49576e-05
4.49564e-05
4.50422e-05
4.50216e-05
4.5013e-05
4.50055e-05
4.50011e-05
4.49981e-05
4.49957e-05
4.49937e-05
4.49938e-05
4.49949e-05
4.49968e-05
4.49992e-05
4.50014e-05
4.50025e-05
4.49992e-05
4.49957e-05
4.4992e-05
4.49888e-05
4.49886e-05
4.4985e-05
4.49806e-05
4.4981e-05
4.49816e-05
4.49818e-05
4.49817e-05
4.49816e-05
4.49814e-05
4.49811e-05
4.49808e-05
4.49803e-05
4.49795e-05
4.49784e-05
4.49773e-05
4.49763e-05
4.49754e-05
4.49745e-05
4.49737e-05
4.4973e-05
4.49723e-05
4.49719e-05
4.50342e-05
4.50171e-05
4.50101e-05
4.50041e-05
4.50006e-05
4.49983e-05
4.49965e-05
4.4995e-05
4.49937e-05
4.49943e-05
4.49954e-05
4.49971e-05
4.49989e-05
4.50005e-05
4.5001e-05
4.49984e-05
4.49958e-05
4.49931e-05
4.49934e-05
4.49933e-05
4.49901e-05
4.49903e-05
4.49908e-05
4.49912e-05
4.49913e-05
4.49913e-05
4.49913e-05
4.49913e-05
4.49912e-05
4.49912e-05
4.4991e-05
4.49908e-05
4.49906e-05
4.49904e-05
4.49902e-05
4.499e-05
4.49898e-05
4.49895e-05
4.49894e-05
4.49889e-05
4.50275e-05
4.50134e-05
4.50077e-05
4.50029e-05
4.50002e-05
4.49984e-05
4.4997e-05
4.49959e-05
4.49949e-05
4.49948e-05
4.49953e-05
4.49962e-05
4.49974e-05
4.49987e-05
4.49999e-05
4.5e-05
4.4998e-05
4.49959e-05
4.49957e-05
4.49957e-05
4.49933e-05
4.49933e-05
4.49938e-05
4.49943e-05
4.49946e-05
4.49948e-05
4.49949e-05
4.49951e-05
4.49951e-05
4.49952e-05
4.49952e-05
4.49952e-05
4.49951e-05
4.4995e-05
4.49947e-05
4.49944e-05
4.49941e-05
4.49938e-05
4.49935e-05
4.49933e-05
4.50218e-05
4.50103e-05
4.50056e-05
4.50019e-05
4.49998e-05
4.49985e-05
4.49975e-05
4.49966e-05
4.49959e-05
4.49952e-05
4.49954e-05
4.49959e-05
4.49967e-05
4.49976e-05
4.49986e-05
4.49993e-05
4.49988e-05
4.49973e-05
4.49966e-05
4.49965e-05
4.49948e-05
4.4994e-05
4.49944e-05
4.49948e-05
4.49951e-05
4.49953e-05
4.49955e-05
4.49956e-05
4.49957e-05
4.49958e-05
4.49958e-05
4.49958e-05
4.49959e-05
4.49959e-05
4.49959e-05
4.49959e-05
4.49958e-05
4.49958e-05
4.49958e-05
4.49957e-05
4.50171e-05
4.50078e-05
4.5004e-05
4.50011e-05
4.49995e-05
4.49985e-05
4.49978e-05
4.49972e-05
4.49967e-05
4.49962e-05
4.49958e-05
4.49961e-05
4.49966e-05
4.49972e-05
4.4998e-05
4.49987e-05
4.49991e-05
4.49981e-05
4.4997e-05
4.49959e-05
4.49948e-05
4.49946e-05
4.49948e-05
4.49953e-05
4.49956e-05
4.49959e-05
4.49961e-05
4.49963e-05
4.49964e-05
4.49965e-05
4.49966e-05
4.49967e-05
4.49967e-05
4.49967e-05
4.49967e-05
4.49967e-05
4.49967e-05
4.49967e-05
4.49966e-05
4.49965e-05
4.50134e-05
4.50059e-05
4.50027e-05
4.50005e-05
4.49994e-05
4.49987e-05
4.49981e-05
4.49977e-05
4.49973e-05
4.4997e-05
4.49966e-05
4.49967e-05
4.49969e-05
4.49973e-05
4.49978e-05
4.49983e-05
4.49988e-05
4.4999e-05
4.49982e-05
4.49973e-05
4.49965e-05
4.49961e-05
4.49963e-05
4.49966e-05
4.49969e-05
4.49971e-05
4.49973e-05
4.49975e-05
4.49976e-05
4.49977e-05
4.49978e-05
4.49978e-05
4.49979e-05
4.49979e-05
4.49979e-05
4.4998e-05
4.4998e-05
4.4998e-05
4.4998e-05
4.4998e-05
4.50104e-05
4.50043e-05
4.50017e-05
4.50001e-05
4.49993e-05
4.49988e-05
4.49984e-05
4.49981e-05
4.49978e-05
4.49976e-05
4.49973e-05
4.49971e-05
4.49973e-05
4.49975e-05
4.49978e-05
4.49981e-05
4.49985e-05
4.49988e-05
4.49988e-05
4.49982e-05
4.49975e-05
4.49971e-05
4.49972e-05
4.49973e-05
4.49975e-05
4.49977e-05
4.49979e-05
4.4998e-05
4.49981e-05
4.49982e-05
4.49983e-05
4.49983e-05
4.49984e-05
4.49984e-05
4.49984e-05
4.49984e-05
4.49984e-05
4.49984e-05
4.49984e-05
4.49985e-05
4.5008e-05
4.50031e-05
4.50009e-05
4.49999e-05
4.49994e-05
4.4999e-05
4.49987e-05
4.49985e-05
4.49983e-05
4.49981e-05
4.49979e-05
4.49977e-05
4.49977e-05
4.49979e-05
4.4998e-05
4.49983e-05
4.49985e-05
4.49987e-05
4.49989e-05
4.49985e-05
4.4998e-05
4.49977e-05
4.49978e-05
4.49979e-05
4.4998e-05
4.49982e-05
4.49983e-05
4.49984e-05
4.49985e-05
4.49986e-05
4.49986e-05
4.49987e-05
4.49987e-05
4.49987e-05
4.49987e-05
4.49988e-05
4.49988e-05
4.49988e-05
4.49987e-05
4.49989e-05
4.50061e-05
4.50022e-05
4.50006e-05
4.49999e-05
4.49995e-05
4.49992e-05
4.4999e-05
4.49988e-05
4.49987e-05
4.49985e-05
4.49984e-05
4.49982e-05
4.49981e-05
4.49982e-05
4.49983e-05
4.49984e-05
4.49986e-05
4.49987e-05
4.49989e-05
4.49988e-05
4.49985e-05
4.49982e-05
4.49982e-05
4.49983e-05
4.49983e-05
4.49984e-05
4.49985e-05
4.49986e-05
4.49986e-05
4.49987e-05
4.49987e-05
4.49987e-05
4.49988e-05
4.49988e-05
4.49988e-05
4.49988e-05
4.49988e-05
4.49988e-05
4.49988e-05
4.49989e-05
4.50046e-05
4.50015e-05
4.50004e-05
4.49999e-05
4.49996e-05
4.49994e-05
4.49992e-05
4.49991e-05
4.4999e-05
4.49989e-05
4.49987e-05
4.49986e-05
4.49985e-05
4.49985e-05
4.49986e-05
4.49986e-05
4.49987e-05
4.49988e-05
4.49989e-05
4.49989e-05
4.49987e-05
4.49984e-05
4.49984e-05
4.49984e-05
4.49985e-05
4.49985e-05
4.49986e-05
4.49986e-05
4.49987e-05
4.49987e-05
4.49987e-05
4.49987e-05
4.49987e-05
4.49988e-05
4.49988e-05
4.49988e-05
4.49988e-05
4.49988e-05
4.49988e-05
4.49989e-05
4.50035e-05
4.5001e-05
4.50003e-05
4.49999e-05
4.49997e-05
4.49995e-05
4.49994e-05
4.49993e-05
4.49992e-05
4.49991e-05
4.4999e-05
4.49989e-05
4.49989e-05
4.49988e-05
4.49988e-05
4.49988e-05
4.49989e-05
4.49989e-05
4.4999e-05
4.4999e-05
4.49988e-05
4.49986e-05
4.49985e-05
4.49985e-05
4.49986e-05
4.49986e-05
4.49986e-05
4.49987e-05
4.49987e-05
4.49987e-05
4.49987e-05
4.49987e-05
4.49987e-05
4.49987e-05
4.49987e-05
4.49987e-05
4.49987e-05
4.49987e-05
4.49988e-05
4.49989e-05
4.50026e-05
4.50007e-05
4.50003e-05
4.5e-05
4.49998e-05
4.49997e-05
4.49996e-05
4.49995e-05
4.49994e-05
4.49993e-05
4.49993e-05
4.49992e-05
4.49991e-05
4.49991e-05
4.4999e-05
4.4999e-05
4.49991e-05
4.49991e-05
4.49991e-05
4.4999e-05
4.49989e-05
4.49988e-05
4.49987e-05
4.49987e-05
4.49987e-05
4.49987e-05
4.49987e-05
4.49988e-05
4.49988e-05
4.49988e-05
4.49988e-05
4.49988e-05
4.49988e-05
4.49988e-05
4.49988e-05
4.49988e-05
4.49988e-05
4.49988e-05
4.49988e-05
4.49989e-05
4.50019e-05
4.50006e-05
4.50003e-05
4.50001e-05
4.49999e-05
4.49998e-05
4.49997e-05
4.49996e-05
4.49996e-05
4.49995e-05
4.49994e-05
4.49994e-05
4.49993e-05
4.49993e-05
4.49992e-05
4.49992e-05
4.49992e-05
4.49992e-05
4.49992e-05
4.49991e-05
4.4999e-05
4.4999e-05
4.49989e-05
4.49989e-05
4.49989e-05
4.49989e-05
4.49989e-05
4.49989e-05
4.49989e-05
4.49989e-05
4.49989e-05
4.49989e-05
4.49989e-05
4.49989e-05
4.49989e-05
4.49989e-05
4.49988e-05
4.49988e-05
4.49988e-05
4.49989e-05
4.50014e-05
4.50005e-05
4.50004e-05
4.50001e-05
4.5e-05
4.49999e-05
4.49998e-05
4.49997e-05
4.49997e-05
4.49996e-05
4.49996e-05
4.49996e-05
4.49995e-05
4.49995e-05
4.49994e-05
4.49994e-05
4.49994e-05
4.49993e-05
4.49993e-05
4.49992e-05
4.49992e-05
4.49992e-05
4.49991e-05
4.49991e-05
4.49991e-05
4.4999e-05
4.4999e-05
4.4999e-05
4.4999e-05
4.4999e-05
4.4999e-05
4.4999e-05
4.4999e-05
4.49989e-05
4.49989e-05
4.49989e-05
4.49989e-05
4.49989e-05
4.49989e-05
4.49989e-05
4.50011e-05
4.50005e-05
4.50004e-05
4.50001e-05
4.5e-05
4.49999e-05
4.49998e-05
4.49998e-05
4.49998e-05
4.49997e-05
4.49997e-05
4.49997e-05
4.49997e-05
4.49996e-05
4.49996e-05
4.49996e-05
4.49996e-05
4.49995e-05
4.49995e-05
4.49995e-05
4.49994e-05
4.49994e-05
4.49994e-05
4.49994e-05
4.49993e-05
4.49993e-05
4.49993e-05
4.49993e-05
4.49993e-05
4.49993e-05
4.49992e-05
4.49992e-05
4.49992e-05
4.49992e-05
4.49992e-05
4.49992e-05
4.49992e-05
4.49992e-05
4.49992e-05
4.49992e-05
4.50008e-05
4.50004e-05
4.50003e-05
4.50001e-05
4.5e-05
4.5e-05
4.49999e-05
4.49999e-05
4.49999e-05
4.49999e-05
4.49998e-05
4.49998e-05
4.49998e-05
4.49998e-05
4.49998e-05
4.49997e-05
4.49997e-05
4.49997e-05
4.49997e-05
4.49997e-05
4.49996e-05
4.49996e-05
4.49996e-05
4.49996e-05
4.49996e-05
4.49996e-05
4.49995e-05
4.49995e-05
4.49995e-05
4.49995e-05
4.49995e-05
4.49995e-05
4.49995e-05
4.49995e-05
4.49995e-05
4.49994e-05
4.49994e-05
4.49994e-05
4.49994e-05
4.49995e-05
4.50006e-05
4.50004e-05
4.50002e-05
4.50001e-05
4.5e-05
4.5e-05
4.5e-05
4.5e-05
4.5e-05
4.5e-05
4.49999e-05
4.49999e-05
4.49999e-05
4.49999e-05
4.49999e-05
4.49999e-05
4.49999e-05
4.49999e-05
4.49998e-05
4.49998e-05
4.49998e-05
4.49998e-05
4.49998e-05
4.49998e-05
4.49998e-05
4.49998e-05
4.49997e-05
4.49997e-05
4.49997e-05
4.49997e-05
4.49997e-05
4.49997e-05
4.49997e-05
4.49997e-05
4.49997e-05
4.49997e-05
4.49997e-05
4.49997e-05
4.49997e-05
4.49997e-05
4.50005e-05
4.50003e-05
4.50002e-05
4.50001e-05
4.50001e-05
4.50001e-05
4.5e-05
4.5e-05
4.50001e-05
4.50001e-05
4.50001e-05
4.5e-05
4.5e-05
4.5e-05
4.5e-05
4.5e-05
4.5e-05
4.5e-05
4.5e-05
4.49999e-05
4.49999e-05
4.49999e-05
4.49999e-05
4.49999e-05
4.49999e-05
4.49999e-05
4.49999e-05
4.49999e-05
4.49999e-05
4.49999e-05
4.49999e-05
4.49999e-05
4.49999e-05
4.49999e-05
4.49999e-05
4.49999e-05
4.49999e-05
4.49999e-05
4.49999e-05
4.49999e-05
4.50004e-05
4.50002e-05
4.50001e-05
4.50001e-05
4.50001e-05
4.50001e-05
4.50001e-05
4.50001e-05
4.50002e-05
4.50002e-05
4.50002e-05
4.50001e-05
4.50001e-05
4.50001e-05
4.50001e-05
4.50001e-05
4.50001e-05
4.50001e-05
4.50001e-05
4.50001e-05
4.50001e-05
4.50001e-05
4.50001e-05
4.50001e-05
4.50001e-05
4.50001e-05
4.50001e-05
4.50001e-05
4.50001e-05
4.50001e-05
4.50001e-05
4.50001e-05
4.50001e-05
4.50001e-05
4.50001e-05
4.50001e-05
4.50001e-05
4.50001e-05
4.50001e-05
4.50001e-05
4.50003e-05
4.50002e-05
4.50001e-05
4.50002e-05
4.50001e-05
4.50002e-05
4.50002e-05
4.50002e-05
4.50002e-05
4.50002e-05
4.50002e-05
4.50001e-05
4.50001e-05
4.50001e-05
4.50001e-05
4.50001e-05
4.50001e-05
4.50002e-05
4.50002e-05
4.50002e-05
4.50002e-05
4.50003e-05
4.50003e-05
4.50003e-05
4.50003e-05
4.50003e-05
4.50004e-05
4.50004e-05
4.50004e-05
4.50004e-05
4.50004e-05
4.50004e-05
4.50004e-05
4.50004e-05
4.50004e-05
4.50004e-05
4.50004e-05
4.50005e-05
4.50005e-05
4.50005e-05
4.50002e-05
4.50001e-05
4.50002e-05
4.50002e-05
4.50002e-05
4.50002e-05
4.50002e-05
4.50002e-05
4.50002e-05
4.50001e-05
4.50001e-05
4.50001e-05
4.50002e-05
4.50002e-05
4.50002e-05
4.50003e-05
4.50003e-05
4.50003e-05
4.50004e-05
4.50004e-05
4.50004e-05
4.50004e-05
4.50005e-05
4.50005e-05
4.50005e-05
4.50005e-05
4.50005e-05
4.50005e-05
4.50006e-05
4.50006e-05
4.50006e-05
4.50006e-05
4.50006e-05
4.50006e-05
4.50006e-05
4.50006e-05
4.50006e-05
4.50006e-05
4.50006e-05
4.50006e-05
4.50001e-05
4.50001e-05
4.50002e-05
4.50002e-05
4.50002e-05
4.50002e-05
4.50002e-05
4.50001e-05
4.50001e-05
4.50002e-05
4.50002e-05
4.50002e-05
4.50003e-05
4.50003e-05
4.50003e-05
4.50004e-05
4.50004e-05
4.50004e-05
4.50004e-05
4.50005e-05
4.50005e-05
4.50005e-05
4.50005e-05
4.50005e-05
4.50006e-05
4.50006e-05
4.50006e-05
4.50006e-05
4.50006e-05
4.50006e-05
4.50006e-05
4.50006e-05
4.50006e-05
4.50006e-05
4.50006e-05
4.50006e-05
4.50006e-05
4.50006e-05
4.50006e-05
4.50006e-05
4.50001e-05
4.50001e-05
4.50002e-05
4.50002e-05
4.50002e-05
4.50002e-05
4.50001e-05
4.50001e-05
4.50001e-05
4.50002e-05
4.50002e-05
4.50002e-05
4.50003e-05
4.50003e-05
4.50003e-05
4.50004e-05
4.50004e-05
4.50004e-05
4.50004e-05
4.50005e-05
4.50005e-05
4.50005e-05
4.50005e-05
4.50005e-05
4.50005e-05
4.50005e-05
4.50005e-05
4.50005e-05
4.50005e-05
4.50005e-05
4.50005e-05
4.50005e-05
4.50005e-05
4.50005e-05
4.50005e-05
4.50005e-05
4.50005e-05
4.50006e-05
4.50006e-05
4.50006e-05
4.50001e-05
4.5e-05
4.50002e-05
4.50002e-05
4.50002e-05
4.50001e-05
4.50001e-05
4.50001e-05
4.50001e-05
4.50001e-05
4.50002e-05
4.50002e-05
4.50002e-05
4.50003e-05
4.50003e-05
4.50004e-05
4.50004e-05
4.50004e-05
4.50005e-05
4.50005e-05
4.50005e-05
4.50005e-05
4.50005e-05
4.50005e-05
4.50005e-05
4.50005e-05
4.50005e-05
4.50005e-05
4.50006e-05
4.50006e-05
4.50006e-05
4.50006e-05
4.50006e-05
4.50006e-05
4.50006e-05
4.50006e-05
4.50006e-05
4.50006e-05
4.50006e-05
4.50007e-05
4.5e-05
4.5e-05
4.5e-05
4.5e-05
4.5e-05
4.5e-05
4.5e-05
4.5e-05
4.50001e-05
4.50002e-05
4.50002e-05
4.50003e-05
4.50004e-05
4.50005e-05
4.50005e-05
4.50006e-05
4.50006e-05
4.50006e-05
4.50006e-05
4.50006e-05
4.50005e-05
4.50005e-05
4.50005e-05
4.50005e-05
4.50005e-05
4.50005e-05
4.50005e-05
4.50004e-05
4.50004e-05
4.50004e-05
4.50004e-05
4.50004e-05
4.50004e-05
4.50004e-05
4.50004e-05
4.50004e-05
4.50004e-05
4.50004e-05
4.50004e-05
4.50005e-05
0.00016107
0.000144189
0.000125276
0.000111766
9.93595e-05
8.97936e-05
8.5398e-05
8.39175e-05
0.000140692
0.000120264
0.000354381
0.000361974
0.000364493
0.000365197
0.000364887
0.000364031
0.00036311
0.000361895
0.000365527
0.000332467
0.000443954
0.000449608
0.000453281
0.000455604
0.000456895
0.000457284
0.000456795
0.000455225
0.000452633
0.000444723
0.000462454
0.000460821
0.000459515
0.000458139
0.000456473
0.000454211
0.000450835
0.000445648
0.000437724
0.000425103
0.000390656
0.000382954
0.000376803
0.000371384
0.000366201
0.000360796
0.000354545
0.000346768
0.000336742
0.00032378
0.000231572
0.000226091
0.000221443
0.00021723
0.000213155
0.000208894
0.000204187
0.000198814
0.000192547
0.000185407
0.000102362
0.000100448
9.87294e-05
9.71211e-05
9.56058e-05
9.41101e-05
9.2577e-05
9.09087e-05
8.91338e-05
8.72133e-05
5.61525e-05
5.57169e-05
5.53206e-05
5.49509e-05
5.46026e-05
5.42649e-05
5.39323e-05
5.35855e-05
5.32477e-05
5.29019e-05
4.60634e-05
4.60182e-05
4.5976e-05
4.59363e-05
4.58984e-05
4.58618e-05
4.58265e-05
4.57915e-05
4.57571e-05
4.57231e-05
4.49873e-05
4.49797e-05
4.49725e-05
4.49661e-05
4.49603e-05
4.49537e-05
4.49501e-05
4.49461e-05
4.49419e-05
4.49376e-05
4.479e-05
4.47936e-05
4.47968e-05
4.47999e-05
4.48025e-05
4.48064e-05
4.48092e-05
4.48117e-05
4.4814e-05
4.4816e-05
4.48769e-05
4.48767e-05
4.48763e-05
4.48759e-05
4.48756e-05
4.48749e-05
4.48759e-05
4.4876e-05
4.4876e-05
4.48744e-05
4.48706e-05
4.48718e-05
4.48729e-05
4.48738e-05
4.48747e-05
4.48756e-05
4.48763e-05
4.48771e-05
4.48778e-05
4.48777e-05
4.49219e-05
4.49218e-05
4.49216e-05
4.49213e-05
4.4921e-05
4.49207e-05
4.49204e-05
4.49201e-05
4.49201e-05
4.49197e-05
4.49569e-05
4.49571e-05
4.49572e-05
4.49572e-05
4.49572e-05
4.49572e-05
4.49571e-05
4.49568e-05
4.49568e-05
4.49564e-05
4.49722e-05
4.49723e-05
4.4972e-05
4.49718e-05
4.49716e-05
4.49714e-05
4.49711e-05
4.49709e-05
4.49707e-05
4.49704e-05
4.49891e-05
4.49892e-05
4.4989e-05
4.49888e-05
4.49886e-05
4.49884e-05
4.49882e-05
4.4988e-05
4.49878e-05
4.49876e-05
4.49935e-05
4.49936e-05
4.49935e-05
4.49934e-05
4.49933e-05
4.49931e-05
4.4993e-05
4.49928e-05
4.49928e-05
4.49928e-05
4.49959e-05
4.49959e-05
4.49959e-05
4.49958e-05
4.49957e-05
4.49956e-05
4.49955e-05
4.49954e-05
4.49954e-05
4.49955e-05
4.49968e-05
4.49968e-05
4.49968e-05
4.49968e-05
4.49968e-05
4.49968e-05
4.49968e-05
4.49968e-05
4.49968e-05
4.49969e-05
4.49983e-05
4.49983e-05
4.49983e-05
4.49983e-05
4.49983e-05
4.49983e-05
4.49983e-05
4.49983e-05
4.49983e-05
4.49984e-05
4.49987e-05
4.49987e-05
4.49987e-05
4.49987e-05
4.49987e-05
4.49987e-05
4.49988e-05
4.49988e-05
4.49988e-05
4.49988e-05
4.4999e-05
4.49991e-05
4.49991e-05
4.49991e-05
4.49991e-05
4.49991e-05
4.49991e-05
4.49991e-05
4.49991e-05
4.49992e-05
4.49991e-05
4.49991e-05
4.49991e-05
4.49991e-05
4.49991e-05
4.49991e-05
4.49992e-05
4.49992e-05
4.49992e-05
4.49992e-05
4.4999e-05
4.4999e-05
4.4999e-05
4.4999e-05
4.49991e-05
4.49991e-05
4.49991e-05
4.49991e-05
4.49991e-05
4.49991e-05
4.49989e-05
4.4999e-05
4.4999e-05
4.4999e-05
4.4999e-05
4.4999e-05
4.4999e-05
4.4999e-05
4.4999e-05
4.4999e-05
4.49989e-05
4.49989e-05
4.49989e-05
4.49989e-05
4.49989e-05
4.49989e-05
4.49989e-05
4.49989e-05
4.49989e-05
4.49989e-05
4.49989e-05
4.4999e-05
4.4999e-05
4.4999e-05
4.49989e-05
4.49989e-05
4.49989e-05
4.49989e-05
4.49989e-05
4.49989e-05
4.4999e-05
4.4999e-05
4.4999e-05
4.4999e-05
4.4999e-05
4.4999e-05
4.4999e-05
4.4999e-05
4.4999e-05
4.4999e-05
4.49992e-05
4.49992e-05
4.49992e-05
4.49992e-05
4.49992e-05
4.49992e-05
4.49992e-05
4.49992e-05
4.49992e-05
4.49992e-05
4.49995e-05
4.49995e-05
4.49995e-05
4.49995e-05
4.49995e-05
4.49995e-05
4.49995e-05
4.49994e-05
4.49994e-05
4.49995e-05
4.49997e-05
4.49997e-05
4.49997e-05
4.49997e-05
4.49997e-05
4.49997e-05
4.49997e-05
4.49997e-05
4.49997e-05
4.49997e-05
4.49999e-05
4.49999e-05
4.49999e-05
4.49999e-05
4.49999e-05
4.49999e-05
4.49999e-05
4.49999e-05
4.49999e-05
4.49999e-05
4.50001e-05
4.50001e-05
4.50001e-05
4.50001e-05
4.50002e-05
4.50002e-05
4.50002e-05
4.50002e-05
4.50002e-05
4.50002e-05
4.50005e-05
4.50005e-05
4.50005e-05
4.50005e-05
4.50005e-05
4.50005e-05
4.50005e-05
4.50005e-05
4.50005e-05
4.50005e-05
4.50006e-05
4.50006e-05
4.50006e-05
4.50006e-05
4.50006e-05
4.50006e-05
4.50006e-05
4.50007e-05
4.50007e-05
4.50007e-05
4.50006e-05
4.50006e-05
4.50006e-05
4.50006e-05
4.50006e-05
4.50006e-05
4.50006e-05
4.50006e-05
4.50006e-05
4.50007e-05
4.50006e-05
4.50006e-05
4.50006e-05
4.50006e-05
4.50006e-05
4.50006e-05
4.50006e-05
4.50006e-05
4.50006e-05
4.50006e-05
4.50007e-05
4.50007e-05
4.50007e-05
4.50007e-05
4.50007e-05
4.50007e-05
4.50007e-05
4.50007e-05
4.50007e-05
4.50007e-05
4.50005e-05
4.50005e-05
4.50005e-05
4.50005e-05
4.50005e-05
4.50005e-05
4.50005e-05
4.50005e-05
4.50005e-05
4.50005e-05
0.000123993
0.000131457
0.000137663
0.00014194
0.000143869
0.000143874
0.000143835
0.000145061
0.000145401
0.000144796
0.000144066
0.000143218
0.000142188
0.00014092
0.000139306
0.000137419
0.000136688
0.000134766
0.000131406
0.000126937
0.000121879
0.000115921
0.000109394
0.00010195
9.87075e-05
9.99654e-05
0.000103428
0.000114089
0.000141334
0.00016549
0.000165491
0.00014123
0.000114031
0.000103419
9.99613e-05
9.8718e-05
0.000101978
0.000109434
0.000115951
0.000121905
0.000126956
0.000131421
0.000134776
0.000136692
0.000137423
0.00013931
0.000140924
0.000142191
0.000143222
0.000144069
0.000144799
0.000145404
0.000145062
0.000143836
0.000143875
0.00014387
0.000141941
0.000137664
0.000131457
0.000123993
0.000336615
0.000340182
0.000342797
0.000344483
0.00034561
0.000346576
0.000346096
0.000343874
0.000340228
0.000335369
0.000329624
0.000323396
0.00031695
0.00031047
0.000304248
0.000298384
0.000292664
0.000286272
0.000277097
0.000264635
0.000249563
0.000231273
0.000212282
0.000194326
0.000177072
0.000161792
0.000148878
0.000142735
0.000152736
0.000166051
0.000166044
0.000152679
0.000142725
0.000148904
0.00016183
0.000177116
0.000194371
0.000212319
0.000231305
0.000249583
0.000264633
0.000277096
0.000286257
0.000292644
0.000298365
0.000304231
0.000310455
0.000316936
0.000323382
0.000329611
0.000335356
0.000340215
0.000343861
0.000346083
0.000346563
0.000345597
0.000344471
0.000342785
0.00034017
0.000336604
0.000443368
0.000442577
0.000442179
0.000442055
0.00044169
0.00044051
0.000438621
0.000436121
0.000433085
0.000429576
0.000425424
0.000420541
0.000414934
0.000408659
0.000401813
0.00039452
0.000386906
0.000378949
0.000370322
0.000360133
0.000346954
0.000327781
0.000305482
0.00028157
0.000258507
0.000234269
0.000209372
0.000182623
0.000173209
0.000175069
0.000175071
0.00017318
0.000182655
0.000209438
0.000234343
0.00025858
0.000281646
0.000305568
0.000327859
0.000346961
0.000360116
0.000370299
0.000378924
0.00038688
0.000394493
0.000401786
0.000408632
0.000414906
0.000420512
0.000425394
0.000429546
0.000433055
0.000436091
0.000438592
0.000440481
0.000441661
0.000442026
0.00044215
0.000442549
0.000443341
0.000421736
0.000420143
0.000420028
0.000420698
0.000421571
0.000422611
0.000423699
0.000424781
0.000425823
0.000426757
0.000427462
0.000427791
0.000427594
0.000426768
0.000425269
0.000423049
0.000420097
0.000416421
0.000412009
0.00040665
0.00039962
0.000389197
0.000372743
0.00034653
0.000322334
0.000299591
0.000272638
0.000236653
0.000200824
0.000187419
0.000187429
0.000200846
0.000236731
0.00027272
0.000299657
0.00032239
0.000346602
0.000372779
0.000389197
0.000399596
0.000406618
0.000411974
0.000416385
0.00042006
0.000423011
0.00042523
0.000426728
0.000427553
0.000427749
0.00042742
0.000426714
0.00042578
0.000424739
0.000423656
0.000422569
0.000421529
0.000420657
0.000419987
0.000420103
0.000421698
0.000319917
0.000318313
0.000318765
0.000320159
0.00032271
0.000326364
0.000331035
0.00033662
0.000342988
0.000349987
0.000357433
0.000365119
0.000372824
0.000380323
0.000387399
0.000393842
0.00039947
0.000404134
0.000407736
0.000410184
0.000411245
0.000410203
0.000405211
0.000392563
0.000370487
0.000345957
0.000325249
0.000291317
0.000238248
0.000204226
0.000204263
0.000238325
0.000291409
0.000325305
0.000345994
0.000370539
0.000392583
0.000405197
0.000410169
0.000411202
0.000410138
0.000407688
0.000404086
0.00039942
0.000393792
0.000387347
0.000380271
0.000372772
0.000365066
0.00035738
0.000349935
0.000342937
0.000336569
0.000330986
0.000326316
0.000322663
0.000320113
0.00031872
0.00031827
0.000319876
0.000183014
0.000182195
0.000182751
0.000184717
0.000188385
0.000193724
0.000200685
0.000209199
0.000219181
0.000230521
0.000243089
0.00025672
0.000271221
0.000286363
0.000301884
0.000317494
0.000332882
0.000347732
0.000361739
0.000374631
0.000386147
0.000395915
0.000403022
0.000405077
0.000397832
0.000378087
0.000358743
0.000337265
0.000284658
0.00022667
0.000226689
0.000284767
0.00033733
0.000358759
0.00037813
0.000397843
0.000405052
0.000402977
0.000395862
0.000386091
0.000374573
0.000361681
0.000347673
0.000332824
0.000317437
0.000301828
0.000286309
0.000271168
0.000256669
0.00024304
0.000230475
0.000219137
0.000209158
0.000200646
0.000193687
0.00018835
0.000184683
0.000182719
0.000182165
0.000182984
8.64703e-05
8.62744e-05
8.65797e-05
8.81605e-05
9.1049e-05
9.52975e-05
0.000100973
0.000108149
0.0001169
0.000127289
0.000139362
0.000153134
0.000168582
0.000185638
0.000204179
0.00022402
0.000244915
0.000266552
0.000288566
0.000310549
0.000332069
0.000352662
0.000371688
0.000387743
0.000397419
0.000394603
0.000380241
0.000370316
0.000328502
0.000252431
0.000252529
0.000328595
0.000370288
0.000380223
0.000394608
0.000397388
0.000387689
0.000371626
0.000352597
0.000332004
0.000310485
0.000288505
0.000266494
0.000244859
0.000223968
0.000204131
0.000185594
0.000168542
0.000153098
0.00013933
0.000127261
0.000116874
0.000108126
0.000100953
9.52797e-05
9.10331e-05
8.81459e-05
8.65663e-05
8.62619e-05
8.64581e-05
5.2749e-05
5.27112e-05
5.28831e-05
5.35293e-05
5.47045e-05
5.64973e-05
5.90286e-05
6.24529e-05
6.69486e-05
7.27118e-05
7.99542e-05
8.889e-05
9.97236e-05
0.000112634
0.000127759
0.000145179
0.000164899
0.000186838
0.000210817
0.000236555
0.000263671
0.000291687
0.00032
0.000347642
0.00037234
0.000388352
0.000387435
0.000380359
0.000361149
0.000280766
0.000280878
0.000361241
0.000380386
0.000387436
0.000388319
0.000372279
0.000347572
0.000319929
0.000291619
0.000263607
0.000236496
0.000210763
0.00018679
0.000164856
0.000145141
0.000127727
0.000112607
9.97009e-05
8.88714e-05
7.9939e-05
7.26997e-05