/*--------------------------------*- C++ -*----------------------------------*\
  =========                 |
  \\      /  F ield         | OpenFOAM: The Open Source CFD Toolbox
   \\    /   O peration     | Website:  https://openfoam.org
    \\  /    A nd           | Version:  10
     \\/     M anipulation  |
\*---------------------------------------------------------------------------*/
FoamFile
{
    format      ascii;
    class       surfaceScalarField;
    location    "207";
    object      phi;
}
// * * * * * * * * * * * * * * * * * * * * * * * * * * * * * * * * * * * * * //

dimensions      [1 0 -1 0 0 0 0];

internalField   nonuniform List<scalar> 
12997
(
0.000891995
-0.000891868
-1.26724e-07
0.00167224
-0.000780247
0.00215379
-0.000481552
0.00239719
-0.000243398
0.00251764
-0.000120447
0.002559
-4.13616e-05
0.00254111
1.78951e-05
0.00248728
5.38251e-05
0.00241912
6.81577e-05
0.0023468
7.2324e-05
0.00227557
7.1226e-05
0.0022073
6.8276e-05
0.00214037
6.69297e-05
0.00207065
6.97123e-05
0.00200545
6.52038e-05
0.00194751
5.79403e-05
0.0019056
4.19133e-05
0.00187981
2.57839e-05
0.00185696
2.28583e-05
0.00183487
2.20834e-05
0.00182005
1.48212e-05
0.00181355
6.49954e-06
0.00180883
4.72566e-06
0.00180274
6.08744e-06
0.001793
9.74022e-06
0.00177866
1.434e-05
0.00176041
1.82463e-05
0.00173829
2.21169e-05
0.00171325
2.50465e-05
0.00168483
2.84188e-05
0.0016528
3.2029e-05
0.00161764
3.51616e-05
0.00157925
3.83932e-05
0.00153716
4.20833e-05
0.00149079
4.63754e-05
0.00143905
5.17393e-05
0.00138056
5.84852e-05
0.00131155
6.90162e-05
0.00121943
9.21137e-05
0.00011364
0.00110579
0.000887876
-0.00177962
-1.28505e-07
0.0016334
-0.00152577
0.00216162
-0.00100978
0.00257144
-0.000653218
0.00280547
-0.000354468
0.00293854
-0.000174433
0.00301596
-5.95256e-05
0.00307927
-9.48423e-06
0.00313471
1.27165e-05
0.00316046
4.65706e-05
0.00316438
6.73051e-05
0.00315496
7.76962e-05
0.00313371
8.81832e-05
0.00309622
0.000107205
0.00304681
0.00011461
0.00298761
0.000117143
0.002918
0.000111518
0.00284453
9.92515e-05
0.00278502
8.23698e-05
0.00273819
6.89193e-05
0.00270399
4.90204e-05
0.0026829
2.75871e-05
0.00266775
1.9872e-05
0.00265363
2.02067e-05
0.00263713
2.62407e-05
0.00261648
3.49914e-05
0.00259189
4.28403e-05
0.00256332
5.06803e-05
0.00253184
5.65295e-05
0.00249719
6.30674e-05
0.00245911
7.01145e-05
0.002418
7.62672e-05
0.00237388
8.25146e-05
0.00232654
8.94285e-05
0.00227552
9.73901e-05
0.00222039
0.000106867
0.00215999
0.00011889
0.00209408
0.000134923
0.00201564
0.000170557
0.000199059
0.00193022
0.000895886
-0.00267536
-1.4316e-07
0.00173318
-0.00236307
0.00247162
-0.00174821
0.00295957
-0.00114117
0.00334508
-0.000739974
0.003599
-0.000428355
0.0037685
-0.000229031
0.00387475
-0.000115731
0.00393902
-5.15546e-05
0.00397879
6.80334e-06
0.00399841
4.76784e-05
0.0040051
7.10068e-05
0.00400343
8.98557e-05
0.00399097
0.000119661
0.00396911
0.000136475
0.00393902
0.000147237
0.00389573
0.000154809
0.00383654
0.00015844
0.00376906
0.000149846
0.00370353
0.000134445
0.00364801
0.000104544
0.00361038
6.52194e-05
0.0035828
4.74473e-05
0.00355886
4.4148e-05
0.0035339
5.12012e-05
0.00350552
6.33781e-05
0.00347361
7.47485e-05
0.00343788
8.64036e-05
0.00339943
9.49829e-05
0.0033579
0.000104598
0.0033129
0.000115119
0.00326493
0.000124232
0.00321395
0.000133497
0.00315988
0.000143496
0.00310238
0.000154887
0.00304137
0.000167882
0.00297625
0.000184007
0.00290653
0.000204648
0.0028341
0.000242983
0.000270604
0.00276256
0.000911555
-0.00358676
-1.5529e-07
0.00180163
-0.00325314
0.00262891
-0.00257549
0.00325517
-0.00176744
0.00373413
-0.00121892
0.00407532
-0.000769549
0.00429673
-0.00045044
0.00443262
-0.000251627
0.00451805
-0.000136977
0.00458059
-5.5742e-05
0.00463078
-2.5105e-06
0.00467253
2.92566e-05
0.00471245
4.99391e-05
0.00474672
8.53917e-05
0.00476284
0.000120358
0.00477645
0.000133625
0.00478953
0.000141727
0.00480015
0.000147816
0.00480209
0.000147908
0.00479447
0.000142067
0.00476814
0.000130873
0.00473863
9.47299e-05
0.00470888
7.71991e-05
0.00467875
7.42743e-05
0.00464651
8.34394e-05
0.00461077
9.91226e-05
0.00457187
0.000113648
0.00452948
0.000128797
0.00448415
0.000140305
0.00443566
0.000153089
0.0043834
0.000167384
0.00432823
0.000179397
0.00427003
0.000191702
0.00420879
0.000204731
0.00414426
0.000219421
0.00407632
0.000235817
0.00400497
0.000255356
0.00393155
0.000278068
0.00386055
0.000313985
0.000334402
0.00379675
0.000942105
-0.0045287
-1.66818e-07
0.0019116
-0.00422264
0.00281176
-0.00347565
0.00363644
-0.00259212
0.00423014
-0.00181262
0.00471625
-0.00125567
0.00506348
-0.000797671
0.00530346
-0.000491601
0.00547013
-0.000303652
0.00558732
-0.000172933
0.00566972
-8.49091e-05
0.00572637
-2.73901e-05
0.00576417
1.21383e-05
0.00579019
5.93685e-05
0.00579822
0.000112329
0.00580028
0.000131568
0.00580061
0.000141401
0.00580408
0.000144338
0.00581549
0.000136498
0.00584211
0.000115447
0.00587256
0.000100425
0.00590037
6.69264e-05
0.00592141
5.61573e-05
0.00593082
6.48607e-05
0.00592873
8.55296e-05
0.00591583
0.000112019
0.00589126
0.000138219
0.00585763
0.000162434
0.00581729
0.000180643
0.0057708
0.000199579
0.00571869
0.00021949
0.00566182
0.000236266
0.00560099
0.000252539
0.00553659
0.000269132
0.00546879
0.000287216
0.00539711
0.000307495
0.00532344
0.00032903
0.0052503
0.000351207
0.00518247
0.000381816
0.000390228
0.00512665
0.000990785
-0.0055193
-1.80069e-07
0.00202649
-0.00525834
0.00300506
-0.00445423
0.00395156
-0.00353861
0.00473685
-0.00259791
0.00534662
-0.00186544
0.00583274
-0.0012838
0.00617331
-0.000832168
0.00640567
-0.000536008
0.00656169
-0.000328954
0.00666688
-0.000190101
0.00673949
-9.99979e-05
0.00679112
-3.94949e-05
0.00683731
1.31772e-05
0.00686941
8.02325e-05
0.00688338
0.000117596
0.00689842
0.000126359
0.00691772
0.000125045
0.00694729
0.000106924
0.00699822
6.45229e-05
0.00705649
4.21547e-05
0.0071146
8.80956e-06
0.007168
2.75583e-06
0.00721217
2.0694e-05
0.00724406
5.36437e-05
0.00726293
9.31415e-05
0.0072692
0.000131951
0.00726506
0.000166574
0.00725207
0.000193635
0.00722828
0.000223373
0.00719583
0.000251939
0.00715481
0.000277282
0.00710937
0.000297974
0.0070618
0.000316705
0.00701183
0.000337187
0.00695827
0.000361053
0.00690298
0.000384321
0.00684732
0.000406865
0.00679637
0.00043277
0.000433704
0.00675289
0.00106485
-0.00658396
-1.93184e-07
0.00217213
-0.00636562
0.00326407
-0.00554616
0.00429039
-0.00456493
0.00527809
-0.00358561
0.00605821
-0.00264556
0.00670132
-0.00192691
0.00719371
-0.00132456
0.00754612
-0.000888413
0.00779847
-0.000581304
0.00797664
-0.000368271
0.00810227
-0.000225632
0.00819288
-0.000130101
0.00826029
-5.42375e-05
0.00830917
3.13544e-05
0.00833436
9.24014e-05
0.00835037
0.000110348
0.00836753
0.00010789
0.00839358
8.08759e-05
0.00844084
1.72638e-05
0.00850101
-1.80182e-05
0.00856075
-5.09288e-05
0.00861571
-5.22037e-05
0.00866161
-2.52123e-05
0.00869566
1.96001e-05
0.00871732
7.1476e-05
0.00872729
0.000121982
0.00872771
0.000166154
0.00872107
0.000200281
0.00870634
0.000238101
0.00868602
0.000272259
0.00865913
0.000304171
0.00862772
0.000329386
0.00859323
0.000351196
0.0085565
0.000373909
0.00851997
0.000397586
0.00848644
0.000417853
0.00845703
0.000436279
0.00843553
0.000454266
0.000451217
0.00841802
0.0011694
-0.00775315
-2.06905e-07
0.00236334
-0.00755957
0.00356488
-0.0067477
0.00470034
-0.0057004
0.00580437
-0.00468963
0.00680888
-0.00365007
0.00760758
-0.00272561
0.00829175
-0.00200873
0.00879946
-0.00139612
0.00916621
-0.000948054
0.00942773
-0.000629795
0.00960829
-0.000406187
0.00973346
-0.000255277
0.00982349
-0.000144262
0.00989631
-4.14674e-05
0.0099355
5.32121e-05
0.00996103
8.48149e-05
0.00998868
8.02457e-05
0.0100268
4.27055e-05
0.0100887
-4.46277e-05
0.0101712
-0.00010044
0.0102512
-0.00013092
0.0103243
-0.000125356
0.0103862
-8.71252e-05
0.0104337
-2.78589e-05
0.0104658
3.93624e-05
0.010483
0.000104785
0.010488
0.000161125
0.0104846
0.000203742
0.0104733
0.000249313
0.0104526
0.000293013
0.0104266
0.000330205
0.0103964
0.000359535
0.0103637
0.000383873
0.01033
0.00040768
0.0102978
0.000429784
0.0102697
0.000445959
0.010247
0.000458966
0.0102328
0.000468481
0.000458958
0.010225
0.00130595
-0.00905888
-2.21472e-07
0.0026119
-0.00886551
0.00393279
-0.00806859
0.00520637
-0.00697397
0.00641766
-0.00590092
0.00761642
-0.00484883
0.00864836
-0.00375756
0.00949448
-0.00285485
0.0102056
-0.00210721
0.0107353
-0.00147778
0.0111265
-0.00102103
0.0114082
-0.000687895
0.0116081
-0.000455148
0.0117532
-0.000289325
0.011866
-0.000154321
0.0119449
-2.56524e-05
0.0119935
3.61974e-05
0.012034
3.97223e-05
0.0120831
-6.40214e-06
0.0121542
-0.000115723
0.0122537
-0.000199895
0.0123468
-0.000223982
0.0124306
-0.000209178
0.0125009
-0.000157418
0.0125543
-8.13109e-05
0.01259
3.67067e-06
0.012609
8.57995e-05
0.0126157
0.000154411
0.0126107
0.000208717
0.0125956
0.000264403
0.0125712
0.000317448
0.012542
0.000359403
0.0125089
0.000392694
0.0124726
0.000420081
0.0124382
0.000442159
0.0124062
0.00046175
0.0123792
0.000472964
0.0123581
0.0004801
0.0123441
0.000482413
0.000466372
0.0123367
0.0014809
-0.0105395
-2.36077e-07
0.0029396
-0.0103242
0.00438754
-0.00951653
0.00582196
-0.00840839
0.00718513
-0.0072641
0.00848653
-0.00615023
0.00975187
-0.00502289
0.0108342
-0.00393718
0.0117407
-0.00301376
0.0124904
-0.00222747
0.0130518
-0.00158242
0.0134692
-0.00110531
0.01377
-0.000755904
0.0139857
-0.000505073
0.0141476
-0.000316205
0.0142753
-0.00015333
0.0143482
-3.67003e-05
0.0144065
-1.85867e-05
0.0144695
-6.93574e-05
0.0145496
-0.000195902
0.0146762
-0.000326418
0.0147927
-0.00034048
0.0148959
-0.000312452
0.0149827
-0.000244194
0.0150499
-0.000148532
0.015097
-4.33685e-05
0.0151238
5.89663e-05
0.0151364
0.000141843
0.0151347
0.000210363
0.015122
0.000277159
0.0151023
0.000337095
0.015078
0.000383744
0.0150495
0.000421168
0.015018
0.000451629
0.0149858
0.000474336
0.0149562
0.000491317
0.0149309
0.000498241
0.0149108
0.000500293
0.0148959
0.000497307
0.000476263
0.014886
0.00170227
-0.0122416
-2.51273e-07
0.00335956
-0.0119815
0.00497716
-0.0111341
0.00657281
-0.010004
0.00810586
-0.00879714
0.00956633
-0.0076107
0.0109858
-0.00644233
0.0123223
-0.00527373
0.0134678
-0.00415919
0.0144415
-0.00320124
0.015233
-0.00237389
0.0158346
-0.00170693
0.016287
-0.00120833
0.0166186
-0.0008366
0.0168658
-0.000563483
0.0170614
-0.00034884
0.0171966
-0.000171909
0.017294
-0.000115996
0.0173853
-0.000160709
0.0174898
-0.000300334
0.0176444
-0.00048103
0.0177884
-0.000484529
0.0179137
-0.000437702
0.0180187
-0.000349264
0.018101
-0.000230765
0.0181601
-0.000102509
0.0181982
2.08959e-05
0.0182193
0.000120722
0.0182222
0.000207486
0.0182136
0.000285757
0.0181956
0.000355069
0.0181704
0.000408928
0.0181393
0.000452264
0.0181062
0.000484753
0.0180738
0.000506763
0.0180436
0.00052151
0.0180172
0.000524591
0.0179948
0.000522745
0.017976
0.00051612
0.000491987
0.0179602
0.0019781
-0.0142194
-2.66725e-07
0.00388504
-0.0138884
0.00572178
-0.0129709
0.00750127
-0.0117835
0.00924097
-0.0105368
0.010886
-0.00925572
0.0124533
-0.00800963
0.0139951
-0.00681557
0.0154083
-0.00557234
0.016629
-0.00442197
0.0176777
-0.00342259
0.0185202
-0.00254947
0.0191739
-0.00186202
0.0196695
-0.00133217
0.0200416
-0.000935589
0.0203296
-0.000636829
0.0205559
-0.00039824
0.0207073
-0.000267338
0.0208388
-0.000292273
0.0209782
-0.000439691
0.0211562
-0.000659062
0.0213364
-0.000664704
0.0214898
-0.000591142
0.0216181
-0.000477537
0.0217195
-0.000332145
0.0217943
-0.000177295
0.0218431
-2.79296e-05
0.0218687
9.51198e-05
0.0218748
0.000201368
0.0218701
0.000290507
0.0218585
0.000366673
0.0218401
0.000427272
0.0218179
0.000474522
0.0217929
0.000509772
0.0217659
0.000533752
0.0217398
0.000547625
0.0217151
0.000549282
0.0216919
0.000545873
0.0216707
0.000537387
0.000511752
0.0216509
0.00231853
-0.0165377
-2.82277e-07
0.00453693
-0.0161068
0.00665193
-0.0150859
0.00867441
-0.013806
0.0106286
-0.012491
0.0125003
-0.0111274
0.0142751
-0.00978446
0.015966
-0.00850643
0.0176254
-0.00723179
0.0191297
-0.0059262
0.0204359
-0.00472881
0.0215665
-0.00368006
0.0224766
-0.00277214
0.0231947
-0.00205024
0.0237482
-0.00148913
0.0241775
-0.00106616
0.024526
-0.000746709
0.0247783
-0.000519632
0.0249819
-0.000495838
0.0251772
-0.000634987
0.0253911
-0.000873051
0.02562
-0.000893564
0.0258127
-0.000783839
0.0259728
-0.000637654
0.0261009
-0.000460232
0.0261981
-0.000274501
0.0262703
-0.000100102
0.0263144
5.1047e-05
0.0263383
0.000177422
0.0263471
0.00028173
0.0263432
0.000370506
0.0263286
0.00044195
0.026307
0.00049609
0.026282
0.000534809
0.0262558
0.000559942
0.0262286
0.000574802
0.0262012
0.000576659
0.0261736
0.000573505
0.0261461
0.000564891
0.000539214
0.0261186
0.00273527
-0.0192726
-2.9741e-07
0.00533728
-0.0187088
0.00779766
-0.0175462
0.0101274
-0.0161358
0.0123461
-0.0147097
0.0144747
-0.0132561
0.0164811
-0.0117908
0.0183936
-0.0104189
0.0202294
-0.00906765
0.0220047
-0.00770145
0.0236169
-0.00634105
0.0250264
-0.00508956
0.0262444
-0.00399008
0.0272388
-0.00304468
0.0280378
-0.00228814
0.0286686
-0.00169698
0.0291772
-0.00125532
0.0295902
-0.000932577
0.0299007
-0.000806402
0.0301795
-0.000913757
0.030444
-0.00113755
0.0307324
-0.00118192
0.0309765
-0.001028
0.0311764
-0.000837546
0.0313377
-0.000621553
0.0314628
-0.000399608
0.0315544
-0.000191693
0.0316101
-4.57655e-06
0.0316458
0.000141639
0.0316644
0.000263218
0.0316695
0.000365355
0.0316657
0.000445749
0.0316555
0.000506284
0.0316386
0.000551684
0.0316165
0.000582099
0.0315914
0.000599919
0.0315643
0.000603751
0.0315355
0.000602276
0.0315055
0.000594873
0.000570361
0.0314744
0.00324135
-0.0225137
-3.11963e-07
0.00631034
-0.0217778
0.00919823
-0.0204341
0.0119113
-0.0188489
0.0144675
-0.0172659
0.0168907
-0.0156793
0.0191878
-0.0140879
0.0213522
-0.0125833
0.023408
-0.0111235
0.025405
-0.00969848
0.0273035
-0.00823951
0.0290357
-0.0068218
0.0305619
-0.00551621
0.0318828
-0.00436558
0.0329866
-0.00339196
0.0338895
-0.00259989
0.0346262
-0.00199203
0.0352469
-0.00155326
0.0357317
-0.00129123
0.0361474
-0.00132941
0.0365099
-0.00150007
0.0368604
-0.00153238
0.0371752
-0.00134287
0.0374312
-0.00109352
0.0376397
-0.000830013
0.0378045
-0.000564468
0.0379318
-0.000318965
0.0380295
-0.000102285
0.0380934
7.77801e-05
0.0381355
0.000221054
0.0381586
0.000342244
0.0381663
0.0004381
0.0381616
0.00051102
0.0381491
0.000564143
0.0381307
0.000600451
0.038107
0.000623641
0.038079
0.000631732
0.0380472
0.000634149
0.0380122
0.000629849
0.000607968
0.0379746
0.00385414
-0.0263675
-3.27224e-07
0.00749126
-0.025415
0.0109011
-0.0238439
0.0140862
-0.022034
0.0170639
-0.0202436
0.019856
-0.0184714
0.022489
-0.0167209
0.02496
-0.0150543
0.0272988
-0.0134623
0.0295157
-0.0119154
0.0316803
-0.0104041
0.0337187
-0.00886019
0.0355884
-0.00738594
0.0372464
-0.00602352
0.0387034
-0.00484901
0.0399446
-0.00384113
0.0409824
-0.00302983
0.0418604
-0.00243117
0.0426093
-0.00204015
0.0432252
-0.00194532
0.0437417
-0.00201658
0.0441814
-0.00197204
0.0445833
-0.00174481
0.0449173
-0.00142749
0.0451881
-0.00110084
0.0454057
-0.000782061
0.0455761
-0.000489388
0.0457027
-0.000228907
0.0457921
-1.15454e-05
0.0458549
0.000158266
0.0458964
0.000300674
0.0459211
0.000413377
0.0459322
0.000499933
0.0459314
0.000564937
0.0459196
0.000612246
0.0458996
0.000643703
0.045873
0.000658355
0.0458406
0.000666491
0.0458037
0.00066674
0.000648759
0.0457629
0.00459462
-0.0309618
-3.41918e-07
0.00892073
-0.0297411
0.0129649
-0.0278881
0.0167261
-0.0257953
0.0202218
-0.0237393
0.023474
-0.0217235
0.0265114
-0.0197583
0.0293607
-0.0179036
0.0320294
-0.016131
0.0345539
-0.0144399
0.0369596
-0.0128097
0.0392949
-0.0111956
0.0415012
-0.00959224
0.0435395
-0.00806175
0.0453446
-0.00665413
0.0469691
-0.00546567
0.0483842
-0.00444488
0.0496026
-0.00364965
0.0506773
-0.00311481
0.0515846
-0.00285262
0.0523299
-0.00276188
0.0529181
-0.00256027
0.0534361
-0.00226276
0.0538771
-0.00186853
0.054234
-0.00145777
0.0545248
-0.00107283
0.0547589
-0.000723489
0.0549457
-0.000415658
0.0550901
-0.000155968
0.0551929
5.54369e-05
0.0552665
0.000227065
0.0553151
0.000364756
0.0553428
0.000472262
0.0553536
0.000554125
0.0553512
0.000614627
0.0553373
0.00065762
0.0553134
0.000682257
0.0552808
0.000699098
0.0552411
0.000706431
0.000694403
0.0551955
0.00548711
-0.0364485
-3.55848e-07
0.0106446
-0.0348986
0.0154553
-0.0326988
0.019919
-0.0302589
0.024049
-0.0278693
0.0278699
-0.0255445
0.0314114
-0.0232998
0.0347096
-0.0212018
0.0377819
-0.0192032
0.0406678
-0.0173258
0.0433933
-0.0155352
0.0460228
-0.013825
0.0485494
-0.0121188
0.0509489
-0.0104613
0.0531852
-0.00889043
0.0551812
-0.00746161
0.0570228
-0.00628652
0.0586605
-0.0052873
0.0601197
-0.00457404
0.0614314
-0.00416428
0.0624938
-0.00382434
0.0633193
-0.00338575
0.0639988
-0.00294224
0.0645706
-0.00244029
0.0650481
-0.0019353
0.0654372
-0.0014619
0.0657534
-0.00103969
0.0660052
-0.000667485
0.0662004
-0.000351202
0.0663476
-9.17305e-05
0.0664571
0.000117548
0.0665356
0.000286234
0.0665881
0.000419772
0.0666184
0.000523815
0.0666296
0.00060342
0.066624
0.000663245
0.0666049
0.000701329
0.0665742
0.000729825
0.0665339
0.000746696
0.000742738
0.0664856
0.00656204
-0.0430102
-3.69469e-07
0.012722
-0.0410585
0.0184591
-0.0384358
0.0237716
-0.0355714
0.0286735
-0.0327713
0.0331889
-0.0300599
0.03735
-0.0274609
0.0411983
-0.0250501
0.0447718
-0.0227768
0.0481012
-0.0206552
0.0512307
-0.0186647
0.0541933
-0.0167877
0.0570619
-0.0149874
0.0598168
-0.0132162
0.0624469
-0.0115205
0.0649155
-0.00993012
0.0671751
-0.0085462
0.069292
-0.00740419
0.0712237
-0.00650569
0.0730078
-0.00594841
0.0744879
-0.00530441
0.0756398
-0.00453766
0.0765589
-0.00386142
0.0773231
-0.00320444
0.077955
-0.00256717
0.0784776
-0.00198454
0.0789065
-0.00146861
0.079256
-0.00101693
0.0795377
-0.000632885
0.0797621
-0.000316208
0.0799307
-5.1049e-05
0.0800526
0.000164328
0.0801381
0.000334293
0.0801928
0.000469135
0.0802213
0.00057495
0.0802281
0.000656379
0.0802167
0.000712721
0.0801894
0.000757202
0.0801486
0.000787454
0.000794755
0.0800966
0.00785628
-0.0508661
-3.83255e-07
0.0152242
-0.0484265
0.0220791
-0.0452907
0.0284171
-0.0419094
0.0342533
-0.0386074
0.0396141
-0.0354207
0.0445349
-0.0323817
0.0490611
-0.0295763
0.0532411
-0.0269568
0.0571122
-0.0245263
0.0607277
-0.0222802
0.0641315
-0.0201915
0.0673862
-0.0182421
0.0705289
-0.0163589
0.0735655
-0.0145571
0.0764892
-0.0128538
0.0792301
-0.0112871
0.0818381
-0.0100122
0.0843095
-0.00897711
0.0866346
-0.00827345
0.0886395
-0.00730931
0.0902086
-0.00610681
0.0914602
-0.00511303
0.0924859
-0.00423007
0.0933317
-0.00341298
0.0940279
-0.00268076
0.094601
-0.00204168
0.0950712
-0.00148718
0.095451
-0.00101265
0.0957531
-0.000618288
0.0959883
-0.000286265
0.0961674
-1.48113e-05
0.0962971
0.000204576
0.0963865
0.000379761
0.0964413
0.00052015
0.0964666
0.000631109
0.096467
0.000712292
0.0964463
0.000777924
0.0964079
0.00082583
0.000848035
0.0963546
0.00941494
-0.0602806
-3.96415e-07
0.0182389
-0.0572504
0.0264418
-0.0534936
0.0340183
-0.0494859
0.0409839
-0.0455731
0.0473691
-0.0418058
0.0532144
-0.038227
0.0585699
-0.0349319
0.0634914
-0.0318782
0.0680303
-0.0290651
0.0722441
-0.026494
0.0761891
-0.0241365
0.079918
-0.021971
0.083509
-0.01995
0.0869837
-0.0180318
0.0903643
-0.0162345
0.0936508
-0.0145735
0.096783
-0.0131444
0.0998376
-0.0120317
0.102785
-0.0112209
0.105384
-0.00990776
0.107457
-0.00817996
0.109131
-0.00678749
0.110495
-0.00559413
0.111622
-0.00453945
0.112553
-0.00361165
0.11332
-0.00280923
0.113949
-0.00211647
0.114464
-0.00152714
0.114881
-0.00103496
0.115212
-0.000618133
0.11547
-0.000272672
0.115664
1.07726e-05
0.115802
0.000242289
0.115891
0.000430302
0.115941
0.00058151
0.115957
0.000696053
0.115945
0.000789819
0.11591
0.000860952
0.000902758
0.115856
0.0112932
-0.0715734
-4.08754e-07
0.0218724
-0.0678296
0.0317015
-0.0633227
0.0407732
-0.0585577
0.0491045
-0.0539044
0.0567298
-0.0494311
0.0636962
-0.0451934
0.0700611
-0.0412968
0.0758879
-0.037705
0.0812436
-0.0344209
0.0861889
-0.0314393
0.0907947
-0.0287423
0.0951255
-0.0263019
0.099261
-0.0240854
0.103254
-0.0220249
0.10715
-0.0201303
0.110976
-0.0183999
0.11471
-0.0168786
0.118365
-0.0156867
0.122002
-0.0148579
0.125264
-0.0131693
0.127925
-0.0108414
0.130101
-0.00896327
0.131887
-0.00738009
0.133365
-0.0060171
0.134588
-0.00483524
0.1356
-0.00382095
0.136433
-0.00294955
0.137114
-0.00220853
0.137666
-0.00158684
0.138107
-0.0010589
0.138454
-0.000619171
0.138719
-0.000254849
0.138915
4.60935e-05
0.139052
0.000293813
0.139137
0.000495962
0.13918
0.000653936
0.139185
0.000784796
0.139159
0.000886846
0.00095448
0.139107
0.0135585
-0.0851315
-4.20002e-07
0.0262554
-0.0805266
0.0380472
-0.0751144
0.0489244
-0.0694349
0.058906
-0.0638859
0.0680318
-0.0585569
0.076357
-0.0535186
0.0839479
-0.0488877
0.0908783
-0.0446354
0.0972265
-0.0407691
0.103068
-0.0372804
0.108484
-0.0341585
0.113553
-0.0313715
0.118352
-0.0288842
0.122971
-0.0266437
0.127468
-0.0246273
0.131899
-0.0228307
0.13629
-0.0212695
0.140652
-0.0200488
0.145011
-0.0192168
0.149014
-0.0171729
0.152333
-0.0141599
0.155082
-0.0117121
0.157364
-0.00966251
0.159261
-0.00791364
0.16084
-0.00641426
0.162152
-0.00513314
0.163237
-0.00403515
0.16413
-0.00310106
0.164858
-0.00231446
0.165444
-0.00164489
0.165908
-0.00108354
0.166268
-0.000614744
0.166538
-0.000224266
0.166732
9.97994e-05
0.166861
0.000367185
0.166934
0.000580503
0.166961
0.000758377
0.166948
0.000899865
0.00100085
0.166901
0.0162938
-0.101425
-4.29681e-07
0.0315481
-0.095781
0.0457106
-0.0892769
0.0587696
-0.0824939
0.0707463
-0.0758626
0.0816874
-0.0694981
0.0916579
-0.063489
0.100735
-0.0579652
0.109006
-0.0529064
0.116563
-0.0483254
0.123496
-0.0442133
0.1299
-0.0405632
0.13587
-0.0373416
0.141497
-0.0345111
0.146881
-0.0320275
0.152103
-0.0298497
0.157242
-0.0279695
0.162363
-0.0263904
0.167498
-0.025184
0.17269
-0.0244084
0.177499
-0.0219816
0.181544
-0.0182049
0.184939
-0.0151071
0.187783
-0.0125072
0.190164
-0.0102948
0.192157
-0.00840678
0.193819
-0.00679549
0.1952
-0.00541602
0.19634
-0.0042412
0.197274
-0.00324827
0.198031
-0.00240136
0.198635
-0.00168769
0.199108
-0.00108811
0.199469
-0.000585447
0.199734
-0.000165311
0.199917
0.000184142
0.200031
0.000467202
0.200085
0.000704287
0.200089
0.00089558
0.00103847
0.200051
0.019601
-0.121025
-4.37443e-07
0.0379481
-0.114128
0.0549779
-0.106307
0.070676
-0.0981919
0.0850669
-0.0902536
0.0982057
-0.0826368
0.110169
-0.0754524
0.121049
-0.0688449
0.130947
-0.0628044
0.139971
-0.05735
0.148232
-0.0524743
0.155841
-0.0481718
0.162909
-0.0444094
0.169545
-0.0411474
0.175862
-0.0383449
0.181966
-0.0359532
0.187955
-0.0339588
0.193922
-0.0323569
0.199935
-0.031197
0.206061
-0.0305345
0.211782
-0.0277024
0.21664
-0.0230631
0.220755
-0.0192223
0.224232
-0.0159839
0.227163
-0.013226
0.229628
-0.0108712
0.231694
-0.00886162
0.233418
-0.00714001
0.234847
-0.00567071
0.236023
-0.00442428
0.236981
-0.00335897
0.23775
-0.00245725
0.238358
-0.00169592
0.238827
-0.00105432
0.239177
-0.000515101
0.239425
-6.38724e-05
0.239586
0.000305821
0.239674
0.000616447
0.2397
0.00086974
0.00106485
0.239674
0.0236066
-0.144632
-4.42859e-07
0.0456996
-0.136221
0.0662024
-0.126809
0.0850975
-0.117087
0.102414
-0.10757
0.118216
-0.098439
0.132595
-0.0898318
0.14566
-0.0819102
0.157533
-0.0746766
0.16834
-0.0681573
0.178214
-0.0623485
0.187285
-0.0572432
0.195687
-0.0528111
0.20355
-0.0490097
0.211003
-0.0457983
0.218175
-0.0431252
0.225187
-0.0409713
0.232157
-0.0393267
0.239188
-0.0382276
0.246374
-0.0377211
0.25313
-0.0344583
0.2589
-0.0288324
0.263821
-0.0241441
0.268006
-0.0201682
0.271551
-0.0167718
0.274546
-0.0138662
0.277067
-0.0113818
0.279177
-0.00925024
0.280933
-0.00742679
0.282383
-0.00587436
0.283569
-0.00454482
0.284527
-0.00341512
0.285288
-0.00245734
0.285881
-0.00164679
0.286328
-0.000962608
0.286652
-0.000387329
0.286869
8.81496e-05
0.286997
0.000488633
0.287049
0.000817846
0.00107696
0.287037
0.0284676
-0.173099
-4.45398e-07
0.055106
-0.162859
0.0798233
-0.151527
0.102598
-0.139862
0.123464
-0.128436
0.142499
-0.117474
0.159811
-0.107144
0.175529
-0.0976287
0.189798
-0.0889456
0.20277
-0.0811291
0.214601
-0.0741796
0.225447
-0.0680894
0.235466
-0.06283
0.244813
-0.0583561
0.25364
-0.0546257
0.2621
-0.0515855
0.27034
-0.0492115
0.278503
-0.0474897
0.286724
-0.0464484
0.29513
-0.0461265
0.30306
-0.0423884
0.309868
-0.0356412
0.315697
-0.0299723
0.320675
-0.0251467
0.324912
-0.0210082
0.328503
-0.0174573
0.331534
-0.0144128
0.334079
-0.0117958
0.336204
-0.00955133
0.337963
-0.00763395
0.339407
-0.00598853
0.340578
-0.00458575
0.341513
-0.0033923
0.342245
-0.00237878
0.342802
-0.00152023
0.343211
-0.000795585
0.343491
-0.000192558
0.343664
0.00031634
0.343744
0.000737299
0.00107383
0.343747
0.0343796
-0.207478
-4.44919e-07
0.0665458
-0.195026
0.0963881
-0.181369
0.123881
-0.167354
0.149063
-0.153618
0.172028
-0.140439
0.192906
-0.128021
0.21185
-0.116573
0.229032
-0.106127
0.244633
-0.0967301
0.258839
-0.088386
0.271837
-0.0810873
0.283813
-0.0748061
0.294951
-0.0694944
0.305433
-0.0651074
0.315438
-0.0615909
0.325143
-0.0589157
0.334717
-0.0570645
0.344329
-0.0560598
0.354138
-0.0559352
0.363403
-0.0516537
0.371386
-0.0436242
0.378242
-0.0368279
0.384111
-0.0310156
0.38912
-0.0260173
0.393377
-0.0217144
0.396978
-0.0180144
0.400009
-0.0148271
0.402545
-0.0120868
0.40465
-0.00973873
0.406381
-0.00771989
0.407789
-0.00599377
0.408918
-0.0045209
0.409805
-0.00326645
0.410486
-0.0022007
0.410989
-0.00129841
0.41134
-0.000543489
0.411561
9.46182e-05
0.411674
0.00062507
0.00105408
0.411693
0.0415886
-0.249066
-4.40624e-07
0.0804942
-0.233931
0.116584
-0.217459
0.149827
-0.200597
0.180271
-0.184062
0.208027
-0.168195
0.233249
-0.153244
0.256122
-0.139445
0.276849
-0.126855
0.295648
-0.115529
0.312739
-0.105477
0.328345
-0.0966931
0.342687
-0.089148
0.355983
-0.0827909
0.368449
-0.0775733
0.380297
-0.0734388
0.391735
-0.0703531
0.402967
-0.0682969
0.414191
-0.0672843
0.425605
-0.0673487
0.436382
-0.0624304
0.445688
-0.0529303
0.453697
-0.0448373
0.460568
-0.0378861
0.46644
-0.03189
0.471441
-0.026715
0.475679
-0.0222523
0.479252
-0.0183997
0.482245
-0.0150799
0.484734
-0.0122276
0.486785
-0.00977106
0.488456
-0.00766543
0.4898
-0.00586424
0.49086
-0.00432645
0.491676
-0.00301684
0.492283
-0.00190528
0.492711
-0.00097127
0.492986
-0.00018072
0.493132
0.000479036
0.00101736
0.493169
0.0504051
-0.299471
-4.32031e-07
0.0975512
-0.281077
0.141279
-0.261187
0.181552
-0.24087
0.218427
-0.220937
0.252036
-0.201804
0.282565
-0.183773
0.310234
-0.167114
0.335287
-0.151907
0.35798
-0.138222
0.378579
-0.126076
0.397348
-0.115462
0.414549
-0.106349
0.430441
-0.0986833
0.445279
-0.092411
0.459312
-0.0874725
0.472787
-0.0838276
0.485944
-0.0814537
0.499017
-0.0803577
0.512241
-0.0805729
0.524706
-0.0748955
0.535486
-0.0637098
0.544777
-0.0541281
0.552757
-0.0458666
0.559588
-0.0387205
0.56541
-0.0325376
0.570351
-0.027193
0.574521
-0.0225698
0.578019
-0.0185778
0.580931
-0.01514
0.583335
-0.0121746
0.585297
-0.00962746
0.586876
-0.00744401
0.588126
-0.00557608
0.589091
-0.00398214
0.589813
-0.00262643
0.590325
-0.00148332
0.590659
-0.000514681
0.590841
0.000296254
0.000962485
0.590896
0.0612242
-0.360695
-4.1855e-07
0.11848
-0.338333
0.171576
-0.314283
0.220469
-0.289764
0.265229
-0.265697
0.306014
-0.242589
0.343046
-0.220804
0.376586
-0.200655
0.406928
-0.182249
0.434377
-0.165672
0.459248
-0.150947
0.481856
-0.138069
0.502511
-0.127004
0.521521
-0.117693
0.539185
-0.110075
0.555798
-0.104085
0.571646
-0.0996762
0.587013
-0.0968205
0.602173
-0.095518
0.617401
-0.0958002
0.631713
-0.0892075
0.644102
-0.0760991
0.654791
-0.0648172
0.663982
-0.0550574
0.671855
-0.0465941
0.678573
-0.0392555
0.684279
-0.0328984
0.689099
-0.0273897
0.693146
-0.0226246
0.696518
-0.0185128
0.699305
-0.0149612
0.701582
-0.0119051
0.703419
-0.00928068
0.704875
-0.00703171
0.706002
-0.00510941
0.706847
-0.00347159
0.707451
-0.00208674
0.707848
-0.000912105
0.708071
7.38045e-05
0.000888189
0.708145
0.074552
-0.435246
-3.99564e-07
0.144257
-0.408037
0.208887
-0.378913
0.268393
-0.349269
0.322856
-0.320161
0.372468
-0.292201
0.417494
-0.26583
0.458248
-0.241408
0.495077
-0.219078
0.528347
-0.198942
0.558433
-0.181033
0.585707
-0.165344
0.610538
-0.151835
0.633288
-0.140443
0.65431
-0.131097
0.673948
-0.123723
0.692538
-0.118266
0.710406
-0.114689
0.727874
-0.112985
0.745255
-0.113182
0.761523
-0.105476
0.775617
-0.0901932
0.787787
-0.0769869
0.798259
-0.0655294
0.807237
-0.0555723
0.814903
-0.0469217
0.821419
-0.0394139
0.826928
-0.0328984
0.831556
-0.0272534
0.835418
-0.022374
0.838611
-0.0181545
0.841224
-0.0145181
0.843334
-0.0113907
0.845009
-0.00870687
0.846309
-0.00640961
0.847287
-0.00444952
0.847989
-0.00278835
0.848455
-0.00137814
0.848721
-0.000192016
0.000792016
0.848817
0.0910425
-0.526288
-3.74582e-07
0.176145
-0.49314
0.255037
-0.457806
0.327661
-0.421893
0.394117
-0.386617
0.454633
-0.352717
0.509527
-0.320724
0.559174
-0.291055
0.603989
-0.263893
0.644409
-0.239362
0.680876
-0.2175
0.713834
-0.198301
0.743717
-0.181718
0.770951
-0.167677
0.795949
-0.156095
0.819112
-0.146887
0.840831
-0.139984
0.861479
-0.135338
0.881426
-0.132931
0.901028
-0.132784
0.919267
-0.123715
0.935081
-0.106007
0.948746
-0.0906522
0.960514
-0.0772971
0.97061
-0.0656686
0.979237
-0.0555487
0.986575
-0.0467515
0.992783
-0.0391067
0.998004
-0.0324744
1.00236
-0.026733
1.00597
-0.0217631
1.00893
-0.0174743
1.01132
-0.0137812
1.01322
-0.0106079
1.0147
-0.00788853
1.01581
-0.0055654
1.01662
-0.00359278
1.01716
-0.00191693
1.01747
-0.000504913
0.000670684
1.01759
0.111547
-0.637835
-3.43774e-07
0.215786
-0.597379
0.312399
-0.554419
0.401318
-0.510811
0.482664
-0.467963
0.556712
-0.426765
0.623843
-0.387855
0.684505
-0.351718
0.739193
-0.318582
0.788426
-0.288594
0.832729
-0.261803
0.872625
-0.238197
0.908627
-0.21772
0.941232
-0.200282
0.970923
-0.185785
0.998163
-0.174127
1.0234
-0.16522
1.04706
-0.158999
1.06956
-0.155431
1.0913
-0.154523
1.11136
-0.143774
1.12877
-0.123416
1.14382
-0.105708
1.1568
-0.0902726
1.16794
-0.0768103
1.17747
-0.0650768
1.18558
-0.0548622
1.19245
-0.0459752
1.19823
-0.0382559
1.20306
-0.031565
1.20707
-0.0257678
1.21035
-0.0207595
1.21301
-0.016442
1.21513
-0.0127283
1.21679