/*--------------------------------*- C++ -*----------------------------------*\
  =========                 |
  \\      /  F ield         | OpenFOAM: The Open Source CFD Toolbox
   \\    /   O peration     | Website:  https://openfoam.org
    \\  /    A nd           | Version:  10
     \\/     M anipulation  |
\*---------------------------------------------------------------------------*/
FoamFile
{
    format      ascii;
    class       volVectorField;
    location    "207";
    object      U;
}
// * * * * * * * * * * * * * * * * * * * * * * * * * * * * * * * * * * * * * //

dimensions      [0 1 -1 0 0 0 0];

internalField   nonuniform List<vector> 
6580
(
(2.45209 3.58295 0)
(4.28815 9.91653 0)
(8.28829 15.6258 3.38836e-15)
(12.8826 16.8487 9.4913e-17)
(15.9152 16.3682 -8.91884e-17)
(18.0212 15.2565 -5.65185e-15)
(19.4624 13.9246 -5.61805e-15)
(20.3885 12.4422 0)
(20.9907 10.903 -5.58977e-15)
(21.4482 9.33638 5.61178e-15)
(21.7636 7.81546 0)
(21.9005 6.3992 -2.28264e-14)
(21.8344 5.11228 -1.82584e-16)
(21.5842 3.94862 0)
(21.2125 2.90551 -1.21056e-14)
(20.787 1.93002 -9.87638e-21)
(20.4004 1.01486 1.8084e-16)
(20.024 0.217165 8.7045e-16)
(19.5751 -0.471354 1.66376e-16)
(19.0122 -1.06467 -2.04289e-14)
(18.4 -1.49064 -2.05289e-14)
(17.8433 -1.69436 0)
(17.3711 -1.83529 0)
(16.9637 -1.9488 -2.31681e-14)
(16.5876 -2.04223 1.19528e-14)
(16.217 -2.11689 -1.24668e-14)
(15.8456 -2.17313 0)
(15.4727 -2.21221 -2.6684e-14)
(15.1007 -2.2374 6.79254e-15)
(14.7288 -2.24907 1.11531e-16)
(14.3502 -2.24871 0)
(13.9628 -2.237 -3.82056e-15)
(13.5661 -2.21383 0)
(13.1562 -2.17986 -8.20194e-15)
(12.7273 -2.13471 -2.12831e-15)
(12.2693 -2.07605 2.24828e-15)
(11.7774 -2.00159 -2.34643e-15)
(11.2104 -1.90053 -1.89185e-17)
(10.6098 -1.75379 -1.2589e-15)
(9.47313 -1.52271 -1.37427e-15)
(4.71193 2.91866 0)
(6.803 8.39036 1.52603e-15)
(11.8039 11.458 8.44999e-19)
(16.8543 12.613 0)
(21.0004 12.1985 1.47597e-18)
(24.0793 11.0313 0)
(26.3595 9.63328 9.34743e-15)
(27.9675 8.21334 4.97862e-15)
(29.3178 6.99673 4.51409e-15)
(29.8526 5.92477 -8.99427e-15)
(29.9347 4.95204 2.67099e-16)
(29.7827 4.05141 8.72594e-15)
(29.4606 3.20643 -8.68409e-15)
(28.9765 2.4134 2.61072e-16)
(28.3517 1.652 8.28099e-15)
(27.6058 0.95249 -4.30247e-15)
(26.7202 0.326984 0)
(25.6848 -0.241046 -2.2754e-16)
(24.6416 -0.772124 3.39082e-15)
(23.6649 -1.26403 1.26051e-14)
(22.764 -1.67193 1.23977e-14)
(21.9865 -1.94674 1.01014e-16)
(21.3435 -2.13075 -1.0523e-16)
(20.7987 -2.2728 1.40246e-14)
(20.3136 -2.3886 -7.29172e-15)
(19.8567 -2.48107 7.69476e-15)
(19.4145 -2.55137 -1.2299e-16)
(18.9829 -2.60022 1.63432e-14)
(18.5621 -2.6317 -4.30661e-15)
(18.152 -2.64789 6.87149e-17)
(17.7464 -2.6503 0)
(17.3412 -2.64045 4.71599e-15)
(16.9355 -2.61697 2.40156e-15)
(16.5261 -2.58005 2.56187e-15)
(16.1096 -2.52918 1.26255e-15)
(15.6774 -2.46147 -1.32514e-15)
(15.2336 -2.37329 2.17304e-17)
(14.7374 -2.25129 -1.1217e-17)
(14.2806 -2.07787 1.48863e-15)
(13.5073 -1.83808 0)
(6.91175 2.33372 0)
(8.30088 6.90013 -1.13384e-15)
(11.1744 10.5772 -2.12031e-15)
(15.1102 12.5217 0)
(18.7428 13.1604 -8.20417e-15)
(21.5007 12.8965 2.43429e-16)
(23.5818 12.2494 -3.59225e-15)
(25.1653 11.3188 -4.00479e-15)
(26.3577 10.2789 -7.18649e-15)
(27.2699 9.16674 3.65771e-15)
(27.9761 8.00943 -4.49294e-16)
(28.5013 6.83948 2.22398e-16)
(28.8542 5.68557 1.43502e-14)
(29.0733 4.56305 -2.18542e-16)
(29.1277 3.46074 2.16553e-16)
(29.0516 2.39384 3.40845e-15)
(28.8008 1.3657 -2.05979e-16)
(28.3031 0.401909 0)
(27.5445 -0.449021 -2.92749e-15)
(26.5866 -1.18487 1.09796e-14)
(25.5719 -1.73513 2.51766e-20)
(24.6581 -2.09182 -1.65699e-16)
(23.8958 -2.32125 1.06991e-14)
(23.2523 -2.48726 -1.10854e-14)
(22.6876 -2.61772 5.74914e-15)
(22.1678 -2.72216 1.85054e-16)
(21.6771 -2.8018 -9.54169e-17)
(21.2075 -2.85941 -1.12431e-21)
(20.7576 -2.8952 0)
(20.3255 -2.91293 0)
(19.9047 -2.91379 3.50412e-15)
(19.4905 -2.90152 -1.83204e-15)
(19.0816 -2.87544 -5.71436e-17)
(18.6749 -2.83448 -4.13838e-21)
(18.2676 -2.77673 6.03796e-17)
(17.8525 -2.69951 9.92e-16)
(17.4368 -2.59875 1.59072e-17)
(16.9856 -2.46587 -3.26017e-17)
(16.5869 -2.27829 -5.15293e-16)
(16.0024 -2.01904 -5.43688e-16)
(8.97337 1.79891 0)
(9.97091 5.59335 7.77562e-16)
(11.8972 8.88439 1.79539e-15)
(15.1801 10.8802 0)
(18.7642 11.5573 3.09063e-15)
(21.742 11.4053 2.04515e-16)
(24.0871 10.6344 -4.06311e-16)
(25.8972 9.55669 3.63519e-15)
(27.2772 8.34143 6.82547e-15)
(28.308 7.12699 6.40056e-15)
(29.062 5.97768 -6.7183e-15)
(29.5944 4.90182 3.88702e-16)
(29.9221 3.89235 -7.6608e-16)
(30.1742 2.96515 3.7697e-16)
(30.1954 2.08147 -3.72079e-16)
(30.1235 1.23826 -2.9468e-15)
(29.9655 0.448565 -2.3682e-20)
(29.6925 -0.273741 3.54399e-16)
(29.2679 -0.918366 0)
(28.6314 -1.50116 -1.018e-14)
(27.8112 -1.97391 -1.54997e-16)
(26.9546 -2.30534 9.727e-15)
(26.1699 -2.5303 3.09884e-16)
(25.4754 -2.69793 -1.56195e-16)
(24.8567 -2.83204 0)
(24.2914 -2.93948 5.1236e-15)
(23.7662 -3.02996 0)
(23.2712 -3.08474 -5.30081e-15)
(22.8032 -3.12342 -8.44267e-17)
(22.3586 -3.14444 -6.6949e-21)
(21.9295 -3.14852 -2.63316e-15)
(21.5117 -3.13299 -1.79064e-16)
(21.1037 -3.09976 -2.83095e-15)
(20.7026 -3.04902 1.48994e-15)
(20.3058 -2.97913 0)
(19.9073 -2.88668 0)
(19.5134 -2.77064 0)
(19.0993 -2.62815 0)
(18.7474 -2.43419 -6.34009e-18)
(18.2708 -2.1872 4.18251e-16)
(10.8832 1.38182 0)
(11.5188 4.5601 -7.17324e-16)
(12.8087 7.40924 -1.37453e-15)
(14.9983 9.62899 0)
(17.9733 10.8205 -2.71249e-15)
(20.8418 11.0808 0)
(23.1759 10.734 -2.67467e-15)
(24.9819 10.0907 -2.98326e-15)
(26.3685 9.23855 -2.62483e-15)
(27.417 8.29927 -4.88606e-15)
(28.2027 7.32474 -3.24203e-16)
(28.7775 6.33164 -4.80668e-15)
(29.1763 5.33525 -1.01553e-14)
(29.428 4.35333 0)
(29.5614 3.37997 0)
(29.5878 2.41142 -2.46382e-15)
(29.5161 1.47361 0)
(29.336 0.583775 -3.05605e-16)
(29.0536 -0.240273 -3.50998e-20)
(28.672 -0.982283 2.98285e-16)
(28.2016 -1.61061 -9.35278e-15)
(27.6983 -2.07032 -1.85224e-14)
(27.2121 -2.39065 -1.80512e-14)
(26.754 -2.62856 -9.37574e-15)
(26.2999 -2.81475 -1.41275e-16)
(25.8715 -2.96377 -4.3683e-15)
(25.4413 -3.07856 0)
(25.0149 -3.16635 -1.41663e-16)
(24.598 -3.2257 2.42434e-15)
(24.1936 -3.25569 0)
(23.7979 -3.27071 -7.25217e-17)
(23.4106 -3.26312 1.24544e-15)
(23.0309 -3.23531 5.67986e-21)
(22.6581 -3.18637 -1.1235e-15)
(22.2922 -3.11574 -1.13626e-16)
(21.9275 -3.02359 6.12867e-16)
(21.5709 -2.90642 -5.81005e-16)
(21.2082 -2.76247 -3.13107e-16)
(20.9103 -2.57509 9.86054e-18)
(20.528 -2.36131 -9.95849e-18)
(12.6205 1.06509 8.39319e-17)
(13.0309 3.66208 1.26023e-15)
(13.9798 6.03139 -1.28628e-15)
(15.4041 8.14241 0)
(17.6763 9.56523 -4.71174e-19)
(20.3301 10.11 5.59615e-16)
(22.7027 10.0391 1.6702e-15)
(24.6289 9.52288 0)
(26.139 8.70718 -4.94558e-15)
(27.3094 7.72973 5.47101e-16)
(28.2059 6.67135 4.36174e-15)
(28.8692 5.59149 -3.85319e-19)
(29.3373 4.52941 4.87166e-15)
(29.6176 3.51092 -5.36249e-16)
(29.8239 2.55325 4.2257e-15)
(29.8124 1.62432 -1.45079e-19)
(29.7324 0.739574 5.21657e-16)
(29.5421 -0.0825181 -5.19753e-16)
(29.2477 -0.823381 0)
(28.8581 -1.48321 0)
(28.3977 -2.03379 1.64325e-14)
(27.9318 -2.42778 8.18082e-15)
(27.5071 -2.69608 -2.53575e-16)
(27.1269 -2.89274 8.2806e-15)
(26.778 -3.04787 3.97422e-15)
(26.4471 -3.17366 0)
(26.1252 -3.273 0)
(25.8104 -3.34911 3.89708e-15)
(25.5044 -3.39892 -3.88941e-15)
(25.2073 -3.42779 0)
(24.9059 -3.42368 -1.94449e-15)
(24.6044 -3.40618 -1.0963e-15)
(24.3082 -3.37164 2.0782e-15)
(24.0222 -3.31878 -9.20659e-16)
(23.7565 -3.24489 3.78772e-21)
(23.4944 -3.15155 -5.87934e-16)
(23.2411 -3.03312 5.28312e-16)
(22.9911 -2.89111 7.37779e-21)
(22.7812 -2.71508 0)
(22.5335 -2.53705 0)
(14.1931 0.820405 0)
(14.48 2.92308 -9.98019e-16)
(15.1098 4.92095 2.40211e-16)
(16.0757 6.77126 -2.36653e-16)
(17.6005 8.31487 1.88038e-15)
(19.7534 9.22451 1.86793e-15)
(22.0102 9.46797 -4.62855e-16)
(23.9779 9.20583 4.143e-15)
(25.5598 8.62755 3.65384e-15)
(26.794 7.86093 4.53911e-16)
(27.7472 6.97635 -4.06401e-15)
(28.4631 6.03488 -3.59247e-19)
(28.9737 5.08084 -4.02717e-15)
(29.307 4.13819 4.4571e-16)
(29.4931 3.22342 -3.52934e-15)
(29.5607 2.31491 3.49135e-15)
(29.5172 1.42347 0)
(29.3612 0.578064 0)
(29.0959 -0.198627 8.66253e-16)
(28.7284 -0.903212 -4.33661e-16)
(28.2864 -1.49492 -1.33793e-14)
(27.833 -1.93254 0)
(27.4156 -2.24474 6.82941e-15)
(27.0402 -2.48229 -4.24958e-16)
(26.6985 -2.67396 6.339e-16)
(26.3792 -2.832 -2.09625e-16)
(26.0753 -2.96019 0)
(25.7851 -3.06183 -4.76708e-15)
(25.511 -3.14098 1.4465e-15)
(25.2521 -3.19805 1.64891e-15)
(25.0059 -3.22656 3.18979e-15)
(24.769 -3.22769 -7.01135e-21)
(24.5412 -3.21238 -7.20374e-16)
(24.324 -3.17764 8.24445e-16)
(24.1201 -3.1211 5.16081e-17)
(23.9298 -3.0432 -1.03353e-16)
(23.7598 -2.94194 5.17445e-17)
(23.6113 -2.82149 1.81287e-16)
(23.4996 -2.67782 2.58972e-17)
(23.3988 -2.53733 0)
(15.6108 0.628908 0)
(15.8245 2.33998 0)
(16.2238 3.9756 1.22075e-15)
(16.9201 5.53958 -4.00062e-16)
(17.9266 6.99126 -1.57816e-15)
(19.4871 8.06862 -7.83321e-16)
(21.4506 8.60493 1.5521e-15)
(23.3905 8.61709 -7.68503e-16)
(25.0438 8.23489 0)
(26.3636 7.60665 0)
(27.3975 6.80465 3.01474e-15)
(28.1933 5.88977 6.00406e-15)
(28.7793 4.91933 2.99161e-15)
(29.179 3.93949 0)
(29.4127 2.98349 2.23466e-15)
(29.5251 2.05371 7.37685e-16)
(29.4947 1.14291 1.4664e-15)
(29.3677 0.281174 7.31218e-16)
(29.123 -0.508853 -2.92324e-15)
(28.7724 -1.2101 7.29045e-16)
(28.3429 -1.79758 -6.61796e-20)
(27.8977 -2.23022 0)
(27.4847 -2.5337 0)
(27.1117 -2.75776 0)
(26.772 -2.93159 -2.47593e-15)
(26.4546 -3.06702 -7.02967e-16)
(26.1521 -3.16985 3.48882e-16)
(25.8623 -3.24124 -1.00429e-21)
(25.589 -3.29278 -1.38343e-15)
(25.3338 -3.31004 -1.37937e-15)
(25.0923 -3.29886 -2.75347e-15)
(24.862 -3.27549 0)
(24.6463 -3.23741 0)
(24.4469 -3.18591 6.88548e-16)
(24.2636 -3.11675 8.61583e-17)
(24.0982 -3.03191 -8.62391e-17)
(23.9553 -2.93137 0)
(23.8372 -2.81935 0)
(23.7494 -2.69693 0)
(23.6891 -2.57748 1.73158e-16)
(16.8818 0.479855 0)
(17.0457 1.88458 1.09355e-15)
(17.3121 3.19604 -1.73563e-15)
(17.7801 4.50597 0)
(18.4828 5.76591 2.00199e-15)
(19.5185 6.89723 -6.57535e-16)
(21.0171 7.66965 -3.90657e-15)
(22.7629 7.94856 -2.57326e-15)
(24.4244 7.80574 0)
(25.8195 7.35847 -6.32724e-16)
(26.924 6.71703 3.77193e-15)
(27.7847 5.93193 -3.75158e-15)
(28.4354 5.0566 3.11267e-15)
(28.8955 4.14624 -3.10267e-15)
(29.1833 3.24057 -1.85929e-15)
(29.3252 2.35778 0)
(29.3442 1.48124 -1.22628e-15)
(29.2454 0.637556 1.22151e-15)
(29.0298 -0.141868 6.10082e-16)
(28.7033 -0.840899 0)
(28.294 -1.42806 4.17702e-15)
(27.8648 -1.86523 5.91208e-16)
(27.4622 -2.17571 5.8795e-16)
(27.0956 -2.40586 1.76018e-15)
(26.7605 -2.58341 -2.34895e-15)
(26.4479 -2.7226 2.93472e-16)
(26.1513 -2.83071 -2.91208e-16)
(25.8702 -2.91208 1.15834e-15)
(25.6068 -2.97001 1.44273e-15)
(25.3594 -3.00741 -5.75388e-16)
(25.1245 -3.02498 1.43553e-15)
(24.9029 -3.01845 0)
(24.698 -2.99418 0)
(24.5093 -2.95335 -1.00495e-15)
(24.3383 -2.90098 -3.59278e-16)
(24.1886 -2.83252 3.01999e-21)
(24.0622 -2.75255 -7.20203e-17)
(23.96 -2.66517 -1.80251e-16)
(23.883 -2.57363 3.60824e-17)
(23.83 -2.48442 -1.44597e-16)
(18.0139 0.366693 1.75882e-16)
(18.1421 1.51976 -7.85302e-16)
(18.3361 2.56766 2.38133e-15)
(18.6421 3.64032 1.15882e-15)
(19.1403 4.71665 -1.07837e-19)
(19.8401 5.73566 1.11154e-15)
(20.8782 6.57404 -1.8955e-19)
(22.2801 7.09381 2.16408e-15)
(23.8214 7.20689 -2.13824e-15)
(25.248 6.96487 -1.05914e-15)
(26.4271 6.48101 1.05157e-15)
(27.3547 5.8213 0)
(28.0719 5.03004 -2.07801e-15)
(28.6006 4.16078 2.07021e-15)
(28.9529 3.26367 -2.06603e-15)
(29.1463 2.37545 0)
(29.2058 1.49459 3.08767e-15)
(29.1442 0.633802 -3.07449e-15)
(28.9619 -0.1709 -1.0198e-15)
(28.6636 -0.894983 -1.12792e-19)
(28.2763 -1.49397 -9.92489e-16)
(27.861 -1.94272 0)
(27.466 -2.26344 1.46747e-15)
(27.1031 -2.50072 -1.46467e-15)
(26.7707 -2.68199 1.95463e-15)
(26.4615 -2.82173 0)
(26.1685 -2.92654 -1.94904e-15)
(25.8909 -2.99555 -9.68642e-16)
(25.6311 -3.04718 7.23441e-16)
(25.3873 -3.06607 -1.66206e-20)
(25.1599 -3.05958 1.19874e-15)
(24.9521 -3.03693 -2.39439e-16)
(24.7643 -2.99974 2.3931e-16)
(24.5939 -2.95096 4.78705e-16)
(24.4401 -2.89106 4.79021e-16)
(24.305 -2.81897 -1.1986e-16)
(24.1914 -2.74044 5.99982e-17)
(24.0996 -2.6595 1.5018e-16)
(24.029 -2.57937 3.00698e-17)
(23.9764 -2.50449 0)
(19.018 0.280781 0)
(19.1231 1.22899 5.41855e-16)
(19.268 2.07054 -1.93238e-19)
(19.4793 2.92785 -9.89957e-16)
(19.8162 3.81522 -1.92942e-15)
(20.3198 4.68888 9.4336e-16)
(21.0166 5.5066 1.85169e-15)
(22.0222 6.14125 9.11327e-16)
(23.3006 6.47885 8.98266e-16)
(24.6513 6.46873 0)
(25.872 6.1603 -2.64032e-15)
(26.864 5.65286 8.73338e-16)
(27.6403 4.99019 0)
(28.2317 4.2145 8.63456e-16)
(28.6495 3.37687 8.60244e-16)
(28.902 2.5246 0)
(29.0086 1.68191 -3.43017e-15)
(28.989 0.84547 -8.53573e-16)
(28.8473 0.0520969 1.90457e-15)
(28.585 -0.666517 -1.67068e-15)
(28.2265 -1.26254 1.6445e-15)
(27.8321 -1.71031 1.63084e-15)
(27.451 -2.03126 -1.62267e-15)
(27.0977 -2.26717 0)
(26.7734 -2.44385 8.10775e-16)
(26.4724 -2.57607 -1.21942e-15)
(26.1899 -2.67185 4.06188e-16)
(25.9262 -2.73881 8.07197e-16)
(25.6795 -2.78079 -1.20507e-15)
(25.4484 -2.79924 -4.00218e-16)
(25.2348 -2.79919 -3.99159e-16)
(25.0395 -2.7817 -5.97869e-16)
(24.8611 -2.75079 3.98348e-16)
(24.6993 -2.70905 1.99193e-16)
(24.5563 -2.65946 -3.98622e-16)
(24.433 -2.60447 0)
(24.3295 -2.54665 0)
(24.2446 -2.48794 0)
(24.1768 -2.42935 0)
(24.1229 -2.37562 0)
(19.9052 0.215258 0)
(19.9945 0.996432 -4.674e-16)
(20.1058 1.66839 -4.39973e-16)
(20.2626 2.35497 8.47051e-16)
(20.491 3.07705 -1.64396e-15)
(20.8411 3.80951 -1.60305e-15)
(21.3306 4.51581 0)
(22.0158 5.1589 -1.53828e-15)
(22.9703 5.62724 0)
(24.1219 5.82378 -2.98747e-15)
(25.3027 5.71923 2.95363e-15)
(26.3434 5.36782 -1.46331e-15)
(27.1749 4.84598 0)
(27.8205 4.18427 1.44275e-15)
(28.3001 3.42215 -1.43572e-15)
(28.6171 2.60983 0)
(28.7789 1.79135 1.42667e-15)
(28.806 0.970412 -7.10081e-16)
(28.7094 0.173172 8.79997e-16)
(28.4895 -0.560714 -7.02813e-20)
(28.1653 -1.1716 2.7334e-15)
(27.7938 -1.6293 -2.71127e-15)
(27.4266 -1.96017 0)
(27.0823 -2.20461 0)
(26.7649 -2.38703 0)
(26.4706 -2.5231 0)
(26.1949 -2.62002 -4.93382e-21)
(25.9358 -2.69295 -6.74172e-16)
(25.6917 -2.73264 6.70819e-16)
(25.4652 -2.74983 3.34177e-16)
(25.2608 -2.74753 -6.66446e-16)
(25.0788 -2.729 6.65224e-16)
(24.9166 -2.69796 -6.645e-16)
(24.7729 -2.6568 1.66054e-16)
(24.6464 -2.60792 4.72338e-21)
(24.5365 -2.55525 4.882e-21)
(24.4433 -2.50141 -2.49514e-16)
(24.3652 -2.44834 -8.32698e-17)
(24.3007 -2.39671 0)
(24.2473 -2.3496 0)
(20.6861 0.165141 0)
(20.7642 0.810236 -8.04839e-16)
(20.8519 1.34749 -7.55599e-16)
(20.9703 1.89828 1.44948e-15)
(21.1349 2.47195 1.40122e-15)
(21.3768 3.06793 1.48557e-19)
(21.7282 3.67131 1.33041e-15)
(22.2013 4.24718 -1.30141e-15)
(22.8613 4.74327 1.27755e-15)
(23.744 5.07684 -5.03274e-15)
(24.7686 5.16633 2.48361e-15)
(25.7929 4.99211 -2.45562e-15)
(26.6731 4.61862 4.86608e-15)
(27.366 4.09023 0)
(27.8967 3.43535 0)
(28.2751 2.69605 0)
(28.4981 1.92084 0)
(28.5777 1.14045 -1.18123e-15)
(28.5309 0.363671 1.46309e-15)
(28.3605 -0.364913 -1.87647e-15)
(28.0794 -0.984167 -1.1357e-15)
(27.7389 -1.44051 2.25176e-15)
(27.3913 -1.7709 -1.12095e-15)
(27.061 -2.01439 0)
(26.7557 -2.19384 -4.35105e-20)
(26.4729 -2.32425 1.12271e-15)
(26.2111 -2.41582 1.12618e-15)
(25.9684 -2.47445 1.68516e-15)
(25.7425 -2.50852 -5.58563e-16)
(25.5351 -2.52018 -5.56252e-16)
(25.3471 -2.51328 0)
(25.1773 -2.49363 5.53376e-16)
(25.0245 -2.46492 9.579e-21)
(24.8889 -2.42941 -5.52451e-16)
(24.7709 -2.38938 2.7624e-16)
(24.6693 -2.34677 -1.3818e-16)
(24.5824 -2.30356 7.83412e-22)
(24.508 -2.26144 1.38466e-16)
(24.4446 -2.22122 3.46627e-17)
(24.3904 -2.18505 3.47293e-17)
(21.3708 0.126358 0)
(21.4404 0.660658 -3.45751e-16)
(21.5103 1.09066 6.48011e-16)
(21.6027 1.529 -1.2392e-15)
(21.7281 1.98739 -1.19384e-15)
(21.898 2.4653 3.47476e-15)
(22.1449 2.9542 0)
(22.4879 3.44182 2.20423e-15)
(22.9439 3.90435 0)
(23.5693 4.28028 4.24448e-15)
(24.3708 4.50409 2.09081e-15)
(25.2739 4.51272 -2.06362e-15)
(26.1526 4.2908 2.04193e-15)
(26.8865 3.90107 0)
(27.4578 3.3716 0)
(27.8861 2.73052 1.9908e-15)
(28.17 2.01821 3.28894e-20)
(28.307 1.28372 -9.27405e-20)
(28.3125 0.537466 -2.92075e-15)
(28.1953 -0.183577 1.1993e-16)
(27.966 -0.81062 3.78016e-15)
(27.6643 -1.27202 -2.80786e-15)
(27.3394 -1.60736 -9.32182e-16)
(27.025 -1.85559 3.50018e-20)
(26.7329 -2.03871 -1.86261e-15)
(26.4627 -2.17158 0)
(26.2122 -2.26449 0)
(25.9776 -2.3279 6.90254e-22)
(25.7592 -2.36511 0)
(25.5611 -2.38088 -1.24897e-20)
(25.3838 -2.37996 4.62434e-16)
(25.2261 -2.36628 -2.30681e-16)
(25.0874 -2.34265 0)
(24.966 -2.31194 2.30126e-16)
(24.8594 -2.27681 -4.60135e-16)
(24.766 -2.23954 2.30113e-16)
(24.6854 -2.20182 1.15141e-16)
(24.6161 -2.16493 -1.15245e-16)
(24.5568 -2.12943 1.15373e-16)
(24.5054 -2.09694 -5.77849e-17)
(21.9676 0.0963702 0)
(22.0295 0.540943 -5.92562e-16)
(22.087 0.88551 1.10869e-15)
(22.1608 1.23242 -2.11452e-15)
(22.2581 1.59798 -1.0163e-15)
(22.3841 1.97377 3.93423e-15)
(22.5591 2.3656 -1.91417e-15)
(22.8043 2.77042 8.89783e-21)
(23.1311 3.16215 -1.82569e-15)
(23.5649 3.52325 2.42086e-20)
(24.1479 3.80032 3.52334e-15)
(24.8647 3.93466 -5.21027e-15)
(25.6528 3.87509 -1.71458e-15)
(26.3967 3.62039 5.08763e-15)
(27 3.22261 -3.35815e-15)
(27.4635 2.70055 1.66391e-15)
(27.7973 2.08056 -3.3002e-15)
(27.992 1.40701 2.45456e-15)
(28.0518 0.713425 -2.4305e-15)
(27.9902 0.0194072 3.19486e-15)
(27.8198 -0.597477 1.0649e-19)
(27.5659 -1.06691 -3.89088e-16)
(27.2711 -1.40231 -7.75188e-16)
(26.9774 -1.64961 3.86936e-15)
(26.703 -1.83168 -3.09644e-15)
(26.4497 -1.96261 1.16295e-15)
(26.2155 -2.05314 -7.77068e-16)
(26.001 -2.11206 3.89437e-16)
(25.8053 -2.14377 0)
(25.6262 -2.15536 7.72478e-16)
(25.4647 -2.1523 -5.77178e-16)
(25.3206 -2.13837 0)
(25.1924 -2.11679 0)
(25.0792 -2.09035 -1.91352e-16)
(24.9807 -2.0609 -1.91269e-16)
(24.8953 -2.02985 3.82526e-16)
(24.8213 -1.9985 0)
(24.7568 -1.96788 0)
(24.7007 -1.93835 0)
(24.6514 -1.91142 4.79919e-17)
(22.4845 0.0738457 2.81105e-16)
(22.5389 0.443656 1.01305e-15)
(22.5884 0.719668 -9.46327e-16)
(22.6482 0.993584 9.00352e-16)
(22.7254 1.28349 -2.5912e-15)
(22.8231 1.5815 5.00623e-15)
(22.9496 1.89107 -1.50434e-19)
(23.1257 2.21165 -1.57956e-15)
(23.3629 2.5377 3.08639e-15)
(23.6702 2.84906 -3.0238e-15)
(24.0768 3.1227 -2.97e-15)
(24.6093 3.31634 -1.46188e-15)
(25.241 3.37818 4.32554e-15)
(25.9183 3.26534 -1.42373e-15)
(26.5373 2.99498 1.40696e-15)
(27.026 2.59473 -2.78458e-15)
(27.3929 2.08416 2.75613e-15)
(27.6374 1.49253 -1.36427e-15)
(27.751 0.863866 -4.04662e-15)
(27.7433 0.214975 -5.99335e-20)
(27.6315 -0.380428 2.94509e-15)
(27.4336 -0.854236 -2.91511e-15)
(27.18 -1.18815 2.57931e-15)
(26.9116 -1.43462 1.28752e-15)
(26.6574 -1.61703 -1.28733e-15)
(26.4233 -1.74883 -9.66665e-16)
(26.2072 -1.84061 1.29098e-15)
(26.0075 -1.90122 0)
(25.8235 -1.93882 1.2941e-15)
(25.6562 -1.95721 -1.28787e-15)
(25.5069 -1.96103 6.41418e-16)
(25.3751 -1.95416 -1.27904e-15)
(25.2594 -1.93954 7.97715e-16)
(25.1582 -1.91945 4.77983e-16)
(25.0695 -1.89603 -4.77605e-16)
(24.9916 -1.87093 3.18327e-16)
(24.9236 -1.84528 -3.18395e-16)
(24.8644 -1.81991 -7.96373e-17)
(24.8129 -1.79517 0)
(24.7677 -1.77215 -1.29188e-21)
(22.9291 0.0570397 2.39358e-16)
(22.9769 0.363511 -4.31786e-16)
(23.0204 0.585171 -3.222e-15)
(23.0692 0.801471 3.05983e-15)
(23.1313 1.03036 -1.4648e-19)
(23.2083 1.26554 0)
(23.3039 1.50552 0)
(23.4325 1.75793 -1.33509e-15)
(23.605 2.02075 3.90993e-15)
(23.8295 2.27815 2.55139e-15)
(24.1163 2.51902 -5.00704e-15)
(24.4922 2.7176 2.46166e-15)
(24.9683 2.84031 -1.09116e-14)
(25.5179 2.84598 4.78317e-15)
(26.0873 2.69479 -1.18071e-15)
(26.5878 2.41224 0)
(26.9752 2.01667 0)
(27.2543 1.52733 1.13825e-15)
(27.4149 0.975045 1.24305e-19)
(27.4578 0.392719 0)
(27.4008 -0.163733 1.9073e-15)
(27.2641 -0.619986 -2.15821e-15)
(27.0615 -0.953838 3.35485e-17)
(26.825 -1.19751 0)
(26.595 -1.37759 2.1415e-15)
(26.3833 -1.50868 -2.14259e-15)
(26.1891 -1.60074 -2.68133e-16)
(26.0112 -1.66211 1.07403e-15)
(25.8499 -1.69941 -1.07545e-15)
(25.7039 -1.7181 1.34081e-16)
(25.5718 -1.72335 -1.33493e-16)
(25.454 -1.71897 -1.33047e-16)
(25.3501 -1.7079 -5.30914e-16)
(25.2586 -1.69237 5.30017e-16)
(25.1785 -1.67408 1.53626e-21)
(25.1086 -1.65415 0)
(25.0477 -1.63353 0)
(24.9942 -1.613 1.32325e-16)
(24.9473 -1.59286 -6.61983e-17)
(24.9059 -1.57409 3.31298e-17)
(23.3086 0.0443299 1.22007e-15)
(23.3503 0.296767 -1.10121e-15)
(23.3888 0.475989 0)
(23.4297 0.647093 3.89129e-15)
(23.4799 0.826513 -2.48176e-15)
(23.5414 1.0108 0)
(23.6161 1.1979 -4.63511e-15)
(23.7115 1.39456 -2.25374e-15)
(23.8381 1.59922 1.91895e-19)
(24.0014 1.80504 3.22778e-15)
(24.2092 2.00186 1.05488e-15)
(24.475 2.18154 2.07216e-15)
(24.8175 2.3195 4.07792e-15)
(25.2349 2.38282 -6.02677e-15)
(25.7047 2.33886 -2.27959e-19)
(26.172 2.16351 3.90796e-15)
(26.5664 1.87747 -1.9279e-15)
(26.8632 1.49595 0)
(27.0581 1.03538 -2.81051e-15)
(27.1446 0.532168 -9.21548e-16)
(27.1353 0.032867 0)
(27.0529 -0.389877 0)
(26.9064 -0.717523 -2.79398e-17)
(26.7139 -0.956242 -1.39342e-17)
(26.5124 -1.13193 -1.78192e-15)
(26.3249 -1.26115 1.7818e-15)
(26.1538 -1.35385 -1.56001e-15)
(25.9966 -1.41776 1.78435e-15)
(25.8524 -1.45976 1.67458e-15)
(25.7212 -1.48534 -2.67968e-15)
(25.6032 -1.49777 -2.95222e-20)
(25.4986 -1.50035 8.86906e-16)
(25.4066 -1.49614 7.73912e-16)
(25.326 -1.48731 -8.27509e-16)
(25.2553 -1.47539 -4.40746e-16)
(25.1932 -1.46161 4.95423e-16)
(25.1386 -1.4469 -2.75154e-16)
(25.0908 -1.43187 1.6509e-16)
(25.0488 -1.41686 -1.10096e-16)
(25.0118 -1.40251 1.10173e-16)
(23.6297 0.0347488 -1.37857e-15)
(23.6658 0.241388 9.3385e-16)
(23.6994 0.385995 0)
(23.7348 0.521686 -1.09748e-15)
(23.7762 0.662206 -1.04871e-15)
(23.8254 0.805269 0)
(23.8845 0.95067 1.95522e-15)
(23.9575 1.10201 1.90047e-15)
(24.0519 1.26005 -9.26776e-15)
(24.1722 1.42127 9.06213e-15)
(24.3243 1.57954 -7.10379e-15)
(24.5145 1.72745 6.97306e-15)
(24.7561 1.85327 0)
(25.06 1.93813 1.68686e-15)
(25.418 1.95383 1.66162e-15)
(25.8088 1.87178 -4.91255e-15)
(26.1818 1.68526 4.8404e-15)
(26.4834 1.40408 -4.76695e-15)
(26.6969 1.04237 3.12663e-15)
(26.8154 0.622888 -7.67845e-16)
(26.8446 0.195604 7.56585e-16)
(26.8062 -0.180996 -7.4977e-16)
(26.7131 -0.483899 0)
(26.5723 -0.713188 -1.74113e-16)
(26.4068 -0.883055 0)
(26.2457 -1.00844 2.89573e-18)
(26.0989 -1.09975 1.43622e-15)
(25.9655 -1.16459 -1.48296e-15)
(25.8439 -1.20871 9.27287e-17)
(25.7344 -1.23673 -9.27713e-17)
(25.6362 -1.2525 1.48295e-15)
(25.5476 -1.25941 -1.29292e-15)
(25.468 -1.26 -7.36487e-16)
(25.3976 -1.25619 1.42357e-15)
(25.3357 -1.24939 -6.87664e-16)
(25.2814 -1.24069 3.20559e-16)
(25.2337 -1.23082 9.15398e-17)
(25.1917 -1.22037 -5.49074e-16)
(25.1547 -1.20972 1.60161e-16)
(25.1219 -1.19935 0)
(23.899 0.0274708 -1.74847e-15)
(23.9297 0.195381 2.10697e-15)
(23.959 0.311714 0)
(23.9894 0.419279 1.85319e-15)
(24.0243 0.529489 1.76924e-15)
(24.0643 0.640533 0)
(24.1113 0.752895 -1.64715e-15)
(24.1682 0.868829 6.4002e-15)
(24.2394 0.989348 -6.23965e-15)
(24.3288 1.11233 -1.52483e-15)
(24.4404 1.23461 -7.46761e-15)
(24.5794 1.35137 5.86142e-15)
(24.752 1.45744 1.43939e-15)
(24.9683 1.53996 -5.66275e-15)
(25.231 1.58112 1.254e-14)
(25.5317 1.55997 -6.8588e-15)
(25.8464 1.45302 0)
(26.1312 1.25906 1.32802e-15)
(26.3498 0.990507 1.30495e-15)
(26.4879 0.65932 2.5601e-15)
(26.5448 0.309652 -5.67673e-15)
(26.5388 -0.0105704 5.62869e-15)
(26.4885 -0.275574 0)
(26.3965 -0.486824 4.64457e-16)
(26.2737 -0.647224 0)
(26.1439 -0.766771 -2.4714e-15)
(26.0218 -0.855145 2.50605e-15)
(25.9103 -0.919587 0)
(25.8087 -0.965663 0)
(25.7162 -0.997694 0)
(25.6326 -1.01917 3.85698e-17)
(25.5577 -1.03248 -1.30964e-15)
(25.491 -1.03945 1.26669e-15)
(25.4317 -1.04176 0)
(25.3792 -1.0408 6.11238e-16)
(25.3329 -1.03762 -1.22073e-15)
(25.2921 -1.033 3.04913e-16)
(25.256 -1.02748 6.09539e-16)
(25.2241 -1.02149 -3.99957e-16)
(25.1958 -1.01522 1.33351e-16)
(24.1225 0.0217178 -2.45895e-15)
(24.1485 0.157355 1.77879e-15)
(24.1736 0.250507 0)
(24.1996 0.335491 -7.80901e-15)
(24.2291 0.42176 4.46968e-15)
(24.2622 0.507846 -5.72931e-15)
(24.3001 0.594154 -5.54136e-15)
(24.3449 0.682311 1.34528e-14)
(24.3995 0.773174 1.17992e-14)
(24.4667 0.865961 -7.68702e-15)
(24.5494 0.95898 1.25448e-15)
(24.6513 1.0494 0)
(24.7757 1.13246 1.20792e-15)
(24.929 1.20198 2.37447e-15)
(25.1168 1.24788 -1.16759e-15)
(25.3373 1.25424 2.29719e-15)
(25.5814 1.20369 0)
(25.8264 1.08471 0)
(26.0352 0.895418 2.17841e-15)
(26.1803 0.648078 -5.33624e-15)
(26.2532 0.372665 0)
(26.2691 0.113872 4.17475e-15)
(26.2482 -0.107128 -7.78103e-15)
(26.1959 -0.290261 3.35764e-15)
(26.115 -0.434288 0)
(26.0192 -0.544811 -1.2858e-16)
(25.9243 -0.628151 0)
(25.8362 -0.690205 0)
(25.7552 -0.735925 0)
(25.6814 -0.769003 0)
(25.615 -0.792353 -2.08472e-15)
(25.5556 -0.808297 2.02077e-15)
(25.5024 -0.818692 9.92726e-16)
(25.4547 -0.824924 -1.02147e-15)
(25.4119 -0.828093 0)
(25.3735 -0.829054 0)
(25.3392 -0.828443 -3.17528e-17)
(25.3087 -0.826739 0)
(25.2816 -0.82436 -3.17189e-17)
(25.2574 -0.821377 1.80143e-22)
(24.3064 0.0171936 0)
(24.3281 0.126008 -5.80746e-15)
(24.3494 0.200196 1.2527e-14)
(24.3714 0.267086 -5.25519e-15)
(24.3961 0.334399 1.00198e-14)
(24.4235 0.400911 -8.26594e-20)
(24.4543 0.466879 -9.30748e-15)
(24.49 0.533585 -4.51764e-15)
(24.5322 0.601612 0)
(24.5833 0.67097 -2.14996e-15)
(24.6452 0.740536 -6.31374e-15)
(24.7201 0.808315 1.03171e-14)
(24.8107 0.871477 -2.02522e-15)
(24.9206 0.926969 -1.98923e-15)
(25.054 0.968074 0)
(25.2121 0.984996 -1.92177e-15)
(25.3919 0.966264 7.55412e-15)
(25.5816 0.897985 -9.27246e-15)
(25.7615 0.772944 1.81811e-15)
(25.9033 0.595952 -7.11813e-15)
(25.9843 0.389082 -1.75382e-15)
(26.0132 0.189327 6.96732e-15)
(26.01 0.0131399 -4.32946e-16)
(25.9853 -0.136114 4.31083e-16)
(25.9385 -0.258643 4.2979e-16)
(25.8743 -0.355831 1.07214e-16)
(25.8054 -0.431198 2.14115e-16)
(25.7395 -0.488955 -3.52932e-15)
(25.6781 -0.532849 3.42005e-15)
(25.6211 -0.565948 1.73603e-15)
(25.5688 -0.590751 -3.43138e-15)
(25.5214 -0.6092 2.66801e-17)
(25.4789 -0.622753 -2.03122e-20)
(25.4408 -0.632551 3.41214e-15)
(25.4069 -0.639457 -2.55201e-15)
(25.3764 -0.644149 8.48898e-16)
(25.3492 -0.647158 4.23836e-16)
(25.3249 -0.648896 -4.23411e-16)
(25.303 -0.649788 1.85137e-16)
(25.2834 -0.64972 -1.98321e-16)
(24.4561 0.013618 -1.39287e-15)
(24.474 0.100263 -1.57548e-16)
(24.4918 0.158981 8.18844e-15)
(24.5103 0.211374 -8.82611e-15)
(24.5309 0.263657 -2.10227e-15)
(24.5536 0.314831 2.01899e-15)
(24.5786 0.365061 1.56089e-14)
(24.6071 0.415315 -2.84033e-14)
(24.6401 0.46606 3.13544e-14)
(24.6792 0.517384 -1.81064e-19)
(24.7258 0.568576 -2.99732e-14)
(24.7813 0.618496 -1.72794e-15)
(24.8477 0.665574 1.35654e-14)
(24.9266 0.707107 -1.66489e-15)
(25.0209 0.739292 -1.14482e-14)
(25.1329 0.756911 1.2853e-14)
(25.2616 0.752139 -1.10435e-14)
(25.4022 0.715106 1.23848e-14)
(25.5431 0.638882 -6.0664e-15)
(25.6671 0.51845 5.93247e-15)
(25.7496 0.370506 1.46183e-15)
(25.7849 0.221691 0)
(25.7917 0.0877262 5.78111e-15)
(25.7831 -0.0281706 -5.75655e-15)
(25.7597 -0.126532 -3.58612e-16)
(25.7222 -0.206932 -3.57772e-16)
(25.6767 -0.271272 5.53547e-15)
(25.6308 -0.322025 -5.79578e-15)
(25.5872 -0.361759 2.85075e-15)
(25.5463 -0.392701 -2.87115e-15)
(25.5083 -0.416701 2.85904e-15)
(25.4733 -0.435242 -5.69493e-15)
(25.4415 -0.44952 2.85028e-15)
(25.4127 -0.46049 1.41805e-15)
(25.3867 -0.468904 -1.42107e-15)
(25.3632 -0.475339 7.08846e-16)
(25.3421 -0.48024 -7.07614e-16)
(25.3231 -0.483934 -2.20856e-17)
(25.306 -0.486804 2.2068e-17)
(25.2906 -0.488604 2.2059e-17)
(24.5768 0.0107844 -1.16908e-15)
(24.5914 0.0792295 0)
(24.6061 0.125387 0)
(24.6215 0.166198 -1.84984e-15)
(24.6385 0.206588 1.76157e-15)
(24.6571 0.245758 1.69098e-15)
(24.6774 0.283806 -3.26714e-15)
(24.7001 0.321454 0)
(24.7261 0.35906 -1.3892e-14)
(24.7561 0.39669 1.20589e-14)
(24.7913 0.433962 0)
(24.8326 0.470163 0)
(24.8813 0.504264 0)
(24.9385 0.534476 1.39186e-15)
(25.0057 0.558799 1.36663e-15)
(25.0846 0.573837 2.68363e-15)
(25.1751 0.574554 -1.31686e-15)
(25.2755 0.554953 1.16217e-14)
(25.3798 0.508808 -1.01148e-14)
(25.4778 0.431385 7.41332e-15)
(25.5519 0.329175 -1.94882e-14)
(25.5904 0.222587 2.05967e-14)
(25.6028 0.124687 -7.42981e-21)
(25.6021 0.0379878 -1.02073e-14)
(25.5927 -0.0368126 5.98525e-16)
(25.5734 -0.10002 -1.28624e-20)
(25.5459 -0.152248 2.97945e-16)
(25.5159 -0.194604 2.97517e-16)
(25.4865 -0.228692 1.48607e-16)
(25.4585 -0.256064 0)
(25.4319 -0.278039 -2.37487e-15)
(25.4072 -0.295682 2.37432e-15)
(25.3844 -0.309853 -2.31858e-18)
(25.3635 -0.321254 4.6378e-18)
(25.3445 -0.330451 0)
(25.3273 -0.337896 0)
(25.3116 -0.343946 0)
(25.2974 -0.348858 3.68976e-17)
(25.2846 -0.352984 0)
(25.2729 -0.356001 -1.84191e-17)
(24.6731 0.00853602 7.83827e-15)
(24.6848 0.062162 3.65768e-15)
(24.6969 0.0981896 -6.57615e-15)
(24.7095 0.129794 4.64503e-15)
(24.7234 0.160822 0)
(24.7384 0.190644 -2.82834e-15)
(24.7548 0.219322 5.44085e-20)
(24.7729 0.247387 -2.11967e-14)
(24.7933 0.275111 1.8059e-14)
(24.8165 0.30253 -2.01515e-14)
(24.8432 0.329445 1.97171e-14)
(24.874 0.355413 0)
(24.9097 0.379716 -2.36854e-15)
(24.9512 0.401254 0)
(24.9992 0.418663 1.59701e-14)
(25.0547 0.429891 -2.01526e-14)
(25.118 0.431974 0)
(25.1883 0.421236 1.72217e-14)
(25.2627 0.393243 -3.16011e-14)
(25.3351 0.344192 1.64624e-14)
(25.395 0.276765 8.11499e-15)
(25.432 0.203276 -7.06785e-15)
(25.4472 0.133821 0)
(25.4506 0.0713468 -8.51365e-15)
(25.4481 0.0166514 6.98996e-15)
(25.4397 -0.0307272 2.4903e-16)
(25.4254 -0.0707723 7.95394e-15)
(25.4077 -0.104086 -1.20377e-14)
(25.3893 -0.131566 3.84298e-15)
(25.3713 -0.154167 -3.9639e-15)
(25.354 -0.172762 3.96202e-15)
(25.3375 -0.188081 6.18923e-17)
(25.3221 -0.200726 0)
(25.3078 -0.211196 0)
(25.2946 -0.219901 0)
(25.2825 -0.227173 0)
(25.2715 -0.233282 9.88323e-16)
(25.2613 -0.238416 -9.86661e-16)
(25.2521 -0.242872 -2.30976e-16)
(25.2436 -0.246305 2.4618e-16)
(24.7491 0.00675494 -4.9192e-15)
(24.7585 0.0484201 -9.27414e-17)
(24.7682 0.0763413 0)
(24.7784 0.100674 -5.17564e-15)
(24.7896 0.124373 2.46184e-15)
(24.8018 0.146953 0)
(24.8149 0.168454 2.27987e-15)
(24.8292 0.189268 -4.42238e-15)
(24.8451 0.209596 2.15269e-15)
(24.863 0.229453 -1.68128e-14)