/*--------------------------------*- C++ -*----------------------------------*\
  =========                 |
  \\      /  F ield         | OpenFOAM: The Open Source CFD Toolbox
   \\    /   O peration     | Website:  https://openfoam.org
    \\  /    A nd           | Version:  8
     \\/     M anipulation  |
\*---------------------------------------------------------------------------*/
FoamFile
{
    version     2.0;
    format      ascii;
    class       volScalarField;
    location    "18";
    object      p;
}
// * * * * * * * * * * * * * * * * * * * * * * * * * * * * * * * * * * * * * //

dimensions      [0 2 -2 0 0 0 0];

internalField   nonuniform List<scalar> 
277560
(
-0.579706
-0.580474
-0.58238
-0.58519
-0.5888
-0.593195
-0.598347
-0.604204
-0.610721
-0.617856
-0.62557
-0.633826
-0.642584
-0.651811
-0.661471
-0.671533
-0.681964
-0.692734
-0.703815
-0.715179
-0.7268
-0.738652
-0.750711
-0.762956
-0.775362
-0.787912
-0.800583
-0.813359
-0.826221
-0.839152
-0.852138
-0.865162
-0.87821
-0.89127
-0.904328
-0.917373
-0.930394
-0.943381
-0.956323
-0.969212
-0.982038
-0.994795
-1.00748
-1.02007
-1.03258
-1.04499
-1.05729
-1.06949
-1.08159
-1.09356
-1.10542
-1.11715
-1.12876
-1.14024
-1.15159
-1.16281
-1.17389
-1.18484
-1.19565
-1.20632
-1.21685
-1.22725
-1.2375
-1.24761
-1.25758
-1.2674
-1.27709
-1.28663
-1.29604
-1.3053
-1.31443
-1.32341
-1.33226
-1.34097
-1.34955
-1.35799
-1.36629
-1.37447
-1.38251
-1.39042
-1.3982
-1.40585
-1.41338
-1.42078
-1.42806
-1.43522
-1.44225
-1.44917
-1.45597
-1.46265
-1.46922
-1.47568
-1.48202
-1.48826
-1.49438
-1.5004
-1.50632
-1.51213
-1.51784
-1.52345
-1.52896
-1.53438
-1.5397
-1.54492
-1.55005
-1.55509
-1.56004
-1.56491
-1.56968
-1.57438
-1.57898
-1.58351
-1.58795
-1.59232
-1.5966
-1.60081
-1.60495
-1.60901
-1.61299
-1.61691
-0.579286
-0.58003
-0.58192
-0.584726
-0.588333
-0.592725
-0.597873
-0.603728
-0.610243
-0.617376
-0.62509
-0.633344
-0.642102
-0.651329
-0.660989
-0.671051
-0.681483
-0.692255
-0.703337
-0.714703
-0.726325
-0.73818
-0.750242
-0.762489
-0.774899
-0.787452
-0.800127
-0.812907
-0.825773
-0.838709
-0.851699
-0.864727
-0.877781
-0.890846
-0.90391
-0.916961
-0.929987
-0.94298
-0.955928
-0.968823
-0.981657
-0.99442
-1.00711
-1.01971
-1.03222
-1.04464
-1.05695
-1.06916
-1.08126
-1.09324
-1.10511
-1.11685
-1.12846
-1.13995
-1.15131
-1.16254
-1.17363
-1.18458
-1.1954
-1.20608
-1.21662
-1.22702
-1.23728
-1.2474
-1.25737
-1.26721
-1.2769
-1.28645
-1.29587
-1.30514
-1.31427
-1.32326
-1.33212
-1.34084
-1.34942
-1.35787
-1.36618
-1.37436
-1.38241
-1.39033
-1.39811
-1.40578
-1.41331
-1.42072
-1.428
-1.43517
-1.44221
-1.44913
-1.45594
-1.46263
-1.46921
-1.47567
-1.48202
-1.48826
-1.4944
-1.50042
-1.50634
-1.51216
-1.51788
-1.52349
-1.52901
-1.53443
-1.53976
-1.54499
-1.55012
-1.55517
-1.56013
-1.56499
-1.56978
-1.57447
-1.57908
-1.58361
-1.58806
-1.59243
-1.59672
-1.60094
-1.60507
-1.60914
-1.61313
-1.61705
-0.578497
-0.579244
-0.581132
-0.583936
-0.58754
-0.591929
-0.597075
-0.602928
-0.609441
-0.616574
-0.624287
-0.632542
-0.641301
-0.650528
-0.660191
-0.670256
-0.68069
-0.691466
-0.702552
-0.713922
-0.72555
-0.73741
-0.749478
-0.761732
-0.774149
-0.786709
-0.799392
-0.81218
-0.825054
-0.837999
-0.850998
-0.864037
-0.8771
-0.890175
-0.903249
-0.916311
-0.929348
-0.942352
-0.955312
-0.968218
-0.981063
-0.993839
-1.00654
-1.01915
-1.03168
-1.04411
-1.05643
-1.06865
-1.08076
-1.09276
-1.10464
-1.11639
-1.12802
-1.13952
-1.15089
-1.16213
-1.17323
-1.1842
-1.19503
-1.20573
-1.21628
-1.22669
-1.23696
-1.24709
-1.25708
-1.26693
-1.27663
-1.2862
-1.29562
-1.30491
-1.31405
-1.32306
-1.33192
-1.34065
-1.34925
-1.3577
-1.36603
-1.37422
-1.38228
-1.39021
-1.39801
-1.40568
-1.41322
-1.42064
-1.42794
-1.43511
-1.44216
-1.44909
-1.45591
-1.46261
-1.46919
-1.47567
-1.48203
-1.48828
-1.49442
-1.50045
-1.50638
-1.51221
-1.51793
-1.52356
-1.52908
-1.53451
-1.53984
-1.54508
-1.55023
-1.55528
-1.56024
-1.56512
-1.56991
-1.57461
-1.57923
-1.58377
-1.58822
-1.5926
-1.5969
-1.60112
-1.60526
-1.60933
-1.61333
-1.61725
-0.57733
-0.578068
-0.579946
-0.58274
-0.586337
-0.590719
-0.595858
-0.601707
-0.608217
-0.615347
-0.623058
-0.631312
-0.640071
-0.6493
-0.658964
-0.669031
-0.67947
-0.690249
-0.70134
-0.712716
-0.724351
-0.736218
-0.748294
-0.760556
-0.772982
-0.785552
-0.798246
-0.811045
-0.823931
-0.836888
-0.8499
-0.862952
-0.876029
-0.889119
-0.902208
-0.915285
-0.928338
-0.941358
-0.954334
-0.967257
-0.980119
-0.992912
-1.00563
-1.01826
-1.0308
-1.04325
-1.0556
-1.06784
-1.07997
-1.09198
-1.10388
-1.11565
-1.1273
-1.13882
-1.15021
-1.16147
-1.17259
-1.18358
-1.19443
-1.20514
-1.21571
-1.22614
-1.23643
-1.24658
-1.25659
-1.26646
-1.27618
-1.28577
-1.29521
-1.30451
-1.31368
-1.3227
-1.33158
-1.34033
-1.34894
-1.35742
-1.36576
-1.37397
-1.38205
-1.38999
-1.39781
-1.4055
-1.41306
-1.4205
-1.42781
-1.435
-1.44207
-1.44902
-1.45585
-1.46256
-1.46916
-1.47565
-1.48202
-1.48829
-1.49445
-1.5005
-1.50644
-1.51228
-1.51802
-1.52366
-1.5292
-1.53464
-1.53998
-1.54524
-1.55039
-1.55546
-1.56044
-1.56532
-1.57012
-1.57484
-1.57947
-1.58402
-1.58849
-1.59287
-1.59718
-1.60141
-1.60557
-1.60965
-1.61366
-1.61759
-0.57579
-0.576514
-0.578381
-0.581164
-0.584752
-0.589126
-0.594259
-0.600103
-0.606609
-0.613736
-0.621445
-0.629698
-0.638458
-0.647688
-0.657356
-0.667427
-0.67787
-0.688655
-0.699754
-0.711138
-0.722782
-0.734659
-0.746746
-0.75902
-0.771459
-0.784043
-0.796751
-0.809565
-0.822468
-0.835442
-0.848471
-0.861541
-0.874638
-0.887747
-0.900856
-0.913953
-0.927028
-0.940069
-0.953067
-0.966013
-0.978898
-0.991714
-1.00445
-1.01711
-1.02968
-1.04215
-1.05452
-1.06679
-1.07894
-1.09098
-1.1029
-1.1147
-1.12637
-1.13792
-1.14934
-1.16062
-1.17177
-1.18278
-1.19366
-1.2044
-1.21499
-1.22545
-1.23577
-1.24594
-1.25597
-1.26587
-1.27562
-1.28522
-1.29469
-1.30402
-1.31321
-1.32225
-1.33116
-1.33994
-1.34857
-1.35707
-1.36544
-1.37367
-1.38177
-1.38973
-1.39757
-1.40528
-1.41286
-1.42032
-1.42766
-1.43487
-1.44196
-1.44892
-1.45578
-1.46251
-1.46913
-1.47564
-1.48203
-1.48832
-1.49449
-1.50056
-1.50652
-1.51238
-1.51814
-1.52379
-1.52935
-1.53481
-1.54017
-1.54543
-1.55061
-1.55569
-1.56068
-1.56559
-1.5704
-1.57513
-1.57978
-1.58434
-1.58882
-1.59322
-1.59754
-1.60179
-1.60596
-1.61005
-1.61407
-1.61802
-0.573884
-0.574591
-0.576443
-0.579214
-0.58279
-0.587154
-0.592279
-0.598116
-0.604616
-0.611739
-0.619446
-0.627698
-0.636459
-0.645691
-0.655361
-0.665437
-0.675886
-0.686679
-0.697786
-0.70918
-0.720834
-0.732724
-0.744824
-0.757113
-0.769568
-0.782168
-0.794894
-0.807727
-0.820649
-0.833643
-0.846694
-0.859786
-0.872905
-0.886038
-0.899172
-0.912294
-0.925395
-0.938463
-0.951488
-0.964461
-0.977375
-0.990219
-1.00299
-1.01567
-1.02827
-1.04077
-1.05317
-1.06547
-1.07765
-1.08973
-1.10168
-1.11351
-1.12521
-1.13679
-1.14824
-1.15955
-1.17074
-1.18178
-1.19269
-1.20346
-1.21409
-1.22457
-1.23492
-1.24513
-1.25519
-1.26512
-1.2749
-1.28454
-1.29403
-1.30339
-1.31261
-1.32169
-1.33063
-1.33943
-1.34809
-1.35662
-1.36501
-1.37327
-1.3814
-1.3894
-1.39726
-1.405
-1.41261
-1.42009
-1.42745
-1.43469
-1.44181
-1.4488
-1.45568
-1.46244
-1.46908
-1.47561
-1.48203
-1.48834
-1.49454
-1.50063
-1.50662
-1.5125
-1.51828
-1.52395
-1.52953
-1.53501
-1.54039
-1.54568
-1.55088
-1.55598
-1.56099
-1.56591
-1.57075
-1.5755
-1.58016
-1.58474
-1.58924
-1.59366
-1.598
-1.60226
-1.60645
-1.61056
-1.6146
-1.61856
-0.571619
-0.572306
-0.574142
-0.576897
-0.580459
-0.584811
-0.589926
-0.595755
-0.602249
-0.609367
-0.617072
-0.625323
-0.634083
-0.643318
-0.652992
-0.663073
-0.67353
-0.684331
-0.695448
-0.706854
-0.718521
-0.730425
-0.742542
-0.754847
-0.767321
-0.779941
-0.792688
-0.805543
-0.818488
-0.831507
-0.844584
-0.857702
-0.870849
-0.88401
-0.897173
-0.910326
-0.923457
-0.936556
-0.949614
-0.96262
-0.975567
-0.988446
-1.00125
-1.01397
-1.0266
-1.03914
-1.05158
-1.06391
-1.07613
-1.08824
-1.10023
-1.1121
-1.12384
-1.13546
-1.14694
-1.1583
-1.16951
-1.1806
-1.19154
-1.20235
-1.21302
-1.22354
-1.23393
-1.24417
-1.25427
-1.26423
-1.27405
-1.28373
-1.29326
-1.30265
-1.31191
-1.32102
-1.33
-1.33883
-1.34753
-1.35609
-1.36452
-1.37282
-1.38098
-1.38901
-1.3969
-1.40467
-1.41232
-1.41983
-1.42722
-1.43449
-1.44164
-1.44866
-1.45557
-1.46236
-1.46903
-1.47559
-1.48204
-1.48837
-1.4946
-1.50072
-1.50673
-1.51264
-1.51844
-1.52415
-1.52975
-1.53526
-1.54066
-1.54597
-1.55119
-1.55632
-1.56135
-1.5663
-1.57116
-1.57593
-1.58062
-1.58522
-1.58974
-1.59418
-1.59854
-1.60282
-1.60703
-1.61116
-1.61522
-1.6192
-0.569003
-0.569667
-0.571483
-0.57422
-0.577766
-0.582104
-0.587208
-0.593027
-0.599514
-0.606627
-0.614328
-0.622577
-0.631339
-0.640576
-0.650255
-0.660342
-0.670806
-0.681617
-0.692746
-0.704165
-0.715848
-0.727768
-0.739903
-0.752228
-0.764723
-0.777366
-0.790137
-0.803017
-0.81599
-0.829037
-0.842142
-0.855292
-0.86847
-0.881664
-0.89486
-0.908048
-0.921214
-0.93435
-0.947445
-0.960489
-0.973474
-0.986392
-0.999236
-1.012
-1.02467
-1.03725
-1.04973
-1.0621
-1.07437
-1.08652
-1.09855
-1.11046
-1.12225
-1.13391
-1.14544
-1.15683
-1.1681
-1.17922
-1.19021
-1.20106
-1.21177
-1.22234
-1.23277
-1.24306
-1.2532
-1.2632
-1.27306
-1.28278
-1.29236
-1.30179
-1.31109
-1.32024
-1.32926
-1.33814
-1.34688
-1.35548
-1.36395
-1.37228
-1.38048
-1.38855
-1.39648
-1.40429
-1.41197
-1.41952
-1.42695
-1.43425
-1.44143
-1.44849
-1.45544
-1.46226
-1.46897
-1.47556
-1.48204
-1.48841
-1.49467
-1.50082
-1.50686
-1.5128
-1.51864
-1.52437
-1.53
-1.53554
-1.54097
-1.54631
-1.55156
-1.55671
-1.56177
-1.56675
-1.57163
-1.57643
-1.58114
-1.58577
-1.59031
-1.59478
-1.59916
-1.60347
-1.6077
-1.61185
-1.61593
-1.61994
-0.566042
-0.56668
-0.568473
-0.57119
-0.574718
-0.579041
-0.584131
-0.58994
-0.596418
-0.603525
-0.611222
-0.61947
-0.628232
-0.637472
-0.647155
-0.657249
-0.667723
-0.678545
-0.689687
-0.701121
-0.71282
-0.724759
-0.736914
-0.749262
-0.761781
-0.774449
-0.787248
-0.800157
-0.81316
-0.826238
-0.839377
-0.852561
-0.865775
-0.879006
-0.89224
-0.905467
-0.918674
-0.93185
-0.944987
-0.958074
-0.971103
-0.984066
-0.996954
-1.00976
-1.02248
-1.03511
-1.04763
-1.06006
-1.07237
-1.08457
-1.09665
-1.10861
-1.12044
-1.13215
-1.14373
-1.15518
-1.16649
-1.17767
-1.1887
-1.1996
-1.21036
-1.22098
-1.23146
-1.24179
-1.25199
-1.26204
-1.27195
-1.28171
-1.29134
-1.30082
-1.31016
-1.31936
-1.32843
-1.33735
-1.34613
-1.35478
-1.36329
-1.37167
-1.37991
-1.38803
-1.396
-1.40385
-1.41158
-1.41917
-1.42664
-1.43398
-1.44121
-1.44831
-1.45529
-1.46215
-1.4689
-1.47553
-1.48204
-1.48845
-1.49474
-1.50093
-1.50701
-1.51298
-1.51885
-1.52462
-1.53029
-1.53585
-1.54132
-1.54669
-1.55197
-1.55716
-1.56225
-1.56725
-1.57217
-1.57699
-1.58173
-1.58639
-1.59096
-1.59546
-1.59987
-1.6042
-1.60846
-1.61264
-1.61674
-1.62077
-0.562743
-0.563352
-0.56512
-0.567814
-0.571322
-0.575628
-0.580703
-0.586499
-0.592968
-0.600068
-0.607761
-0.616007
-0.624769
-0.634012
-0.643701
-0.653802
-0.664286
-0.67512
-0.686276
-0.697727
-0.709445
-0.721405
-0.733582
-0.745955
-0.7585
-0.771197
-0.784026
-0.796967
-0.810003
-0.823117
-0.836293
-0.849515
-0.862768
-0.87604
-0.889317
-0.902587
-0.915839
-0.929061
-0.942245
-0.955379
-0.968457
-0.981469
-0.994408
-1.00727
-1.02004
-1.03271
-1.04529
-1.05777
-1.07013
-1.08239
-1.09452
-1.10654
-1.11843
-1.13019
-1.14183
-1.15333
-1.16469
-1.17592
-1.18702
-1.19797
-1.20879
-1.21946
-1.22999
-1.24038
-1.25063
-1.26074
-1.2707
-1.28052
-1.2902
-1.29973
-1.30912
-1.31838
-1.32749
-1.33647
-1.3453
-1.354
-1.36256
-1.37099
-1.37928
-1.38744
-1.39547
-1.40337
-1.41113
-1.41878
-1.42629
-1.43368
-1.44095
-1.44809
-1.45512
-1.46202
-1.46881
-1.47548
-1.48204
-1.48849
-1.49483
-1.50105
-1.50717
-1.51318
-1.51909
-1.5249
-1.5306
-1.5362
-1.54171
-1.54712
-1.55243
-1.55765
-1.56278
-1.56782
-1.57276
-1.57762
-1.5824
-1.58708
-1.59169
-1.59621
-1.60065
-1.60502
-1.6093
-1.61351
-1.61764
-1.6217
-0.559113
-0.55969
-0.56143
-0.564099
-0.567584
-0.571871
-0.57693
-0.582713
-0.589171
-0.596263
-0.603951
-0.612195
-0.620957
-0.630203
-0.639897
-0.650008
-0.660502
-0.671349
-0.682521
-0.693989
-0.705728
-0.71771
-0.729913
-0.742312
-0.754887
-0.767615
-0.780477
-0.793453
-0.806526
-0.819679
-0.832894
-0.846158
-0.859455
-0.872772
-0.886095
-0.899413
-0.912714
-0.925987
-0.939221
-0.952409
-0.96554
-0.978606
-0.9916
-1.00451
-1.01734
-1.03008
-1.04271
-1.05525
-1.06767
-1.07998
-1.09218
-1.10425
-1.11621
-1.12803
-1.13972
-1.15128
-1.16271
-1.174
-1.18516
-1.19617
-1.20705
-1.21778
-1.22838
-1.23883
-1.24913
-1.2593
-1.26932
-1.2792
-1.28893
-1.29853
-1.30798
-1.31729
-1.32646
-1.33549
-1.34438
-1.35314
-1.36175
-1.37023
-1.37858
-1.38679
-1.39488
-1.40282
-1.41065
-1.41834
-1.4259
-1.43334
-1.44066
-1.44785
-1.45493
-1.46188
-1.46872
-1.47544
-1.48204
-1.48853
-1.49491
-1.50118
-1.50735
-1.5134
-1.51935
-1.5252
-1.53094
-1.53659
-1.54214
-1.54758
-1.55294
-1.55819
-1.56336
-1.56843
-1.57342
-1.57831
-1.58312
-1.58785
-1.59249
-1.59704
-1.60152
-1.60591
-1.61023
-1.61447
-1.61864
-1.62272
-0.555158
-0.555699
-0.557409
-0.560051
-0.563512
-0.567777
-0.572819
-0.578587
-0.585033
-0.592117
-0.599799
-0.60804
-0.616803
-0.626051
-0.635752
-0.645871
-0.656376
-0.667238
-0.678426
-0.689914
-0.701674
-0.713681
-0.725911
-0.73834
-0.750946
-0.763707
-0.776605
-0.78962
-0.802733
-0.815927
-0.829187
-0.842496
-0.85584
-0.869206
-0.88258
-0.895949
-0.909303
-0.922631
-0.935921
-0.949165
-0.962354
-0.97548
-0.988534
-1.00151
-1.0144
-1.0272
-1.0399
-1.05249
-1.06498
-1.07736
-1.08962
-1.10176
-1.11378
-1.12567
-1.13743
-1.14905
-1.16055
-1.17191
-1.18313
-1.19421
-1.20515
-1.21595
-1.22661
-1.23712
-1.24749
-1.25772
-1.26781
-1.27775
-1.28755
-1.29721
-1.30672
-1.3161
-1.32533
-1.33442
-1.34338
-1.35219
-1.36087
-1.36941
-1.37781
-1.38609
-1.39422
-1.40223
-1.41011
-1.41786
-1.42548
-1.43297
-1.44034
-1.44759
-1.45472
-1.46172
-1.46861
-1.47538
-1.48204
-1.48858
-1.49501
-1.50133
-1.50754
-1.51364
-1.51964
-1.52553
-1.53132
-1.53701
-1.5426
-1.54809
-1.55348
-1.55878
-1.56399
-1.56911
-1.57413
-1.57907
-1.58391
-1.58868
-1.59335
-1.59795
-1.60246
-1.60689
-1.61125
-1.61552
-1.61972
-1.62384
-0.550883
-0.551387
-0.553064
-0.555676
-0.55911
-0.563353
-0.568375
-0.574127
-0.580561
-0.587635
-0.59531
-0.603548
-0.612311
-0.621563
-0.63127
-0.641398
-0.651915
-0.662792
-0.673999
-0.685507
-0.697291
-0.709324
-0.721582
-0.734042
-0.746682
-0.75948
-0.772416
-0.785472
-0.798628
-0.811867
-0.825174
-0.838532
-0.851927
-0.865345
-0.878773
-0.892199
-0.90561
-0.918997
-0.932348
-0.945653
-0.958905
-0.972094
-0.985213
-0.998254
-1.01121
-1.02407
-1.03684
-1.04951
-1.06207
-1.07451
-1.08684
-1.09905
-1.11114
-1.1231
-1.13493
-1.14663
-1.1582
-1.16963
-1.18092
-1.19207
-1.20309
-1.21396
-1.22469
-1.23527
-1.24572
-1.25602
-1.26617
-1.27618
-1.28605
-1.29578
-1.30536
-1.3148
-1.3241
-1.33326
-1.34228
-1.35116
-1.3599
-1.36851
-1.37698
-1.38531
-1.39351
-1.40158
-1.40952
-1.41733
-1.42501
-1.43257
-1.44
-1.4473
-1.45448
-1.46155
-1.46849
-1.47532
-1.48203
-1.48862
-1.4951
-1.50148
-1.50774
-1.51389
-1.51994
-1.52588
-1.53172
-1.53746
-1.54309
-1.54863
-1.55407
-1.55942
-1.56467
-1.56983
-1.5749
-1.57988
-1.58477
-1.58957
-1.59429
-1.59892
-1.60348
-1.60795
-1.61234
-1.61665
-1.62089
-1.62505
-0.546296
-0.546759
-0.548401
-0.550981
-0.554387
-0.558605
-0.563606
-0.56934
-0.57576
-0.582824
-0.590492
-0.598726
-0.607489
-0.616744
-0.626457
-0.636595
-0.647125
-0.658018
-0.669243
-0.680774
-0.692582
-0.704643
-0.716932
-0.729425
-0.742101
-0.754937
-0.767915
-0.781014
-0.794216
-0.807503
-0.82086
-0.834271
-0.84772
-0.861195
-0.874681
-0.888166
-0.901639
-0.915089
-0.928504
-0.941876
-0.955194
-0.968452
-0.98164
-0.994751
-1.00778
-1.02072
-1.03356
-1.0463
-1.05893
-1.07145
-1.08386
-1.09614
-1.10831
-1.12034
-1.13225
-1.14403
-1.15567
-1.16718
-1.17855
-1.18978
-1.20087
-1.21181
-1.22262
-1.23328
-1.2438
-1.25418
-1.26441
-1.27449
-1.28444
-1.29424
-1.30389
-1.31341
-1.32278
-1.33201
-1.3411
-1.35005
-1.35886
-1.36754
-1.37608
-1.38448
-1.39275
-1.40088
-1.40889
-1.41676
-1.42451
-1.43213
-1.43962
-1.44699
-1.45423
-1.46135
-1.46836
-1.47524
-1.48201
-1.48867
-1.4952
-1.50163
-1.50795
-1.51416
-1.52026
-1.52626
-1.53215
-1.53794
-1.54363
-1.54921
-1.55471
-1.5601
-1.5654
-1.57061
-1.57572
-1.58075
-1.58568
-1.59053
-1.59529
-1.59997
-1.60457
-1.60908
-1.61351
-1.61787
-1.62214
-1.62634
-0.541402
-0.541822
-0.543425
-0.545971
-0.549346
-0.553538
-0.558516
-0.564232
-0.570636
-0.577689
-0.585349
-0.59358
-0.602342
-0.6116
-0.621319
-0.631467
-0.64201
-0.65292
-0.664165
-0.675718
-0.687553
-0.699643
-0.711965
-0.724493
-0.737207
-0.750084
-0.763105
-0.77625
-0.789501
-0.802839
-0.81625
-0.829716
-0.843223
-0.856758
-0.870306
-0.883855
-0.897393
-0.910909
-0.924393
-0.937835
-0.951225
-0.964555
-0.977817
-0.991004
-1.00411
-1.01712
-1.03004
-1.04286
-1.05557
-1.06817
-1.08066
-1.09303
-1.10527
-1.11739
-1.12938
-1.14124
-1.15296
-1.16455
-1.176
-1.18731
-1.19849
-1.20951
-1.2204
-1.23115
-1.24175
-1.2522
-1.26251
-1.27268
-1.2827
-1.29258
-1.30232
-1.31191
-1.32136
-1.33067
-1.33983
-1.34886
-1.35775
-1.36649
-1.37511
-1.38358
-1.39192
-1.40013
-1.4082
-1.41615
-1.42396
-1.43165
-1.43921
-1.44664
-1.45395
-1.46114
-1.46821
-1.47516
-1.48199
-1.48871
-1.49531
-1.5018
-1.50817
-1.51444
-1.5206
-1.52665
-1.5326
-1.53845
-1.54419
-1.54983
-1.55538
-1.56082
-1.56618
-1.57143
-1.5766
-1.58167
-1.58666
-1.59155
-1.59636
-1.60109
-1.60573
-1.61029
-1.61477
-1.61916
-1.62348
-1.62772
-0.536206
-0.53658
-0.538143
-0.540652
-0.543995
-0.548158
-0.553112
-0.558808
-0.565196
-0.572236
-0.579888
-0.588114
-0.596875
-0.606136
-0.615862
-0.626019
-0.636577
-0.647503
-0.658769
-0.670347
-0.682209
-0.69433
-0.706685
-0.719251
-0.732005
-0.744925
-0.757992
-0.771185
-0.784487
-0.79788
-0.811347
-0.824872
-0.83844
-0.852037
-0.865651
-0.879267
-0.892875
-0.906462
-0.920018
-0.933534
-0.947
-0.960408
-0.973748
-0.987014
-1.0002
-1.01329
-1.0263
-1.0392
-1.05199
-1.06468
-1.07725
-1.0897
-1.10204
-1.11424
-1.12632
-1.13826
-1.15007
-1.16175
-1.17329
-1.18469
-1.19595
-1.20706
-1.21804
-1.22887
-1.23955
-1.25009
-1.26049
-1.27074
-1.28085
-1.29081
-1.30063
-1.31031
-1.31984
-1.32923
-1.33848
-1.34758
-1.35655
-1.36538
-1.37407
-1.38262
-1.39104
-1.39932
-1.40747
-1.41549
-1.42338
-1.43114
-1.43877
-1.44627
-1.45366
-1.46091
-1.46805
-1.47507
-1.48196
-1.48875
-1.49541
-1.50197
-1.50841
-1.51474
-1.52096
-1.52707
-1.53308
-1.53898
-1.54478
-1.55049
-1.55609
-1.56159
-1.567
-1.57231
-1.57753
-1.58265
-1.58769
-1.59264
-1.5975
-1.60227
-1.60696
-1.61157
-1.6161
-1.62054
-1.62491
-1.62919
-0.530715
-0.53104
-0.53256
-0.53503
-0.538338
-0.542471
-0.5474
-0.553074
-0.559444
-0.566471
-0.574114
-0.582334
-0.591094
-0.600357
-0.61009
-0.620258
-0.630829
-0.641774
-0.653061
-0.664664
-0.676555
-0.688708
-0.701098
-0.713703
-0.726498
-0.739464
-0.752579
-0.765823
-0.779179
-0.792628
-0.806154
-0.819741
-0.833373
-0.847037
-0.860719
-0.874407
-0.888087
-0.901749
-0.915382
-0.928976
-0.942522
-0.956011
-0.969434
-0.982784
-0.996053
-1.00924
-1.02232
-1.03531
-1.0482
-1.06097
-1.07364
-1.08618
-1.0986
-1.1109
-1.12307
-1.13511
-1.14701
-1.15878
-1.17041
-1.1819
-1.19325
-1.20446
-1.21552
-1.22645
-1.23722
-1.24786
-1.25834
-1.26869
-1.27888
-1.28893
-1.29884
-1.3086
-1.31822
-1.3277
-1.33703
-1.34623
-1.35528
-1.36419
-1.37296
-1.3816
-1.39009
-1.39846
-1.40669
-1.41479
-1.42275
-1.43059
-1.4383
-1.44588
-1.45333
-1.46066
-1.46787
-1.47496
-1.48193
-1.48878
-1.49552
-1.50214
-1.50865
-1.51504
-1.52133
-1.52751
-1.53358
-1.53955
-1.54541
-1.55117
-1.55683
-1.5624
-1.56786
-1.57323
-1.57851
-1.58369
-1.58878
-1.59378
-1.5987
-1.60352
-1.60827
-1.61292
-1.6175
-1.62199
-1.62641
-1.63074
-0.524933
-0.525206
-0.526682
-0.529111
-0.532382
-0.536483
-0.541384
-0.547035
-0.553387
-0.560399
-0.568032
-0.576246
-0.585004
-0.59427
-0.604009
-0.614187
-0.624773
-0.635736
-0.647046
-0.658674
-0.670595
-0.682781
-0.695208
-0.707853
-0.720692
-0.733705
-0.74687
-0.760168
-0.77358
-0.787088
-0.800676
-0.814327
-0.828027
-0.841761
-0.855515
-0.869276
-0.883033
-0.896774
-0.910487
-0.924163
-0.937793
-0.951367
-0.964877
-0.978315
-0.991674
-1.00495
-1.01813
-1.03121
-1.04419
-1.05706
-1.06982
-1.08245
-1.09497
-1.10737
-1.11963
-1.13177
-1.14377
-1.15563
-1.16736
-1.17895
-1.1904
-1.2017
-1.21287
-1.22388
-1.23476
-1.24549
-1.25607
-1.26651
-1.2768
-1.28694
-1.29694
-1.3068
-1.31651
-1.32608
-1.3355
-1.34478
-1.35392
-1.36292
-1.37178
-1.38051
-1.38909
-1.39754
-1.40585
-1.41403
-1.42208
-1.43
-1.43779
-1.44545
-1.45298
-1.46039
-1.46768
-1.47484
-1.48189
-1.48881
-1.49562
-1.50232
-1.50889
-1.51536
-1.52172
-1.52796
-1.5341
-1.54014
-1.54607
-1.55189
-1.55762
-1.56324
-1.56877
-1.5742
-1.57954
-1.58478
-1.58993
-1.59499
-1.59996
-1.60484
-1.60964
-1.61435
-1.61898
-1.62352
-1.62799
-1.63237
-0.518866
-0.519086
-0.520513
-0.522899
-0.526132
-0.530199
-0.535071
-0.540697
-0.547029
-0.554025
-0.561647
-0.569855
-0.578611
-0.587879
-0.597624
-0.607813
-0.618413
-0.629394
-0.640727
-0.652382
-0.664333
-0.676554
-0.689019
-0.701706
-0.71459
-0.727652
-0.740869
-0.754222
-0.767693
-0.781263
-0.794915
-0.808634
-0.822404
-0.83621
-0.850039
-0.863878
-0.877715
-0.891538
-0.905335
-0.919098
-0.932815
-0.946478
-0.960079
-0.97361
-0.987062
-1.00043
-1.01371
-1.02689
-1.03996
-1.05293
-1.06579
-1.07853
-1.09115
-1.10364
-1.11601
-1.12825
-1.14035
-1.15232
-1.16415
-1.17584
-1.18739
-1.1988
-1.21006
-1.22118
-1.23215
-1.24298
-1.25367
-1.2642
-1.27459
-1.28484
-1.29494
-1.30489
-1.3147
-1.32436
-1.33388
-1.34326
-1.35249
-1.36159
-1.37054
-1.37935
-1.38803
-1.39656
-1.40497
-1.41324
-1.42137
-1.42937
-1.43725
-1.44499
-1.45261
-1.4601
-1.46747
-1.47471
-1.48184
-1.48884
-1.49572
-1.50249
-1.50915
-1.51569
-1.52212
-1.52844
-1.53465
-1.54075
-1.54675
-1.55264
-1.55843
-1.56413
-1.56972
-1.57521
-1.58061
-1.58592
-1.59113
-1.59625
-1.60128
-1.60622
-1.61107
-1.61584
-1.62053
-1.62513
-1.62965
-1.63408
-0.51252
-0.512682
-0.51406
-0.516401
-0.519592
-0.523624
-0.528465
-0.534065
-0.540376
-0.547356
-0.554965
-0.563165
-0.571918
-0.581188
-0.590939
-0.601138
-0.611754
-0.622754
-0.63411
-0.645792
-0.657775
-0.670031
-0.682535
-0.695265
-0.708196
-0.721308
-0.734579
-0.74799
-0.761521
-0.775155
-0.788875
-0.802663
-0.816506
-0.830388
-0.844296
-0.858216
-0.872136
-0.886044
-0.899929
-0.913781
-0.92759
-0.941346
-0.955042
-0.968669
-0.98222
-0.995687
-1.00906
-1.02235
-1.03552
-1.0486
-1.06156
-1.0744
-1.08713
-1.09973
-1.1122
-1.12454
-1.13675
-1.14883
-1.16077
-1.17256
-1.18422
-1.19574
-1.20711
-1.21833
-1.22941
-1.24035
-1.25114
-1.26178
-1.27227
-1.28262
-1.29282
-1.30288
-1.31279
-1.32255
-1.33217
-1.34165
-1.35098
-1.36017
-1.36922
-1.37813
-1.3869
-1.39553
-1.40403
-1.41239
-1.42062
-1.42871
-1.43667
-1.4445
-1.45221
-1.45979
-1.46724
-1.47457
-1.48177
-1.48886
-1.49582
-1.50267
-1.50941
-1.51602
-1.52253
-1.52893
-1.53521
-1.54139
-1.54746
-1.55342
-1.55929
-1.56505
-1.57071
-1.57627
-1.58174
-1.58711
-1.59238
-1.59757
-1.60266
-1.60766
-1.61258
-1.61741
-1.62215
-1.62681
-1.63139
-1.63587
-0.505898
-0.506002
-0.507327
-0.50962
-0.512769
-0.516763
-0.521572
-0.527144
-0.533432
-0.540394
-0.547991
-0.556183
-0.564932
-0.574203
-0.58396
-0.594169
-0.604799
-0.615819
-0.627198
-0.638908
-0.650923
-0.663215
-0.67576
-0.688534
-0.701514
-0.714678
-0.728004
-0.741475
-0.755069
-0.768769
-0.782558
-0.796419
-0.810337
-0.824298
-0.838287
-0.852291
-0.866297
-0.880294
-0.89427
-0.908215
-0.922119
-0.935973
-0.949768
-0.963495
-0.977148
-0.990718
-1.0042
-1.01759
-1.03087
-1.04405
-1.05712
-1.07008
-1.08291
-1.09562
-1.10821
-1.12066
-1.13298
-1.14517
-1.15722
-1.16913
-1.1809
-1.19252
-1.20401
-1.21534
-1.22654
-1.23758
-1.24848
-1.25923
-1.26984
-1.28029
-1.2906
-1.30076
-1.31078
-1.32065
-1.33037
-1.33995
-1.34939
-1.35868
-1.36783
-1.37684
-1.38571
-1.39444
-1.40304
-1.41149
-1.41982
-1.428
-1.43606
-1.44398
-1.45178
-1.45945
-1.46699
-1.47441
-1.4817
-1.48887
-1.49592
-1.50285
-1.50967
-1.51637
-1.52295
-1.52943
-1.53579
-1.54205
-1.54819
-1.55423
-1.56017
-1.566
-1.57174
-1.57737
-1.5829
-1.58834
-1.59369
-1.59894
-1.6041
-1.60916
-1.61414
-1.61903
-1.62384
-1.62856
-1.6332
-1.63774
-0.499008
-0.499049
-0.500319
-0.502563
-0.505667
-0.509622
-0.514396
-0.51994
-0.526203
-0.533146
-0.540729
-0.548912
-0.557657
-0.566928
-0.57669
-0.58691
-0.597554
-0.608593
-0.619996
-0.631735
-0.643782
-0.656112
-0.668698
-0.681517
-0.694547
-0.707764
-0.721148
-0.734679
-0.748338
-0.762107
-0.775967
-0.789904
-0.8039
-0.817942
-0.832014
-0.846105
-0.860201
-0.87429
-0.88836
-0.902402
-0.916405
-0.93036
-0.944257
-0.958089
-0.971847
-0.985525
-0.999116
-1.01261
-1.02601
-1.0393
-1.05249
-1.06555
-1.0785
-1.09133
-1.10403
-1.1166
-1.12904
-1.14134
-1.15351
-1.16553
-1.17742
-1.18916
-1.20076
-1.21221
-1.22352
-1.23468
-1.24569
-1.25656
-1.26728
-1.27785
-1.28827
-1.29854
-1.30867
-1.31865
-1.32849
-1.33817
-1.34772
-1.35712
-1.36637
-1.37549
-1.38446
-1.39329
-1.40199
-1.41055
-1.41897
-1.42726
-1.43541
-1.44343
-1.45132
-1.45908
-1.46672
-1.47423
-1.48161
-1.48887
-1.49601
-1.50303
-1.50993
-1.51672
-1.52339
-1.52995
-1.53639
-1.54272
-1.54895
-1.55507
-1.56108
-1.56699
-1.5728
-1.57851
-1.58412
-1.58963
-1.59504
-1.60036
-1.60559
-1.61073
-1.61577
-1.62073
-1.6256
-1.63038
-1.63508
-1.63969
-0.491852
-0.491829
-0.493042
-0.495234
-0.498291
-0.502204
-0.506943
-0.512456
-0.518694
-0.525617
-0.533184
-0.541357
-0.550097
-0.559368
-0.569135
-0.579364
-0.590023
-0.601081
-0.612509
-0.624276
-0.636356
-0.648723
-0.661352
-0.674218
-0.687298
-0.70057
-0.714013
-0.727607
-0.741332
-0.755171
-0.769105
-0.783119
-0.797196
-0.811321
-0.825481
-0.839661
-0.853849
-0.868033
-0.882202
-0.896343
-0.910448
-0.924507
-0.938511
-0.952451
-0.966319
-0.980109
-0.993812
-1.00742
-1.02094
-1.03434
-1.04764
-1.06083
-1.0739
-1.08684
-1.09966
-1.11236
-1.12491
-1.13734
-1.14963
-1.16177
-1.17378
-1.18564
-1.19736
-1.20894
-1.22037
-1.23165
-1.24278
-1.25376
-1.2646
-1.27529
-1.28583
-1.29622
-1.30646
-1.31656
-1.3265
-1.33631
-1.34596
-1.35547
-1.36484
-1.37406
-1.38315
-1.39209
-1.40089
-1.40955
-1.41808
-1.42647
-1.43472
-1.44284
-1.45083
-1.45869
-1.46643
-1.47403
-1.48151
-1.48886
-1.4961
-1.50321
-1.5102
-1.51707
-1.52383
-1.53047
-1.537
-1.54342
-1.54973
-1.55593
-1.56203
-1.56802
-1.5739
-1.57969
-1.58537
-1.59096
-1.59645
-1.60184
-1.60714
-1.61235
-1.61746
-1.62249
-1.62743
-1.63228
-1.63704
-1.64171
-0.484436
-0.484346
-0.4855
-0.487638
-0.490646
-0.494516
-0.499218
-0.504698
-0.51091
-0.517811
-0.525362
-0.533523
-0.542257
-0.551527
-0.561298
-0.571537
-0.58221
-0.593288
-0.604739
-0.616535
-0.628649
-0.641055
-0.653726
-0.666639
-0.679771
-0.693099
-0.706602
-0.72026
-0.734054
-0.747965
-0.761975
-0.776068
-0.790228
-0.804439
-0.818688
-0.832961
-0.847244
-0.861526
-0.875795
-0.89004
-0.904251
-0.918417
-0.932531
-0.946583
-0.960564
-0.974469
-0.988289
-1.00202
-1.01565
-1.02918
-1.0426
-1.05591
-1.0691
-1.08217
-1.09512
-1.10793
-1.12062
-1.13317
-1.14558
-1.15785
-1.16999
-1.18198
-1.19382
-1.20552
-1.21707
-1.22848
-1.23974
-1.25084
-1.2618
-1.27261
-1.28328
-1.29379
-1.30415
-1.31437
-1.32443
-1.33435
-1.34412
-1.35375
-1.36323
-1.37257
-1.38176
-1.39082
-1.39973
-1.4085
-1.41714
-1.42563
-1.43399
-1.44222
-1.45031
-1.45828
-1.46611
-1.47381
-1.48139
-1.48884
-1.49617
-1.50338
-1.51046
-1.51743
-1.52428
-1.53101
-1.53763
-1.54414
-1.55054
-1.55682
-1.563
-1.56907
-1.57504
-1.58091
-1.58667
-1.59233
-1.5979
-1.60337
-1.60874
-1.61402
-1.61921
-1.62431
-1.62932
-1.63424
-1.63907
-1.64381
-0.476765
-0.476605
-0.477698
-0.479779
-0.482737
-0.486562
-0.491224
-0.496671
-0.502854
-0.509732
-0.517265
-0.525414
-0.534142
-0.54341
-0.553185
-0.563432
-0.57412
-0.585216
-0.596691
-0.608516
-0.620664
-0.633108
-0.645823
-0.658784
-0.671969
-0.685354
-0.698918
-0.712642
-0.726506
-0.74049
-0.754578
-0.768753
-0.782997
-0.797297
-0.811638
-0.826006
-0.840387
-0.85477
-0.869143
-0.883494
-0.897813
-0.912091
-0.926318
-0.940485
-0.954584
-0.968607
-0.982548
-0.9964
-1.01016
-1.02381
-1.03736
-1.05079
-1.06411
-1.07731
-1.09038
-1.10333
-1.11614
-1.12882
-1.14137
-1.15377
-1.16603
-1.17815
-1.19013
-1.20196
-1.21364
-1.22518
-1.23656
-1.2478
-1.25889
-1.26982
-1.28061
-1.29125
-1.30174
-1.31208
-1.32227
-1.33231
-1.3422
-1.35195
-1.36155
-1.37101
-1.38032
-1.38949
-1.39851
-1.4074
-1.41614
-1.42475
-1.43322
-1.44156
-1.44976
-1.45783
-1.46577
-1.47358
-1.48126
-1.48881
-1.49624
-1.50355
-1.51073
-1.51779
-1.52474
-1.53156
-1.53828
-1.54487
-1.55136
-1.55773
-1.564
-1.57016
-1.57621
-1.58216
-1.58801
-1.59375
-1.5994
-1.60495
-1.6104
-1.61576
-1.62102
-1.62619
-1.63127
-1.63627
-1.64117
-1.64597
-0.468843
-0.468612
-0.469641
-0.471664
-0.474568
-0.478347
-0.482967
-0.488378
-0.494531
-0.501385
-0.5089
-0.517036
-0.525755
-0.535021
-0.544798
-0.555054
-0.565755
-0.57687
-0.588369
-0.600223
-0.612405
-0.624888
-0.637647
-0.650657
-0.663894
-0.677338
-0.690965
-0.704756
-0.71869
-0.73275
-0.746917
-0.761175
-0.775507
-0.789897
-0.804332
-0.818797
-0.833279
-0.847766
-0.862245
-0.876706
-0.891137
-0.905529
-0.919872
-0.934158
-0.948378
-0.962524
-0.976589
-0.990566
-1.00445
-1.01823
-1.03191
-1.04548
-1.05893
-1.07226
-1.08546
-1.09854
-1.11149
-1.12431
-1.13698
-1.14952
-1.16192
-1.17418
-1.18629
-1.19825
-1.21007
-1.22174
-1.23326
-1.24463
-1.25585
-1.26692
-1.27783
-1.2886
-1.29922
-1.30969
-1.32
-1.33017
-1.34019
-1.35006
-1.35979
-1.36937
-1.3788
-1.38809
-1.39724
-1.40624
-1.4151
-1.42383
-1.43241
-1.44086
-1.44918
-1.45736
-1.4654
-1.47332
-1.48111
-1.48877
-1.4963
-1.50371
-1.51099
-1.51815
-1.5252
-1.53212
-1.53893
-1.54562
-1.5522
-1.55867
-1.56503
-1.57128
-1.57742
-1.58345
-1.58939
-1.59522
-1.60094
-1.60657
-1.61211
-1.61754
-1.62289
-1.62813
-1.63329
-1.63836
-1.64334
-1.64821
-0.460675
-0.46037
-0.461332
-0.463295
-0.466145
-0.469874
-0.474452
-0.479826
-0.485947
-0.492775
-0.500269
-0.508391
-0.517101
-0.526363
-0.536143
-0.546406
-0.55712
-0.568253
-0.579776
-0.591659
-0.603875
-0.616397
-0.6292
-0.642259
-0.655551
-0.669053
-0.682744
-0.696603
-0.71061
-0.724746
-0.738995
-0.753337
-0.767758
-0.782241
-0.796772
-0.811337
-0.825922
-0.840515
-0.855103
-0.869676
-0.884222
-0.898732
-0.913195