/*--------------------------------*- C++ -*----------------------------------*\
  =========                 |
  \\      /  F ield         | OpenFOAM: The Open Source CFD Toolbox
   \\    /   O peration     | Website:  https://openfoam.org
    \\  /    A nd           | Version:  8
     \\/     M anipulation  |
\*---------------------------------------------------------------------------*/
FoamFile
{
    version     2.0;
    format      ascii;
    class       volScalarField;
    location    "0.06";
    object      p;
}
// * * * * * * * * * * * * * * * * * * * * * * * * * * * * * * * * * * * * * //

dimensions      [0 2 -2 0 0 0 0];

internalField   nonuniform List<scalar> 
112642
(
-1.35859
-1.32546
-1.29337
-1.26246
-1.233
-1.2045
-1.17662
-1.14917
-1.12207
-1.09529
-1.06881
-1.04259
-1.01665
-0.990963
-0.965529
-0.940324
-0.91535
-0.890613
-0.866101
-0.841812
-0.817736
-0.79389
-0.770253
-0.746834
-0.723619
-0.700625
-0.677829
-0.655235
-0.632846
-0.610653
-0.588662
-0.56686
-0.545243
-0.523815
-0.502563
-0.48149
-0.460591
-0.439859
-0.419298
-0.398904
-0.378675
-0.358605
-0.338689
-0.318927
-0.29932
-0.279865
-0.260562
-0.241406
-0.22239
-0.20352
-0.184793
-0.166208
-0.14776
-0.129452
-0.111278
-0.0932371
-0.075324
-0.0575422
-0.0398821
-0.0223451
-0.00493116
0.0123691
0.0295549
0.0466267
0.0635868
0.0804373
0.0971817
0.113816
0.130347
0.146775
0.1631
0.179326
0.195452
0.211482
0.227416
0.243254
0.259004
0.274658
0.290224
0.305703
0.321098
0.336407
0.351632
0.366775
0.381841
0.396832
0.411738
0.426575
0.441336
0.456026
0.470645
0.485191
0.499671
0.514085
0.528434
0.542714
0.556935
0.571094
0.585191
0.599229
0.613209
0.627129
0.640993
0.6548
0.668551
0.682245
0.695888
0.709479
0.723017
0.736502
0.74994
0.763329
0.776668
0.78996
0.8032
0.816399
0.82955
0.842652
0.855712
0.868729
0.881706
0.894641
0.907539
0.920398
0.933226
0.946017
0.958777
0.971505
0.984202
0.996868
1.0095
1.02211
1.03468
1.04723
1.05974
1.07223
1.08468
1.09711
1.10951
1.12188
1.13422
1.14653
1.15881
1.17106
1.18329
1.19548
1.20765
1.21978
1.23189
1.24396
1.25601
1.26802
1.28001
1.29196
1.30387
1.31576
1.32761
1.33943
1.35121
1.36296
1.37467
1.38634
1.39798
1.40959
1.42117
1.43271
1.44422
1.45569
1.46713
1.47854
1.48992
1.50127
1.51258
1.52386
1.53511
1.54631
1.55749
1.56861
1.5797
1.59074
1.60173
1.61266
1.62354
1.63435
1.6451
1.65578
1.66637
1.67689
1.68733
1.69769
1.70795
1.71811
1.72818
1.73817
1.7481
1.75808
1.76829
1.77894
1.78983
1.80077
-1.37836
-1.34525
-1.31291
-1.28148
-1.25151
-1.22255
-1.19435
-1.16669
-1.13941
-1.11246
-1.08581
-1.05944
-1.03335
-1.00749
-0.981891
-0.956536
-0.931403
-0.906501
-0.881822
-0.857358
-0.833124
-0.809093
-0.785285
-0.761684
-0.738292
-0.715107
-0.692128
-0.66934
-0.64676
-0.624379
-0.602184
-0.580183
-0.558367
-0.536739
-0.515286
-0.494008
-0.472905
-0.451971
-0.431204
-0.410603
-0.390163
-0.369888
-0.349767
-0.329797
-0.30998
-0.290318
-0.270806
-0.251441
-0.232219
-0.21314
-0.194204
-0.17541
-0.156754
-0.138237
-0.119852
-0.101601
-0.0834812
-0.0654891
-0.0476215
-0.0298786
-0.0122552
0.00524832
0.0226372
0.0399115
0.0570727
0.0741265
0.0910673
0.107902
0.12463
0.141257
0.157778
0.174199
0.190521
0.206745
0.22287
0.238903
0.254842
0.270688
0.286443
0.302112
0.317693
0.333189
0.3486
0.363929
0.379178
0.394349
0.409439
0.424454
0.439395
0.454262
0.469057
0.48378
0.498434
0.513021
0.52754
0.541994
0.556383
0.570708
0.584974
0.599174
0.613321
0.627401
0.641428
0.655393
0.669302
0.683155
0.696953
0.710698
0.724388
0.738026
0.751612
0.765148
0.778634
0.79207
0.805455
0.818795
0.832085
0.845329
0.858527
0.871682
0.884794
0.897866
0.910896
0.923889
0.936845
0.949767
0.962652
0.975504
0.988323
1.00111
1.01386
1.02658
1.03927
1.05193
1.06455
1.07715
1.08971
1.10224
1.11474
1.12721
1.13965
1.15205
1.16443
1.17677
1.18909
1.20137
1.21362
1.22584
1.23802
1.25018
1.2623
1.27439
1.28644
1.29846
1.31044
1.32239
1.33431
1.34619
1.35803
1.36982
1.38159
1.39331
1.405
1.41666
1.42827
1.43985
1.45139
1.46289
1.47436
1.4858
1.49719
1.50855
1.51988
1.53117
1.54242
1.55362
1.56479
1.57591
1.58698
1.598
1.60896
1.61987
1.63071
1.64148
1.65219
1.66281
1.67336
1.68382
1.6942
1.70448
1.71467
1.72476
1.73476
1.74468
1.75461
1.76467
1.77497
1.7857
1.79651
1.80724
-1.39758
-1.36457
-1.3321
-1.30015
-1.26959
-1.2401
-1.21157
-1.18363
-1.15615
-1.12902
-1.10221
-1.07568
-1.04942
-1.02342
-0.997662
-0.972148
-0.946857
-0.921804
-0.896964
-0.872347
-0.847937
-0.823749
-0.799763
-0.775993
-0.752423
-0.729068
-0.705907
-0.682939
-0.660174
-0.637603
-0.615222
-0.593032
-0.571026
-0.549203
-0.527556
-0.506086
-0.484787
-0.463659
-0.442695
-0.421895
-0.401259
-0.380783
-0.360467
-0.340299
-0.320285
-0.30042
-0.280708
-0.261142
-0.241724
-0.222444
-0.203309
-0.184311
-0.165456
-0.146734
-0.12815
-0.109698
-0.0913753
-0.0731812
-0.0551139
-0.0371694
-0.0193487
-0.00164347
0.0159421
0.0334129
0.050772
0.0680179
0.0851552
0.102184
0.119104
0.135923
0.152637
0.169245
0.185757
0.202171
0.218486
0.234704
0.25083
0.266862
0.282802
0.298654
0.314418
0.330098
0.345688
0.361198
0.376624
0.391975
0.407241
0.422431
0.437548
0.452586
0.467555
0.482447
0.497272
0.512027
0.526713
0.541332
0.555886
0.570375
0.584803
0.599164
0.613469
0.627708
0.641891
0.656011
0.670075
0.684079
0.698028
0.71192
0.72576
0.739541
0.753274
0.76695
0.780578
0.794152
0.807675
0.821153
0.834578
0.847957
0.861286
0.874574
0.887817
0.901017
0.914175
0.927294
0.940375
0.953416
0.966422
0.979394
0.992328
1.00522
1.01809
1.03092
1.04371
1.05648
1.0692
1.0819
1.09456
1.10719
1.11978
1.13234
1.14487
1.15736
1.16983
1.18225
1.19465
1.20701
1.21934
1.23163
1.24389
1.25611
1.2683
1.28046
1.29257
1.30465
1.3167
1.3287
1.34067
1.3526
1.36448
1.37633
1.38814
1.39991
1.41163
1.42332
1.43497
1.44658
1.45815
1.46968
1.48117
1.49262
1.50403
1.5154
1.52674
1.53803
1.54928
1.56048
1.57163
1.58274
1.59379
1.60479
1.61573
1.6266
1.63741
1.64814
1.6588
1.66938
1.67987
1.69028
1.7006
1.71082
1.72094
1.73097
1.74091
1.75082
1.76076
1.77094
1.78137
1.79218
1.8028
1.81317
-1.41642
-1.38355
-1.35115
-1.31874
-1.28759
-1.25756
-1.22858
-1.20032
-1.1726
-1.14528
-1.1183
-1.09161
-1.06519
-1.03903
-1.01312
-0.987457
-0.962022
-0.936808
-0.911815
-0.88704
-0.862479
-0.83812
-0.813973
-0.790035
-0.7663
-0.742768
-0.719432
-0.696288
-0.673343
-0.650588
-0.628023
-0.60565
-0.583458
-0.56144
-0.539607
-0.517952
-0.496461
-0.475143
-0.453991
-0.432999
-0.41217
-0.391501
-0.370988
-0.350632
-0.330422
-0.310364
-0.290456
-0.270699
-0.251082
-0.231607
-0.212275
-0.193083
-0.174027
-0.15511
-0.136332
-0.11768
-0.0991582
-0.0807692
-0.0625031
-0.0443629
-0.026345
-0.0084444
0.00933679
0.0270015
0.0445554
0.0619935
0.0793252
0.0965441
0.113658
0.130664
0.147568
0.164369
0.181066
0.197668
0.214171
0.230574
0.246885
0.263103
0.279226
0.295262
0.311206
0.327066
0.342836
0.358526
0.37413
0.389655
0.405097
0.420463
0.43575
0.450962
0.466101
0.481163
0.496156
0.511077
0.52593
0.540713
0.55543
0.570081
0.584668
0.599191
0.613652
0.628049
0.642384
0.656659
0.670874
0.685029
0.699126
0.713166
0.72715
0.741076
0.754949
0.768768
0.782533
0.796245
0.809904
0.823514
0.837072
0.850583
0.864043
0.877459
0.890827
0.904154
0.917435
0.930676
0.943877
0.957035
0.970158
0.983243
0.996287
1.0093
1.02227
1.0352
1.0481
1.06096
1.07379
1.08658
1.09933
1.11205
1.12474
1.13739
1.15
1.16258
1.17512
1.18762
1.2001
1.21253
1.22493
1.23729
1.24962
1.26191
1.27416
1.28637
1.29855
1.31068
1.32277
1.33483
1.34684
1.35881
1.37074
1.38263
1.39447
1.40628
1.41804
1.42976
1.44143
1.45307
1.46466
1.47621
1.48772
1.49918
1.51061
1.52199
1.53333
1.54463
1.55587
1.56707
1.57821
1.5893
1.60034
1.61131
1.62222
1.63306
1.64383
1.65452
1.66514
1.67566
1.68611
1.69646
1.70671
1.71687
1.72693
1.7369
1.74681
1.75673
1.76676
1.77706
1.78761
1.79844
1.80872
1.81861
-1.43504
-1.40266
-1.37035
-1.33768
-1.30604
-1.27542
-1.24596
-1.21733
-1.18934
-1.1618
-1.13464
-1.10778
-1.08121
-1.0549
-1.02884
-1.00302
-0.977432
-0.952066
-0.92692
-0.901983
-0.877263
-0.852747
-0.828438
-0.804333
-0.780428
-0.756715
-0.733203
-0.709883
-0.686759
-0.663821
-0.641072
-0.61851
-0.596127
-0.573925
-0.551902
-0.530054
-0.508374
-0.48686
-0.465514
-0.444331
-0.423311
-0.402444
-0.381732
-0.361182
-0.340778
-0.320523
-0.300418
-0.280459
-0.260643
-0.240975
-0.22144
-0.202051
-0.182794
-0.163675
-0.144693
-0.125841
-0.107118
-0.0885256
-0.0700593
-0.0517159
-0.0334976
-0.0153994
0.00258328
0.0204496
0.0382003
0.0558367
0.0733645
0.0907837
0.108092
0.125294
0.142393
0.159389
0.176281
0.193074
0.209768
0.226365
0.242865
0.259271
0.275586
0.291807
0.307938
0.323984
0.33994
0.355811
0.371598
0.387304
0.402927
0.418472
0.433936
0.449325
0.464638
0.479876
0.49504
0.510135
0.525156
0.540109
0.554993
0.569811
0.584563
0.599248
0.613871
0.628428
0.642923
0.657356
0.671726
0.686035
0.700284
0.714476
0.728608
0.742682
0.756701
0.770664
0.78457
0.798424
0.812222
0.82597
0.839663
0.853307
0.8669
0.880448
0.893945
0.907397
0.920806
0.934171
0.947492
0.960772
0.974011
0.987211
1.00037
1.01349
1.02657
1.03961
1.05261
1.06558
1.07851
1.09139
1.10424
1.11706
1.12983
1.14257
1.15527
1.16793
1.18055
1.19314
1.20569
1.2182
1.23066
1.2431
1.25549
1.26784
1.28015
1.29242
1.30465
1.31684
1.32898
1.34109
1.35315
1.36516
1.37713
1.38906
1.40093
1.41277
1.42456
1.43631
1.44801
1.45967
1.47128
1.48285
1.49438
1.50586
1.5173
1.52869
1.54003
1.55132
1.56256
1.57375
1.58488
1.59596
1.60697
1.61791
1.62879
1.6396
1.65033
1.66098
1.67154
1.68201
1.6924
1.70269
1.71288
1.72297
1.73297
1.74289
1.75279
1.76275
1.77286
1.7833
1.7939
1.80459
1.81448
1.82374
-1.45377
-1.42183
-1.38963
-1.35692
-1.32492
-1.29378
-1.2638
-1.23475
-1.20643
-1.17867
-1.1513
-1.12427
-1.09753
-1.07107
-1.04485
-1.01888
-0.993142
-0.96762
-0.942322
-0.91724
-0.892355
-0.867672
-0.843198
-0.818926
-0.79485
-0.770961
-0.747272
-0.723774
-0.70047
-0.677351
-0.654416
-0.631662
-0.609092
-0.586698
-0.564483
-0.542441
-0.520567
-0.498856
-0.477316
-0.455936
-0.434719
-0.413656
-0.392745
-0.371993
-0.351391
-0.330934
-0.310629
-0.290466
-0.270448
-0.250576
-0.230841
-0.211245
-0.191783
-0.172457
-0.153267
-0.13421
-0.115281
-0.0964794
-0.0778085
-0.0592576
-0.0408317
-0.0225257
-0.00433727
0.0137319
0.0316881
0.0495297
0.0672599
0.0848801
0.102392
0.119795
0.137095
0.154292
0.171384
0.188373
0.205267
0.222058
0.238757
0.255357
0.271866
0.28828
0.304605
0.32084
0.336987
0.353047
0.369022
0.384916
0.400723
0.416453
0.432101
0.447672
0.463164
0.478584
0.493925
0.509196
0.524393
0.53952
0.554577
0.569565
0.584487
0.599341
0.61413
0.628852
0.643512
0.658105
0.672636
0.687104
0.701509
0.715857
0.730141
0.744369
0.758536
0.772647
0.7867
0.800698
0.814638
0.828527
0.842361
0.856142
0.869872
0.883552
0.897183
0.910766
0.924304
0.937793
0.951242
0.964642
0.978004
0.991319
1.00459
1.01783
1.03102
1.04417
1.05728
1.07035
1.08338
1.09636
1.10931
1.12222
1.13509
1.14791
1.1607
1.17345
1.18615
1.19882
1.21144
1.22403
1.23657
1.24907
1.26153
1.27394
1.28631
1.29864
1.31093
1.32317
1.33536
1.34751
1.35961
1.37167
1.38368
1.39564
1.40755
1.41942
1.43124
1.44302
1.45474
1.46642
1.47805
1.48964
1.50118
1.51267
1.52412
1.53551
1.54685
1.55814
1.56937
1.58055
1.59167
1.60272
1.61371
1.62463
1.63547
1.64624
1.65692
1.66752
1.67803
1.68845
1.69878
1.709
1.71913
1.72915
1.73909
1.74898
1.75888
1.76891
1.77913
1.78964
1.80019
1.81058
1.82004
1.82866
-1.47246
-1.44084
-1.40896
-1.37632
-1.34405
-1.31247
-1.28199
-1.25247
-1.2238
-1.19575
-1.16817
-1.14095
-1.11404
-1.08741
-1.06105
-1.03492
-1.00903
-0.983367
-0.957908
-0.932667
-0.907627
-0.882787
-0.858144
-0.833708
-0.809457
-0.7854
-0.761535
-0.73786
-0.714373
-0.691069
-0.667946
-0.645011
-0.622249
-0.599666
-0.577257
-0.555022
-0.532954
-0.511048
-0.48931
-0.467735
-0.446312
-0.425054
-0.403943
-0.382989
-0.362184
-0.341526
-0.321013
-0.300649
-0.280427
-0.260344
-0.240399
-0.220596
-0.200929
-0.181393
-0.161992
-0.142726
-0.123585
-0.104576
-0.0856905
-0.0669314
-0.0482907
-0.0297767
-0.0113779
0.00689933
0.0250669
0.0431167
0.0610539
0.0788815
0.0966
0.11421
0.131715
0.149113
0.166411
0.183603
0.200698
0.217692
0.23459
0.25139
0.268097
0.284711
0.30123
0.317661
0.334004
0.350258
0.366425
0.382508
0.398507
0.414425
0.43026
0.446017
0.461694
0.477296
0.492821
0.50827
0.52365
0.538951
0.554187
0.569349
0.584445
0.59947
0.61443
0.629321
0.644148
0.658906
0.673602
0.688228
0.702798
0.7173
0.731742
0.746124
0.760443
0.774705
0.788906
0.803052
0.817138
0.831169
0.845144
0.859065
0.872935
0.886751
0.900516
0.914233
0.9279
0.941519
0.955093
0.968619
0.9821
0.995535
1.00893
1.02228
1.03558
1.04884
1.06206
1.07523
1.08836
1.10145
1.1145
1.1275
1.14046
1.15337
1.16625
1.17908
1.19187
1.20461
1.21732
1.22997
1.24258
1.25515
1.26768
1.28015
1.29259
1.30497
1.31731
1.3296
1.34184
1.35403
1.36618
1.37827
1.39032
1.40231
1.41426
1.42616
1.438
1.4498
1.46155
1.47324
1.48489
1.49649
1.50804
1.51954
1.53099
1.54238
1.55372
1.565
1.57622
1.58739
1.59848
1.60951
1.62047
1.63136
1.64216
1.65289
1.66353
1.67407
1.68453
1.69489
1.70515
1.71531
1.72537
1.73533
1.74523
1.7551
1.76503
1.77513
1.78544
1.79596
1.80637
1.81637
1.82529
1.8333
-1.4908
-1.45973
-1.42818
-1.39575
-1.36338
-1.33144
-1.30046
-1.27047
-1.2414
-1.21303
-1.1852
-1.15778
-1.1307
-1.10391
-1.07738
-1.05111
-1.02506
-0.999235
-0.97363
-0.948229
-0.923039
-0.898033
-0.873238
-0.848629
-0.824216
-0.799984
-0.775947
-0.752095
-0.728428
-0.704943
-0.68164
-0.658514
-0.635568
-0.612793
-0.590191
-0.567762
-0.545501
-0.523402
-0.501465
-0.479689
-0.458071
-0.436609
-0.4153
-0.394138
-0.373132
-0.352269
-0.33155
-0.310978
-0.290549
-0.270256
-0.250099
-0.230083
-0.210207
-0.190461
-0.170846
-0.151367
-0.132014
-0.112788
-0.093686
-0.0747151
-0.0558625
-0.0371318
-0.0185212
-2.68182e-05
0.0183489
0.0366123
0.0547635
0.0728011
0.0907308
0.10855
0.126263
0.143872
0.161375
0.178776
0.196076
0.213276
0.230377
0.247382
0.264291
0.281106
0.297829
0.314457
0.330999
0.34745
0.363812
0.380092
0.396284
0.412394
0.428419
0.444368
0.460232
0.476021
0.491731
0.507366
0.522926
0.538411
0.553825
0.569166
0.584437
0.599638
0.614772
0.629835
0.644831
0.659758
0.674619
0.689413
0.704142
0.718807
0.733407
0.747946
0.762419
0.776836
0.791187
0.805481
0.819715
0.833893
0.84801
0.862073
0.876083
0.890035
0.903938
0.917788
0.931587
0.945336
0.959036
0.972687
0.986291
0.999847
1.01336
1.02682
1.04024
1.05361
1.06693
1.08021
1.09344
1.10663
1.11977
1.13287
1.14592
1.15893
1.17189
1.18481
1.19768
1.2105
1.22328
1.23601
1.24869
1.26133
1.27391
1.28645
1.29894
1.31138
1.32377
1.33611
1.3484
1.36064
1.37282
1.38495
1.39703
1.40906
1.42103
1.43295
1.44482
1.45664
1.4684
1.48011
1.49177
1.50338
1.51494
1.52644
1.53788
1.54927
1.5606
1.57187
1.58308
1.59422
1.60529
1.6163
1.62722
1.63807
1.64883
1.65951
1.6701
1.6806
1.69099
1.70129
1.71149
1.72158
1.73157
1.74148
1.75135
1.76123
1.77121
1.78139
1.79175
1.80221
1.81235
1.82186
1.83021
1.83755
-1.50893
-1.47841
-1.44724
-1.41514
-1.38281
-1.35064
-1.31925
-1.28878
-1.25928
-1.23055
-1.20244
-1.1748
-1.14752
-1.12056
-1.09388
-1.06745
-1.04125
-1.01528
-0.989508
-0.963962
-0.938606
-0.913461
-0.888495
-0.863726
-0.839148
-0.814747
-0.790538
-0.766511
-0.74267
-0.719002
-0.695516
-0.672207
-0.649071
-0.62611
-0.603318
-0.58069
-0.558235
-0.535943
-0.513807
-0.491832
-0.470008
-0.448348
-0.426833
-0.40547
-0.384254
-0.363185
-0.342256
-0.321477
-0.300833
-0.280329
-0.259961
-0.239735
-0.219638
-0.199681
-0.179845
-0.160147
-0.140578
-0.121135
-0.101817
-0.0826268
-0.0635563
-0.0446068
-0.0257779
-0.00706728
0.0115267
0.0300053
0.0483719
0.0666251
0.0847705
0.102805
0.120731
0.138553
0.156268
0.173882
0.191391
0.208801
0.226111
0.243324
0.260442
0.27746
0.29439
0.311221
0.327965
0.344619
0.361181
0.37766
0.39405
0.410356
0.426578
0.442717
0.458776
0.474757
0.490655
0.506479
0.522224
0.537896
0.553492
0.569014
0.584467
0.599846
0.615157
0.630396
0.645566
0.660663
0.675693
0.690656
0.70555
0.720379
0.73514
0.749839
0.764472
0.779041
0.793547
0.807992
0.822376
0.836701
0.850964
0.865172
0.879322
0.893414
0.907456
0.921439
0.935373
0.949253
0.963081
0.976858
0.990584
1.00426
1.01789
1.03147
1.045
1.05848
1.07191
1.0853
1.09863
1.11192
1.12516
1.13835
1.1515
1.1646
1.17764
1.19064
1.20359
1.2165
1.22935
1.24215
1.2549
1.2676
1.28025
1.29285
1.3054
1.31789
1.33033
1.34272
1.35505
1.36733
1.37955
1.39172
1.40383
1.41588
1.42788
1.43983
1.45172
1.46355
1.47533
1.48705
1.49872
1.51033
1.52189
1.53338
1.54482
1.5562
1.56752
1.57877
1.58996
1.60108
1.61212
1.62309
1.63398
1.64478
1.6555
1.66613
1.67666
1.6871
1.69744
1.70767
1.71779
1.72782
1.73776
1.74763
1.75748
1.76739
1.77743
1.78767
1.79802
1.80831
1.81809
1.82703
1.83476
1.84143
-1.52673
-1.49679
-1.46616
-1.43444
-1.40232
-1.37002
-1.33832
-1.30741
-1.27746
-1.24834
-1.21992
-1.19202
-1.16454
-1.13741
-1.11056
-1.08396
-1.05762
-1.03149
-1.00558
-0.97987
-0.954368
-0.929063
-0.903944
-0.879014
-0.85427
-0.82971
-0.805329
-0.781131
-0.75711
-0.733271
-0.709598
-0.686105
-0.66278
-0.639629
-0.61665
-0.593826
-0.571173
-0.548682
-0.526347
-0.50417
-0.482146
-0.460279
-0.438558
-0.416988
-0.395568
-0.374283
-0.353149
-0.33215
-0.311295
-0.290574
-0.269994
-0.249547
-0.229235
-0.209054
-0.189001
-0.16908
-0.149289
-0.129628
-0.110087
-0.0906714
-0.071381
-0.0522087
-0.0331585
-0.0142238
0.0045898
0.0232912
0.0418771
0.0603497
0.0787139
0.0969694
0.115113
0.133151
0.151086
0.168914
0.18664
0.204262
0.221787
0.239214
0.256541
0.273773
0.290908
0.307952
0.324901
0.341761
0.358529
0.37521
0.391803
0.408311
0.424732
0.44107
0.457325
0.4735
0.489594
0.505608
0.521545
0.537406
0.553188
0.568899
0.584533
0.600096
0.615587
0.631006
0.64635
0.661626
0.676828
0.691961
0.707025
0.722019
0.736946
0.751807
0.7666
0.781327
0.79599
0.81059
0.825126
0.8396
0.854012
0.868366
0.882658
0.896894
0.911072
0.925195
0.939261
0.953275
0.967233
0.981137
0.994989
1.00879
1.02254
1.03623
1.04987
1.06347
1.07701
1.0905
1.10394
1.11733
1.13067
1.14395
1.15719
1.17038
1.18351
1.19659
1.20963
1.2226
1.23553
1.2484
1.26123
1.27399
1.2867
1.29936
1.31196
1.32451
1.337
1.34943
1.36181
1.37413
1.38638
1.39858
1.41072
1.4228
1.43483
1.44679
1.4587
1.47055
1.48234
1.49407
1.50574
1.51736
1.52891
1.5404
1.55183
1.5632
1.5745
1.58573
1.59689
1.60798
1.61899
1.62991
1.64076
1.65152
1.66218
1.67275
1.68323
1.6936
1.70387
1.71404
1.7241
1.73406
1.74394
1.75378
1.76364
1.77359
1.78369
1.79395
1.8042
1.81423
1.82353
1.83185
1.83892
1.84492
-1.54423
-1.51485
-1.48484
-1.45362
-1.42177
-1.38955
-1.35762
-1.32634
-1.29595
-1.26642
-1.23765
-1.20948
-1.18178
-1.15445
-1.12743
-1.10067
-1.07417
-1.04789
-1.02183
-0.995972
-0.97032
-0.94486
-0.919589
-0.8945
-0.8696
-0.84487
-0.820324
-0.795954
-0.77176
-0.747739
-0.723891
-0.700213
-0.676702
-0.653362
-0.630191
-0.607172
-0.584318
-0.561626
-0.539095
-0.516714
-0.494492
-0.47241
-0.450483
-0.428705
-0.40707
-0.385574
-0.364222
-0.343011
-0.321938
-0.300999
-0.280198
-0.259529
-0.238993
-0.218591
-0.19832
-0.178171
-0.158155
-0.138266
-0.118501
-0.0988579
-0.0793418
-0.0599424
-0.040666
-0.0215083
-0.00246456
0.0164628
0.0352728
0.0539725
0.0725577
0.0910369
0.109406
0.127665
0.145821
0.16387
0.181815
0.19966
0.217402
0.235045
0.252589
0.270036
0.287387
0.304643
0.321806
0.338875
0.355854
0.372743
0.389542
0.406257
0.422881
0.439423
0.45588
0.472253
0.488545
0.504758
0.520888
0.536941
0.552917
0.568816
0.584639
0.600389
0.616063
0.631665
0.647192
0.662644
0.678024
0.693332
0.708566
0.723732
0.738826
0.753852
0.768809
0.783699
0.798519
0.813277
0.827966
0.842593
0.857157
0.871656
0.886096
0.900476
0.914796
0.929057
0.94326
0.957406
0.971495
0.985529
0.999506
1.01343
1.0273
1.04111
1.05487
1.06857
1.08222
1.09582
1.10936
1.12285
1.13629
1.14967
1.163
1.17628
1.18949
1.20266
1.21577
1.22883
1.24183
1.25478
1.26766
1.28049
1.29327
1.30598
1.31864
1.33124
1.34377
1.35625
1.36867
1.38102
1.39332
1.40555
1.41772
1.42983
1.44187
1.45385
1.46577
1.47764
1.48944
1.50118
1.51285
1.52446
1.53601
1.54749
1.5589
1.57025
1.58153
1.59273
1.60386
1.61492
1.62589
1.63677
1.64757
1.65827
1.66888
1.67939
1.6898
1.70011
1.71031
1.7204
1.73039
1.74029
1.75013
1.75995
1.76983
1.77982
1.78995
1.80018
1.81025
1.81989
1.82864
1.8363
1.84268
1.84803
-1.56129
-1.5326
-1.50323
-1.47257
-1.44114
-1.4091
-1.3771
-1.34552
-1.31473
-1.28479
-1.25566
-1.22718
-1.19922
-1.17168
-1.14448
-1.11757
-1.0909
-1.06448
-1.03826
-1.01227
-0.986458
-0.960852
-0.935423
-0.910179
-0.885117
-0.860232
-0.835518
-0.810977
-0.786612
-0.762415
-0.738385
-0.714526
-0.69083
-0.667297
-0.643929
-0.620721
-0.59767
-0.57478
-0.552045
-0.529462
-0.507027
-0.484743
-0.462604
-0.440613
-0.418762
-0.397049
-0.375479
-0.35405
-0.332756
-0.311597
-0.290574
-0.269683
-0.248918
-0.22829
-0.207791
-0.187415
-0.16717
-0.147049
-0.127056
-0.107185
-0.0874338
-0.0678083
-0.0482995
-0.0289109
-0.00963701
0.00951931
0.0285624
0.0474891
0.0663041
0.0850111
0.103607
0.122096
0.140476
0.158751
0.176923
0.194989
0.212957
0.230821
0.248588
0.266254
0.283824
0.301301
0.318678
0.335966
0.353157
0.370261
0.387272
0.404194
0.42103
0.437778
0.45444
0.471019
0.487512
0.503926
0.520254
0.536507
0.552677
0.568771
0.584786
0.600726
0.616589
0.632378
0.648088
0.663724
0.679283
0.694769
0.710178
0.725518
0.740782
0.755978
0.7711
0.786153
0.801138
0.816052
0.8309
0.845683
0.860396
0.875049
0.889635
0.904161
0.918624
0.933025
0.947366
0.961647
0.97587
0.990032
1.00414
1.01818
1.03217
1.0461
1.05998
1.07379
1.08755
1.10126
1.1149
1.12849
1.14203
1.15551
1.16893
1.18229
1.1956
1.20884
1.22203
1.23517
1.24824
1.26125
1.27421
1.2871
1.29994
1.31271
1.32542
1.33806
1.35065
1.36317
1.37562
1.38802
1.40034
1.4126
1.4248
1.43693
1.449
1.461
1.47293
1.4848
1.49661
1.50835
1.52002
1.53163
1.54317
1.55464
1.56604
1.57736
1.58861
1.59979
1.61088
1.6219
1.63282
1.64366
1.6544
1.66505
1.67559
1.68604
1.69638
1.70661
1.71674
1.72676
1.73668
1.74653
1.75634
1.76616
1.77605
1.78607
1.7962
1.80631
1.8161
1.82526
1.83339
1.84034
1.84605
1.85078
-1.57807
-1.55003
-1.52129
-1.49125
-1.46036
-1.42862
-1.39668
-1.36492
-1.33379
-1.30346
-1.27394
-1.24513
-1.2169
-1.18914
-1.16175
-1.13466
-1.10784
-1.08125
-1.05489
-1.02874
-1.0028
-0.977033
-0.951456
-0.926061
-0.900841
-0.875793
-0.850918
-0.826211
-0.801672
-0.777299
-0.753089
-0.729047
-0.705167
-0.681444
-0.657879
-0.634477
-0.611232
-0.588141
-0.5652
-0.542409
-0.519768
-0.497272
-0.474923
-0.452716
-0.430646
-0.408717
-0.38693
-0.365275
-0.343761
-0.322374
-0.301126
-0.280004
-0.259018
-0.238156
-0.217425
-0.196819
-0.17634
-0.155987
-0.135761
-0.115652
-0.0956688
-0.0758068
-0.0560626
-0.0364378
-0.0169323
0.00245836
0.0217358
0.0408997
0.059948
0.0788849
0.097716
0.116436
0.135049
0.153555
0.171956
0.190253
0.208449
0.22654
0.244534
0.262427
0.28022
0.297919
0.315519
0.333028
0.350439
0.367759
0.384989
0.402125
0.419173
0.436135
0.453005
0.469796
0.486495
0.503114
0.519648
0.536101
0.552471
0.568764
0.584974
0.601109
0.617165
0.633144
0.649042
0.664865
0.680606
0.696274
0.711863
0.727379
0.742817
0.758186
0.773476
0.788697
0.803846
0.818922
0.83393
0.848868
0.863738
0.878544
0.893279
0.907953
0.92256
0.937103
0.951585
0.966001
0.980358
0.994651
1.00888
1.02305
1.03717
1.05122
1.06521
1.07914
1.093
1.10682
1.12057
1.13426
1.14789
1.16146
1.17497
1.18842
1.20181
1.21514
1.22841
1.24162
1.25476
1.26785
1.28086
1.29382
1.30671
1.31954
1.3323
1.345
1.35762
1.37019
1.38268
1.39511
1.40746
1.41975
1.43197
1.44413
1.45621
1.46822
1.48017
1.49205
1.50386
1.5156
1.52727
1.53887
1.55039
1.56185
1.57322
1.58453
1.59575
1.60689
1.61794
1.62891
1.63979
1.65057
1.66126
1.67184
1.68232
1.6927
1.70297
1.71313
1.72318
1.73313
1.74298
1.75279
1.76257
1.7724
1.78231
1.79233
1.80239
1.81229
1.82169
1.83028
1.83774
1.84399
1.84907
1.85323
-1.59456
-1.56708
-1.53898
-1.50962
-1.47933
-1.44805
-1.41628
-1.38447
-1.3531
-1.3224
-1.29251
-1.26335
-1.23483
-1.20682
-1.17921
-1.15195
-1.12496
-1.09823
-1.07172
-1.04542
-1.01932
-0.993412
-0.967689
-0.942137
-0.916762
-0.891555
-0.866517
-0.841642
-0.816932
-0.79239
-0.768004
-0.74377
-0.719707
-0.695792
-0.67204
-0.648441
-0.624997
-0.601704
-0.578557
-0.55556
-0.532708
-0.510001
-0.487438
-0.465012
-0.442726
-0.420576
-0.398565
-0.376689
-0.354949
-0.333334
-0.311855
-0.290503
-0.269283
-0.248189
-0.227223
-0.206383
-0.185669
-0.165079
-0.144613
-0.124266
-0.104045
-0.0839418
-0.0639587
-0.0440962
-0.0243488
-0.0047188
0.0147965
0.0341988
0.0534873
0.0726646
0.0917307
0.11069
0.12954
0.148282
0.166919
0.185451
0.203879
0.222203
0.240429
0.25855
0.276574
0.294502
0.312329
0.330063
0.347699
0.365242
0.382693
0.400049
0.417319
0.434494
0.451582
0.468584
0.485497
0.502324
0.519067
0.535725
0.552302
0.568795
0.585207
0.601541
0.617792
0.633967
0.650058
0.666068
0.682
0.69785
0.713623
0.729317
0.744934
0.760476
0.775941
0.791329
0.806647
0.821887
0.837058
0.852156
0.867183
0.882143
0.897031
0.911854
0.926608
0.941293
0.955916
0.97047
0.984961
0.999386
1.01375
1.02805
1.04228
1.05645
1.07056
1.0846
1.09858
1.1125
1.12635
1.14014
1.15387
1.16753
1.18114
1.19467
1.20815
1.22156
1.2349
1.24818
1.2614
1.27455
1.28763
1.30065
1.3136
1.32648
1.33929
1.35203
1.3647
1.3773
1.38983
1.40229
1.41467
1.42699
1.43923
1.4514
1.4635
1.47553
1.48748
1.49937
1.51117
1.52291
1.53457
1.54616
1.55767
1.56911
1.58046
1.59173
1.60292
1.61403
1.62504
1.63596
1.64678
1.65751
1.66813
1.67865
1.68906
1.69937
1.70956
1.71964
1.72961
1.73949
1.7493
1.75906
1.76883
1.77866
1.78857
1.79856
1.80846
1.81806
1.82698
1.83493
1.84169
1.84724
1.85175
1.85542
-1.61074
-1.58384
-1.55635
-1.52767
-1.49801
-1.46726
-1.43585
-1.40411
-1.37259
-1.34161
-1.31136
-1.28185
-1.25301
-1.22473
-1.19691
-1.16944
-1.14229
-1.11539
-1.08874
-1.06229
-1.03604
-1.00998
-0.984112
-0.958409
-0.932882
-0.907518
-0.882318
-0.857277
-0.832401
-0.807682
-0.783118
-0.758713
-0.734456
-0.710357
-0.686409
-0.662616
-0.638971
-0.615473
-0.592124
-0.568921
-0.545854
-0.522937
-0.500155
-0.477513
-0.455005
-0.432634
-0.410398
-0.388295
-0.366326
-0.344481
-0.32277
-0.301187
-0.279726
-0.258399
-0.237194
-0.216114
-0.195161
-0.174327
-0.153621
-0.133034
-0.112567
-0.0922205
-0.071994
-0.0518859
-0.0318926
-0.0120198
0.0077405
0.0273861
0.0469204
0.0663403
0.0856487
0.10485
0.123943
0.142926
0.161804
0.180573
0.199244
0.217804
0.236267
0.254625
0.272886
0.291044
0.309107
0.327067
0.344937
0.362706
0.380385
0.397967
0.415459
0.432857
0.450165
0.467385
0.484514
0.501558
0.518512
0.535382
0.552168
0.568869
0.585484
0.602022
0.618474
0.634849
0.651133
0.667339
0.683462
0.699501
0.715459
0.731338
0.747135
0.762855
0.778494
0.794057
0.809544
0.824952
0.840289
0.855547
0.870737
0.88585
0.900894
0.915866
0.930769
0.945601
0.960366
0.975058
0.989687
1.00424
1.01874
1.03316
1.04752
1.06181
1.07603
1.09018
1.10428
1.1183
1.13226
1.14615
1.15997
1.17373
1.18742
1.20105
1.21461
1.2281
1.24152
1.25487
1.26815
1.28137
1.29451
1.30759
1.32059
1.33352
1.34638
1.35916
1.37187
1.38451
1.39707
1.40956
1.42197
1.43431
1.44657
1.45876
1.47087
1.48291
1.49487
1.50675
1.51856
1.53029
1.54194
1.55351
1.56501
1.57642
1.58774
1.59898
1.61013
1.62119
1.63216
1.64303
1.6538
1.66446
1.67502
1.68547
1.69581
1.70604
1.71615
1.72615
1.73605
1.74587
1.75562
1.76536
1.77511
1.78494
1.79483
1.8047
1.81438
1.82357
1.83192
1.83919
1.84525
1.85015
1.85415
1.85742
-1.62676
-1.60033
-1.57336
-1.54536
-1.51636
-1.48624
-1.45527
-1.42376
-1.39222
-1.36103
-1.33047
-1.3006
-1.27145
-1.24289
-1.21481
-1.18715
-1.15981
-1.13276
-1.10594
-1.07935
-1.05295
-1.02675
-1.00073
-0.974877
-0.949192
-0.923679
-0.898317
-0.873115
-0.84807
-0.823175
-0.79844
-0.773851
-0.749416
-0.725127
-0.700988
-0.676997
-0.653157
-0.629454
-0.605899
-0.582487
-0.559208
-0.536072
-0.513076
-0.490214
-0.467484
-0.444887
-0.422427
-0.400092
-0.377893
-0.355816
-0.33387
-0.31205
-0.290354
-0.268785
-0.247338
-0.226016
-0.204815
-0.183738
-0.162785
-0.141951
-0.121238
-0.100642
-0.080166
-0.0598098
-0.039571
-0.0194439
0.000564634
0.0204596
0.0402409
0.0599106
0.0794696
0.0989154
0.118256
0.137488
0.156611
0.175626
0.19454
0.213347
0.232049
0.250651
0.269151
0.287547
0.30585
0.324047
0.34215
0.360155
0.378064
0.395879
0.413596
0.431226
0.448757
0.466201
0.483552
0.500815
0.517988
0.535074
0.552072
0.568984
0.585811
0.602556
0.619212
0.635789
0.652277
0.668679
0.684995
0.701228
0.717376
0.733441
0.749423
0.765324
0.781141
0.796882
0.812539
0.828121
0.843622
0.859048
0.874397
0.88967
0.904872
0.919995
0.935048
0.950028
0.964933
0.979769
0.994534
1.00923
1.02385
1.0384
1.05288
1.06729
1.08163
1.0959
1.1101
1.12423
1.13829
1.15229
1.16621
1.18006
1.19384
1.20755
1.22119
1.23475
1.24825
1.26167
1.27502
1.2883
1.30151
1.31464
1.32769
1.34067
1.35357
1.3664
1.37915
1.39182
1.40441
1.41693
1.42936
1.44172
1.454
1.4662
1.47832
1.49036
1.50232
1.5142
1.526
1.53772
1.54936
1.56091
1.57238
1.58377
1.59506
1.60626
1.61737
1.62839
1.6393
1.65011
1.66082
1.67142
1.68191
1.69229
1.70255
1.7127
1.72273
1.73266
1.74249
1.75224
1.76195
1.77166
1.7814
1.79121
1.80102
1.81072
1.82007
1.82876
1.83648
1.84304
1.84842
1.85274
1.85632
1.85929
-1.64267
-1.61655
-1.59008
-1.56269
-1.53439
-1.50492
-1.4745
-1.44333
-1.41191
-1.38061
-1.3498
-1.31964
-1.29015
-1.26129
-1.23296
-1.20508
-1.17755
-1.15031
-1.12334
-1.09659
-1.07005
-1.0437
-1.01754
-0.991535
-0.965704
-0.940034
-0.914517
-0.889152
-0.863941
-0.83888
-0.813969
-0.789201
-0.764583
-0.740112
-0.715781
-0.691594
-0.667554
-0.643652
-0.619888
-0.596265
-0.572773
-0.549425
-0.526209
-0.503126
-0.480172
-0.45735
-0.434658
-0.412094
-0.389659
-0.367351
-0.345162
-0.323103
-0.301165
-0.27935
-0.257663
-0.236093
-0.214646
-0.193321
-0.172112
-0.151031
-0.130062
-0.109217
-0.0884881
-0.0678758
-0.0473829
-0.0270032
-0.00673979
0.013411
0.0334461
0.0533722
0.0731826
0.0928854
0.112476
0.131961
0.151337
0.170604
0.189765
0.208823
0.227775
0.246622
0.265369
0.284011
0.302555
0.320998
0.33934
0.357585
0.375732
0.393781
0.411735
0.429594
0.447358
0.46503
0.482609
0.500097
0.517491
0.5348
0.552015
0.569145
0.586186
0.603142
0.620008
0.636792
0.653484
0.67009
0.686603
0.703035
0.719374
0.73563
0.751801
0.767886
0.783887
0.799804
0.81564
0.831392
0.847065
0.862658
0.878171
0.893606
0.908965