/*--------------------------------*- C++ -*----------------------------------*\
  =========                 |
  \\      /  F ield         | OpenFOAM: The Open Source CFD Toolbox
   \\    /   O peration     | Website:  https://openfoam.org
    \\  /    A nd           | Version:  8
     \\/     M anipulation  |
\*---------------------------------------------------------------------------*/
FoamFile
{
    version     2.0;
    format      ascii;
    class       volVectorField;
    location    "0.06";
    object      U;
}
// * * * * * * * * * * * * * * * * * * * * * * * * * * * * * * * * * * * * * //

dimensions      [0 1 -1 0 0 0 0];

internalField   nonuniform List<vector> 
112642
(
(15.0004 -4.93825e-06 1.02241e-20)
(15.0008 -7.9631e-05 3.47953e-20)
(15.0007 -0.000127809 8.92899e-20)
(15.0007 -0.0001252 -1.49878e-20)
(15.0007 -0.000129466 -1.60068e-19)
(15.0007 -0.000125088 1.09338e-19)
(15.0006 -0.000125019 3.01934e-21)
(15.0006 -0.000125788 -2.37593e-20)
(15.0006 -0.000128717 -5.9825e-20)
(15.0006 -0.00013304 8.01536e-20)
(15.0006 -0.00013729 1.79326e-21)
(15.0006 -0.000142156 -1.00992e-19)
(15.0006 -0.000147918 -5.78012e-20)
(15.0006 -0.000153558 -5.41819e-20)
(15.0006 -0.000159786 -4.35688e-20)
(15.0006 -0.000165384 -6.64815e-20)
(15.0006 -0.000171402 4.54941e-20)
(15.0006 -0.000178053 -7.43425e-20)
(15.0006 -0.000183929 5.13836e-20)
(15.0006 -0.000189888 7.1478e-20)
(15.0005 -0.000195631 1.21104e-19)
(15.0005 -0.000201909 4.88522e-20)
(15.0005 -0.000207347 4.79575e-20)
(15.0005 -0.000213269 2.63167e-20)
(15.0005 -0.000218586 -2.14277e-20)
(15.0005 -0.000224441 -4.54898e-20)
(15.0005 -0.000229721 6.86985e-20)
(15.0005 -0.000234855 -8.82615e-20)
(15.0005 -0.00024013 5.83067e-22)
(15.0005 -0.000245174 -4.27603e-20)
(15.0005 -0.000250313 -4.0914e-20)
(15.0005 -0.000254943 -4.87203e-22)
(15.0005 -0.000259629 -3.93754e-20)
(15.0004 -0.000264314 -3.94752e-20)
(15.0004 -0.000268421 3.86741e-20)
(15.0004 -0.000272883 -4.2268e-22)
(15.0004 -0.000276982 5.70551e-20)
(15.0004 -0.000281067 -3.59191e-20)
(15.0004 -0.000285397 1.53049e-20)
(15.0004 -0.000289055 -6.92186e-20)
(15.0004 -0.000293018 6.77053e-20)
(15.0004 -0.000296593 -5.2899e-20)
(15.0004 -0.000299941 -1.26177e-20)
(15.0004 -0.000303333 2.99677e-22)
(15.0004 -0.000306708 -3.10305e-20)
(15.0004 -0.000309716 -1.03613e-20)
(15.0004 -0.000313015 -2.93134e-20)
(15.0003 -0.000316001 4.78801e-20)
(15.0003 -0.00031857 2.82023e-20)
(15.0003 -0.000321384 -6.56954e-20)
(15.0003 -0.000323818 -1.92589e-20)
(15.0003 -0.000326353 -5.17509e-20)
(15.0003 -0.000328589 -5.04344e-20)
(15.0003 -0.00033102 1.88223e-20)
(15.0003 -0.000333075 1.89568e-20)
(15.0003 -0.000335011 2.32306e-20)
(15.0003 -0.000336927 4.51911e-20)
(15.0003 -0.000338871 -1.85246e-20)
(15.0003 -0.000340451 -2.15032e-20)
(15.0003 -0.000342242 2.08764e-20)
(15.0002 -0.000343864 -2.02598e-20)
(15.0002 -0.000345148 1.49074e-22)
(15.0002 -0.000346665 -1.90265e-20)
(15.0002 -0.000347916 1.43634e-22)
(15.0002 -0.000349202 -1.7823e-20)
(15.0002 -0.000350388 3.52581e-20)
(15.0002 -0.000351301 0)
(15.0002 -0.000352472 1.59706e-20)
(15.0002 -0.000353325 -1.54146e-20)
(15.0002 -0.000354047 -1.48478e-20)
(15.0002 -0.000354687 -3.19747e-20)
(15.0002 -0.000355252 1.75075e-20)
(15.0002 -0.000355675 2.65837e-20)
(15.0002 -0.000356032 -3.03214e-20)
(15.0002 -0.000356501 3.49606e-20)
(15.0001 -0.000356775 -1.7253e-20)
(15.0001 -0.000356762 -3.96069e-20)
(15.0001 -0.000357044 6.77211e-21)
(15.0001 -0.000357005 0)
(15.0001 -0.000356943 0)
(15.0001 -0.000356664 0)
(15.0001 -0.000356548 8.5235e-21)
(15.0001 -0.000356291 0)
(15.0001 -0.00035603 9.35099e-21)
(15.0001 -0.000355516 -3.35739e-20)
(15.0001 -0.000354948 -1.32782e-20)
(15.0001 -0.000354532 5.63527e-20)
(15.0001 -0.000353855 -1.10337e-20)
(15.0001 -0.000353171 -1.1488e-20)
(15.0001 -0.000352407 1.65365e-20)
(15.0001 -0.000351666 4.24188e-21)
(15 -0.000350855 -3.78461e-21)
(15 -0.000349876 -3.28193e-21)
(15 -0.000348856 -2.98399e-20)
(15 -0.000347731 -3.4969e-20)
(15 -0.000346627 1.42646e-20)
(15 -0.000345394 3.23572e-20)
(15 -0.000344201 0)
(15 -0.00034284 -6.18008e-22)
(15 -0.000341453 -1.60198e-20)
(15 -0.000340025 2.38517e-22)
(15 -0.000338549 1.51962e-20)
(15 -0.000337051 0)
(15 -0.000335385 -3.14266e-20)
(15 -0.00033376 7.72083e-21)
(15 -0.000332013 1.31908e-20)
(15 -0.000330287 5.51416e-21)
(15 -0.000328465 1.53921e-20)
(15 -0.000326604 1.88856e-20)
(14.9999 -0.000324591 -7.92156e-21)
(14.9999 -0.000322512 -4.30052e-21)
(14.9999 -0.000320455 -1.51341e-20)
(14.9999 -0.000318325 5.18467e-21)
(14.9999 -0.000316187 -1.50419e-20)
(14.9999 -0.00031382 1.18518e-20)
(14.9999 -0.000311589 8.41477e-21)
(14.9999 -0.000309323 2.14455e-20)
(14.9999 -0.000306855 -7.12743e-21)
(14.9999 -0.000304408 -3.62394e-20)
(14.9999 -0.000301872 2.22137e-20)
(14.9999 -0.000299507 1.43764e-20)
(14.9999 -0.000297002 -1.68698e-20)
(14.9999 -0.000294514 -1.43113e-20)
(14.9999 -0.000291804 -5.02645e-21)
(14.9999 -0.000289368 4.73426e-20)
(14.9999 -0.000286732 -9.97976e-21)
(14.9999 -0.000283966 -3.7041e-21)
(14.9999 -0.000281311 2.78704e-20)
(14.9999 -0.000278622 -3.57577e-20)
(14.9999 -0.000275839 -2.47974e-21)
(14.9999 -0.000273013 1.37035e-20)
(14.9999 -0.000270141 1.00256e-20)
(14.9998 -0.000267185 -2.5783e-20)
(14.9998 -0.000264011 2.61153e-20)
(14.9998 -0.000261049 -1.22725e-20)
(14.9998 -0.00025791 -1.34561e-20)
(14.9998 -0.000254717 -1.32887e-20)
(14.9998 -0.000251574 2.71346e-20)
(14.9998 -0.00024826 4.05119e-20)
(14.9998 -0.000245131 -1.26248e-22)
(14.9998 -0.000241783 -1.30167e-20)
(14.9998 -0.000238332 0)
(14.9998 -0.000235046 -1.53169e-20)
(14.9998 -0.000231526 0)
(14.9998 -0.000228045 1.28599e-20)
(14.9998 -0.000224573 -1.63457e-20)
(14.9998 -0.000221046 3.89209e-21)
(14.9998 -0.000217302 -1.67654e-20)
(14.9998 -0.000213724 -1.25859e-20)
(14.9998 -0.000209993 3.47571e-20)
(14.9998 -0.000206372 7.13599e-21)
(14.9998 -0.000202556 -5.65416e-21)
(14.9998 -0.00019894 -3.04189e-20)
(14.9998 -0.000195108 6.30511e-21)
(14.9998 -0.00019113 0)
(14.9998 -0.000187375 -6.79277e-21)
(14.9998 -0.000183442 -3.12944e-20)
(14.9998 -0.000179546 -3.08654e-20)
(14.9998 -0.000175719 3.1235e-20)
(14.9998 -0.000171815 -8.03797e-21)
(14.9998 -0.000167747 -2.07464e-22)
(14.9998 -0.000163914 -1.14013e-20)
(14.9998 -0.000159763 1.15268e-20)
(14.9998 -0.00015582 -2.31558e-20)
(14.9998 -0.000151933 -1.18534e-21)
(14.9998 -0.000147911 4.34614e-20)
(14.9998 -0.00014414 1.09811e-20)
(14.9998 -0.000140125 1.03405e-20)
(14.9998 -0.000136168 2.5988e-22)
(14.9998 -0.000132305 -2.86194e-22)
(14.9998 -0.000128234 -1.06471e-20)
(14.9998 -0.000124284 -4.38856e-24)
(14.9997 -0.000120278 6.61181e-20)
(14.9997 -0.0001164 -3.48774e-20)
(14.9997 -0.00011252 3.49227e-20)
(14.9997 -0.000108415 -3.32044e-20)
(14.9997 -0.00010464 3.35731e-20)
(14.9997 -0.000100635 -3.02417e-21)
(14.9997 -9.69372e-05 -3.32724e-20)
(14.9997 -9.28859e-05 3.21253e-21)
(14.9997 -8.91867e-05 2.35676e-20)
(14.9997 -8.54397e-05 -2.366e-20)
(14.9997 -8.18076e-05 -9.38443e-21)
(14.9997 -7.79219e-05 1.35182e-20)
(14.9997 -7.44012e-05 5.65378e-20)
(14.9998 -7.11757e-05 -2.84326e-20)
(14.9998 -6.77647e-05 2.3194e-20)
(14.9998 -6.46634e-05 -1.37836e-20)
(14.9998 -6.16739e-05 -3.28187e-20)
(14.9998 -5.91454e-05 1.52393e-20)
(14.9998 -5.69456e-05 -5.61012e-21)
(14.9998 -5.49101e-05 -2.35559e-20)
(14.9998 -5.35078e-05 3.23227e-20)
(14.9998 -5.34406e-05 -2.46966e-20)
(14.9998 -5.36654e-05 -1.5085e-20)
(14.9998 -5.66407e-05 -3.1859e-20)
(14.9998 -5.50418e-05 2.53474e-20)
(14.9998 -5.76991e-05 3.0652e-20)
(14.9997 -4.07957e-05 -3.43922e-20)
(14.9999 -2.14969e-06 2.97245e-20)
(15.0022 5.53538e-05 -5.28029e-20)
(15.0023 0.000379627 8.75795e-20)
(15.0022 0.000507543 1.29206e-20)
(15.0022 0.000414401 1.23847e-19)
(15.0021 0.000339132 -1.09707e-19)
(15.002 0.00022814 5.75392e-20)
(15.002 0.000146311 8.98258e-20)
(15.002 7.06361e-05 -2.64164e-21)
(15.0019 8.80112e-06 -1.85146e-20)
(15.0019 -4.74057e-05 -3.80135e-21)
(15.0019 -9.71694e-05 4.50656e-20)
(15.0019 -0.00014205 -2.10059e-20)
(15.0019 -0.000184677 -5.91473e-20)
(15.0018 -0.000223023 3.698e-20)
(15.0018 -0.000260489 -1.34695e-19)
(15.0018 -0.000294701 -1.28298e-20)
(15.0018 -0.000327658 7.57964e-20)
(15.0018 -0.000359698 1.1832e-20)
(15.0017 -0.000389362 -4.29945e-20)
(15.0017 -0.00041808 1.87441e-22)
(15.0017 -0.000445575 2.07061e-20)
(15.0017 -0.000472568 7.14007e-20)
(15.0016 -0.000497831 4.92977e-20)
(15.0016 -0.000522905 1.45745e-22)
(15.0016 -0.000546445 2.03379e-20)
(15.0016 -0.000569969 -4.00727e-20)
(15.0016 -0.000592446 -1.70595e-21)
(15.0015 -0.000614182 -2.99459e-21)
(15.0015 -0.000635333 2.34583e-20)
(15.0015 -0.000655934 2.00317e-20)
(15.0015 -0.000675988 -1.95783e-20)
(15.0014 -0.000695235 -1.03763e-21)
(15.0014 -0.0007142 6.16873e-20)
(15.0014 -0.000732725 -1.60629e-19)
(15.0014 -0.000750066 -2.02342e-20)
(15.0013 -0.000767551 -3.85201e-20)
(15.0013 -0.00078397 3.95728e-20)
(15.0013 -0.000800192 7.22858e-22)
(15.0013 -0.00081643 -3.69205e-20)
(15.0013 -0.000831308 -8.9696e-20)
(15.0012 -0.000846296 -5.52049e-20)
(15.0012 -0.00086043 5.69602e-21)
(15.0012 -0.00087388 -3.32036e-20)
(15.0012 -0.000887096 0)
(15.0011 -0.000899936 -1.24016e-20)
(15.0011 -0.000911991 1.9528e-20)
(15.0011 -0.000924151 -6.86436e-20)
(15.0011 -0.000935379 3.93226e-20)
(15.001 -0.000945791 6.72623e-20)
(15.001 -0.000956363 -1.88009e-20)
(15.001 -0.000966247 -2.78707e-20)
(15.001 -0.000975797 -1.51574e-20)
(15.001 -0.000984663 -8.97405e-20)
(15.0009 -0.000993731 -4.45714e-20)
(15.0009 -0.00100191 2.10413e-22)
(15.0009 -0.00100981 -1.35464e-20)
(15.0009 -0.00101748 1.84652e-20)
(15.0008 -0.00102477 3.75047e-20)
(15.0008 -0.00103148 -6.25347e-20)
(15.0008 -0.0010383 -4.28847e-20)
(15.0008 -0.00104451 -2.20317e-21)
(15.0008 -0.00105019 0)
(15.0007 -0.00105595 -1.95029e-20)
(15.0007 -0.0010611 1.88707e-20)
(15.0007 -0.00106603 -3.64159e-20)
(15.0007 -0.00107057 -1.06788e-22)
(15.0006 -0.00107477 1.35014e-22)
(15.0006 -0.00107891 3.43196e-20)
(15.0006 -0.00108244 3.60768e-20)
(15.0006 -0.00108562 -7.81068e-24)
(15.0006 -0.00108845 -3.56176e-20)
(15.0005 -0.00109114 -3.57232e-20)
(15.0005 -0.00109341 1.77396e-20)
(15.0005 -0.0010953 -8.37486e-21)
(15.0005 -0.00109727 1.75803e-20)
(15.0005 -0.00109876 2.95777e-20)
(15.0004 -0.00109978 -1.1441e-20)
(15.0004 -0.001101 -1.74263e-20)
(15.0004 -0.0011016 -2.77928e-20)
(15.0004 -0.00110198 9.81902e-21)
(15.0004 -0.00110192 -2.6564e-20)
(15.0003 -0.00110192 -8.83552e-21)
(15.0003 -0.00110161 4.26076e-20)
(15.0003 -0.00110113 1.71446e-20)
(15.0003 -0.00110011 -1.70382e-20)
(15.0003 -0.00109894 -3.05276e-20)
(15.0002 -0.00109774 3.92547e-24)
(15.0002 -0.00109619 -1.68806e-20)
(15.0002 -0.00109435 -4.19498e-23)
(15.0002 -0.0010923 2.15657e-20)
(15.0002 -0.00109027 2.09989e-20)
(15.0001 -0.0010878 3.7141e-20)
(15.0001 -0.00108501 -2.98385e-20)
(15.0001 -0.00108202 -3.3134e-20)
(15.0001 -0.00107886 -7.14995e-21)
(15.0001 -0.00107568 -5.77228e-21)
(15.0001 -0.00107202 1.78768e-20)
(15 -0.00106833 1.63496e-20)
(15 -0.00106417 4.24925e-24)
(15 -0.00105994 -1.61529e-20)
(15 -0.00105552 -1.58119e-20)
(15 -0.0010509 6.39505e-24)
(15 -0.00104621 1.60073e-20)
(14.9999 -0.00104106 3.18845e-20)
(14.9999 -0.00103589 -1.16477e-20)
(14.9999 -0.00103026 -1.31703e-20)
(14.9999 -0.00102463 1.86069e-20)
(14.9999 -0.00101885 3.16e-23)
(14.9999 -0.00101289 -1.17403e-20)
(14.9998 -0.00100664 -3.0836e-20)
(14.9998 -0.00100001 3.5343e-20)
(14.9998 -0.000993408 1.51933e-20)
(14.9998 -0.000986625 3.22354e-23)
(14.9998 -0.000979586 -5.86002e-21)
(14.9998 -0.000972252 -2.5653e-21)
(14.9997 -0.000964919 -1.32053e-20)
(14.9997 -0.000957477 1.48894e-20)
(14.9997 -0.000949603 -7.42457e-21)
(14.9997 -0.000941642 8.43988e-22)
(14.9997 -0.000933471 8.14461e-21)
(14.9997 -0.000925432 -3.7655e-20)
(14.9997 -0.000917098 1.23652e-22)
(14.9996 -0.000908676 2.86959e-20)
(14.9996 -0.000899823 2.39895e-20)
(14.9996 -0.00089122 -5.51969e-23)
(14.9996 -0.000882323 -3.48329e-20)
(14.9996 -0.000873118 1.07307e-20)
(14.9996 -0.000864051 -1.40624e-20)
(14.9996 -0.000854755 -2.27938e-20)
(14.9996 -0.000845192 2.55782e-20)
(14.9995 -0.000835597 2.76529e-20)
(14.9995 -0.000825804 -4.01271e-20)
(14.9995 -0.000815819 -2.69412e-20)
(14.9995 -0.000805459 1.29267e-20)
(14.9995 -0.000795144 1.63905e-22)
(14.9995 -0.000784674 -5.50254e-22)
(14.9995 -0.000774004 1.4219e-20)
(14.9995 -0.000763274 4.09449e-20)
(14.9994 -0.000752198 -1.60113e-21)
(14.9994 -0.000741264 -4.32351e-20)
(14.9994 -0.000730052 -2.82969e-20)
(14.9994 -0.000718482 2.65171e-21)
(14.9994 -0.000707064 1.26058e-22)
(14.9994 -0.000695328 -3.54773e-21)
(14.9994 -0.000683398 0)
(14.9994 -0.000671382 -4.17762e-21)
(14.9994 -0.000659261 -1.27523e-20)
(14.9994 -0.000646632 -1.22378e-20)
(14.9994 -0.00063423 2.47521e-20)
(14.9993 -0.000621485 5.49717e-21)
(14.9993 -0.000608647 -1.19696e-20)
(14.9993 -0.000595491 -6.51655e-21)
(14.9993 -0.000582575 -2.54659e-20)
(14.9993 -0.000569273 1.88808e-20)
(14.9993 -0.000555536 -2.37216e-20)
(14.9993 -0.000542005 1.97004e-20)
(14.9993 -0.000528131 -3.18392e-20)
(14.9993 -0.000514169 3.21401e-20)
(14.9993 -0.000500233 -9.26999e-21)
(14.9993 -0.000486028 -2.01254e-20)
(14.9993 -0.000471522 -3.04951e-20)
(14.9993 -0.000457251 -1.11088e-20)
(14.9993 -0.000442412 -9.94202e-21)
(14.9992 -0.000427787 -1.14055e-20)
(14.9992 -0.00041329 -1.05395e-20)
(14.9992 -0.000398418 3.26005e-20)
(14.9992 -0.00038388 3.2904e-20)
(14.9992 -0.000368922 -1.10155e-20)
(14.9992 -0.000353987 1.21856e-20)
(14.9992 -0.000339132 -2.85446e-22)
(14.9992 -0.000324134 1.24447e-20)
(14.9992 -0.000309082 6.66693e-20)
(14.9992 -0.000294032 -5.13683e-22)
(14.9992 -0.000278955 -3.54284e-20)
(14.9992 -0.000263783 -2.40746e-20)
(14.9992 -0.000248392 -1.92456e-20)
(14.9992 -0.000233253 5.66321e-20)
(14.9992 -0.000217653 -2.35939e-20)
(14.9992 -0.000202218 -1.38067e-20)
(14.9992 -0.0001863 -2.39996e-20)
(14.9992 -0.000170356 -1.87886e-20)
(14.9992 -0.00015416 1.45139e-20)
(14.9992 -0.000137806 9.44985e-21)
(14.9992 -0.000120633 3.25784e-20)
(14.9992 -0.000103322 2.89828e-20)
(14.9992 -8.57373e-05 1.00595e-20)
(14.9992 -6.69836e-05 3.08737e-20)
(14.9992 -4.83014e-05 -7.74141e-21)
(14.9992 -2.79465e-05 8.04295e-21)
(14.9992 -7.10477e-06 -8.59391e-21)
(14.9993 1.55232e-05 6.75041e-22)
(14.9993 4.0579e-05 1.60421e-20)
(14.9993 6.75746e-05 -1.52717e-20)
(14.9993 0.000100789 -5.41984e-20)
(14.9993 0.000135287 7.25918e-21)
(14.9993 0.000184331 1.53284e-21)
(14.9992 0.000213494 4.09581e-20)
(14.9992 0.000257053 -3.71852e-20)
(14.9992 0.000217439 9.51946e-21)
(14.9993 3.33993e-05 5.49168e-20)
(15.0037 4.48096e-05 -8.38959e-20)
(15.0038 5.59167e-05 -1.404e-20)
(15.0037 0.00069493 -4.08268e-20)
(15.0036 0.000548693 6.83437e-20)
(15.0035 0.000500677 4.44064e-20)
(15.0034 0.000331682 -1.3007e-19)
(15.0033 0.000208489 2.45251e-20)
(15.0033 8.52155e-05 0)
(15.0032 -1.39064e-05 1.18843e-19)
(15.0032 -0.000105761 -1.53919e-19)
(15.0032 -0.000186555 1.16495e-19)
(15.0031 -0.000260657 -2.24128e-20)
(15.0031 -0.000329554 -2.09022e-20)
(15.0031 -0.000392842 7.49758e-20)
(15.003 -0.000454242 -5.19716e-20)
(15.003 -0.000511072 -2.30884e-20)
(15.003 -0.000565399 1.0616e-19)
(15.0029 -0.000617847 1.02633e-19)
(15.0029 -0.000667168 -2.93191e-20)
(15.0029 -0.000714951 -2.94011e-20)
(15.0028 -0.000760791 -9.79747e-20)
(15.0028 -0.000805299 -2.15375e-20)
(15.0028 -0.000847824 -2.7008e-20)
(15.0027 -0.00088942 4.74941e-20)
(15.0027 -0.000928919 -2.12785e-20)
(15.0026 -0.000967818 9.06878e-20)
(15.0026 -0.00100539 -8.92095e-20)
(15.0026 -0.00104163 -2.03867e-20)
(15.0025 -0.00107683 -2.08946e-20)
(15.0025 -0.00111127 2.04429e-20)
(15.0025 -0.00114459 4.19591e-20)
(15.0024 -0.00117708 -6.13237e-20)
(15.0024 -0.0012089 1.00542e-19)
(15.0023 -0.00123986 6.04825e-20)
(15.0023 -0.00126936 -7.93048e-20)
(15.0023 -0.00129875 -7.4938e-20)
(15.0022 -0.00132658 -3.67386e-20)
(15.0022 -0.00135384 2.00221e-20)
(15.0021 -0.0013808 -1.50823e-20)
(15.0021 -0.0014062 6.88835e-20)
(15.0021 -0.00143114 -8.74024e-20)
(15.002 -0.00145523 -2.0053e-20)
(15.002 -0.00147818 -3.2234e-20)
(15.002 -0.00150083 -3.15471e-20)
(15.0019 -0.00152257 0)
(15.0019 -0.00154306 1.956e-20)
(15.0018 -0.00156335 -9.19988e-21)
(15.0018 -0.00158246 -4.88658e-20)
(15.0018 -0.00160063 3.92299e-20)
(15.0017 -0.0016184 2.74132e-20)
(15.0017 -0.00163539 -3.41803e-20)
(15.0016 -0.00165182 4.54271e-20)
(15.0016 -0.00166694 3.16232e-20)
(15.0016 -0.00168214 -6.86608e-20)
(15.0015 -0.0016963 -1.90057e-20)
(15.0015 -0.00171005 -2.36117e-20)
(15.0015 -0.00172299 -4.92083e-20)
(15.0014 -0.00173543 -3.28497e-21)
(15.0014 -0.00174721 3.76877e-20)
(15.0013 -0.00175864 -3.94591e-20)
(15.0013 -0.00176929 -5.78686e-20)
(15.0013 -0.00177915 -1.96075e-20)
(15.0012 -0.0017888 -1.85136e-20)
(15.0012 -0.00179775 -1.28535e-22)
(15.0012 -0.00180603 5.41924e-20)
(15.0011 -0.0018137 -3.44673e-20)
(15.0011 -0.00182091 -1.82816e-20)
(15.0011 -0.00182761 -1.61762e-20)
(15.001 -0.00183363 3.38144e-20)
(15.001 -0.00183907 2.11041e-23)
(15.0009 -0.00184398 -3.69102e-21)
(15.0009 -0.0018486 1.78866e-20)
(15.0009 -0.00185262 2.28198e-20)
(15.0008 -0.00185587 -3.06114e-20)
(15.0008 -0.00185887 -3.00831e-20)
(15.0008 -0.00186152 1.16405e-20)
(15.0007 -0.00186357 1.11095e-20)
(15.0007 -0.00186523 3.87919e-20)
(15.0007 -0.00186631 -7.49217e-21)
(15.0006 -0.00186705 9.37016e-21)
(15.0006 -0.00186707 3.50809e-20)
(15.0006 -0.00186698 -4.33697e-20)
(15.0005 -0.00186643 -1.48727e-21)
(15.0005 -0.00186553 3.47069e-20)
(15.0005 -0.00186383 5.50235e-23)
(15.0004 -0.00186194 -3.94755e-23)
(15.0004 -0.00185973 2.32109e-20)
(15.0004 -0.00185718 -1.70967e-20)
(15.0003 -0.0018541 -2.9078e-20)
(15.0003 -0.00185063 -4.60574e-21)
(15.0003 -0.00184692 -4.06893e-21)
(15.0002 -0.00184263 -2.04189e-23)
(15.0002 -0.001838 2.00118e-20)
(15.0002 -0.00183297 3.08745e-20)
(15.0002 -0.00182766 1.67593e-20)
(15.0001 -0.00182216 -5.0012e-20)
(15.0001 -0.00181594 -1.53046e-20)
(15.0001 -0.00180949 1.65534e-20)
(15 -0.0018025 -1.60794e-20)
(15 -0.0017954 2.07447e-23)
(15 -0.00178786 1.6843e-20)
(14.9999 -0.00177987 -9.04259e-22)
(14.9999 -0.00177177 0)
(14.9999 -0.00176314 -1.75504e-21)
(14.9999 -0.00175431 1.38693e-20)
(14.9998 -0.00174479 2.58123e-21)
(14.9998 -0.00173511 -1.88887e-20)
(14.9998 -0.00172519 2.26444e-20)
(14.9998 -0.00171491 1.56884e-20)
(14.9997 -0.00170434 -8.2145e-25)
(14.9997 -0.00169327 1.33655e-23)
(14.9997 -0.00168199 -3.09402e-20)
(14.9997 -0.00167039 -1.53036e-20)
(14.9996 -0.00165834 1.52576e-20)
(14.9996 -0.00164602 -1.52156e-20)
(14.9996 -0.00163345 -2.16326e-20)
(14.9995 -0.00162078 3.01244e-20)
(14.9995 -0.00160747 2.25618e-20)
(14.9995 -0.00159396 -7.22913e-21)
(14.9995 -0.00158016 -3.75826e-20)
(14.9995 -0.00156639 -8.32637e-21)
(14.9994 -0.00155214 2.33542e-20)
(14.9994 -0.00153775 0)
(14.9994 -0.00152301 -1.45158e-20)
(14.9994 -0.00150811 -2.41935e-20)
(14.9993 -0.00149285 1.43408e-20)
(14.9993 -0.00147745 1.42003e-20)
(14.9993 -0.00146196 -1.4204e-20)
(14.9993 -0.001446 2.2461e-20)
(14.9992 -0.00142969 1.39694e-20)
(14.9992 -0.00141328 -1.3973e-20)
(14.9992 -0.0013966 -2.60136e-20)
(14.9992 -0.0013796 3.8803e-20)
(14.9992 -0.00136225 8.43871e-22)
(14.9991 -0.00134466 1.25809e-20)
(14.9991 -0.0013269 -1.33265e-20)
(14.9991 -0.00130885 2.71441e-20)
(14.9991 -0.00129049 -1.34368e-20)
(14.9991 -0.00127179 -2.75974e-20)
(14.9991 -0.00125311 -1.46481e-20)
(14.999 -0.00123402 1.14932e-20)
(14.999 -0.00121454 1.28822e-20)
(14.999 -0.00119496 -4.14091e-20)
(14.999 -0.00117505 1.26424e-22)
(14.999 -0.00115494 1.27508e-20)
(14.999 -0.00113442 0)
(14.9989 -0.00111376 -3.31158e-20)
(14.9989 -0.00109256 3.36663e-20)
(14.9989 -0.00107158 0)
(14.9989 -0.00104992 -1.73452e-20)
(14.9989 -0.0010281 1.76037e-20)
(14.9989 -0.001006 -1.23052e-20)
(14.9989 -0.000983881 -5.71918e-21)
(14.9988 -0.000961409 -2.48044e-20)
(14.9988 -0.000938462 1.70613e-22)
(14.9988 -0.000915642 3.73585e-20)
(14.9988 -0.000892311 -1.16811e-20)
(14.9988 -0.00086869 4.58476e-20)
(14.9988 -0.000845194 -3.09169e-20)
(14.9988 -0.00082129 1.95983e-20)
(14.9988 -0.000797214 1.1428e-20)
(14.9988 -0.000773194 1.98071e-20)
(14.9987 -0.000748651 -8.70544e-21)
(14.9987 -0.000724307 -3.20754e-20)
(14.9987 -0.000700046 1.01203e-20)
(14.9987 -0.000675313 5.33858e-20)
(14.9987 -0.00065094 4.16738e-20)
(14.9987 -0.00062619 -3.17671e-20)
(14.9987 -0.000601398 4.25986e-20)
(14.9987 -0.000576668 0)
(14.9987 -0.000551958 3.21906e-20)
(14.9987 -0.000527079 1.09545e-20)
(14.9987 -0.000502259 -4.21552e-20)
(14.9987 -0.000477369 2.19371e-20)
(14.9987 -0.000452262 -3.39523e-20)
(14.9987 -0.000426985 4.21411e-20)
(14.9987 -0.000401855 -2.24881e-20)
(14.9987 -0.000376164 -3.18447e-20)
(14.9987 -0.000350497 -3.21915e-20)
(14.9987 -0.00032436 -3.18522e-20)
(14.9987 -0.000298056 -3.10111e-21)
(14.9987 -0.000271296 -6.30084e-22)
(14.9987 -0.000244306 1.38399e-20)
(14.9987 -0.000216332 -1.34661e-20)
(14.9987 -0.000188034 0)
(14.9987 -0.00015912 3.1531e-20)
(14.9987 -0.000128653 -4.49385e-20)
(14.9987 -9.80974e-05 2.27776e-20)
(14.9987 -6.56492e-05 1.26707e-20)
(14.9988 -3.15533e-05 -7.37816e-21)
(14.9988 4.45984e-06 5.99436e-20)
(14.9988 4.52363e-05 -9.17891e-21)
(14.9988 8.78739e-05 -2.84525e-20)
(14.9988 0.000141575 -5.96817e-21)
(14.9988 0.000192617 -1.00717e-21)
(14.9988 0.000267497 1.52438e-20)
(14.9987 0.00027737 -9.41457e-21)
(14.9987 0.000353017 2.28746e-21)
(14.9987 6.78634e-05 3.96335e-20)
(14.9988 3.29496e-05 -1.55066e-20)
(15.0052 -2.28383e-05 6.42007e-20)
(15.0053 -0.000548531 -6.98786e-20)
(15.0052 0.000488312 0)
(15.0051 0.000363947 0)
(15.0049 0.000404007 2.20509e-20)
(15.0048 0.000230598 2.47228e-20)
(15.0047 0.000100382 4.00037e-20)
(15.0046 -4.62802e-05 1.51182e-20)
(15.0045 -0.000165591 4.04614e-20)
(15.0045 -0.00027916 -5.26326e-20)
(15.0044 -0.000379538 3.12249e-20)
(15.0044 -0.000473729 2.41249e-20)
(15.0043 -0.000560945 3.27742e-20)
(15.0043 -0.000642925 -1.80221e-22)
(15.0042 -0.000722031 1.07687e-19)
(15.0042 -0.000796249 -7.42882e-20)
(15.0042 -0.000867512 -2.20127e-20)
(15.0041 -0.000936563 -3.03314e-20)
(15.0041 -0.00100237 7.26499e-20)
(15.004 -0.00106603 -2.88957e-20)
(15.004 -0.00112708 9.89775e-20)
(15.0039 -0.00118684 -7.97614e-22)
(15.0039 -0.00124422 -2.0314e-20)
(15.0038 -0.00130062 2.46292e-20)
(15.0038 -0.00135424 -4.52534e-20)
(15.0037 -0.00140695 -6.24685e-22)
(15.0037 -0.00145795 8.64658e-20)
(15.0036 -0.00150747 4.40865e-20)
(15.0036 -0.0015554 -2.12897e-20)
(15.0035 -0.00160259 -7.80872e-23)
(15.0034 -0.00164837 0)
(15.0034 -0.00169284 -4.05114e-20)
(15.0033 -0.00173627 -6.01367e-20)
(15.0033 -0.00177865 3.8714e-20)
(15.0032 -0.00181952 4.11176e-20)
(15.0032 -0.0018597 3.77454e-20)
(15.0031 -0.0018983 3.62515e-20)
(15.0031 -0.00193602 3.62729e-20)
(15.003 -0.00197293 -5.4279e-21)
(15.003 -0.00200803 6.86371e-20)
(15.0029 -0.0020425 5.41634e-20)
(15.0029 -0.00207565 -1.30218e-20)
(15.0028 -0.00210756 -1.20705e-20)
(15.0027 -0.00213898 -1.9914e-20)
(15.0027 -0.00216919 -3.11585e-20)
(15.0026 -0.00219774 2.58661e-22)
(15.0026 -0.00222582 -1.99522e-20)
(15.0025 -0.00225245 -5.76549e-20)
(15.0025 -0.0022781 -2.80987e-20)
(15.0024 -0.0023028 1.95538e-20)
(15.0024 -0.00232656 -2.65244e-20)
(15.0023 -0.00234933 1.31246e-20)
(15.0023 -0.00237096 1.92168e-20)
(15.0022 -0.00239209 1.97267e-20)
(15.0022 -0.00241196 -1.94677e-20)
(15.0021 -0.00243124 -2.77474e-20)
(15.002 -0.00244929 1.92881e-20)
(15.002 -0.00246684 -4.125e-20)
(15.0019 -0.00248351 2.37371e-21)
(15.0019 -0.00249944 6.07854e-20)
(15.0018 -0.00251443 1.9032e-20)
(15.0018 -0.00252848 -1.88673e-20)
(15.0017 -0.00254192 -1.89453e-20)
(15.0017 -0.0025544 -5.58849e-20)
(15.0016 -0.00256608 1.8431e-20)
(15.0016 -0.002577 3.76116e-20)
(15.0015 -0.002587 -1.98997e-21)
(15.0015 -0.00259625 -1.61165e-20)
(15.0014 -0.00260482 1.84291e-20)
(15.0014 -0.00261261 -1.48639e-20)
(15.0013 -0.0026196 -3.67531e-20)
(15.0013 -0.00262584 -2.77698e-20)
(15.0012 -0.0026315 4.97647e-20)
(15.0012 -0.00263621 3.09591e-20)
(15.0011 -0.00264029 -1.80944e-20)
(15.0011 -0.00264399 -6.47861e-21)
(15.001 -0.00264692 -1.79577e-20)
(15.001 -0.00264907 -7.40422e-21)
(15.0009 -0.00265051 2.00912e-20)
(15.0009 -0.00265153 -1.24507e-21)
(15.0008 -0.00265171 3.58112e-20)
(15.0008 -0.00265148 -2.68495e-20)
(15.0008 -0.00265057 9.51052e-21)
(15.0007 -0.00264918 5.27834e-20)
(15.0007 -0.00264685 -1.05413e-20)
(15.0006 -0.00264419 -3.4939e-20)
(15.0006 -0.00264092 -3.08448e-23)
(15.0005 -0.00263717 -1.17998e-20)
(15.0005 -0.00263281 1.72037e-20)
(15.0004 -0.00262787 4.72112e-20)
(15.0004 -0.00262233 -4.03898e-21)
(15.0003 -0.00261629 -2.66084e-24)
(15.0003 -0.00260982 -1.70575e-20)
(15.0003 -0.00260268 -1.70157e-20)
(15.0002 -0.00259501 -1.04698e-20)
(15.0002 -0.00258696 -1.3507e-20)
(15.0001 -0.00257806 1.55936e-20)
(15.0001 -0.00256882 1.67885e-20)
(15 -0.00255892 1.67218e-20)
(15 -0.00254884 1.67814e-20)
(15 -0.00253806 -4.92359e-20)
(14.9999 -0.00252657 -1.64953e-20)
(14.9999 -0.00251491 1.78398e-20)
(14.9998 -0.0025026 1.63485e-20)
(14.9998 -0.00248997 1.85008e-20)
(14.9998 -0.00247656 -1.8861e-20)
(14.9997 -0.0024628 3.84207e-20)
(14.9997 -0.00244857 1.59605e-20)
(14.9997 -0.00243374 -5.16445e-20)
(14.9996 -0.00241856 -3.15942e-20)
(14.9996 -0.00240295 2.67316e-20)
(14.9995 -0.00238683 5.3064e-21)
(14.9995 -0.00237022 4.75735e-23)
(14.9995 -0.00235312 -3.86713e-23)
(14.9994 -0.00233565 -3.07745e-20)
(14.9994 -0.00231771 6.71605e-21)
(14.9994 -0.00229957 2.22291e-20)
(14.9993 -0.00228071 7.72654e-21)
(14.9993 -0.00226156 -2.29362e-20)
(14.9993 -0.002242 -2.98873e-20)
(14.9992 -0.00222226 0)
(14.9992 -0.00220198 1.48164e-20)
(14.9992 -0.00218155 5.44757e-21)
(14.9991 -0.00216073 0)
(14.9991 -0.00213946 9.93994e-21)
(14.9991 -0.00211777 1.02869e-20)
(14.999 -0.00209595 1.06175e-20)
(14.999 -0.00207381 1.43561e-20)
(14.999 -0.00205111 1.12069e-20)
(14.9989 -0.00202813 -1.41208e-20)
(14.9989 -0.00200476 1.41389e-20)
(14.9989 -0.00198097 -6.65951e-23)
(14.9989 -0.00195678 -1.52471e-20)
(14.9988 -0.00193229 -1.2797e-20)
(14.9988 -0.00190747 -1.08067e-22)
(14.9988 -0.0018822 2.70772e-20)
(14.9987 -0.00185661 1.35306e-20)
(14.9987 -0.00183069 0)
(14.9987 -0.00180432 1.60068e-23)
(14.9987 -0.00177776 1.27454e-21)
(14.9986 -0.00175076 3.00272e-20)
(14.9986 -0.00172333 -4.38336e-20)
(14.9986 -0.0016956 -1.52566e-20)
(14.9986 -0.00166747 5.74659e-20)
(14.9986 -0.00163921 0)
(14.9985 -0.00161031 -1.29201e-20)
(14.9985 -0.00158125 -3.59835e-21)
(14.9985 -0.00155158 -4.33365e-21)
(14.9985 -0.00152182 -1.24912e-20)
(14.9984 -0.0014916 1.73006e-20)
(14.9984 -0.00146104 0)
(14.9984 -0.0014302 -1.23917e-20)
(14.9984 -0.0013991 5.86394e-21)
(14.9984 -0.00136774 -6.05737e-21)
(14.9984 -0.00133586 4.25151e-20)
(14.9983 -0.00130407 -1.88327e-20)
(14.9983 -0.00127164 1.86008e-22)
(14.9983 -0.00123887 1.88907e-20)
(14.9983 -0.00120624 -1.15258e-20)
(14.9983 -0.00117329 1.16866e-20)
(14.9983 -0.00114004 1.14096e-20)
(14.9983 -0.0011069 -4.27746e-20)
(14.9982 -0.00107324 -1.09453e-20)
(14.9982 -0.00103967 -9.16026e-21)
(14.9982 -0.00100615 3.16202e-20)
(14.9982 -0.00097233 4.25152e-20)
(14.9982 -0.000938698 -3.18588e-20)
(14.9982 -0.000904827 1.04487e-20)
(14.9982 -0.00087099 -2.16908e-22)
(14.9982 -0.000837166 -1.04621e-20)
(14.9982 -0.000803253 0)
(14.9982 -0.00076921 -4.28457e-20)
(14.9982 -0.000735402 2.15422e-20)
(14.9982 -0.000701395 2.1639e-20)
(14.9982 -0.000667281 4.34205e-20)
(14.9982 -0.000632972 1.16032e-20)
(14.9982 -0.000598845 -3.16823e-20)
(14.9982 -0.000563985 2.18221e-20)
(14.9982 -0.00052936 9.78025e-21)
(14.9982 -0.000494228 2.16273e-20)
(14.9982 -0.00045917 3.47273e-20)
(14.9982 -0.000423544 -3.44907e-20)
(14.9982 -0.000387639 -3.61697e-22)
(14.9982 -0.000350924 3.92838e-22)
(14.9982 -0.000313996 -2.2319e-20)
(14.9982 -0.000276488 -3.04388e-20)
(14.9982 -0.00023767 -1.28679e-20)
(14.9982 -0.000198508 -4.46809e-21)
(14.9982 -0.000158058 2.08722e-20)
(14.9983 -0.000115394 2.21418e-20)
(14.9983 -7.14206e-05 -6.24636e-22)
(14.9983 -2.16537e-05 -2.89907e-20)
(14.9983 2.86299e-05 4.25807e-20)
(14.9983 9.12907e-05 -2.1443e-20)
(14.9983 0.000142329 -1.07702e-22)
(14.9983 0.000217561 0)
(14.9982 0.00017898 9.43178e-21)
(14.9982 0.000248846 2.04328e-20)
(14.9983 -0.000245845 -6.1599e-21)
(14.9984 7.33603e-07 -1.87018e-20)
(15.0066 -0.000123251 8.43254e-20)
(15.0068 -0.000904041 1.02544e-19)
(15.0067 0.000228091 0)
(15.0065 0.000174635 -6.89999e-20)
(15.0063 0.00029881 -2.24406e-20)
(15.0062 0.000135775 4.02206e-20)
(15.006 7.83369e-06 6.39037e-20)
(15.0059 -0.000158612 2.19275e-20)
(15.0059 -0.000298153 -1.5148e-20)
(15.0058 -0.000434571 6.12512e-20)
(15.0057 -0.000556383 -8.14463e-20)
(15.0057 -0.000671189 3.60634e-20)
(15.0056 -0.000778251 -7.89583e-20)
(15.0055 -0.000879864 2.06874e-22)
(15.0055 -0.000977349 -3.32235e-20)
(15.0054 -0.00107037 2.24868e-20)
(15.0054 -0.0011595 -1.06374e-19)
(15.0053 -0.00124576 -7.36909e-20)
(15.0052 -0.00132861 2.04273e-20)
(15.0052 -0.00140946 1.65479e-21)
(15.0051 -0.00148708 2.72744e-20)
(15.0051 -0.00156262 2.19858e-20)
(15.005 -0.00163586 4.84501e-20)
(15.0049 -0.00170753 2.09853e-20)
(15.0049 -0.00177606 4.73525e-20)
(15.0048 -0.00184334 -8.86561e-20)
(15.0047 -0.0019087 2.37012e-20)
(15.0047 -0.00197234 4.45574e-20)
(15.0046 -0.00203379 4.36535e-20)
(15.0045 -0.00209455 6.37144e-20)
(15.0045 -0.00215322 2.13179e-20)
(15.0044 -0.00221037 0)
(15.0043 -0.00226611 6.11335e-20)
(15.0043 -0.00232053 3.99794e-20)
(15.0042 -0.00237325 -2.70849e-21)
(15.0041 -0.00242494 1.73243e-20)
(15.004 -0.00247467 3.74617e-20)
(15.004 -0.00252329 5.70959e-20)
(15.0039 -0.00257052 3.62371e-20)
(15.0038 -0.00261588 -7.05796e-20)
(15.0038 -0.00266027 6.50986e-21)
(15.0037 -0.00270328 5.4209e-20)
(15.0036 -0.00274455 1.27742e-20)
(15.0036 -0.00278494 -2.92686e-22)
(15.0035 -0.00282404 2.57947e-22)
(15.0034 -0.00286099 3.05534e-20)
(15.0033 -0.00289713 -2.98284e-20)
(15.0033 -0.00293189 2.91308e-20)
(15.0032 -0.00296509 -2.84885e-20)
(15.0031 -0.00299722 -2.67763e-22)
(15.0031 -0.00302817 -1.95056e-20)
(15.003 -0.00305764 -2.71239e-20)
(15.0029 -0.00308602 -5.93294e-21)
(15.0029 -0.00311346 5.55755e-21)
(15.0028 -0.00313938 -5.15311e-21)
(15.0027 -0.00316449 -2.38026e-20)
(15.0027 -0.00318824 2.31544e-20)