/*--------------------------------*- C++ -*----------------------------------*\
  =========                 |
  \\      /  F ield         | OpenFOAM: The Open Source CFD Toolbox
   \\    /   O peration     | Website:  https://openfoam.org
    \\  /    A nd           | Version:  8
     \\/     M anipulation  |
\*---------------------------------------------------------------------------*/
FoamFile
{
    version     2.0;
    format      ascii;
    class       volScalarField;
    location    "4";
    object      nut;
}
// * * * * * * * * * * * * * * * * * * * * * * * * * * * * * * * * * * * * * //

dimensions      [0 2 -1 0 0 0 0];

internalField   nonuniform List<scalar> 
277560
(
0.139409
0.138235
0.137081
0.135953
0.134856
0.133794
0.132768
0.131782
0.130837
0.129933
0.129073
0.128255
0.127481
0.126751
0.126065
0.125422
0.124823
0.124267
0.123753
0.123282
0.122852
0.122462
0.122112
0.121801
0.121527
0.121289
0.121086
0.120917
0.12078
0.120674
0.120597
0.120548
0.120526
0.120528
0.120555
0.120603
0.120673
0.120762
0.12087
0.120994
0.121135
0.12129
0.121459
0.12164
0.121833
0.122037
0.122251
0.122473
0.122703
0.122941
0.123185
0.123435
0.12369
0.123949
0.124212
0.124479
0.124748
0.12502
0.125294
0.125569
0.125845
0.126122
0.126398
0.126675
0.126952
0.127228
0.127502
0.127776
0.128049
0.128319
0.128588
0.128856
0.129121
0.129383
0.129644
0.129902
0.130157
0.13041
0.13066
0.130907
0.131151
0.131393
0.131631
0.131867
0.132099
0.132328
0.132555
0.132778
0.132998
0.133215
0.133429
0.133639
0.133847
0.134052
0.134253
0.134452
0.134647
0.13484
0.135029
0.135216
0.1354
0.135581
0.135759
0.135934
0.136107
0.136277
0.136445
0.13661
0.136772
0.136932
0.13709
0.137245
0.137398
0.137548
0.137696
0.137843
0.137987
0.138129
0.138269
0.138407
0.139413
0.138238
0.137083
0.135955
0.134859
0.133796
0.132771
0.131785
0.13084
0.129937
0.129077
0.12826
0.127486
0.126756
0.12607
0.125427
0.124827
0.124271
0.123757
0.123285
0.122855
0.122465
0.122115
0.121803
0.121529
0.12129
0.121087
0.120918
0.12078
0.120674
0.120597
0.120547
0.120525
0.120527
0.120553
0.120601
0.120671
0.12076
0.120867
0.120991
0.121131
0.121286
0.121455
0.121636
0.121829
0.122033
0.122246
0.122468
0.122698
0.122936
0.123179
0.123429
0.123684
0.123943
0.124206
0.124473
0.124742
0.125014
0.125287
0.125562
0.125838
0.126115
0.126391
0.126668
0.126944
0.12722
0.127495
0.127768
0.128041
0.128311
0.12858
0.128847
0.129112
0.129375
0.129635
0.129893
0.130148
0.130401
0.130651
0.130898
0.131142
0.131384
0.131622
0.131857
0.13209
0.132319
0.132545
0.132768
0.132988
0.133205
0.133419
0.13363
0.133838
0.134042
0.134244
0.134442
0.134638
0.134831
0.13502
0.135207
0.135391
0.135572
0.135751
0.135926
0.136099
0.136269
0.136437
0.136602
0.136765
0.136925
0.137083
0.137238
0.137391
0.137542
0.13769
0.137836
0.137981
0.138123
0.138263
0.138401
0.139408
0.138231
0.137077
0.135951
0.134856
0.133797
0.132774
0.13179
0.130847
0.129945
0.129086
0.128269
0.127496
0.126765
0.126079
0.125436
0.124835
0.124278
0.123763
0.123291
0.122859
0.122468
0.122117
0.121804
0.121528
0.121289
0.121084
0.120914
0.120775
0.120668
0.12059
0.120539
0.120516
0.120517
0.120543
0.12059
0.120659
0.120747
0.120854
0.120978
0.121117
0.121272
0.12144
0.121621
0.121813
0.122017
0.12223
0.122451
0.122681
0.122918
0.123162
0.123411
0.123666
0.123925
0.124188
0.124454
0.124724
0.124995
0.125268
0.125543
0.125819
0.126095
0.126372
0.126649
0.126925
0.127201
0.127475
0.127749
0.128021
0.128292
0.12856
0.128827
0.129092
0.129355
0.129615
0.129873
0.130128
0.130381
0.130631
0.130878
0.131122
0.131363
0.131602
0.131837
0.132069
0.132299
0.132525
0.132748
0.132968
0.133185
0.133399
0.13361
0.133818
0.134023
0.134225
0.134423
0.134619
0.134812
0.135002
0.135189
0.135374
0.135555
0.135734
0.13591
0.136083
0.136254
0.136422
0.136587
0.13675
0.13691
0.137069
0.137224
0.137378
0.137529
0.137678
0.137824
0.137969
0.138112
0.138252
0.138391
0.139404
0.138226
0.137073
0.135949
0.134858
0.133801
0.132782
0.1318
0.130859
0.129959
0.129101
0.128285
0.127512
0.126782
0.126094
0.12545
0.124849
0.12429
0.123774
0.123299
0.122866
0.122473
0.122119
0.121804
0.121527
0.121285
0.121079
0.120907
0.120766
0.120657
0.120577
0.120526
0.120501
0.120501
0.120525
0.120571
0.120639
0.120726
0.120832
0.120955
0.121094
0.121248
0.121415
0.121595
0.121787
0.12199
0.122202
0.122424
0.122653
0.12289
0.123133
0.123382
0.123637
0.123896
0.124158
0.124425
0.124694
0.124965
0.125239
0.125513
0.125789
0.126066
0.126342
0.126619
0.126895
0.127171
0.127445
0.127719
0.127991
0.128262
0.12853
0.128797
0.129062
0.129324
0.129585
0.129842
0.130098
0.13035
0.1306
0.130847
0.131091
0.131333
0.131571
0.131806
0.132039
0.132268
0.132495
0.132718
0.132938
0.133156
0.13337
0.133581
0.133789
0.133994
0.134196
0.134396
0.134592
0.134785
0.134976
0.135163
0.135348
0.13553
0.135709
0.135886
0.136059
0.136231
0.136399
0.136565
0.136729
0.13689
0.137049
0.137205
0.137359
0.137511
0.13766
0.137808
0.137953
0.138096
0.138237
0.138376
0.139402
0.138223
0.137073
0.135952
0.134865
0.133812
0.132796
0.131818
0.13088
0.129982
0.129125
0.128309
0.127536
0.126806
0.126118
0.125472
0.124869
0.124308
0.12379
0.123312
0.122876
0.12248
0.122124
0.121806
0.121526
0.121281
0.121072
0.120897
0.120754
0.120643
0.120561
0.120507
0.12048
0.120478
0.120501
0.120546
0.120612
0.120698
0.120802
0.120924
0.121062
0.121214
0.121381
0.12156
0.121752
0.121953
0.122165
0.122386
0.122615
0.122851
0.123094
0.123343
0.123597
0.123856
0.124119
0.124385
0.124654
0.124926
0.125199
0.125474
0.12575
0.126026
0.126303
0.12658
0.126856
0.127132
0.127407
0.12768
0.127952
0.128223
0.128492
0.128758
0.129023
0.129286
0.129546
0.129804
0.130059
0.130311
0.130561
0.130808
0.131052
0.131294
0.131532
0.131768
0.132
0.13223
0.132456
0.13268
0.1329
0.133118
0.133332
0.133544
0.133752
0.133958
0.134161
0.13436
0.134557
0.134751
0.134942
0.13513
0.135315
0.135498
0.135678
0.135855
0.13603
0.136201
0.136371
0.136538
0.136702
0.136864
0.137023
0.137181
0.137335
0.137488
0.137638
0.137786
0.137932
0.138076
0.138218
0.138358
0.139401
0.138224
0.137076
0.135961
0.134878
0.13383
0.132818
0.131844
0.130909
0.130013
0.129158
0.128344
0.127571
0.12684
0.12615
0.125503
0.124898
0.124334
0.123812
0.123332
0.122892
0.122492
0.122132
0.12181
0.121526
0.121278
0.121066
0.120887
0.120741
0.120626
0.120541
0.120484
0.120455
0.120451
0.120471
0.120514
0.120578
0.120662
0.120765
0.120885
0.121022
0.121173
0.121339
0.121517
0.121707
0.121908
0.122119
0.122339
0.122568
0.122804
0.123046
0.123295
0.123549
0.123808
0.124071
0.124337
0.124606
0.124878
0.125151
0.125426
0.125702
0.125979
0.126256
0.126533
0.12681
0.127086
0.127361
0.127635
0.127907
0.128178
0.128446
0.128713
0.128978
0.129241
0.129501
0.129758
0.130014
0.130266
0.130516
0.130763
0.131007
0.131248
0.131487
0.131722
0.131955
0.132185
0.132411
0.132635
0.132856
0.133074
0.133289
0.1335
0.133709
0.133915
0.134118
0.134319
0.134516
0.13471
0.134902
0.135091
0.135277
0.135461
0.135641
0.135819
0.135995
0.136167
0.136338
0.136505
0.136671
0.136834
0.136994
0.137152
0.137308
0.137462
0.137613
0.137762
0.137909
0.138054
0.138197
0.138338
0.139402
0.138227
0.137085
0.135975
0.134899
0.133857
0.13285
0.131881
0.130949
0.130056
0.129203
0.128389
0.127616
0.126884
0.126194
0.125544
0.124936
0.124369
0.123843
0.123358
0.122914
0.12251
0.122145
0.121818
0.121529
0.121277
0.12106
0.120877
0.120726
0.120608
0.120519
0.120459
0.120426
0.120419
0.120436
0.120477
0.120538
0.12062
0.120721
0.12084
0.120975
0.121125
0.121289
0.121466
0.121655
0.121855
0.122065
0.122285
0.122513
0.122748
0.12299
0.123239
0.123493
0.123751
0.124014
0.124281
0.12455
0.124822
0.125096
0.125372
0.125649
0.125926
0.126204
0.126481
0.126758
0.127035
0.12731
0.127584
0.127857
0.128128
0.128397
0.128664
0.128929
0.129192
0.129452
0.12971
0.129965
0.130217
0.130467
0.130714
0.130958
0.1312
0.131438
0.131674
0.131906
0.132136
0.132363
0.132587
0.132808
0.133026
0.133241
0.133453
0.133662
0.133869
0.134072
0.134273
0.134471
0.134666
0.134858
0.135048
0.135235
0.135419
0.135601
0.13578
0.135956
0.13613
0.136301
0.13647
0.136636
0.1368
0.136962
0.137121
0.137278
0.137432
0.137585
0.137735
0.137883
0.138029
0.138173
0.138315
0.139403
0.138235
0.137099
0.135997
0.134928
0.133892
0.132892
0.131927
0.131
0.13011
0.129259
0.128446
0.127673
0.12694
0.126248
0.125595
0.124984
0.124412
0.123882
0.123392
0.122943
0.122533
0.122162
0.12183
0.121536
0.121278
0.121055
0.120867
0.120712
0.120588
0.120495
0.120431
0.120394
0.120384
0.120398
0.120435
0.120494
0.120574
0.120672
0.120788
0.120921
0.12107
0.121232
0.121408
0.121596
0.121795
0.122004
0.122223
0.12245
0.122685
0.122927
0.123175
0.123429
0.123688
0.123951
0.124218
0.124488
0.124761
0.125036
0.125313
0.12559
0.125869
0.126147
0.126426
0.126704
0.126981
0.127257
0.127532
0.127806
0.128078
0.128347
0.128615
0.12888
0.129143
0.129403
0.129661
0.129916
0.130169
0.130419
0.130666
0.13091
0.131151
0.131389
0.131625
0.131857
0.132087
0.132314
0.132538
0.132759
0.132977
0.133192
0.133405
0.133614
0.133821
0.134025
0.134226
0.134425
0.13462
0.134813
0.135004
0.135191
0.135376
0.135559
0.135739
0.135916
0.136091
0.136263
0.136433
0.1366
0.136765
0.136928
0.137088
0.137247
0.137402
0.137556
0.137707
0.137857
0.138004
0.138149
0.138291
0.139407
0.138246
0.137119
0.136026
0.134965
0.133937
0.132944
0.131985
0.131062
0.130176
0.129327
0.128515
0.127742
0.127008
0.126313
0.125657
0.125042
0.124466
0.12393
0.123434
0.122978
0.122562
0.122185
0.121846
0.121545
0.121281
0.121053
0.120859
0.120698
0.120569
0.120471
0.120402
0.12036
0.120346
0.120356
0.12039
0.120445
0.120522
0.120618
0.120732
0.120862
0.121009
0.121169
0.121343
0.12153
0.121728
0.121936
0.122154
0.12238
0.122615
0.122857
0.123105
0.123359
0.123619
0.123883
0.124151
0.124422
0.124696
0.124972
0.12525
0.125529
0.125809
0.126089
0.12637
0.126649
0.126928
0.127206
0.127482
0.127757
0.12803
0.1283
0.128569
0.128835
0.129098
0.129359
0.129617
0.129873
0.130125
0.130375
0.130622
0.130866
0.131107
0.131345
0.13158
0.131813
0.132042
0.132269
0.132493
0.132714
0.132932
0.133147
0.133359
0.133569
0.133776
0.13398
0.134182
0.134381
0.134577
0.13477
0.134961
0.13515
0.135335
0.135519
0.135699
0.135878
0.136054
0.136227
0.136398
0.136566
0.136733
0.136897
0.137058
0.137217
0.137374
0.137529
0.137681
0.137832
0.137979
0.138125
0.138268
0.139411
0.138261
0.137145
0.136062
0.135011
0.133992
0.133006
0.132054
0.131136
0.130254
0.129407
0.128597
0.127823
0.127088
0.12639
0.125731
0.12511
0.124529
0.123987
0.123484
0.123021
0.122597
0.122213
0.121867
0.121559
0.121288
0.121052
0.120852
0.120685
0.12055
0.120446
0.120372
0.120325
0.120305
0.120311
0.120341
0.120393
0.120466
0.120559
0.12067
0.120798
0.120942
0.121101
0.121273
0.121458
0.121655
0.121862
0.122079
0.122305
0.122539
0.122781
0.12303
0.123285
0.123545
0.12381
0.124079
0.124352
0.124628
0.124906
0.125186
0.125468
0.12575
0.126033
0.126316
0.126598
0.126879
0.127159
0.127438
0.127714
0.127988
0.128261
0.12853
0.128797
0.129062
0.129323
0.129582
0.129838
0.130091
0.130341
0.130588
0.130832
0.131073
0.131311
0.131546
0.131778
0.132007
0.132233
0.132457
0.132677
0.132895
0.13311
0.133323
0.133532
0.133739
0.133943
0.134145
0.134344
0.134541
0.134735
0.134926
0.135115
0.135301
0.135485
0.135667
0.135846
0.136023
0.136197
0.136369
0.136539
0.136706
0.136871
0.137034
0.137194
0.137352
0.137508
0.137661
0.137812
0.13796
0.138105
0.138248
0.139417
0.13828
0.137176
0.136105
0.135066
0.134057
0.13308
0.132135
0.131223
0.130344
0.1295
0.128691
0.127918
0.127181
0.12648
0.125816
0.12519
0.124603
0.124053
0.123543
0.123071
0.122639
0.122246
0.121892
0.121576
0.121297
0.121054
0.120847
0.120673
0.120531
0.120421
0.120341
0.120288
0.120264
0.120264
0.12029
0.120338
0.120407
0.120497
0.120605
0.12073
0.120871
0.121028
0.121198
0.121382
0.121577
0.121783
0.121999
0.122225
0.122459
0.122701
0.12295
0.123205
0.123467
0.123734
0.124005
0.12428
0.124559
0.12484
0.125124
0.125409
0.125695
0.125981
0.126267
0.126552
0.126837
0.127119
0.1274
0.127679
0.127955
0.128229
0.1285
0.128769
0.129034
0.129296
0.129556
0.129812
0.130065
0.130315
0.130562
0.130806
0.131047
0.131285
0.13152
0.131752
0.131981
0.132207
0.132431
0.132651
0.132869
0.133084
0.133296
0.133506
0.133713
0.133917
0.134119
0.134318
0.134515
0.134709
0.134901
0.13509
0.135277
0.135462
0.135644
0.135824
0.136002
0.136177
0.13635
0.13652
0.136689
0.136854
0.137018
0.137178
0.137337
0.137492
0.137646
0.137796
0.137944
0.138089
0.13823
0.139425
0.138302
0.137214
0.136157
0.135131
0.134133
0.133166
0.132228
0.131322
0.130448
0.129607
0.1288
0.128026
0.127287
0.126583
0.125915
0.125283
0.124688
0.12413
0.123611
0.12313
0.122689
0.122286
0.121922
0.121597
0.121309
0.121058
0.120843
0.120662
0.120513
0.120396
0.120309
0.120251
0.12022
0.120216
0.120236
0.120279
0.120345
0.120431
0.120535
0.120658
0.120796
0.12095
0.121119
0.1213
0.121494
0.121699
0.121914
0.122139
0.122373
0.122616
0.122866
0.123123
0.123386
0.123655
0.123929
0.124208
0.12449
0.124776
0.125064
0.125353
0.125643
0.125934
0.126224
0.126512
0.1268
0.127085
0.127368
0.127649
0.127927
0.128203
0.128475
0.128744
0.12901
0.129274
0.129533
0.12979
0.130044
0.130294
0.130541
0.130786
0.131027
0.131265
0.131499
0.131731
0.13196
0.132187
0.13241
0.13263
0.132848
0.133063
0.133275
0.133485
0.133692
0.133897
0.134099
0.134299
0.134496
0.13469
0.134883
0.135073
0.13526
0.135445
0.135628
0.135809
0.135987
0.136163
0.136336
0.136507
0.136675
0.136841
0.137005
0.137166
0.137324
0.13748
0.137632
0.137782
0.137929
0.138073
0.138214
0.139433
0.138329
0.137259
0.136218
0.135205
0.134219
0.13326
0.13233
0.131429
0.130559
0.129721
0.128916
0.128143
0.127404
0.126698
0.126026
0.125388
0.124785
0.124219
0.123689
0.123198
0.122746
0.122332
0.121958
0.121623
0.121326
0.121065
0.120841
0.120652
0.120496
0.120371
0.120277
0.120213
0.120176
0.120165
0.12018
0.120219
0.12028
0.120361
0.120462
0.120582
0.120717
0.120869
0.121035
0.121214
0.121406
0.12161
0.121825
0.12205
0.122284
0.122527
0.122779
0.123038
0.123303
0.123575
0.123853
0.124136
0.124423
0.124714
0.125007
0.125301
0.125595
0.125889
0.126183
0.126475
0.126765
0.127052
0.127338
0.12762
0.1279
0.128176
0.128449
0.12872
0.128987
0.12925
0.129511
0.129768
0.130022
0.130272
0.13052
0.130764
0.131005
0.131244
0.131479
0.131711
0.13194
0.132166
0.13239
0.13261
0.132828
0.133044
0.133256
0.133466
0.133674
0.133879
0.134081
0.134281
0.134479
0.134674
0.134867
0.135057
0.135245
0.135431
0.135614
0.135795
0.135974
0.13615
0.136324
0.136495
0.136663
0.13683
0.136993
0.137154
0.137312
0.137467
0.137619
0.137768
0.137914
0.138057
0.138197
0.139444
0.138362
0.137311
0.136285
0.135284
0.134307
0.133356
0.132432
0.131536
0.130671
0.129836
0.129033
0.128262
0.127523
0.126816
0.126142
0.125501
0.124892
0.124318
0.123778
0.123275
0.122811
0.122385
0.122
0.121653
0.121345
0.121075
0.120842
0.120643
0.120479
0.120347
0.120246
0.120174
0.120131
0.120114
0.120123
0.120156
0.120212
0.12029
0.120387
0.120502
0.120635
0.120784
0.120947
0.121125
0.121315
0.121518
0.121732
0.121957
0.122192
0.122436
0.122689
0.12295
0.123219
0.123495
0.123777
0.124065
0.124358
0.124653
0.124951
0.125249
0.125548
0.125845
0.126142
0.126436
0.126728
0.127018
0.127304
0.127588
0.127869
0.128146
0.128421
0.128692
0.128959
0.129223
0.129484
0.129742
0.129996
0.130247
0.130495
0.13074
0.130981
0.13122
0.131455
0.131688
0.131917
0.132144
0.132368
0.132589
0.132807
0.133023
0.133236
0.133446
0.133654
0.13386
0.134063
0.134263
0.134461
0.134657
0.13485
0.135041
0.13523
0.135416
0.1356
0.135781
0.13596
0.136136
0.13631
0.136482
0.136651
0.136817
0.13698
0.137141
0.137298
0.137453
0.137605
0.137753
0.137899
0.138041
0.13818
0.139456
0.138398
0.137365
0.136353
0.135362
0.134394
0.13345
0.132531
0.131641
0.13078
0.129949
0.129148
0.128379
0.127641
0.126935
0.12626
0.125616
0.125004
0.124423
0.123875
0.123362
0.122884
0.122446
0.122047
0.121688
0.121369
0.121088
0.120844
0.120637
0.120463
0.120323
0.120214
0.120135
0.120085
0.120062
0.120065
0.120092
0.120143
0.120216
0.120309
0.12042
0.12055
0.120695
0.120856
0.121032
0.121221
0.121422
0.121636
0.12186
0.122096
0.122341
0.122596
0.12286
0.123133
0.123414
0.123701
0.123995
0.124292
0.124593
0.124894
0.125196
0.125498
0.125799
0.126097
0.126394
0.126688
0.126979
0.127267
0.127552
0.127834
0.128112
0.128387
0.128659
0.128927
0.129192
0.129453
0.129711
0.129966
0.130218
0.130466
0.130711
0.130953
0.131192
0.131427
0.13166
0.13189
0.132117
0.132342
0.132563
0.132782
0.132998
0.133212
0.133423
0.133632
0.133838
0.134041
0.134242
0.134441
0.134637
0.134831
0.135023
0.135212
0.135399
0.135583
0.135765
0.135944
0.136121
0.136295
0.136467
0.136636
0.136802
0.136965
0.137126
0.137283
0.137438
0.137589
0.137737
0.137882
0.138023
0.138161
0.139471
0.138436
0.137419
0.136419
0.135438
0.134477
0.13354
0.132627
0.131742
0.130885
0.130057
0.12926
0.128492
0.127756
0.12705
0.126375
0.12573
0.125115
0.12453
0.123977
0.123454
0.122966
0.122514
0.122101
0.121728
0.121396
0.121104
0.12085
0.120632
0.120449
0.1203
0.120183
0.120096
0.120039
0.120009
0.120005
0.120027
0.120072
0.12014
0.120228
0.120336
0.120462
0.120604
0.120762
0.120936
0.121123
0.121323
0.121536
0.121761
0.121997
0.122244
0.122502
0.122769
0.123046
0.123332
0.123624
0.123923
0.124225
0.12453
0.124835
0.12514
0.125445
0.125747
0.126048
0.126346
0.126642
0.126934
0.127223
0.12751
0.127792
0.128071
0.128347
0.12862
0.128889
0.129154
0.129416
0.129675
0.12993
0.130182
0.130431
0.130676
0.130919
0.131158
0.131395
0.131628
0.131859
0.132086
0.132311
0.132533
0.132753
0.13297
0.133184
0.133396
0.133605
0.133812
0.134016
0.134218
0.134418
0.134615
0.134809
0.135001
0.135191
0.135379
0.135563
0.135746
0.135925
0.136103
0.136277
0.136449
0.136618
0.136785
0.136948
0.137108
0.137266
0.13742
0.137571
0.137719
0.137864
0.138005
0.138142
0.139486
0.138471
0.137469
0.136481
0.135509
0.134556
0.133625
0.132718
0.131838
0.130985
0.130161
0.129366
0.128601
0.127867
0.127162
0.126487
0.125841
0.125224
0.124637
0.124078
0.12355
0.123052
0.122588
0.122161
0.121774
0.121428
0.121123
0.120857
0.120629
0.120436
0.120278
0.120152
0.120057
0.119992
0.119955
0.119945
0.11996
0.12
0.120062
0.120146
0.120249
0.120371
0.12051
0.120666
0.120837
0.121022
0.121221
0.121433
0.121658
0.121895
0.122144
0.122404
0.122676
0.122957
0.123248
0.123546
0.123849
0.124155
0.124463
0.124771
0.125079
0.125386
0.125691
0.125993
0.126293
0.12659
0.126883
0.127174
0.127461
0.127744
0.128024
0.128301
0.128574
0.128844
0.12911
0.129373
0.129632
0.129888
0.13014
0.13039
0.130636
0.130879
0.131119
0.131356
0.13159
0.131822
0.13205
0.132276
0.132499
0.132719
0.132937
0.133152
0.133365
0.133575
0.133782
0.133987
0.13419
0.13439
0.134588
0.134784
0.134977
0.135167
0.135355
0.13554
0.135723
0.135904
0.136081
0.136256
0.136429
0.136598
0.136765
0.136928
0.137089
0.137246
0.137401
0.137552
0.1377
0.137844
0.137985
0.138122
0.1395
0.138505
0.137517
0.136539
0.135576
0.134631
0.133706
0.132804
0.131928
0.13108
0.130259
0.129468
0.128705
0.127973
0.127269
0.126595
0.125949
0.125331
0.124741
0.124179
0.123645
0.12314
0.122666
0.122226
0.121824
0.121464
0.121146
0.120868
0.120628
0.120425
0.120257
0.120122
0.120019
0.119946
0.119901
0.119884
0.119893
0.119926
0.119983
0.120062
0.12016
0.120278
0.120414
0.120567
0.120735
0.120918
0.121116
0.121328
0.121553
0.121791
0.122042
0.122305
0.12258
0.122866
0.123161
0.123464
0.123771
0.12408
0.124391
0.124702
0.125013
0.125321
0.125628
0.125932
0.126233
0.126531
0.126826
0.127117
0.127405
0.12769
0.127971
0.128248
0.128522
0.128792
0.129059
0.129323
0.129583
0.129839
0.130093
0.130343
0.13059
0.130834
0.131075
0.131312
0.131547
0.131779
0.132009
0.132235
0.132459
0.13268
0.132899
0.133115
0.133329
0.13354
0.133748
0.133954
0.134158
0.134359
0.134558
0.134754
0.134948
0.135139
0.135328
0.135514
0.135698
0.135879
0.136057
0.136233
0.136406
0.136576
0.136743
0.136906
0.137067
0.137225
0.13738
0.137531
0.137679
0.137823
0.137964
0.138101
0.139513
0.138535
0.13756
0.136593
0.135638
0.1347
0.133781
0.132885
0.132014
0.131169
0.130352
0.129564
0.128804
0.128073
0.127371
0.126698
0.126052
0.125433
0.124842
0.124277
0.123739
0.123228
0.122746
0.122295
0.12188
0.121505
0.121172
0.120881
0.120629
0.120415
0.120237
0.120093
0.119981
0.119899
0.119847
0.119823
0.119824
0.119852
0.119903
0.119976
0.12007
0.120184
0.120316
0.120465
0.120631
0.120812
0.121009
0.12122
0.121445
0.121684
0.121937
0.122203
0.122481
0.122772
0.123071
0.123377
0.123688
0.124001
0.124314
0.124628
0.12494
0.12525
0.125558
0.125863
0.126166
0.126465
0.126761
0.127054
0.127343
0.127628
0.12791
0.128188
0.128463
0.128734
0.129002
0.129266
0.129527
0.129784
0.130039
0.13029
0.130537
0.130782
0.131024
0.131263
0.131499
0.131732
0.131962
0.13219
0.132415
0.132637
0.132857
0.133074
0.133288
0.1335
0.13371
0.133917
0.134122
0.134324
0.134524
0.134721
0.134916
0.135108
0.135298
0.135485
0.135669
0.135851
0.13603
0.136206
0.13638
0.13655
0.136718
0.136882
0.137044
0.137202
0.137357
0.137508
0.137656
0.137801
0.137942
0.138079
0.139524
0.138562
0.137599
0.136642
0.135695
0.134764
0.133851
0.13296
0.132093
0.131253
0.13044
0.129654
0.128898
0.128169
0.127469
0.126796
0.12615
0.125531
0.124939
0.124371
0.12383
0.123314
0.122826
0.122366
0.121939
0.121549
0.121201
0.120896
0.120632
0.120407
0.120219
0.120065
0.119944
0.119854
0.119793
0.119761
0.119756
0.119776
0.119821
0.119889
0.119978
0.120087
0.120215
0.120361
0.120524
0.120704
0.120899
0.121109
0.121334
0.121574
0.121829
0.122097
0.12238
0.122674
0.122977
0.123287
0.1236
0.123915
0.124231
0.124546
0.12486
0.125172
0.125482
0.125788
0.126092
0.126392
0.126689
0.126983
0.127273
0.127559
0.127842
0.128121
0.128397
0.128669
0.128938
0.129203
0.129465
0.129723
0.129978
0.13023
0.130479
0.130725
0.130968
0.131208
0.131445
0.131679
0.13191
0.132139
0.132365
0.132588
0.132809
0.133028
0.133243
0.133457
0.133667
0.133876
0.134082
0.134285
0.134486
0.134684
0.13488
0.135073
0.135264
0.135452
0.135638
0.13582
0.136
0.136177
0.136351
0.136523
0.136691
0.136856
0.137018
0.137176
0.137332
0.137484
0.137632
0.137777
0.137918
0.138056
0.139534
0.138586
0.137635
0.136687
0.135748
0.134823
0.133916
0.13303
0.132168
0.131332
0.130522
0.12974
0.128986
0.12826
0.127561
0.126889
0.126245
0.125625
0.125032
0.124463
0.123918
0.123399
0.122904
0.122437
0.121999
0.121596
0.121234
0.120915
0.120638
0.120401
0.120201
0.120037
0.119907
0.119808
0.119739
0.119699
0.119687
0.1197
0.119739
0.119801
0.119885
0.11999
0.120114
0.120256
0.120416
0.120593
0.120786
0.120996
0.121221
0.121461
0.121717
0.121989
0.122274
0.122572
0.122878
0.123191
0.123506
0.123824
0.124142
0.124459
0.124774
0.125088
0.125398
0.125706
0.126011
0.126313
0.126611
0.126905
0.127196
0.127484
0.127768
0.128048
0.128324
0.128598
0.128867
0.129133
0.129396
0.129656
0.129912
0.130165
0.130415
0.130662
0.130906
0.131147
0.131385
0.131621
0.131853
0.132083
0.132311
0.132535
0.132757
0.132977
0.133194
0.133409
0.133621
0.13383
0.134037
0.134242
0.134444
0.134644
0.134841
0.135035
0.135227
0.135416
0.135603
0.135786
0.135967
0.136145
0.13632
0.136492
0.136661
0.136827
0.13699
0.137149
0.137305
0.137458
0.137606
0.137752
0.137893
0.138031
0.139542
0.138608
0.137667
0.136728
0.135797
0.134878
0.133976
0.133095
0.132238
0.131405
0.130599
0.12982
0.129069
0.128345
0.127649
0.126978
0.126334
0.125715
0.125121
0.124551
0.124004
0.123481
0.122982
0.122508
0.122061
0.121646
0.12127
0.120936
0.120646
0.120397
0.120186
0.120011
0.119871
0.119763
0.119686
0.119638
0.119618
0.119624
0.119656
0.119712
0.119791
0.119891
0.12001
0.120149
0.120305
0.12048
0.120671
0.120879
0.121104
0.121345
0.121603
0.121876
0.122165
0.122465
0.122774
0.123089
0.123407
0.123726
0.124046
0.124364
0.124681
0.124996
0.125308
0.125618
0.125924
0.126226
0.126525
0.126821
0.127113
0.127402
0.127687
0.127968
0.128246
0.12852
0.12879
0.129058
0.129322
0.129582
0.12984
0.130094
0.130345
0.130594
0.130839
0.131081
0.131321
0.131558
0.131792
0.132023
0.132252
0.132478
0.132701
0.132922
0.133141
0.133357
0.13357
0.133781
0.13399
0.134196
0.134399
0.1346
0.134798
0.134994
0.135187
0.135377
0.135565
0.13575
0.135932
0.136111
0.136287
0.13646
0.13663
0.136797
0.13696
0.13712
0.137277
0.13743
0.137579
0.137725
0.137868
0.138006
0.13955
0.138627
0.137697
0.136765
0.135841
0.134928
0.134032
0.133155
0.132302
0.131474
0.130671
0.129896
0.129147
0.128426
0.127731
0.127063
0.12642
0.125801
0.125206
0.124635
0.124086
0.12356
0.123057
0.122577
0.122123
0.121698
0.121308
0.12096
0.120656
0.120394
0.120172
0.119987
0.119837
0.119719
0.119633
0.119577
0.119549
0.119548
0.119573
0.119623
0.119696
0.11979
0.119905
0.12004
0.120193
0.120365
0.120554
0.120761
0.120985
0.121226
0.121484
0.12176
0.122051
0.122353
0.122665
0.122982
0.123301
0.123623
0.123944
0.124264
0.124582
0.124898
0.125211
0.125522
0.125829
0.126133
0.126433
0.12673
0.127023
0.127313
0.127599
0.127881
0.12816
0.128436
0.128708
0.128976
0.129241
0.129503
0.129762
0.130018
0.13027
0.13052
0.130767
0.13101
0.131251
0.131489
0.131725
0.131958
0.132188
0.132416
0.132641
0.132863
0.133083
0.133301
0.133516
0.133728
0.133938
0.134146
0.13435
0.134553
0.134753
0.13495
0.135144
0.135336
0.135525
0.135711
0.135894
0.136074
0.136251
0.136426
0.136597
0.136764
0.136929
0.137089
0.137247
0.137401
0.137551
0.137698
0.13784
0.137979
0.139556
0.138644
0.137723
0.136799
0.135881
0.134974
0.134083
0.133211
0.132362
0.131538
0.130739
0.129967
0.129221
0.128502
0.12781
0.127143
0.126501
0.125883
0.125288
0.124716
0.124165
0.123636
0.123129
0.122645
0.122184
0.12175
0.121349
0.120986
0.120669
0.120394
0.12016
0.119964
0.119803
0.119676
0.119581
0.119517
0.11948
0.119472
0.11949
0.119533
0.1196
0.119689
0.119799
0.119929
0.120079
0.120247
0.120434
0.120639
0.120862
0.121103
0.121362
0.121639
0.121932
0.122237
0.12255
0.122868
0.12319
0.123512
0.123835
0.124156
0.124476
0.124793
0.125108
0.125419
0.125728
0.126033
0.126334
0.126632
0.126927
0.127218
0.127505
0.127789
0.128069
0.128345
0.128619
0.128889
0.129155
0.129419
0.129679
0.129936
0.13019
0.130441
0.130689
0.130934
0.131177
0.131417
0.131654
0.131888
0.13212
0.132349
0.132576
0.1328
0.133022
0.133241
0.133457
0.133671
0.133883
0.134092
0.134299
0.134503
0.134704
0.134902
0.135098
0.135291
0.135482
0.135669
0.135854
0.136035
0.136214
0.136389
0.136561
0.13673
0.136895
0.137057
0.137215
0.13737
0.137521
0.137669
0.137812
0.137952
0.139562
0.13866
0.137746
0.13683
0.135918
0.135016
0.13413
0.133263
0.132418
0.131597
0.130802
0.130033
0.129291
0.128575
0.127884
0.127219
0.126578
0.125961
0.125366
0.124793
0.124241
0.12371
0.1232
0.122711
0.122245
0.121803
0.121391
0.121015
0.120683
0.120395
0.120149
0.119942
0.119771
0.119634
0.11953
0.119457
0.119412
0.119396
0.119407
0.119443
0.119504
0.119587
0.119692
0.119818
0.119963
0.120128
0.120312
0.120515
0.120737
0.120977
0.121237
0.121514
0.121808
0.122115
0.122429
0.122749
0.123072
0.123396
0.12372
0.124042
0.124363
0.124682
0.124998
0.12531
0.12562
0.125926
0.126229
0.126528
0.126824
0.127116
0.127405
0.12769
0.127971
0.128249
0.128524
0.128795
0.129063
0.129328
0.12959
0.129849
0.130104
0.130357
0.130607
0.130854
0.131098
0.131339
0.131578
0.131814
0.132048
0.132279
0.132507
0.132733
0.132956
0.133177
0.133396
0.133611
0.133825
0.134035
0.134244
0.134449
0.134652
0.134852
0.13505
0.135244
0.135436
0.135625
0.135811
0.135994
0.136174
0.13635
0.136524
0.136694
0.13686
0.137023
0.137183
0.137338
0.13749
0.137639
0.137783
0.137923
0.139567
0.138673
0.137767
0.136857
0.135951
0.135054
0.134173
0.13331
0.132469
0.131652
0.130861
0.130095
0.129356
0.128643
0.127955
0.127292
0.126652
0.126036
0.125441
0.124868
0.124315
0.123782
0.123269
0.122776
0.122304
0.121855
0.121434
0.121046
0.1207
0.120399
0.120141
0.119922
0.11974
0.119594
0.11948
0.119398
0.119345
0.119321
0.119324
0.119353
0.119407
0.119484
0.119584
0.119705
0.119846
0.120008
0.120188
0.120389
0.120609
0.120848
0.121107
0.121385
0.12168
0.121987
0.122303
0.122624
0.122948
0.123273
0.123598
0.123922
0.124244
0.124564
0.124881
0.125195
0.125506
0.125813
0.126117
0.126418
0.126715
0.127009
0.127299
0.127585
0.127868
0.128148
0.128424
0.128697
0.128966
0.129233
0.129496
0.129756
0.130014
0.130268
0.13052
0.130768
0.131014
0.131258
0.131498
0.131736
0.131971
0.132204
0.132435
0.132662
0.132887
0.13311
0.13333
0.133548
0.133763
0.133976
0.134186
0.134393
0.134598
0.134799
0.134999
0.135195
0.135388
0.135579
0.135766
0.135951
0.136132
0.13631
0.136484
0.136656
0.136823
0.136988
0.137148
0.137305
0.137458
0.137607
0.137753
0.137894
0.139571
0.138686
0.137786
0.136882
0.135981
0.135089
0.134212
0.133354
0.132517
0.131704
0.130916
0.130154
0.129418
0.128707
0.128022
0.12736
0.126723
0.126107
0.125513
0.12494
0.124386
0.123851
0.123335
0.122839
0.122362
0.121908
0.121478
0.121079
0.12072
0.120405
0.120134
0.119904
0.119711
0.119555
0.119431
0.11934
0.119278
0.119246
0.119241
0.119263
0.11931
0.119381
0.119475
0.119591
0.119728
0.119885
0.120062
0.12026
0.120477
0.120715
0.120973
0.121251
0.121547
0.121855
0.122172
0.122494
0.122819
0.123145
0.123471
0.123796
0.124119
0.12444
0.124758
0.125073
0.125385
0.125694
0.126
0.126302
0.1266
0.126895
0.127186
0.127474
0.127759
0.12804
0.128318
0.128593
0.128864
0.129132
0.129397
0.129659
0.129918
0.130174
0.130428
0.130678
0.130926
0.131171
0.131414
0.131654
0.131891
0.132126
0.132358
0.132588
0.132815
0.13304
0.133262
0.133481
0.133698
0.133913
0.134125
0.134334
0.13454
0.134744
0.134945
0.135143
0.135338
0.13553
0.135719
0.135905
0.136088
0.136267
0.136443
0.136616
0.136785
0.136951
0.137112
0.13727
0.137425
0.137575
0.137721
0.137863
0.139575
0.138696
0.137803
0.136904
0.136008
0.135121
0.134248
0.133394
0.132561
0.131751
0.130967
0.130209
0.129476
0.128768
0.128085
0.127426
0.12679
0.126176
0.125582
0.125009
0.124454
0.123918
0.1234
0.122901
0.12242
0.121959
0.121522
0.121113
0.120741
0.120413
0.120129
0.119887
0.119684
0.119517
0.119384
0.119283
0.119213
0.119172
0.119159
0.119173
0.119213
0.119278
0.119366
0.119476
0.119608
0.119761
0.119934
0.120129
0.120344
0.120579
0.120836
0.121113
0.121409
0.121717
0.122034
0.122357
0.122683
0.12301
0.123337
0.123663