/*--------------------------------*- C++ -*----------------------------------*\
  =========                 |
  \\      /  F ield         | OpenFOAM: The Open Source CFD Toolbox
   \\    /   O peration     | Website:  https://openfoam.org
    \\  /    A nd           | Version:  10
     \\/     M anipulation  |
\*---------------------------------------------------------------------------*/
FoamFile
{
    format      ascii;
    class       surfaceScalarField;
    location    "0.002";
    object      phi;
}
// * * * * * * * * * * * * * * * * * * * * * * * * * * * * * * * * * * * * * //

dimensions      [1 0 -1 0 0 0 0];

internalField   nonuniform List<scalar> 
17559
(
-0.000191313
-4.11742e-05
-0.000171399
-1.99129e-05
-0.000140133
-3.12657e-05
-0.000108879
-3.12527e-05
-8.11411e-05
-2.77376e-05
-5.60593e-05
-2.50813e-05
-3.55191e-05
-2.05401e-05
-1.78965e-05
-1.76221e-05
-4.45169e-06
-1.34442e-05
6.53903e-06
-1.09881e-05
1.44784e-05
-7.94094e-06
2.04599e-05
-5.97949e-06
2.47117e-05
-4.2536e-06
2.77325e-05
-3.01944e-06
2.98661e-05
-2.13561e-06
3.12293e-05
-1.36166e-06
3.19424e-05
-7.14354e-07
3.23263e-05
-3.82917e-07
3.23959e-05
-7.06418e-08
3.2364e-05
3.18384e-08
3.2113e-05
2.50914e-07
3.18894e-05
2.23423e-07
3.17502e-05
1.39068e-07
3.16324e-05
1.1779e-07
3.16332e-05
-9.34254e-10
3.15783e-05
5.47754e-08
3.15959e-05
-1.78228e-08
3.16004e-05
-4.48913e-09
3.15674e-05
3.28897e-08
3.1559e-05
8.29773e-09
3.14017e-05
1.57515e-07
3.12562e-05
1.4466e-07
3.10712e-05
1.85083e-07
3.08962e-05
1.74358e-07
3.08102e-05
8.61132e-08
1.67541e-07
-0.000255099
-8.44875e-05
-0.00022379
-5.1222e-05
-0.000184646
-7.04085e-05
-0.000146251
-6.96477e-05
-0.000111859
-6.21286e-05
-8.01383e-05
-5.6802e-05
-5.32299e-05
-4.74485e-05
-2.97655e-05
-4.10863e-05
-1.03909e-05
-3.28184e-05
7.19185e-06
-2.85697e-05
2.11359e-05
-2.18858e-05
3.27293e-05
-1.75719e-05
4.2049e-05
-1.35741e-05
4.96867e-05
-1.06566e-05
5.61495e-05
-8.59951e-06
6.12361e-05
-6.44751e-06
6.54747e-05
-4.9536e-06
6.88291e-05
-3.73689e-06
7.15004e-05
-2.74259e-06
7.36436e-05
-2.11148e-06
7.5226e-05
-1.33164e-06
7.64568e-05
-1.00759e-06
7.74347e-05
-8.3896e-07
7.82377e-05
-6.85191e-07
7.89581e-05
-7.21539e-07
7.95583e-05
-5.45579e-07
8.01077e-05
-5.67396e-07
8.05449e-05
-4.41706e-07
8.08868e-05
-3.09121e-07
8.11993e-05
-3.04215e-07
8.13745e-05
-1.75878e-08
8.14729e-05
4.56643e-08
8.15047e-05
1.53358e-07
8.15172e-05
1.61494e-07
8.15709e-05
3.23536e-08
1.61562e-07
-0.000281429
-0.00012612
-0.000246244
-8.6407e-05
-0.000205298
-0.000111354
-0.000164577
-0.000110368
-0.000127458
-9.92473e-05
-9.29568e-05
-9.13033e-05
-6.35224e-05
-7.68829e-05
-3.7163e-05
-6.74455e-05
-1.48581e-05
-5.51233e-05
4.94214e-06
-4.83693e-05
2.14545e-05
-3.83985e-05
3.51779e-05
-3.12948e-05
4.66676e-05
-2.50642e-05
5.63365e-05
-2.03251e-05
6.47627e-05
-1.70262e-05
7.1717e-05
-1.34014e-05
7.76911e-05
-1.0928e-05
8.26382e-05
-8.6837e-06
8.6811e-05
-6.91561e-06
9.03244e-05
-5.62489e-06
9.32261e-05
-4.2334e-06
9.56548e-05
-3.43627e-06
9.7554e-05
-2.73814e-06
9.90528e-05
-2.18396e-06
0.000100284
-1.95263e-06
0.000101268
-1.52952e-06
0.000102107
-1.40661e-06
0.000102803
-1.13797e-06
0.000103369
-8.74603e-07
0.000103871
-8.06116e-07
0.000104261
-4.07807e-07
0.000104577
-2.70985e-07
0.000104824
-9.33641e-08
0.000105009
-2.40614e-08
0.000105195
-1.5277e-07
1.82831e-08
-0.000304075
-0.000167456
-0.000266442
-0.000124039
-0.000224093
-0.000153704
-0.00018152
-0.000152941
-0.000142276
-0.000138491
-0.00010545
-0.000128129
-7.35285e-05
-0.000108804
-4.45838e-05
-9.63901e-05
-1.98532e-05
-7.98539e-05
2.05356e-06
-7.02757e-05
2.07061e-05
-5.70512e-05
3.63829e-05
-4.69714e-05
4.96149e-05
-3.82964e-05
6.07217e-05
-3.14317e-05
7.04092e-05
-2.67141e-05
7.85585e-05
-2.15504e-05
8.57453e-05
-1.8115e-05
9.18077e-05
-1.4746e-05
9.70212e-05
-1.21293e-05
0.000101479
-1.00828e-05
0.000105256
-8.0103e-06
0.000108523
-6.70351e-06
0.000111188
-5.40311e-06
0.000113379
-4.37535e-06
0.000115177
-3.75017e-06
0.000116611
-2.96417e-06
0.000117815
-2.61018e-06
0.000118822
-2.14499e-06
0.000119656
-1.70909e-06
0.000120388
-1.53762e-06
0.000120997
-1.01706e-06
0.000121521
-7.9562e-07
0.000121965
-5.37463e-07
0.000122323
-3.82008e-07
0.000122652
-4.81959e-07
-2.57552e-07
-0.000326618
-0.000209056
-0.000287087
-0.00016357
-0.0002434
-0.00019739
-0.000199162
-0.000197179
-0.000157933
-0.000179719
-0.000118847
-0.000167216
-8.45168e-05
-0.000143134
-5.31275e-05
-0.000127779
-2.60622e-05
-0.000106919
-1.94648e-06
-9.43912e-05
1.88823e-05
-7.78801e-05
3.66052e-05
-6.46941e-05
5.16952e-05
-5.33866e-05
6.44117e-05
-4.4148e-05
7.5494e-05
-3.77966e-05
8.47889e-05
-3.08451e-05
9.30446e-05
-2.63708e-05
0.000100028
-2.17295e-05
0.000106128
-1.82288e-05
0.000111463
-1.54184e-05
0.000116051
-1.25979e-05
0.000120086
-1.07382e-05
0.000123484
-8.80166e-06
0.000126387
-7.27786e-06
0.000128828
-6.19098e-06
0.000130823
-4.95917e-06
0.000132505
-4.29226e-06
0.000133918
-3.55807e-06
0.000135103
-2.89462e-06
0.000136138
-2.57236e-06
0.000137022
-1.9014e-06
0.000137801
-1.57444e-06
0.000138482
-1.21806e-06
0.000139051
-9.51521e-07
0.000139565
-9.95841e-07
-6.9832e-07
-0.000349949
-0.000251129
-0.000308743
-0.000204776
-0.000263752
-0.000242381
-0.00021793
-0.000243001
-0.000174743
-0.000222906
-0.000133389
-0.000208569
-9.66863e-05
-0.000179837
-6.28366e-05
-0.000161629
-3.34225e-05
-0.000136333
-7.03773e-06
-0.000120776
1.59736e-05
-0.000100892
3.59089e-05
-8.46292e-05
5.29485e-05
-7.04264e-05
6.74024e-05
-5.86017e-05
8.007e-05
-5.04644e-05
9.06885e-05
-4.14635e-05
0.000100107
-3.57897e-05
0.000108113
-2.97357e-05
0.000115114
-2.52299e-05
0.000121251
-2.15553e-05
0.000126563
-1.79101e-05
0.000131317
-1.54918e-05
0.000135433
-1.29176e-05
0.00013904
-1.08851e-05
0.000142154
-9.30548e-06
0.000144784
-7.58874e-06
0.000147045
-6.55375e-06
0.000148965
-5.47786e-06
0.000150594
-4.52364e-06
0.000152015
-3.99284e-06
0.000153246
-3.13258e-06
0.000154342
-2.67055e-06
0.000155314
-2.19082e-06
0.000156148
-1.78488e-06
0.000156895
-1.74358e-06
-1.34967e-06
-0.000374434
-0.000293775
-0.000331676
-0.000247533
-0.000285426
-0.000288631
-0.000238077
-0.000290351
-0.000192962
-0.000268021
-0.000149334
-0.000252197
-0.000110224
-0.000218947
-7.38644e-05
-0.000197988
-4.204e-05
-0.000168158
-1.32742e-05
-0.000149541
1.19638e-05
-0.00012613
3.42008e-05
-0.000106866
5.32896e-05
-8.95154e-05
6.96036e-05
-7.49156e-05
8.39588e-05
-6.48198e-05
9.60939e-05
-5.35984e-05
0.00010685
-4.65457e-05
0.000116057
-3.89426e-05
0.000124104
-3.32773e-05
0.000131144
-2.85946e-05
0.000137238
-2.40044e-05
0.000142704
-2.09577e-05
0.000147471
-1.76843e-05
0.000151731
-1.51448e-05
0.000155512
-1.30865e-05
0.000158802
-1.08787e-05
0.000161698
-9.45069e-06
0.000164205
-7.98419e-06
0.000166377
-6.69575e-06
0.000168285
-5.901e-06
0.000169955
-4.80299e-06
0.00017145
-4.16492e-06
0.000172785
-3.52593e-06
0.000173944
-2.9441e-06
0.000174984
-2.78338e-06
-2.26665e-06
-0.000400264
-0.000337047
-0.000356048
-0.000291748
-0.000308593
-0.000336086
-0.000259768
-0.000339176
-0.000212768
-0.000315021
-0.000166866
-0.000298099
-0.000125319
-0.000260494
-8.63924e-05
-0.000236914
-5.20749e-05
-0.000202475
-2.07949e-05
-0.000180821
6.74418e-06
-0.000153669
3.14009e-05
-0.000131523
5.26831e-05
-0.000110798
7.09826e-05
-9.32151e-05
8.71229e-05
-8.09601e-05
0.000100869
-6.73446e-05
0.000113149
-5.88252e-05
0.000123668
-4.94618e-05
0.000132971
-4.25807e-05
0.000141101
-3.67243e-05
0.000148121
-3.10244e-05
0.0001544
-2.72371e-05
0.000159872
-2.3156e-05
0.000164789
-2.0062e-05
0.000169189
-1.74866e-05
0.000173088
-1.47776e-05
0.000176614
-1.29773e-05
0.000179737
-1.1107e-05
0.000182507
-9.46552e-06
0.00018498
-8.37409e-06
0.000187173
-6.99608e-06
0.000189149
-6.1408e-06
0.000190928
-5.30503e-06
0.000192499
-4.51541e-06
0.000193917
-4.2015e-06
0.000195182
-3.53176e-06
-3.27632e-06
-0.000427566
-0.000380962
-0.000381973
-0.000337342
-0.000333372
-0.000384687
-0.000283125
-0.000389423
-0.000234293
-0.000363853
-0.000186147
-0.000346244
-0.000142161
-0.00030448
-0.000100607
-0.000278468
-6.37022e-05
-0.00023938
-2.97875e-05
-0.000214736
1.86799e-07
-0.000183643
2.73353e-05
-0.000158671
5.10294e-05
-0.000134492
7.14398e-05
-0.000113625
8.95377e-05
-9.90581e-05
0.000105004
-8.28108e-05
0.000118916
-7.27369e-05
0.000130886
-6.14326e-05
0.00014153
-5.32239e-05
0.000150935
-4.61292e-05
0.000159091
-3.91809e-05
0.000166365
-3.45111e-05
0.000172674
-2.9465e-05
0.000178338
-2.57256e-05
0.000183415
-2.25642e-05
0.00018793
-1.92925e-05
0.000192042
-1.70893e-05
0.000195738
-1.48026e-05
0.000199089
-1.28162e-05
0.000202143
-1.14287e-05
0.000204892
-9.7445e-06
0.0002074
-8.64951e-06
0.000209685
-7.58968e-06
0.000211743
-6.57366e-06
0.000213623
-6.08131e-06
0.00021532
-5.22874e-06
-4.84134e-06
-0.000456434
-0.000425523
-0.000409539
-0.000384237
-0.00035986
-0.000434366
-0.000308256
-0.000441026
-0.000257677
-0.000414432
-0.000207356
-0.000396564
-0.000160948
-0.000350888
-0.000116719
-0.000322697
-7.71359e-05
-0.000278963
-4.04573e-05
-0.000251414
-7.89103e-06
-0.000216209
2.1855e-05
-0.000188417
4.81463e-05
-0.000160783
7.08839e-05
-0.000136363
9.11363e-05
-0.00011931
0.000108462
-0.000100136
0.000124134
-8.8409e-05
0.000137695
-7.49938e-05
0.000149778
-6.53069e-05
0.000160548
-5.68993e-05
0.000169963
-4.85957e-05
0.00017842
-4.29686e-05
0.000185768
-3.68134e-05
0.000192351
-3.23079e-05
0.000198227
-2.84404e-05
0.000203451
-2.45168e-05
0.000208195
-2.1833e-05
0.000212468
-1.90754e-05
0.000216378
-1.67267e-05
0.000219974
-1.50245e-05
0.000223261
-1.30319e-05
0.00022631
-1.16988e-05
0.000229118
-1.03972e-05
0.000231692
-9.14766e-06
0.000234076
-8.46581e-06
0.000236258
-7.41084e-06
-6.86648e-06
-0.000486945
-0.000470729
-0.000438828
-0.000432354
-0.000388148
-0.000485046
-0.000335274
-0.0004939
-0.000283067
-0.000466638
-0.00023067
-0.000448961
-0.000181874
-0.000399684
-0.000134944
-0.000369627
-9.26038e-05
-0.000321304
-5.30387e-05
-0.000290979
-1.77223e-05
-0.000251526
1.47756e-05
-0.000220915
4.38766e-05
-0.000189884
6.91653e-05
-0.000161652
9.17534e-05
-0.000141899
0.000111146
-0.000119529
0.000128742
-0.000106005
0.000144041
-9.02933e-05
0.000157725
-7.89903e-05
0.000169953
-6.91272e-05
0.000180732
-5.93748e-05
0.000190466
-5.27024e-05
0.000198974
-4.53216e-05
0.000206652
-3.99858e-05
0.000213514
-3.53026e-05
0.000219616
-3.06191e-05
0.00022513
-2.73463e-05
0.000230068
-2.40137e-05
0.000234592
-2.12506e-05
0.000238739
-1.91716e-05
0.000242552
-1.68448e-05
0.000246114
-1.52611e-05
0.000249427
-1.37099e-05
0.000252512
-1.2233e-05
0.000255404
-1.1358e-05
0.000258085
-1.00914e-05
-9.38394e-06
-0.000519178
-0.000516563
-0.000469909
-0.000481623
-0.000418326
-0.000536629
-0.000364293
-0.000547934
-0.0003106
-0.000520331
-0.000256246
-0.000503315
-0.000205124
-0.000450806
-0.000155492
-0.000419258
-0.000110335
-0.00036646
-6.77771e-05
-0.000333538
-2.94848e-05
-0.000289818
5.85493e-06
-0.000256255
3.78731e-05
-0.000221902
6.60241e-05
-0.000189803
9.11992e-05
-0.000167074
0.000112905
-0.000141235
0.000132614
-0.000125714
0.000149828
-0.000107508
0.000165287
-9.44485e-05
0.000179103
-8.29439e-05
0.000191374
-7.16459e-05
0.000202511
-6.38391e-05
0.000212284
-5.50944e-05
0.000221147
-4.88484e-05
0.000229116
-4.32722e-05
0.000236266
-3.77691e-05
0.000242747
-3.38269e-05
0.000248517
-2.97842e-05
0.000253778
-2.65116e-05
0.000258576
-2.39697e-05
0.000262977
-2.12461e-05
0.000267071
-1.93545e-05
0.000270881
-1.75206e-05
0.00027446
-1.58122e-05
0.000277843
-1.4741e-05
0.000281017
-1.32648e-05
-1.2393e-05
-0.000553184
-0.000563021
-0.000502884
-0.000531922
-0.00045049
-0.000589023
-0.000395421
-0.000603002
-0.000340392
-0.00057536
-0.00028422
-0.000559488
-0.000230862
-0.000504163
-0.000178561
-0.000471559
-0.000130557
-0.000414465
-8.49243e-05
-0.00037917
-4.3524e-05
-0.000331218
-5.16387e-06
-0.000294615
2.99365e-05
-0.000257003
6.11905e-05
-0.000221057
8.92449e-05
-0.000195128
0.000113497
-0.000165487
0.000135566
-0.000147783
0.000154895
-0.000126837
0.000172326
-0.00011188
0.000187922
-9.85404e-05
0.000201814
-8.55373e-05
0.000214498
-7.65232e-05
0.000225666
-6.62625e-05
0.000235835
-5.90178e-05
0.00024501
-5.24466e-05
0.000253284
-4.60436e-05
0.000260849
-4.13917e-05
0.000267627
-3.65621e-05
0.000273823
-3.27077e-05
0.000279446
-2.95923e-05
0.000284566
-2.63668e-05
0.000289299
-2.40869e-05
0.000293683
-2.1905e-05
0.000297786
-1.99148e-05
0.000301655
-1.86099e-05
0.000305311
-1.69211e-05
0.000308802
-1.58838e-05
-1.46846e-05
-0.000589038
-0.000610096
-0.000537838
-0.000583123
-0.000484725
-0.000642136
-0.000428753
-0.000658975
-0.000372541
-0.000631571
-0.000314709
-0.000617319
-0.000259239
-0.000559633
-0.000204337
-0.000526461
-0.000153489
-0.000465313
-0.000104733
-0.000427925
-6.01172e-05
-0.000375835
-1.8606e-05
-0.000336126
1.97441e-05
-0.000295353
5.42872e-05
-0.0002556
8.55633e-05
-0.000226404
0.000112632
-0.000192555
0.000137365
-0.000172516
0.000159034
-0.000148506
0.000178661
-0.000131507
0.000196269
-0.000116149
0.000211932
-0.0001012
0.000226334
-9.0925e-05
0.000239053
-7.89818e-05
0.000250672
-7.06367e-05
0.000261176
-6.29513e-05
0.000270687
-5.55542e-05
0.000279427
-5.01312e-05
0.000287288
-4.44233e-05
0.000294528
-3.99483e-05
0.000301147
-3.62116e-05
0.000307191
-3.24101e-05
0.000312743
-2.96397e-05
0.000317839
-2.7001e-05
0.000322579
-2.46542e-05
0.000327026
-2.30574e-05
0.00033121
-2.11054e-05
0.000335186
-1.98594e-05
-1.84867e-05
-0.000626823
-0.000657772
-0.000574841
-0.000635105
-0.000521109
-0.000695867
-0.000464366
-0.000715718
-0.00040713
-0.000688808
-0.000347812
-0.000676637
-0.00029038
-0.000617064
-0.000232987
-0.000583854
-0.000179343
-0.000518956
-0.000127457
-0.000479811
-7.9552e-05
-0.00042374
-3.46568e-05
-0.000381021
7.00036e-06
-0.00033701
4.49872e-05
-0.000293587
7.98002e-05
-0.000261217
0.000110018
-0.000222773
0.000137694
-0.000200192
0.000161999
-0.000172811
0.000184067
-0.000153575
0.000203935
-0.000136018
0.000221636
-0.000118901
0.000237902
-0.000107191
0.000252353
-9.34329e-05
0.000265595
-8.38781e-05
0.000277585
-7.49412e-05
0.000288464
-6.64339e-05
0.000298495
-6.01616e-05
0.000307543
-5.34716e-05
0.000315918
-4.83232e-05
0.000323604
-4.38977e-05
0.000330668
-3.94738e-05
0.000337208
-3.61806e-05
0.000343213
-3.3006e-05
0.000348772
-3.02123e-05
0.000353941
-2.82267e-05
0.00035877
-2.59342e-05
0.000363338
-2.44281e-05
-2.28276e-05
-0.000666615
-0.000706035
-0.000613965
-0.000687754
-0.000559713
-0.000750119
-0.000502331
-0.0007731
-0.000444228
-0.000746911
-0.000383613
-0.000737252
-0.000324404
-0.000676273
-0.00026467
-0.000643588
-0.000208327
-0.000575299
-0.000153348
-0.00053479
-0.000102128
-0.000474959
-5.37241e-05
-0.000429425
-8.63179e-06
-0.000382102
3.29478e-05
-0.000335166
7.15118e-05
-0.000299781
0.000105256
-0.000256517
0.000136197
-0.000231134
0.000163484
-0.000200098
0.000188269
-0.000178359
0.000210665
-0.000158414
0.000230674
-0.000138909
0.000249048
-0.000125565
0.000265425
-0.00010981
0.000280491
-9.89442e-05
0.000294155
-8.86049e-05
0.00030657
-7.88493e-05
0.000318041
-7.16328e-05
0.000328404
-6.3834e-05
0.000338024
-5.79438e-05
0.000346877
-5.27504e-05
0.00035505
-4.76472e-05
0.000362649
-4.37799e-05
0.000369655
-4.00114e-05
0.000376188
-3.67462e-05
0.000382264
-3.43025e-05
0.00038792
-3.15898e-05
0.000393228
-2.97368e-05
-2.7831e-05
-0.00070849
-0.000754879
-0.000655285
-0.000740958
-0.000600607
-0.000804798
-0.000542711
-0.000830995
-0.000483897
-0.000805724
-0.000422185
-0.000798965
-0.000361429
-0.000737028
-0.000299533
-0.000705484
-0.000240635
-0.000634197
-0.000182652
-0.000592773
-0.00012814
-0.000529471
-7.61699e-05
-0.000481395
-2.74987e-05
-0.000430773
1.77679e-05
-0.000380433
6.02737e-05
-0.000342287
9.7898e-05
-0.000294141
0.00013249
-0.000265726
0.000163052
-0.00023066
0.000190927
-0.000206234
0.000216147
-0.000183635
0.000238757
-0.000161519
0.000259564
-0.000146372
0.00027806
-0.000128306
0.000295183
-0.000116067
0.000310741
-0.000104163
0.000324896
-9.30038e-05
0.000337993
-8.47303e-05
0.000349832
-7.56729e-05
0.000360846
-6.89572e-05
0.000370992
-6.2897e-05
0.000380383
-5.7038e-05
0.000389141
-5.25375e-05
0.000397236
-4.81069e-05
0.000404818
-4.43279e-05
0.000411891
-4.13753e-05
0.000418515
-3.82137e-05
0.000424733
-3.5955e-05
-3.36706e-05
-0.000752536
-0.000804292
-0.000698876
-0.000794618
-0.000643852
-0.000859822
-0.000585561
-0.000889286
-0.000526189
-0.000865096
-0.000463585
-0.000861569
-0.000401509
-0.000799104
-0.0003377
-0.000769293
-0.000276439
-0.000695458
-0.000215595
-0.000653617
-0.000157867
-0.000587199
-0.000102331
-0.000536931
-4.98809e-05
-0.000483224
-9.03728e-07
-0.00042941
4.56568e-05
-0.000388848
8.73452e-05
-0.000335829
0.000126043
-0.000304425
0.000160273
-0.00026489
0.000191623
-0.000237585
0.00022001
-0.000212022
0.000245531
-0.000187039
0.000269095
-0.000169936
0.000290044
-0.000149255
0.000309433
-0.000135456
0.000327137
-0.000121867
0.000343268
-0.000109135
0.000358215
-9.96766e-05
0.000371728
-8.91859e-05
0.000384315
-8.15448e-05
0.000395919
-7.45005e-05
0.000406672
-6.77911e-05
0.000416717
-6.25831e-05
0.000426012
-5.74019e-05
0.000434742
-5.30573e-05
0.000442903
-4.95365e-05
0.000450571
-4.58825e-05
0.000457793
-4.31767e-05
0.000464596
-4.04736e-05
-3.80463e-05
-0.000798872
-0.000854225
-0.000744816
-0.000848674
-0.000689514
-0.000915124
-0.000630935
-0.000947864
-0.000571152
-0.000924879
-0.000507868
-0.000924853
-0.000444715
-0.000862257
-0.000379266
-0.000834743
-0.000315874
-0.00075885
-0.000252368
-0.000717123
-0.000191557
-0.00064801
-0.000132526
-0.000595961
-7.62789e-05
-0.000539471
-2.35156e-05
-0.000482173
2.71933e-05
-0.000439557
7.31702e-05
-0.000381806
0.00011635
-0.000347604
0.000154659
-0.000303199
0.000189798
-0.000272725
0.000221805
-0.000244029
0.000250586
-0.00021582
0.000277256
-0.000196606
0.000301015
-0.000173015
0.000322985
-0.000157425
0.000343084
-0.000141967
0.000361461
-0.000127512
0.000378516
-0.000116732
0.000393937
-0.000104607
0.000408315
-9.59225e-05
0.000421571
-8.77568e-05
0.000433863
-8.00834e-05
0.00044536
-7.40797e-05
0.000455999
-6.80415e-05
0.000466008
-6.30663e-05
0.000475371
-5.88995e-05
0.000484184
-5.46955e-05
0.000492504
-5.1496e-05
0.000500357
-4.83266e-05
-4.5502e-05
-0.000847565
-0.000904657
-0.000793186
-0.000903053
-0.000737655
-0.000970655
-0.000678885
-0.00100663
-0.000618829
-0.000984935
-0.000555072
-0.00098861
-0.000491091
-0.000926238
-0.000424282
-0.000901552
-0.000359033
-0.000824098
-0.00029312
-0.000783036
-0.000229427
-0.000711702
-0.000167038
-0.00065835
-0.000107045
-0.000599464
-5.02748e-05
-0.000538944
4.50933e-06
-0.000494341
5.48216e-05
-0.000432119
0.000102609
-0.000395392
0.000145525
-0.000346115
0.000184939
-0.000312139
0.00022093
-0.00028002
0.000253426
-0.000248316
0.00028358
-0.00022676
0.000310525
-0.00019996
0.000335486
-0.000182386
0.000358262
-0.000164743
0.000379182
-0.000148431
0.000398643
-0.000136193
0.000416249
-0.000122213
0.000432675
-0.000112349
0.000447819
-0.000102901
0.000461863
-9.41274e-05
0.000475007
-8.72234e-05
0.000487168
-8.0202e-05
0.000498619
-7.45182e-05
0.000509332
-6.96119e-05
0.000519423
-6.47868e-05
0.000528957
-6.10298e-05
0.00053796
-5.73297e-05
-5.40662e-05
-0.000898725
-0.000955571
-0.000844048
-0.000957729
-0.000788337
-0.00102637
-0.00072946
-0.00106551
-0.000669257
-0.00104514
-0.00060522
-0.00105265
-0.000540649
-0.000990809
-0.000472775
-0.000969425
-0.000405976
-0.000890898
-0.000337959
-0.000851053
-0.00027165
-0.000778012
-0.000206112
-0.000723888
-0.000142512
-0.000663064
-8.17829e-05
-0.000599673
-2.28846e-05
-0.000553239
3.18048e-05
-0.000486808
8.44224e-05
-0.00044801
0.000132169
-0.000393861
0.000176359
-0.000356329
0.000216778
-0.000320439
0.000253433
-0.000284971
0.000287523
-0.00026085
0.000318049
-0.000230487
0.000346416
-0.000210752
0.000372332
-0.000190659
0.000396053
-0.000172153
0.000418255
-0.000158394
0.000438362
-0.000142321
0.000457143
-0.00013113
0.000474456
-0.000120214
0.000490508
-0.000110179
0.000505536
-0.000102251
0.00051943
-9.40966e-05
0.000532524
-8.76112e-05
0.000544767
-8.18552e-05
0.000556302
-7.63224e-05
0.000567203
-7.1931e-05
0.000577494
-6.76199e-05
0.00058729
-6.38622e-05
-6.08301e-05
-0.000952448
-0.00100695
-0.000897478
-0.0010127
-0.000841624
-0.00108222
-0.000782709
-0.00112443
-0.00072247
-0.00110538
-0.000658329
-0.00111679
-0.000593397
-0.00105574
-0.000524758
-0.00103806
-0.000456732
-0.000958923
-0.000386945
-0.00092084
-0.000318341
-0.000846616
-0.000249936
-0.000792293
-0.000182945
-0.000730056
-0.000118386
-0.000664233
-5.52088e-05
-0.000616416
3.68988e-06
-0.000545707
6.11068e-05
-0.000505427
0.000113892
-0.000446646
0.000163345
-0.000405783
0.000208677
-0.000365771
0.00024987
-0.000326164
0.000288441
-0.000299421
0.000322993
-0.000265039
0.000355192
-0.000242951
0.000384691
-0.000220158
0.000411707
-0.000199168
0.000436932
-0.00018362
0.000459895
-0.000165283
0.000481376
-0.000152611
0.000501188
-0.000140026
0.000519554
-0.000128545
0.000536749
-0.000119446
0.000552634
-0.000109982
0.000567607
-0.000102584
0.000581599
-9.58477e-05
0.00059478
-8.9503e-05
0.000607235
-8.43857e-05
0.000618982
-7.93671e-05
0.000630165
-7.5046e-05
-7.14454e-05
-0.00100881
-0.00105877
-0.000953554
-0.00106796
-0.00089758
-0.00113819
-0.000838681
-0.00118332
-0.000778495
-0.00116556
-0.000714401
-0.00118088
-0.00064932
-0.00112082
-0.00058022
-0.00110716
-0.00051127
-0.00102787
-0.000440082
-0.000992027
-0.000369549
-0.000917149
-0.000298628
-0.000863213
-0.000228544
-0.000800139
-0.000160384
-0.000732392
-9.30718e-05
-0.000683729
-2.9864e-05
-0.000608915
3.22385e-05
-0.000567529
9.00768e-05
-0.000504484
0.000144832
-0.000460538
0.000195731
-0.00041667
0.000242044
-0.000372476
0.000285446
-0.000342824
0.00032462
-0.000304212
0.000361141
-0.000279473
0.000394692
-0.000253709
0.000425486
-0.000229963
0.000454251
-0.000212384
0.000480377
-0.00019141
0.000504946
-0.000177181
0.000527633
-0.000162713
0.00054867
-0.000149582
0.000568368
-0.000139144
0.00058655
-0.000128164
0.000603687
-0.00011972
0.00061969
-0.00011185
0.000634755
-0.000104569
0.000648987
-9.8617e-05
0.000662396
-9.27759e-05
0.000675158
-8.78082e-05
0.000687257
-8.35445e-05
-7.92182e-05
-0.00106789
-0.00111107
-0.00101236
-0.00112349
-0.000956276
-0.00119428
-0.000897426
-0.00124217
-0.00083736
-0.00122563
-0.000773435
-0.00124481
-0.000708393
-0.00118586
-0.000639113
-0.00117644
-0.000569537
-0.00109745
-0.000497333
-0.00106423
-0.000425258
-0.000989223
-0.000352228
-0.000936244
-0.000279429
-0.000872939
-0.000207988
-0.000803833
-0.000136788
-0.000754929
-6.9301e-05
-0.000676402
-2.72024e-06
-0.00063411
6.01103e-05
-0.000567315
0.000120392
-0.000520819
0.000176912
-0.00047319
0.000228942
-0.000424506
0.0002778
-0.000391683
0.000321986
-0.000348398
0.00036345
-0.000320937
0.000401574
-0.000291833
0.000436653
-0.000265042
0.000469493
-0.000245224
0.000499304
-0.00022122
0.000527315
-0.000205192
0.000553297
-0.000188696
0.000577413
-0.000173697
0.000600009
-0.00016174
0.000620851
-0.000149006
0.000640491
-0.000139361
0.000658817
-0.000130176
0.000676058
-0.00012181
0.000692335
-0.000114893
0.000707652
-0.000108093
0.000722223
-0.00010238
0.000736016
-9.73368e-05
-9.23964e-05
-0.00112981
-0.00116386
-0.00107398
-0.00117932
-0.00101778
-0.00125047
-0.000958995
-0.00130096
-0.00089909
-0.00128554
-0.000835429
-0.00130847
-0.000770591
-0.0012507
-0.000701438
-0.0012456
-0.000631485
-0.0011674
-0.000558589
-0.00113713
-0.000485393
-0.00106242
-0.000410694
-0.00101094
-0.000335621
-0.000948012
-0.000261302
-0.000878152
-0.00018657
-0.000829661
-0.000115057
-0.000747914
-4.38778e-05
-0.000705289
2.35989e-05
-0.000634791
8.91904e-05
-0.000586411
0.000151628
-0.000535627
0.000209574
-0.000482452
0.00026448
-0.000446589
0.000314251
-0.000398169
0.000361103
-0.000367789
0.000404442
-0.000335172
0.000444362
-0.000304962
0.000481834
-0.000282696
0.000515908
-0.000255294
0.000547921
-0.000237205
0.000577573
-0.000218348
0.000605223
-0.000201346
0.000631162
-0.000187679
0.000655087
-0.000172932
0.000677634
-0.000161907
0.000698656
-0.000151198
0.000718419
-0.000141573
0.000737063
-0.000133537
0.000754585
-0.000125615
0.000771244
-0.000119039
0.000786984
-0.000113077
0.000802011
-0.000107423
-0.000102789
-0.00119465
-0.00121717
-0.00113849
-0.00123547
-0.00108217
-0.00130679
-0.00102344
-0.00135969
-0.000963716
-0.00134526
-0.000900381
-0.0013718
-0.000835865
-0.00131522
-0.000767041
-0.00131442
-0.000697005
-0.00123744
-0.000623742
-0.00121039
-0.000549818
-0.00113634
-0.000473906
-0.00108686
-0.000397043
-0.00102487
-0.000320322
-0.000954873
-0.000242511
-0.000907473
-0.00016735
-0.000823075
-9.18599e-05
-0.000780779
-1.97182e-05
-0.000706933
5.09092e-05
-0.000657038
0.000118987
-0.000603705
0.000183064
-0.000546529
0.000244406
-0.000507931
0.000300345
-0.000454109
0.000353145
-0.000420588
0.000402184
-0.000384212
0.000447616
-0.000350393
0.000490322
-0.000325402
0.000529245
-0.000294217
0.000565888
-0.000273848
0.000599824
-0.000252284
0.00063141
-0.000232933
0.000661192
-0.000217461
0.000688679
-0.000200419
0.000714599
-0.000187827
0.000738757
-0.000175356
0.000761452
-0.000164269
0.000782848
-0.000154933
0.00080293
-0.000145697
0.00082201
-0.000138119
0.000840006
-0.000131073
0.000857167
-0.000124584
-0.00011913
-0.00126252
-0.00127105
-0.001206
-0.00129199
-0.00114951
-0.00136328
-0.00109081
-0.00141839
-0.00103126
-0.00140481
-0.000968288
-0.00143478
-0.000904171
-0.00137934
-0.000835798
-0.00138279
-0.000765963
-0.00130727
-0.000692655
-0.0012837
-0.000618331
-0.00121067
-0.000541679
-0.00116351
-0.000463524
-0.00110303
-0.000384924
-0.00103347
-0.000304562
-0.000987834
-0.000226232
-0.000901406
-0.000146865
-0.000860146
-7.02932e-05
-0.000783504
5.13237e-06
-0.000732464
7.85946e-05
-0.000677167
0.000148614
-0.000616548
0.000216463
-0.000575779
0.000279068
-0.000516715
0.000338446
-0.000479967
0.000393746
-0.000439512
0.000445192
-0.000401839
0.00049385
-0.00037406
0.000538258
-0.000338625
0.000580167
-0.000315757
0.000619059
-0.000291176
0.000655262
-0.000269136
0.000689326
-0.000251525
0.0007209
-0.000231993
0.000750718
-0.000217645
0.000778518
-0.000203156
0.000804632
-0.000190382
0.000829236
-0.000179538
0.000852301
-0.000168762
0.000874199
-0.000160017
0.00089482
-0.000151694
0.000914458
-0.000144222
0.000933131
-0.000137804
-0.000131493
-0.00133352
-0.00132555
-0.00127658
-0.00134892
-0.00121986
-0.00142
-0.00116115
-0.0014771
-0.00110175
-0.00146422
-0.00103913
-0.00149739
-0.000975452
-0.00144302
-0.000907628
-0.00145062
-0.000838207
-0.00137669
-0.00076513
-0.00135678
-0.000690742
-0.00128505
-0.000613722
-0.00124053
-0.000534799
-0.00118195
-0.000454862
-0.00111341
-0.000372537
-0.00107016
-0.000291595
-0.000982347
-0.000208894
-0.000942848
-0.000128357
-0.000864042
-4.82938e-05
-0.000812527
3.00965e-05
-0.000755558
0.000105731
-0.000692183
0.000179966
-0.000650014
0.00024922
-0.000585968
0.000315717
-0.000546464
0.000377921
-0.000501717
0.000435961
-0.000459879
0.000491075
-0.000429174
0.000541714
-0.000389264
0.000589582
-0.000363625
0.000634108
-0.000335702
0.000675639
-0.000310667
0.000714752
-0.000290637
0.000750898
-0.00026814
0.000785166
-0.000251914
0.000817177
-0.000235167
0.00084726
-0.000220465
0.000875607
-0.000207885
0.000902155
-0.00019531
0.000927345
-0.000185207
0.000951031
-0.00017538
0.00097356
-0.000166751
0.000994949
-0.000159192
-0.000151867
-0.00140773
-0.00138074
-0.00135031
-0.00140634
-0.00129328
-0.00147703
-0.0012345
-0.00153589
-0.00117518
-0.00152354
-0.00111289
-0.00155968
-0.00104965
-0.00150626
-0.000982442
-0.00151783
-0.00091359
-0.00144555
-0.000840951
-0.00142941
-0.000766782
-0.00135922
-0.000689749
-0.00131756
-0.000610496
-0.0012612
-0.000529785
-0.00119412
-0.000446106
-0.00115384
-0.000363169
-0.00106528
-0.000277767
-0.00102825
-0.000193845
-0.000947964
-0.000109682
-0.00089669
-2.64983e-05
-0.000838741
5.4173e-05
-0.000772854
0.000134359
-0.000730201
0.000210146
-0.000661755
0.000283675
-0.000619993
0.000353313
-0.000571355
0.000418616
-0.000525182
0.000480813
-0.00049137
0.00053814
-0.000446591
0.000592762
-0.000418248
0.000643662
-0.000386601
0.000691245
-0.000358249
0.000736154
-0.000335547
0.000777701
-0.000309686
0.000817019
-0.000291232
0.000853794
-0.000271943
0.000888466
-0.000255137
0.000921157
-0.000240576
0.00095177
-0.000225922
0.000980811
-0.000214248
0.00100808
-0.000202652
0.001034
-0.000192665
0.00105856
-0.000183755
0.00108192
-0.000175231
-0.000167989
-0.00148523
-0.00143668
-0.00142725
-0.00146432
-0.00136983
-0.00153445
-0.00131088
-0.00159484
-0.00125157
-0.00158284
-0.00118955
-0.0016217
-0.00112672
-0.00156909
-0.00106015
-0.0015844
-0.000992012
-0.00151368
-0.00091991
-0.00150152
-0.000846174
-0.00143296
-0.000769434
-0.0013943
-0.000690219
-0.00134042
-0.000609222
-0.00127512
-0.000524806
-0.00123826
-0.000440514
-0.00114958
-0.000353109
-0.00111565
-0.000266476
-0.0010346
-0.000178864
-0.000984302
-9.14987e-05
-0.000926106
-5.95953e-06
-0.000858393
7.94593e-05
-0.000815619
0.000161292
-0.000743587
0.000241694
-0.000700395
0.000318649
-0.00064831
0.000391648
-0.000598181
0.000461628
-0.000561351
0.000526343
-0.000511306
0.000588106
-0.00048001
0.000646219
-0.000444715
0.000700639
-0.000412669
0.000752124
-0.000387033
0.000799848
-0.000357409
0.000845084
-0.000336468
0.000887353
-0.000314212
0.000927179
-0.000294963
0.000964886
-0.000278283
0.00100022
-0.000261254
0.00103375
-0.000247779
0.00106522
-0.000234122
0.0010951
-0.000222548
0.00112339
-0.000212042
0.00115025
-0.000202095
-0.000193612
-0.0015661
-0.00149348
-0.00150745
-0.00152297
-0.00144954
-0.00159236
-0.00139032
-0.00165405
-0.00133093
-0.00164224
-0.00126908
-0.00168354
-0.00120657
-0.0016316
-0.00114061
-0.00165036
-0.00107318
-0.00158111
-0.00100176
-0.00157294
-0.000928623
-0.0015061
-0.000852413
-0.00147051
-0.00077356
-0.00141927
-0.000692648
-0.00135603
-0.00060806
-0.00132284
-0.00052305
-0.00123459
-0.000434352
-0.00120435
-0.000345742
-0.00112321
-0.00025543
-0.00107461
-0.000164603
-0.00101693
-7.48813e-05
-0.000948115
1.55428e-05
-0.000906044
0.000102669
-0.000830713
0.000189313
-0.000787039
0.000273311
-0.000732308