/*--------------------------------*- C++ -*---------------------------------*\ 
| ========                 |                                                 | 
| \      /  F ield         | OpenFOAM: The Open Source CFD Toolbox           | 
|  \    /   O peration     | Version:  v1812                                 | 
|   \  /    A nd           | Web:      www.OpenFOAM.com                      | 
|    \/     M anipulation  |                                                 | 
\*--------------------------------------------------------------------------*/ 
FoamFile
{
    version     2.0;
    format      ascii;
    class       volVectorField;
    location    "/home/james/dafoam/myRuns/bezier_coanda_opt/0.00000000001/";
    object      sens_CL_shapey;
}
// * * * * * * * * * * * * * * * * * * * * * * * * * * * * * * * * * * * * * //

dimensions      [0 0 0 0 0 0 0];
internalField   uniform (0 0 0);
boundaryField
{
    allWalls
    {
        type  wall;
        value nonuniform List<vector>
196
(
(0.004860 0.005554 0.000124)
(0.013143 -0.008510 0.000175)
(0.011164 -0.003780 0.000186)
(-0.012224 0.013493 0.000198)
(-0.092393 0.078125 0.000212)
(-0.150617 0.134410 0.000228)
(-0.133011 0.151132 0.000245)
(-0.080553 0.121529 0.000263)
(-0.038003 0.097554 0.000282)
(-0.038564 0.106306 0.000302)
(-0.028137 0.090883 0.000323)
(-0.024864 0.099292 0.000344)
(-0.026437 0.128494 0.000505)
(-0.022356 0.134794 0.000680)
(-0.018038 0.137905 0.000730)
(-0.015635 0.147804 0.000781)
(-0.012706 0.156383 0.000832)
(-0.010235 0.169579 0.000883)
(-0.007345 0.180046 0.000930)
(-0.004554 0.196784 0.002188)
(-0.001423 0.216009 0.003577)
(0.002062 0.241108 0.003875)
(0.006279 0.277839 0.004141)
(0.011847 0.332220 0.004357)
(0.018038 0.373266 0.004381)
(0.022592 0.377547 0.003159)
(0.027203 0.390993 0.001632)
(0.030040 0.385969 0.000500)
(0.035384 0.411723 0.000025)
(0.040326 0.440098 -0.000187)
(0.042419 0.430306 -0.000736)
(0.046209 0.438820 -0.000819)
(0.049467 0.443528 -0.000939)
(0.053610 0.456643 -0.000940)
(0.057620 0.467696 -0.000923)
(0.061682 0.478327 -0.000879)
(0.065623 0.487125 -0.000592)
(0.069511 0.494613 -0.000519)
(0.073385 0.501148 -0.000495)
(0.076933 0.504626 -0.000363)
(0.079917 0.503822 -0.000485)
(0.082502 0.500044 -0.000587)
(0.084715 0.493522 -0.000460)
(0.086109 0.482004 -0.000342)
(0.086182 0.462372 -0.000351)
(0.085025 0.436157 -0.000357)
(0.084129 0.403111 -0.000290)
(0.086938 0.400015 -0.000204)
(0.089034 0.393906 -0.000186)
(0.054520 0.175217 -0.000201)
(-0.491561 0.832846 -0.000151)
(0.251916 -0.200605 0.000025)
(-0.019885 -0.007719 0.000172)
(-0.183028 0.511319 0.000061)
(-0.164595 0.582486 0.000074)
(-0.114639 0.476079 0.000221)
(-0.102125 0.475127 0.000251)
(-0.096668 0.494786 0.000282)
(-0.088128 0.491317 0.000180)
(-0.078456 0.473399 0.000076)
(-0.070706 0.459420 0.000108)
(-0.064486 0.449760 0.000141)
(-0.058717 0.438760 0.000179)
(-0.053122 0.424961 0.000219)
(-0.048138 0.412345 0.000420)
(-0.043878 0.402850 0.000600)
(-0.039435 0.388187 0.000546)
(-0.033740 0.353902 0.000510)
(-0.029944 0.342361 0.000485)
(-0.029840 0.379152 0.000386)
(-0.026614 0.371443 -0.000079)
(-0.021484 0.337803 -0.000274)
(-0.018753 0.340615 -0.000217)
(-0.016001 0.349057 -0.000537)
(-0.012399 0.347955 -0.001529)
(-0.007965 0.329096 -0.002701)
(-0.003628 0.285667 -0.003006)
(-0.000079 0.240666 -0.002898)
(0.002658 0.209624 -0.002752)
(0.005128 0.189704 -0.002583)
(0.007589 0.177723 -0.002400)
(0.009575 0.163463 -0.001004)
(0.011275 0.149645 0.000293)
(0.013847 0.143503 0.000283)
(0.016126 0.136505 0.000276)
(0.019161 0.133359 0.000270)
(0.021628 0.127088 0.000266)
(0.022753 0.111891 0.000099)
(0.025871 0.104985 -0.000058)
(0.032142 0.104695 -0.000042)
(0.034275 0.086752 -0.000027)
(0.035207 0.069097 -0.000012)
(0.057763 0.098663 0.000002)
(0.033509 0.057071 0.000015)
(-0.011512 -0.015387 0.000027)
(0.000326 -0.007240 0.000039)
(0.039339 0.020701 0.000050)
(0.081286 0.042808 0.000059)
(0.085674 0.041905 0.000068)
(0.041917 0.026301 0.000075)
(0.019405 0.393838 -0.000190)
(0.009031 0.852008 -0.000190)
(0.005159 0.639770 -0.000190)
(0.031342 0.912118 -0.000190)
(0.057062 1.614208 -0.000190)
(0.054420 1.450126 -0.000190)
(0.059011 1.117678 -0.000169)
(0.274574 5.377581 -0.000148)
(0.920190 18.099053 -0.000148)
(-29.209084 1.372538 -0.000087)
(257.421477 -321.546242 -0.000148)
(-10.703309 -4.227822 -0.000087)
(-30.658299 -13.053252 -0.000025)
(-232.359533 246.262294 -0.000087)
(-2.768922 144.487569 -0.000025)
(5.286923 61.903762 -0.000025)
(1.994402 24.146475 -0.000025)
(1.166664 9.991020 -0.000025)
(0.596062 3.914721 -0.000025)
(0.517875 1.473408 -0.000025)
(2.581751 6.773508 -0.000025)
(4.400671 10.811164 -0.000025)
(1.520589 4.806729 -0.000025)
(-3.481208 -5.821572 -0.000014)
(0.885467 0.023378 -0.000002)
(17.095000 25.970406 -0.000002)
(26.088971 34.253453 -0.000002)
(-14.619342 -22.613951 -0.000002)
(-66.448206 -72.231725 -0.000002)
(-51.055549 -51.978248 -0.000002)
(-8.657017 -12.856526 -0.000002)
(15.932484 13.607641 -0.000002)
(24.580356 18.704808 -0.000002)
(16.996597 11.925763 -0.000002)
(10.147344 7.135758 -0.000002)
(5.985792 4.657671 -0.000002)
(0.377132 -0.042983 -0.000002)
(-0.091142 -1.857210 -0.000002)
(1.801690 -0.173998 -0.000002)
(2.828540 0.500731 -0.000002)
(1.641555 -0.602727 -0.000002)
(0.034861 -0.731512 -0.000002)
(1.001597 -0.201766 -0.000002)
(1.974567 0.074448 -0.000002)
(1.474155 0.108280 -0.000002)
(1.001693 0.154532 -0.000002)
(0.853730 0.209809 -0.000002)
(0.860002 0.196245 -0.000002)
(0.748526 0.114635 -0.000002)
(0.438234 -0.019094 -0.000002)
(0.172218 -0.145477 -0.000002)
(-0.027726 -0.210305 -0.000002)
(-0.090934 -0.202426 -0.000002)
(-0.113448 -0.120330 -0.000002)
(-0.245117 0.011794 -0.000002)
(-0.435531 0.134164 -0.000002)
(-0.626584 0.234126 -0.000002)
(-0.774986 0.319610 -0.000002)
(-0.851654 0.390023 -0.000002)
(-0.837859 0.424169 -0.000002)
(-0.816572 0.455789 -0.000002)
(-0.852771 0.512147 -0.000002)
(-0.951438 0.587231 -0.000002)
(-1.092427 0.696561 -0.000002)
(-1.125518 0.792582 -0.000002)
(-0.961616 0.779413 -0.000002)
(-0.782226 0.725235 -0.000002)
(-0.723185 0.746846 -0.000002)
(-0.446784 0.451775 -0.000002)
(-0.050597 -0.032816 -0.000002)
(0.206630 -0.377729 -0.000002)
(0.418546 -0.707902 -0.000002)
(0.541880 -0.977700 -0.000014)
(0.632284 -1.296107 -0.000025)
(0.583015 -1.348788 -0.000025)
(0.436643 -1.173619 -0.000025)
(0.389026 -1.213833 -0.000025)
(0.365514 -1.290005 -0.000025)
(0.327833 -1.238989 -0.000025)
(0.337030 -1.253438 -0.000025)
(0.252861 -1.224119 -0.000025)
(0.077014 -0.826484 -0.000025)
(-57.385199 -0.269010 -0.000087)
(57.641930 -0.025402 -0.000087)
(0.611528 0.104210 -0.000025)
(3.068098 -12.852723 -0.000025)
(2.333458 -5.869880 -0.000087)
(-0.380524 9.315683 -0.000148)
(-0.081504 2.113669 -0.000148)
(-0.011918 0.421762 -0.000148)
(-0.016479 0.851920 -0.000169)
(-0.051348 1.103736 -0.000190)
(-0.082344 0.946359 -0.000190)
(0.079503 -0.050529 -0.000190)
(0.453617 -0.830302 -0.000190)
(-0.346136 0.292572 -0.000190)
)
;
    }
}
