/*--------------------------------*- C++ -*---------------------------------*\ 
| ========                 |                                                 | 
| \      /  F ield         | OpenFOAM: The Open Source CFD Toolbox           | 
|  \    /   O peration     | Version:  v1812                                 | 
|   \  /    A nd           | Web:      www.OpenFOAM.com                      | 
|    \/     M anipulation  |                                                 | 
\*--------------------------------------------------------------------------*/ 
FoamFile
{
    version     2.0;
    format      ascii;
    class       volVectorField;
    location    "/home/james/dafoam/myRuns/bezier_coanda_opt/0.00000000001/";
    object      sens_CL_shapey;
}
// * * * * * * * * * * * * * * * * * * * * * * * * * * * * * * * * * * * * * //

dimensions      [0 0 0 0 0 0 0];
internalField   uniform (0 0 0);
boundaryField
{
    allWalls
    {
        type  wall;
        value nonuniform List<vector>
196
(
(0.003230 0.012564 0.000150)
(-0.004792 0.002737 0.000193)
(-0.017046 0.009359 0.000204)
(-0.046852 0.028913 0.000217)
(-0.092021 0.070787 0.000231)
(-0.114544 0.105802 0.000247)
(-0.089036 0.106665 0.000264)
(-0.055459 0.090907 0.000282)
(-0.045813 0.102262 0.000301)
(-0.038592 0.098561 0.000321)
(-0.030804 0.100583 0.000342)
(-0.030887 0.120976 0.000363)
(-0.026345 0.132118 0.000462)
(-0.022394 0.139033 0.000573)
(-0.017511 0.139753 0.000621)
(-0.014774 0.149272 0.000669)
(-0.011666 0.156453 0.000717)
(-0.009032 0.167977 0.000765)
(-0.006190 0.178743 0.000810)
(-0.003408 0.194538 0.002003)
(-0.000336 0.212453 0.003313)
(0.003054 0.236933 0.003580)
(0.007151 0.272412 0.003814)
(0.012421 0.321691 0.004001)
(0.018171 0.360436 0.004010)
(0.022537 0.369055 0.003063)
(0.026758 0.382120 0.001810)
(0.029755 0.383880 0.000615)
(0.031630 0.373713 -0.000317)
(0.035205 0.388626 -0.000505)
(0.040273 0.420741 -0.000630)
(0.043028 0.426684 -0.000705)
(0.044283 0.416158 -0.000653)
(0.047317 0.425382 -0.000655)
(0.050364 0.434691 -0.000691)
(0.053335 0.443058 -0.000655)
(0.056147 0.449714 -0.000562)
(0.058887 0.455433 -0.000517)
(0.061586 0.460504 -0.000562)
(0.064002 0.462991 -0.000532)
(0.066008 0.462213 -0.000497)
(0.067733 0.459245 -0.000461)
(0.069034 0.453185 -0.000388)
(0.069515 0.441815 -0.000313)
(0.069856 0.428875 -0.000316)
(0.072232 0.426502 -0.000325)
(0.073355 0.407828 -0.000248)
(0.061775 0.323826 -0.000159)
(0.042542 0.202249 -0.000148)
(0.071900 0.372687 -0.000160)
(-0.490778 0.857114 -0.000086)
(0.343586 -0.437912 0.000077)
(-0.019618 -0.007340 0.000178)
(-0.193001 0.574601 0.000114)
(-0.162494 0.604064 0.000077)
(-0.108201 0.470577 0.000126)
(-0.096776 0.469641 0.000151)
(-0.092792 0.493488 0.000152)
(-0.084774 0.489396 0.000155)
(-0.075579 0.470854 0.000186)
(-0.068484 0.458125 0.000221)
(-0.062738 0.449279 0.000258)
(-0.057287 0.438409 0.000296)
(-0.051987 0.424810 0.000323)
(-0.047430 0.413914 0.000321)
(-0.043113 0.401596 0.000467)
(-0.037904 0.375769 0.000418)
(-0.033328 0.354379 0.000399)
(-0.030297 0.351149 0.000555)
(-0.030347 0.388727 0.000482)
(-0.026503 0.370076 -0.000016)
(-0.021051 0.332261 -0.000171)
(-0.019236 0.348030 -0.000559)
(-0.016118 0.349005 -0.000818)
(-0.012643 0.350872 -0.001357)
(-0.008256 0.332108 -0.002701)
(-0.003826 0.285706 -0.003038)
(-0.000290 0.242140 -0.002926)
(0.002460 0.210444 -0.002777)
(0.004991 0.191577 -0.002604)
(0.007440 0.179253 -0.002418)
(0.009363 0.163462 -0.001045)
(0.011071 0.150163 0.000227)
(0.013508 0.142839 0.000216)
(0.016333 0.139830 0.000207)
(0.019113 0.135420 0.000199)
(0.020891 0.124601 0.000193)
(0.022685 0.113379 0.000056)
(0.025187 0.104509 -0.000067)
(0.032488 0.107821 -0.000046)
(0.032297 0.084322 -0.000025)
(0.036570 0.074081 -0.000006)
(0.060104 0.107631 0.000013)
(0.029547 0.050650 0.000030)
(-0.002848 -0.005951 0.000047)
(0.001142 -0.003699 0.000062)
(0.034693 0.015964 0.000076)
(0.086352 0.046390 0.000089)
(0.083803 0.043670 0.000100)
(0.041616 0.030470 0.000108)
(0.051200 0.611897 -0.000155)
(-0.008453 0.655214 -0.000155)
(0.003335 0.579565 -0.000155)
(0.035171 0.964356 -0.000155)
(0.056265 1.571442 -0.000155)
(0.051272 1.358031 -0.000155)
(0.055095 1.047861 -0.000133)
(0.253147 5.108904 -0.000111)
(0.832957 16.689255 -0.000111)
(-24.688456 -4.190660 -0.000069)
(178.123389 -250.947448 -0.000069)
(-9.007187 -4.143272 -0.000027)
(-25.641976 -17.222184 -0.000027)
(-157.809833 195.803091 -0.000069)
(-2.064544 109.837006 -0.000027)
(4.106712 47.572889 -0.000027)
(1.625112 18.400867 -0.000027)
(1.134207 7.884834 -0.000027)
(1.013143 4.808766 -0.000027)
(0.872635 3.283035 -0.000027)
(1.903550 5.324745 -0.000027)
(3.032248 7.581402 -0.000027)
(1.469565 4.214899 -0.000027)
(-1.056864 -1.468293 -0.000014)
(2.797732 4.790905 -0.000001)
(13.816369 21.740006 -0.000001)
(19.294160 24.797634 -0.000001)
(-5.087239 -7.642241 -0.000001)
(-42.564527 -46.690954 -0.000001)
(-43.718512 -51.087422 -0.000001)
(-18.391121 -25.209415 -0.000001)
(7.056649 5.324063 -0.000001)
(20.466376 16.914909 -0.000001)
(15.452335 11.561204 -0.000001)
(8.984080 5.544363 -0.000001)
(3.620230 2.012638 -0.000001)
(-1.328613 -1.937823 -0.000001)
(0.034715 -1.661388 -0.000001)
(1.628432 0.102735 -0.000001)
(1.627758 -0.029269 -0.000001)
(1.063385 -0.727027 -0.000001)
(0.248532 -0.731616 -0.000001)
(0.919621 -0.478675 -0.000001)
(1.838039 -0.166996 -0.000001)
(1.417457 0.044712 -0.000001)
(0.784604 0.101116 -0.000001)
(0.857980 0.161870 -0.000001)
(0.929281 0.149851 -0.000001)
(0.700479 0.071501 -0.000001)
(0.407343 -0.052590 -0.000001)
(0.182439 -0.173599 -0.000001)
(-0.008719 -0.230954 -0.000001)
(-0.061378 -0.213307 -0.000001)
(-0.090364 -0.119860 -0.000001)
(-0.236138 0.016882 -0.000001)
(-0.431073 0.136210 -0.000001)
(-0.625217 0.232763 -0.000001)
(-0.756119 0.307327 -0.000001)
(-0.929374 0.429835 -0.000001)
(-0.976305 0.496278 -0.000001)
(-0.768169 0.414178 -0.000001)
(-0.795118 0.469700 -0.000001)
(-1.040848 0.646514 -0.000001)
(-1.228087 0.784507 -0.000001)
(-1.287615 0.881604 -0.000001)
(-1.084911 0.818323 -0.000001)
(-0.704238 0.575200 -0.000001)
(-0.575821 0.564703 -0.000001)
(-0.389710 0.389897 -0.000001)
(-0.005651 -0.082697 -0.000001)
(0.241838 -0.424264 -0.000001)
(0.454301 -0.764399 -0.000001)
(0.580077 -1.045816 -0.000014)
(0.673425 -1.379023 -0.000027)
(0.616442 -1.424446 -0.000027)
(0.458464 -1.233407 -0.000027)
(0.409233 -1.282039 -0.000027)
(0.381024 -1.344699 -0.000027)
(0.332086 -1.249035 -0.000027)
(0.343462 -1.278215 -0.000027)
(0.260937 -1.275840 -0.000027)
(0.075016 -0.853166 -0.000027)
(-57.375001 -0.274892 -0.000069)
(57.638855 -0.025214 -0.000111)
(0.619735 0.116917 -0.000069)
(3.123149 -13.225673 -0.000027)
(2.371202 -5.944880 -0.000069)
(-0.397092 9.756818 -0.000111)
(-0.086022 2.231705 -0.000111)
(-0.012297 0.431293 -0.000111)
(-0.018469 0.896507 -0.000133)
(-0.055245 1.170246 -0.000155)
(-0.084181 1.007473 -0.000155)
(0.085424 -0.064540 -0.000155)
(0.456699 -0.842685 -0.000155)
(-0.429995 0.533676 -0.000155)
)
;
    }
}
