/*--------------------------------*- C++ -*----------------------------------*\
  =========                 |
  \\      /  F ield         | OpenFOAM: The Open Source CFD Toolbox
   \\    /   O peration     | Website:  https://openfoam.org
    \\  /    A nd           | Version:  8
     \\/     M anipulation  |
\*---------------------------------------------------------------------------*/
FoamFile
{
    version     2.0;
    format      ascii;
    class       volScalarField;
    location    "0.04";
    object      nut;
}
// * * * * * * * * * * * * * * * * * * * * * * * * * * * * * * * * * * * * * //

dimensions      [0 2 -1 0 0 0 0];

internalField   nonuniform List<scalar> 
104000
(
0.0131038
0.00504412
0.00240912
0.00144431
0.000997202
0.000747834
0.000591204
0.000484721
0.000408078
0.000350445
0.000305564
0.000269587
0.000240032
0.000215235
0.000194045
0.000175644
0.000159439
0.000144991
0.000131976
0.000120148
0.00010934
9.94153e-05
9.0257e-05
8.17805e-05
7.3926e-05
6.66483e-05
5.99112e-05
5.36851e-05
4.79482e-05
4.26871e-05
3.78887e-05
3.35376e-05
2.96144e-05
2.60968e-05
2.29599e-05
2.01775e-05
1.77226e-05
1.55678e-05
1.36837e-05
1.20555e-05
1.06614e-05
9.44861e-06
8.38493e-06
7.45045e-06
6.62957e-06
5.90879e-06
5.27466e-06
4.74837e-06
4.33752e-06
4.01715e-06
3.8126e-06
3.71205e-06
3.62788e-06
3.5349e-06
3.43371e-06
3.3262e-06
3.21376e-06
3.09835e-06
2.98359e-06
2.87591e-06
2.78402e-06
2.71375e-06
2.66374e-06
2.62736e-06
2.59732e-06
2.5685e-06
2.53831e-06
2.50589e-06
2.47127e-06
2.43481e-06
2.39695e-06
2.35805e-06
2.31844e-06
2.27836e-06
2.23802e-06
2.19762e-06
2.15731e-06
2.11724e-06
2.07758e-06
2.03851e-06
2.00037e-06
1.96366e-06
1.92909e-06
1.89752e-06
1.8697e-06
1.84595e-06
1.82611e-06
1.80961e-06
1.79569e-06
1.7835e-06
1.77233e-06
1.76157e-06
1.7508e-06
1.73975e-06
1.72827e-06
1.71635e-06
1.70403e-06
1.69152e-06
1.67908e-06
1.66703e-06
1.65567e-06
1.64519e-06
1.63566e-06
1.62706e-06
1.61924e-06
1.61204e-06
1.60527e-06
1.59875e-06
1.59232e-06
1.58588e-06
1.57936e-06
1.57274e-06
1.56603e-06
1.5593e-06
1.5526e-06
1.54603e-06
1.53966e-06
1.53355e-06
1.52773e-06
1.52215e-06
1.51672e-06
1.51138e-06
1.50608e-06
1.50084e-06
1.49565e-06
1.49052e-06
1.48545e-06
1.48046e-06
1.47556e-06
1.47077e-06
1.4661e-06
1.46158e-06
1.45722e-06
1.45303e-06
1.449e-06
1.44514e-06
1.44142e-06
1.43784e-06
1.43437e-06
1.43102e-06
1.42776e-06
1.42459e-06
1.4215e-06
1.4185e-06
1.41559e-06
1.41276e-06
1.41002e-06
1.40736e-06
1.4048e-06
1.40232e-06
1.39992e-06
1.3976e-06
1.39535e-06
1.39317e-06
1.39105e-06
1.38899e-06
1.387e-06
1.38506e-06
1.38317e-06
1.38134e-06
1.37957e-06
1.37784e-06
1.37615e-06
1.37455e-06
1.3727e-06
1.37053e-06
1.36814e-06
1.36563e-06
1.3631e-06
1.36058e-06
1.35809e-06
1.35565e-06
1.35324e-06
1.35089e-06
1.34857e-06
1.34629e-06
1.34405e-06
1.34184e-06
1.33967e-06
1.33752e-06
1.33539e-06
1.3333e-06
1.33123e-06
1.32918e-06
1.32716e-06
1.32515e-06
1.32318e-06
1.32122e-06
1.31928e-06
1.31737e-06
1.31547e-06
1.31359e-06
1.31173e-06
1.30988e-06
1.30804e-06
1.30621e-06
1.30439e-06
1.30257e-06
1.30076e-06
1.29894e-06
1.29711e-06
1.29528e-06
1.29344e-06
1.29159e-06
1.28972e-06
1.28784e-06
1.28594e-06
1.28402e-06
1.28207e-06
1.28009e-06
1.27808e-06
1.27604e-06
1.27395e-06
1.27182e-06
1.26964e-06
1.26741e-06
1.26511e-06
1.26275e-06
1.26031e-06
1.2578e-06
1.25519e-06
1.2525e-06
1.2497e-06
1.24679e-06
1.24375e-06
1.24059e-06
1.23729e-06
1.23383e-06
1.2302e-06
1.22639e-06
1.22238e-06
1.21816e-06
1.21371e-06
1.20903e-06
1.20408e-06
1.19886e-06
1.19334e-06
1.18751e-06
1.18134e-06
1.1748e-06
1.16788e-06
1.16054e-06
1.15275e-06
1.14449e-06
1.13571e-06
1.12639e-06
1.11647e-06
1.10593e-06
1.0947e-06
1.08276e-06
1.07003e-06
1.05648e-06
1.04203e-06
1.02664e-06
1.01022e-06
9.92719e-07
9.74055e-07
9.54152e-07
9.32929e-07
9.10302e-07
8.86183e-07
8.60483e-07
8.33113e-07
8.03985e-07
7.73017e-07
7.40141e-07
7.0532e-07
6.68577e-07
6.30089e-07
5.89998e-07
5.49818e-07
5.1435e-07
4.89074e-07
4.70912e-07
4.54311e-07
4.37029e-07
4.1896e-07
4.00419e-07
3.81773e-07
3.6623e-07
3.51014e-07
3.35469e-07
3.1944e-07
3.0263e-07
2.84499e-07
2.64487e-07
2.42814e-07
2.17767e-07
1.85789e-07
1.45543e-07
1.00326e-07
6.23232e-08
5.06665e-08
5.25831e-08
5.2853e-08
4.88315e-08
4.0614e-08
3.07839e-08
2.38236e-08
2.10931e-08
0.0651262
0.0241497
0.0116979
0.00706054
0.0048784
0.00365483
0.00288576
0.00236366
0.001989
0.00170859
0.00149165
0.00131924
0.00117914
0.00106316
0.000965596
0.000882404
0.000810626
0.000748059
0.000693034
0.000644262
0.000600829
0.00056193
0.000526849
0.000495048
0.000466098
0.000439643
0.000415385
0.000393075
0.000372507
0.000353508
0.000335911
0.000319571
0.000304363
0.000290177
0.000276921
0.000264511
0.000252875
0.000241951
0.000231677
0.000221997
0.000212859
0.00020422
0.000196041
0.000188287
0.000180927
0.000173933
0.000167277
0.000160934
0.000154879
0.000149108
0.000143602
0.000138313
0.000133234
0.000128358
0.000123673
0.000119172
0.000114854
0.00011074
0.000106911
0.000103558
0.00010094
9.91585e-05
9.8054e-05
9.73469e-05
9.67987e-05
9.62624e-05
9.56673e-05
9.49894e-05
9.4228e-05
9.33926e-05
9.24953e-05
9.15475e-05
9.05591e-05
8.95389e-05
8.84946e-05
8.74328e-05
8.63592e-05
8.52794e-05
8.41994e-05
8.31276e-05
8.20773e-05
8.10699e-05
8.01366e-05
7.93118e-05
7.86221e-05
7.80756e-05
7.76618e-05
7.73567e-05
7.71307e-05
7.69543e-05
7.6802e-05
7.66537e-05
7.6495e-05
7.63168e-05
7.61148e-05
7.58885e-05
7.56415e-05
7.53823e-05
7.51231e-05
7.48774e-05
7.46567e-05
7.44681e-05
7.43136e-05
7.41909e-05
7.40943e-05
7.40165e-05
7.39501e-05
7.38879e-05
7.38243e-05
7.3755e-05
7.36777e-05
7.35919e-05
7.3499e-05
7.34016e-05
7.33032e-05
7.32077e-05
7.31183e-05
7.30371e-05
7.29665e-05
7.29023e-05
7.28401e-05
7.27779e-05
7.27149e-05
7.26514e-05
7.25875e-05
7.25236e-05
7.24599e-05
7.23971e-05
7.23359e-05
7.22775e-05
7.22227e-05
7.21726e-05
7.21277e-05
7.20883e-05
7.20547e-05
7.20264e-05
7.20029e-05
7.19838e-05
7.19683e-05
7.19559e-05
7.19462e-05
7.19389e-05
7.1934e-05
7.19313e-05
7.19312e-05
7.19337e-05
7.19389e-05
7.19469e-05
7.19578e-05
7.19714e-05
7.19876e-05
7.20062e-05
7.20271e-05
7.20501e-05
7.2075e-05
7.21018e-05
7.21305e-05
7.2161e-05
7.21932e-05
7.22272e-05
7.2263e-05
7.23006e-05
7.23394e-05
7.23829e-05
7.24077e-05
7.24141e-05
7.24086e-05
7.23972e-05
7.23835e-05
7.23696e-05
7.23567e-05
7.23451e-05
7.23353e-05
7.2327e-05
7.23204e-05
7.23153e-05
7.23115e-05
7.23089e-05
7.23076e-05
7.23073e-05
7.2308e-05
7.23098e-05
7.23125e-05
7.23163e-05
7.23211e-05
7.2327e-05
7.23338e-05
7.23418e-05
7.23508e-05
7.23609e-05
7.23721e-05
7.23844e-05
7.23978e-05
7.24123e-05
7.24278e-05
7.24442e-05
7.24615e-05
7.24795e-05
7.24983e-05
7.25176e-05
7.25376e-05
7.25582e-05
7.25794e-05
7.26013e-05
7.26237e-05
7.26468e-05
7.26705e-05
7.26949e-05
7.272e-05
7.27457e-05
7.2772e-05
7.2799e-05
7.28265e-05
7.28546e-05
7.28832e-05
7.29124e-05
7.2942e-05
7.29721e-05
7.30026e-05
7.30336e-05
7.30649e-05
7.30965e-05
7.31285e-05
7.31608e-05
7.31933e-05
7.3226e-05
7.32587e-05
7.32912e-05
7.33232e-05
7.33546e-05
7.33854e-05
7.34155e-05
7.34449e-05
7.34735e-05
7.35013e-05
7.35284e-05
7.35547e-05
7.35801e-05
7.36046e-05
7.3628e-05
7.36504e-05
7.36715e-05
7.36912e-05
7.37093e-05
7.37257e-05
7.37401e-05
7.37523e-05
7.37621e-05
7.37691e-05
7.3773e-05
7.37734e-05
7.37698e-05
7.37619e-05
7.37491e-05
7.37308e-05
7.37063e-05
7.3675e-05
7.36359e-05
7.35882e-05
7.35309e-05
7.34626e-05
7.33821e-05
7.32878e-05
7.3178e-05
7.30506e-05
7.29032e-05
7.2733e-05
7.25364e-05
7.23184e-05
7.19268e-05
7.14665e-05
7.0956e-05
7.04021e-05
6.98115e-05
6.91839e-05
6.85129e-05
6.77897e-05
6.70049e-05
6.61476e-05
6.52095e-05
6.41789e-05
6.30373e-05
6.17575e-05
6.02998e-05
5.86036e-05
5.66027e-05
5.42471e-05
5.13312e-05
4.74293e-05
4.2011e-05
3.43775e-05
2.41682e-05
1.8577e-05
1.77388e-05
1.72542e-05
1.607e-05
1.39214e-05
1.0992e-05
7.89718e-06
5.55033e-06
0.0850616
0.040935
0.0227696
0.0144921
0.0102009
0.0076987
0.00609945
0.00500468
0.00421538
0.00362292
0.0031637
0.00279829
0.0025011
0.00225491
0.00204775
0.00187107
0.00171861
0.00158574
0.0014689
0.00136539
0.00127306
0.00119022
0.00111552
0.00104785
0.00098629
0.000930093
0.000878625
0.000831353
0.000787863
0.00074778
0.000710721
0.000676376
0.000644484
0.000614818
0.000587179
0.000561387
0.000537301
0.000514779
0.000493688
0.000473907
0.000455327
0.000437855
0.000421404
0.000405899
0.000391271
0.000377457
0.000364394
0.000352026
0.0003403
0.000329173
0.000318606
0.000308556
0.000298988
0.000289871
0.000281176
0.000272877
0.00026495
0.000257376
0.000250138
0.000243224
0.000236629
0.00023035
0.000224378
0.000218699
0.000213287
0.000208118
0.000203171
0.000198427
0.000193871
0.000189489
0.000185268
0.000181196
0.000177262
0.00017346
0.000169785
0.000166231
0.000162797
0.00015948
0.000156286
0.000153233
0.000150354
0.000147711
0.000145384
0.00014343
0.000141854
0.000140602
0.000139592
0.000138747
0.000138002
0.00013731
0.000136639
0.000135968
0.000135286
0.000134586
0.00013387
0.000133143
0.000132418
0.00013172
0.000131077
0.000130508
0.000130022
0.000129613
0.000129269
0.000128975
0.000128713
0.00012847
0.000128233
0.000127994
0.000127748
0.000127492
0.000127226
0.000126955
0.000126684
0.00012642
0.00012617
0.000125937
0.000125726
0.000125535
0.000125368
0.000125195
0.000125016
0.000124834
0.000124654
0.000124475
0.000124299
0.000124125
0.000123954
0.000123788
0.000123627
0.000123475
0.000123332
0.000123199
0.000123077
0.000122965
0.000122863
0.000122769
0.000122682
0.000122601
0.000122525
0.000122454
0.000122387
0.000122325
0.000122267
0.000122214
0.000122166
0.000122124
0.000122087
0.000122055
0.000122028
0.000122005
0.000121987
0.000121972
0.000121961
0.000121953
0.000121949
0.000121947
0.000121949
0.000121953
0.000121961
0.000121971
0.000121985
0.000122001
0.000122018
0.00012205
0.000121976
0.000121887
0.000121803
0.000121723
0.000121645
0.000121569
0.000121494
0.00012142
0.000121347
0.000121275
0.000121203
0.000121132
0.000121062
0.000120993
0.000120924
0.000120857
0.00012079
0.000120725
0.00012066
0.000120597
0.000120536
0.000120475
0.000120417
0.000120359
0.000120303
0.000120249
0.000120196
0.000120145
0.000120095
0.000120046
0.000119999
0.000119953
0.000119908
0.000119864
0.000119821
0.000119778
0.000119736
0.000119696
0.000119656
0.000119616
0.000119578
0.000119541
0.000119504
0.000119469
0.000119434
0.0001194
0.000119368
0.000119335
0.000119304
0.000119274
0.000119244
0.000119215
0.000119186
0.000119159
0.000119131
0.000119105
0.000119079
0.000119053
0.000119028
0.000119004
0.00011898
0.000118956
0.000118932
0.000118907
0.000118881
0.000118855
0.000118828
0.0001188
0.000118771
0.000118742
0.000118712
0.000118681
0.00011865
0.000118618
0.000118585
0.000118552
0.000118517
0.000118482
0.000118446
0.000118409
0.00011837
0.00011833
0.000118289
0.000118246
0.000118201
0.000118154
0.000118105
0.000118053
0.000117999
0.000117942
0.000117881
0.000117818
0.00011775
0.000117678
0.000117602
0.000117521
0.000117434
0.000117343
0.000117245
0.00011714
0.000117028
0.000116908
0.000116779
0.00011664
0.000116496
0.000116328
0.000116131
0.000115904
0.000115648
0.000115364
0.000115051
0.00011471
0.000114342
0.000113946
0.000113517
0.000113051
0.000112543
0.000111984
0.000111364
0.000110667
0.000109865
0.000108925
0.000107814
0.000106468
0.000104761
0.00010252
9.95343e-05
9.53906e-05
9.13687e-05
8.86501e-05
8.65721e-05
8.37758e-05
7.91043e-05
7.18725e-05
6.17952e-05
5.05875e-05
0.0975102
0.0547524
0.0335135
0.0224276
0.0161772
0.0123584
0.00985475
0.00811583
0.006851
0.00589618
0.00515319
0.00456033
0.00407717
0.0036763
0.00333856
0.00305024
0.00280127
0.00258415
0.00239315
0.00222387
0.00207285
0.00193733
0.00181512
0.00170441
0.00160371
0.00151181
0.00142767
0.00135041
0.0012793
0.00121369
0.00115304
0.00109685
0.0010447
0.000996222
0.00095108
0.000908986
0.000869723
0.000833038
0.000798703
0.000766523
0.000736324
0.000707949
0.000681259
0.000656132
0.000632457
0.000610122
0.000589022
0.000569063
0.00055016
0.000532237
0.000515228
0.000499076
0.000483724
0.000469122
0.000455221
0.000441978
0.000429357
0.000417322
0.000405841
0.000394883
0.000384419
0.000374425
0.000364879
0.000355752
0.000347018
0.000338656
0.000330645
0.000322969
0.000315609
0.000308547
0.000301757
0.000295218
0.000288919
0.000282849
0.000277001
0.000271366
0.000265932
0.000260693
0.000255637
0.00025076
0.000246042
0.00024148
0.000237081
0.000232859
0.000228819
0.000224964
0.000221285
0.000217771
0.000214408
0.000211182
0.000208079
0.000205091
0.000202212
0.000199443
0.000196801
0.000194287
0.000191955
0.000189866
0.000188056
0.00018652
0.000185216
0.000184088
0.000183081
0.000182151
0.000181266
0.000180404
0.000179551
0.0001787
0.00017785
0.000177005
0.000176174
0.000175372
0.00017461
0.000173902
0.000173254
0.000172664
0.000172129
0.000171637
0.000171195
0.000170651
0.00017012
0.000169613
0.000169124
0.000168649
0.000168185
0.000167733
0.000167296
0.000166878
0.000166481
0.000166107
0.000165757
0.000165429
0.000165122
0.000164833
0.000164558
0.000164297
0.000164045
0.000163802
0.000163567
0.000163341
0.000163124
0.000162916
0.000162719
0.000162533
0.000162358
0.000162194
0.000162039
0.000161894
0.000161757
0.000161628
0.000161506
0.00016139
0.000161279
0.000161175
0.000161077
0.000160984
0.000160898
0.000160817
0.000160742
0.000160672
0.000160607
0.000160547
0.000160491
0.000160442
0.000160389
0.000160329
0.000160264
0.000160197
0.000160128
0.00016006
0.000159992
0.000159924
0.000159858
0.000159791
0.000159725
0.00015966
0.000159595
0.000159532
0.000159469
0.000159408
0.000159347
0.000159289
0.000159232
0.000159177
0.000159125
0.000159074
0.000159025
0.000158978
0.000158934
0.000158891
0.000158851
0.000158813
0.000158777
0.000158743
0.00015871
0.000158679
0.000158648
0.000158618
0.000158589
0.000158562
0.000158535
0.00015851
0.000158486
0.000158464
0.000158442
0.000158422
0.000158404
0.000158386
0.00015837
0.000158355
0.000158341
0.000158327
0.000158315
0.000158304
0.000158293
0.000158283
0.000158274
0.000158266
0.000158258
0.000158251
0.000158244
0.000158238
0.000158232
0.000158227
0.000158221
0.000158215
0.000158207
0.000158196
0.000158183
0.000158169
0.000158154
0.000158136
0.000158118
0.000158098
0.000158077
0.000158054
0.000158029
0.000158003
0.000157974
0.000157943
0.00015791
0.000157874
0.000157836
0.000157794
0.000157748
0.000157699
0.000157645
0.000157587
0.000157524
0.000157456
0.000157381
0.0001573
0.000157212
0.000157115
0.000157011
0.000156897
0.000156774
0.000156639
0.000156494
0.000156336
0.000156165
0.000155979
0.000155778
0.000155561
0.000155326
0.000155072
0.000154799
0.000154504
0.000154188
0.000153848
0.000153483
0.000153089
0.000152664
0.0001522
0.000151701
0.00015117
0.000150612
0.000150031
0.000149431
0.000148819
0.0001482
0.000147579
0.000146963
0.000146354
0.000145754
0.000145156
0.000144549
0.00014391
0.000143198
0.00014234
0.000141256
0.000139744
0.000137863
0.000136066
0.000134604
0.000133128
0.00013093
0.000127349
0.000121981
0.00011519
0.105776
0.0658816
0.0433124
0.0302786
0.0223935
0.0173525
0.0139528
0.0115492
0.00978077
0.00843536
0.00738271
0.00653943
0.00585014
0.00527694
0.00479314
0.00437954
0.00402198
0.00370986
0.0034351
0.00319144
0.00297395
0.00277874
0.00260264
0.00244308
0.00229796
0.00216551
0.00204425
0.00193293
0.00183048
0.00173597
0.00164862
0.00156772
0.00149267
0.00142292
0.00135801
0.0012975
0.00124103
0.00118826
0.00113887
0.00109261
0.00104921
0.00100845
0.000970129
0.000934079
0.000900131
0.000868114
0.000837876
0.000809279
0.000782202
0.000756537
0.000732195
0.000709091
0.000687147
0.000666285
0.000646436
0.000627538
0.000609541
0.000592397
0.000576052
0.000560459
0.000545577
0.000531371
0.000517804
0.000504823
0.000492393
0.000480491
0.000469094
0.000458179
0.00044772
0.000437689
0.000428033
0.000418735
0.000409786
0.000401179
0.0003929
0.000384933
0.00037726
0.000369868
0.000362741
0.000355869
0.000349187
0.00034271
0.000336452
0.000330414
0.00032459
0.000318972
0.000313553
0.000308323
0.000303273
0.000298395
0.00029368
0.000289118
0.000284703
0.000280426
0.000276293
0.000272174
0.000268196
0.000264377
0.000260719
0.000257221
0.00025388
0.000250686
0.000247628
0.000244692
0.000241868
0.000239146
0.000236519
0.000233988
0.000231562
0.000229255
0.000227091
0.000225095
0.000223285
0.000221661
0.00022021
0.000218903
0.00021771
0.000216601
0.000215557
0.000214545
0.000213552
0.000212576
0.000211618
0.000210683
0.000209778
0.000208912
0.000208091
0.000207322
0.000206606
0.000205941
0.000205322
0.000204742
0.000204193
0.000203669
0.000203164
0.000202676
0.000202201
0.000201741
0.000201297
0.000200869
0.000200462
0.000200075
0.00019971
0.000199365
0.000199041
0.000198735
0.000198444
0.000198167
0.000197902
0.000197648
0.000197404
0.00019717
0.000196946
0.000196732
0.00019653
0.000196337
0.000196155
0.000195984
0.000195821
0.000195667
0.000195521
0.000195383
0.00019525
0.000195123
0.000195002
0.000194885
0.00019477
0.000194658
0.000194549
0.000194442
0.000194338
0.000194236
0.000194135
0.000194035
0.000193936
0.000193838
0.000193743
0.00019365
0.000193559
0.00019347
0.000193385
0.000193303
0.000193223
0.000193147
0.000193075
0.000193005
0.000192939
0.000192877
0.000192817
0.000192761
0.000192707
0.000192657
0.000192611
0.000192565
0.000192521
0.000192477
0.000192434
0.000192392
0.000192353
0.000192315
0.00019228
0.000192247
0.000192215
0.000192186
0.000192159
0.000192134
0.00019211
0.000192088
0.000192068
0.000192049
0.000192032
0.000192016
0.000192001
0.000191988
0.000191975
0.000191964
0.000191953
0.000191944
0.000191935
0.000191927
0.00019192
0.000191914
0.000191908
0.000191903
0.000191898
0.000191887
0.000191871
0.000191852
0.000191831
0.000191809
0.000191786
0.000191761
0.000191735
0.000191708
0.000191679
0.000191648
0.000191615
0.000191579
0.000191541
0.0001915
0.000191455
0.000191407
0.000191356
0.000191299
0.000191239
0.000191173
0.000191101
0.000191023
0.000190938
0.000190845
0.000190744
0.000190634
0.000190514
0.000190383
0.000190241
0.000190087
0.000189918
0.000189736
0.000189537
0.000189321
0.000189087
0.000188833
0.000188557
0.000188258
0.000187933
0.000187581
0.000187201
0.000186789
0.000186343
0.000185863
0.000185346
0.000184789
0.000184193
0.00018352
0.000182803
0.000182044
0.000181244
0.000180405
0.000179531
0.000178631
0.000177713
0.000176791
0.000175879
0.000174995
0.000174156
0.000173378
0.000172677
0.000172059
0.000171521
0.000171042
0.000170588
0.000170067
0.000169383
0.000168605
0.000167915
0.00016734
0.00016659
0.000165167
0.000162569
0.000158642
0.111542
0.0748385
0.0520025
0.0377371
0.0285811
0.0224783
0.0182439
0.0151924
0.0129174
0.0111706
0.00979487
0.00868726
0.00777853
0.00702063
0.00637949
0.00583035
0.00535492
0.0049394
0.00457326
0.0042483
0.00395807
0.00369743
0.00346222
0.00324905
0.00305513
0.00287811
0.00271605
0.00256727
0.00243036
0.00230409
0.00218739
0.00207934
0.00197912
0.00188602
0.00179939
0.00171867
0.00164336
0.00157299
0.00150717
0.00144553
0.00138773
0.00133346
0.00128247
0.00123448
0.00118929
0.00114666
0.00110641
0.00106834
0.0010323
0.000998154
0.00096578
0.00093507
0.000905908
0.000878193
0.000851829
0.000826741
0.000802865
0.000780136
0.00075847
0.000737805
0.000718095
0.000699291
0.000681336
0.000664138
0.000647669
0.000631911
0.000616834
0.000602401
0.000588574
0.000575314
0.000562506
0.000550179
0.000538341
0.00052697
0.000516042
0.00050553
0.000495411
0.000485663
0.000476268
0.000467214
0.000458306
0.000449729
0.000441476
0.00043352
0.000425839
0.00041842
0.000411249
0.000404316
0.000397609
0.000391118
0.000384835
0.000378748
0.000372849
0.00036713
0.000361587
0.000356194
0.000350949
0.000345854
0.000340911
0.000336119
0.000331474
0.000326973
0.000322612
0.000318384
0.000314284
0.000310304
0.00030644
0.000302687
0.000299042
0.000295503
0.000292073
0.000288755
0.000285554
0.000282473
0.000279514
0.000276672
0.000273943
0.000271318
0.00026879
0.000266354
0.000264006
0.000261746
0.000259583
0.000257531
0.000255605
0.000253819
0.000252181
0.000250685
0.000249318
0.000248059
0.000246889
0.000245786
0.000244736
0.000243728
0.000242753
0.00024181
0.000240899
0.000240025
0.000239191
0.000238402
0.00023766
0.000236963
0.00023631
0.000235695
0.000235113
0.00023456
0.00023403
0.000233519
0.000233027
0.000232553
0.000232096
0.000231659
0.000231241
0.000230842
0.000230464
0.000230104
0.000229763
0.000229438
0.000229127
0.00022883
0.000228544
0.000228268
0.000228001
0.000227744
0.000227495
0.000227256
0.000227026
0.000226804
0.000226591
0.000226386
0.000226186
0.000225988
0.000225792
0.0002256
0.000225413
0.000225229
0.000225051
0.000224879
0.000224712
0.00022455
0.000224395
0.000224245
0.000224101
0.000223963
0.00022383
0.000223703
0.000223581
0.000223465
0.000223353
0.000223246
0.000223145
0.000223048
0.000222956
0.000222861
0.000222765
0.000222671
0.00022258
0.000222493
0.000222409
0.00022233
0.000222253
0.000222181
0.000222111
0.000222045
0.000221982
0.000221922
0.000221864
0.000221809
0.000221756
0.000221705
0.000221656
0.000221609
0.000221564
0.000221521
0.000221479
0.000221439
0.000221401
0.000221365
0.00022133
0.000221296
0.000221264
0.000221233
0.000221203
0.000221174
0.000221148
0.000221091
0.000221032
0.000220977
0.000220923
0.000220871
0.000220817
0.000220764
0.000220709
0.000220653
0.000220595
0.000220535
0.000220474
0.000220409
0.000220343
0.000220273
0.000220199
0.000220122
0.000220041
0.000219954
0.000219863
0.000219766
0.000219663
0.000219552
0.000219433
0.000219305
0.000219168
0.00021902
0.000218861
0.00021869
0.000218507
0.000218309
0.000218096
0.000217866
0.000217618
0.000217351
0.000217062
0.000216751
0.000216414
0.000216051
0.000215658
0.000215234
0.000214776
0.000214281
0.000213746
0.000213169
0.000212548
0.000211878
0.000211159
0.000210382
0.000209542
0.000208642
0.00020768
0.000206659
0.00020558
0.00020445
0.000203276
0.00020207
0.000200847
0.000199628
0.000198436
0.000197298
0.000196247
0.000195311
0.00019452
0.000193889
0.000193427
0.000193115
0.000192894
0.00019272
0.000192631
0.000192682
0.000192808
0.000192742
0.000192057
0.000190392
0.115739
0.0821012
0.0596143
0.0446611
0.0345732
0.027592
0.0226144
0.0189565
0.0161911
0.014046
0.0123437
0.0109654
0.00982957
0.00887903
0.00807271
0.00738058
0.00678026
0.00625484
0.0057913
0.0053795
0.00501141
0.00468063
0.00438198
0.00411121
0.00386482
0.00363987
0.00343389
0.00324479
0.00307077
0.00291029
0.00276199
0.0026247
0.00249739
0.00237914
0.00226914
0.00216668
0.0020711
0.00198184
0.00189836
0.00182021
0.00174695
0.00167821
0.00161362
0.00155286
0.00149564
0.00144169
0.00139074
0.00134257
0.00129698
0.00125378
0.00121282
0.00117397
0.00113707
0.00110201
0.00106867
0.00103696
0.0010068
0.000978112
0.000950754
0.000924669
0.000899808
0.000876105
0.000853476
0.000831748
0.000810964
0.000791106
0.000772121
0.000753952
0.000736546
0.000719855
0.000703608
0.000688058
0.000673163
0.000658867
0.000645127
0.00063191
0.000619186
0.00060693
0.000595119
0.000583733
0.00057272
0.000562072
0.000551787
0.000541854
0.000532257
0.00052298
0.000514009
0.000505331
0.000496931
0.000488797
0.000480918
0.000473283
0.00046588
0.000458701
0.000451734
0.000444971
0.0004384
0.000432015
0.000425809
0.000419778
0.000413916
0.000408219
0.00040268
0.000397296
0.000392059
0.000386966
0.00038201
0.000377186
0.00037249
0.000367918
0.000363465
0.00035913
0.000354911
0.000350807
0.000346816
0.000342937
0.000339167
0.000335503
0.000331941
0.000328478
0.000325109
0.000321831
0.000318643
0.000315545
0.00031254
0.000309631
0.000306823
0.000304117
0.000301513
0.000299007
0.000296594
0.000294271
0.000292034
0.000289882
0.000287817
0.000285847
0.000283981
0.000282229
0.000280597
0.000279086
0.000277689
0.000276394
0.000275187
0.000274052
0.000272976
0.000271948
0.000270963
0.000270014
0.000269103
0.000268229
0.000267396
0.000266606
0.000265857
0.000265147
0.000264475
0.000263837
0.000263229
0.000262648
0.00026209
0.000261551
0.00026103
0.000260525
0.000260036
0.000259563
0.000259107
0.000258669
0.000258249
0.000257846
0.000257459
0.000257089
0.000256717
0.000256347
0.000255985
0.000255634
0.000255294
0.000254965
0.000254647
0.00025434
0.000254045
0.00025376
0.000253485
0.000253221
0.000252967
0.000252722
0.000252486
0.000252259
0.00025204
0.000251829
0.000251626
0.00025143
0.000251242
0.000251061
0.00025089
0.00025069
0.000250496
0.000250313
0.00025014
0.000249974
0.000249814
0.00024966
0.000249512
0.000249369
0.000249231
0.000249098
0.000248969
0.000248844
0.000248723
0.000248605
0.00024849
0.000248378
0.00024827
0.000248164
0.000248062
0.000247962
0.000247866
0.000247772
0.000247681
0.000247593
0.000247507
0.000247424
0.000247343
0.000247265
0.000247189
0.000247114
0.000247041
0.000246966
0.000246887
0.000246805
0.000246722
0.000246639
0.000246555
0.000246471
0.000246385
0.000246299
0.000246211
0.000246122
0.000246031
0.000245938
0.000245842
0.000245743
0.00024564
0.000245534
0.000245424
0.000245309
0.000245188
0.000245062
0.000244927
0.000244785
0.000244633
0.000244471
0.0002443
0.000244117
0.000243923
0.000243716
0.000243495
0.000243259
0.000243007
0.000242736
0.000242447
0.000242136
0.000241803
0.000241444
0.000241058
0.000240643
0.000240197
0.000239716
0.000239198
0.000238639
0.000238038
0.00023739
0.000236692
0.00023594
0.000235133
0.000234264
0.000233331
0.000232328
0.000231251
0.0002301
0.000228874
0.000227578
0.000226214
0.000224789
0.000223316
0.000221809
0.000220289
0.000218786
0.000217332
0.000215967
0.000214735
0.000213681
0.000212844
0.000212256
0.000211922
0.000211821
0.000211937
0.000212285
0.000212862
0.000213561
0.000214113
0.000214151
0.118906
0.0880542
0.0662524
0.0510042
0.0402733
0.0325948
0.0269784
0.0227711
0.0195446
0.0170147
0.0149907
0.0133415
0.0119758
0.0108285
0.00985214
0.00901195
0.00828172
0.00764151
0.00707591
0.00657285
0.00612279
0.00571804
0.00535237
0.00502068
0.00471874
0.00444299
0.00419046
0.0039586
0.00374521
0.00354843
0.00336659
0.00319827
0.00304221
0.00289727
0.00276249
0.00263696
0.0025199
0.0024106
0.00230842
0.00221279
0.00212317
0.00203909
0.00196013
0.00188587
0.00181595
0.00175003
0.00168779
0.00162894
0.00157325
0.0015205
0.0014705
0.00142307
0.00137805
0.00133529
0.00129461
0.00125595
0.00121923
0.0011843
0.00115092
0.00111913
0.00108887
0.00106003
0.0010325
0.00100592
0.000980622
0.000956487
0.000933417
0.000911336
0.000890181
0.000869897
0.000850384
0.000831631
0.000813619
0.000796313
0.000779673
0.000763664
0.000748251
0.000733405
0.000719099
0.000705306
0.000691995
0.000679141
0.000666723
0.000654725
0.000643128
0.000631916
0.000621071
0.000610577
0.000600417
0.000590577
0.000581042
0.000571801
0.000562839
0.000554145
0.000545707
0.000537515
0.000529558
0.000521826
0.00051431
0.000507003
0.000499897
0.000492984
0.000486258
0.000479713
0.000473343
0.000467141
0.000461102
0.000455219
0.000449488
0.000443902
0.000438458
0.00043315
0.000427975
0.000422929
0.000418008
0.000413209
0.00040853
0.000403967
0.000399517
0.000395177
0.000390941
0.000386807
0.000382772
0.000378834
0.000374991
0.000371242
0.000367588
0.000364028
0.00036056
0.000357182
0.000353891
0.000350686
0.000347566
0.000344528
0.000341572
0.000338698
0.000335907
0.0003332
0.000330581
0.000328048
0.0003256
0.000323239
0.000320963
0.000318771
0.000316662
0.000314635
0.00031269
0.000310833
0.00030907
0.000307408
0.00030585
0.000304397
0.000303032
0.000301751
0.000300547
0.000299409
0.000298327
0.000297292
0.000296297
0.000295337
0.00029441
0.000293516
0.000292657
0.000291833
0.000291046
0.000290294
0.000289578
0.000288893
0.000288237
0.000287613
0.000286938
0.00028629
0.000285673
0.000285083
0.000284516
0.000283971
0.000283446
0.000282941
0.000282455
0.000281988
0.000281539
0.000281107
0.000280691
0.000280289
0.000279901
0.000279526
0.000279163
0.000278813
0.000278475
0.000278148
0.000277833
0.000277529
0.000277237
0.000276951
0.000276669
0.000276394
0.000276126
0.000275866
0.000275614
0.000275369
0.000275132
0.000274901
0.000274678
0.000274461
0.00027425
0.000274044
0.000273842
0.000273645
0.000273452
0.000273264
0.000273081
0.000272902
0.000272728
0.000272559
0.000272394
0.000272234
0.000272078
0.000271926
0.000271778
0.000271635
0.000271494
0.000271358
0.000271224
0.000271093
0.000270962
0.000270833
0.000270704
0.000270575
0.000270446
0.000270318
0.000270189
0.00027006
0.000269931
0.000269802
0.000269671
0.00026954
0.000269407
0.000269272
0.000269136
0.000268996
0.000268854
0.000268709
0.000268559
0.000268404
0.000268245
0.000268079
0.000267903
0.000267716
0.000267521
0.000267316
0.000267102
0.000266877
0.00026664
0.000266391
0.000266127
0.000265848
0.000265552
0.000265238
0.000264903
0.000264547
0.000264167
0.00026376
0.000263326
0.000262861
0.000262363
0.000261829
0.000261256
0.000260642
0.000259982
0.000259274
0.000258513
0.000257696
0.000256818
0.000255877
0.000254867
0.000253785
0.000252613
0.000251362
0.00025003
0.000248615
0.000247117
0.000245538
0.000243884
0.000242165
0.000240395
0.000238595
0.000236795
0.000235031
0.000233347
0.000231797
0.000230438
0.00022933
0.000228526
0.000228059
0.00022794
0.000228178
0.000228783
0.000229727
0.000230879
0.00023197
0.12137
0.092992
0.0720421
0.0567725
0.0456327
0.0374219
0.0312726
0.0265808
0.022931
0.0200377
0.0177031
0.015788
0.0141937
0.0128485
0.0117
0.0107087
0.00984528
0.00908681
0.00841569
0.00781802
0.00728273
0.00680091
0.00636531
0.00596996
0.00560989
0.00528097
0.00497965
0.00470294
0.00444827
0.00421339
0.00399635
0.00379547
0.00360922
0.00343629
0.00327549
0.00312577
0.00298617
0.00285586
0.00273407
0.00262011
0.00251335
0.00241322
0.0023192
0.00223081
0.0021476
0.00206916
0.00199509
0.00192508
0.00185881
0.00179607
0.00173662
0.00168025
0.00162674
0.00157595
0.00152761
0.00148174
0.0014382
0.00139682
0.00135713
0.00131945
0.00128362
0.00124948
0.00121691
0.00118574
0.00115592
0.00112742
0.00110016
0.00107406
0.00104905
0.00102507
0.00100205
0.000979944
0.000958706
0.000938291
0.000918657
0.000899764
0.000881575
0.000864056
0.000847175
0.0008309
0.000815198
0.00080004
0.000785401
0.000771258
0.000757588
0.000744369
0.000731582
0.000719206
0.000707223
0.000695616
0.000684369
0.000673465
0.000662889
0.000652629
0.00064267
0.000632999
0.000623606
0.000614479
0.000605606
0.000596979
0.000588587
0.000580422