/*--------------------------------*- C++ -*----------------------------------*\
  =========                 |
  \\      /  F ield         | OpenFOAM: The Open Source CFD Toolbox
   \\    /   O peration     | Website:  https://openfoam.org
    \\  /    A nd           | Version:  8
     \\/     M anipulation  |
\*---------------------------------------------------------------------------*/
FoamFile
{
    version     2.0;
    format      ascii;
    class       volScalarField;
    location    "0.04";
    object      nuTilda;
}
// * * * * * * * * * * * * * * * * * * * * * * * * * * * * * * * * * * * * * //

dimensions      [0 2 -1 0 0 0 0];

internalField   nonuniform List<scalar> 
104000
(
0.0131038
0.00504414
0.00240918
0.00144448
0.000997562
0.000748472
0.000592224
0.000486231
0.000410195
0.000353292
0.000309264
0.000274266
0.000245818
0.000222255
0.000202422
0.000185497
0.000170879
0.000158121
0.000146885
0.000136908
0.000128004
0.000120008
0.000112782
0.000106214
0.000100218
9.47219e-05
8.96631e-05
8.49891e-05
8.06574e-05
7.66356e-05
7.28974e-05
6.94195e-05
6.61808e-05
6.31624e-05
6.03479e-05
5.77229e-05
5.52758e-05
5.29964e-05
5.08735e-05
4.89154e-05
4.71229e-05
4.54537e-05
4.38855e-05
4.24077e-05
4.10143e-05
3.97004e-05
3.84586e-05
3.73595e-05
3.65078e-05
3.62488e-05
3.70044e-05
3.78895e-05
3.86915e-05
3.93891e-05
3.99541e-05
4.03767e-05
4.06656e-05
4.08389e-05
4.09171e-05
4.0924e-05
4.08885e-05
4.08363e-05
4.07794e-05
4.07168e-05
4.06441e-05
4.05598e-05
4.04654e-05
4.03639e-05
4.0258e-05
4.01495e-05
4.00394e-05
3.99281e-05
3.98156e-05
3.9702e-05
3.9587e-05
3.94706e-05
3.93526e-05
3.92332e-05
3.91124e-05
3.89907e-05
3.88687e-05
3.87479e-05
3.86303e-05
3.85188e-05
3.84158e-05
3.8323e-05
3.82402e-05
3.8166e-05
3.80983e-05
3.80348e-05
3.79736e-05
3.79131e-05
3.78523e-05
3.77906e-05
3.77278e-05
3.7664e-05
3.75995e-05
3.75348e-05
3.74708e-05
3.74084e-05
3.73484e-05
3.72913e-05
3.72373e-05
3.71861e-05
3.71373e-05
3.70904e-05
3.70447e-05
3.69997e-05
3.69551e-05
3.69107e-05
3.68662e-05
3.68217e-05
3.67773e-05
3.67331e-05
3.66894e-05
3.66464e-05
3.66043e-05
3.65632e-05
3.65232e-05
3.6484e-05
3.64454e-05
3.64072e-05
3.63694e-05
3.63318e-05
3.62947e-05
3.62579e-05
3.62216e-05
3.61856e-05
3.61502e-05
3.61153e-05
3.60809e-05
3.60471e-05
3.60138e-05
3.59812e-05
3.59492e-05
3.59178e-05
3.58868e-05
3.58564e-05
3.58263e-05
3.57967e-05
3.57674e-05
3.57385e-05
3.57099e-05
3.56817e-05
3.56538e-05
3.56263e-05
3.55991e-05
3.55723e-05
3.55458e-05
3.55196e-05
3.54937e-05
3.54681e-05
3.54427e-05
3.54176e-05
3.53927e-05
3.53681e-05
3.53437e-05
3.53195e-05
3.52955e-05
3.52717e-05
3.5248e-05
3.52246e-05
3.52012e-05
3.51781e-05
3.51546e-05
3.51304e-05
3.51061e-05
3.5082e-05
3.50582e-05
3.50347e-05
3.50114e-05
3.49883e-05
3.49653e-05
3.49425e-05
3.49198e-05
3.48972e-05
3.48747e-05
3.48522e-05
3.48298e-05
3.48075e-05
3.47852e-05
3.4763e-05
3.47408e-05
3.47187e-05
3.46966e-05
3.46745e-05
3.46525e-05
3.46304e-05
3.46084e-05
3.45864e-05
3.45643e-05
3.45422e-05
3.452e-05
3.44978e-05
3.44755e-05
3.44532e-05
3.44307e-05
3.44081e-05
3.43853e-05
3.43624e-05
3.43393e-05
3.43161e-05
3.42926e-05
3.42688e-05
3.42448e-05
3.42205e-05
3.41958e-05
3.41708e-05
3.41454e-05
3.41196e-05
3.40933e-05
3.40666e-05
3.40392e-05
3.40113e-05
3.39827e-05
3.39534e-05
3.39234e-05
3.38926e-05
3.38608e-05
3.38282e-05
3.37945e-05
3.37597e-05
3.37237e-05
3.36864e-05
3.36477e-05
3.36076e-05
3.35658e-05
3.35224e-05
3.3477e-05
3.34297e-05
3.33802e-05
3.33284e-05
3.32741e-05
3.32172e-05
3.31573e-05
3.30943e-05
3.30279e-05
3.29578e-05
3.28838e-05
3.28054e-05
3.27224e-05
3.26343e-05
3.25408e-05
3.24412e-05
3.23352e-05
3.22221e-05
3.21013e-05
3.19722e-05
3.18339e-05
3.16855e-05
3.15262e-05
3.13549e-05
3.11703e-05
3.09712e-05
3.0756e-05
3.0523e-05
3.02703e-05
2.99956e-05
2.96965e-05
2.93701e-05
2.90131e-05
2.86215e-05
2.81908e-05
2.77158e-05
2.71904e-05
2.66074e-05
2.59588e-05
2.52362e-05
2.44346e-05
2.35684e-05
2.25448e-05
2.15299e-05
2.08522e-05
2.04789e-05
2.02279e-05
2.00053e-05
1.97827e-05
1.95527e-05
1.93158e-05
1.91119e-05
1.8906e-05
1.86887e-05
1.84567e-05
1.82043e-05
1.79213e-05
1.75963e-05
1.72285e-05
1.67658e-05
1.61058e-05
1.51422e-05
1.37879e-05
1.22385e-05
1.16245e-05
1.17295e-05
1.17414e-05
1.15108e-05
1.10019e-05
1.03201e-05
9.92359e-06
1.08e-05
0.0651262
0.0241497
0.0116979
0.00706055
0.00487841
0.00365485
0.0028858
0.00236372
0.00198909
0.00170871
0.00149181
0.00131945
0.0011794
0.00106347
0.000965979
0.000882863
0.000811169
0.000748697
0.000693776
0.00064512
0.000601815
0.000563057
0.000528129
0.000496496
0.000467728
0.000441471
0.000417429
0.000395351
0.000375034
0.000356305
0.000338997
0.000322966
0.000308087
0.000294253
0.00028137
0.000269354
0.000258136
0.000247651
0.000237839
0.000228643
0.000220012
0.000211901
0.000204271
0.000197088
0.000190319
0.000183935
0.000177908
0.00017221
0.000166822
0.000161744
0.000156967
0.00015243
0.000148116
0.000144016
0.000140115
0.000136401
0.00013287
0.000129537
0.000126465
0.000123806
0.000121756
0.000120382
0.000119541
0.000119004
0.000118583
0.000118165
0.000117698
0.000117163
0.000116562
0.000115904
0.000115198
0.000114455
0.000113682
0.000112886
0.000112074
0.00011125
0.000110419
0.000109586
0.000108754
0.000107931
0.000107126
0.000106356
0.000105643
0.000105015
0.00010449
0.000104074
0.000103759
0.000103527
0.000103354
0.00010322
0.000103103
0.00010299
0.000102869
0.000102733
0.000102579
0.000102407
0.00010222
0.000102023
0.000101827
0.000101641
0.000101474
0.000101331
0.000101214
0.000101121
0.000101048
0.000100989
0.000100938
0.000100891
0.000100842
0.000100789
0.000100731
0.000100665
0.000100595
0.000100521
0.000100447
0.000100374
0.000100307
0.000100245
0.000100192
0.000100143
0.000100096
0.000100048
0.000100001
9.99523e-05
9.99039e-05
9.98553e-05
9.9807e-05
9.97593e-05
9.9713e-05
9.96686e-05
9.9627e-05
9.95889e-05
9.95547e-05
9.95248e-05
9.9499e-05
9.94773e-05
9.94593e-05
9.94444e-05
9.94323e-05
9.94226e-05
9.94148e-05
9.94088e-05
9.94046e-05
9.94022e-05
9.94015e-05
9.94029e-05
9.94063e-05
9.94119e-05
9.94195e-05
9.94292e-05
9.94408e-05
9.94543e-05
9.94694e-05
9.94861e-05
9.95043e-05
9.95239e-05
9.95449e-05
9.95672e-05
9.95908e-05
9.96158e-05
9.96421e-05
9.96698e-05
9.96983e-05
9.97304e-05
9.97484e-05
9.97526e-05
9.97479e-05
9.97387e-05
9.97279e-05
9.9717e-05
9.97067e-05
9.96976e-05
9.96896e-05
9.96829e-05
9.96774e-05
9.9673e-05
9.96696e-05
9.96672e-05
9.96656e-05
9.96648e-05
9.96648e-05
9.96656e-05
9.96671e-05
9.96693e-05
9.96723e-05
9.96761e-05
9.96807e-05
9.96861e-05
9.96922e-05
9.96992e-05
9.9707e-05
9.97156e-05
9.9725e-05
9.97352e-05
9.97462e-05
9.97579e-05
9.97702e-05
9.9783e-05
9.97964e-05
9.98103e-05
9.98246e-05
9.98393e-05
9.98545e-05
9.98702e-05
9.98863e-05
9.99029e-05
9.99199e-05
9.99374e-05
9.99555e-05
9.99739e-05
9.99929e-05
0.000100012
0.000100032
0.000100052
0.000100073
0.000100094
0.000100115
0.000100137
0.000100159
0.000100181
0.000100203
0.000100226
0.000100249
0.000100272
0.000100295
0.000100318
0.000100341
0.000100364
0.000100387
0.000100409
0.000100431
0.000100452
0.000100472
0.000100492
0.000100511
0.000100529
0.000100547
0.000100564
0.00010058
0.000100595
0.000100609
0.000100622
0.000100634
0.000100644
0.000100653
0.00010066
0.000100665
0.000100668
0.000100669
0.000100667
0.000100661
0.000100653
0.00010064
0.000100624
0.000100602
0.000100575
0.000100542
0.000100502
0.000100454
0.000100398
0.000100332
0.000100255
0.000100166
0.000100062
9.99425e-05
9.98042e-05
9.96446e-05
9.94603e-05
9.92544e-05
9.89118e-05
9.85068e-05
9.80615e-05
9.75986e-05
9.71259e-05
9.66378e-05
9.61241e-05
9.5575e-05
9.49816e-05
9.43349e-05
9.36282e-05
9.28527e-05
9.19944e-05
9.10331e-05
8.99396e-05
8.86692e-05
8.7176e-05
8.54223e-05
8.32376e-05
8.02879e-05
7.61408e-05
7.01333e-05
6.15e-05
5.61593e-05
5.53024e-05
5.47952e-05
5.35403e-05
5.11507e-05
4.75776e-05
4.32124e-05
3.92393e-05
0.0850616
0.040935
0.0227696
0.0144921
0.0102009
0.0076987
0.00609946
0.0050047
0.0042154
0.00362295
0.00316374
0.00279833
0.00250116
0.00225498
0.00204784
0.00187117
0.00171873
0.00158588
0.00146907
0.00136558
0.00127328
0.00119048
0.00111581
0.00104817
0.000986658
0.000930506
0.000879088
0.00083187
0.000788439
0.000748419
0.000711427
0.000677155
0.000645342
0.000615761
0.000588211
0.000562516
0.000538532
0.000516119
0.000495144
0.000475484
0.000457034
0.000439698
0.000423391
0.000408037
0.000393568
0.00037992
0.000367032
0.000354845
0.00034331
0.000332382
0.000322022
0.000312188
0.000302845
0.000293961
0.000285508
0.000277459
0.000269791
0.000262483
0.00025552
0.000248888
0.000242582
0.000236597
0.000230925
0.000225548
0.000220443
0.000215584
0.000210951
0.000206525
0.00020229
0.000198233
0.000194341
0.000190603
0.000187006
0.000183545
0.000180214
0.000177007
0.000173921
0.000170955
0.000168112
0.000165407
0.000162868
0.000160549
0.000158515
0.000156814
0.000155447
0.000154362
0.00015349
0.00015276
0.000152116
0.000151519
0.000150941
0.000150364
0.000149777
0.000149176
0.000148562
0.000147939
0.000147319
0.000146724
0.000146175
0.000145691
0.000145277
0.000144929
0.000144637
0.000144387
0.000144165
0.000143959
0.000143758
0.000143556
0.000143347
0.00014313
0.000142906
0.000142677
0.000142448
0.000142225
0.000142013
0.000141817
0.000141639
0.000141478
0.000141337
0.000141192
0.000141041
0.000140888
0.000140736
0.000140586
0.000140438
0.000140292
0.000140148
0.000140009
0.000139874
0.000139746
0.000139626
0.000139515
0.000139413
0.000139319
0.000139233
0.000139154
0.000139081
0.000139013
0.00013895
0.00013889
0.000138834
0.000138782
0.000138734
0.00013869
0.00013865
0.000138614
0.000138583
0.000138556
0.000138534
0.000138515
0.000138499
0.000138487
0.000138478
0.000138471
0.000138467
0.000138466
0.000138467
0.000138471
0.000138477
0.000138486
0.000138497
0.000138511
0.000138525
0.000138552
0.000138489
0.000138415
0.000138345
0.000138278
0.000138213
0.000138149
0.000138087
0.000138025
0.000137964
0.000137904
0.000137844
0.000137784
0.000137726
0.000137668
0.000137611
0.000137554
0.000137499
0.000137444
0.000137391
0.000137338
0.000137287
0.000137236
0.000137187
0.000137139
0.000137093
0.000137047
0.000137003
0.00013696
0.000136919
0.000136878
0.000136839
0.000136801
0.000136763
0.000136726
0.00013669
0.000136655
0.00013662
0.000136586
0.000136553
0.00013652
0.000136488
0.000136457
0.000136427
0.000136397
0.000136368
0.00013634
0.000136313
0.000136286
0.00013626
0.000136234
0.00013621
0.000136185
0.000136162
0.000136139
0.000136116
0.000136094
0.000136072
0.000136051
0.00013603
0.00013601
0.00013599
0.00013597
0.00013595
0.000135929
0.000135908
0.000135886
0.000135863
0.00013584
0.000135816
0.000135791
0.000135766
0.000135741
0.000135715
0.000135688
0.000135661
0.000135633
0.000135604
0.000135575
0.000135545
0.000135514
0.000135482
0.000135448
0.000135414
0.000135378
0.000135341
0.000135301
0.00013526
0.000135217
0.000135172
0.000135124
0.000135074
0.00013502
0.000134963
0.000134903
0.000134839
0.000134771
0.000134699
0.000134622
0.000134539
0.000134451
0.000134356
0.000134254
0.000134145
0.000134027
0.000133903
0.00013376
0.00013359
0.000133396
0.00013318
0.000132941
0.000132681
0.000132399
0.000132095
0.000131768
0.000131414
0.000131031
0.000130613
0.000130155
0.000129647
0.000129076
0.000128422
0.000127657
0.000126757
0.000125668
0.00012429
0.000122488
0.000120101
0.000116814
0.000113649
0.00011153
0.000109915
0.000107752
0.000104165
9.86691e-05
9.11001e-05
8.27033e-05
0.0975102
0.0547524
0.0335135
0.0224276
0.0161772
0.0123584
0.00985476
0.00811583
0.006851
0.00589619
0.0051532
0.00456034
0.00407719
0.00367632
0.0033386
0.00305028
0.00280132
0.0025842
0.00239321
0.00222394
0.00207293
0.00193743
0.00181523
0.00170453
0.00160385
0.00151197
0.00142784
0.0013506
0.00127952
0.00121394
0.00115331
0.00109715
0.00104503
0.000996582
0.000951475
0.000909418
0.000870196
0.000833552
0.000799263
0.000767131
0.000736982
0.000708661
0.000682028
0.00065696
0.000633347
0.000611078
0.000590048
0.000570162
0.000551335
0.000533491
0.000516566
0.0005005
0.00048524
0.000470732
0.000456929
0.000443789
0.000431273
0.000419348
0.000407981
0.00039714
0.000386797
0.000376929
0.000367511
0.000358516
0.000349918
0.000341695
0.000333828
0.000326298
0.000319087
0.000312178
0.000305545
0.000299166
0.00029303
0.000287128
0.00028145
0.000275988
0.000270731
0.000265671
0.000260797
0.000256105
0.000251575
0.000247204
0.000242998
0.000238969
0.000235124
0.000231461
0.000227974
0.00022465
0.000221476
0.000218438
0.000215523
0.000212721
0.000210028
0.000207444
0.000204984
0.000202648
0.000200486
0.000198553
0.000196881
0.000195465
0.000194264
0.000193226
0.000192301
0.000191448
0.000190636
0.000189846
0.000189065
0.000188287
0.00018751
0.000186739
0.000185982
0.00018525
0.000184557
0.000183913
0.000183324
0.000182789
0.000182303
0.000181857
0.000181456
0.000180964
0.000180482
0.000180023
0.000179582
0.000179153
0.000178734
0.000178326
0.000177932
0.000177554
0.000177196
0.00017686
0.000176544
0.00017625
0.000175973
0.000175713
0.000175467
0.000175231
0.000175005
0.000174787
0.000174577
0.000174374
0.000174179
0.000173993
0.000173816
0.000173649
0.000173492
0.000173345
0.000173207
0.000173077
0.000172954
0.000172839
0.000172729
0.000172625
0.000172527
0.000172433
0.000172345
0.000172262
0.000172185
0.000172113
0.000172045
0.000171983
0.000171925
0.000171872
0.000171821
0.000171778
0.00017173
0.000171677
0.000171619
0.000171558
0.000171497
0.000171436
0.000171375
0.000171315
0.000171256
0.000171196
0.000171138
0.000171079
0.000171022
0.000170965
0.000170909
0.000170854
0.0001708
0.000170748
0.000170697
0.000170649
0.000170601
0.000170556
0.000170512
0.000170471
0.000170431
0.000170393
0.000170357
0.000170324
0.000170291
0.000170261
0.000170232
0.000170204
0.000170176
0.00017015
0.000170124
0.000170099
0.000170076
0.000170053
0.000170032
0.000170012
0.000169993
0.000169975
0.000169959
0.000169943
0.000169928
0.000169915
0.000169902
0.00016989
0.00016988
0.000169869
0.00016986
0.000169851
0.000169843
0.000169836
0.000169829
0.000169822
0.000169816
0.000169811
0.000169805
0.0001698
0.000169796
0.00016979
0.000169783
0.000169773
0.000169762
0.000169749
0.000169735
0.00016972
0.000169704
0.000169686
0.000169667
0.000169647
0.000169625
0.000169601
0.000169576
0.000169548
0.000169519
0.000169487
0.000169452
0.000169415
0.000169374
0.00016933
0.000169283
0.000169231
0.000169175
0.000169114
0.000169048
0.000168975
0.000168897
0.000168811
0.000168718
0.000168617
0.000168507
0.000168388
0.000168258
0.000168118
0.000167966
0.000167801
0.000167622
0.000167429
0.000167221
0.000166995
0.000166753
0.000166491
0.00016621
0.000165909
0.000165585
0.000165235
0.000164859
0.000164449
0.000164008
0.000163539
0.000163047
0.000162535
0.000162008
0.000161469
0.000160925
0.000160381
0.00015984
0.000159307
0.000158782
0.00015826
0.00015773
0.000157174
0.000156554
0.000155808
0.000154867
0.000153557
0.000151931
0.000150384
0.000149129
0.000147866
0.000145991
0.000142953
0.000138441
0.000132802
0.105776
0.0658816
0.0433124
0.0302786
0.0223935
0.0173525
0.0139528
0.0115492
0.00978077
0.00843536
0.00738272
0.00653944
0.00585015
0.00527695
0.00479316
0.00437956
0.004022
0.00370989
0.00343513
0.00319147
0.00297399
0.00277878
0.00260269
0.00244314
0.00229803
0.00216559
0.00204434
0.00193302
0.00183058
0.00173609
0.00164875
0.00156787
0.00149283
0.0014231
0.0013582
0.00129771
0.00124126
0.00118851
0.00113915
0.00109291
0.00104953
0.0010088
0.000970509
0.000934488
0.000900572
0.000868588
0.000838384
0.000809824
0.000782786
0.000757161
0.00073286
0.000709801
0.000687902
0.000667088
0.000647289
0.000628443
0.0006105
0.000593412
0.000577125
0.000561591
0.000546772
0.00053263
0.000519128
0.000506216
0.000493856
0.000482026
0.000470704
0.000459866
0.000449484
0.000439533
0.000429961
0.000420747
0.000411885
0.000403367
0.000395179
0.000387304
0.000379726
0.000372431
0.000365402
0.000358631
0.000352052
0.00034568
0.000339529
0.0003336
0.000327886
0.00032238
0.000317073
0.000311958
0.000307024
0.000302263
0.000297665
0.000293223
0.000288927
0.000284772
0.000280761
0.000276769
0.000272918
0.000269226
0.000265694
0.000262322
0.000259104
0.000256032
0.000253095
0.000250279
0.000247573
0.000244968
0.000242459
0.000240044
0.000237731
0.000235535
0.000233477
0.000231582
0.000229865
0.000228327
0.000226952
0.000225716
0.000224588
0.000223541
0.000222556
0.000221602
0.000220666
0.000219747
0.000218845
0.000217966
0.000217115
0.000216301
0.00021553
0.000214809
0.000214138
0.000213514
0.000212934
0.000212391
0.000211877
0.000211387
0.000210915
0.000210458
0.000210015
0.000209585
0.00020917
0.000208771
0.000208391
0.00020803
0.000207689
0.000207368
0.000207066
0.00020678
0.00020651
0.000206252
0.000206005
0.000205768
0.000205541
0.000205323
0.000205115
0.000204917
0.000204728
0.000204549
0.00020438
0.00020422
0.000204069
0.000203926
0.000203791
0.000203662
0.000203538
0.000203421
0.000203308
0.000203199
0.000203093
0.000202989
0.000202888
0.000202789
0.000202692
0.000202597
0.000202503
0.00020241
0.000202318
0.000202228
0.00020214
0.000202053
0.000201969
0.000201887
0.000201808
0.000201731
0.000201658
0.000201587
0.00020152
0.000201456
0.000201394
0.000201336
0.000201281
0.000201229
0.000201179
0.000201133
0.000201089
0.000201047
0.000201006
0.000200965
0.000200926
0.000200887
0.000200851
0.000200816
0.000200783
0.000200752
0.000200723
0.000200696
0.000200671
0.000200648
0.000200626
0.000200606
0.000200587
0.00020057
0.000200553
0.000200539
0.000200525
0.000200512
0.000200501
0.00020049
0.00020048
0.000200472
0.000200463
0.000200456
0.00020045
0.000200444
0.000200438
0.000200433
0.000200429
0.000200419
0.000200404
0.000200386
0.000200367
0.000200347
0.000200325
0.000200302
0.000200279
0.000200253
0.000200226
0.000200198
0.000200167
0.000200134
0.000200099
0.00020006
0.000200019
0.000199975
0.000199927
0.000199875
0.000199818
0.000199757
0.000199691
0.000199619
0.00019954
0.000199454
0.000199361
0.000199259
0.000199148
0.000199027
0.000198896
0.000198753
0.000198597
0.000198428
0.000198245
0.000198045
0.000197829
0.000197594
0.000197339
0.000197063
0.000196763
0.000196439
0.000196087
0.000195708
0.000195297
0.000194855
0.000194379
0.000193866
0.000193317
0.000192699
0.00019204
0.000191344
0.00019061
0.000189841
0.000189042
0.000188218
0.00018738
0.000186538
0.000185707
0.000184901
0.000184138
0.000183431
0.000182794
0.000182234
0.000181746
0.000181312
0.000180901
0.000180429
0.00017981
0.000179107
0.000178485
0.000177965
0.000177289
0.000176008
0.000173677
0.000170166
0.111542
0.0748385
0.0520025
0.0377371
0.0285811
0.0224783
0.0182439
0.0151924
0.0129174
0.0111707
0.00979487
0.00868727
0.00777853
0.00702064
0.0063795
0.00583036
0.00535493
0.00493942
0.00457328
0.00424832
0.0039581
0.00369746
0.00346225
0.00324908
0.00305516
0.00287815
0.0027161
0.00256733
0.00243042
0.00230416
0.00218747
0.00207943
0.00197922
0.00188612
0.0017995
0.00171879
0.00164349
0.00157314
0.00150733
0.0014457
0.00138791
0.00133367
0.00128268
0.00123472
0.00118954
0.00114693
0.0011067
0.00106865
0.00103264
0.000998513
0.000966163
0.000935478
0.000906343
0.000878656
0.000852322
0.000827264
0.000803419
0.000780723
0.000759091
0.000738461
0.000718787
0.00070002
0.000682104
0.000664947
0.000648519
0.000632804
0.00061777
0.000603383
0.000589602
0.000576389
0.00056363
0.000551354
0.000539567
0.00052825
0.000517376
0.000506919
0.000496856
0.000487166
0.00047783
0.000468836
0.000459991
0.000451478
0.00044329
0.000435399
0.000427786
0.000420435
0.000413334
0.000406471
0.000399835
0.000393417
0.000387207
0.000381195
0.000375372
0.00036973
0.000364264
0.00035895
0.000353785
0.000348772
0.000343911
0.000339201
0.00033464
0.000330223
0.000325946
0.000321803
0.000317788
0.000313895
0.000310118
0.000306452
0.000302893
0.000299442
0.0002961
0.000292869
0.000289755
0.000286761
0.000283887
0.000281129
0.000278483
0.000275939
0.000273493
0.000271137
0.000268867
0.000266685
0.000264599
0.00026262
0.000260764
0.000259045
0.000257469
0.000256031
0.000254717
0.000253509
0.000252385
0.000251328
0.000250321
0.000249354
0.000248421
0.000247518
0.000246646
0.000245809
0.000245012
0.000244257
0.000243548
0.000242883
0.000242259
0.000241672
0.000241117
0.000240588
0.000240083
0.000239596
0.000239127
0.000238675
0.00023824
0.000237823
0.000237425
0.000237046
0.000236685
0.000236343
0.000236018
0.000235709
0.000235413
0.00023513
0.000234858
0.000234596
0.000234343
0.000234098
0.000233862
0.000233634
0.000233415
0.000233205
0.000233002
0.000232808
0.000232618
0.00023243
0.000232244
0.000232062
0.000231884
0.00023171
0.000231541
0.000231377
0.000231218
0.000231065
0.000230918
0.000230776
0.000230639
0.000230508
0.000230382
0.000230262
0.000230146
0.000230036
0.00022993
0.000229829
0.000229732
0.00022964
0.000229553
0.000229463
0.000229372
0.000229283
0.000229197
0.000229114
0.000229035
0.00022896
0.000228888
0.000228819
0.000228753
0.00022869
0.00022863
0.000228573
0.000228519
0.000228466
0.000228416
0.000228368
0.000228322
0.000228277
0.000228234
0.000228193
0.000228154
0.000228116
0.00022808
0.000228046
0.000228012
0.000227981
0.00022795
0.000227921
0.000227893
0.000227865
0.00022784
0.000227786
0.000227731
0.000227679
0.000227628
0.000227578
0.000227527
0.000227476
0.000227425
0.000227371
0.000227317
0.00022726
0.000227202
0.000227141
0.000227078
0.000227012
0.000226942
0.000226869
0.000226792
0.000226711
0.000226624
0.000226533
0.000226435
0.00022633
0.000226217
0.000226096
0.000225966
0.000225827
0.000225676
0.000225515
0.000225341
0.000225154
0.000224953
0.000224736
0.000224502
0.000224249
0.000223977
0.000223682
0.000223365
0.000223022
0.000222651
0.000222251
0.000221819
0.000221352
0.000220848
0.000220305
0.000219719
0.000219089
0.000218412
0.000217681
0.000216893
0.000216047
0.000215144
0.000214186
0.000213175
0.000212116
0.000211018
0.000209891
0.000208749
0.000207611
0.0002065
0.000205442
0.000204464
0.000203594
0.000202859
0.000202274
0.000201845
0.000201556
0.000201351
0.00020119
0.000201107
0.000201154
0.000201271
0.00020121
0.000200576
0.000199034
0.115739
0.0821012
0.0596143
0.0446611
0.0345732
0.027592
0.0226144
0.0189565
0.0161911
0.014046
0.0123437
0.0109654
0.00982957
0.00887904
0.00807272
0.00738058
0.00678027
0.00625485
0.00579131
0.00537951
0.00501142
0.00468065
0.004382
0.00411124
0.00386484
0.00363989
0.00343392
0.00324482
0.00307081
0.00291033
0.00276204
0.00262475
0.00249744
0.0023792
0.00226921
0.00216675
0.00207118
0.00198193
0.00189846
0.00182032
0.00174707
0.00167833
0.00161375
0.00155301
0.0014958
0.00144186
0.00139093
0.00134277
0.00129719
0.00125401
0.00121307
0.00117423
0.00113735
0.00110231
0.00106898
0.00103729
0.00100715
0.000978486
0.000951149
0.000925087
0.00090025
0.00087657
0.000853966
0.000832265
0.000811507
0.000791676
0.00077272
0.00075458
0.000737204
0.000720544
0.000704329
0.000688812
0.00067395
0.000659689
0.000645984
0.000632802
0.000620115
0.000607897
0.000596124
0.000584778
0.000573805
0.000563198
0.000552955
0.000543065
0.000533511
0.000524279
0.000515353
0.000506721
0.000498368
0.000490282
0.000482451
0.000474865
0.000467512
0.000460383
0.000453468
0.000446757
0.000440239
0.000433908
0.000427757
0.000421781
0.000415974
0.000410333
0.000404852
0.000399525
0.000394347
0.000389313
0.000384417
0.000379653
0.000375018
0.000370507
0.000366116
0.000361843
0.000357687
0.000353646
0.000349719
0.000345903
0.000342197
0.000338597
0.000335099
0.000331699
0.000328395
0.000325181
0.000322057
0.000319023
0.000316082
0.000313237
0.000310492
0.000307848
0.000305305
0.000302859
0.000300506
0.000298242
0.000296062
0.000293966
0.000291957
0.000290041
0.000288226
0.000286523
0.000284938
0.000283472
0.000282116
0.00028086
0.000279689
0.000278588
0.000277546
0.000276551
0.000275596
0.000274678
0.000273795
0.00027295
0.000272144
0.00027138
0.000270656
0.00026997
0.00026932
0.000268704
0.000268118
0.000267557
0.000267018
0.000266498
0.000265995
0.000265507
0.000265035
0.000264579
0.00026414
0.000263717
0.000263312
0.000262923
0.000262551
0.000262194
0.000261835
0.000261479
0.000261131
0.000260793
0.000260465
0.000260149
0.000259843
0.000259547
0.000259262
0.000258988
0.000258724
0.00025847
0.000258225
0.00025799
0.000257763
0.000257545
0.000257334
0.000257131
0.000256936
0.000256748
0.000256567
0.000256393
0.000256229
0.000256036
0.00025585
0.000255674
0.000255507
0.000255348
0.000255194
0.000255047
0.000254904
0.000254767
0.000254634
0.000254506
0.000254382
0.000254262
0.000254146
0.000254033
0.000253923
0.000253815
0.000253711
0.00025361
0.000253511
0.000253416
0.000253323
0.000253233
0.000253146
0.000253061
0.000252979
0.000252899
0.000252822
0.000252747
0.000252673
0.000252601
0.000252532
0.000252459
0.000252383
0.000252305
0.000252226
0.000252146
0.000252065
0.000251984
0.000251902
0.00025182
0.000251735
0.00025165
0.000251562
0.000251473
0.000251381
0.000251286
0.000251188
0.000251086
0.00025098
0.00025087
0.000250754
0.000250633
0.000250504
0.000250367
0.000250221
0.000250067
0.000249902
0.000249727
0.000249541
0.000249343
0.000249131
0.000248905
0.000248663
0.000248404
0.000248127
0.000247829
0.00024751
0.000247167
0.000246798
0.000246401
0.000245973
0.000245513
0.000245018
0.000244484
0.000243909
0.00024329
0.000242623
0.000241906
0.000241134
0.000240306
0.000239416
0.00023846
0.000237434
0.000236338
0.000235172
0.000233939
0.000232644
0.000231291
0.000229894
0.000228465
0.000227027
0.000225605
0.000224231
0.000222942
0.00022178
0.000220786
0.000219998
0.000219444
0.00021913
0.000219035
0.000219145
0.000219472
0.000220015
0.000220674
0.000221194
0.00022123
0.118906
0.0880542
0.0662524
0.0510042
0.0402733
0.0325948
0.0269784
0.0227711
0.0195446
0.0170147
0.0149907
0.0133415
0.0119759
0.0108285
0.00985215
0.00901196
0.00828173
0.00764151
0.00707591
0.00657286
0.0061228
0.00571805
0.00535238
0.0050207
0.00471875
0.00444301
0.00419048
0.00395862
0.00374524
0.00354845
0.00336662
0.00319831
0.00304224
0.00289732
0.00276254
0.00263701
0.00251996
0.00241067
0.00230849
0.00221286
0.00212325
0.00203918
0.00196022
0.00188597
0.00181606
0.00175015
0.00168791
0.00162908
0.00157339
0.00152065
0.00147066
0.00142325
0.00137824
0.00133549
0.00129482
0.00125618
0.00121947
0.00118455
0.00115119
0.00111942
0.00108917
0.00106034
0.00103283
0.00100628
0.000980994
0.000956878
0.000933827
0.000911766
0.000890632
0.000870369
0.000850878
0.000832147
0.000814158
0.000796876
0.000780261
0.000764276
0.000748889
0.000734069
0.000719789
0.000706024
0.00069274
0.000679914
0.000667525
0.000655557
0.00064399
0.000632809
0.000621995
0.000611532
0.000601405
0.000591598
0.000582097
0.000572889
0.000563962
0.000555303
0.000546901
0.000538745
0.000530825
0.000523131
0.000515653
0.000508384
0.000501317
0.000494444
0.000487758
0.000481254
0.000474925
0.000468764
0.000462767
0.000456927
0.000451239
0.000445697
0.000440296
0.000435033
0.000429903
0.000424902
0.000420027
0.000415274
0.000410641
0.000406125
0.000401723
0.00039743
0.000393242
0.000389156
0.00038517
0.00038128
0.000377486
0.000373787
0.000370182
0.000366671
0.000363253
0.000359923
0.000356682
0.000353527
0.000350456
0.000347467
0.000344561
0.000341736
0.000338993
0.000336335
0.000333764
0.000331277
0.000328876
0.000326561
0.00032433
0.000322183
0.000320117
0.000318132
0.000316229
0.000314413
0.000312689
0.000311063
0.000309541
0.000308121
0.000306788
0.000305538
0.000304362
0.000303252
0.000302196
0.000301187
0.000300216
0.00029928
0.000298377
0.000297506
0.000296669
0.000295867
0.0002951
0.000294368
0.00029367
0.000293004
0.000292365
0.000291758
0.000291102
0.000290471
0.000289871
0.000289298
0.000288747
0.000288216
0.000287706
0.000287215
0.000286743
0.00028629
0.000285854
0.000285434
0.00028503
0.000284639
0.000284263
0.000283898
0.000283546
0.000283206
0.000282878
0.000282561
0.000282256
0.000281961
0.000281677
0.0002814
0.000281127
0.00028086
0.0002806
0.000280348
0.000280103
0.000279866
0.000279635
0.000279412
0.000279195
0.000278985
0.000278781
0.000278581
0.000278385
0.000278194
0.000278008
0.000277825
0.000277648
0.000277474
0.000277306
0.000277142
0.000276982
0.000276827
0.000276676
0.000276529
0.000276386
0.000276247
0.000276111
0.000275979
0.000275849
0.000275722
0.000275596
0.00027547
0.000275345
0.000275221
0.000275096
0.000274971
0.000274847
0.000274722
0.000274597
0.000274472
0.000274346
0.000274218
0.00027409
0.00027396
0.000273827
0.000273693
0.000273555
0.000273414
0.000273269
0.00027312
0.000272965
0.000272805
0.000272634
0.000272454
0.000272265
0.000272067
0.00027186
0.000271642
0.000271413
0.000271172
0.000270917
0.000270647
0.000270361
0.000270057
0.000269734
0.00026939
0.000269022
0.00026863
0.00026821
0.000267761
0.000267281
0.000266765
0.000266212
0.00026562
0.000264983
0.0002643
0.000263566
0.000262778
0.000261933
0.000261026
0.000260053
0.000259012
0.000257885
0.000256682
0.000255401
0.000254042
0.000252604
0.000251089
0.000249504
0.000247857
0.000246162
0.000244442
0.000242722
0.000241037
0.000239431
0.000237954
0.00023666
0.000235606
0.000234841
0.000234397
0.000234284
0.00023451
0.000235085
0.000235983
0.00023708
0.000238119
0.12137
0.092992
0.0720421
0.0567725
0.0456327
0.0374219
0.0312726
0.0265808
0.022931
0.0200377
0.0177031
0.015788
0.0141937
0.0128485
0.0117
0.0107087
0.00984528
0.00908682
0.0084157
0.00781802
0.00728273
0.00680092
0.00636532
0.00596997
0.00560991
0.00528098
0.00497966
0.00470296
0.00444828
0.00421341
0.00399638
0.00379549
0.00360925
0.00343632
0.00327552
0.0031258
0.00298621
0.00285591
0.00273412
0.00262016
0.00251341
0.00241328
0.00231927
0.00223089
0.00214768
0.00206924
0.00199518
0.00192517
0.00185892
0.00179619
0.00173674
0.00168038
0.00162688
0.00157609
0.00152776
0.0014819
0.00143838
0.001397
0.00135732
0.00131966
0.00128384
0.00124971
0.00121716
0.00118599
0.00115619
0.0011277
0.00110045
0.00107437
0.00104937
0.00102541
0.00100241
0.000980316
0.000959095
0.000938697
0.000919081
0.000900206
0.000882035
0.000864535
0.000847673
0.000831417
0.000815735
0.000800598
0.00078598
0.000771858
0.00075821
0.000745014
0.000732249
0.000719896
0.000707937
0.000696354
0.00068513
0.000674251
0.000663701
0.000653466
0.000643533
0.000633889
0.000624523
0.000615422
0.000606577
0.000597978