/*--------------------------------*- C++ -*----------------------------------*\
  =========                 |
  \\      /  F ield         | OpenFOAM: The Open Source CFD Toolbox
   \\    /   O peration     | Website:  https://openfoam.org
    \\  /    A nd           | Version:  8
     \\/     M anipulation  |
\*---------------------------------------------------------------------------*/
FoamFile
{
    version     2.0;
    format      ascii;
    class       volVectorField;
    location    "0.04";
    object      U;
}
// * * * * * * * * * * * * * * * * * * * * * * * * * * * * * * * * * * * * * //

dimensions      [0 1 -1 0 0 0 0];

internalField   nonuniform List<vector> 
104000
(
(0.372889 -4.88226 -5.44424e-22)
(7.9238 -3.28285 3.57329e-21)
(12.9649 -2.17962 -4.75593e-21)
(15.0648 -1.42185 1.47817e-20)
(16.2662 -0.95015 -1.99878e-20)
(17.1226 -0.681426 0)
(17.7539 -0.52136 5.77839e-20)
(18.2387 -0.415644 -6.18376e-23)
(18.6271 -0.340581 -1.44049e-19)
(18.9465 -0.285104 7.79642e-20)
(19.2137 -0.242911 8.31752e-20)
(19.4408 -0.210082 -8.79058e-20)
(19.6365 -0.184068 0)
(19.807 -0.16313 -1.91739e-19)
(19.9567 -0.146023 3.97314e-19)
(20.0891 -0.131846 -5.64959e-23)
(20.2066 -0.119916 -2.10749e-19)
(20.3109 -0.109728 -2.16039e-19)
(20.4036 -0.100888 4.71249e-23)
(20.4856 -0.0930604 2.25705e-19)
(20.5576 -0.0859275 0)
(20.6202 -0.0793208 2.34139e-19)
(20.6739 -0.0731414 -3.85981e-23)
(20.719 -0.0672679 -2.41796e-19)
(20.7557 -0.061569 4.90627e-19)
(20.7842 -0.0559553 -6.75778e-23)
(20.8047 -0.0503638 -6.4741e-23)
(20.8173 -0.0446755 -1.02072e-18)
(20.8223 -0.0385336 5.16525e-19)
(20.8173 -0.0317447 5.22268e-19)
(20.8024 -0.0245538 -1.05588e-18)
(20.7781 -0.0173142 5.25259e-23)
(20.745 -0.0102233 5.38905e-19)
(20.7038 -0.00335186 5.44171e-19)
(20.6548 0.00328256 -1.09884e-18)
(20.5986 0.0096578 4.44343e-23)
(20.5356 0.0157629 5.59664e-19)
(20.466 0.0215635 0)
(20.3903 0.0270541 0)
(20.3087 0.0322984 0)
(20.2215 0.0372327 0)
(20.1291 0.0417022 0)
(20.0317 0.0457032 -5.89418e-19)
(19.9295 0.0492855 5.94452e-19)
(19.8229 0.0525102 5.9947e-19)
(19.7122 0.0553975 -6.04601e-19)
(19.5976 0.0580472 0)
(19.4795 0.0606732 0)
(19.3583 0.063499 0)
(19.2342 0.0670013 1.25077e-18)
(19.1076 0.0707208 -1.26112e-18)
(18.9784 0.073517 0)
(18.8465 0.0752264 1.28207e-18)
(18.7121 0.0761525 -4.04553e-23)
(18.5756 0.0765916 -1.30421e-18)
(18.4369 0.0767199 1.31564e-18)
(18.2965 0.0766216 -3.56822e-23)
(18.1546 0.0762899 -2.67865e-18)
(18.012 0.0756145 2.70283e-18)
(17.8698 0.0743611 -3.18937e-23)
(17.7296 0.0722469 -3.06392e-23)
(17.5935 0.0691116 -1.38629e-18)
(17.4631 0.0650752 1.39674e-18)
(17.339 0.0605084 -2.61449e-23)
(17.2215 0.0558772 -2.8322e-18)
(17.11 0.0515754 1.4252e-18)
(17.0035 0.0478536 1.43399e-18)
(16.9013 0.0448134 -2.88524e-18)
(16.8024 0.0424502 2.90222e-18)
(16.7059 0.0406917 -1.89808e-23)
(16.6112 0.0394389 -1.46792e-18)
(16.5178 0.0385858 -1.47629e-18)
(16.4252 0.0380368 1.48474e-18)
(16.3332 0.0377086 0)
(16.2416 0.0375343 -1.50178e-18)
(16.1502 0.0374591 1.51045e-18)
(16.059 0.0374408 0)
(15.9679 0.037444 0)
(15.877 0.0374389 0)
(15.7864 0.0373942 0)
(15.6962 0.0372758 0)
(15.6067 0.0370412 0)
(15.5182 0.036641 1.57312e-18)
(15.4312 0.0360221 -1.58207e-18)
(15.346 0.035144 -1.59082e-18)
(15.2632 0.033994 3.19868e-18)
(15.1833 0.0325985 -1.60758e-18)
(15.1066 0.031019 0)
(15.0332 0.029341 1.62309e-18)
(14.9632 0.0276562 -7.80263e-24)
(14.8963 0.0260488 -1.6374e-18)
(14.8324 0.0245846 0)
(14.7712 0.0233076 1.65068e-18)
(14.7122 0.0222381 -1.65703e-18)
(14.6552 0.0213762 0)
(14.5998 0.0207051 0)
(14.5458 0.0201972 0)
(14.493 0.0198137 0)
(14.4412 0.0195083 3.37398e-18)
(14.3904 0.0192313 -6.7709e-18)
(14.3407 0.0189386 3.39672e-18)
(14.2921 0.0185983 0)
(14.2447 0.0181952 3.41854e-18)
(14.1985 0.0177307 -8.73507e-24)
(14.1537 0.0172198 -8.35823e-24)
(14.1103 0.0166858 -3.44928e-18)
(14.0682 0.0161549 0)
(14.0274 0.0156518 3.4684e-18)
(13.9877 0.0151965 -7.06035e-24)
(13.9492 0.0148024 -6.81399e-24)
(13.9117 0.0144758 -3.49546e-18)
(13.875 0.0142155 3.50414e-18)
(13.839 0.0140144 -3.5127e-18)
(13.8038 0.0138598 3.52113e-18)
(13.7691 0.0137365 -3.52946e-18)
(13.735 0.0136282 3.53768e-18)
(13.7015 0.013521 -3.54579e-18)
(13.6686 0.0134044 3.55378e-18)
(13.6362 0.01327 -3.56165e-18)
(13.6045 0.0131181 3.56939e-18)
(13.5734 0.0129607 -3.57702e-18)
(13.5428 0.0128092 3.58452e-18)
(13.5128 0.0126694 -3.59194e-18)
(13.4834 0.0125433 3.59924e-18)
(13.4545 0.0124307 -7.21289e-18)
(13.426 0.0123302 7.22712e-18)
(13.398 0.0122397 -3.62059e-18)
(13.3704 0.0121564 0)
(13.3433 0.0120771 -3.63438e-18)
(13.3166 0.0119983 7.28231e-18)
(13.2903 0.0119165 -3.64784e-18)
(13.2644 0.0118288 0)
(13.2389 0.011733 0)
(13.2139 0.0116283 -3.6673e-18)
(13.1894 0.011515 4.2131e-24)
(13.1653 0.0113947 3.67977e-18)
(13.1417 0.0112696 0)
(13.1185 0.0111426 3.6918e-18)
(13.0958 0.0110163 -7.39532e-18)
(13.0736 0.0108933 4.00304e-24)
(13.0518 0.0107754 7.41811e-18)
(13.0304 0.0106635 -3.7146e-18)
(13.0094 0.0105579 0)
(12.9888 0.0104583 -3.7254e-18)
(12.9686 0.0103637 7.46131e-18)
(12.9488 0.0102731 -7.47164e-18)
(12.9293 0.0101856 3.7409e-18)
(12.9102 0.0101003 0)
(12.8915 0.0100167 3.75078e-18)
(12.8731 0.00993483 -7.51119e-18)
(12.855 0.0098546 7.52064e-18)
(12.8373 0.00977641 -3.76496e-18)
(12.8199 0.00970057 3.76952e-18)
(12.8028 0.00962747 -3.774e-18)
(12.786 0.00955729 0)
(12.7695 0.00949027 0)
(12.7533 0.00942625 3.78698e-18)
(12.7374 0.00936526 -3.79117e-18)
(12.7217 0.00930714 0)
(12.7063 0.00925205 0)
(12.6911 0.00920005 0)
(12.6762 0.0091528 0)
(12.6614 0.00911178 0)
(12.6469 0.00907746 0)
(12.6325 0.00906506 0)
(12.6182 0.00909458 0)
(12.6039 0.00916475 -3.82643e-18)
(12.5895 0.00926075 3.83033e-18)
(12.5751 0.00936603 0)
(12.5606 0.00946768 3.83818e-18)
(12.5461 0.00955693 -7.68428e-18)
(12.5315 0.00962941 3.84611e-18)
(12.517 0.00968387 0)
(12.5025 0.00972138 0)
(12.4881 0.0097438 -3.85802e-18)
(12.4737 0.00975378 7.72397e-18)
(12.4594 0.00975378 -3.86593e-18)
(12.4452 0.00974616 0)
(12.431 0.00973277 0)
(12.417 0.00971534 3.87766e-18)
(12.403 0.00969486 -7.76308e-18)
(12.3891 0.00967231 7.77079e-18)
(12.3753 0.0096482 -3.88924e-18)
(12.3615 0.00962292 3.89306e-18)
(12.3479 0.00959657 -3.89687e-18)
(12.3343 0.00956938 3.90066e-18)
(12.3207 0.00954116 -3.90444e-18)
(12.3072 0.009512 3.9082e-18)
(12.2938 0.00948175 -3.91196e-18)
(12.2804 0.00945037 0)
(12.267 0.00941766 0)
(12.2536 0.00938366 0)
(12.2403 0.00934804 0)
(12.227 0.00931086 0)
(12.2137 0.00927216 0)
(12.2003 0.00923211 7.87627e-18)
(12.187 0.00919071 -1.57676e-17)
(12.1736 0.00914821 1.57826e-17)
(12.1601 0.00910444 -7.89889e-18)
(12.1466 0.00905947 7.9065e-18)
(12.133 0.00901304 -3.68081e-24)
(12.1193 0.00896491 -7.92191e-18)
(12.1055 0.00891464 0)
(12.0916 0.00886199 0)
(12.0775 0.00880634 -7.9456e-18)
(12.0633 0.00874742 7.9537e-18)
(12.0488 0.0086847 0)
(12.0342 0.00861785 7.97027e-18)
(12.0193 0.00854632 -1.59576e-17)
(12.0041 0.00846989 1.59749e-17)
(11.9887 0.00838797 -7.99628e-18)
(11.973 0.0083003 0)
(11.9569 0.00820637 0)
(11.9404 0.00810581 0)
(11.9236 0.00799804 0)
(11.9063 0.00788272 8.04385e-18)
(11.8885 0.00775911 -1.61084e-17)
(11.8702 0.00762675 1.61297e-17)
(11.8514 0.00748488 -1.61517e-17)
(11.8319 0.00733287 8.08727e-18)
(11.8118 0.00716981 -8.09911e-18)
(11.791 0.00699506 8.11139e-18)
(11.7694 0.00680749 0)
(11.747 0.00660623 0)
(11.7238 0.00639005 0)
(11.6995 0.00615806 0)
(11.6743 0.0059095 0)
(11.648 0.00564388 8.19699e-18)
(11.6205 0.00536012 -1.64274e-17)
(11.5918 0.00505726 8.23123e-18)
(11.5617 0.00473385 0)
(11.5301 0.00438828 0)
(11.497 0.00401845 0)
(11.4622 0.00362239 0)
(11.4256 0.00319761 0)
(11.3871 0.00274186 -8.35884e-18)
(11.3465 0.0022526 8.38462e-18)
(11.3037 0.00172739 0)
(11.2586 0.00116352 0)
(11.2109 0.000558538 8.47224e-18)
(11.1606 -9.05101e-05 -8.50522e-18)
(11.1073 -0.000786302 0)
(11.051 -0.00153193 0)
(10.9914 -0.00233039 0)
(10.9283 -0.00318511 0)
(10.8613 -0.00409928 0)
(10.7903 -0.00507668 0)
(10.715 -0.00612083 -8.81012e-18)
(10.635 -0.00723573 8.86716e-18)
(10.5501 -0.00842526 0)
(10.4599 -0.00969376 -8.99518e-18)
(10.364 -0.0110453 1.81336e-17)
(10.262 -0.0124845 -9.14422e-18)
(10.1534 -0.0140156 0)
(10.038 -0.0156435 0)
(9.91499 -0.0173726 -9.41849e-18)
(9.78405 -0.0192078 9.52614e-18)
(9.64457 -0.0211533 -9.64401e-18)
(9.49595 -0.0232141 -2.18617e-22)
(9.33758 -0.0253943 -2.34757e-22)
(9.16878 -0.0276982 1.00683e-17)
(8.98885 -0.0301297 0)
(8.79705 -0.0326925 -1.04274e-17)
(8.59261 -0.0353897 1.06358e-17)
(8.37473 -0.0382238 0)
(8.14257 -0.0411984 0)
(7.89528 -0.0443038 1.14157e-17)
(7.63195 -0.047565 -2.34815e-17)
(7.35187 -0.0508822 1.21077e-17)
(7.05358 -0.0541448 -1.25268e-17)
(6.73626 -0.0573626 -5.15579e-22)
(6.39949 -0.0606377 2.71098e-17)
(6.04311 -0.0641677 -1.41893e-17)
(5.66715 -0.0681968 0)
(5.27206 -0.0728784 0)
(4.8587 -0.0782916 1.68128e-17)
(4.42846 -0.0845159 -1.80298e-17)
(3.98334 -0.0916669 -1.94979e-17)
(3.52604 -0.0999072 4.25724e-17)
(3.06009 -0.109471 1.00682e-21)
(2.58978 -0.120666 -2.62696e-17)
(2.12016 -0.133816 2.98189e-17)
(1.6569 -0.149283 -6.89269e-17)
(1.20611 -0.167423 4.07261e-17)
(0.774305 -0.188512 0)
(0.357849 -0.214025 0)
(-0.0448197 -0.218446 -6.58066e-17)
(-0.416697 -0.196167 -1.56606e-21)
(-0.75646 -0.173936 9.80843e-17)
(-1.06715 -0.15795 -8.84391e-17)
(-1.34699 -0.164563 8.19029e-17)
(-1.58058 -0.205599 -3.90796e-17)
(-1.73606 -0.256503 0)
(-1.81582 -0.285483 0)
(-1.81944 -0.281897 0)
(-1.77029 -0.255126 0)
(-1.7052 -0.219183 0)
(-1.64625 -0.182126 -4.06965e-17)
(-1.616 -0.149228 8.46511e-17)
(-1.62739 -0.124937 -8.46912e-17)
(3.10426 -5.74588 0)
(6.55888 -4.31109 6.68944e-22)
(9.6965 -2.5914 -1.34413e-21)
(11.9692 -1.53198 4.35745e-21)
(13.6602 -0.988309 -6.19121e-21)
(14.9305 -0.694161 0)
(15.9013 -0.51779 0)
(16.6684 -0.402345 2.36809e-20)
(17.2942 -0.322375 -2.73962e-20)
(17.8177 -0.264665 -3.09843e-20)
(18.2646 -0.221584 3.45025e-20)
(18.653 -0.188517 0)
(18.9956 -0.162518 0)
(19.3016 -0.141608 -8.86259e-20)
(19.5779 -0.124397 9.4756e-20)
(19.8296 -0.109906 0)
(20.0605 -0.0974261 0)
(20.2737 -0.0864469 0)
(20.4714 -0.0765941 0)
(20.6555 -0.0676058 1.22223e-19)
(20.8273 -0.0592843 -1.27196e-19)
(20.988 -0.051486 -1.31956e-19)
(21.1384 -0.0441008 2.17765e-23)
(21.2793 -0.0370633 1.41075e-19)
(21.4113 -0.0303256 0)
(21.5349 -0.0238575 -2.99142e-19)
(21.6505 -0.0176271 3.89098e-23)
(21.7585 -0.0115404 6.30225e-19)
(21.8593 -0.00536833 -6.45396e-19)
(21.9547 0.000933287 3.2997e-19)
(22.0451 0.00711755 -3.36918e-19)
(22.1301 0.0129418 3.43686e-19)
(22.2093 0.0183526 3.5015e-19)
(22.2828 0.0233818 -7.12876e-19)
(22.3506 0.0280818 3.6251e-19)
(22.4127 0.032494 0)
(22.4693 0.0366497 -3.73869e-19)
(22.5205 0.04057 2.70431e-23)
(22.5664 0.0442705 2.60445e-23)
(22.6073 0.0477648 3.8939e-19)
(22.6432 0.0510931 0)
(22.6745 0.0542998 0)
(22.7012 0.0574095 4.03465e-19)
(22.7235 0.0604159 -4.0793e-19)
(22.7417 0.0633066 0)
(22.7558 0.0660588 0)
(22.7659 0.0686322 4.20593e-19)
(22.7723 0.0709615 -4.2465e-19)
(22.775 0.0729995 0)
(22.774 0.0747219 -8.64952e-19)
(22.7694 0.0762171 3.17579e-23)
(22.7615 0.0776906 8.80063e-19)
(22.7507 0.079295 -8.87409e-19)
(22.737 0.0810432 2.79751e-23)
(22.7209 0.0828648 9.01893e-19)
(22.7022 0.0846637 0)
(22.6813 0.0863382 0)
(22.6583 0.0877639 0)
(22.633 0.088797 0)
(22.6052 0.08929 0)
(22.5742 0.0891144 0)
(22.539 0.0881894 0)
(22.4992 0.0865615 9.51116e-19)
(22.4546 0.084429 -1.76712e-23)
(22.4058 0.0820706 -1.6743e-23)
(22.3535 0.0797392 -1.58649e-23)
(22.2985 0.0776101 -1.9357e-18)
(22.2418 0.0757735 1.94439e-18)
(22.1838 0.074256 -1.95325e-18)
(22.125 0.0730412 1.29017e-23)
(22.0659 0.0720926 1.22868e-23)
(22.0067 0.0713645 9.90289e-19)
(21.9474 0.0708124 -9.94905e-19)
(21.8883 0.070394 9.99566e-19)
(21.8293 0.0700728 -1.00422e-18)
(21.7705 0.0698151 1.00891e-18)
(21.7119 0.0695915 -1.01359e-18)
(21.6534 0.0693722 8.95522e-24)
(21.5952 0.0691266 1.02297e-18)
(21.5371 0.0688177 0)
(21.4793 0.068402 0)
(21.4216 0.0678303 0)
(21.3643 0.0670532 0)
(21.3071 0.066029 0)
(21.2502 0.0647368 0)
(21.1934 0.0631852 0)
(21.1367 0.0614149 1.05604e-18)
(21.0799 0.0594902 -1.05923e-18)
(21.0232 0.057488 1.0623e-18)
(20.9666 0.0554851 -1.06531e-18)
(20.91 0.0535486 0)
(20.8538 0.0517301 1.07122e-18)
(20.7979 0.050063 -1.07418e-18)
(20.7426 0.0485633 0)
(20.6878 0.0472297 1.08014e-18)
(20.6337 0.046048 -1.08314e-18)
(20.5803 0.0449977 0)
(20.5277 0.0440505 0)
(20.476 0.0431722 0)
(20.4251 0.0423268 2.18983e-18)
(20.375 0.0414821 -4.39076e-18)
(20.3257 0.0406149 6.10763e-24)
(20.2771 0.0397142 2.2059e-18)
(20.2292 0.038781 0)
(20.182 0.0378264 0)
(20.1354 0.0368673 0)
(20.0894 0.0359227 -2.22522e-18)
(20.044 0.0350108 4.75414e-24)
(19.9993 0.0341462 2.23444e-18)
(19.9551 0.033339 -2.239e-18)
(19.9116 0.0325941 4.27667e-24)
(19.8687 0.0319111 4.15072e-24)
(19.8264 0.0312849 2.25257e-18)
(19.7848 0.0307064 0)
(19.7438 0.0301639 0)
(19.7034 0.0296456 -2.26572e-18)
(19.6636 0.0291407 3.64597e-24)
(19.6244 0.0286434 3.55194e-24)
(19.5858 0.0281457 2.27817e-18)
(19.5477 0.0276444 0)
(19.5102 0.0271488 0)
(19.4731 0.0266671 -2.29008e-18)
(19.4365 0.026203 2.29398e-18)
(19.4004 0.0257574 0)
(19.3648 0.0253299 2.30165e-18)
(19.3296 0.0249192 -3.00315e-24)
(19.295 0.0245235 -2.30917e-18)
(19.2607 0.0241402 0)
(19.2269 0.0237665 0)
(19.1936 0.023399 0)
(19.1607 0.0230345 2.32366e-18)
(19.1282 0.0226701 -2.77439e-24)
(19.0961 0.0223037 -2.74127e-24)
(19.0644 0.0219344 -2.33395e-18)
(19.0332 0.021562 0)
(19.0023 0.0211877 0)
(18.9718 0.0208131 2.34373e-18)
(18.9416 0.0204404 -4.69377e-18)
(18.9119 0.0200718 2.56891e-24)
(18.8825 0.0197092 2.35305e-18)
(18.8534 0.0193542 0)
(18.8248 0.0190075 0)
(18.7964 0.0186693 0)
(18.7685 0.0183395 0)
(18.7408 0.0180172 -2.36769e-18)
(18.7135 0.0177018 4.74096e-18)
(18.6866 0.0173927 -2.43385e-24)
(18.6599 0.0170894 -2.37593e-18)
(18.6336 0.0167915 -2.37859e-18)
(18.6077 0.0164993 2.40131e-24)
(18.582 0.0162128 2.38378e-18)
(18.5566 0.0159325 0)
(18.5316 0.0156585 0)
(18.5068 0.0153914 2.39126e-18)
(18.4823 0.0151313 -4.78735e-18)
(18.4581 0.0148785 2.34973e-24)
(18.4342 0.014633 2.3984e-18)
(18.4106 0.014395 0)
(18.3872 0.0141649 2.40297e-18)
(18.3641 0.0139433 -2.4052e-18)
(18.3412 0.0137314 0)
(18.3186 0.0135323 0)
(18.2962 0.0133523 0)
(18.274 0.0131943 0)
(18.2521 0.0130666 0)
(18.2302 0.0129782 -2.41827e-18)
(18.2086 0.01292 2.42055e-18)
(18.1873 0.0128793 0)
(18.1661 0.0128465 0)
(18.1452 0.0128147 -2.42733e-18)
(18.1244 0.012779 2.3141e-24)
(18.1039 0.0127365 2.43174e-18)
(18.0835 0.0126867 0)
(18.0632 0.0126297 2.43608e-18)
(18.0431 0.0125664 -2.43822e-18)
(18.0231 0.0124983 -2.44034e-18)
(18.0033 0.0124268 2.27529e-24)
(17.9836 0.0123533 2.26078e-24)
(17.9639 0.0122792 2.44662e-18)
(17.9444 0.0122057 0)
(17.9251 0.0121337 0)
(17.9058 0.0120643 -2.45276e-18)
(17.8866 0.0119982 2.1606e-24)
(17.8675 0.0119359 2.13473e-24)
(17.8485 0.0118781 2.45878e-18)
(17.8295 0.0118253 0)
(17.8107 0.011778 0)
(17.7919 0.0117367 -2.46466e-18)
(17.7732 0.0117019 2.4666e-18)
(17.7546 0.011674 0)
(17.736 0.0116535 -4.94088e-18)
(17.7175 0.011641 4.94469e-18)
(17.699 0.0116367 0)
(17.6805 0.0116413 0)
(17.6621 0.0116555 -4.95599e-18)
(17.6436 0.0116805 3.19732e-24)
(17.6252 0.0117169 4.96346e-18)
(17.6068 0.0117659 0)
(17.5883 0.0118281 0)
(17.5699 0.0119046 0)
(17.5513 0.0119961 4.97831e-18)
(17.5327 0.0121035 -2.19474e-24)
(17.5141 0.0122275 -9.97149e-18)
(17.4954 0.0123693 1.75758e-24)
(17.4765 0.0125295 1.51559e-24)
(17.4576 0.0127093 4.99696e-18)
(17.4385 0.0129099 0)
(17.4192 0.0131323 0)
(17.3998 0.013378 0)
(17.3802 0.0136484 0)
(17.3604 0.013945 -5.01609e-18)
(17.3403 0.0142695 1.004e-17)
(17.32 0.0146236 1.13969e-24)
(17.2993 0.0150094 1.58258e-24)
(17.2784 0.0154288 -1.00642e-17)
(17.2571 0.0158841 -2.56087e-24)
(17.2354 0.0163776 -3.10029e-24)
(17.2133 0.0169118 -3.6762e-24)
(17.1907 0.0174895 5.0492e-18)
(17.1676 0.0181133 -5.0537e-18)
(17.144 0.0187864 -5.64719e-24)
(17.1198 0.019512 -6.39432e-24)
(17.095 0.0202934 -7.19146e-24)
(17.0695 0.0211344 1.01457e-17)
(17.0432 0.0220383 -5.07799e-18)
(17.0162 0.0230095 0)
(16.9883 0.0240529 0)
(16.9595 0.0251742 0)
(16.9297 0.0263785 0)
(16.8988 0.0276717 0)
(16.8668 0.0290598 0)
(16.8335 0.0305488 0)
(16.799 0.0321454 -5.12649e-18)
(16.763 0.0338566 -2.0326e-23)
(16.7255 0.0356896 -2.20412e-23)
(16.6863 0.0376525 1.02987e-17)
(16.6454 0.0397538 2.5817e-23)
(16.6026 0.0420026 -5.16651e-18)
(16.5578 0.044409 0)
(16.5108 0.0469836 0)
(16.4614 0.0497377 0)
(16.4096 0.0526837 0)
(16.3551 0.0558347 0)
(16.2977 0.0592048 0)
(16.2372 0.062809 -5.2435e-18)
(16.1734 0.0666634 5.25721e-18)
(16.106 0.0707852 0)
(16.0348 0.0751928 0)
(15.9595 0.0799059 0)
(15.8798 0.0849452 0)
(15.7954 0.090333 5.34076e-18)
(15.7059 0.096093 7.59795e-23)
(15.6108 0.10225 8.12766e-23)
(15.5099 0.10883 -5.40599e-18)
(15.4027 0.115862 0)
(15.2886 0.123374 0)
(15.1672 0.131397 0)
(15.0379 0.139962 0)
(14.9001 0.149102 0)
(14.753 0.158851 -5.589e-18)
(14.5961 0.169241 -1.37013e-22)
(14.4284 0.180306 -1.45906e-22)
(14.2492 0.192077 1.14381e-17)
(14.0576 0.204585 1.65123e-22)
(13.8524 0.217855 1.75459e-22)
(13.6327 0.231911 -5.88812e-18)
(13.3973 0.246767 0)
(13.145 0.262462 0)
(12.8742 0.278918 0)
(12.5839 0.296133 0)
(12.2724 0.314124 0)
(11.9384 0.33269 0)
(11.5799 0.351601 0)
(11.1953 0.370614 0)
(10.7829 0.389412 0)
(10.3415 0.407579 -7.0607e-18)
(9.86962 0.424606 -3.23325e-22)
(9.36667 0.439901 1.50548e-17)
(8.83235 0.452792 3.45979e-22)
(8.26713 0.462542 3.56152e-22)
(7.67237 0.468368 -8.54744e-18)
(7.0505 0.46948 0)
(6.40519 0.465155 0)
(5.74134 0.454759 0)
(5.06547 0.43814 0)
(4.38478 0.414832 0)
(3.70633 0.389221 0)
(3.03565 0.365729 0)
(2.37632 0.343285 -1.6669e-17)
(1.7356 0.323412 3.87207e-17)
(1.12491 0.302024 4.564e-22)
(0.558116 0.275275 -2.99723e-17)
(0.0596156 0.234318 3.9225e-17)
(-0.340767 0.160747 7.40239e-22)
(-0.705552 0.0824255 -3.8152e-17)
(-1.04802 0.0329636 0)
(-1.34816 0.0146578 0)
(-1.61561 0.0191881 3.23321e-17)
(-1.85416 0.0401245 -6.45475e-17)
(-2.06246 0.0598674 -1.95591e-22)
(4.91434 -6.22165 0)
(6.66761 -5.22932 -4.03563e-22)
(8.57044 -3.81612 7.22216e-22)
(10.5256 -2.65934 0)
(12.2235 -1.8947 0)
(13.5925 -1.40757 0)
(14.6893 -1.08843 0)
(15.5818 -0.870217 0)
(16.3225 -0.715182 -1.45905e-20)
(16.9489 -0.601348 1.67308e-20)
(17.4878 -0.515361 0)
(17.9588 -0.448814 0)
(18.3761 -0.396199 -4.61638e-20)
(18.7501 -0.35376 1.00706e-19)
(19.0887 -0.318862 -5.45047e-20)
(19.398 -0.289621 5.85934e-20)
(19.6826 -0.264661 -1.48859e-23)
(19.9459 -0.242971 -1.3337e-19)
(20.1909 -0.223796 7.06711e-20)
(20.4197 -0.206572 7.45922e-20)
(20.6341 -0.190863 -7.84965e-20)
(20.8354 -0.17635 8.23269e-20)
(21.0249 -0.16279 -1.72263e-19)
(21.2034 -0.150007 8.98872e-20)
(21.3718 -0.137857 0)
(21.5307 -0.126234 0)
(21.6806 -0.115051 0)
(21.822 -0.104249 -2.08714e-19)
(21.9555 -0.0937645 2.15701e-19)
(22.0815 -0.0835216 0)
(22.2008 -0.0734533 0)
(22.3137 -0.063566 2.35824e-19)
(22.4203 -0.0539113 -2.42312e-19)
(22.5207 -0.044534 0)
(22.6152 -0.035454 0)
(22.704 -0.0266744 -2.6092e-19)
(22.7871 -0.0181919 2.66829e-19)
(22.8649 -0.0100166 0)
(22.9375 -0.00215147 -2.78175e-19)
(23.0051 0.00541188 5.67341e-19)
(23.0679 0.012682 -2.89039e-19)
(23.126 0.0196516 0)
(23.1797 0.0263154 2.99222e-19)
(23.2291 0.0326703 -1.59197e-23)
(23.2745 0.0387197 -6.17829e-19)
(23.316 0.0444637 3.1359e-19)
(23.3537 0.049908 -3.18133e-19)
(23.3879 0.0550706 3.22602e-19)
(23.4186 0.0599748 0)
(23.446 0.0646695 6.6242e-19)
(23.4704 0.0692036 -6.70805e-19)
(23.4918 0.0735534 -6.78968e-19)
(23.5104 0.0776563 6.87006e-19)
(23.5264 0.0814649 0)
(23.5399 0.0849653 0)
(23.5511 0.0881555 0)
(23.5601 0.0910246 0)
(23.5671 0.0935358 -7.24623e-19)
(23.5721 0.0956316 7.31693e-19)
(23.575 0.0972565 0)
(23.5756 0.0983941 0)
(23.5737 0.0990782 0)
(23.569 0.0993767 0)
(23.5612 0.0993664 0)
(23.5504 0.0991227 0)
(23.5366 0.0987184 0)
(23.5201 0.0982245 -7.80629e-19)
(23.5011 0.0977042 7.86206e-19)
(23.48 0.0972079 0)
(23.4571 0.0967679 -7.97141e-19)
(23.4326 0.0964013 8.02535e-19)
(23.4069 0.0961117 -8.07852e-19)
(23.3801 0.0958937 8.1313e-19)
(23.3525 0.0957351 -8.18332e-19)
(23.3241 0.0956203 8.36467e-24)
(23.295 0.0955311 8.01117e-24)
(23.2655 0.0954482 7.67702e-24)
(23.2355 0.0953501 7.36079e-24)
(23.2051 0.0952131 8.43445e-19)
(23.1744 0.0950085 -8.48228e-19)
(23.1433 0.0947041 6.5004e-24)
(23.1119 0.0942667 8.57388e-19)
(23.0802 0.093663 -8.61607e-19)
(23.0479 0.0928627 8.65512e-19)
(23.0149 0.0918473 -8.6906e-19)
(22.9813 0.0906187 8.72309e-19)
(22.9468 0.0892024 -8.75303e-19)
(22.9115 0.0876416 4.71098e-24)
(22.8752 0.0859882 8.8086e-19)
(22.8382 0.0842943 -8.8352e-19)
(22.8004 0.082606 8.86164e-19)
(22.7619 0.0809606 -8.88799e-19)
(22.723 0.0793842 8.9145e-19)
(22.6837 0.077892 0)
(22.6441 0.0764862 0)
(22.6044 0.075159 0)
(22.5647 0.0738976 0)
(22.5251 0.0726834 0)
(22.4857 0.0714945 -1.81402e-18)
(22.4466 0.0703117 3.6371e-18)
(22.4077 0.0691213 -1.82279e-18)
(22.3691 0.0679173 0)
(22.3307 0.0667007 0)
(22.2925 0.0654784 -1.83411e-18)
(22.2545 0.0642611 4.45312e-24)
(22.2167 0.0630609 1.84105e-18)
(22.179 0.0618898 0)
(22.1414 0.0607584 0)
(22.104 0.0596746 -1.85129e-18)
(22.0668 0.058643 3.67532e-24)
(22.0298 0.0576651 3.55744e-24)
(21.993 0.0567388 1.86161e-18)
(21.9566 0.055859 0)
(21.9204 0.0550181 0)
(21.8846 0.0542072 -1.87161e-18)
(21.8491 0.0534177 1.87479e-18)
(21.814 0.0526431 0)
(21.7792 0.0518809 0)
(21.7448 0.05113 0)
(21.7107 0.0503917 0)
(21.6769 0.0496704 0)
(21.6434 0.0489664 1.89256e-18)
(21.6102 0.0482799 -1.89545e-18)
(21.5773 0.047612 0)
(21.5447 0.046963 0)
(21.5124 0.0463326 0)
(21.4805 0.0457194 0)
(21.4488 0.0451211 0)
(21.4175 0.0445347 1.91214e-18)
(21.3865 0.0439572 -2.34454e-24)
(21.3558 0.0433853 -1.91738e-18)
(21.3254 0.0428168 0)
(21.2953 0.04225 -1.92239e-18)
(21.2655 0.0416843 3.84964e-18)
(21.236 0.0411199 -1.9272e-18)
(21.2067 0.040558 1.92953e-18)
(21.1778 0.0400001 -1.93183e-18)
(21.1491 0.0394481 0)
(21.1207 0.0389038 0)
(21.0926 0.0383685 1.9385e-18)
(21.0647 0.0378431 -2.08124e-24)
(21.0371 0.037328 -1.94278e-18)
(21.0097 0.0368232 0)
(20.9826 0.0363281 -1.94692e-18)
(20.9557 0.0358421 2.02502e-24)
(20.9291 0.0353646 1.95092e-18)
(20.9027 0.0348953 0)
(20.8766 0.0344338 1.95478e-18)
(20.8507 0.0339803 -1.98424e-24)
(20.825 0.0335349 -3.91699e-18)
(20.7996 0.033098 1.96778e-24)
(20.7745 0.03267 1.96209e-18)
(20.7495 0.032251 0)
(20.7248 0.0318414 0)
(20.7003 0.0314414 -1.96726e-18)
(20.676 0.031051 1.9329e-24)
(20.652 0.0306704 1.97057e-18)
(20.6281 0.0302995 0)
(20.6045 0.0299388 1.97377e-18)
(20.581 0.0295888 -1.90665e-24)
(20.5578 0.0292511 -1.97687e-18)
(20.5347 0.0289271 -1.97837e-18)
(20.5119 0.0286291 1.97986e-18)
(20.4892 0.0283469 0)
(20.4667 0.0280849 1.98296e-18)
(20.4445 0.0278672 -1.88391e-24)
(20.4225 0.0276822 -1.98636e-18)
(20.4007 0.0275163 0)
(20.3792 0.0273614 0)
(20.3579 0.0272123 1.9913e-18)
(20.3368 0.0270657 -1.99291e-18)
(20.3159 0.0269197 0)
(20.2951 0.0267734 -1.99608e-18)
(20.2746 0.0266263 1.89158e-24)
(20.2542 0.0264786 1.99919e-18)
(20.234 0.0263308 2.00073e-18)
(20.2139 0.0261834 -1.8671e-24)
(20.1939 0.0260374 -4.00752e-18)
(20.1741 0.0258936 2.00526e-18)
(20.1544 0.0257527 -2.00675e-18)
(20.1348 0.0256156 1.81154e-24)
(20.1153 0.025483 2.00969e-18)
(20.0959 0.0253555 0)
(20.0767 0.0252339 0)
(20.0575 0.0251185 -2.014e-18)
(20.0383 0.0250102 2.01542e-18)
(20.0193 0.0249093 0)
(20.0003 0.0248165 2.01821e-18)
(19.9815 0.0247323 -4.03919e-18)
(19.9626 0.0246573 2.02096e-18)
(19.9438 0.0245921 0)
(19.9251 0.0245374 0)
(19.9064 0.0244933 0)
(19.8877 0.0244606 0)
(19.869 0.0244405 0)
(19.8504 0.0244341 0)
(19.8317 0.0244423 0)
(19.8131 0.0244664 -4.06316e-18)
(19.7944 0.0245071 2.27745e-24)
(19.7757 0.0245655 2.13882e-24)
(19.7569 0.0246427 1.99031e-24)
(19.7381 0.0247395 4.07353e-18)
(19.7193 0.0248571 0)
(19.7003 0.0249964 0)
(19.6812 0.0251587 0)
(19.6621 0.0253453 4.08386e-18)
(19.6428 0.0255576 -8.51774e-25)
(19.6234 0.025797 -6.12934e-25)
(19.6038 0.0260652 -8.18329e-18)
(19.584 0.0263639 8.44524e-26)
(19.564 0.0266951 4.09689e-18)
(19.5438 0.0270607 0)
(19.5233 0.0274628 0)
(19.5026 0.0279039 0)
(19.4815 0.0283864 0)
(19.4602 0.0289129 0)
(19.4384 0.0294863 0)
(19.4163 0.0301096 4.11599e-18)
(19.3938 0.0307861 -4.11886e-18)
(19.3708 0.0315192 4.12179e-18)
(19.3472 0.0323127 -8.24953e-18)
(19.3232 0.0331704 -5.06751e-24)
(19.2986 0.0340966 -5.70591e-24)
(19.2733 0.0350958 4.13408e-18)
(19.2473 0.0361721 0)
(19.2207 0.0373309 0)
(19.1932 0.0385785 0)
(19.1649 0.0399219 0)
(19.1356 0.0413675 -4.15136e-18)
(19.1054 0.0429222 8.31032e-18)
(19.0741 0.0445932 1.25735e-23)
(19.0417 0.0463885 -4.16319e-18)
(19.008 0.048316 0)
(18.9731 0.0503849 0)
(18.9367 0.0526046 0)
(18.8989 0.0549853 -4.18129e-18)
(18.8594 0.0575383 -2.05481e-23)
(18.8182 0.0602754 -2.2194e-23)
(18.7752 0.0632096 4.19701e-18)
(18.7302 0.0663549 0)
(18.683 0.0697265 0)
(18.6336 0.0733408 0)
(18.5818 0.0772153 0)
(18.5273 0.0813692 0)
(18.4701 0.085823 4.23631e-18)
(18.4098 0.0905992 -4.2441e-18)
(18.3463 0.0957218 0)
(18.2794 0.101217 0)
(18.2088 0.107113 -4.27048e-18)
(18.1342 0.113441 -5.23497e-23)
(18.0554 0.120234 4.29072e-18)
(17.9721 0.127527 0)
(17.8839 0.13536 0)
(17.7904 0.143774 0)
(17.6914 0.152815 0)
(17.5863 0.162533 0)
(17.4748 0.172979 4.36941e-18)
(17.3564 0.184212 8.82072e-23)
(17.2305 0.196293 9.3893e-23)
(17.0966 0.209289 -8.84424e-18)
(16.9542 0.22327 -1.06155e-22)
(16.8025 0.238311 4.46397e-18)
(16.6409 0.254494 0)
(16.4686 0.271902 0)
(16.2848 0.290625 0)
(16.0887 0.310754 4.56924e-18)
(15.8792 0.332382 1.49943e-22)
(15.6554 0.355625 -4.63549e-18)
(15.4161 0.38059 4.67318e-18)
(15.1603 0.407335 -4.71425e-18)
(14.8867 0.435877 0)
(14.594 0.466217 -4.80933e-18)
(14.2806 0.498301 -1.99559e-22)
(13.945 0.531992 -2.07397e-22)
(13.5854 0.567064 4.99203e-18)
(13.1998 0.603185 0)
(12.7863 0.639891 0)
(12.343 0.676567 0)
(11.8681 0.712426 5.35632e-18)
(11.3599 0.746502 -5.4802e-18)
(10.8169 0.777657 5.62318e-18)
(10.2386 0.804619 2.43491e-22)
(9.62472 0.826066 -5.98003e-18)
(8.97646 0.840673 0)
(8.29625 0.847375 0)
(7.58831 0.844821 0)
(6.85831 0.830808 -7.14724e-18)
(6.11277 0.806245 -2.26307e-22)
(5.3604 0.775651 -2.20168e-22)
(4.61367 0.742125 1.74661e-17)
(3.8869 0.701723 -9.50718e-18)
(3.19261 0.647126 0)
(2.52502 0.573058 0)
(1.88952 0.47998 0)
(1.28753 0.382135 0)
(0.723385 0.298419 -1.67149e-17)
(0.210343 0.237719 -2.72519e-22)
(-0.246722 0.198929 2.13239e-17)
(-0.65166 0.181562 0)
(-1.00964 0.187077 -2.15319e-17)
(6.32214 -6.70184 0)
(7.29854 -6.00308 0)
(8.50051 -4.77456 0)
(10.02 -3.61537 0)
(11.5025 -2.73518 0)
(12.7998 -2.11002 0)
(13.8997 -1.6696 -6.61255e-21)
(14.8284 -1.35467 7.96621e-21)
(15.6178 -1.12449 0)
(16.2962 -0.952313 1.07574e-20)
(16.8863 -0.820653 -1.21907e-20)
(17.4058 -0.717905 0)
(17.8684 -0.636191 0)
(18.2845 -0.570024 0)
(18.6623 -0.515501 0)
(19.0078 -0.469794 0)
(19.3261 -0.430823 4.19033e-20)
(19.621 -0.397045 -4.48742e-20)
(19.8954 -0.3673 0)
(20.152 -0.340711 0)
(20.3925 -0.316608 5.3793e-20)
(20.6187 -0.294486 -1.13569e-19)
(20.8318 -0.273959 9.2229e-24)
(21.0328 -0.254736 6.27673e-20)
(21.2227 -0.23659 0)
(21.4023 -0.21935 -1.37458e-19)
(21.5721 -0.20288 1.43427e-19)
(21.7328 -0.187088 0)
(21.8848 -0.171894 0)
(22.0288 -0.157212 0)
(22.1651 -0.142967 -1.66956e-19)
(22.2942 -0.129134 3.45513e-19)
(22.4164 -0.115724 -1.61965e-23)
(22.5321 -0.102756 -1.84199e-19)
(22.6414 -0.0902379 0)
(22.7447 -0.0781744 0)
(22.8421 -0.0665617 0)
(22.9339 -0.0553977 2.06314e-19)
(23.0203 -0.0446758 -2.11679e-19)
(23.1016 -0.0343886 -2.16939e-19)
(23.1778 -0.024528 2.22148e-19)
(23.2494 -0.0150925 2.27216e-19)
(23.3164 -0.00607802 -2.32206e-19)
(23.379 0.00252102 0)
(23.4375 0.0107135 -2.41888e-19)
(23.4921 0.0185052 1.15641e-23)
(23.5428 0.0259057 2.51147e-19)
(23.59 0.0329292 0)
(23.6336 0.0395906 0)
(23.674 0.0459143 0)
(23.7113 0.0519225 0)
(23.7456 0.0576103 0)
(23.7771 0.0629701 -5.5359e-19)
(23.806 0.0680021 5.61611e-19)
(23.8324 0.0727081 0)
(23.8565 0.0770822 -5.7715e-19)
(23.8783 0.0811103 1.55361e-23)
(23.898 0.0847698 5.92129e-19)
(23.9157 0.0880408 0)
(23.9314 0.0909179 0)
(23.9452 0.0934138 0)
(23.957 0.0955393 6.20341e-19)
(23.9668 0.0973006 -1.21394e-23)
(23.9745 0.0987152 -6.33646e-19)
(23.9801 0.0998273 0)
(23.9836 0.100701 6.46436e-19)
(23.985 0.101405 -6.52671e-19)
(23.9845 0.101998 0)
(23.9821 0.102527 6.64769e-19)
(23.978 0.103019 -8.79994e-24)
(23.9725 0.103491 -6.76459e-19)
(23.9655 0.103947 0)
(23.9574 0.104388 6.87759e-19)
(23.9481 0.104808 -6.93283e-19)
(23.9378 0.105198 -6.98699e-19)
(23.9267 0.105549 6.78446e-24)
(23.9148 0.105849 7.09276e-19)
(23.9021 0.106086 0)
(23.8889 0.106246 0)
(23.875 0.106308 0)
(23.8606 0.106254 7.2934e-19)
(23.8456 0.106067 -7.34138e-19)
(23.8301 0.105733 0)
(23.8139 0.105248 7.43324e-19)
(23.7971 0.104612 -7.47693e-19)
(23.7796 0.103832 0)
(23.7613 0.10292 -7.5598e-19)
(23.7422 0.101893 1.51989e-18)
(23.7222 0.100775 -7.63816e-19)
(23.7015 0.0995938 -7.67601e-19)
(23.6801 0.0983774 7.71325e-19)
(23.6579 0.097152 0)
(23.635 0.0959387 0)
(23.6116 0.0947525 0)
(23.5877 0.0935994 0)
(23.5633 0.0924783 0)
(23.5385 0.0913831 1.58463e-18)
(23.5133 0.0903025 -1.59085e-18)
(23.4878 0.0892231 -1.59662e-18)
(23.462 0.0881329 1.60195e-18)
(23.4359 0.0870241 0)
(23.4095 0.0858943 0)
(23.3828 0.0847464 -1.61582e-18)
(23.3559 0.0835868 1.62002e-18)
(23.3287 0.082424 0)
(23.3012 0.0812671 0)
(23.2736 0.0801246 0)
(23.2459 0.0790035 0)
(23.218 0.0779089 -1.64008e-18)
(23.19 0.0768433 3.26354e-24)
(23.162 0.0758069 1.64784e-18)
(23.1339 0.0747979 1.65158e-18)
(23.1059 0.0738134 -2.97253e-24)
(23.078 0.0728498 -3.3172e-18)
(23.0501 0.0719041 1.66186e-18)
(23.0224 0.0709739 -1.66494e-18)
(22.9947 0.0700577 1.66787e-18)
(22.9672 0.0691603 -1.67068e-18)
(22.9397 0.0682739 1.6734e-18)
(22.9124 0.0674005 0)
(22.8852 0.0665535 1.67905e-18)
(22.8581 0.065728 -1.68183e-18)
(22.8311 0.0649201 1.68456e-18)
(22.8042 0.0641288 -1.68727e-18)
(22.7775 0.0633539 0)
(22.7509 0.0625948 1.69256e-18)
(22.7244 0.06185 -1.69514e-18)
(22.6981 0.0611174 0)
(22.6719 0.0603945 -1.70009e-18)
(22.646 0.0596789 1.70247e-18)
(22.6201 0.0589688 0)
(22.5945 0.0582629 1.707e-18)