/*--------------------------------*- C++ -*----------------------------------*\
  =========                 |
  \\      /  F ield         | OpenFOAM: The Open Source CFD Toolbox
   \\    /   O peration     | Website:  https://openfoam.org
    \\  /    A nd           | Version:  8
     \\/     M anipulation  |
\*---------------------------------------------------------------------------*/
FoamFile
{
    version     2.0;
    format      ascii;
    class       volScalarField;
    location    "0.2";
    object      p;
}
// * * * * * * * * * * * * * * * * * * * * * * * * * * * * * * * * * * * * * //

dimensions      [0 2 -2 0 0 0 0];

internalField   nonuniform List<scalar> 
112488
(
1.46599
1.45315
1.44255
1.4324
1.42251
1.41261
1.40256
1.39236
1.38204
1.3716
1.36102
1.35031
1.33948
1.32852
1.31745
1.30627
1.29497
1.28358
1.27209
1.26051
1.24883
1.23707
1.22523
1.21331
1.20132
1.18926
1.17713
1.16494
1.15269
1.14038
1.12802
1.1156
1.10313
1.09062
1.07806
1.06546
1.05282
1.04014
1.02743
1.01467
1.00189
0.989078
0.976231
0.963355
0.950452
0.937523
0.924571
0.911595
0.898592
0.885569
0.872525
0.859462
0.846377
0.833276
0.820157
0.807021
0.793866
0.780699
0.767513
0.754314
0.741103
0.727874
0.714631
0.701376
0.688108
0.674828
0.661533
0.648229
0.634913
0.621583
0.608244
0.594891
0.581527
0.568151
0.554764
0.541366
0.527954
0.514536
0.501104
0.487661
0.474204
0.460738
0.44726
0.433773
0.42027
0.406753
0.393232
0.379692
0.366142
0.352578
0.339001
0.325415
0.311813
0.298197
0.284567
0.270927
0.25727
0.243598
0.229913
0.216212
0.202496
0.188766
0.175019
0.161256
0.147478
0.133686
0.119874
0.106045
0.0922
0.0783402
0.0644587
0.0505599
0.0366436
0.022707
0.00875767
-0.00521824
-0.0192113
-0.0332199
-0.0472507
-0.0613015
-0.0753749
-0.0894653
-0.103578
-0.117708
-0.131865
-0.14604
-0.160237
-0.174456
-0.188696
-0.202958
-0.217241
-0.231547
-0.245874
-0.260223
-0.274597
-0.288992
-0.303408
-0.317848
-0.332311
-0.346796
-0.361299
-0.375828
-0.390379
-0.404949
-0.419543
-0.434157
-0.448793
-0.463447
-0.478126
-0.492821
-0.507538
-0.522274
-0.537029
-0.551799
-0.566585
-0.581391
-0.596212
-0.61105
-0.625902
-0.640764
-0.655637
-0.670524
-0.68542
-0.70033
-0.715242
-0.730161
-0.745087
-0.76001
-0.774939
-0.789864
-0.804785
-0.819705
-0.834617
-0.849524
-0.864415
-0.879287
-0.89415
-0.908988
-0.923806
-0.938595
-0.953361
-0.968091
-0.982784
-0.997438
-1.01206
-1.02662
-1.04114
-1.0556
-1.07001
-1.08437
-1.09867
-1.1129
-1.12709
-1.14124
-1.15535
-1.1694
-1.18358
-1.19833
-1.21395
-1.2329
1.47274
1.46027
1.44922
1.43855
1.42844
1.41856
1.4086
1.39852
1.38829
1.37793
1.36743
1.35681
1.34606
1.33517
1.32417
1.31305
1.30182
1.29048
1.27903
1.26749
1.25585
1.24412
1.23231
1.22042
1.20845
1.1964
1.18428
1.17209
1.15984
1.14753
1.13515
1.12272
1.11024
1.09771
1.08512
1.07249
1.05982
1.0471
1.03435
1.02155
1.00872
0.995854
0.982953
0.970019
0.957054
0.944062
0.931042
0.917995
0.904921
0.891821
0.878698
0.865554
0.852387
0.839199
0.825989
0.812761
0.799514
0.78625
0.772966
0.759666
0.746349
0.733017
0.719667
0.706303
0.692925
0.679529
0.666123
0.652702
0.639267
0.625817
0.612356
0.598879
0.585391
0.571889
0.558376
0.544847
0.531307
0.517756
0.504192
0.490613
0.477023
0.46342
0.449805
0.436177
0.422536
0.40888
0.395215
0.381534
0.36784
0.354133
0.340413
0.32668
0.312932
0.299169
0.285393
0.271603
0.257798
0.24398
0.230142
0.216295
0.202426
0.188548
0.174649
0.160737
0.146808
0.132863
0.118901
0.104921
0.0909248
0.0769113
0.0628799
0.0488304
0.0347627
0.0206762
0.00657383
-0.00755085
-0.0216929
-0.0358536
-0.0500332
-0.0642336
-0.0784534
-0.0926937
-0.106953
-0.121232
-0.135532
-0.149854
-0.164195
-0.178557
-0.19294
-0.207344
-0.221768
-0.236215
-0.250682
-0.265169
-0.279677
-0.294209
-0.30876
-0.323332
-0.337926
-0.352539
-0.367174
-0.381828
-0.396504
-0.411199
-0.425913
-0.440647
-0.455402
-0.470173
-0.484963
-0.49977
-0.514597
-0.52944
-0.544298
-0.559171
-0.574058
-0.588959
-0.603877
-0.618806
-0.633745
-0.648691
-0.66365
-0.678616
-0.69359
-0.70857
-0.723553
-0.738538
-0.753525
-0.768506
-0.78349
-0.798465
-0.813438
-0.828396
-0.843346
-0.858287
-0.873206
-0.888107
-0.902987
-0.917841
-0.932668
-0.947469
-0.962229
-0.976957
-0.991643
-1.00628
-1.02088
-1.03542
-1.04991
-1.06434
-1.07872
-1.09303
-1.10728
-1.12148
-1.13563
-1.14972
-1.16377
-1.17789
-1.1925
-1.20811
-1.22451
-1.24313
1.47651
1.46674
1.4559
1.44491
1.43447
1.42448
1.4146
1.40462
1.39448
1.38422
1.37381
1.36327
1.3526
1.34179
1.33086
1.31981
1.30864
1.29736
1.28597
1.27447
1.26288
1.25119
1.23941
1.22754
1.21559
1.20356
1.19145
1.17927
1.16702
1.15471
1.14233
1.12989
1.1174
1.10485
1.09224
1.07958
1.06688
1.05413
1.04133
1.0285
1.01562
1.00271
0.989755
0.976765
0.963743
0.950686
0.937601
0.924484
0.911341
0.898166
0.884967
0.87174
0.858491
0.845216
0.831919
0.818602
0.80526
0.791899
0.778518
0.765116
0.751698
0.738258
0.724803
0.711329
0.697837
0.684331
0.670807
0.657267
0.643714
0.630142
0.616557
0.602959
0.589343
0.575713
0.562069
0.548412
0.534739
0.521053
0.507354
0.49364
0.479912
0.466168
0.452415
0.438645
0.424862
0.411062
0.397253
0.383428
0.369587
0.355735
0.341864
0.327984
0.314085
0.300174
0.286248
0.272307
0.258349
0.244378
0.230389
0.216388
0.202367
0.188334
0.174282
0.160215
0.146131
0.132032
0.117915
0.103781
0.0896286
0.0754622
0.0612733
0.0470715
0.0328478
0.0186083
0.00435218
-0.00992757
-0.0242218
-0.0385367
-0.052867
-0.0672207
-0.0815922
-0.0959828
-0.110392
-0.124821
-0.139271
-0.153739
-0.168227
-0.182737
-0.197266
-0.211812
-0.22638
-0.240969
-0.255576
-0.270204
-0.284852
-0.299519
-0.314207
-0.328914
-0.343639
-0.358385
-0.373148
-0.387931
-0.402731
-0.417551
-0.432388
-0.447241
-0.462112
-0.477001
-0.491903
-0.506825
-0.521758
-0.536708
-0.551668
-0.566643
-0.581629
-0.596629
-0.611638
-0.626658
-0.641681
-0.656713
-0.671751
-0.686797
-0.701845
-0.716894
-0.731944
-0.746991
-0.762038
-0.777077
-0.792109
-0.807132
-0.822147
-0.837147
-0.852131
-0.867101
-0.882047
-0.896965
-0.911863
-0.926727
-0.941565
-0.956362
-0.971125
-0.985839
-1.00051
-1.01513
-1.02971
-1.04422
-1.05867
-1.07307
-1.0874
-1.10167
-1.11588
-1.13003
-1.14413
-1.15816
-1.1722
-1.18657
-1.20178
-1.21797
-1.23419
-1.24906
1.47904
1.47207
1.46235
1.45146
1.44071
1.4305
1.42059
1.41068
1.40065
1.39048
1.38017
1.36971
1.35912
1.3484
1.33755
1.32657
1.31547
1.30424
1.29291
1.28147
1.26992
1.25827
1.24653
1.23469
1.22277
1.21076
1.19867
1.1865
1.17426
1.16195
1.14957
1.13712
1.12462
1.11205
1.09942
1.08675
1.07402
1.06123
1.04841
1.03553
1.02261
1.00965
0.996645
0.983605
0.970523
0.957407
0.944257
0.931077
0.917861
0.904614
0.891337
0.878033
0.864698
0.85134
0.837958
0.824547
0.811112
0.797656
0.784175
0.770674
0.757151
0.743606
0.730043
0.716459
0.702854
0.689234
0.675592
0.661935
0.648258
0.634567
0.620857
0.60713
0.593388
0.579628
0.565851
0.552063
0.538255
0.524432
0.510596
0.496741
0.482874
0.468989
0.455093
0.441178
0.42725
0.413305
0.399348
0.385373
0.371385
0.35738
0.34336
0.329327
0.315277
0.301212
0.287131
0.273035
0.258923
0.244795
0.230651
0.216492
0.202315
0.188123
0.173914
0.15969
0.145447
0.131189
0.116913
0.102621
0.0883108
0.0739853
0.0596397
0.0452768
0.0308975
0.0164992
0.00208453
-0.0123503
-0.0268016
-0.041274
-0.0557607
-0.0702692
-0.0847937
-0.0993405
-0.113902
-0.128485
-0.143087
-0.157704
-0.172344
-0.187003
-0.201678
-0.216373
-0.231087
-0.245818
-0.26057
-0.275338
-0.290128
-0.304933
-0.31976
-0.334601
-0.349461
-0.364339
-0.379233
-0.394144
-0.409073
-0.424015
-0.438976
-0.453952
-0.468938
-0.483941
-0.498961
-0.513992
-0.529035
-0.54409
-0.559157
-0.574229
-0.589313
-0.604407
-0.61951
-0.634615
-0.649727
-0.664841
-0.679959
-0.69508
-0.710199
-0.725315
-0.740432
-0.755537
-0.770638
-0.785734
-0.800816
-0.815882
-0.830937
-0.845974
-0.86099
-0.875986
-0.890954
-0.905891
-0.920798
-0.935671
-0.950509
-0.965309
-0.980058
-0.994763
-1.00942
-1.02402
-1.03856
-1.05304
-1.06746
-1.08181
-1.0961
-1.11033
-1.12449
-1.13859
-1.15264
-1.16665
-1.18084
-1.19564
-1.2114
-1.22758
-1.24232
-1.25325
1.48264
1.47661
1.4682
1.45793
1.44714
1.43666
1.42661
1.41673
1.40679
1.39672
1.3865
1.37613
1.36563
1.355
1.34422
1.33332
1.32229
1.31114
1.29986
1.28848
1.27698
1.26538
1.25368
1.24188
1.22999
1.218
1.20593
1.19378
1.18155
1.16925
1.15687
1.14442
1.1319
1.11933
1.10669
1.09399
1.08124
1.06842
1.05556
1.04265
1.02969
1.01668
1.00363
0.990543
0.977407
0.964232
0.95102
0.937771
0.924487
0.911171
0.897817
0.884435
0.87102
0.857575
0.844104
0.830604
0.817076
0.803523
0.789944
0.77634
0.762714
0.749065
0.735391
0.721695
0.707978
0.694242
0.680483
0.666703
0.652906
0.63909
0.625253
0.611398
0.597526
0.583633
0.569725
0.555798
0.541855
0.527894
0.513915
0.499922
0.485911
0.471882
0.457838
0.443777
0.429702
0.415607
0.401499
0.387373
0.373232
0.359074
0.3449
0.330711
0.316505
0.302282
0.288044
0.273789
0.259519
0.245231
0.230927
0.216607
0.202269
0.187917
0.173546
0.159159
0.144756
0.130334
0.115898
0.101442
0.0869699
0.0724811
0.0579741
0.0434493
0.0289086
0.0143485
-0.00022725
-0.0148237
-0.0294349
-0.0440651
-0.0587124
-0.0733807
-0.0880636
-0.102765
-0.117485
-0.132224
-0.146978
-0.161752
-0.176543
-0.191354
-0.206179
-0.221025
-0.235887
-0.250766
-0.265661
-0.280576
-0.295508
-0.310454
-0.325418
-0.340399
-0.355396
-0.370406
-0.385431
-0.400473
-0.415529
-0.430599
-0.445683
-0.460779
-0.475886
-0.491008
-0.506141
-0.521281
-0.536435
-0.551593
-0.566762
-0.581938
-0.597119
-0.612308
-0.627501
-0.642691
-0.657889
-0.673087
-0.68828
-0.703473
-0.718663
-0.733848
-0.749024
-0.764189
-0.779344
-0.794487
-0.809617
-0.824725
-0.839817
-0.854886
-0.869929
-0.884947
-0.899932
-0.914888
-0.929803
-0.944679
-0.959514
-0.974303
-0.989042
-1.00373
-1.01836
-1.03294
-1.04745
-1.06189
-1.07627
-1.09058
-1.10482
-1.119
-1.13312
-1.14717
-1.16117
-1.17526
-1.18975
-1.20504
-1.22099
-1.2364
-1.24936
-1.25906
1.48706
1.48084
1.47337
1.46405
1.45359
1.44298
1.43274
1.42279
1.4129
1.40292
1.3928
1.38253
1.37212
1.36158
1.35089
1.34007
1.32911
1.31803
1.30682
1.2955
1.28406
1.27251
1.26085
1.24909
1.23724
1.22528
1.21324
1.20111
1.18889
1.1766
1.16423
1.15178
1.13926
1.12668
1.11403
1.10131
1.08854
1.0757
1.06281
1.04986
1.03687
1.02382
1.01072
0.997578
0.984391
0.971158
0.957886
0.944572
0.93122
0.917833
0.904408
0.890947
0.87745
0.863922
0.850362
0.836773
0.823151
0.809501
0.795826
0.782119
0.768389
0.754631
0.740847
0.727041
0.713209
0.699355
0.685477
0.671577
0.657655
0.643714
0.629749
0.615762
0.601758
0.587735
0.573687
0.559625
0.54554
0.53144
0.517319
0.50318
0.489023
0.474848
0.460655
0.446445
0.432217
0.41797
0.403709
0.389427
0.375131
0.360815
0.346484
0.332134
0.31777
0.303385
0.288987
0.27457
0.260136
0.245687
0.231217
0.216734
0.202232
0.187714
0.173177
0.158626
0.144056
0.129469
0.114866
0.100244
0.0856069
0.0709502
0.0562784
0.0415875
0.0268815
0.0121553
-0.00258397
-0.0173449
-0.0321215
-0.0469144
-0.061725
-0.0765531
-0.0913988
-0.106261
-0.121141
-0.136036
-0.150952
-0.16588
-0.18083
-0.195792
-0.210772
-0.22577
-0.240784
-0.255811
-0.270856
-0.285916
-0.300992
-0.316082
-0.331187
-0.346306
-0.36144
-0.376587
-0.391746
-0.406921
-0.422103
-0.437301
-0.45251
-0.467727
-0.482955
-0.498194
-0.513442
-0.528695
-0.543955
-0.559219
-0.57449
-0.589767
-0.605044
-0.620327
-0.635608
-0.650887
-0.666168
-0.681444
-0.696713
-0.711978
-0.727235
-0.742485
-0.757721
-0.772943
-0.788148
-0.803339
-0.81851
-0.833659
-0.848785
-0.863881
-0.878946
-0.893983
-0.908983
-0.923947
-0.938868
-0.953742
-0.96857
-0.98335
-0.998077
-1.01274
-1.02734
-1.04189
-1.05636
-1.07076
-1.0851
-1.09936
-1.11356
-1.12769
-1.14175
-1.15575
-1.16979
-1.18407
-1.19895
-1.21455
-1.23015
-1.24431
-1.25604
-1.26614
1.49175
1.48504
1.47806
1.46968
1.45986
1.44937
1.43898
1.42891
1.41901
1.4091
1.39907
1.3889
1.37859
1.36813
1.35754
1.3468
1.33593
1.32492
1.31379
1.30253
1.29115
1.27965
1.26805
1.25634
1.24452
1.2326
1.22059
1.20848
1.19629
1.18401
1.17164
1.15921
1.14669
1.1341
1.12144
1.10871
1.09592
1.08306
1.07014
1.05716
1.04413
1.03104
1.0179
1.00471
0.991475
0.978189
0.964856
0.951481
0.938064
0.924604
0.911104
0.897567
0.883992
0.87038
0.856733
0.843055
0.82934
0.815596
0.801819
0.788012
0.774174
0.760311
0.746416
0.732499
0.718549
0.704577
0.69058
0.676557
0.66251
0.64844
0.634345
0.620229
0.606089
0.591929
0.577746
0.563543
0.549316
0.535072
0.520806
0.50652
0.492215
0.47789
0.463544
0.449181
0.434798
0.420396
0.405977
0.391537
0.377082
0.362606
0.348113
0.333601
0.319072
0.304526
0.289959
0.27538
0.260777
0.246161
0.231524
0.216873
0.202202
0.187515
0.172809
0.158089
0.143347
0.128593
0.113817
0.0990272
0.084219
0.0693926
0.0545512
0.0396908
0.0248155
0.0099207
-0.00498873
-0.0199164
-0.0348599
-0.0498203
-0.064799
-0.0797927
-0.0948015
-0.109829
-0.124872
-0.139929
-0.155005
-0.170095
-0.185202
-0.200322
-0.21546
-0.23061
-0.245777
-0.260957
-0.276152
-0.291362
-0.306583
-0.321818
-0.337069
-0.352327
-0.367601
-0.382882
-0.39818
-0.413485
-0.428801
-0.444124
-0.459459
-0.474797
-0.490147
-0.505503
-0.520863
-0.536227
-0.551598
-0.56697
-0.582343
-0.597716
-0.613092
-0.628465
-0.643835
-0.659199
-0.674562
-0.689914
-0.705261
-0.720594
-0.735917
-0.751228
-0.766521
-0.781796
-0.797051
-0.812285
-0.827496
-0.842676
-0.857833
-0.872955
-0.888042
-0.903093
-0.918103
-0.933071
-0.947993
-0.96286
-0.97768
-0.992443
-1.00715
-1.02178
-1.03636
-1.05086
-1.0653
-1.07966
-1.09394
-1.10816
-1.1223
-1.13638
-1.15039
-1.1644
-1.17854
-1.19311
-1.20832
-1.22387
-1.23868
-1.2516
-1.26275
-1.2737
1.49639
1.48933
1.48247
1.47483
1.4658
1.45569
1.4453
1.4351
1.42515
1.41526
1.40532
1.39525
1.38504
1.37467
1.36417
1.35352
1.34274
1.33181
1.32075
1.30956
1.29825
1.28681
1.27527
1.2636
1.25183
1.23995
1.22797
1.2159
1.20373
1.19147
1.17912
1.16669
1.15418
1.14159
1.12892
1.11618
1.10337
1.0905
1.07756
1.06455
1.05149
1.03836
1.02518
1.01195
0.998662
0.985323
0.971933
0.958497
0.945016
0.931487
0.917914
0.9043
0.890648
0.876954
0.863221
0.849453
0.835647
0.821806
0.807928
0.794021
0.780079
0.766106
0.752103
0.738068
0.724006
0.709914
0.695794
0.681647
0.667473
0.653274
0.639048
0.624798
0.610523
0.596224
0.581901
0.567555
0.553186
0.538794
0.524381
0.509945
0.495486
0.48101
0.466508
0.451989
0.43745
0.422888
0.408308
0.393707
0.379089
0.364447
0.349791
0.335112
0.320416
0.305701
0.290967
0.276215
0.261444
0.246656
0.231848
0.217024
0.20218
0.187321
0.172442
0.157546
0.142632
0.127702
0.112754
0.0977883
0.0828063
0.0678059
0.0527917
0.0377558
0.0227084
0.00764105
-0.00744119
-0.0225419
-0.0376559
-0.0527864
-0.0679356
-0.0830972
-0.0982768
-0.113471
-0.128681
-0.143905
-0.159143
-0.174396
-0.189665
-0.204946
-0.220242
-0.235551
-0.250873
-0.266208
-0.281556
-0.296915
-0.312287
-0.32767
-0.343062
-0.358467
-0.37388
-0.389302
-0.404734
-0.420171
-0.43562
-0.451074
-0.466533
-0.481995
-0.497465
-0.512938
-0.52841
-0.543887
-0.559368
-0.574846
-0.590319
-0.605792
-0.621262
-0.636727
-0.652182
-0.667634
-0.683073
-0.698502
-0.713918
-0.729321
-0.744708
-0.760076
-0.775423
-0.790748
-0.80605
-0.821326
-0.83657
-0.851785
-0.866965
-0.882108
-0.897211
-0.912273
-0.927287
-0.942259
-0.957173
-0.972035
-0.986834
-1.00158
-1.01625
-1.03086
-1.0454
-1.05987
-1.07426
-1.08857
-1.10281
-1.11697
-1.13106
-1.14509
-1.15908
-1.17315
-1.18748
-1.20233
-1.21767
-1.23279
-1.24659
-1.25858
-1.26968
-1.28127
1.50083
1.49364
1.48674
1.47957
1.47131
1.46181
1.45162
1.44137
1.43134
1.42144
1.41155
1.40157
1.39145
1.38119
1.37078
1.36023
1.34953
1.33869
1.32771
1.3166
1.30536
1.29399
1.2825
1.27089
1.25917
1.24733
1.2354
1.22335
1.21122
1.19898
1.18665
1.17423
1.16173
1.14914
1.13648
1.12373
1.11091
1.09802
1.08506
1.07203
1.05894
1.04578
1.03256
1.01929
1.00595
0.992562
0.979117
0.965624
0.952078
0.938483
0.92484
0.911154
0.897421
0.883648
0.869827
0.855969
0.842071
0.828134
0.81416
0.800151
0.786103
0.772021
0.757906
0.743758
0.729578
0.715367
0.701124
0.686852
0.672549
0.658219
0.643861
0.629474
0.615062
0.600621
0.586156
0.571665
0.55715
0.54261
0.528043
0.513457
0.498842
0.48421
0.469553
0.454872
0.440173
0.425447
0.410703
0.395938
0.381151
0.366344
0.351517
0.336668
0.321802
0.306913
0.292008
0.277081
0.262136
0.247173
0.232189
0.217188
0.202168
0.18713
0.172073
0.157
0.141909
0.126799
0.111674
0.0965283
0.081369
0.0661896
0.0509957
0.0357852
0.0205578
0.00531465
-0.00994404
-0.0252212
-0.04051
-0.0558169
-0.0711388
-0.0864721
-0.101826
-0.117189
-0.13257
-0.147963
-0.163369
-0.178789
-0.194221
-0.209668
-0.225125
-0.240595
-0.256076
-0.271567
-0.287071
-0.302584
-0.318107
-0.333638
-0.349178
-0.364726
-0.380282
-0.395845
-0.411415
-0.426986
-0.442566
-0.458149
-0.473735
-0.489321
-0.504916
-0.520503
-0.536094
-0.551679
-0.567266
-0.582848
-0.598426
-0.613993
-0.629558
-0.645111
-0.660655
-0.676185
-0.691705
-0.707204
-0.722694
-0.73816
-0.753609
-0.769031
-0.784428
-0.799804
-0.815146
-0.830458
-0.845736
-0.860977
-0.876179
-0.891342
-0.906454
-0.921523
-0.93654
-0.951507
-0.966412
-0.981257
-0.996043
-1.01075
-1.0254
-1.03997
-1.05447
-1.06889
-1.08323
-1.0975
-1.11168
-1.12579
-1.13983
-1.15383
-1.16784
-1.18203
-1.19659
-1.21163
-1.22679
-1.24118
-1.25398
-1.26541
-1.27672
-1.28865
1.50506
1.49794
1.49098
1.48404
1.47642
1.4676
1.45782
1.44767
1.43758
1.42764
1.41778
1.40786
1.39784
1.38768
1.37737
1.36691
1.35631
1.34556
1.33467
1.32364
1.31247
1.30117
1.28975
1.2782
1.26653
1.25475
1.24286
1.23085
1.21875
1.20654
1.19423
1.18184
1.16934
1.15677
1.1441
1.13136
1.11853
1.10563
1.09265
1.0796
1.06648
1.05329
1.04004
1.02672
1.01335
0.999907
0.986414
0.97286
0.959254
0.945593
0.931884
0.918123
0.904315
0.890458
0.876554
0.862607
0.848618
0.834588
0.820514
0.806401
0.79225
0.778058
0.763832
0.749567
0.735271
0.720937
0.706571
0.692173
0.67774
0.663276
0.648784
0.63426
0.619706
0.605124
0.590514
0.575878
0.561212
0.546518
0.531801
0.517057
0.502289
0.487494
0.472676
0.457833
0.442968
0.428078
0.413166
0.398231
0.383274
0.368295
0.353295
0.338272
0.323229
0.308167
0.293082
0.277977
0.262855
0.247709
0.232548
0.217365
0.202164
0.186943
0.171707
0.156449
0.141176
0.125883
0.110573
0.0952476
0.0799037
0.0645426
0.0491662
0.0337737
0.0183648
0.00293975
-0.0125004
-0.027956
-0.0434247
-0.058911
-0.0744091
-0.0899228
-0.105448
-0.120989
-0.136541
-0.152108
-0.167687
-0.183275
-0.198876
-0.214487
-0.230111
-0.245744
-0.261385
-0.277039
-0.2927
-0.308367
-0.324043
-0.339727
-0.355414
-0.37111
-0.386809
-0.402514
-0.418221
-0.433931
-0.449645
-0.465355
-0.481068
-0.496781
-0.512494
-0.528202
-0.543905
-0.559604
-0.575295
-0.590983
-0.606658
-0.622327
-0.637979
-0.653625
-0.669249
-0.68486
-0.700455
-0.716027
-0.731581
-0.747111
-0.762618
-0.778094
-0.79354
-0.80896
-0.824339
-0.839684
-0.854993
-0.870256
-0.88548
-0.900651
-0.915773
-0.930844
-0.945858
-0.960813
-0.975705
-0.990532
-1.00529
-1.01997
-1.03458
-1.04912
-1.06357
-1.07795
-1.09223
-1.10644
-1.12057
-1.13462
-1.14863
-1.16262
-1.1767
-1.19105
-1.2058
-1.22084
-1.23553
-1.24906
-1.26106
-1.27231
-1.28383
-1.29579
1.50907
1.50217
1.49522
1.48836
1.48116
1.47303
1.4638
1.45391
1.44385
1.43388
1.42401
1.41415
1.40421
1.39414
1.38394
1.37358
1.36307
1.35242
1.34162
1.33067
1.31959
1.30836
1.29701
1.28553
1.27392
1.26219
1.25035
1.23839
1.22632
1.21415
1.20187
1.1895
1.17702
1.16446
1.1518
1.13906
1.12623
1.11331
1.10033
1.08726
1.07412
1.0609
1.04762
1.03427
1.02085
1.00736
0.993816
0.980209
0.966545
0.952821
0.939044
0.925211
0.911327
0.897391
0.883408
0.869371
0.855291
0.841165
0.826993
0.812777
0.798522
0.784221
0.769882
0.755504
0.741086
0.72663
0.71214
0.697612
0.68305
0.668452
0.653821
0.63916
0.624464
0.609737
0.594981
0.580192
0.565375
0.550529
0.535655
0.520753
0.505823
0.490866
0.475882
0.460875
0.44584
0.430781
0.415698
0.400588
0.385459
0.370303
0.355125
0.339925
0.324703
0.309458
0.294194
0.278907
0.263599
0.248272
0.232924
0.217556
0.202169
0.186762
0.171337
0.155895
0.140432
0.124953
0.109457
0.0939419
0.0784115
0.062864
0.0473
0.0317193
0.0161268
0.000513899
-0.0151098
-0.0307501
-0.0464043
-0.0620705
-0.0777522
-0.0934462
-0.109153
-0.124871
-0.140602
-0.156343
-0.172095
-0.187859
-0.203631
-0.219412
-0.235204
-0.251001
-0.266809
-0.282624
-0.298443
-0.314271
-0.330101
-0.345938
-0.361779
-0.377622
-0.393466
-0.409315
-0.42516
-0.441008
-0.456855
-0.472698
-0.488538
-0.504379
-0.520208
-0.536033
-0.551851
-0.567661
-0.58346
-0.59925
-0.615025
-0.630786
-0.646532
-0.662262
-0.677972
-0.693659
-0.709326
-0.724973
-0.740587
-0.756177
-0.771735
-0.787262
-0.802757
-0.818217
-0.833631
-0.849006
-0.864338
-0.879621
-0.894856
-0.910037
-0.925162
-0.940231
-0.955236
-0.97018
-0.985051
-0.999854
-1.01458
-1.02923
-1.0438
-1.05829
-1.0727
-1.08701
-1.10125
-1.1154
-1.12948
-1.14349
-1.15747
-1.17148
-1.18568
-1.20019
-1.21501
-1.2298
-1.24382
-1.25649
-1.26801
-1.27928
-1.29092
-1.30272
1.51291
1.50632
1.49947
1.4926
1.48566
1.47809
1.46948
1.46
1.45009
1.44014
1.43026
1.42043
1.41056
1.40058
1.39048
1.38022
1.36982
1.35926
1.34855
1.3377
1.3267
1.31556
1.30428
1.29287
1.28133
1.26966
1.25787
1.24596
1.23394
1.2218
1.20956
1.19721
1.18476
1.17221
1.15957
1.14683
1.134
1.12109
1.10809
1.09501
1.08185
1.06861
1.0553
1.04191
1.02845
1.01492
1.00133
0.987673
0.973951
0.960167
0.946324
0.932423
0.918462
0.90445
0.890384
0.876261
0.862091
0.847869
0.8336
0.819284
0.80492
0.790514
0.776061
0.761566
0.747028
0.732451
0.717832
0.703177
0.688482
0.673749
0.658981
0.644176
0.629337
0.614464
0.599556
0.584618
0.569645
0.554642
0.539608
0.524545
0.509451
0.494326
0.479177
0.463997
0.448793
0.433558
0.4183
0.403016
0.387705
0.372371
0.357012
0.341628
0.326224
0.310792
0.295343
0.279868
0.264373
0.248856
0.233319
0.217761
0.202184
0.186586
0.17097
0.155334
0.139681
0.124007
0.108321
0.0926125
0.0768909
0.0611507
0.0453956
0.0296253
0.0138385
-0.00196178
-0.0177755
-0.033606
-0.0494461
-0.0653017
-0.0811673
-0.0970481
-0.112939
-0.128839
-0.144751
-0.160672
-0.176604
-0.192541
-0.20849
-0.224445
-0.240406
-0.256375
-0.272348
-0.288328
-0.304311
-0.320296
-0.336286
-0.352278
-0.368272
-0.384264
-0.400257
-0.416246
-0.432237
-0.448221
-0.464201
-0.480178
-0.496146
-0.512111
-0.528062
-0.544004
-0.559938
-0.575857
-0.591761
-0.607651
-0.623525
-0.639379
-0.655214
-0.671031
-0.686822
-0.702585
-0.718324
-0.734034
-0.749714
-0.765359
-0.780969
-0.796542
-0.812077
-0.827571
-0.843019
-0.858421
-0.873772
-0.88907
-0.904314
-0.9195
-0.934622
-0.949683
-0.964677
-0.979599
-0.994447
-1.00922
-1.02392
-1.03852
-1.05305
-1.06749
-1.08184
-1.0961
-1.11028
-1.12438
-1.1384
-1.15238
-1.16636
-1.18045
-1.19476
-1.20936
-1.22408
-1.2384
-1.25166
-1.26365
-1.27494
-1.28635
-1.29801
-1.3095
1.51659
1.51033
1.50365
1.49681
1.49001
1.48283
1.47482
1.46585
1.45625
1.44639
1.43653
1.42672
1.4169
1.407
1.397
1.38684
1.37654
1.36609
1.35548
1.34472
1.33381
1.32276
1.31156
1.30023
1.28876
1.27715
1.26542
1.25357
1.24159
1.2295
1.2173
1.20498
1.19256
1.18003
1.1674
1.15467
1.14185
1.12894
1.11594
1.10285
1.08967
1.07641
1.06307
1.04966
1.03616
1.0226
1.00896
0.99525
0.981477
0.967632
0.953727
0.939756
0.925727
0.911635
0.897487
0.883281
0.86902
0.854706
0.840341
0.825921
0.811452
0.796936
0.78237
0.767758
0.753103
0.738401
0.723655
0.708867
0.69404
0.679172
0.664261
0.649314
0.634328
0.619306
0.604247
0.589153
0.574023
0.558861
0.543664
0.528434
0.513175
0.497881
0.482561
0.467206
0.451826
0.436416
0.420977
0.405512
0.39002
0.374499
0.358957
0.343384
0.327792
0.312171
0.29653
0.280863
0.265177
0.249465
0.233734
0.217981
0.202208
0.186414
0.170602
0.154768
0.138919
0.123049
0.107164
0.0912587
0.0753413
0.0594015
0.0434527
0.027484
0.011503
-0.00449138
-0.0205013
-0.0365228
-0.0525561
-0.0686045
-0.0846602
-0.10073
-0.116807
-0.132895
-0.148993
-0.165097
-0.18121
-0.19733
-0.213456
-0.229587
-0.245723
-0.261864
-0.278009
-0.294154
-0.310301
-0.326451
-0.342602
-0.358751
-0.374896
-0.391041
-0.407183
-0.423318
-0.43945
-0.455576
-0.47169
-0.487798
-0.503896
-0.519984
-0.536057
-0.552119
-0.568161
-0.584192
-0.600201
-0.616194
-0.632161
-0.64811
-0.664032
-0.679929
-0.6958
-0.711638
-0.727444
-0.743219
-0.758955
-0.774656
-0.790316
-0.805932
-0.821502
-0.837027
-0.852503
-0.867928
-0.883294
-0.898602
-0.913851
-0.929036
-0.944153
-0.959201
-0.974175
-0.989074
-1.00389
-1.01863
-1.03328
-1.04785
-1.06233
-1.07671
-1.09101
-1.10521
-1.11933
-1.13337
-1.14735
-1.16131
-1.17532
-1.18949
-1.20389
-1.21848
-1.2329
-1.2466
-1.25912
-1.27066
-1.2819
-1.29341
-1.30497
-1.31614
1.5201
1.51417
1.50775
1.50102
1.49427
1.48735
1.47984
1.47143
1.46223
1.45258
1.44279
1.43301
1.42323
1.41341
1.40349
1.39344
1.38324
1.37289
1.36239
1.35173
1.34092
1.32996
1.31885
1.30759
1.2962
1.28466
1.273
1.26121
1.24929
1.23724
1.22508
1.2128
1.20041
1.18791
1.1753
1.16259
1.14978
1.13688
1.12387
1.11078
1.09759
1.08431
1.07095
1.05751
1.04399
1.03038
1.0167
1.00295
0.989122
0.97522
0.961253
0.947217
0.933116
0.91895
0.904722
0.890432
0.876084
0.861678
0.847214
0.832693
0.818121
0.803494
0.788815
0.774088
0.75931
0.744484
0.729611
0.714691
0.699728
0.68472
0.669669
0.654575
0.639442
0.624267
0.609054
0.593802
0.578513
0.563188
0.547824
0.53243
0.516999
0.501532
0.486036
0.470505
0.454945
0.439353
0.42373
0.408081
0.392399
0.376693
0.360958
0.345195
0.329408
0.313595
0.297757
0.281895
0.266009
0.250101
0.23417
0.218216
0.202243
0.186247
0.170233
0.154199
0.138146
0.122076
0.105986
0.0898805
0.073759
0.0576197
0.0414663
0.0252999
0.00911586
-0.00707711
-0.0232861
-0.0395066
-0.0557366
-0.0719806
-0.0882313
-0.104495
-0.120766
-0.137042
-0.15333
-0.169622
-0.18592
-0.202223
-0.218531
-0.234843
-0.251157
-0.267474
-0.28379
-0.300107
-0.316423
-0.332738
-0.349049
-0.365358
-0.381661
-0.397958
-0.414249
-0.430533
-0.446806
-0.463072
-0.479325
-0.495565
-0.51179
-0.528002
-0.544197
-0.560374
-0.576531
-0.592669
-0.608783
-0.624876
-0.640938
-0.656976
-0.672984
-0.688963
-0.704908
-0.720819
-0.736691
-0.752525
-0.768319
-0.784067
-0.799773
-0.815428
-0.831033
-0.846586
-0.862082
-0.877525
-0.892901
-0.90822
-0.923468
-0.938644
-0.953749
-0.968781
-0.983732
-0.998602
-1.01339
-1.02809
-1.04269
-1.05721
-1.07163
-1.08596
-1.10019
-1.11434
-1.1284
-1.14239
-1.15634
-1.1703
-1.18436
-1.19859
-1.21301
-1.22742
-1.24138
-1.2544
-1.26635
-1.27765
-1.28894
-1.30045
-1.31177
-1.32262
1.52345
1.51785
1.51173
1.50516
1.49847
1.49171
1.48458
1.4767
1.46798
1.45864
1.44901
1.43929
1.42956
1.4198
1.40996
1.40001
1.38992
1.37968
1.36928
1.35873
1.34801
1.33715
1.32613
1.31496
1.30365
1.29219
1.2806
1.26887
1.25701
1.24502
1.23291
1.22068
1.20832
1.19585
1.18327
1.17058
1.15779
1.14489
1.13189
1.11879
1.1056
1.09231
1.07893
1.06547
1.05192
1.03828
1.02456
1.01076
0.996887
0.982932
0.968907
0.954808
0.940635
0.926398
0.912092
0.897719
0.883284
0.868784
0.854225
0.839605
0.824926
0.81019
0.795399
0.780554
0.765653
0.750703
0.735701
0.720649
0.705547
0.6904
0.675207
0.659965
0.644681
0.629353
0.613982
0.598573
0.583118
0.56763
0.552097
0.53653
0.520924
0.505283
0.489606
0.473898
0.45815
0.442375
0.426564
0.410724
0.394852
0.378952
0.363022
0.347063
0.331078
0.315064
0.299027
0.282964
0.266874
0.250761
0.234628
0.218467
0.202289
0.186085
0.169866
0.153623
0.137362
0.121083
0.104789
0.0884738
0.0721451
0.055799
0.0394394
0.023066
0.0066772
-0.0097214
-0.0261348
-0.0425559
-0.0589924
-0.0754329
-0.0918855
-0.108345
-0.124814
-0.141286
-0.157767
-0.174248
-0.19074
-0.207228
-0.223722
-0.240216
-0.256711
-0.273207
-0.289699
-0.306188
-0.322676
-0.339158
-0.355634
-0.372102
-0.388566
-0.405018
-0.421461
-0.437892
-0.454312
-0.470717
-0.487104
-0.503479
-0.519833
-0.53617
-0.552486
-0.568777
-0.58505
-0.601294
-0.61751
-0.633701
-0.649857
-0.665983
-0.682074
-0.698131
-0.714151
-0.730128
-0.746065
-0.761954
-0.777802
-0.793597
-0.809341
-0.825033
-0.840669
-0.856244
-0.871761
-0.887212
-0.9026
-0.917914
-0.933158
-0.948324
-0.963411
-0.97842
-0.993343
-1.00818
-1.02292
-1.03758
-1.05213
-1.0666
-1.08096
-1.09523
-1.1094
-1.12348
-1.13749
-1.15144
-1.16537
-1.17935
-1.19345
-1.20771
-1.22203
-1.23612
-1.2495
-1.2619
-1.27342
-1.28464
-1.296
-1.30742
-1.31846
-1.32897
1.52663
1.52135
1.51555
1.50923
1.50264
1.49598
1.48911
1.48168
1.47347
1.46453
1.45513
1.44553
1.43587
1.42617
1.41641
1.40656
1.39657
1.38644
1.37615
1.3657
1.3551
1.34433
1.33341
1.32234
1.31111
1.29974
1.28822
1.27656
1.26477
1.25284
1.24078
1.2286
1.21629
1.20386
1.19131
1.17864
1.16587
1.15298
1.13999
1.1269
1.1137
1.10041
1.08702
1.07353
1.05995
1.04629
1.03254
1.0187
1.00477
0.990769
0.976688
0.962527
0.948291
0.933981
0.919597
0.905144
0.890621
0.876032
0.861378
0.846657
0.831875
0.817028
0.802124
0.787161
0.772141
0.757062
0.74193
0.726745
0.711507
0.696217
0.680877
0.66549
0.650051
0.634567
0.619038
0.603465
0.587846
0.572185
0.556485
0.540741
0.524958
0.509139
0.493277
0.477382
0.461449
0.445482
0.429481
0.413445
0.39738
0.381278
0.365151
0.34899
0.332802
0.316584
0.30034
0.284069
0.267772
0.251451
0.235105
0.218735
0.202345
0.18593
0.169496
0.153042
0.136569
0.120076
0.103567
0.0870395
0.0704976
0.0539389
0.037369
0.0207806
0.00418428
-0.0124272
-0.0290477
-0.0456787
-0.06232
-0.0789669
-0.0956264
-0.112286
-0.128955
-0.145629
-0.162305
-0.178985
-0.195668
-0.21235
-0.229032
-0.245713
-0.262394
-0.279068
-0.29574
-0.312406
-0.329065
-0.345717
-0.36236
-0.378995
-0.395616
-0.412224
-0.428819
-0.445402
-0.461965
-0.478513
-0.495038
-0.511544
-0.52803
-0.54449
-0.560927
-0.577335
-0.593716
-0.610067
-0.626384
-0.642671
-0.658918
-0.675132
-0.691302
-0.707436
-0.723525
-0.739569
-0.755563
-0.771508
-0.787405
-0.803243
-0.819024
-0.834749
-0.850407
-0.866004
-0.881533
-0.896993
-0.912379
-0.927691
-0.942921
-0.958073
-0.973139
-0.988118
-1.00301
-1.0178
-1.0325
-1.04711
-1.06161
-1.07601
-1.09031
-1.10452
-1.11863
-1.13265
-1.1466
-1.16052
-1.17445
-1.18845
-1.20256
-1.21677
-1.23087
-1.2445
-1.2573
-1.26917
-1.28046
-1.29167
-1.30302
-1.31423
-1.32496
-1.33516
1.52961
1.52465
1.51919
1.51316
1.50675
1.50018
1.49349
1.48641
1.47868
1.47019
1.46112
1.45171
1.44215
1.43253
1.42284
1.41308
1.40319
1.39317
1.38299
1.37266
1.36216
1.3515
1.34069
1.32971
1.31858
1.3073
1.29586
1.28428
1.27256
1.2607
1.2487
1.23656
1.2243
1.21192
1.1994
1.18677
1.17402